<event>
 7    1  0.2497665E-015  0.9000773E+02  0.7816164E-02  0.1186339E+00
        -11   -1    0    0    0    0  0.00000000000E+00  0.00000000000E+00  0.45593999997E+02  0.45594000000E+02  0.51100000000E-03 0.  1.
         11   -1    0    0    0    0 -0.00000000000E+00 -0.00000000000E+00 -0.45593999997E+02  0.45594000000E+02  0.51100000000E-03 0. -1.
    9900012    2    1    2    0    0  0.17421555205E+00 -0.58720659302E+00 -0.10088942782E+01  0.90007732951E+02  0.89999994226E+02 0.  0.
        -12    1    1    2    0    0 -0.17421555205E+00  0.58720659302E+00  0.10088942782E+01  0.11802670486E+01  0.00000000000E+00 0.  1.
         11    1    3    3    0    0  0.12128090925E+01 -0.32004263200E+01 -0.10673252381E+02  0.11208565973E+02  0.51100000000E-03 0. -1.
        -11    1    3    3    0    0  0.18012622266E+02  0.35422664589E+02  0.38472407955E+00  0.39741259924E+02  0.51100000000E-03 0.  1.
         12    1    3    3    0    0 -0.19051215806E+02 -0.32809444862E+02  0.92796340229E+01  0.39057907054E+02  0.00000000000E+00 0. -1.
</event>
<event>
 7    1  0.2497665E-015  0.9000768E+02  0.7816164E-02  0.1186339E+00
        -11   -1    0    0    0    0  0.00000000000E+00  0.00000000000E+00  0.45593999997E+02  0.45594000000E+02  0.51100000000E-03 0.  1.
         11   -1    0    0    0    0 -0.00000000000E+00 -0.00000000000E+00 -0.45593999997E+02  0.45594000000E+02  0.51100000000E-03 0. -1.
    9900012    2    1    2    0    0  0.11329174077E+01  0.24104054043E+00 -0.22703207001E+00  0.90007683959E+02  0.89999944588E+02 0.  0.
        -12    1    1    2    0    0 -0.11329174077E+01 -0.24104054043E+00  0.22703207001E+00  0.11803160406E+01  0.00000000000E+00 0.  1.
         11    1    3    3    0    0  0.19606965338E+02 -0.18406775060E+01  0.22181121544E+02  0.29661816138E+02  0.51100000000E-03 0. -1.
        -11    1    3    3    0    0 -0.33685119708E+01  0.13410236484E+02  0.13784416618E+02  0.19524125005E+02  0.51100000000E-03 0.  1.
         12    1    3    3    0    0 -0.15105535959E+02 -0.11328518437E+02 -0.36192570231E+02  0.40821742816E+02  0.00000000000E+00 0. -1.
</event>
<event>
 7    1  0.2497665E-015  0.9000776E+02  0.7816164E-02  0.1186339E+00
        -11   -1    0    0    0    0  0.00000000000E+00  0.00000000000E+00  0.45593999997E+02  0.45594000000E+02  0.51100000000E-03 0.  1.
         11   -1    0    0    0    0 -0.00000000000E+00 -0.00000000000E+00 -0.45593999997E+02  0.45594000000E+02  0.51100000000E-03 0. -1.
    9900012    2    1    2    0    0 -0.62524670541E-01  0.11470922175E+01 -0.27060972348E+00  0.90007762942E+02  0.90000024613E+02 0.  0.
        -12    1    1    2    0    0  0.62524670541E-01 -0.11470922175E+01  0.27060972348E+00  0.11802370577E+01  0.00000000000E+00 0.  1.
         11    1    3    3    0    0 -0.27785346632E+02 -0.17663513691E+02  0.34347796494E+01  0.33103216081E+02  0.51100000000E-03 0. -1.
        -11    1    3    3    0    0 -0.56970397225E+01 -0.89805992789E+01  0.62197169680E+01  0.12320401959E+02  0.51100000000E-03 0.  1.
        -12    1    3    3    0    0  0.33419861684E+02  0.27791205188E+02 -0.99251063409E+01  0.44584144902E+02  0.00000000000E+00 0.  1.
</event>
<event>
 7    1  0.2497665E-015  0.9000714E+02  0.7816164E-02  0.1186340E+00
        -11   -1    0    0    0    0  0.00000000000E+00  0.00000000000E+00  0.45593999997E+02  0.45594000000E+02  0.51100000000E-03 0.  1.
         11   -1    0    0    0    0 -0.00000000000E+00 -0.00000000000E+00 -0.45593999997E+02  0.45594000000E+02  0.51100000000E-03 0. -1.
    9900012    2    1    2    0    0  0.90922314553E+00 -0.41449910059E+00 -0.62924166792E+00  0.90007135355E+02  0.89999388740E+02 0.  0.
        -12    1    1    2    0    0 -0.90922314553E+00  0.41449910059E+00  0.62924166792E+00  0.11808646448E+01  0.00000000000E+00 0.  1.
         11    1    3    3    0    0 -0.56635085962E+01 -0.35902040271E+02 -0.79191910759E+01  0.37198728645E+02  0.51100000000E-03 0. -1.
        -11    1    3    3    0    0  0.57666293294E+01 -0.47072959051E+01 -0.69244040083E+01  0.10166612990E+02  0.51100000000E-03 0.  1.
        -12    1    3    3    0    0  0.80610241236E+00  0.40194837075E+02  0.14214353416E+02  0.42641793720E+02  0.00000000000E+00 0.  1.
</event>
<event>
 7    1  0.2497665E-015  0.9000776E+02  0.7816164E-02  0.1186339E+00
        -11   -1    0    0    0    0  0.00000000000E+00  0.00000000000E+00  0.45593999997E+02  0.45594000000E+02  0.51100000000E-03 0. -1.
         11   -1    0    0    0    0 -0.00000000000E+00 -0.00000000000E+00 -0.45593999997E+02  0.45594000000E+02  0.51100000000E-03 0.  1.
    9900012    2    1    2    0    0 -0.51567009488E+00  0.88692466165E+00  0.58344146207E+00  0.90007764879E+02  0.90000026575E+02 0.  0.
        -12    1    1    2    0    0  0.51567009488E+00 -0.88692466165E+00 -0.58344146207E+00  0.11802351214E+01  0.00000000000E+00 0.  1.
         11    1    3    3    0    0 -0.82250417781E+01 -0.11949768811E+02  0.34595517065E+02  0.37513971906E+02  0.51100000000E-03 0. -1.
        -11    1    3    3    0    0 -0.12618939695E+02 -0.12719960888E+01 -0.33985907712E+01  0.13130347770E+02  0.51100000000E-03 0.  1.
        -12    1    3    3    0    0  0.20328311378E+02  0.14108689562E+02 -0.30613484832E+02  0.39363445202E+02  0.00000000000E+00 0.  1.
</event>
<event>
 7    1  0.2497665E-015  0.9000779E+02  0.7816164E-02  0.1186339E+00
        -11   -1    0    0    0    0  0.00000000000E+00  0.00000000000E+00  0.45593999997E+02  0.45594000000E+02  0.51100000000E-03 0.  1.
         11   -1    0    0    0    0 -0.00000000000E+00 -0.00000000000E+00 -0.45593999997E+02  0.45594000000E+02  0.51100000000E-03 0. -1.
    9900012    2    1    2    0    0 -0.89333717480E+00 -0.74219171897E+00 -0.20975160159E+00  0.90007790023E+02  0.90000052051E+02 0.  0.
        -12    1    1    2    0    0  0.89333717480E+00  0.74219171897E+00  0.20975160159E+00  0.11802099771E+01  0.00000000000E+00 0.  1.
         11    1    3    3    0    0 -0.14614867192E+02 -0.55257608866E+01 -0.13999898443E+02  0.20979169027E+02  0.51100000000E-03 0. -1.
        -11    1    3    3    0    0 -0.55074002782E+01  0.11711210063E+02  0.36351169227E+02  0.38586155593E+02  0.51100000000E-03 0.  1.
         12    1    3    3    0    0  0.19228930295E+02 -0.69276408958E+01 -0.22561022386E+02  0.30442465403E+02  0.00000000000E+00 0. -1.
</event>
<event>
 7    1  0.2497665E-015  0.9000770E+02  0.7816164E-02  0.1186339E+00
        -11   -1    0    0    0    0  0.00000000000E+00  0.00000000000E+00  0.45593999997E+02  0.45594000000E+02  0.51100000000E-03 0.  1.
         11   -1    0    0    0    0 -0.00000000000E+00 -0.00000000000E+00 -0.45593999997E+02  0.45594000000E+02  0.51100000000E-03 0. -1.
    9900012    2    1    2    0    0 -0.53966010612E+00  0.88563024235E+00 -0.56350025656E+00  0.90007700675E+02  0.89999961524E+02 0.  0.
        -12    1    1    2    0    0  0.53966010612E+00 -0.88563024235E+00  0.56350025656E+00  0.11802993245E+01  0.00000000000E+00 0.  1.
         11    1    3    3    0    0 -0.12628592458E+01  0.99233155665E+01 -0.25448809433E+01  0.10321987434E+02  0.51100000000E-03 0. -1.
        -11    1    3    3    0    0  0.35819030570E+02 -0.22109103535E+02  0.32043149704E+01  0.42214725450E+02  0.51100000000E-03 0.  1.
         12    1    3    3    0    0 -0.35095831430E+02  0.13071418211E+02 -0.12229342836E+01  0.37470987792E+02  0.00000000000E+00 0. -1.
</event>
<event>
 7    1  0.2497665E-015  0.9000773E+02  0.7816164E-02  0.1186339E+00
        -11   -1    0    0    0    0  0.00000000000E+00  0.00000000000E+00  0.45593999997E+02  0.45594000000E+02  0.51100000000E-03 0.  1.
         11   -1    0    0    0    0 -0.00000000000E+00 -0.00000000000E+00 -0.45593999997E+02  0.45594000000E+02  0.51100000000E-03 0. -1.
    9900012    2    1    2    0    0  0.81356268932E+00 -0.31661809263E+00 -0.79429865825E+00  0.90007728157E+02  0.89999989368E+02 0.  0.
        -12    1    1    2    0    0 -0.81356268932E+00  0.31661809263E+00  0.79429865825E+00  0.11802718435E+01  0.00000000000E+00 0.  1.
         11    1    3    3    0    0 -0.30397934994E+01 -0.10692544799E+02 -0.21858354428E+01  0.11329110099E+02  0.51100000000E-03 0. -1.
        -11    1    3    3    0    0 -0.93456930042E+01  0.38799181564E+02  0.17342677779E+02  0.43514215385E+02  0.51100000000E-03 0.  1.
         12    1    3    3    0    0  0.13199049193E+02 -0.28423254858E+02 -0.15951140994E+02  0.35164402673E+02  0.00000000000E+00 0. -1.
</event>
<event>
 7    1  0.2497665E-015  0.9000759E+02  0.7816164E-02  0.1186339E+00
        -11   -1    0    0    0    0  0.00000000000E+00  0.00000000000E+00  0.45593999997E+02  0.45594000000E+02  0.51100000000E-03 0.  1.
         11   -1    0    0    0    0 -0.00000000000E+00 -0.00000000000E+00 -0.45593999997E+02  0.45594000000E+02  0.51100000000E-03 0. -1.
    9900012    2    1    2    0    0 -0.62816452560E+00 -0.67019458947E+00  0.74135566654E+00  0.90007593425E+02  0.89999852858E+02 0.  0.
        -12    1    1    2    0    0  0.62816452560E+00  0.67019458947E+00 -0.74135566654E+00  0.11804065754E+01  0.00000000000E+00 0.  1.
         11    1    3    3    0    0 -0.29732347862E+01  0.31902678823E+01  0.87511886840E+01  0.97775885524E+01  0.51100000000E-03 0. -1.
        -11    1    3    3    0    0 -0.34694143737E+02  0.15536345580E+02 -0.33916443927E+01  0.38164969482E+02  0.51100000000E-03 0.  1.
         12    1    3    3    0    0  0.37039213998E+02 -0.19396808051E+02 -0.46181886248E+01  0.42065035390E+02  0.00000000000E+00 0. -1.
</event>
<event>
 7    1  0.2497665E-015  0.9000781E+02  0.7816164E-02  0.1186339E+00
        -11   -1    0    0    0    0  0.00000000000E+00  0.00000000000E+00  0.45593999997E+02  0.45594000000E+02  0.51100000000E-03 0.  1.
         11   -1    0    0    0    0 -0.00000000000E+00 -0.00000000000E+00 -0.45593999997E+02  0.45594000000E+02  0.51100000000E-03 0. -1.
    9900012    2    1    2    0    0  0.77843744125E+00  0.64468305844E+00 -0.60931419807E+00  0.90007811503E+02  0.90000073815E+02 0.  0.
        -12    1    1    2    0    0 -0.77843744125E+00 -0.64468305844E+00  0.60931419807E+00  0.11801884967E+01  0.00000000000E+00 0.  1.
         11    1    3    3    0    0 -0.22184801932E+02 -0.18221148328E+02 -0.30557869539E+02  0.41928022540E+02  0.51100000000E-03 0. -1.
        -11    1    3    3    0    0 -0.23890810943E+01  0.87802862590E+01  0.26359518732E+01  0.94736148225E+01  0.51100000000E-03 0.  1.
        -12    1    3    3    0    0  0.25352320467E+02  0.10085545127E+02  0.27312603468E+02  0.38606174140E+02  0.00000000000E+00 0.  1.
</event>
<event>
 7    1  0.2497665E-015  0.9000773E+02  0.7816164E-02  0.1186339E+00
        -11   -1    0    0    0    0  0.00000000000E+00  0.00000000000E+00  0.45593999997E+02  0.45594000000E+02  0.51100000000E-03 0.  1.
         11   -1    0    0    0    0 -0.00000000000E+00 -0.00000000000E+00 -0.45593999997E+02  0.45594000000E+02  0.51100000000E-03 0. -1.
    9900012    2    1    2    0    0  0.10533727760E+01  0.10903537571E+00  0.52111354292E+00  0.90007727895E+02  0.89999989103E+02 0.  0.
        -12    1    1    2    0    0 -0.10533727760E+01 -0.10903537571E+00 -0.52111354292E+00  0.11802721055E+01  0.00000000000E+00 0.  1.
         11    1    3    3    0    0 -0.20521558550E+02 -0.30526532906E+02  0.36532165182E+01  0.36964165996E+02  0.51100000000E-03 0. -1.
        -11    1    3    3    0    0 -0.75732773231E+01  0.20435831510E+01  0.74988543826E+01  0.10851892868E+02  0.51100000000E-03 0.  1.
        -12    1    3    3    0    0  0.29148208649E+02  0.28591985131E+02 -0.10630957358E+02  0.42191669030E+02  0.00000000000E+00 0.  1.
</event>
<event>
 7    1  0.2497665E-015  0.9000776E+02  0.7816164E-02  0.1186339E+00
        -11   -1    0    0    0    0  0.00000000000E+00  0.00000000000E+00  0.45593999997E+02  0.45594000000E+02  0.51100000000E-03 0.  1.
         11   -1    0    0    0    0 -0.00000000000E+00 -0.00000000000E+00 -0.45593999997E+02  0.45594000000E+02  0.51100000000E-03 0. -1.
    9900012    2    1    2    0    0 -0.80621241387E+00 -0.85943829274E+00  0.66006080764E-01  0.90007758737E+02  0.90000020353E+02 0.  0.
        -12    1    1    2    0    0  0.80621241387E+00  0.85943829274E+00 -0.66006080764E-01  0.11802412626E+01  0.00000000000E+00 0.  1.
         11    1    3    3    0    0 -0.13585299246E+02  0.83972663929E+00 -0.62909055541E+01  0.14994698709E+02  0.51100000000E-03 0. -1.
        -11    1    3    3    0    0 -0.20140732599E+02  0.21861240059E+02 -0.99847344170E+01  0.31356942583E+02  0.51100000000E-03 0.  1.
         12    1    3    3    0    0  0.32919819431E+02 -0.23560404991E+02  0.16341646052E+02  0.43656117445E+02  0.00000000000E+00 0. -1.
</event>
<event>
 7    1  0.2497665E-015  0.9000783E+02  0.7816164E-02  0.1186339E+00
        -11   -1    0    0    0    0  0.00000000000E+00  0.00000000000E+00  0.45593999997E+02  0.45594000000E+02  0.51100000000E-03 0.  1.
         11   -1    0    0    0    0 -0.00000000000E+00 -0.00000000000E+00 -0.45593999997E+02  0.45594000000E+02  0.51100000000E-03 0. -1.
    9900012    2    1    2    0    0 -0.27142415461E+00  0.75065541027E+00 -0.86928180330E+00  0.90007828203E+02  0.90000090735E+02 0.  0.
        -12    1    1    2    0    0  0.27142415461E+00 -0.75065541027E+00  0.86928180330E+00  0.11801717969E+01  0.00000000000E+00 0.  1.
         11    1    3    3    0    0  0.54172942483E+01  0.52645833138E+01  0.51207396216E+01  0.91260554992E+01  0.51100000000E-03 0. -1.
        -11    1    3    3    0    0 -0.59967011878E+01  0.19879904318E+02  0.30554524117E+02  0.36942522452E+02  0.51100000000E-03 0.  1.
         12    1    3    3    0    0  0.30798278496E+00 -0.24393832221E+02 -0.36544545542E+02  0.43939250252E+02  0.00000000000E+00 0. -1.
</event>
<event>
 7    1  0.2497665E-015  0.9000765E+02  0.7816164E-02  0.1186339E+00
        -11   -1    0    0    0    0  0.00000000000E+00  0.00000000000E+00  0.45593999997E+02  0.45594000000E+02  0.51100000000E-03 0. -1.
         11   -1    0    0    0    0 -0.00000000000E+00 -0.00000000000E+00 -0.45593999997E+02  0.45594000000E+02  0.51100000000E-03 0.  1.
    9900012    2    1    2    0    0  0.99490066843E+00  0.43842904375E+00 -0.45954283857E+00  0.90007649634E+02  0.89999909809E+02 0.  0.
        -12    1    1    2    0    0 -0.99490066843E+00 -0.43842904375E+00  0.45954283857E+00  0.11803503662E+01  0.00000000000E+00 0.  1.
         11    1    3    3    0    0 -0.55930253786E+01  0.22013810054E+01  0.55114737540E+00  0.60358739969E+01  0.51100000000E-03 0. -1.
        -11    1    3    3    0    0  0.14310678378E+02  0.38141540105E+02 -0.10839613860E+02  0.42155306026E+02  0.51100000000E-03 0.  1.
         12    1    3    3    0    0 -0.77227523305E+01 -0.39904492067E+02  0.98289236459E+01  0.41816469611E+02  0.00000000000E+00 0. -1.
</event>
<event>
 7    1  0.2497665E-015  0.9000773E+02  0.7816164E-02  0.1186339E+00
        -11   -1    0    0    0    0  0.00000000000E+00  0.00000000000E+00  0.45593999997E+02  0.45594000000E+02  0.51100000000E-03 0. -1.
         11   -1    0    0    0    0 -0.00000000000E+00 -0.00000000000E+00 -0.45593999997E+02  0.45594000000E+02  0.51100000000E-03 0.  1.
    9900012    2    1    2    0    0  0.10617590335E+01 -0.40465472847E+00  0.31932949502E+00  0.90007725023E+02  0.89999986193E+02 0.  0.
        -12    1    1    2    0    0 -0.10617590335E+01  0.40465472847E+00 -0.31932949502E+00  0.11802749768E+01  0.00000000000E+00 0.  1.
         11    1    3    3    0    0  0.13507259078E+02  0.21606800265E+02  0.28476014774E+02  0.38212344644E+02  0.51100000000E-03 0. -1.
        -11    1    3    3    0    0 -0.64209059125E+01 -0.20661439453E+01  0.77545068074E+01  0.10277614491E+02  0.51100000000E-03 0.  1.
        -12    1    3    3    0    0 -0.60245941323E+01 -0.19945311049E+02 -0.35911192086E+02  0.41517765888E+02  0.00000000000E+00 0.  1.
</event>
<event>
 7    1  0.2497665E-015  0.9000768E+02  0.7816164E-02  0.1186339E+00
        -11   -1    0    0    0    0  0.00000000000E+00  0.00000000000E+00  0.45593999997E+02  0.45594000000E+02  0.51100000000E-03 0.  1.
         11   -1    0    0    0    0 -0.00000000000E+00 -0.00000000000E+00 -0.45593999997E+02  0.45594000000E+02  0.51100000000E-03 0. -1.
    9900012    2    1    2    0    0 -0.66735848596E-01  0.77399804140E+00 -0.88861447163E+00  0.90007677027E+02  0.89999937564E+02 0.  0.
        -12    1    1    2    0    0  0.66735848596E-01 -0.77399804140E+00  0.88861447163E+00  0.11803229731E+01  0.00000000000E+00 0.  1.
         11    1    3    3    0    0  0.32360271787E+02 -0.19492529805E+00 -0.13934295205E+02  0.35233361593E+02  0.51100000000E-03 0. -1.
        -11    1    3    3    0    0  0.46241088359E+01 -0.23579154422E+01 -0.98208639862E+01  0.11108173453E+02  0.51100000000E-03 0.  1.
        -12    1    3    3    0    0 -0.37051116472E+02  0.33268387817E+01  0.22866544720E+02  0.43666141981E+02  0.00000000000E+00 0.  1.
</event>
<event>
 7    1  0.2497665E-015  0.9000790E+02  0.7816164E-02  0.1186339E+00
        -11   -1    0    0    0    0  0.00000000000E+00  0.00000000000E+00  0.45593999997E+02  0.45594000000E+02  0.51100000000E-03 0. -1.
         11   -1    0    0    0    0 -0.00000000000E+00 -0.00000000000E+00 -0.45593999997E+02  0.45594000000E+02  0.51100000000E-03 0.  1.
    9900012    2    1    2    0    0  0.30229296907E+00 -0.78952934093E+00  0.82333884606E+00  0.90007904887E+02  0.90000168432E+02 0.  0.
        -12    1    1    2    0    0 -0.30229296907E+00  0.78952934093E+00 -0.82333884606E+00  0.11800951126E+01  0.00000000000E+00 0.  1.
         11    1    3    3    0    0  0.16762153895E+02  0.35635104891E+02 -0.51028337104E+01  0.39709815109E+02  0.51100000000E-03 0. -1.
        -11    1    3    3    0    0 -0.48558249499E+01  0.43314696313E+01  0.44752899890E+01  0.78973974104E+01  0.51100000000E-03 0.  1.
        -12    1    3    3    0    0 -0.11604035976E+02 -0.40756103864E+02  0.14508825674E+01  0.42400692368E+02  0.00000000000E+00 0.  1.
</event>
<event>
 7    1  0.2497665E-015  0.9000772E+02  0.7816164E-02  0.1186339E+00
        -11   -1    0    0    0    0  0.00000000000E+00  0.00000000000E+00  0.45593999997E+02  0.45594000000E+02  0.51100000000E-03 0.  1.
         11   -1    0    0    0    0 -0.00000000000E+00 -0.00000000000E+00 -0.45593999997E+02  0.45594000000E+02  0.51100000000E-03 0. -1.
    9900012    2    1    2    0    0 -0.20690750392E+00  0.93801417367E+00 -0.68584551893E+00  0.90007718093E+02  0.89999979171E+02 0.  0.
        -12    1    1    2    0    0  0.20690750392E+00 -0.93801417367E+00  0.68584551893E+00  0.11802819074E+01  0.00000000000E+00 0.  1.
         11    1    3    3    0    0 -0.36584347508E+02 -0.10632496732E+02  0.70434825291E+01  0.38743710660E+02  0.51100000000E-03 0. -1.
        -11    1    3    3    0    0 -0.35495305261E+00 -0.19895510919E+01  0.86042663964E+01  0.88384221272E+01  0.51100000000E-03 0.  1.
        -12    1    3    3    0    0  0.36732393056E+02  0.13560061998E+02 -0.16333594444E+02  0.42425585305E+02  0.00000000000E+00 0.  1.
</event>
<event>
 7    1  0.2497665E-015  0.9000780E+02  0.7816164E-02  0.1186339E+00
        -11   -1    0    0    0    0  0.00000000000E+00  0.00000000000E+00  0.45593999997E+02  0.45594000000E+02  0.51100000000E-03 0. -1.
         11   -1    0    0    0    0 -0.00000000000E+00 -0.00000000000E+00 -0.45593999997E+02  0.45594000000E+02  0.51100000000E-03 0.  1.
    9900012    2    1    2    0    0  0.54363810049E+00 -0.10363891012E+01 -0.15240335575E+00  0.90007800213E+02  0.90000062376E+02 0.  0.
        -12    1    1    2    0    0 -0.54363810049E+00  0.10363891012E+01  0.15240335575E+00  0.11801997866E+01  0.00000000000E+00 0.  1.
         11    1    3    3    0    0  0.28046582116E+02  0.21241143721E+02 -0.36697782703E+00  0.35184252557E+02  0.51100000000E-03 0. -1.
        -11    1    3    3    0    0  0.71067148147E+01 -0.10639031180E+01  0.10707862938E+02  0.12895565682E+02  0.51100000000E-03 0.  1.
        -12    1    3    3    0    0 -0.34609658831E+02 -0.21213629704E+02 -0.10493288467E+02  0.41927981974E+02  0.00000000000E+00 0.  1.
</event>
<event>
 7    1  0.2497665E-015  0.9000753E+02  0.7816164E-02  0.1186339E+00
        -11   -1    0    0    0    0  0.00000000000E+00  0.00000000000E+00  0.45593999997E+02  0.45594000000E+02  0.51100000000E-03 0. -1.
         11   -1    0    0    0    0 -0.00000000000E+00 -0.00000000000E+00 -0.45593999997E+02  0.45594000000E+02  0.51100000000E-03 0.  1.
    9900012    2    1    2    0    0  0.17982791210E+00 -0.85840783929E+00  0.79012831936E+00  0.90007531933E+02  0.89999790554E+02 0.  0.
        -12    1    1    2    0    0 -0.17982791210E+00  0.85840783929E+00 -0.79012831936E+00  0.11804680672E+01  0.00000000000E+00 0.  1.
         11    1    3    3    0    0 -0.26907556256E+01 -0.22856981159E+01  0.78821139535E+01  0.86366835273E+01  0.51100000000E-03 0. -1.
        -11    1    3    3    0    0 -0.25571662345E+02  0.24770896596E+02 -0.21798585436E+02  0.41745485511E+02  0.51100000000E-03 0.  1.
         12    1    3    3    0    0  0.28442245882E+02 -0.23343606319E+02  0.14706599802E+02  0.39625362895E+02  0.00000000000E+00 0. -1.
</event>
<event>
 7    1  0.2497665E-015  0.9000770E+02  0.7816164E-02  0.1186339E+00
        -11   -1    0    0    0    0  0.00000000000E+00  0.00000000000E+00  0.45593999997E+02  0.45594000000E+02  0.51100000000E-03 0.  1.
         11   -1    0    0    0    0 -0.00000000000E+00 -0.00000000000E+00 -0.45593999997E+02  0.45594000000E+02  0.51100000000E-03 0. -1.
    9900012    2    1    2    0    0 -0.10754351767E+00  0.48387228291E+00 -0.10711768742E+01  0.90007695848E+02  0.89999956634E+02 0.  0.
        -12    1    1    2    0    0  0.10754351767E+00 -0.48387228291E+00  0.10711768742E+01  0.11803041516E+01  0.00000000000E+00 0.  1.
         11    1    3    3    0    0 -0.11133342305E+01  0.67121517935E+01  0.41091871415E+01  0.79484535624E+01  0.51100000000E-03 0. -1.
        -11    1    3    3    0    0 -0.13936898941E+01 -0.67442424638E+01  0.38095935859E+02  0.38713402165E+02  0.51100000000E-03 0.  1.
         12    1    3    3    0    0  0.23994806070E+01  0.51596295323E+00 -0.43276299875E+02  0.43345840121E+02  0.00000000000E+00 0. -1.
</event>
<event>
 7    1  0.2497665E-015  0.9000756E+02  0.7816164E-02  0.1186339E+00
        -11   -1    0    0    0    0  0.00000000000E+00  0.00000000000E+00  0.45593999997E+02  0.45594000000E+02  0.51100000000E-03 0.  1.
         11   -1    0    0    0    0 -0.00000000000E+00 -0.00000000000E+00 -0.45593999997E+02  0.45594000000E+02  0.51100000000E-03 0. -1.
    9900012    2    1    2    0    0  0.35883118211E+00 -0.78576000088E+00 -0.80452379013E+00  0.90007560622E+02  0.89999819622E+02 0.  0.
        -12    1    1    2    0    0 -0.35883118211E+00  0.78576000088E+00  0.80452379013E+00  0.11804393780E+01  0.00000000000E+00 0.  1.
         11    1    3    3    0    0  0.59789962914E+01  0.38978202630E+01 -0.60931626563E+01  0.93844568768E+01  0.51100000000E-03 0. -1.
        -11    1    3    3    0    0 -0.15992804080E+02  0.24865070086E+02  0.28946076993E+02  0.41375317114E+02  0.51100000000E-03 0.  1.
         12    1    3    3    0    0  0.10372638971E+02 -0.29548650350E+02 -0.23657438127E+02  0.39247786631E+02  0.00000000000E+00 0. -1.
</event>
<event>
 7    1  0.2497665E-015  0.9000774E+02  0.7816164E-02  0.1186339E+00
        -11   -1    0    0    0    0  0.00000000000E+00  0.00000000000E+00  0.45593999997E+02  0.45594000000E+02  0.51100000000E-03 0.  1.
         11   -1    0    0    0    0 -0.00000000000E+00 -0.00000000000E+00 -0.45593999997E+02  0.45594000000E+02  0.51100000000E-03 0. -1.
    9900012    2    1    2    0    0 -0.10948828910E+01  0.43967042705E+00  0.30702261817E-01  0.90007736784E+02  0.89999998110E+02 0.  0.
        -12    1    1    2    0    0  0.10948828910E+01 -0.43967042705E+00 -0.30702261817E-01  0.11802632157E+01  0.00000000000E+00 0.  1.
         11    1    3    3    0    0 -0.81034009016E+01  0.99234965701E+01 -0.31343120782E+02  0.33860480076E+02  0.51100000000E-03 0. -1.
        -11    1    3    3    0    0 -0.76952190218E+01 -0.21163997941E+00 -0.92062831319E+01  0.12000701506E+02  0.51100000000E-03 0.  1.
        -12    1    3    3    0    0  0.14703737032E+02 -0.92721861637E+01  0.40580106176E+02  0.44146555202E+02  0.00000000000E+00 0.  1.
</event>
<event>
 7    1  0.2497665E-015  0.9000786E+02  0.7816164E-02  0.1186339E+00
        -11   -1    0    0    0    0  0.00000000000E+00  0.00000000000E+00  0.45593999997E+02  0.45594000000E+02  0.51100000000E-03 0.  1.
         11   -1    0    0    0    0 -0.00000000000E+00 -0.00000000000E+00 -0.45593999997E+02  0.45594000000E+02  0.51100000000E-03 0. -1.
    9900012    2    1    2    0    0 -0.10507003299E+01  0.36293537808E+00 -0.39629173789E+00  0.90007855766E+02  0.90000118662E+02 0.  0.
        -12    1    1    2    0    0  0.10507003299E+01 -0.36293537808E+00  0.39629173789E+00  0.11801442341E+01  0.00000000000E+00 0.  1.
         11    1    3    3    0    0  0.25654734990E+01  0.97760911957E+01  0.15763012102E+02  0.18725014396E+02  0.51100000000E-03 0. -1.
        -11    1    3    3    0    0 -0.22410751582E+02 -0.31044474746E+01  0.19901170265E+02  0.30131975687E+02  0.51100000000E-03 0.  1.
         12    1    3    3    0    0  0.18794577754E+02 -0.63087083430E+01 -0.36060474104E+02  0.41150865684E+02  0.00000000000E+00 0. -1.
</event>
<event>
 7    1  0.2497665E-015  0.9000775E+02  0.7816164E-02  0.1186339E+00
        -11   -1    0    0    0    0  0.00000000000E+00  0.00000000000E+00  0.45593999997E+02  0.45594000000E+02  0.51100000000E-03 0. -1.
         11   -1    0    0    0    0 -0.00000000000E+00 -0.00000000000E+00 -0.45593999997E+02  0.45594000000E+02  0.51100000000E-03 0.  1.
    9900012    2    1    2    0    0 -0.56436904951E+00  0.81218878435E+00  0.64407159197E+00  0.90007749492E+02  0.90000010986E+02 0.  0.
        -12    1    1    2    0    0  0.56436904951E+00 -0.81218878435E+00 -0.64407159197E+00  0.11802505078E+01  0.00000000000E+00 0.  1.
         11    1    3    3    0    0  0.65760524226E+01 -0.24911302953E+01 -0.25064502372E+01  0.74654195237E+01  0.51100000000E-03 0. -1.
        -11    1    3    3    0    0 -0.96836159489E+00 -0.33621711544E+02 -0.19408420968E+02  0.38833542410E+02  0.51100000000E-03 0.  1.
         12    1    3    3    0    0 -0.61720598772E+01  0.36925030624E+02  0.22558942797E+02  0.43708787559E+02  0.00000000000E+00 0. -1.
</event>
<event>
 7    1  0.2497665E-015  0.9000779E+02  0.7816164E-02  0.1186339E+00
        -11   -1    0    0    0    0  0.00000000000E+00  0.00000000000E+00  0.45593999997E+02  0.45594000000E+02  0.51100000000E-03 0.  1.
         11   -1    0    0    0    0 -0.00000000000E+00 -0.00000000000E+00 -0.45593999997E+02  0.45594000000E+02  0.51100000000E-03 0. -1.
    9900012    2    1    2    0    0  0.10165653755E+01  0.49340848576E+00  0.34064996197E+00  0.90007788369E+02  0.90000050376E+02 0.  0.
        -12    1    1    2    0    0 -0.10165653755E+01 -0.49340848576E+00 -0.34064996197E+00  0.11802116306E+01  0.00000000000E+00 0.  1.
         11    1    3    3    0    0  0.20443448626E+02 -0.62605573154E+01  0.20449679381E+01  0.21478153173E+02  0.51100000000E-03 0. -1.
        -11    1    3    3    0    0  0.13759582539E+02  0.14113639251E+02  0.20094319871E+02  0.28147870539E+02  0.51100000000E-03 0.  1.
         12    1    3    3    0    0 -0.33186465789E+02 -0.73596734496E+01 -0.21798637847E+02  0.40381764657E+02  0.00000000000E+00 0. -1.
</event>
<event>
 7    1  0.2497665E-015  0.9000773E+02  0.7816164E-02  0.1186339E+00
        -11   -1    0    0    0    0  0.00000000000E+00  0.00000000000E+00  0.45593999997E+02  0.45594000000E+02  0.51100000000E-03 0.  1.
         11   -1    0    0    0    0 -0.00000000000E+00 -0.00000000000E+00 -0.45593999997E+02  0.45594000000E+02  0.51100000000E-03 0. -1.
    9900012    2    1    2    0    0  0.22306868248E+00  0.51720570526E+00 -0.10372016530E+01  0.90007725181E+02  0.89999986354E+02 0.  0.
        -12    1    1    2    0    0 -0.22306868248E+00 -0.51720570526E+00  0.10372016530E+01  0.11802748187E+01  0.00000000000E+00 0.  1.
         11    1    3    3    0    0  0.43038971428E+01  0.10161684443E+02 -0.19005129698E+01  0.11198004785E+02  0.51100000000E-03 0. -1.
        -11    1    3    3    0    0 -0.40767850972E+01  0.31728598573E+02  0.14671245849E+02  0.35193317535E+02  0.51100000000E-03 0.  1.
         12    1    3    3    0    0 -0.40433631093E-02 -0.41373077311E+02 -0.13807934532E+02  0.43616402861E+02  0.00000000000E+00 0. -1.
</event>
<event>
 7    1  0.2497665E-015  0.9000770E+02  0.7816164E-02  0.1186339E+00
        -11   -1    0    0    0    0  0.00000000000E+00  0.00000000000E+00  0.45593999997E+02  0.45594000000E+02  0.51100000000E-03 0.  1.
         11   -1    0    0    0    0 -0.00000000000E+00 -0.00000000000E+00 -0.45593999997E+02  0.45594000000E+02  0.51100000000E-03 0. -1.
    9900012    2    1    2    0    0 -0.93433246753E+00  0.67865151755E+00  0.24406226712E+00  0.90007698584E+02  0.89999959405E+02 0.  0.
        -12    1    1    2    0    0  0.93433246753E+00 -0.67865151755E+00 -0.24406226712E+00  0.11803014159E+01  0.00000000000E+00 0.  1.
         11    1    3    3    0    0  0.10931004027E+01  0.83339133252E+01 -0.39221774062E+01  0.92753682228E+01  0.51100000000E-03 0. -1.
        -11    1    3    3    0    0  0.18859563589E+02  0.18752846969E+02 -0.24764423459E+02  0.36340460615E+02  0.51100000000E-03 0.  1.
         12    1    3    3    0    0 -0.20886996460E+02 -0.26408108776E+02  0.28930663132E+02  0.44391869746E+02  0.00000000000E+00 0. -1.
</event>
<event>
 7    1  0.2497665E-015  0.9000777E+02  0.7816164E-02  0.1186339E+00
        -11   -1    0    0    0    0  0.00000000000E+00  0.00000000000E+00  0.45593999997E+02  0.45594000000E+02  0.51100000000E-03 0. -1.
         11   -1    0    0    0    0 -0.00000000000E+00 -0.00000000000E+00 -0.45593999997E+02  0.45594000000E+02  0.51100000000E-03 0.  1.
    9900012    2    1    2    0    0  0.12280423015E+00  0.36926201088E+00  0.11142294243E+01  0.90007770140E+02  0.90000031906E+02 0.  0.
        -12    1    1    2    0    0 -0.12280423015E+00 -0.36926201088E+00 -0.11142294243E+01  0.11802298597E+01  0.00000000000E+00 0.  1.
         11    1    3    3    0    0  0.25125314532E+02  0.28611443137E+02  0.64456223414E+00  0.38082956416E+02  0.51100000000E-03 0. -1.
        -11    1    3    3    0    0 -0.36463470099E+01  0.77975907751E+01  0.47207784675E+01  0.98175362496E+01  0.51100000000E-03 0.  1.
        -12    1    3    3    0    0 -0.21356163292E+02 -0.36039771901E+02 -0.42511112773E+01  0.42107277474E+02  0.00000000000E+00 0.  1.
</event>
<event>
 7    1  0.2497665E-015  0.9000771E+02  0.7816164E-02  0.1186339E+00
        -11   -1    0    0    0    0  0.00000000000E+00  0.00000000000E+00  0.45593999997E+02  0.45594000000E+02  0.51100000000E-03 0. -1.
         11   -1    0    0    0    0 -0.00000000000E+00 -0.00000000000E+00 -0.45593999997E+02  0.45594000000E+02  0.51100000000E-03 0.  1.
    9900012    2    1    2    0    0  0.81448495153E+00 -0.11841460273E+00  0.84597331272E+00  0.90007712493E+02  0.89999973497E+02 0.  0.
        -12    1    1    2    0    0 -0.81448495153E+00  0.11841460273E+00 -0.84597331272E+00  0.11802875075E+01  0.00000000000E+00 0.  1.
         11    1    3    3    0    0 -0.53244619638E+01 -0.22676344015E+02  0.25559909610E+02  0.34581432194E+02  0.51100000000E-03 0. -1.
        -11    1    3    3    0    0  0.12341842702E+02 -0.16144544116E+01  0.76106015969E+01  0.14589338616E+02  0.51100000000E-03 0.  1.
        -12    1    3    3    0    0 -0.62028957868E+01  0.24172383824E+02 -0.32324537894E+02  0.40836941682E+02  0.00000000000E+00 0.  1.
</event>
<event>
 7    1  0.2497665E-015  0.9000781E+02  0.7816164E-02  0.1186339E+00
        -11   -1    0    0    0    0  0.00000000000E+00  0.00000000000E+00  0.45593999997E+02  0.45594000000E+02  0.51100000000E-03 0.  1.
         11   -1    0    0    0    0 -0.00000000000E+00 -0.00000000000E+00 -0.45593999997E+02  0.45594000000E+02  0.51100000000E-03 0. -1.
    9900012    2    1    2    0    0 -0.50788272552E+00 -0.62155005030E+00 -0.86520154783E+00  0.90007812283E+02  0.90000074606E+02 0.  0.
        -12    1    1    2    0    0  0.50788272552E+00  0.62155005030E+00  0.86520154783E+00  0.11801877165E+01  0.00000000000E+00 0.  1.
         11    1    3    3    0    0 -0.41615119195E+01 -0.52651192075E+01 -0.68387613914E+01  0.95816657923E+01  0.51100000000E-03 0. -1.
        -11    1    3    3    0    0 -0.30388850116E+02  0.22695383214E+02 -0.91757572470E+01  0.39022521086E+02  0.51100000000E-03 0.  1.
         12    1    3    3    0    0  0.34042479310E+02 -0.18051814057E+02  0.15149317091E+02  0.41403625405E+02  0.00000000000E+00 0. -1.
</event>
<event>
 7    1  0.2497665E-015  0.9000770E+02  0.7816164E-02  0.1186339E+00
        -11   -1    0    0    0    0  0.00000000000E+00  0.00000000000E+00  0.45593999997E+02  0.45594000000E+02  0.51100000000E-03 0.  1.
         11   -1    0    0    0    0 -0.00000000000E+00 -0.00000000000E+00 -0.45593999997E+02  0.45594000000E+02  0.51100000000E-03 0. -1.
    9900012    2    1    2    0    0  0.25223809043E+00 -0.41056499938E+00 -0.10774618447E+01  0.90007698471E+02  0.89999959291E+02 0.  0.
        -12    1    1    2    0    0 -0.25223809043E+00  0.41056499938E+00  0.10774618447E+01  0.11803015291E+01  0.00000000000E+00 0.  1.
         11    1    3    3    0    0 -0.15852730729E+02 -0.33488145075E+02 -0.12590177735E+02  0.39131541087E+02  0.51100000000E-03 0. -1.
        -11    1    3    3    0    0 -0.23762561306E+01 -0.22009730671E+01 -0.64261306793E+01  0.71962512052E+01  0.51100000000E-03 0.  1.
        -12    1    3    3    0    0  0.18481224950E+02  0.35278553143E+02  0.17938846570E+02  0.43679906179E+02  0.00000000000E+00 0.  1.
</event>
<event>
 7    1  0.2497665E-015  0.9000772E+02  0.7816164E-02  0.1186339E+00
        -11   -1    0    0    0    0  0.00000000000E+00  0.00000000000E+00  0.45593999997E+02  0.45594000000E+02  0.51100000000E-03 0. -1.
         11   -1    0    0    0    0 -0.00000000000E+00 -0.00000000000E+00 -0.45593999997E+02  0.45594000000E+02  0.51100000000E-03 0.  1.
    9900012    2    1    2    0    0 -0.22806588963E+00  0.49244008852E+00  0.10481194923E+01  0.90007717932E+02  0.89999979008E+02 0.  0.
        -12    1    1    2    0    0  0.22806588963E+00 -0.49244008852E+00 -0.10481194923E+01  0.11802820684E+01  0.00000000000E+00 0.  1.
         11    1    3    3    0    0  0.58428441489E+01  0.35235815858E+01 -0.62639386886E+01  0.92623637964E+01  0.51100000000E-03 0. -1.
        -11    1    3    3    0    0  0.30883681232E+02 -0.14681646724E+02  0.20434293133E+02  0.39836074770E+02  0.51100000000E-03 0.  1.
         12    1    3    3    0    0 -0.36954591271E+02  0.11650505227E+02 -0.13122234952E+02  0.40909279365E+02  0.00000000000E+00 0. -1.
</event>
<event>
 7    1  0.2497665E-015  0.9000768E+02  0.7816164E-02  0.1186339E+00
        -11   -1    0    0    0    0  0.00000000000E+00  0.00000000000E+00  0.45593999997E+02  0.45594000000E+02  0.51100000000E-03 0.  1.
         11   -1    0    0    0    0 -0.00000000000E+00 -0.00000000000E+00 -0.45593999997E+02  0.45594000000E+02  0.51100000000E-03 0. -1.
    9900012    2    1    2    0    0 -0.17958597692E+00 -0.73817923933E+00 -0.90332075997E+00  0.90007683048E+02  0.89999943664E+02 0.  0.
        -12    1    1    2    0    0  0.17958597692E+00  0.73817923933E+00  0.90332075997E+00  0.11803169523E+01  0.00000000000E+00 0.  1.
         11    1    3    3    0    0  0.24297935388E+02  0.19024986691E+02 -0.32642773076E+02  0.44920935175E+02  0.51100000000E-03 0. -1.
        -11    1    3    3    0    0 -0.59863015387E+01 -0.61054014172E+01  0.53394349909E+01  0.10080739004E+02  0.51100000000E-03 0.  1.
        -12    1    3    3    0    0 -0.18491219826E+02 -0.13657764513E+02  0.26400017325E+02  0.35006008869E+02  0.00000000000E+00 0.  1.
</event>
<event>
 7    1  0.2497665E-015  0.9000785E+02  0.7816164E-02  0.1186339E+00
        -11   -1    0    0    0    0  0.00000000000E+00  0.00000000000E+00  0.45593999997E+02  0.45594000000E+02  0.51100000000E-03 0. -1.
         11   -1    0    0    0    0 -0.00000000000E+00 -0.00000000000E+00 -0.45593999997E+02  0.45594000000E+02  0.51100000000E-03 0.  1.
    9900012    2    1    2    0    0 -0.84178609459E+00  0.74600426028E+00  0.35724174018E+00  0.90007852617E+02  0.90000115471E+02 0.  0.
        -12    1    1    2    0    0  0.84178609459E+00 -0.74600426028E+00 -0.35724174018E+00  0.11801473833E+01  0.00000000000E+00 0.  1.
         11    1    3    3    0    0  0.37734656191E+00  0.41262139251E+01 -0.64806378035E+01  0.76919892346E+01  0.51100000000E-03 0. -1.
        -11    1    3    3    0    0  0.75426021016E+01  0.17957235458E+02 -0.31815114917E+02  0.37303547944E+02  0.51100000000E-03 0.  1.
         12    1    3    3    0    0 -0.87617347581E+01 -0.21337445123E+02  0.38652994461E+02  0.45012315438E+02  0.00000000000E+00 0. -1.
</event>
<event>
 7    1  0.2497665E-015  0.9000773E+02  0.7816164E-02  0.1186339E+00
        -11   -1    0    0    0    0  0.00000000000E+00  0.00000000000E+00  0.45593999997E+02  0.45594000000E+02  0.51100000000E-03 0.  1.
         11   -1    0    0    0    0 -0.00000000000E+00 -0.00000000000E+00 -0.45593999997E+02  0.45594000000E+02  0.51100000000E-03 0. -1.
    9900012    2    1    2    0    0 -0.10913451435E+01 -0.16434947123E+00 -0.41831510647E+00  0.90007732022E+02  0.89999993285E+02 0.  0.
        -12    1    1    2    0    0  0.10913451435E+01  0.16434947123E+00  0.41831510647E+00  0.11802679777E+01  0.00000000000E+00 0.  1.
         11    1    3    3    0    0 -0.14442968056E+01 -0.55335435944E+01  0.91546351399E+01  0.10794139279E+02  0.51100000000E-03 0. -1.
        -11    1    3    3    0    0  0.30423865063E+02 -0.14745464515E+02 -0.22705459190E+02  0.40725645071E+02  0.51100000000E-03 0.  1.
         12    1    3    3    0    0 -0.30070913401E+02  0.20114658638E+02  0.13132508944E+02  0.38487947672E+02  0.00000000000E+00 0. -1.
</event>
<event>
 7    1  0.2497665E-015  0.9000773E+02  0.7816164E-02  0.1186339E+00
        -11   -1    0    0    0    0  0.00000000000E+00  0.00000000000E+00  0.45593999997E+02  0.45594000000E+02  0.51100000000E-03 0. -1.
         11   -1    0    0    0    0 -0.00000000000E+00 -0.00000000000E+00 -0.45593999997E+02  0.45594000000E+02  0.51100000000E-03 0.  1.
    9900012    2    1    2    0    0  0.10156374661E+01 -0.21521063620E+00  0.56142056011E+00  0.90007733875E+02  0.89999995162E+02 0.  0.
        -12    1    1    2    0    0 -0.10156374661E+01  0.21521063620E+00 -0.56142056011E+00  0.11802661250E+01  0.00000000000E+00 0.  1.
         11    1    3    3    0    0 -0.27157440240E+02  0.29374660258E+01  0.24111752904E+02  0.36435311106E+02  0.51100000000E-03 0. -1.
        -11    1    3    3    0    0 -0.78326327495E+01 -0.77273215569E+01 -0.15011590118E+01  0.11104733805E+02  0.51100000000E-03 0.  1.
        -12    1    3    3    0    0  0.36005710456E+02  0.45746448948E+01 -0.22049173332E+02  0.42467688964E+02  0.00000000000E+00 0.  1.
</event>
<event>
 7    1  0.2497665E-015  0.9000774E+02  0.7816164E-02  0.1186339E+00
        -11   -1    0    0    0    0  0.00000000000E+00  0.00000000000E+00  0.45593999997E+02  0.45594000000E+02  0.51100000000E-03 0. -1.
         11   -1    0    0    0    0 -0.00000000000E+00 -0.00000000000E+00 -0.45593999997E+02  0.45594000000E+02  0.51100000000E-03 0.  1.
    9900012    2    1    2    0    0 -0.92775027859E-01 -0.10875643458E+01  0.44902016127E+00  0.90007736251E+02  0.89999997569E+02 0.  0.
        -12    1    1    2    0    0  0.92775027859E-01  0.10875643458E+01 -0.44902016127E+00  0.11802637491E+01  0.00000000000E+00 0.  1.
         11    1    3    3    0    0 -0.14933016601E+01  0.31685462277E+02  0.22873049435E+00  0.31721456263E+02  0.51100000000E-03 0. -1.
        -11    1    3    3    0    0 -0.28450658366E+01  0.11520333261E+02  0.62023360469E+01  0.13389602338E+02  0.51100000000E-03 0.  1.
        -12    1    3    3    0    0  0.42455924688E+01 -0.44293359883E+02 -0.59820463800E+01  0.44896677651E+02  0.00000000000E+00 0.  1.
</event>
<event>
 7    1  0.2497665E-015  0.9000786E+02  0.7816164E-02  0.1186339E+00
        -11   -1    0    0    0    0  0.00000000000E+00  0.00000000000E+00  0.45593999997E+02  0.45594000000E+02  0.51100000000E-03 0.  1.
         11   -1    0    0    0    0 -0.00000000000E+00 -0.00000000000E+00 -0.45593999997E+02  0.45594000000E+02  0.51100000000E-03 0. -1.
    9900012    2    1    2    0    0  0.85569092226E+00 -0.10426387043E+00 -0.80600469013E+00  0.90007863792E+02  0.90000126794E+02 0.  0.
        -12    1    1    2    0    0 -0.85569092226E+00  0.10426387043E+00  0.80600469013E+00  0.11801362081E+01  0.00000000000E+00 0.  1.
         11    1    3    3    0    0 -0.21503575043E+02  0.99777089504E+01 -0.29842173614E+02  0.38111858284E+02  0.51100000000E-03 0. -1.
        -11    1    3    3    0    0 -0.64808223826E+01  0.66269830721E+01  0.35019206274E+01  0.99086533765E+01  0.51100000000E-03 0.  1.
        -12    1    3    3    0    0  0.28840088348E+02 -0.16708955893E+02  0.25534248297E+02  0.41987352132E+02  0.00000000000E+00 0.  1.
</event>
<event>
 7    1  0.2497665E-015  0.9000768E+02  0.7816164E-02  0.1186339E+00
        -11   -1    0    0    0    0  0.00000000000E+00  0.00000000000E+00  0.45593999997E+02  0.45594000000E+02  0.51100000000E-03 0. -1.
         11   -1    0    0    0    0 -0.00000000000E+00 -0.00000000000E+00 -0.45593999997E+02  0.45594000000E+02  0.51100000000E-03 0.  1.
    9900012    2    1    2    0    0 -0.47801239845E+00 -0.10788579101E+01  0.26930536995E-01  0.90007679918E+02  0.89999940492E+02 0.  0.
        -12    1    1    2    0    0  0.47801239845E+00  0.10788579101E+01 -0.26930536995E-01  0.11803200824E+01  0.00000000000E+00 0.  1.
         11    1    3    3    0    0 -0.62443897309E+01 -0.66254319777E+01 -0.49431626108E+01  0.10359710848E+02  0.51100000000E-03 0. -1.
        -11    1    3    3    0    0  0.29860758043E+02 -0.25520820539E+02  0.84474722135E+01  0.40178812065E+02  0.51100000000E-03 0.  1.
         12    1    3    3    0    0 -0.24094380711E+02  0.31067394606E+02 -0.34773790657E+01  0.39469157004E+02  0.00000000000E+00 0. -1.
</event>
<event>
 7    1  0.2497665E-015  0.9000772E+02  0.7816164E-02  0.1186339E+00
        -11   -1    0    0    0    0  0.00000000000E+00  0.00000000000E+00  0.45593999997E+02  0.45594000000E+02  0.51100000000E-03 0. -1.
         11   -1    0    0    0    0 -0.00000000000E+00 -0.00000000000E+00 -0.45593999997E+02  0.45594000000E+02  0.51100000000E-03 0.  1.
    9900012    2    1    2    0    0 -0.73923877930E+00  0.92009364161E+00  0.22322797276E-02  0.90007724072E+02  0.89999985230E+02 0.  0.
        -12    1    1    2    0    0  0.73923877930E+00 -0.92009364161E+00 -0.22322797276E-02  0.11802759276E+01  0.00000000000E+00 0.  1.
         11    1    3    3    0    0 -0.86839016109E+00 -0.25857328956E+01 -0.98341762940E+01  0.10205446571E+02  0.51100000000E-03 0. -1.
        -11    1    3    3    0    0  0.11516695300E+02 -0.33096403537E+02 -0.10269421153E+02  0.36516670287E+02  0.51100000000E-03 0.  1.
         12    1    3    3    0    0 -0.11387543918E+02  0.36602230075E+02  0.20105829727E+02  0.43285607214E+02  0.00000000000E+00 0. -1.
</event>
<event>
 7    1  0.2497665E-015  0.9000777E+02  0.7816164E-02  0.1186339E+00
        -11   -1    0    0    0    0  0.00000000000E+00  0.00000000000E+00  0.45593999997E+02  0.45594000000E+02  0.51100000000E-03 0.  1.
         11   -1    0    0    0    0 -0.00000000000E+00 -0.00000000000E+00 -0.45593999997E+02  0.45594000000E+02  0.51100000000E-03 0. -1.
    9900012    2    1    2    0    0 -0.50427086927E+00  0.73164835243E-01 -0.10645606180E+01  0.90007774805E+02  0.90000036632E+02 0.  0.
        -12    1    1    2    0    0  0.50427086927E+00 -0.73164835243E-01  0.10645606180E+01  0.11802251955E+01  0.00000000000E+00 0.  1.
         11    1    3    3    0    0  0.76829822212E+01  0.35839179085E+02 -0.90531359638E+01  0.37754923445E+02  0.51100000000E-03 0. -1.
        -11    1    3    3    0    0 -0.50129043200E-01  0.17352334018E+00 -0.10860928605E+02  0.10862430377E+02  0.51100000000E-03 0.  1.
        -12    1    3    3    0    0 -0.81371240472E+01 -0.35939537590E+02  0.18849503951E+02  0.41390420983E+02  0.00000000000E+00 0.  1.
</event>
<event>
 7    1  0.2497665E-015  0.9000799E+02  0.7816164E-02  0.1186339E+00
        -11   -1    0    0    0    0  0.00000000000E+00  0.00000000000E+00  0.45593999997E+02  0.45594000000E+02  0.51100000000E-03 0.  1.
         11   -1    0    0    0    0 -0.00000000000E+00 -0.00000000000E+00 -0.45593999997E+02  0.45594000000E+02  0.51100000000E-03 0. -1.
    9900012    2    1    2    0    0  0.79505307169E+00  0.70211660454E+00 -0.51706314769E+00  0.90007986690E+02  0.90000251314E+02 0.  0.
        -12    1    1    2    0    0 -0.79505307169E+00 -0.70211660454E+00  0.51706314769E+00  0.11800133100E+01  0.00000000000E+00 0.  1.
         11    1    3    3    0    0 -0.49884770596E+01 -0.86979476922E+01 -0.36140603100E+02  0.37505764758E+02  0.51100000000E-03 0. -1.
        -11    1    3    3    0    0 -0.67098068790E+01  0.58187468093E+01 -0.47616364037E+01  0.10077326247E+02  0.51100000000E-03 0.  1.
        -12    1    3    3    0    0  0.12493337010E+02  0.35813174874E+01  0.40385176356E+02  0.42424895685E+02  0.00000000000E+00 0.  1.
</event>
<event>
 7    1  0.2497665E-015  0.9000775E+02  0.7816164E-02  0.1186339E+00
        -11   -1    0    0    0    0  0.00000000000E+00  0.00000000000E+00  0.45593999997E+02  0.45594000000E+02  0.51100000000E-03 0.  1.
         11   -1    0    0    0    0 -0.00000000000E+00 -0.00000000000E+00 -0.45593999997E+02  0.45594000000E+02  0.51100000000E-03 0. -1.
    9900012    2    1    2    0    0 -0.58730705410E+00 -0.10043860507E+01 -0.19818983227E+00  0.90007745737E+02  0.90000007181E+02 0.  0.
        -12    1    1    2    0    0  0.58730705410E+00  0.10043860507E+01  0.19818983227E+00  0.11802542626E+01  0.00000000000E+00 0.  1.
         11    1    3    3    0    0  0.68480445578E+01 -0.84021378381E+01  0.53324173143E+01  0.12079996241E+02  0.51100000000E-03 0. -1.
        -11    1    3    3    0    0 -0.91321062687E+01  0.16491451540E+02  0.33161540508E+02  0.38145132165E+02  0.51100000000E-03 0.  1.
         12    1    3    3    0    0  0.16967546568E+01 -0.90936997524E+01 -0.38692147655E+02  0.39782617331E+02  0.00000000000E+00 0. -1.
</event>
<event>
 7    1  0.2497665E-015  0.9000777E+02  0.7816164E-02  0.1186339E+00
        -11   -1    0    0    0    0  0.00000000000E+00  0.00000000000E+00  0.45593999997E+02  0.45594000000E+02  0.51100000000E-03 0. -1.
         11   -1    0    0    0    0 -0.00000000000E+00 -0.00000000000E+00 -0.45593999997E+02  0.45594000000E+02  0.51100000000E-03 0.  1.
    9900012    2    1    2    0    0 -0.10642104336E+01  0.29303675969E+00 -0.41777203866E+00  0.90007767876E+02  0.90000029612E+02 0.  0.
        -12    1    1    2    0    0  0.10642104336E+01 -0.29303675969E+00  0.41777203866E+00  0.11802321237E+01  0.00000000000E+00 0.  1.
         11    1    3    3    0    0 -0.86340173242E+00 -0.20210024662E+01  0.12453307530E+02  0.12645741664E+02  0.51100000000E-03 0. -1.
        -11    1    3    3    0    0  0.11421083011E+01  0.39049430510E+02 -0.23997450448E+01  0.39139765087E+02  0.51100000000E-03 0.  1.
         12    1    3    3    0    0 -0.13429170022E+01 -0.36735391284E+02 -0.10471334524E+02  0.38222261126E+02  0.00000000000E+00 0. -1.
</event>
<event>
 7    1  0.2497665E-015  0.9000778E+02  0.7816164E-02  0.1186339E+00
        -11   -1    0    0    0    0  0.00000000000E+00  0.00000000000E+00  0.45593999997E+02  0.45594000000E+02  0.51100000000E-03 0. -1.
         11   -1    0    0    0    0 -0.00000000000E+00 -0.00000000000E+00 -0.45593999997E+02  0.45594000000E+02  0.51100000000E-03 0.  1.
    9900012    2    1    2    0    0 -0.84955711969E+00 -0.75687464823E+00  0.31355958684E+00  0.90007777077E+02  0.90000038935E+02 0.  0.
        -12    1    1    2    0    0  0.84955711969E+00  0.75687464823E+00 -0.31355958684E+00  0.11802229227E+01  0.00000000000E+00 0.  1.
         11    1    3    3    0    0 -0.17716939219E+02 -0.29983784373E+02  0.14212157962E+02  0.37615192341E+02  0.51100000000E-03 0. -1.
        -11    1    3    3    0    0  0.25385552570E+00 -0.28640208777E+01  0.91100019276E+01  0.95529677900E+01  0.51100000000E-03 0.  1.
        -12    1    3    3    0    0  0.16613526574E+02  0.32090930603E+02 -0.23008600303E+02  0.42839616946E+02  0.00000000000E+00 0.  1.
</event>
<event>
 7    1  0.2497665E-015  0.9000761E+02  0.7816164E-02  0.1186339E+00
        -11   -1    0    0    0    0  0.00000000000E+00  0.00000000000E+00  0.45593999997E+02  0.45594000000E+02  0.51100000000E-03 0.  1.
         11   -1    0    0    0    0 -0.00000000000E+00 -0.00000000000E+00 -0.45593999997E+02  0.45594000000E+02  0.51100000000E-03 0. -1.
    9900012    2    1    2    0    0  0.59573793509E+00 -0.84172060596E+00 -0.57438825891E+00  0.90007610599E+02  0.89999870259E+02 0.  0.
        -12    1    1    2    0    0 -0.59573793509E+00  0.84172060596E+00  0.57438825891E+00  0.11803894009E+01  0.00000000000E+00 0.  1.
         11    1    3    3    0    0  0.14532734372E+01  0.80932133889E+00 -0.85512887284E+01  0.87115752818E+01  0.51100000000E-03 0. -1.
        -11    1    3    3    0    0 -0.39927193097E+02 -0.21299407176E+01  0.12668178014E+02  0.41942819773E+02  0.51100000000E-03 0.  1.
         12    1    3    3    0    0  0.39069657595E+02  0.47889877275E+00 -0.46912775443E+01  0.39353215544E+02  0.00000000000E+00 0. -1.
</event>
<event>
 7    1  0.3454261E-015  0.9000785E+02  0.7816164E-02  0.1186339E+00
        -11   -1    0    0    0    0  0.00000000000E+00  0.00000000000E+00  0.45593999997E+02  0.45594000000E+02  0.51100000000E-03 0.  1.
         11   -1    0    0    0    0 -0.00000000000E+00 -0.00000000000E+00 -0.45593999997E+02  0.45594000000E+02  0.51100000000E-03 0. -1.
    9900012    2    1    2    0    0  0.84617631837E+00  0.82089027427E+00 -0.53593072568E-01  0.90007852797E+02  0.90000115653E+02 0.  0.
        -12    1    1    2    0    0 -0.84617631837E+00 -0.82089027427E+00  0.53593072568E-01  0.11801472034E+01  0.00000000000E+00 0.  1.
         11    1    3    3    0    0  0.59630130755E+01  0.35086183784E+02 -0.22732372245E+02  0.42229830281E+02  0.51100000000E-03 0. -1.
        -11    1    3    3    0    0  0.48712599311E+00 -0.79806539778E+01 -0.48128280691E+01  0.93322796749E+01  0.51100000000E-03 0.  1.
        -12    1    3    3    0    0 -0.56039627503E+01 -0.26284639532E+02  0.27491607241E+02  0.38445742840E+02  0.00000000000E+00 0.  1.
</event>
<event>
 7    1  0.2497665E-015  0.9000781E+02  0.7816164E-02  0.1186339E+00
        -11   -1    0    0    0    0  0.00000000000E+00  0.00000000000E+00  0.45593999997E+02  0.45594000000E+02  0.51100000000E-03 0.  1.
         11   -1    0    0    0    0 -0.00000000000E+00 -0.00000000000E+00 -0.45593999997E+02  0.45594000000E+02  0.51100000000E-03 0. -1.
    9900012    2    1    2    0    0 -0.30302766270E+00  0.10228549692E+01 -0.50477890995E+00  0.90007805185E+02  0.90000067414E+02 0.  0.
        -12    1    1    2    0    0  0.30302766270E+00 -0.10228549692E+01  0.50477890995E+00  0.11801948146E+01  0.00000000000E+00 0.  1.
         11    1    3    3    0    0  0.79926344318E+01  0.18071171328E+02 -0.21268821519E+02  0.29031228141E+02  0.51100000000E-03 0. -1.
        -11    1    3    3    0    0 -0.27516886812E+02  0.49730156889E+01  0.12279335321E+02  0.30540006893E+02  0.51100000000E-03 0.  1.
         12    1    3    3    0    0  0.19221224717E+02 -0.22021332048E+02  0.84847072876E+01  0.30436570151E+02  0.00000000000E+00 0. -1.
</event>
<event>
 7    1  0.2497665E-015  0.9000764E+02  0.7816164E-02  0.1186339E+00
        -11   -1    0    0    0    0  0.00000000000E+00  0.00000000000E+00  0.45593999997E+02  0.45594000000E+02  0.51100000000E-03 0.  1.
         11   -1    0    0    0    0 -0.00000000000E+00 -0.00000000000E+00 -0.45593999997E+02  0.45594000000E+02  0.51100000000E-03 0. -1.
    9900012    2    1    2    0    0  0.63272070323E+00 -0.14305171814E+00 -0.98613335515E+00  0.90007636380E+02  0.89999896380E+02 0.  0.
        -12    1    1    2    0    0 -0.63272070323E+00  0.14305171814E+00  0.98613335515E+00  0.11803636205E+01  0.00000000000E+00 0.  1.
         11    1    3    3    0    0  0.78786977916E+01 -0.29376606770E+02 -0.18568723094E+02  0.35635044294E+02  0.51100000000E-03 0. -1.
        -11    1    3    3    0    0 -0.56701541069E+01 -0.86602353066E+01 -0.35656904463E+01  0.10948263414E+02  0.51100000000E-03 0.  1.
        -12    1    3    3    0    0 -0.15758229814E+01  0.37893790358E+02  0.21148280186E+02  0.43424328672E+02  0.00000000000E+00 0.  1.
</event>
<event>
 7    1  0.2497665E-015  0.9000777E+02  0.7816164E-02  0.1186339E+00
        -11   -1    0    0    0    0  0.00000000000E+00  0.00000000000E+00  0.45593999997E+02  0.45594000000E+02  0.51100000000E-03 0. -1.
         11   -1    0    0    0    0 -0.00000000000E+00 -0.00000000000E+00 -0.45593999997E+02  0.45594000000E+02  0.51100000000E-03 0.  1.
    9900012    2    1    2    0    0 -0.96359600248E+00  0.62339767221E+00  0.27532840266E+00  0.90007767971E+02  0.90000029708E+02 0.  0.
        -12    1    1    2    0    0  0.96359600248E+00 -0.62339767221E+00 -0.27532840266E+00  0.11802320293E+01  0.00000000000E+00 0.  1.
         11    1    3    3    0    0  0.64835954712E+01  0.40174234399E+01 -0.50872786062E+01  0.91682662051E+01  0.51100000000E-03 0. -1.
        -11    1    3    3    0    0 -0.67784087835E+01 -0.12770050152E+02 -0.35804303101E+02  0.38613069385E+02  0.51100000000E-03 0.  1.
         12    1    3    3    0    0 -0.66878269017E+00  0.93760243848E+01  0.41166910110E+02  0.42226432380E+02  0.00000000000E+00 0. -1.
</event>
<event>
 7    1  0.2497665E-015  0.9000773E+02  0.7816164E-02  0.1186339E+00
        -11   -1    0    0    0    0  0.00000000000E+00  0.00000000000E+00  0.45593999997E+02  0.45594000000E+02  0.51100000000E-03 0.  1.
         11   -1    0    0    0    0 -0.00000000000E+00 -0.00000000000E+00 -0.45593999997E+02  0.45594000000E+02  0.51100000000E-03 0. -1.
    9900012    2    1    2    0    0 -0.10642663961E+00  0.11452248360E+01  0.26490952272E+00  0.90007727315E+02  0.89999988516E+02 0.  0.
        -12    1    1    2    0    0  0.10642663961E+00 -0.11452248360E+01 -0.26490952272E+00  0.11802726845E+01  0.00000000000E+00 0.  1.
         11    1    3    3    0    0  0.35412373754E+01  0.81082627941E+01 -0.37679931780E+01  0.96167593573E+01  0.51100000000E-03 0. -1.
        -11    1    3    3    0    0  0.24502300015E+02 -0.32979022765E+02 -0.38260385134E+01  0.41262782499E+02  0.51100000000E-03 0.  1.
         12    1    3    3    0    0 -0.28149964030E+02  0.26015984807E+02  0.78589412141E+01  0.39128185460E+02  0.00000000000E+00 0. -1.
</event>
<event>
 7    1  0.2497665E-015  0.9000796E+02  0.7816164E-02  0.1186339E+00
        -11   -1    0    0    0    0  0.00000000000E+00  0.00000000000E+00  0.45593999997E+02  0.45594000000E+02  0.51100000000E-03 0. -1.
         11   -1    0    0    0    0 -0.00000000000E+00 -0.00000000000E+00 -0.45593999997E+02  0.45594000000E+02  0.51100000000E-03 0.  1.
    9900012    2    1    2    0    0  0.20794049106E+00 -0.71073009585E+00  0.91876000392E+00  0.90007959127E+02  0.90000223387E+02 0.  0.
        -12    1    1    2    0    0 -0.20794049106E+00  0.71073009585E+00 -0.91876000392E+00  0.11800408729E+01  0.00000000000E+00 0.  1.
         11    1    3    3    0    0  0.72520661697E+01  0.17779049708E+01 -0.69311028528E+01  0.10187914253E+02  0.51100000000E-03 0. -1.
        -11    1    3    3    0    0 -0.15089937257E+02  0.14383987086E+02 -0.30623508100E+02  0.37045978723E+02  0.51100000000E-03 0.  1.
         12    1    3    3    0    0  0.80458115784E+01 -0.16872622153E+02  0.38473370957E+02  0.42774066151E+02  0.00000000000E+00 0. -1.
</event>
<event>
 7    1  0.2497665E-015  0.9000762E+02  0.7816164E-02  0.1186339E+00
        -11   -1    0    0    0    0  0.00000000000E+00  0.00000000000E+00  0.45593999997E+02  0.45594000000E+02  0.51100000000E-03 0.  1.
         11   -1    0    0    0    0 -0.00000000000E+00 -0.00000000000E+00 -0.45593999997E+02  0.45594000000E+02  0.51100000000E-03 0. -1.
    9900012    2    1    2    0    0 -0.51983529287E+00 -0.78724783479E+00 -0.70944262864E+00  0.90007620091E+02  0.89999879877E+02 0.  0.
        -12    1    1    2    0    0  0.51983529287E+00  0.78724783479E+00  0.70944262864E+00  0.11803799085E+01  0.00000000000E+00 0.  1.
         11    1    3    3    0    0  0.15050121571E+02 -0.10388392104E+02  0.30215862759E+02  0.35318878979E+02  0.51100000000E-03 0. -1.
        -11    1    3    3    0    0  0.79854135349E+01 -0.49466965526E+01  0.39244807446E+01  0.10180284155E+02  0.51100000000E-03 0.  1.
        -12    1    3    3    0    0 -0.23555370399E+02  0.14547840822E+02 -0.34849786132E+02  0.44508456957E+02  0.00000000000E+00 0.  1.
</event>
<event>
 7    1  0.2497665E-015  0.9000769E+02  0.7816164E-02  0.1186339E+00
        -11   -1    0    0    0    0  0.00000000000E+00  0.00000000000E+00  0.45593999997E+02  0.45594000000E+02  0.51100000000E-03 0.  1.
         11   -1    0    0    0    0 -0.00000000000E+00 -0.00000000000E+00 -0.45593999997E+02  0.45594000000E+02  0.51100000000E-03 0. -1.
    9900012    2    1    2    0    0 -0.86729628267E+00 -0.53187755564E+00  0.59835539855E+00  0.90007692515E+02  0.89999953256E+02 0.  0.
        -12    1    1    2    0    0  0.86729628267E+00  0.53187755564E+00 -0.59835539855E+00  0.11803074850E+01  0.00000000000E+00 0.  1.
         11    1    3    3    0    0  0.40950347111E+00  0.25368254720E+01 -0.91859667418E+01  0.95386142500E+01  0.51100000000E-03 0. -1.
        -11    1    3    3    0    0 -0.54198217197E+01  0.33190597953E+02 -0.14510243644E+02  0.36627004121E+02  0.51100000000E-03 0.  1.
         12    1    3    3    0    0  0.41430219659E+01 -0.36259300981E+02  0.24294565784E+02  0.43842074144E+02  0.00000000000E+00 0. -1.
</event>
<event>
 7    1  0.2497665E-015  0.9000765E+02  0.7816164E-02  0.1186339E+00
        -11   -1    0    0    0    0  0.00000000000E+00  0.00000000000E+00  0.45593999997E+02  0.45594000000E+02  0.51100000000E-03 0.  1.
         11   -1    0    0    0    0 -0.00000000000E+00 -0.00000000000E+00 -0.45593999997E+02  0.45594000000E+02  0.51100000000E-03 0. -1.
    9900012    2    1    2    0    0  0.42672626828E+00 -0.10562751118E+01 -0.30889133801E+00  0.90007649934E+02  0.89999910113E+02 0.  0.
        -12    1    1    2    0    0 -0.42672626828E+00  0.10562751118E+01  0.30889133801E+00  0.11803500661E+01  0.00000000000E+00 0.  1.
         11    1    3    3    0    0  0.15734307937E+02 -0.11782938096E+02 -0.35592974860E+02  0.40660373045E+02  0.51100000000E-03 0. -1.
        -11    1    3    3    0    0 -0.60631152292E+01  0.76216993607E+01 -0.27200539320E+01  0.10111892062E+02  0.51100000000E-03 0.  1.
        -12    1    3    3    0    0 -0.92444664399E+01  0.31049636236E+01  0.38004137454E+02  0.39235384827E+02  0.00000000000E+00 0.  1.
</event>
<event>
 7    1  0.2497665E-015  0.9000773E+02  0.7816164E-02  0.1186339E+00
        -11   -1    0    0    0    0  0.00000000000E+00  0.00000000000E+00  0.45593999997E+02  0.45594000000E+02  0.51100000000E-03 0. -1.
         11   -1    0    0    0    0 -0.00000000000E+00 -0.00000000000E+00 -0.45593999997E+02  0.45594000000E+02  0.51100000000E-03 0.  1.
    9900012    2    1    2    0    0 -0.39160718059E+00  0.10958808554E+01 -0.19680396734E+00  0.90007727644E+02  0.89999988849E+02 0.  0.
        -12    1    1    2    0    0  0.39160718059E+00 -0.10958808554E+01  0.19680396734E+00  0.11802723561E+01  0.00000000000E+00 0.  1.
         11    1    3    3    0    0 -0.58519415119E+01  0.87022045535E+01 -0.22026856950E+01  0.10715661813E+02  0.51100000000E-03 0. -1.
        -11    1    3    3    0    0  0.30731306459E+02  0.11477936831E+02 -0.22047503441E+02  0.39525291128E+02  0.51100000000E-03 0.  1.
         12    1    3    3    0    0 -0.25270972127E+02 -0.19084260529E+02  0.24053385169E+02  0.39766774703E+02  0.00000000000E+00 0. -1.
</event>
<event>
 7    1  0.2497665E-015  0.9000767E+02  0.7816164E-02  0.1186339E+00
        -11   -1    0    0    0    0  0.00000000000E+00  0.00000000000E+00  0.45593999997E+02  0.45594000000E+02  0.51100000000E-03 0.  1.
         11   -1    0    0    0    0 -0.00000000000E+00 -0.00000000000E+00 -0.45593999997E+02  0.45594000000E+02  0.51100000000E-03 0. -1.
    9900012    2    1    2    0    0  0.60467079925E+00 -0.34805863237E+00 -0.95205141535E+00  0.90007672298E+02  0.89999932772E+02 0.  0.
        -12    1    1    2    0    0 -0.60467079925E+00  0.34805863237E+00  0.95205141535E+00  0.11803277022E+01  0.00000000000E+00 0.  1.
         11    1    3    3    0    0  0.11689183051E+02 -0.27059261587E+02 -0.25001390073E+02  0.38651133798E+02  0.51100000000E-03 0. -1.
        -11    1    3    3    0    0  0.23824786657E+01  0.68929897402E+01 -0.83327136212E+01  0.11073555378E+02  0.51100000000E-03 0.  1.
        -12    1    3    3    0    0 -0.13466990918E+02  0.19818213215E+02  0.32382052279E+02  0.40282983122E+02  0.00000000000E+00 0.  1.
</event>
<event>
 7    1  0.2497665E-015  0.9000789E+02  0.7816164E-02  0.1186339E+00
        -11   -1    0    0    0    0  0.00000000000E+00  0.00000000000E+00  0.45593999997E+02  0.45594000000E+02  0.51100000000E-03 0.  1.
         11   -1    0    0    0    0 -0.00000000000E+00 -0.00000000000E+00 -0.45593999997E+02  0.45594000000E+02  0.51100000000E-03 0. -1.
    9900012    2    1    2    0    0  0.86879051816E-01  0.10870509623E+01 -0.45102256163E+00  0.90007894447E+02  0.90000157854E+02 0.  0.
        -12    1    1    2    0    0 -0.86879051816E-01 -0.10870509623E+01  0.45102256163E+00  0.11801055527E+01  0.00000000000E+00 0.  1.
         11    1    3    3    0    0  0.17614214071E+01 -0.92524028411E+01 -0.11941611966E+01  0.94939762446E+01  0.51100000000E-03 0. -1.
        -11    1    3    3    0    0 -0.36367710114E+01 -0.13063564206E+02  0.35820034990E+02  0.38300884064E+02  0.51100000000E-03 0.  1.
         12    1    3    3    0    0  0.19622286561E+01  0.23403018009E+02 -0.35076896355E+02  0.42213034138E+02  0.00000000000E+00 0. -1.
</event>
<event>
 7    1  0.2497665E-015  0.9000798E+02  0.7816164E-02  0.1186339E+00
        -11   -1    0    0    0    0  0.00000000000E+00  0.00000000000E+00  0.45593999997E+02  0.45594000000E+02  0.51100000000E-03 0.  1.
         11   -1    0    0    0    0 -0.00000000000E+00 -0.00000000000E+00 -0.45593999997E+02  0.45594000000E+02  0.51100000000E-03 0. -1.
    9900012    2    1    2    0    0 -0.97778108323E+00 -0.21685701067E+00 -0.62398463828E+00  0.90007983204E+02  0.90000247782E+02 0.  0.
        -12    1    1    2    0    0  0.97778108323E+00  0.21685701067E+00  0.62398463828E+00  0.11800167959E+01  0.00000000000E+00 0.  1.
         11    1    3    3    0    0 -0.13973758815E+01 -0.35805415997E+00 -0.90054529545E+01  0.91202546736E+01  0.51100000000E-03 0. -1.
        -11    1    3    3    0    0 -0.15464281422E+02  0.31450334855E+02  0.23985409441E+02  0.42468428611E+02  0.51100000000E-03 0.  1.
         12    1    3    3    0    0  0.15883876221E+02 -0.31309137706E+02 -0.15603941125E+02  0.38419299919E+02  0.00000000000E+00 0. -1.
</event>
<event>
 7    1  0.2497665E-015  0.9000768E+02  0.7816164E-02  0.1186339E+00
        -11   -1    0    0    0    0  0.00000000000E+00  0.00000000000E+00  0.45593999997E+02  0.45594000000E+02  0.51100000000E-03 0. -1.
         11   -1    0    0    0    0 -0.00000000000E+00 -0.00000000000E+00 -0.45593999997E+02  0.45594000000E+02  0.51100000000E-03 0.  1.
    9900012    2    1    2    0    0  0.37769226168E-01  0.51379613421E+00  0.10619487911E+01  0.90007683002E+02  0.89999943617E+02 0.  0.
        -12    1    1    2    0    0 -0.37769226168E-01 -0.51379613421E+00 -0.10619487911E+01  0.11803169985E+01  0.00000000000E+00 0.  1.
         11    1    3    3    0    0  0.14857687407E+02 -0.77196743886E+01  0.36054098919E+02  0.39752261531E+02  0.51100000000E-03 0. -1.
        -11    1    3    3    0    0 -0.64298638408E+01 -0.18765888082E+01  0.48717111532E+01  0.82824093347E+01  0.51100000000E-03 0.  1.
        -12    1    3    3    0    0 -0.83900543396E+01  0.10110059331E+02 -0.39863861281E+02  0.41973012136E+02  0.00000000000E+00 0.  1.
</event>
<event>
 7    1  0.2497665E-015  0.9000776E+02  0.7816164E-02  0.1186339E+00
        -11   -1    0    0    0    0  0.00000000000E+00  0.00000000000E+00  0.45593999997E+02  0.45594000000E+02  0.51100000000E-03 0.  1.
         11   -1    0    0    0    0 -0.00000000000E+00 -0.00000000000E+00 -0.45593999997E+02  0.45594000000E+02  0.51100000000E-03 0. -1.
    9900012    2    1    2    0    0 -0.68880030926E+00 -0.95408863981E+00 -0.90787718505E-01  0.90007757055E+02  0.90000018648E+02 0.  0.
        -12    1    1    2    0    0  0.68880030926E+00  0.95408863981E+00  0.90787718505E-01  0.11802429447E+01  0.00000000000E+00 0.  1.
         11    1    3    3    0    0 -0.92639984988E+01 -0.35053952864E+02 -0.11318631957E+02  0.37983058187E+02  0.51100000000E-03 0. -1.
        -11    1    3    3    0    0 -0.18049601738E+01 -0.75700538973E+01  0.27404007768E+01  0.82506602109E+01  0.51100000000E-03 0.  1.
        -12    1    3    3    0    0  0.10380158363E+02  0.41669918121E+02  0.84874434620E+01  0.43774038658E+02  0.00000000000E+00 0.  1.
</event>
<event>
 7    1  0.2497665E-015  0.9000779E+02  0.7816164E-02  0.1186339E+00
        -11   -1    0    0    0    0  0.00000000000E+00  0.00000000000E+00  0.45593999997E+02  0.45594000000E+02  0.51100000000E-03 0.  1.
         11   -1    0    0    0    0 -0.00000000000E+00 -0.00000000000E+00 -0.45593999997E+02  0.45594000000E+02  0.51100000000E-03 0. -1.
    9900012    2    1    2    0    0  0.23444509162E+00 -0.11248325433E+01  0.26959923479E+00  0.90007789638E+02  0.90000051661E+02 0.  0.
        -12    1    1    2    0    0 -0.23444509162E+00  0.11248325433E+01 -0.26959923479E+00  0.11802103621E+01  0.00000000000E+00 0.  1.
         11    1    3    3    0    0  0.10500304858E+01 -0.20569705054E+02 -0.29028797773E+02  0.35593348120E+02  0.51100000000E-03 0. -1.
        -11    1    3    3    0    0  0.16164469227E+02  0.65762758869E+01 -0.87997562063E+00  0.17473174505E+02  0.51100000000E-03 0.  1.
        -12    1    3    3    0    0 -0.16980054621E+02  0.12868596624E+02  0.30178372628E+02  0.36941267012E+02  0.00000000000E+00 0.  1.
</event>
<event>
 7    1  0.2497665E-015  0.9000775E+02  0.7816164E-02  0.1186339E+00
        -11   -1    0    0    0    0  0.00000000000E+00  0.00000000000E+00  0.45593999997E+02  0.45594000000E+02  0.51100000000E-03 0. -1.
         11   -1    0    0    0    0 -0.00000000000E+00 -0.00000000000E+00 -0.45593999997E+02  0.45594000000E+02  0.51100000000E-03 0.  1.
    9900012    2    1    2    0    0  0.59296406399E+00 -0.70398080327E+00  0.73878538061E+00  0.90007746133E+02  0.90000007582E+02 0.  0.
        -12    1    1    2    0    0 -0.59296406399E+00  0.70398080327E+00 -0.73878538061E+00  0.11802538673E+01  0.00000000000E+00 0.  1.
         11    1    3    3    0    0  0.42859502205E+01 -0.72698599994E+01 -0.66018562259E+01  0.10714697363E+02  0.51100000000E-03 0. -1.
        -11    1    3    3    0    0  0.13101069081E+02 -0.32714263620E+02 -0.29124429526E+01  0.35360194845E+02  0.51100000000E-03 0.  1.
         12    1    3    3    0    0 -0.16794055237E+02  0.39280142816E+02  0.10253084559E+02  0.43932853924E+02  0.00000000000E+00 0. -1.
</event>
<event>
 7    1  0.2497665E-015  0.9000761E+02  0.7816164E-02  0.1186339E+00
        -11   -1    0    0    0    0  0.00000000000E+00  0.00000000000E+00  0.45593999997E+02  0.45594000000E+02  0.51100000000E-03 0.  1.
         11   -1    0    0    0    0 -0.00000000000E+00 -0.00000000000E+00 -0.45593999997E+02  0.45594000000E+02  0.51100000000E-03 0. -1.
    9900012    2    1    2    0    0  0.11503599807E+00  0.62145196583E+00 -0.99693937230E+00  0.90007608565E+02  0.89999868198E+02 0.  0.
        -12    1    1    2    0    0 -0.11503599807E+00 -0.62145196583E+00  0.99693937230E+00  0.11803914345E+01  0.00000000000E+00 0.  1.
         11    1    3    3    0    0  0.17768449797E+02  0.37088340537E+02  0.73478990985E+00  0.41131529614E+02  0.51100000000E-03 0. -1.
        -11    1    3    3    0    0  0.70322847957E+01 -0.46732486173E+01 -0.17559157440E+01  0.86241244453E+01  0.51100000000E-03 0.  1.
        -12    1    3    3    0    0 -0.24685698594E+02 -0.31793639953E+02  0.24186461819E-01  0.40251954506E+02  0.00000000000E+00 0.  1.
</event>
<event>
 7    1  0.2497665E-015  0.9000783E+02  0.7816164E-02  0.1186339E+00
        -11   -1    0    0    0    0  0.00000000000E+00  0.00000000000E+00  0.45593999997E+02  0.45594000000E+02  0.51100000000E-03 0. -1.
         11   -1    0    0    0    0 -0.00000000000E+00 -0.00000000000E+00 -0.45593999997E+02  0.45594000000E+02  0.51100000000E-03 0.  1.
    9900012    2    1    2    0    0 -0.25143158738E+00  0.11159980640E+01  0.29006133767E+00  0.90007828359E+02  0.90000090894E+02 0.  0.
        -12    1    1    2    0    0  0.25143158738E+00 -0.11159980640E+01 -0.29006133767E+00  0.11801716407E+01  0.00000000000E+00 0.  1.
         11    1    3    3    0    0 -0.15612007587E+02  0.21054486514E+02  0.31045546459E+02  0.40630679769E+02  0.51100000000E-03 0. -1.
        -11    1    3    3    0    0 -0.45081832921E+00  0.70840578281E+01 -0.78560318703E+01  0.10587934146E+02  0.51100000000E-03 0.  1.
        -12    1    3    3    0    0  0.15811394329E+02 -0.27022546278E+02 -0.22899453251E+02  0.38789214444E+02  0.00000000000E+00 0.  1.
</event>
<event>
 7    1  0.2497665E-015  0.9000774E+02  0.7816164E-02  0.1186339E+00
        -11   -1    0    0    0    0  0.00000000000E+00  0.00000000000E+00  0.45593999997E+02  0.45594000000E+02  0.51100000000E-03 0. -1.
         11   -1    0    0    0    0 -0.00000000000E+00 -0.00000000000E+00 -0.45593999997E+02  0.45594000000E+02  0.51100000000E-03 0.  1.
    9900012    2    1    2    0    0 -0.71324573713E+00  0.79085740084E+00  0.50877063859E+00  0.90007736270E+02  0.89999997589E+02 0.  0.
        -12    1    1    2    0    0  0.71324573713E+00 -0.79085740084E+00 -0.50877063859E+00  0.11802637301E+01  0.00000000000E+00 0.  1.
         11    1    3    3    0    0 -0.29863033322E+02 -0.20464924129E+02 -0.51775051606E+01  0.36570759340E+02  0.51100000000E-03 0. -1.
        -11    1    3    3    0    0 -0.37817784586E+01 -0.81279349131E+01  0.16787175677E+01  0.91204861271E+01  0.51100000000E-03 0.  1.
        -12    1    3    3    0    0  0.32931566043E+02  0.29383716443E+02  0.40075582315E+01  0.44316490802E+02  0.00000000000E+00 0.  1.
</event>
<event>
 7    1  0.2497665E-015  0.9000778E+02  0.7816164E-02  0.1186339E+00
        -11   -1    0    0    0    0  0.00000000000E+00  0.00000000000E+00  0.45593999997E+02  0.45594000000E+02  0.51100000000E-03 0. -1.
         11   -1    0    0    0    0 -0.00000000000E+00 -0.00000000000E+00 -0.45593999997E+02  0.45594000000E+02  0.51100000000E-03 0.  1.
    9900012    2    1    2    0    0 -0.10814868655E+01  0.47113095768E+00 -0.36612720367E-01  0.90007780228E+02  0.90000042127E+02 0.  0.
        -12    1    1    2    0    0  0.10814868655E+01 -0.47113095768E+00  0.36612720367E-01  0.11802197723E+01  0.00000000000E+00 0.  1.
         11    1    3    3    0    0  0.11720437968E+02 -0.88577861361E+01  0.34030897568E+02  0.37066575657E+02  0.51100000000E-03 0. -1.
        -11    1    3    3    0    0 -0.60028622868E+01 -0.54233958546E+01  0.57583582386E+01  0.99300688867E+01  0.51100000000E-03 0.  1.
        -12    1    3    3    0    0 -0.67990625468E+01  0.14752312948E+02 -0.39825868527E+02  0.43011135684E+02  0.00000000000E+00 0.  1.
</event>
<event>
 7    1  0.2497665E-015  0.9000769E+02  0.7816164E-02  0.1186339E+00
        -11   -1    0    0    0    0  0.00000000000E+00  0.00000000000E+00  0.45593999997E+02  0.45594000000E+02  0.51100000000E-03 0. -1.
         11   -1    0    0    0    0 -0.00000000000E+00 -0.00000000000E+00 -0.45593999997E+02  0.45594000000E+02  0.51100000000E-03 0.  1.
    9900012    2    1    2    0    0 -0.11734262114E+01 -0.12655883090E+00  0.13679645741E-01  0.90007689302E+02  0.89999950001E+02 0.  0.
        -12    1    1    2    0    0  0.11734262114E+01  0.12655883090E+00 -0.13679645741E-01  0.11803106981E+01  0.00000000000E+00 0.  1.
         11    1    3    3    0    0  0.26147903081E+01  0.28589303272E+01  0.82331573221E+01  0.90992027521E+01  0.51100000000E-03 0. -1.
        -11    1    3    3    0    0 -0.25134964991E+02 -0.34286585001E+02 -0.24374890134E+01  0.42582598900E+02  0.51100000000E-03 0.  1.
         12    1    3    3    0    0  0.21346748472E+02  0.31301095843E+02 -0.57819886630E+01  0.38325887650E+02  0.00000000000E+00 0. -1.
</event>
<event>
 7    1  0.2497665E-015  0.9000779E+02  0.7816164E-02  0.1186339E+00
        -11   -1    0    0    0    0  0.00000000000E+00  0.00000000000E+00  0.45593999997E+02  0.45594000000E+02  0.51100000000E-03 0. -1.
         11   -1    0    0    0    0 -0.00000000000E+00 -0.00000000000E+00 -0.45593999997E+02  0.45594000000E+02  0.51100000000E-03 0.  1.
    9900012    2    1    2    0    0 -0.31186741703E+00  0.53904278523E+00  0.10025252813E+01  0.90007794361E+02  0.90000056447E+02 0.  0.
        -12    1    1    2    0    0  0.31186741703E+00 -0.53904278523E+00 -0.10025252813E+01  0.11802056387E+01  0.00000000000E+00 0.  1.
         11    1    3    3    0    0 -0.31629860350E+02  0.76465415311E+01 -0.15514563652E+02  0.36050233685E+02  0.51100000000E-03 0. -1.
        -11    1    3    3    0    0 -0.77082245486E+01  0.63687067927E+01  0.44374477708E+01  0.10939291334E+02  0.51100000000E-03 0.  1.
        -12    1    3    3    0    0  0.39026217481E+02 -0.13476205539E+02  0.12079641163E+02  0.43018269343E+02  0.00000000000E+00 0.  1.
</event>
<event>
 7    1  0.2497665E-015  0.9000760E+02  0.7816164E-02  0.1186339E+00
        -11   -1    0    0    0    0  0.00000000000E+00  0.00000000000E+00  0.45593999997E+02  0.45594000000E+02  0.51100000000E-03 0.  1.
         11   -1    0    0    0    0 -0.00000000000E+00 -0.00000000000E+00 -0.45593999997E+02  0.45594000000E+02  0.51100000000E-03 0. -1.
    9900012    2    1    2    0    0 -0.28268222176E+00 -0.95823270179E+00  0.62867133441E+00  0.90007598883E+02  0.89999858389E+02 0.  0.
        -12    1    1    2    0    0  0.28268222176E+00  0.95823270179E+00 -0.62867133441E+00  0.11804011166E+01  0.00000000000E+00 0.  1.
         11    1    3    3    0    0 -0.99873258996E+01  0.28923370277E+01  0.11609220934E+02  0.15584810010E+02  0.51100000000E-03 0. -1.
        -11    1    3    3    0    0 -0.26246386779E+01  0.17145685864E+01  0.30567650706E+02  0.30727996088E+02  0.51100000000E-03 0.  1.
         12    1    3    3    0    0  0.12329282356E+02 -0.55651383159E+01 -0.41548200306E+02  0.43694792785E+02  0.00000000000E+00 0. -1.
</event>
<event>
 7    1  0.2497665E-015  0.9000771E+02  0.7816164E-02  0.1186339E+00
        -11   -1    0    0    0    0  0.00000000000E+00  0.00000000000E+00  0.45593999997E+02  0.45594000000E+02  0.51100000000E-03 0.  1.
         11   -1    0    0    0    0 -0.00000000000E+00 -0.00000000000E+00 -0.45593999997E+02  0.45594000000E+02  0.51100000000E-03 0. -1.
    9900012    2    1    2    0    0  0.99223395379E+00  0.60645368798E+00  0.20188776840E+00  0.90007714879E+02  0.89999975916E+02 0.  0.
        -12    1    1    2    0    0 -0.99223395379E+00 -0.60645368798E+00 -0.20188776840E+00  0.11802851205E+01  0.00000000000E+00 0.  1.
         11    1    3    3    0    0  0.69094241073E+01  0.33357543585E+02 -0.79884987243E+01  0.34989740892E+02  0.51100000000E-03 0. -1.
        -11    1    3    3    0    0  0.51118979664E+01  0.86370885268E+01 -0.34823390239E+01  0.10623440327E+02  0.51100000000E-03 0.  1.
        -12    1    3    3    0    0 -0.11029088120E+02 -0.41388178424E+02  0.11672725517E+02  0.44394533661E+02  0.00000000000E+00 0.  1.
</event>
<event>
 7    1  0.2497665E-015  0.9000773E+02  0.7816164E-02  0.1186339E+00
        -11   -1    0    0    0    0  0.00000000000E+00  0.00000000000E+00  0.45593999997E+02  0.45594000000E+02  0.51100000000E-03 0.  1.
         11   -1    0    0    0    0 -0.00000000000E+00 -0.00000000000E+00 -0.45593999997E+02  0.45594000000E+02  0.51100000000E-03 0. -1.
    9900012    2    1    2    0    0  0.41529356320E+00  0.95886452166E+00 -0.54876236920E+00  0.90007733059E+02  0.89999994335E+02 0.  0.
        -12    1    1    2    0    0 -0.41529356320E+00 -0.95886452166E+00  0.54876236920E+00  0.11802669411E+01  0.00000000000E+00 0.  1.
         11    1    3    3    0    0  0.84203391747E+01  0.20523773013E+00 -0.36693804988E+01  0.91874146445E+01  0.51100000000E-03 0. -1.
        -11    1    3    3    0    0 -0.47771711414E+01  0.34514315477E+02 -0.19619724326E+02  0.39987409516E+02  0.51100000000E-03 0.  1.
         12    1    3    3    0    0 -0.32278744701E+01 -0.33760688685E+02  0.22740342455E+02  0.40832908898E+02  0.00000000000E+00 0. -1.
</event>
<event>
 7    1  0.2497665E-015  0.9000777E+02  0.7816164E-02  0.1186339E+00
        -11   -1    0    0    0    0  0.00000000000E+00  0.00000000000E+00  0.45593999997E+02  0.45594000000E+02  0.51100000000E-03 0. -1.
         11   -1    0    0    0    0 -0.00000000000E+00 -0.00000000000E+00 -0.45593999997E+02  0.45594000000E+02  0.51100000000E-03 0.  1.
    9900012    2    1    2    0    0  0.58752795678E+00  0.50135510396E+00  0.89240541224E+00  0.90007773979E+02  0.90000035796E+02 0.  0.
        -12    1    1    2    0    0 -0.58752795678E+00 -0.50135510396E+00 -0.89240541224E+00  0.11802260208E+01  0.00000000000E+00 0.  1.
         11    1    3    3    0    0  0.13985739235E+00 -0.31465328351E+02 -0.13206305932E+02  0.34124667983E+02  0.51100000000E-03 0. -1.
        -11    1    3    3    0    0 -0.13277932866E+01 -0.10950918542E+02  0.15943750984E+01  0.11145747357E+02  0.51100000000E-03 0.  1.
        -12    1    3    3    0    0  0.17754638510E+01  0.42917601997E+02  0.12504336246E+02  0.44737358639E+02  0.00000000000E+00 0.  1.
</event>
<event>
 7    1  0.2497665E-015  0.9000785E+02  0.7816164E-02  0.1186339E+00
        -11   -1    0    0    0    0  0.00000000000E+00  0.00000000000E+00  0.45593999997E+02  0.45594000000E+02  0.51100000000E-03 0.  1.
         11   -1    0    0    0    0 -0.00000000000E+00 -0.00000000000E+00 -0.45593999997E+02  0.45594000000E+02  0.51100000000E-03 0. -1.
    9900012    2    1    2    0    0 -0.25420493185E+00 -0.35088384338E+00 -0.10977289152E+01  0.90007852386E+02  0.90000115238E+02 0.  0.
        -12    1    1    2    0    0  0.25420493185E+00  0.35088384338E+00  0.10977289152E+01  0.11801476137E+01  0.00000000000E+00 0.  1.
         11    1    3    3    0    0  0.11123755870E+02  0.21880042635E+02 -0.25020207546E+02  0.35049750302E+02  0.51100000000E-03 0. -1.
        -11    1    3    3    0    0  0.43619943043E+01 -0.48707437057E+01 -0.11062476659E+02  0.12850273486E+02  0.51100000000E-03 0.  1.
        -12    1    3    3    0    0 -0.15739955106E+02 -0.17360182772E+02  0.34984955290E+02  0.42107828598E+02  0.00000000000E+00 0.  1.
</event>
<event>
 7    1  0.2497665E-015  0.9000771E+02  0.7816164E-02  0.1186339E+00
        -11   -1    0    0    0    0  0.00000000000E+00  0.00000000000E+00  0.45593999997E+02  0.45594000000E+02  0.51100000000E-03 0.  1.
         11   -1    0    0    0    0 -0.00000000000E+00 -0.00000000000E+00 -0.45593999997E+02  0.45594000000E+02  0.51100000000E-03 0. -1.
    9900012    2    1    2    0    0 -0.80995633396E+00 -0.55684960119E+00 -0.65343527558E+00  0.90007708341E+02  0.89999969291E+02 0.  0.
        -12    1    1    2    0    0  0.80995633396E+00  0.55684960119E+00  0.65343527558E+00  0.11802916591E+01  0.00000000000E+00 0.  1.
         11    1    3    3    0    0  0.29284123622E+02 -0.21122300123E+02 -0.12697402611E+02  0.38274475727E+02  0.51100000000E-03 0. -1.
        -11    1    3    3    0    0 -0.31814879423E+02  0.49055780809E+01  0.15306795613E+02  0.35644764570E+02  0.51100000000E-03 0.  1.
        -12    1    3    3    0    0  0.17207994669E+01  0.15659872441E+02 -0.32628282771E+01  0.16088468045E+02  0.00000000000E+00 0.  1.
</event>
<event>
 7    1  0.2723100E-015  0.9000770E+02  0.7816164E-02  0.1186339E+00
        -11   -1    0    0    0    0  0.00000000000E+00  0.00000000000E+00  0.45593999997E+02  0.45594000000E+02  0.51100000000E-03 0. -1.
         11   -1    0    0    0    0 -0.00000000000E+00 -0.00000000000E+00 -0.45593999997E+02  0.45594000000E+02  0.51100000000E-03 0.  1.
    9900012    2    1    2    0    0 -0.55961186865E+00 -0.99568488974E+00  0.29756227101E+00  0.90007704635E+02  0.89999965536E+02 0.  0.
        -12    1    1    2    0    0  0.55961186865E+00  0.99568488974E+00 -0.29756227101E+00  0.11802953649E+01  0.00000000000E+00 0.  1.
         11    1    3    3    0    0 -0.11536787397E+01 -0.27994152645E+02  0.23133614513E+02  0.36334111763E+02  0.51100000000E-03 0. -1.
        -11    1    3    3    0    0  0.57013076423E+01 -0.69342239154E+01  0.42732666221E+01  0.99422923928E+01  0.51100000000E-03 0.  1.
        -12    1    3    3    0    0 -0.51072407713E+01  0.33932691671E+02 -0.27109318864E+02  0.43731300479E+02  0.00000000000E+00 0.  1.
</event>
<event>
 7    1  0.2497665E-015  0.9000780E+02  0.7816164E-02  0.1186339E+00
        -11   -1    0    0    0    0  0.00000000000E+00  0.00000000000E+00  0.45593999997E+02  0.45594000000E+02  0.51100000000E-03 0.  1.
         11   -1    0    0    0    0 -0.00000000000E+00 -0.00000000000E+00 -0.45593999997E+02  0.45594000000E+02  0.51100000000E-03 0. -1.
    9900012    2    1    2    0    0 -0.74258859775E+00  0.70698410173E+00  0.58448137175E+00  0.90007795433E+02  0.90000057533E+02 0.  0.
        -12    1    1    2    0    0  0.74258859775E+00 -0.70698410173E+00 -0.58448137175E+00  0.11802045668E+01  0.00000000000E+00 0.  1.
         11    1    3    3    0    0 -0.72222751757E+01  0.35878978512E+01 -0.47546299695E+01  0.93616652425E+01  0.51100000000E-03 0. -1.
        -11    1    3    3    0    0 -0.46900584660E+01  0.36061916436E+02  0.14432869304E+02  0.39125007119E+02  0.51100000000E-03 0.  1.
         12    1    3    3    0    0  0.11169745044E+02 -0.38942830186E+02 -0.90937579624E+01  0.41521123071E+02  0.00000000000E+00 0. -1.
</event>
<event>
 7    1  0.2497665E-015  0.9000776E+02  0.7816164E-02  0.1186339E+00
        -11   -1    0    0    0    0  0.00000000000E+00  0.00000000000E+00  0.45593999997E+02  0.45594000000E+02  0.51100000000E-03 0.  1.
         11   -1    0    0    0    0 -0.00000000000E+00 -0.00000000000E+00 -0.45593999997E+02  0.45594000000E+02  0.51100000000E-03 0. -1.
    9900012    2    1    2    0    0  0.50555850240E+00  0.10280844019E+01 -0.28359306484E+00  0.90007757668E+02  0.90000019269E+02 0.  0.
        -12    1    1    2    0    0 -0.50555850240E+00 -0.10280844019E+01  0.28359306484E+00  0.11802423324E+01  0.00000000000E+00 0.  1.
         11    1    3    3    0    0 -0.51462642615E+00 -0.52824222621E+01 -0.36795486542E+02  0.37176291577E+02  0.51100000000E-03 0. -1.
        -11    1    3    3    0    0 -0.68316867356E+01 -0.33260899808E+01 -0.52651948111E+01  0.92443006698E+01  0.51100000000E-03 0.  1.
        -12    1    3    3    0    0  0.78518716641E+01  0.96365966448E+01  0.41777088288E+02  0.43587165420E+02  0.00000000000E+00 0.  1.
</event>
<event>
 7    1  0.2497665E-015  0.9000766E+02  0.7816164E-02  0.1186339E+00
        -11   -1    0    0    0    0  0.00000000000E+00  0.00000000000E+00  0.45593999997E+02  0.45594000000E+02  0.51100000000E-03 0.  1.
         11   -1    0    0    0    0 -0.00000000000E+00 -0.00000000000E+00 -0.45593999997E+02  0.45594000000E+02  0.51100000000E-03 0. -1.
    9900012    2    1    2    0    0  0.17292311038E+00  0.88251756352E+00 -0.76449880456E+00  0.90007661881E+02  0.89999922218E+02 0.  0.
        -12    1    1    2    0    0 -0.17292311038E+00 -0.88251756352E+00  0.76449880456E+00  0.11803381186E+01  0.00000000000E+00 0.  1.
         11    1    3    3    0    0  0.77751279250E+01  0.12774043881E+01 -0.54420414459E+01  0.95760216991E+01  0.51100000000E-03 0. -1.
        -11    1    3    3    0    0 -0.46919296627E+01 -0.16056171857E+02  0.39085852951E+02  0.42514923966E+02  0.51100000000E-03 0.  1.
         12    1    3    3    0    0 -0.29102751520E+01  0.15661285032E+02 -0.34408310309E+02  0.37916716217E+02  0.00000000000E+00 0. -1.
</event>
<event>
 7    1  0.2670025E-015  0.9000771E+02  0.7816164E-02  0.1186339E+00
        -11   -1    0    0    0    0  0.00000000000E+00  0.00000000000E+00  0.45593999997E+02  0.45594000000E+02  0.51100000000E-03 0.  1.
         11   -1    0    0    0    0 -0.00000000000E+00 -0.00000000000E+00 -0.45593999997E+02  0.45594000000E+02  0.51100000000E-03 0. -1.
    9900012    2    1    2    0    0 -0.65629210061E+00  0.67403171903E-01 -0.97868285412E+00  0.90007710782E+02  0.89999971764E+02 0.  0.
        -12    1    1    2    0    0  0.65629210061E+00 -0.67403171903E-01  0.97868285412E+00  0.11802892179E+01  0.00000000000E+00 0.  1.
         11    1    3    3    0    0 -0.50526071075E+01 -0.30738676758E+02 -0.21779802199E+02  0.38009931222E+02  0.51100000000E-03 0. -1.
        -11    1    3    3    0    0  0.46486123253E+01 -0.77436621859E+01  0.28352166685E+01  0.94663802173E+01  0.51100000000E-03 0.  1.
        -12    1    3    3    0    0 -0.25229731843E+00  0.38549742115E+02  0.17965902676E+02  0.42531399343E+02  0.00000000000E+00 0.  1.
</event>
<event>
 7    1  0.2497665E-015  0.9000773E+02  0.7816164E-02  0.1186339E+00
        -11   -1    0    0    0    0  0.00000000000E+00  0.00000000000E+00  0.45593999997E+02  0.45594000000E+02  0.51100000000E-03 0.  1.
         11   -1    0    0    0    0 -0.00000000000E+00 -0.00000000000E+00 -0.45593999997E+02  0.45594000000E+02  0.51100000000E-03 0. -1.
    9900012    2    1    2    0    0  0.10538885344E+01 -0.51853680739E+00 -0.11613341891E+00  0.90007725272E+02  0.89999986445E+02 0.  0.
        -12    1    1    2    0    0 -0.10538885344E+01  0.51853680739E+00  0.11613341891E+00  0.11802747284E+01  0.00000000000E+00 0.  1.
         11    1    3    3    0    0  0.29151365680E+02  0.25028352829E+01 -0.25661533582E+02  0.38917613127E+02  0.51100000000E-03 0. -1.
        -11    1    3    3    0    0  0.16792302662E+01  0.86244217398E+01 -0.18577375524E+01  0.89806265765E+01  0.51100000000E-03 0.  1.
        -12    1    3    3    0    0 -0.29776707412E+02 -0.11645793830E+02  0.27403137715E+02  0.42109485568E+02  0.00000000000E+00 0.  1.
</event>
<event>
 7    1  0.2497665E-015  0.9000778E+02  0.7816164E-02  0.1186339E+00
        -11   -1    0    0    0    0  0.00000000000E+00  0.00000000000E+00  0.45593999997E+02  0.45594000000E+02  0.51100000000E-03 0. -1.
         11   -1    0    0    0    0 -0.00000000000E+00 -0.00000000000E+00 -0.45593999997E+02  0.45594000000E+02  0.51100000000E-03 0.  1.
    9900012    2    1    2    0    0 -0.66671763169E+00 -0.11106022959E+00 -0.96750610954E+00  0.90007781865E+02  0.90000043785E+02 0.  0.
        -12    1    1    2    0    0  0.66671763169E+00  0.11106022959E+00  0.96750610954E+00  0.11802181353E+01  0.00000000000E+00 0.  1.
         11    1    3    3    0    0 -0.48350962877E+01  0.91874878723E+01  0.31585711804E+02  0.33248237245E+02  0.51100000000E-03 0. -1.
        -11    1    3    3    0    0  0.49399071592E+01  0.16673891499E+01  0.10822283237E+02  0.12012688461E+02  0.51100000000E-03 0.  1.
        -12    1    3    3    0    0 -0.77152850319E+00 -0.10965937252E+02 -0.43375501151E+02  0.44746856159E+02  0.00000000000E+00 0.  1.
</event>
<event>
 7    1  0.2497665E-015  0.9000860E+02  0.7816164E-02  0.1186337E+00
        -11   -1    0    0    0    0  0.00000000000E+00  0.00000000000E+00  0.45593999997E+02  0.45594000000E+02  0.51100000000E-03 0.  1.
         11   -1    0    0    0    0 -0.00000000000E+00 -0.00000000000E+00 -0.45593999997E+02  0.45594000000E+02  0.51100000000E-03 0. -1.
    9900012    2    1    2    0    0  0.67557438113E+00 -0.45172683754E+00 -0.85471050379E+00  0.90008598488E+02  0.90000871184E+02 0.  0.
        -12    1    1    2    0    0 -0.67557438113E+00  0.45172683754E+00  0.85471050379E+00  0.11794015116E+01  0.00000000000E+00 0.  1.
         11    1    3    3    0    0 -0.83678952347E+01 -0.67199391330E+00 -0.66853968773E+01  0.10731625140E+02  0.51100000000E-03 0. -1.
        -11    1    3    3    0    0  0.31523393079E+02 -0.22184346569E+02 -0.14945911296E+02  0.41343074495E+02  0.51100000000E-03 0.  1.
         12    1    3    3    0    0 -0.22479923463E+02  0.22404613645E+02  0.20776597670E+02  0.37933898854E+02  0.00000000000E+00 0. -1.
</event>
<event>
 7    1  0.2497665E-015  0.9000769E+02  0.7816164E-02  0.1186339E+00
        -11   -1    0    0    0    0  0.00000000000E+00  0.00000000000E+00  0.45593999997E+02  0.45594000000E+02  0.51100000000E-03 0. -1.
         11   -1    0    0    0    0 -0.00000000000E+00 -0.00000000000E+00 -0.45593999997E+02  0.45594000000E+02  0.51100000000E-03 0.  1.
    9900012    2    1    2    0    0  0.37468807022E+00  0.71164332197E+00 -0.86389259434E+00  0.90007687422E+02  0.89999948096E+02 0.  0.
        -12    1    1    2    0    0 -0.37468807022E+00 -0.71164332197E+00  0.86389259434E+00  0.11803125782E+01  0.00000000000E+00 0.  1.
         11    1    3    3    0    0  0.34305224019E+01 -0.29854006125E+02 -0.30495247748E+01  0.30204797091E+02  0.51100000000E-03 0. -1.
        -11    1    3    3    0    0  0.72481395873E+01 -0.12733745833E+02  0.42206001900E+01  0.15247861379E+02  0.51100000000E-03 0.  1.
        -12    1    3    3    0    0 -0.10303973919E+02  0.43299395280E+02 -0.20349680095E+01  0.44555028952E+02  0.00000000000E+00 0.  1.
</event>
<event>
 7    1  0.2497665E-015  0.9000771E+02  0.7816164E-02  0.1186339E+00
        -11   -1    0    0    0    0  0.00000000000E+00  0.00000000000E+00  0.45593999997E+02  0.45594000000E+02  0.51100000000E-03 0.  1.
         11   -1    0    0    0    0 -0.00000000000E+00 -0.00000000000E+00 -0.45593999997E+02  0.45594000000E+02  0.51100000000E-03 0. -1.
    9900012    2    1    2    0    0 -0.99513948495E+00 -0.14780199855E+00  0.61719939299E+00  0.90007710580E+02  0.89999971559E+02 0.  0.
        -12    1    1    2    0    0  0.99513948495E+00  0.14780199855E+00 -0.61719939299E+00  0.11802894204E+01  0.00000000000E+00 0.  1.
         11    1    3    3    0    0 -0.28312071569E+01 -0.32621510472E+01  0.95254929536E+01  0.10459081207E+02  0.51100000000E-03 0. -1.
        -11    1    3    3    0    0 -0.20486996091E+02 -0.25497879726E+02  0.15110020004E+02  0.36030148267E+02  0.51100000000E-03 0.  1.
         12    1    3    3    0    0  0.22323063763E+02  0.28612228775E+02 -0.24018313565E+02  0.43518481106E+02  0.00000000000E+00 0. -1.
</event>
<event>
 7    1  0.2497665E-015  0.9000786E+02  0.7816164E-02  0.1186339E+00
        -11   -1    0    0    0    0  0.00000000000E+00  0.00000000000E+00  0.45593999997E+02  0.45594000000E+02  0.51100000000E-03 0.  1.
         11   -1    0    0    0    0 -0.00000000000E+00 -0.00000000000E+00 -0.45593999997E+02  0.45594000000E+02  0.51100000000E-03 0. -1.
    9900012    2    1    2    0    0  0.51800462666E+00  0.83521445765E+00 -0.65331535192E+00  0.90007858935E+02  0.90000121873E+02 0.  0.
        -12    1    1    2    0    0 -0.51800462666E+00 -0.83521445765E+00  0.65331535192E+00  0.11801410647E+01  0.00000000000E+00 0.  1.
         11    1    3    3    0    0 -0.10939277177E+01  0.11777293951E+02  0.29379474437E+01  0.12187406045E+02  0.51100000000E-03 0. -1.
        -11    1    3    3    0    0  0.11801282610E+02  0.22783107801E+02  0.22383555087E+02  0.34049431873E+02  0.51100000000E-03 0.  1.
         12    1    3    3    0    0 -0.10189350265E+02 -0.33725187294E+02 -0.25974817882E+02  0.43771021017E+02  0.00000000000E+00 0. -1.
</event>
<event>
 7    1  0.2497665E-015  0.9000775E+02  0.7816164E-02  0.1186339E+00
        -11   -1    0    0    0    0  0.00000000000E+00  0.00000000000E+00  0.45593999997E+02  0.45594000000E+02  0.51100000000E-03 0.  1.
         11   -1    0    0    0    0 -0.00000000000E+00 -0.00000000000E+00 -0.45593999997E+02  0.45594000000E+02  0.51100000000E-03 0. -1.
    9900012    2    1    2    0    0  0.33795343059E+00 -0.11137821527E+01 -0.19558936652E+00  0.90007754939E+02  0.90000016504E+02 0.  0.
        -12    1    1    2    0    0 -0.33795343059E+00  0.11137821527E+01  0.19558936652E+00  0.11802450615E+01  0.00000000000E+00 0.  1.
         11    1    3    3    0    0  0.38904394376E+01  0.58005381623E+01  0.40404023699E+01  0.80688669317E+01  0.51100000000E-03 0. -1.
        -11    1    3    3    0    0 -0.57685242074E+01 -0.14674778312E+02  0.36842615715E+02  0.40074971279E+02  0.51100000000E-03 0.  1.
         12    1    3    3    0    0  0.22160382004E+01  0.77604579970E+01 -0.41078607451E+02  0.41863916728E+02  0.00000000000E+00 0. -1.
</event>
<event>
 7    1  0.2497665E-015  0.9000772E+02  0.7816164E-02  0.1186339E+00
        -11   -1    0    0    0    0  0.00000000000E+00  0.00000000000E+00  0.45593999997E+02  0.45594000000E+02  0.51100000000E-03 0.  1.
         11   -1    0    0    0    0 -0.00000000000E+00 -0.00000000000E+00 -0.45593999997E+02  0.45594000000E+02  0.51100000000E-03 0. -1.
    9900012    2    1    2    0    0 -0.77103167802E+00 -0.15747047204E+00 -0.87965062607E+00  0.90007715279E+02  0.89999976321E+02 0.  0.
        -12    1    1    2    0    0  0.77103167802E+00  0.15747047204E+00  0.87965062607E+00  0.11802847207E+01  0.00000000000E+00 0.  1.
         11    1    3    3    0    0  0.87937688327E+01 -0.39609467958E+01  0.28287781119E-01  0.96447016678E+01  0.51100000000E-03 0. -1.
        -11    1    3    3    0    0 -0.81808193724E+01 -0.36590979326E+02  0.93927276688E+01  0.38652928828E+02  0.51100000000E-03 0.  1.
         12    1    3    3    0    0 -0.13839811384E+01  0.40394455650E+02 -0.10300666076E+02  0.41710084784E+02  0.00000000000E+00 0. -1.
</event>
<event>
 7    1  0.2497665E-015  0.9000778E+02  0.7816164E-02  0.1186339E+00
        -11   -1    0    0    0    0  0.00000000000E+00  0.00000000000E+00  0.45593999997E+02  0.45594000000E+02  0.51100000000E-03 0. -1.
         11   -1    0    0    0    0 -0.00000000000E+00 -0.00000000000E+00 -0.45593999997E+02  0.45594000000E+02  0.51100000000E-03 0.  1.
    9900012    2    1    2    0    0 -0.84904215162E+00  0.79071837856E+00  0.21637971897E+00  0.90007776160E+02  0.90000038005E+02 0.  0.
        -12    1    1    2    0    0  0.84904215162E+00 -0.79071837856E+00 -0.21637971897E+00  0.11802238399E+01  0.00000000000E+00 0.  1.
         11    1    3    3    0    0  0.28535046474E+01  0.39165784995E+01  0.82202619767E+01  0.95422629990E+01  0.51100000000E-03 0. -1.
        -11    1    3    3    0    0 -0.97562855431E+01 -0.40737487406E+02 -0.23810260078E+01  0.41957088470E+02  0.51100000000E-03 0.  1.
         12    1    3    3    0    0  0.60537387441E+01  0.37611627285E+02 -0.56228562499E+01  0.38508424691E+02  0.00000000000E+00 0. -1.
</event>
<event>
 7    1  0.2497665E-015  0.9000789E+02  0.7816164E-02  0.1186339E+00
        -11   -1    0    0    0    0  0.00000000000E+00  0.00000000000E+00  0.45593999997E+02  0.45594000000E+02  0.51100000000E-03 0. -1.
         11   -1    0    0    0    0 -0.00000000000E+00 -0.00000000000E+00 -0.45593999997E+02  0.45594000000E+02  0.51100000000E-03 0.  1.
    9900012    2    1    2    0    0 -0.11370084273E+01 -0.29283614450E+00 -0.11885360779E+00  0.90007886721E+02  0.90000150026E+02 0.  0.
        -12    1    1    2    0    0  0.11370084273E+01  0.29283614450E+00  0.11885360779E+00  0.11801132791E+01  0.00000000000E+00 0.  1.
         11    1    3    3    0    0 -0.26050810480E+01  0.38397565658E+01  0.86591551617E+01  0.98240086587E+01  0.51100000000E-03 0. -1.
        -11    1    3    3    0    0  0.38612088029E+02 -0.93959276819E+01  0.53486316697E+01  0.40097190175E+02  0.51100000000E-03 0.  1.
         12    1    3    3    0    0 -0.37144015408E+02  0.52633349717E+01 -0.14126640439E+02  0.40086687887E+02  0.00000000000E+00 0. -1.
</event>
<event>
 7    1  0.2497665E-015  0.9000790E+02  0.7816164E-02  0.1186339E+00
        -11   -1    0    0    0    0  0.00000000000E+00  0.00000000000E+00  0.45593999997E+02  0.45594000000E+02  0.51100000000E-03 0.  1.
         11   -1    0    0    0    0 -0.00000000000E+00 -0.00000000000E+00 -0.45593999997E+02  0.45594000000E+02  0.51100000000E-03 0. -1.
    9900012    2    1    2    0    0  0.58635997713E-01  0.75185886507E+00 -0.90768720741E+00  0.90007904241E+02  0.90000167777E+02 0.  0.
        -12    1    1    2    0    0 -0.58635997713E-01 -0.75185886507E+00  0.90768720741E+00  0.11800957587E+01  0.00000000000E+00 0.  1.
         11    1    3    3    0    0  0.11032111901E+02 -0.29904688537E+01  0.31033426158E+01  0.11844033629E+02  0.51100000000E-03 0. -1.
        -11    1    3    3    0    0 -0.11999258050E+01  0.34333574366E+02  0.18429612603E+02  0.38985699579E+02  0.51100000000E-03 0.  1.
         12    1    3    3    0    0 -0.97735500983E+01 -0.30591246647E+02 -0.22440642427E+02  0.39178171033E+02  0.00000000000E+00 0. -1.
</event>
<event>
 7    1  0.2497665E-015  0.9000778E+02  0.7816164E-02  0.1186339E+00
        -11   -1    0    0    0    0  0.00000000000E+00  0.00000000000E+00  0.45593999997E+02  0.45594000000E+02  0.51100000000E-03 0.  1.
         11   -1    0    0    0    0 -0.00000000000E+00 -0.00000000000E+00 -0.45593999997E+02  0.45594000000E+02  0.51100000000E-03 0. -1.
    9900012    2    1    2    0    0  0.86185278053E+00  0.28948887741E+00 -0.75254934817E+00  0.90007777755E+02  0.90000039622E+02 0.  0.
        -12    1    1    2    0    0 -0.86185278053E+00 -0.28948887741E+00  0.75254934817E+00  0.11802222447E+01  0.00000000000E+00 0.  1.
         11    1    3    3    0    0  0.16822619675E+02 -0.48324437538E+01 -0.36427147167E+02  0.40413983921E+02  0.51100000000E-03 0. -1.
        -11    1    3    3    0    0  0.45451038163E+01 -0.65988908097E+01  0.16598926108E+01  0.81828217846E+01  0.51100000000E-03 0.  1.
        -12    1    3    3    0    0 -0.20505870711E+02  0.11720823441E+02  0.34014705208E+02  0.41410972050E+02  0.00000000000E+00 0.  1.
</event>
<event>
 7    1  0.2497665E-015  0.9000774E+02  0.7816164E-02  0.1186339E+00
        -11   -1    0    0    0    0  0.00000000000E+00  0.00000000000E+00  0.45593999997E+02  0.45594000000E+02  0.51100000000E-03 0.  1.
         11   -1    0    0    0    0 -0.00000000000E+00 -0.00000000000E+00 -0.45593999997E+02  0.45594000000E+02  0.51100000000E-03 0. -1.
    9900012    2    1    2    0    0 -0.36666876356E-01  0.58485370611E+00 -0.10245066024E+01  0.90007740666E+02  0.90000002043E+02 0.  0.
        -12    1    1    2    0    0  0.36666876356E-01 -0.58485370611E+00  0.10245066024E+01  0.11802593341E+01  0.00000000000E+00 0.  1.
         11    1    3    3    0    0  0.57614891339E+01 -0.54348951907E+01  0.31555914126E+01  0.85258782655E+01  0.51100000000E-03 0. -1.
        -11    1    3    3    0    0  0.30771129893E+02  0.25428861706E+02 -0.55142338508E+00  0.39922343501E+02  0.51100000000E-03 0.  1.
         12    1    3    3    0    0 -0.36569285904E+02 -0.19409112810E+02 -0.36286746299E+01  0.41559518899E+02  0.00000000000E+00 0. -1.
</event>
<event>
 7    1  0.2497665E-015  0.9000760E+02  0.7816164E-02  0.1186339E+00
        -11   -1    0    0    0    0  0.00000000000E+00  0.00000000000E+00  0.45593999997E+02  0.45594000000E+02  0.51100000000E-03 0. -1.
         11   -1    0    0    0    0 -0.00000000000E+00 -0.00000000000E+00 -0.45593999997E+02  0.45594000000E+02  0.51100000000E-03 0.  1.
    9900012    2    1    2    0    0 -0.66815251151E+00  0.20936357553E+00  0.95031291693E+00  0.90007595186E+02  0.89999854642E+02 0.  0.
        -12    1    1    2    0    0  0.66815251151E+00 -0.20936357553E+00 -0.95031291693E+00  0.11804048142E+01  0.00000000000E+00 0.  1.
         11    1    3    3    0    0  0.81626521150E+01  0.63735018016E+01  0.22690606957E+02  0.24942214399E+02  0.51100000000E-03 0. -1.
        -11    1    3    3    0    0  0.25428682624E+02 -0.50227892042E+01 -0.15567200502E+02  0.30235476565E+02  0.51100000000E-03 0.  1.
        -12    1    3    3    0    0 -0.34259487251E+02 -0.11413490219E+01 -0.61730935387E+01  0.34829904222E+02  0.00000000000E+00 0.  1.
</event>
<event>
 7    1  0.2497665E-015  0.9000777E+02  0.7816164E-02  0.1186339E+00
        -11   -1    0    0    0    0  0.00000000000E+00  0.00000000000E+00  0.45593999997E+02  0.45594000000E+02  0.51100000000E-03 0. -1.
         11   -1    0    0    0    0 -0.00000000000E+00 -0.00000000000E+00 -0.45593999997E+02  0.45594000000E+02  0.51100000000E-03 0.  1.
    9900012    2    1    2    0    0 -0.67157683470E+00  0.34157171112E+00  0.90843569215E+00  0.90007770325E+02  0.90000032093E+02 0.  0.
        -12    1    1    2    0    0  0.67157683470E+00 -0.34157171112E+00 -0.90843569215E+00  0.11802296749E+01  0.00000000000E+00 0.  1.
         11    1    3    3    0    0  0.11132469848E+02 -0.25322081260E+02  0.18012024267E+02  0.33008676173E+02  0.51100000000E-03 0. -1.
        -11    1    3    3    0    0 -0.31219912330E+01 -0.13256256916E+02 -0.24375377709E-01  0.13618948972E+02  0.51100000000E-03 0.  1.
        -12    1    3    3    0    0 -0.86820554500E+01  0.38919909886E+02 -0.17079213198E+02  0.43380145180E+02  0.00000000000E+00 0.  1.
</event>
<event>
 7    1  0.2497665E-015  0.9000772E+02  0.7816164E-02  0.1186339E+00
        -11   -1    0    0    0    0  0.00000000000E+00  0.00000000000E+00  0.45593999997E+02  0.45594000000E+02  0.51100000000E-03 0.  1.
         11   -1    0    0    0    0 -0.00000000000E+00 -0.00000000000E+00 -0.45593999997E+02  0.45594000000E+02  0.51100000000E-03 0. -1.
    9900012    2    1    2    0    0  0.50174819588E+00  0.10278832013E+01 -0.29113194236E+00  0.90007723365E+02  0.89999984513E+02 0.  0.
        -12    1    1    2    0    0 -0.50174819588E+00 -0.10278832013E+01  0.29113194236E+00  0.11802766352E+01  0.00000000000E+00 0.  1.
         11    1    3    3    0    0 -0.17862916383E+01 -0.36712970086E+02  0.18246166884E+01  0.36801660787E+02  0.51100000000E-03 0. -1.
        -11    1    3    3    0    0 -0.30586413549E+01 -0.45467599510E+01 -0.84929634143E+01  0.10107360724E+02  0.51100000000E-03 0.  1.
        -12    1    3    3    0    0  0.53466811891E+01  0.42287613238E+02  0.63772147835E+01  0.43098701854E+02  0.00000000000E+00 0.  1.
</event>
<event>
 7    1  0.2497665E-015  0.9000773E+02  0.7816164E-02  0.1186339E+00
        -11   -1    0    0    0    0  0.00000000000E+00  0.00000000000E+00  0.45593999997E+02  0.45594000000E+02  0.51100000000E-03 0.  1.
         11   -1    0    0    0    0 -0.00000000000E+00 -0.00000000000E+00 -0.45593999997E+02  0.45594000000E+02  0.51100000000E-03 0. -1.
    9900012    2    1    2    0    0  0.75639163570E+00 -0.22932122054E+00 -0.87653347259E+00  0.90007734158E+02  0.89999995449E+02 0.  0.
        -12    1    1    2    0    0 -0.75639163570E+00  0.22932122054E+00  0.87653347259E+00  0.11802658418E+01  0.00000000000E+00 0.  1.
         11    1    3    3    0    0  0.99345480234E+01  0.40553468307E+02  0.67573115792E+01  0.42295866183E+02  0.51100000000E-03 0. -1.
        -11    1    3    3    0    0  0.58671317103E+01 -0.87636869868E+01  0.26415203844E+01  0.10872123726E+02  0.51100000000E-03 0.  1.
        -12    1    3    3    0    0 -0.15045288098E+02 -0.32019102541E+02 -0.10275365436E+02  0.36839744249E+02  0.00000000000E+00 0.  1.
</event>
<event>
 7    1  0.2497665E-015  0.9000771E+02  0.7816164E-02  0.1186339E+00
        -11   -1    0    0    0    0  0.00000000000E+00  0.00000000000E+00  0.45593999997E+02  0.45594000000E+02  0.51100000000E-03 0. -1.
         11   -1    0    0    0    0 -0.00000000000E+00 -0.00000000000E+00 -0.45593999997E+02  0.45594000000E+02  0.51100000000E-03 0.  1.
    9900012    2    1    2    0    0  0.87088540300E+00  0.72215475677E+00  0.33635394060E+00  0.90007710692E+02  0.89999971673E+02 0.  0.
        -12    1    1    2    0    0 -0.87088540300E+00 -0.72215475677E+00 -0.33635394060E+00  0.11802893083E+01  0.00000000000E+00 0.  1.
         11    1    3    3    0    0  0.25050064353E+01  0.73868705158E+01 -0.32692996127E+01  0.84574956977E+01  0.51100000000E-03 0. -1.
        -11    1    3    3    0    0  0.34396134062E+02  0.93907798829E+01 -0.14063081663E+02  0.38328201776E+02  0.51100000000E-03 0.  1.
         12    1    3    3    0    0 -0.36030255095E+02 -0.16055495642E+02  0.17668735217E+02  0.43222013218E+02  0.00000000000E+00 0. -1.
</event>
<event>
 7    1  0.2497665E-015  0.9000772E+02  0.7816164E-02  0.1186339E+00
        -11   -1    0    0    0    0  0.00000000000E+00  0.00000000000E+00  0.45593999997E+02  0.45594000000E+02  0.51100000000E-03 0.  1.
         11   -1    0    0    0    0 -0.00000000000E+00 -0.00000000000E+00 -0.45593999997E+02  0.45594000000E+02  0.51100000000E-03 0. -1.
    9900012    2    1    2    0    0 -0.10592798902E+01  0.51086985442E+00 -0.99956096064E-01  0.90007723289E+02  0.89999984436E+02 0.  0.
        -12    1    1    2    0    0  0.10592798902E+01 -0.51086985442E+00  0.99956096064E-01  0.11802767112E+01  0.00000000000E+00 0.  1.
         11    1    3    3    0    0 -0.25527781496E+02  0.76533982401E+01 -0.17709751357E+02  0.31998084726E+02  0.51100000000E-03 0. -1.
        -11    1    3    3    0    0  0.50251530505E+01  0.20342643714E+02  0.11122680232E+02  0.23723181327E+02  0.51100000000E-03 0.  1.
         12    1    3    3    0    0  0.19443348555E+02 -0.27485172100E+02  0.64871150284E+01  0.34286457236E+02  0.00000000000E+00 0. -1.
</event>
<event>
 7    1  0.2497665E-015  0.9000782E+02  0.7816164E-02  0.1186339E+00
        -11   -1    0    0    0    0  0.00000000000E+00  0.00000000000E+00  0.45593999997E+02  0.45594000000E+02  0.51100000000E-03 0.  1.
         11   -1    0    0    0    0 -0.00000000000E+00 -0.00000000000E+00 -0.45593999997E+02  0.45594000000E+02  0.51100000000E-03 0. -1.
    9900012    2    1    2    0    0  0.11556660090E+01 -0.85140493548E-01  0.22365811139E+00  0.90007815362E+02  0.90000077725E+02 0.  0.
        -12    1    1    2    0    0 -0.11556660090E+01  0.85140493548E-01 -0.22365811139E+00  0.11801846375E+01  0.00000000000E+00 0.  1.
         11    1    3    3    0    0 -0.19160699838E+01  0.28213753030E+01 -0.38033723494E+02  0.38186327472E+02  0.51100000000E-03 0. -1.
        -11    1    3    3    0    0  0.89585827885E+01 -0.31235714731E+01 -0.31503088759E+01  0.99968670392E+01  0.51100000000E-03 0.  1.
        -12    1    3    3    0    0 -0.58868467957E+01  0.21705567657E+00  0.41407690481E+02  0.41824620851E+02  0.00000000000E+00 0.  1.
</event>
<event>
 7    1  0.2497665E-015  0.9000774E+02  0.7816164E-02  0.1186339E+00
        -11   -1    0    0    0    0  0.00000000000E+00  0.00000000000E+00  0.45593999997E+02  0.45594000000E+02  0.51100000000E-03 0.  1.
         11   -1    0    0    0    0 -0.00000000000E+00 -0.00000000000E+00 -0.45593999997E+02  0.45594000000E+02  0.51100000000E-03 0. -1.
    9900012    2    1    2    0    0  0.58103374739E+00  0.78092826512E+00 -0.66751025994E+00  0.90007737691E+02  0.89999999029E+02 0.  0.
        -12    1    1    2    0    0 -0.58103374739E+00 -0.78092826512E+00  0.66751025994E+00  0.11802623090E+01  0.00000000000E+00 0.  1.
         11    1    3    3    0    0  0.17768410520E+02 -0.20310616371E+02  0.27271509475E+02  0.38366297438E+02  0.51100000000E-03 0. -1.
        -11    1    3    3    0    0 -0.75563135134E+01 -0.41260331207E+01  0.42751582193E+01  0.96124399237E+01  0.51100000000E-03 0.  1.
        -12    1    3    3    0    0 -0.96310632592E+01  0.25217577757E+02 -0.32214177954E+02  0.42029000329E+02  0.00000000000E+00 0.  1.
</event>
<event>
 7    1  0.2497665E-015  0.9000781E+02  0.7816164E-02  0.1186339E+00
        -11   -1    0    0    0    0  0.00000000000E+00  0.00000000000E+00  0.45593999997E+02  0.45594000000E+02  0.51100000000E-03 0.  1.
         11   -1    0    0    0    0 -0.00000000000E+00 -0.00000000000E+00 -0.45593999997E+02  0.45594000000E+02  0.51100000000E-03 0. -1.
    9900012    2    1    2    0    0  0.36425516497E+00  0.31635272347E+00 -0.10770690772E+01  0.90007814138E+02  0.90000076485E+02 0.  0.
        -12    1    1    2    0    0 -0.36425516497E+00 -0.31635272347E+00  0.10770690772E+01  0.11801858616E+01  0.00000000000E+00 0.  1.
         11    1    3    3    0    0 -0.48072477689E+01  0.77896450940E+01  0.33544083705E+01  0.97488592964E+01  0.51100000000E-03 0. -1.
        -11    1    3    3    0    0  0.44007835392E+01  0.35418956068E+01  0.36975707836E+02  0.37404744224E+02  0.51100000000E-03 0.  1.
         12    1    3    3    0    0  0.77071939472E+00 -0.11015187977E+02 -0.41407185284E+02  0.42854210618E+02  0.00000000000E+00 0. -1.
</event>
<event>
 7    1  0.2497665E-015  0.9000762E+02  0.7816164E-02  0.1186339E+00
        -11   -1    0    0    0    0  0.00000000000E+00  0.00000000000E+00  0.45593999997E+02  0.45594000000E+02  0.51100000000E-03 0. -1.
         11   -1    0    0    0    0 -0.00000000000E+00 -0.00000000000E+00 -0.45593999997E+02  0.45594000000E+02  0.51100000000E-03 0.  1.
    9900012    2    1    2    0    0 -0.11585153689E+01 -0.93551921515E-01 -0.20589180056E+00  0.90007618174E+02  0.89999877934E+02 0.  0.
        -12    1    1    2    0    0  0.11585153689E+01  0.93551921515E-01  0.20589180056E+00  0.11803818262E+01  0.00000000000E+00 0.  1.
         11    1    3    3    0    0  0.16182721311E+01 -0.29964767549E+01 -0.47892089017E+01  0.58765806213E+01  0.51100000000E-03 0. -1.
        -11    1    3    3    0    0 -0.27029974053E+02 -0.83320739069E+01 -0.29465312632E+02  0.40844186877E+02  0.51100000000E-03 0.  1.
         12    1    3    3    0    0  0.24253186553E+02  0.11234998740E+02  0.34048629733E+02  0.43286850675E+02  0.00000000000E+00 0. -1.
</event>
<event>
 7    1  0.2497665E-015  0.9000779E+02  0.7816164E-02  0.1186339E+00
        -11   -1    0    0    0    0  0.00000000000E+00  0.00000000000E+00  0.45593999997E+02  0.45594000000E+02  0.51100000000E-03 0. -1.
         11   -1    0    0    0    0 -0.00000000000E+00 -0.00000000000E+00 -0.45593999997E+02  0.45594000000E+02  0.51100000000E-03 0.  1.
    9900012    2    1    2    0    0 -0.74742928540E+00  0.32684617061E+00 -0.85288909449E+00  0.90007788678E+02  0.90000050689E+02 0.  0.
        -12    1    1    2    0    0  0.74742928540E+00 -0.32684617061E+00  0.85288909449E+00  0.11802113215E+01  0.00000000000E+00 0.  1.
         11    1    3    3    0    0  0.70416535009E+01  0.54575914693E+01 -0.21264982346E+01  0.91592676386E+01  0.51100000000E-03 0. -1.
        -11    1    3    3    0    0 -0.33490222947E+02  0.78838051233E+01 -0.24464809175E+02  0.42217014396E+02  0.51100000000E-03 0.  1.
         12    1    3    3    0    0  0.25701140160E+02 -0.13014550422E+02  0.25738418315E+02  0.38631506644E+02  0.00000000000E+00 0. -1.
</event>
<event>
 7    1  0.2497665E-015  0.9000775E+02  0.7816164E-02  0.1186339E+00
        -11   -1    0    0    0    0  0.00000000000E+00  0.00000000000E+00  0.45593999997E+02  0.45594000000E+02  0.51100000000E-03 0.  1.
         11   -1    0    0    0    0 -0.00000000000E+00 -0.00000000000E+00 -0.45593999997E+02  0.45594000000E+02  0.51100000000E-03 0. -1.
    9900012    2    1    2    0    0  0.18632911935E+00 -0.94844711746E+00 -0.67729435920E+00  0.90007746585E+02  0.90000008040E+02 0.  0.
        -12    1    1    2    0    0 -0.18632911935E+00  0.94844711746E+00  0.67729435920E+00  0.11802534153E+01  0.00000000000E+00 0.  1.
         11    1    3    3    0    0 -0.10901732382E-01  0.31487482326E+01 -0.98866778369E+01  0.10375988300E+02  0.51100000000E-03 0. -1.
        -11    1    3    3    0    0 -0.23274764660E+02  0.29795320151E+02  0.59852305818E+01  0.38279220973E+02  0.51100000000E-03 0.  1.
         12    1    3    3    0    0  0.23471995512E+02 -0.33892515501E+02  0.32241528959E+01  0.41352537313E+02  0.00000000000E+00 0. -1.
</event>
<event>
 7    1  0.2497665E-015  0.9000778E+02  0.7816164E-02  0.1186339E+00
        -11   -1    0    0    0    0  0.00000000000E+00  0.00000000000E+00  0.45593999997E+02  0.45594000000E+02  0.51100000000E-03 0.  1.
         11   -1    0    0    0    0 -0.00000000000E+00 -0.00000000000E+00 -0.45593999997E+02  0.45594000000E+02  0.51100000000E-03 0. -1.
    9900012    2    1    2    0    0 -0.11352468456E+01 -0.24331886361E+00 -0.21197167473E+00  0.90007779063E+02  0.90000040946E+02 0.  0.
        -12    1    1    2    0    0  0.11352468456E+01  0.24331886361E+00  0.21197167473E+00  0.11802209373E+01  0.00000000000E+00 0.  1.
         11    1    3    3    0    0 -0.20103250084E+02  0.70468042924E+01 -0.24876616003E+02  0.32751246369E+02  0.51100000000E-03 0. -1.
        -11    1    3    3    0    0 -0.11682505426E+02  0.90332292165E+01  0.18379441668E+00  0.14768681178E+02  0.51100000000E-03 0.  1.
        -12    1    3    3    0    0  0.30650508664E+02 -0.16323352373E+02  0.24480849912E+02  0.42487851516E+02  0.00000000000E+00 0.  1.
</event>
<event>
 7    1  0.2497665E-015  0.9000761E+02  0.7816164E-02  0.1186339E+00
        -11   -1    0    0    0    0  0.00000000000E+00  0.00000000000E+00  0.45593999997E+02  0.45594000000E+02  0.51100000000E-03 0.  1.
         11   -1    0    0    0    0 -0.00000000000E+00 -0.00000000000E+00 -0.45593999997E+02  0.45594000000E+02  0.51100000000E-03 0. -1.
    9900012    2    1    2    0    0 -0.86715208597E+00 -0.38858656539E+00 -0.70025660713E+00  0.90007613803E+02  0.89999873505E+02 0.  0.
        -12    1    1    2    0    0  0.86715208597E+00  0.38858656539E+00  0.70025660713E+00  0.11803861973E+01  0.00000000000E+00 0.  1.
         11    1    3    3    0    0 -0.21975593171E+02 -0.11252067609E+00 -0.32440991451E+02  0.39183635395E+02  0.51100000000E-03 0. -1.
        -11    1    3    3    0    0 -0.22629585816E+01  0.75339159530E+01 -0.28385233030E+01  0.83628993736E+01  0.51100000000E-03 0.  1.
        -12    1    3    3    0    0  0.23371399667E+02 -0.78099818423E+01  0.34579258147E+02  0.42461079035E+02  0.00000000000E+00 0.  1.
</event>
<event>
 7    1  0.2497665E-015  0.9000769E+02  0.7816164E-02  0.1186339E+00
        -11   -1    0    0    0    0  0.00000000000E+00  0.00000000000E+00  0.45593999997E+02  0.45594000000E+02  0.51100000000E-03 0. -1.
         11   -1    0    0    0    0 -0.00000000000E+00 -0.00000000000E+00 -0.45593999997E+02  0.45594000000E+02  0.51100000000E-03 0.  1.
    9900012    2    1    2    0    0  0.10016527537E+00  0.27211282557E+00  0.11441400382E+01  0.90007688643E+02  0.89999949333E+02 0.  0.
        -12    1    1    2    0    0 -0.10016527537E+00 -0.27211282557E+00 -0.11441400382E+01  0.11803113569E+01  0.00000000000E+00 0.  1.
         11    1    3    3    0    0  0.32990314058E+02  0.19131470877E+02  0.96865916766E+01  0.39347224275E+02  0.51100000000E-03 0. -1.
        -11    1    3    3    0    0 -0.10751440090E+01  0.52087887551E+01  0.61652934683E+01  0.81423742697E+01  0.51100000000E-03 0.  1.
        -12    1    3    3    0    0 -0.31815004774E+02 -0.24068146807E+02 -0.14707745107E+02  0.42518090098E+02  0.00000000000E+00 0.  1.
</event>
<event>
 7    1  0.2497665E-015  0.9000769E+02  0.7816164E-02  0.1186339E+00
        -11   -1    0    0    0    0  0.00000000000E+00  0.00000000000E+00  0.45593999997E+02  0.45594000000E+02  0.51100000000E-03 0. -1.
         11   -1    0    0    0    0 -0.00000000000E+00 -0.00000000000E+00 -0.45593999997E+02  0.45594000000E+02  0.51100000000E-03 0.  1.
    9900012    2    1    2    0    0 -0.56905412568E+00  0.47323555962E+00  0.91943328775E+00  0.90007689844E+02  0.89999950550E+02 0.  0.
        -12    1    1    2    0    0  0.56905412568E+00 -0.47323555962E+00 -0.91943328775E+00  0.11803101556E+01  0.00000000000E+00 0.  1.
         11    1    3    3    0    0 -0.10359658983E+01  0.10804352531E+01  0.14452879103E+01  0.20807265758E+01  0.51100000000E-03 0. -1.
        -11    1    3    3    0    0  0.25227419167E+02 -0.35882198990E+02 -0.67599353447E+01  0.44380757185E+02  0.51100000000E-03 0.  1.
         12    1    3    3    0    0 -0.24760507394E+02  0.35274999297E+02  0.62340807222E+01  0.43546206083E+02  0.00000000000E+00 0. -1.
</event>
<event>
 7    1  0.2497665E-015  0.9000773E+02  0.7816164E-02  0.1186339E+00
        -11   -1    0    0    0    0  0.00000000000E+00  0.00000000000E+00  0.45593999997E+02  0.45594000000E+02  0.51100000000E-03 0.  1.
         11   -1    0    0    0    0 -0.00000000000E+00 -0.00000000000E+00 -0.45593999997E+02  0.45594000000E+02  0.51100000000E-03 0. -1.
    9900012    2    1    2    0    0  0.10697662375E+01 -0.96545342732E-01 -0.48919127684E+00  0.90007733542E+02  0.89999994825E+02 0.  0.
        -12    1    1    2    0    0 -0.10697662375E+01  0.96545342732E-01  0.48919127684E+00  0.11802664578E+01  0.00000000000E+00 0.  1.
         11    1    3    3    0    0 -0.32422286242E+02  0.15306005736E+02  0.76828231697E+01  0.36667481900E+02  0.51100000000E-03 0. -1.
        -11    1    3    3    0    0 -0.60595259428E+01 -0.52799859453E+01  0.61013450042E+01  0.10090714413E+02  0.51100000000E-03 0.  1.
        -12    1    3    3    0    0  0.39551578423E+02 -0.10122565133E+02 -0.14273359451E+02  0.43249537230E+02  0.00000000000E+00 0.  1.
</event>
<event>
 7    1  0.2497665E-015  0.9000785E+02  0.7816164E-02  0.1186339E+00
        -11   -1    0    0    0    0  0.00000000000E+00  0.00000000000E+00  0.45593999997E+02  0.45594000000E+02  0.51100000000E-03 0.  1.
         11   -1    0    0    0    0 -0.00000000000E+00 -0.00000000000E+00 -0.45593999997E+02  0.45594000000E+02  0.51100000000E-03 0. -1.
    9900012    2    1    2    0    0 -0.10866077724E+01  0.44437225129E+00  0.12071718883E+00  0.90007849252E+02  0.90000112062E+02 0.  0.
        -12    1    1    2    0    0  0.10866077724E+01 -0.44437225129E+00 -0.12071718883E+00  0.11801507481E+01  0.00000000000E+00 0.  1.
         11    1    3    3    0    0 -0.24932354860E+02 -0.32604597229E+02 -0.50014322454E+01  0.41348475233E+02  0.51100000000E-03 0. -1.
        -11    1    3    3    0    0  0.25473131719E+01 -0.73272823978E+00 -0.65394893754E+01  0.70562466384E+01  0.51100000000E-03 0.  1.
        -12    1    3    3    0    0  0.21298433916E+02  0.33781697720E+02  0.11661638810E+02  0.41603127381E+02  0.00000000000E+00 0.  1.
</event>
<event>
 7    1  0.2497665E-015  0.9000771E+02  0.7816164E-02  0.1186339E+00
        -11   -1    0    0    0    0  0.00000000000E+00  0.00000000000E+00  0.45593999997E+02  0.45594000000E+02  0.51100000000E-03 0.  1.
         11   -1    0    0    0    0 -0.00000000000E+00 -0.00000000000E+00 -0.45593999997E+02  0.45594000000E+02  0.51100000000E-03 0. -1.
    9900012    2    1    2    0    0 -0.46452581440E+00  0.81775146842E+00 -0.71315780616E+00  0.90007705226E+02  0.89999966135E+02 0.  0.
        -12    1    1    2    0    0  0.46452581440E+00 -0.81775146842E+00  0.71315780616E+00  0.11802947737E+01  0.00000000000E+00 0.  1.
         11    1    3    3    0    0  0.27675996865E+02  0.11126150547E+02 -0.25401706015E+02  0.39179059422E+02  0.51100000000E-03 0. -1.
        -11    1    3    3    0    0 -0.69290863316E+01 -0.33889708013E+01 -0.80895515010E+01  0.11177575955E+02  0.51100000000E-03 0.  1.
        -12    1    3    3    0    0 -0.21211436348E+02 -0.69194282769E+01  0.32778099710E+02  0.39651069849E+02  0.00000000000E+00 0.  1.
</event>
<event>
 7    1  0.2497665E-015  0.9000774E+02  0.7816164E-02  0.1186339E+00
        -11   -1    0    0    0    0  0.00000000000E+00  0.00000000000E+00  0.45593999997E+02  0.45594000000E+02  0.51100000000E-03 0.  1.
         11   -1    0    0    0    0 -0.00000000000E+00 -0.00000000000E+00 -0.45593999997E+02  0.45594000000E+02  0.51100000000E-03 0. -1.
    9900012    2    1    2    0    0 -0.64745392671E+00  0.98010927335E+00 -0.11490488186E+00  0.90007739899E+02  0.90000001265E+02 0.  0.
        -12    1    1    2    0    0  0.64745392671E+00 -0.98010927335E+00  0.11490488186E+00  0.11802601013E+01  0.00000000000E+00 0.  1.
         11    1    3    3    0    0 -0.27772521070E+02  0.70284649261E-02 -0.21295944797E+02  0.34997574788E+02  0.51100000000E-03 0. -1.
        -11    1    3    3    0    0 -0.11786001344E+02  0.72888832242E+00  0.59590233150E+01  0.13226906857E+02  0.51100000000E-03 0.  1.
        -12    1    3    3    0    0  0.38911068488E+02  0.24419248600E+00  0.15222016600E+02  0.41783258253E+02  0.00000000000E+00 0.  1.
</event>
<event>
 7    1  0.2497665E-015  0.9000772E+02  0.7816164E-02  0.1186339E+00
        -11   -1    0    0    0    0  0.00000000000E+00  0.00000000000E+00  0.45593999997E+02  0.45594000000E+02  0.51100000000E-03 0. -1.
         11   -1    0    0    0    0 -0.00000000000E+00 -0.00000000000E+00 -0.45593999997E+02  0.45594000000E+02  0.51100000000E-03 0.  1.
    9900012    2    1    2    0    0  0.29674358686E+00 -0.89880509285E+00  0.70509005393E+00  0.90007720654E+02  0.89999981766E+02 0.  0.
        -12    1    1    2    0    0 -0.29674358686E+00  0.89880509285E+00 -0.70509005393E+00  0.11802793464E+01  0.00000000000E+00 0.  1.
         11    1    3    3    0    0  0.54120341694E+01  0.30286337247E+01 -0.90383113805E+01  0.10961469288E+02  0.51100000000E-03 0. -1.
        -11    1    3    3    0    0  0.33053823365E+02 -0.18151826414E+02  0.46756732331E+01  0.37998762633E+02  0.51100000000E-03 0.  1.
         12    1    3    3    0    0 -0.38169113948E+02  0.14224387596E+02  0.50677282012E+01  0.41047488732E+02  0.00000000000E+00 0. -1.
</event>
<event>
 7    1  0.2497665E-015  0.9000790E+02  0.7816164E-02  0.1186339E+00
        -11   -1    0    0    0    0  0.00000000000E+00  0.00000000000E+00  0.45593999997E+02  0.45594000000E+02  0.51100000000E-03 0. -1.
         11   -1    0    0    0    0 -0.00000000000E+00 -0.00000000000E+00 -0.45593999997E+02  0.45594000000E+02  0.51100000000E-03 0.  1.
    9900012    2    1    2    0    0  0.10337461372E+01 -0.17705882988E+00 -0.54097723872E+00  0.90007899463E+02  0.90000162935E+02 0.  0.
        -12    1    1    2    0    0 -0.10337461372E+01  0.17705882988E+00  0.54097723872E+00  0.11801005374E+01  0.00000000000E+00 0.  1.
         11    1    3    3    0    0  0.18606835057E+02 -0.26044139071E+02 -0.19312880828E+02  0.37383135996E+02  0.51100000000E-03 0. -1.
        -11    1    3    3    0    0 -0.45634965123E+01 -0.86005039174E+01 -0.25418653238E+01  0.10062566653E+02  0.51100000000E-03 0.  1.
        -12    1    3    3    0    0 -0.13009592407E+02  0.34467584159E+02  0.21313768913E+02  0.42562196814E+02  0.00000000000E+00 0.  1.
</event>
<event>
 7    1  0.2497665E-015  0.9000775E+02  0.7816164E-02  0.1186339E+00
        -11   -1    0    0    0    0  0.00000000000E+00  0.00000000000E+00  0.45593999997E+02  0.45594000000E+02  0.51100000000E-03 0.  1.
         11   -1    0    0    0    0 -0.00000000000E+00 -0.00000000000E+00 -0.45593999997E+02  0.45594000000E+02  0.51100000000E-03 0. -1.
    9900012    2    1    2    0    0  0.63619065438E+00  0.96401410402E+00 -0.24275554866E+00  0.90007749180E+02  0.90000010669E+02 0.  0.
        -12    1    1    2    0    0 -0.63619065438E+00 -0.96401410402E+00  0.24275554866E+00  0.11802508199E+01  0.00000000000E+00 0.  1.
         11    1    3    3    0    0 -0.17358272089E+02  0.25024009709E+02 -0.16327743085E+02  0.34555836936E+02  0.51100000000E-03 0. -1.
        -11    1    3    3    0    0 -0.43659158976E+01  0.24605589589E+01 -0.10574534863E+02  0.11701981022E+02  0.51100000000E-03 0.  1.
        -12    1    3    3    0    0  0.22360378641E+02 -0.26520554564E+02  0.26659522400E+02  0.43749931222E+02  0.00000000000E+00 0.  1.
</event>
<event>
 7    1  0.2497665E-015  0.9000773E+02  0.7816164E-02  0.1186339E+00
        -11   -1    0    0    0    0  0.00000000000E+00  0.00000000000E+00  0.45593999997E+02  0.45594000000E+02  0.51100000000E-03 0.  1.
         11   -1    0    0    0    0 -0.00000000000E+00 -0.00000000000E+00 -0.45593999997E+02  0.45594000000E+02  0.51100000000E-03 0. -1.
    9900012    2    1    2    0    0 -0.11163370075E+01  0.38289216782E+00 -0.15182727635E-01  0.90007726624E+02  0.89999987816E+02 0.  0.
        -12    1    1    2    0    0  0.11163370075E+01 -0.38289216782E+00  0.15182727635E-01  0.11802733758E+01  0.00000000000E+00 0.  1.
         11    1    3    3    0    0  0.25045971844E+02 -0.14011006860E+02 -0.99131576522E+01  0.30362472128E+02  0.51100000000E-03 0. -1.
        -11    1    3    3    0    0  0.43875313567E+01 -0.14381589942E+02  0.92867575774E+01  0.17672702884E+02  0.51100000000E-03 0.  1.
        -12    1    3    3    0    0 -0.30549840208E+02  0.28775488970E+02  0.61121734712E+00  0.41972551612E+02  0.00000000000E+00 0.  1.
</event>
<event>
 7    1  0.2497665E-015  0.9000730E+02  0.7816164E-02  0.1186340E+00
        -11   -1    0    0    0    0  0.00000000000E+00  0.00000000000E+00  0.45593999997E+02  0.45594000000E+02  0.51100000000E-03 0.  1.
         11   -1    0    0    0    0 -0.00000000000E+00 -0.00000000000E+00 -0.45593999997E+02  0.45594000000E+02  0.51100000000E-03 0. -1.
    9900012    2    1    2    0    0  0.99734096956E+00  0.25415540070E+00  0.57859243317E+00  0.90007299707E+02  0.89999555262E+02 0.  0.
        -12    1    1    2    0    0 -0.99734096956E+00 -0.25415540070E+00 -0.57859243317E+00  0.11807002926E+01  0.00000000000E+00 0.  1.
         11    1    3    3    0    0 -0.29949536636E+01 -0.50075866832E+01  0.66147081444E+01  0.88204328654E+01  0.51100000000E-03 0. -1.
        -11    1    3    3    0    0  0.10762287669E+02  0.30122430360E+02  0.25181136062E+02  0.40709670354E+02  0.51100000000E-03 0.  1.
         12    1    3    3    0    0 -0.67699930361E+01 -0.24860688276E+02 -0.31217251773E+02  0.40477196488E+02  0.00000000000E+00 0. -1.
</event>
<event>
 7    1  0.2497665E-015  0.9000772E+02  0.7816164E-02  0.1186339E+00
        -11   -1    0    0    0    0  0.00000000000E+00  0.00000000000E+00  0.45593999997E+02  0.45594000000E+02  0.51100000000E-03 0.  1.
         11   -1    0    0    0    0 -0.00000000000E+00 -0.00000000000E+00 -0.45593999997E+02  0.45594000000E+02  0.51100000000E-03 0. -1.
    9900012    2    1    2    0    0  0.19783054322E+00  0.78703360203E+00 -0.85702551805E+00  0.90007723950E+02  0.89999985107E+02 0.  0.
        -12    1    1    2    0    0 -0.19783054322E+00 -0.78703360203E+00  0.85702551805E+00  0.11802760495E+01  0.00000000000E+00 0.  1.
         11    1    3    3    0    0 -0.62436346870E+01 -0.40547187999E+02  0.21258954506E+01  0.41080127318E+02  0.51100000000E-03 0. -1.
        -11    1    3    3    0    0  0.52622072559E+01 -0.55404360892E-01 -0.52836970370E+01  0.74573017565E+01  0.51100000000E-03 0.  1.
        -12    1    3    3    0    0  0.11792579743E+01  0.41389625962E+02  0.23007760684E+01  0.41470294876E+02  0.00000000000E+00 0.  1.
</event>
<event>
 7    1  0.2497665E-015  0.9000777E+02  0.7816164E-02  0.1186339E+00
        -11   -1    0    0    0    0  0.00000000000E+00  0.00000000000E+00  0.45593999997E+02  0.45594000000E+02  0.51100000000E-03 0. -1.
         11   -1    0    0    0    0 -0.00000000000E+00 -0.00000000000E+00 -0.45593999997E+02  0.45594000000E+02  0.51100000000E-03 0.  1.
    9900012    2    1    2    0    0  0.36962964059E+00 -0.10178897336E+01 -0.46927784462E+00  0.90007768126E+02  0.90000029865E+02 0.  0.
        -12    1    1    2    0    0 -0.36962964059E+00  0.10178897336E+01  0.46927784462E+00  0.11802318740E+01  0.00000000000E+00 0.  1.
         11    1    3    3    0    0 -0.10811651010E+02 -0.86610206832E+01 -0.35267984896E+00  0.13857469472E+02  0.51100000000E-03 0. -1.
        -11    1    3    3    0    0 -0.30101833146E+02  0.88014536526E+01 -0.11346131391E+02  0.33351471376E+02  0.51100000000E-03 0.  1.
         12    1    3    3    0    0  0.41283113796E+02 -0.11583227031E+01  0.11229533395E+02  0.42798827279E+02  0.00000000000E+00 0. -1.
</event>
<event>
 7    1  0.2497665E-015  0.9000796E+02  0.7816164E-02  0.1186339E+00
        -11   -1    0    0    0    0  0.00000000000E+00  0.00000000000E+00  0.45593999997E+02  0.45594000000E+02  0.51100000000E-03 0. -1.
         11   -1    0    0    0    0 -0.00000000000E+00 -0.00000000000E+00 -0.45593999997E+02  0.45594000000E+02  0.51100000000E-03 0.  1.
    9900012    2    1    2    0    0  0.66075152254E+00  0.89919392617E+00 -0.38387076576E+00  0.90007958028E+02  0.90000222273E+02 0.  0.
        -12    1    1    2    0    0 -0.66075152254E+00 -0.89919392617E+00  0.38387076576E+00  0.11800419722E+01  0.00000000000E+00 0.  1.
         11    1    3    3    0    0  0.27457787274E+02  0.16884868864E+02  0.16817926092E+02  0.36357551029E+02  0.51100000000E-03 0. -1.
        -11    1    3    3    0    0  0.81156704487E+01  0.54352490297E+01 -0.20713114997E+01  0.99848069805E+01  0.51100000000E-03 0.  1.
        -12    1    3    3    0    0 -0.34912706200E+02 -0.21420923967E+02 -0.15130485358E+02  0.43665600019E+02  0.00000000000E+00 0.  1.
</event>
<event>
 7    1  0.2497665E-015  0.9000766E+02  0.7816164E-02  0.1186339E+00
        -11   -1    0    0    0    0  0.00000000000E+00  0.00000000000E+00  0.45593999997E+02  0.45594000000E+02  0.51100000000E-03 0.  1.
         11   -1    0    0    0    0 -0.00000000000E+00 -0.00000000000E+00 -0.45593999997E+02  0.45594000000E+02  0.51100000000E-03 0. -1.
    9900012    2    1    2    0    0 -0.34838846572E+00 -0.10605673653E+01 -0.38343428017E+00  0.90007661275E+02  0.89999921603E+02 0.  0.
        -12    1    1    2    0    0  0.34838846572E+00  0.10605673653E+01  0.38343428017E+00  0.11803387254E+01  0.00000000000E+00 0.  1.
         11    1    3    3    0    0  0.28070707947E+02  0.58606714283E+01 -0.28819888447E+02  0.40655849328E+02  0.51100000000E-03 0. -1.
        -11    1    3    3    0    0 -0.74679366748E+01 -0.27971996220E+01 -0.51926565379E+01  0.95162012424E+01  0.51100000000E-03 0.  1.
        -12    1    3    3    0    0 -0.20951159737E+02 -0.41240391716E+01  0.33629110704E+02  0.39835610705E+02  0.00000000000E+00 0.  1.
</event>
<event>
 7    1  0.2497665E-015  0.9000772E+02  0.7816164E-02  0.1186339E+00
        -11   -1    0    0    0    0  0.00000000000E+00  0.00000000000E+00  0.45593999997E+02  0.45594000000E+02  0.51100000000E-03 0. -1.
         11   -1    0    0    0    0 -0.00000000000E+00 -0.00000000000E+00 -0.45593999997E+02  0.45594000000E+02  0.51100000000E-03 0.  1.
    9900012    2    1    2    0    0 -0.94972868911E+00 -0.65497526914E+00 -0.24914669853E+00  0.90007724073E+02  0.89999985231E+02 0.  0.
        -12    1    1    2    0    0  0.94972868911E+00  0.65497526914E+00  0.24914669853E+00  0.11802759268E+01  0.00000000000E+00 0.  1.
         11    1    3    3    0    0  0.11149520969E+02  0.25046961331E+01 -0.10851876660E+02  0.15759078268E+02  0.51100000000E-03 0. -1.
        -11    1    3    3    0    0 -0.14795359516E+02  0.37117201708E+01 -0.29639870401E+02  0.33334688352E+02  0.51100000000E-03 0.  1.
         12    1    3    3    0    0  0.26961098586E+01 -0.68713915730E+01  0.40242600363E+02  0.40913957453E+02  0.00000000000E+00 0. -1.
</event>
<event>
 7    1  0.2497665E-015  0.9000816E+02  0.7816164E-02  0.1186338E+00
        -11   -1    0    0    0    0  0.00000000000E+00  0.00000000000E+00  0.45593999997E+02  0.45594000000E+02  0.51100000000E-03 0.  1.
         11   -1    0    0    0    0 -0.00000000000E+00 -0.00000000000E+00 -0.45593999997E+02  0.45594000000E+02  0.51100000000E-03 0. -1.
    9900012    2    1    2    0    0  0.28969718913E+00 -0.11436794994E+01  0.10102662683E-01  0.90008157077E+02  0.90000423950E+02 0.  0.
        -12    1    1    2    0    0 -0.28969718913E+00  0.11436794994E+01 -0.10102662683E-01  0.11798429228E+01  0.00000000000E+00 0.  1.
         11    1    3    3    0    0 -0.95010706737E+00 -0.21993073804E+02  0.55903210916E+01  0.22712324605E+02  0.51100000000E-03 0. -1.
        -11    1    3    3    0    0 -0.15591365324E+02 -0.18532460463E+02 -0.27577208715E+01  0.24375146936E+02  0.51100000000E-03 0.  1.
         12    1    3    3    0    0  0.16831169581E+02  0.39381854768E+02 -0.28224975574E+01  0.42920685536E+02  0.00000000000E+00 0. -1.
</event>
<event>
 7    1  0.2497665E-015  0.9000772E+02  0.7816164E-02  0.1186339E+00
        -11   -1    0    0    0    0  0.00000000000E+00  0.00000000000E+00  0.45593999997E+02  0.45594000000E+02  0.51100000000E-03 0.  1.
         11   -1    0    0    0    0 -0.00000000000E+00 -0.00000000000E+00 -0.45593999997E+02  0.45594000000E+02  0.51100000000E-03 0. -1.
    9900012    2    1    2    0    0  0.46820747428E+00 -0.94416358950E+00  0.53140537284E+00  0.90007722578E+02  0.89999983716E+02 0.  0.
        -12    1    1    2    0    0 -0.46820747428E+00  0.94416358950E+00 -0.53140537284E+00  0.11802774220E+01  0.00000000000E+00 0.  1.
         11    1    3    3    0    0 -0.39659084324E+02  0.73600354624E+01 -0.13020082289E+02  0.42385559269E+02  0.51100000000E-03 0. -1.
        -11    1    3    3    0    0  0.86760580847E+01  0.17441925126E+00 -0.51206467100E+01  0.10075982779E+02  0.51100000000E-03 0.  1.
        -12    1    3    3    0    0  0.31451233714E+02 -0.84786183032E+01  0.18672134372E+02  0.37546180531E+02  0.00000000000E+00 0.  1.
</event>
<event>
 7    1  0.2497665E-015  0.9000770E+02  0.7816164E-02  0.1186339E+00
        -11   -1    0    0    0    0  0.00000000000E+00  0.00000000000E+00  0.45593999997E+02  0.45594000000E+02  0.51100000000E-03 0.  1.
         11   -1    0    0    0    0 -0.00000000000E+00 -0.00000000000E+00 -0.45593999997E+02  0.45594000000E+02  0.51100000000E-03 0. -1.
    9900012    2    1    2    0    0 -0.53222437742E+00  0.83612333821E-01 -0.10501699667E+01  0.90007698865E+02  0.89999959690E+02 0.  0.
        -12    1    1    2    0    0  0.53222437742E+00 -0.83612333821E-01  0.10501699667E+01  0.11803011350E+01  0.00000000000E+00 0.  1.
         11    1    3    3    0    0  0.25817231056E+02 -0.13997151153E+02 -0.33215739846E+02  0.44336610533E+02  0.51100000000E-03 0. -1.
        -11    1    3    3    0    0 -0.86457704529E+01  0.75577337437E+00  0.33077540988E+01  0.92877218712E+01  0.51100000000E-03 0.  1.
        -12    1    3    3    0    0 -0.17703684980E+02  0.13324990112E+02  0.28857815781E+02  0.36383366461E+02  0.00000000000E+00 0.  1.
</event>
<event>
 7    1  0.2497665E-015  0.9000783E+02  0.7816164E-02  0.1186339E+00
        -11   -1    0    0    0    0  0.00000000000E+00  0.00000000000E+00  0.45593999997E+02  0.45594000000E+02  0.51100000000E-03 0.  1.
         11   -1    0    0    0    0 -0.00000000000E+00 -0.00000000000E+00 -0.45593999997E+02  0.45594000000E+02  0.51100000000E-03 0. -1.
    9900012    2    1    2    0    0  0.32993379772E+00  0.98057491723E+00  0.56782685114E+00  0.90007825940E+02  0.90000088442E+02 0.  0.
        -12    1    1    2    0    0 -0.32993379772E+00 -0.98057491723E+00 -0.56782685114E+00  0.11801740601E+01  0.00000000000E+00 0.  1.
         11    1    3    3    0    0 -0.37851358143E+01  0.69733388637E+01 -0.60085802554E+01  0.99527757428E+01  0.51100000000E-03 0. -1.
        -11    1    3    3    0    0  0.18586930987E+02  0.33128638631E+02  0.49859420856E+01  0.38312404255E+02  0.51100000000E-03 0.  1.
         12    1    3    3    0    0 -0.14471861375E+02 -0.39121402577E+02  0.15904650209E+01  0.41742645942E+02  0.00000000000E+00 0. -1.
</event>
<event>
 7    1  0.2497665E-015  0.9000783E+02  0.7816164E-02  0.1186339E+00
        -11   -1    0    0    0    0  0.00000000000E+00  0.00000000000E+00  0.45593999997E+02  0.45594000000E+02  0.51100000000E-03 0.  1.
         11   -1    0    0    0    0 -0.00000000000E+00 -0.00000000000E+00 -0.45593999997E+02  0.45594000000E+02  0.51100000000E-03 0. -1.
    9900012    2    1    2    0    0  0.53993796956E+00 -0.22633895114E+00 -0.10247093286E+01  0.90007834105E+02  0.90000096715E+02 0.  0.
        -12    1    1    2    0    0 -0.53993796956E+00  0.22633895114E+00  0.10247093286E+01  0.11801658951E+01  0.00000000000E+00 0.  1.
         11    1    3    3    0    0  0.25294027463E+02  0.24083939290E+02 -0.23882976042E+02  0.42310997411E+02  0.51100000000E-03 0. -1.
        -11    1    3    3    0    0 -0.61993618836E+01  0.43322476391E+01  0.25358337915E+01  0.79768985609E+01  0.51100000000E-03 0.  1.
        -12    1    3    3    0    0 -0.18554727610E+02 -0.28642525880E+02  0.20322432922E+02  0.39719938133E+02  0.00000000000E+00 0.  1.
</event>
<event>
 7    1  0.2497665E-015  0.9000766E+02  0.7816164E-02  0.1186339E+00
        -11   -1    0    0    0    0  0.00000000000E+00  0.00000000000E+00  0.45593999997E+02  0.45594000000E+02  0.51100000000E-03 0.  1.
         11   -1    0    0    0    0 -0.00000000000E+00 -0.00000000000E+00 -0.45593999997E+02  0.45594000000E+02  0.51100000000E-03 0. -1.
    9900012    2    1    2    0    0  0.10400418931E+01  0.55483135792E+00 -0.60714765141E-01  0.90007656297E+02  0.89999916560E+02 0.  0.
        -12    1    1    2    0    0 -0.10400418931E+01 -0.55483135792E+00  0.60714765141E-01  0.11803437033E+01  0.00000000000E+00 0.  1.
         11    1    3    3    0    0  0.16127033499E+02  0.30076561040E+02 -0.13212082087E+02  0.36595626061E+02  0.51100000000E-03 0. -1.
        -11    1    3    3    0    0  0.11651123683E+02  0.11967286772E+00  0.49473140630E+01  0.12658551314E+02  0.51100000000E-03 0.  1.
        -12    1    3    3    0    0 -0.26738115289E+02 -0.29641402549E+02  0.82040532590E+01  0.40753478921E+02  0.00000000000E+00 0.  1.
</event>
<event>
 7    1  0.2497665E-015  0.9000807E+02  0.7816164E-02  0.1186338E+00
        -11   -1    0    0    0    0  0.00000000000E+00  0.00000000000E+00  0.45593999997E+02  0.45594000000E+02  0.51100000000E-03 0. -1.
         11   -1    0    0    0    0 -0.00000000000E+00 -0.00000000000E+00 -0.45593999997E+02  0.45594000000E+02  0.51100000000E-03 0.  1.
    9900012    2    1    2    0    0 -0.16084223952E+00 -0.69383569221E+00 -0.94072474488E+00  0.90008067273E+02  0.90000332961E+02 0.  0.
        -12    1    1    2    0    0  0.16084223952E+00  0.69383569221E+00  0.94072474488E+00  0.11799327267E+01  0.00000000000E+00 0.  1.
         11    1    3    3    0    0  0.12271680061E+02 -0.57377559200E+01 -0.99915700324E+00  0.13583603700E+02  0.51100000000E-03 0. -1.
        -11    1    3    3    0    0  0.28476279861E+02  0.14829570827E+02  0.91614089659E+01  0.33387813647E+02  0.51100000000E-03 0.  1.
         12    1    3    3    0    0 -0.40908802161E+02 -0.97856505993E+01 -0.91029767076E+01  0.43036649926E+02  0.00000000000E+00 0. -1.
</event>
<event>
 7    1  0.2497665E-015  0.9000780E+02  0.7816164E-02  0.1186339E+00
        -11   -1    0    0    0    0  0.00000000000E+00  0.00000000000E+00  0.45593999997E+02  0.45594000000E+02  0.51100000000E-03 0.  1.
         11   -1    0    0    0    0 -0.00000000000E+00 -0.00000000000E+00 -0.45593999997E+02  0.45594000000E+02  0.51100000000E-03 0. -1.
    9900012    2    1    2    0    0  0.64482362758E+00 -0.98414721309E+00 -0.92296463675E-01  0.90007804302E+02  0.90000066519E+02 0.  0.
        -12    1    1    2    0    0 -0.64482362758E+00  0.98414721309E+00  0.92296463675E-01  0.11801956977E+01  0.00000000000E+00 0.  1.
         11    1    3    3    0    0 -0.27617827076E+01 -0.91045535138E+01 -0.21397152527E+02  0.23417055215E+02  0.51100000000E-03 0. -1.
        -11    1    3    3    0    0 -0.23867155781E+00 -0.27321363494E+02  0.11446793063E+02  0.29623351245E+02  0.51100000000E-03 0.  1.
         12    1    3    3    0    0  0.36452778930E+01  0.35441769795E+02  0.98580630002E+01  0.36967397842E+02  0.00000000000E+00 0. -1.
</event>
<event>
 7    1  0.2497665E-015  0.9000765E+02  0.7816164E-02  0.1186339E+00
        -11   -1    0    0    0    0  0.00000000000E+00  0.00000000000E+00  0.45593999997E+02  0.45594000000E+02  0.51100000000E-03 0.  1.
         11   -1    0    0    0    0 -0.00000000000E+00 -0.00000000000E+00 -0.45593999997E+02  0.45594000000E+02  0.51100000000E-03 0. -1.
    9900012    2    1    2    0    0 -0.88026486511E+00 -0.72916162944E+00 -0.29443069675E+00  0.90007647362E+02  0.89999907507E+02 0.  0.
        -12    1    1    2    0    0  0.88026486511E+00  0.72916162944E+00  0.29443069675E+00  0.11803526379E+01  0.00000000000E+00 0.  1.
         11    1    3    3    0    0 -0.61879113964E+01  0.20575565694E+01 -0.32193599583E+01  0.72724181184E+01  0.51100000000E-03 0. -1.
        -11    1    3    3    0    0  0.19129420026E+01  0.38771604855E+02  0.10818071937E+02  0.40297982218E+02  0.51100000000E-03 0.  1.
         12    1    3    3    0    0  0.33947045288E+01 -0.41558323053E+02 -0.78931426758E+01  0.42437247026E+02  0.00000000000E+00 0. -1.
</event>
<event>
 7    1  0.2497665E-015  0.9000773E+02  0.7816164E-02  0.1186339E+00
        -11   -1    0    0    0    0  0.00000000000E+00  0.00000000000E+00  0.45593999997E+02  0.45594000000E+02  0.51100000000E-03 0. -1.
         11   -1    0    0    0    0 -0.00000000000E+00 -0.00000000000E+00 -0.45593999997E+02  0.45594000000E+02  0.51100000000E-03 0.  1.
    9900012    2    1    2    0    0  0.10286971051E+01  0.56892299674E+00  0.10556118609E+00  0.90007731270E+02  0.89999992523E+02 0.  0.
        -12    1    1    2    0    0 -0.10286971051E+01 -0.56892299674E+00 -0.10556118609E+00  0.11802687297E+01  0.00000000000E+00 0.  1.
         11    1    3    3    0    0  0.35776079943E+02 -0.58592132292E+01 -0.54478450753E+01  0.36659750299E+02  0.51100000000E-03 0. -1.
        -11    1    3    3    0    0  0.45673540123E+01 -0.62660039592E+01  0.90138009543E+01  0.11890001522E+02  0.51100000000E-03 0.  1.
        -12    1    3    3    0    0 -0.39314736850E+02  0.12694140185E+02 -0.34603946929E+01  0.41457979450E+02  0.00000000000E+00 0.  1.
</event>
<event>
 7    1  0.2497665E-015  0.9000775E+02  0.7816164E-02  0.1186339E+00
        -11   -1    0    0    0    0  0.00000000000E+00  0.00000000000E+00  0.45593999997E+02  0.45594000000E+02  0.51100000000E-03 0.  1.
         11   -1    0    0    0    0 -0.00000000000E+00 -0.00000000000E+00 -0.45593999997E+02  0.45594000000E+02  0.51100000000E-03 0. -1.
    9900012    2    1    2    0    0 -0.36132117570E+00 -0.79159025408E+00 -0.79737724964E+00  0.90007754856E+02  0.90000016420E+02 0.  0.
        -12    1    1    2    0    0  0.36132117570E+00  0.79159025408E+00  0.79737724964E+00  0.11802451443E+01  0.00000000000E+00 0.  1.
         11    1    3    3    0    0  0.15169468675E+02 -0.30826270288E+01 -0.15077141824E+02  0.21608692120E+02  0.51100000000E-03 0. -1.
        -11    1    3    3    0    0  0.15087057666E+02 -0.20217141943E+02 -0.51082074897E+01  0.25738024815E+02  0.51100000000E-03 0.  1.
        -12    1    3    3    0    0 -0.30617847516E+02  0.22508178718E+02  0.19387972065E+02  0.42661037921E+02  0.00000000000E+00 0.  1.
</event>
<event>
 7    1  0.2497665E-015  0.9000766E+02  0.7816164E-02  0.1186339E+00
        -11   -1    0    0    0    0  0.00000000000E+00  0.00000000000E+00  0.45593999997E+02  0.45594000000E+02  0.51100000000E-03 0.  1.
         11   -1    0    0    0    0 -0.00000000000E+00 -0.00000000000E+00 -0.45593999997E+02  0.45594000000E+02  0.51100000000E-03 0. -1.
    9900012    2    1    2    0    0  0.39918629075E+00 -0.29547441720E+00 -0.10707669209E+01  0.90007662495E+02  0.89999922840E+02 0.  0.
        -12    1    1    2    0    0 -0.39918629075E+00  0.29547441720E+00  0.10707669209E+01  0.11803375047E+01  0.00000000000E+00 0.  1.
         11    1    3    3    0    0  0.26236975081E+02  0.16003145766E+01 -0.23120552492E+02  0.35007139500E+02  0.51100000000E-03 0. -1.
        -11    1    3    3    0    0  0.10415888477E+02  0.47410625186E+01 -0.10683680801E+01  0.11493903480E+02  0.51100000000E-03 0.  1.
        -12    1    3    3    0    0 -0.36253677268E+02 -0.66368515123E+01  0.23118153651E+02  0.43506619516E+02  0.00000000000E+00 0.  1.
</event>
<event>
 7    1  0.2497665E-015  0.9000783E+02  0.7816164E-02  0.1186339E+00
        -11   -1    0    0    0    0  0.00000000000E+00  0.00000000000E+00  0.45593999997E+02  0.45594000000E+02  0.51100000000E-03 0. -1.
         11   -1    0    0    0    0 -0.00000000000E+00 -0.00000000000E+00 -0.45593999997E+02  0.45594000000E+02  0.51100000000E-03 0.  1.
    9900012    2    1    2    0    0  0.52606009063E+00 -0.43301240937E+00  0.96361998641E+00  0.90007829485E+02  0.90000092034E+02 0.  0.
        -12    1    1    2    0    0 -0.52606009063E+00  0.43301240937E+00 -0.96361998641E+00  0.11801705147E+01  0.00000000000E+00 0.  1.
         11    1    3    3    0    0  0.16313322351E+01  0.78212379307E+01 -0.13558842227E+01  0.81037910830E+01  0.51100000000E-03 0. -1.
        -11    1    3    3    0    0  0.23520135017E+01  0.26543593031E+02 -0.25755022722E+02  0.37059620804E+02  0.51100000000E-03 0.  1.
         12    1    3    3    0    0 -0.34572856462E+01 -0.34797843371E+02  0.28074526931E+02  0.44844417598E+02  0.00000000000E+00 0. -1.
</event>
<event>
 7    1  0.2497665E-015  0.9000777E+02  0.7816164E-02  0.1186339E+00
        -11   -1    0    0    0    0  0.00000000000E+00  0.00000000000E+00  0.45593999997E+02  0.45594000000E+02  0.51100000000E-03 0.  1.
         11   -1    0    0    0    0 -0.00000000000E+00 -0.00000000000E+00 -0.45593999997E+02  0.45594000000E+02  0.51100000000E-03 0. -1.
    9900012    2    1    2    0    0  0.81436707740E+00 -0.56266763093E+00 -0.64277530299E+00  0.90007767527E+02  0.90000029259E+02 0.  0.
        -12    1    1    2    0    0 -0.81436707740E+00  0.56266763093E+00  0.64277530299E+00  0.11802324728E+01  0.00000000000E+00 0.  1.
         11    1    3    3    0    0 -0.27451959790E+02 -0.10553624300E+02 -0.30887504089E+02  0.42650052653E+02  0.51100000000E-03 0. -1.
        -11    1    3    3    0    0  0.74086231099E+01  0.43120247542E+01 -0.17459909196E+01  0.87481277093E+01  0.51100000000E-03 0.  1.
        -12    1    3    3    0    0  0.20857703758E+02  0.56789319147E+01  0.31990719706E+02  0.38609587165E+02  0.00000000000E+00 0.  1.
</event>
<event>
 7    1  0.2497665E-015  0.9000789E+02  0.7816164E-02  0.1186339E+00
        -11   -1    0    0    0    0  0.00000000000E+00  0.00000000000E+00  0.45593999997E+02  0.45594000000E+02  0.51100000000E-03 0.  1.
         11   -1    0    0    0    0 -0.00000000000E+00 -0.00000000000E+00 -0.45593999997E+02  0.45594000000E+02  0.51100000000E-03 0. -1.
    9900012    2    1    2    0    0 -0.70386448695E+00  0.43746042214E+00 -0.84015001361E+00  0.90007894546E+02  0.90000157954E+02 0.  0.
        -12    1    1    2    0    0  0.70386448695E+00 -0.43746042214E+00  0.84015001361E+00  0.11801054539E+01  0.00000000000E+00 0.  1.
         11    1    3    3    0    0  0.27843753421E+01  0.66490805820E+01 -0.57371810252E+01  0.92129400850E+01  0.51100000000E-03 0. -1.
        -11    1    3    3    0    0  0.31821730510E+02 -0.16435761210E+02  0.20036316477E+02  0.41039136900E+02  0.51100000000E-03 0.  1.
         12    1    3    3    0    0 -0.35309970339E+02  0.10224141050E+02 -0.15139285466E+02  0.39755817562E+02  0.00000000000E+00 0. -1.
</event>
<event>
 7    1  0.2497665E-015  0.9000757E+02  0.7816164E-02  0.1186339E+00
        -11   -1    0    0    0    0  0.00000000000E+00  0.00000000000E+00  0.45593999997E+02  0.45594000000E+02  0.51100000000E-03 0.  1.
         11   -1    0    0    0    0 -0.00000000000E+00 -0.00000000000E+00 -0.45593999997E+02  0.45594000000E+02  0.51100000000E-03 0. -1.
    9900012    2    1    2    0    0  0.82419974811E+00 -0.82239816193E+00 -0.19432926002E+00  0.90007573034E+02  0.89999832198E+02 0.  0.
        -12    1    1    2    0    0 -0.82419974811E+00  0.82239816193E+00  0.19432926002E+00  0.11804269663E+01  0.00000000000E+00 0.  1.
         11    1    3    3    0    0 -0.21289777832E+02 -0.34415489690E+01 -0.30469076731E+02  0.37329124508E+02  0.51100000000E-03 0. -1.
        -11    1    3    3    0    0 -0.57612303296E+01  0.48146378492E+01 -0.39498673051E+01  0.84837470801E+01  0.51100000000E-03 0.  1.
        -12    1    3    3    0    0  0.27875207909E+02 -0.21954870422E+01  0.34224614776E+02  0.44194701446E+02  0.00000000000E+00 0.  1.
</event>
<event>
 7    1  0.2497665E-015  0.9000830E+02  0.7816164E-02  0.1186338E+00
        -11   -1    0    0    0    0  0.00000000000E+00  0.00000000000E+00  0.45593999997E+02  0.45594000000E+02  0.51100000000E-03 0.  1.
         11   -1    0    0    0    0 -0.00000000000E+00 -0.00000000000E+00 -0.45593999997E+02  0.45594000000E+02  0.51100000000E-03 0. -1.
    9900012    2    1    2    0    0 -0.49031673503E+00 -0.10724564621E+01  0.33551070508E-01  0.90008297055E+02  0.90000565774E+02 0.  0.
        -12    1    1    2    0    0  0.49031673503E+00  0.10724564621E+01 -0.33551070508E-01  0.11797029449E+01  0.00000000000E+00 0.  1.
         11    1    3    3    0    0  0.26988360215E+02  0.54637910791E+01  0.28304126559E+02  0.39488582914E+02  0.51100000000E-03 0. -1.
        -11    1    3    3    0    0 -0.74721012005E+01 -0.15363637556E+01  0.65474676370E+01  0.10052961885E+02  0.51100000000E-03 0.  1.
        -12    1    3    3    0    0 -0.20006575749E+02 -0.49998837856E+01 -0.34818043125E+02  0.40466752256E+02  0.00000000000E+00 0.  1.
</event>
<event>
 7    1  0.2497665E-015  0.9000782E+02  0.7816164E-02  0.1186339E+00
        -11   -1    0    0    0    0  0.00000000000E+00  0.00000000000E+00  0.45593999997E+02  0.45594000000E+02  0.51100000000E-03 0.  1.
         11   -1    0    0    0    0 -0.00000000000E+00 -0.00000000000E+00 -0.45593999997E+02  0.45594000000E+02  0.51100000000E-03 0. -1.
    9900012    2    1    2    0    0 -0.89248049920E+00 -0.26741449623E+00 -0.72442624149E+00  0.90007819788E+02  0.90000082209E+02 0.  0.
        -12    1    1    2    0    0  0.89248049920E+00  0.26741449623E+00  0.72442624149E+00  0.11801802123E+01  0.00000000000E+00 0.  1.
         11    1    3    3    0    0 -0.38864191164E+02  0.15803133377E+02 -0.32486856842E+01  0.42079904209E+02  0.51100000000E-03 0. -1.
        -11    1    3    3    0    0  0.66808523206E+01 -0.45107438290E+01 -0.95089968120E+01  0.12466018541E+02  0.51100000000E-03 0.  1.
        -12    1    3    3    0    0  0.31290858344E+02 -0.11559804044E+02  0.12033256255E+02  0.35461897038E+02  0.00000000000E+00 0.  1.
</event>
<event>
 7    1  0.2497665E-015  0.9000776E+02  0.7816164E-02  0.1186339E+00
        -11   -1    0    0    0    0  0.00000000000E+00  0.00000000000E+00  0.45593999997E+02  0.45594000000E+02  0.51100000000E-03 0.  1.
         11   -1    0    0    0    0 -0.00000000000E+00 -0.00000000000E+00 -0.45593999997E+02  0.45594000000E+02  0.51100000000E-03 0. -1.
    9900012    2    1    2    0    0  0.75216971941E+00  0.73340492910E+00 -0.53789424706E+00  0.90007757526E+02  0.90000019125E+02 0.  0.
        -12    1    1    2    0    0 -0.75216971941E+00 -0.73340492910E+00  0.53789424706E+00  0.11802424742E+01  0.00000000000E+00 0.  1.
         11    1    3    3    0    0  0.30706792416E+02 -0.24199869459E+02 -0.15987105782E+02  0.42238943333E+02  0.51100000000E-03 0. -1.
        -11    1    3    3    0    0 -0.74109208910E+01  0.15615590347E+02 -0.25251512751E+01  0.17468394304E+02  0.51100000000E-03 0.  1.
        -12    1    3    3    0    0 -0.22543701806E+02  0.93176840408E+01  0.17974362810E+02  0.30300419889E+02  0.00000000000E+00 0.  1.
</event>
<event>
 7    1  0.2497665E-015  0.9000776E+02  0.7816164E-02  0.1186339E+00
        -11   -1    0    0    0    0  0.00000000000E+00  0.00000000000E+00  0.45593999997E+02  0.45594000000E+02  0.51100000000E-03 0. -1.
         11   -1    0    0    0    0 -0.00000000000E+00 -0.00000000000E+00 -0.45593999997E+02  0.45594000000E+02  0.51100000000E-03 0.  1.
    9900012    2    1    2    0    0  0.11316377208E+01 -0.44794276375E-01  0.33219371040E+00  0.90007761414E+02  0.90000023065E+02 0.  0.
        -12    1    1    2    0    0 -0.11316377208E+01  0.44794276375E-01 -0.33219371040E+00  0.11802385859E+01  0.00000000000E+00 0.  1.
         11    1    3    3    0    0 -0.19109294913E+01 -0.41938393500E+01 -0.90300710121E+01  0.10138151841E+02  0.51100000000E-03 0. -1.
        -11    1    3    3    0    0 -0.85891350029E+01 -0.18044074410E+02 -0.28293429306E+02  0.34639284109E+02  0.51100000000E-03 0.  1.
         12    1    3    3    0    0  0.11631702215E+02  0.22193119484E+02  0.37655694028E+02  0.45230325464E+02  0.00000000000E+00 0. -1.
</event>
<event>
 7    1  0.2497665E-015  0.9000774E+02  0.7816164E-02  0.1186339E+00
        -11   -1    0    0    0    0  0.00000000000E+00  0.00000000000E+00  0.45593999997E+02  0.45594000000E+02  0.51100000000E-03 0. -1.
         11   -1    0    0    0    0 -0.00000000000E+00 -0.00000000000E+00 -0.45593999997E+02  0.45594000000E+02  0.51100000000E-03 0.  1.
    9900012    2    1    2    0    0 -0.36718525278E-01 -0.82003544656E+00  0.84806640949E+00  0.90007736039E+02  0.89999997354E+02 0.  0.
        -12    1    1    2    0    0  0.36718525278E-01  0.82003544656E+00 -0.84806640949E+00  0.11802639614E+01  0.00000000000E+00 0.  1.
         11    1    3    3    0    0  0.85966135910E+01  0.22935247353E+00 -0.61441031863E+01  0.10569028906E+02  0.51100000000E-03 0. -1.
        -11    1    3    3    0    0 -0.18065554523E+02  0.35836721181E+02 -0.24663204724E+01  0.40208426755E+02  0.51100000000E-03 0.  1.
         12    1    3    3    0    0  0.94322224067E+01 -0.36886109101E+02  0.94584900682E+01  0.39230280377E+02  0.00000000000E+00 0. -1.
</event>
<event>
 7    1  0.2497665E-015  0.9000810E+02  0.7816164E-02  0.1186338E+00
        -11   -1    0    0    0    0  0.00000000000E+00  0.00000000000E+00  0.45593999997E+02  0.45594000000E+02  0.51100000000E-03 0.  1.
         11   -1    0    0    0    0 -0.00000000000E+00 -0.00000000000E+00 -0.45593999997E+02  0.45594000000E+02  0.51100000000E-03 0. -1.
    9900012    2    1    2    0    0  0.11704074338E+01  0.18293330888E-01 -0.14823842893E+00  0.90008100496E+02  0.90000366622E+02 0.  0.
        -12    1    1    2    0    0 -0.11704074338E+01 -0.18293330888E-01  0.14823842893E+00  0.11798995037E+01  0.00000000000E+00 0.  1.
         11    1    3    3    0    0  0.11410445152E+02  0.99353216598E+01 -0.77162798678E+01  0.16983811419E+02  0.51100000000E-03 0. -1.
        -11    1    3    3    0    0  0.23733096259E+02 -0.17543737438E+02  0.20442321718E+02  0.35901686573E+02  0.51100000000E-03 0.  1.
         12    1    3    3    0    0 -0.33973133977E+02  0.76267091088E+01 -0.12874280279E+02  0.37122602505E+02  0.00000000000E+00 0. -1.
</event>
<event>
 7    1  0.2497665E-015  0.9000759E+02  0.7816164E-02  0.1186339E+00
        -11   -1    0    0    0    0  0.00000000000E+00  0.00000000000E+00  0.45593999997E+02  0.45594000000E+02  0.51100000000E-03 0.  1.
         11   -1    0    0    0    0 -0.00000000000E+00 -0.00000000000E+00 -0.45593999997E+02  0.45594000000E+02  0.51100000000E-03 0. -1.
    9900012    2    1    2    0    0 -0.21478180839E+00  0.11597332022E+01  0.47449079632E-01  0.90007591706E+02  0.89999851116E+02 0.  0.
        -12    1    1    2    0    0  0.21478180839E+00 -0.11597332022E+01 -0.47449079632E-01  0.11804082940E+01  0.00000000000E+00 0.  1.
         11    1    3    3    0    0  0.39032619495E+02 -0.14828792299E+02  0.43520293931E-01  0.41754525024E+02  0.51100000000E-03 0. -1.
        -11    1    3    3    0    0 -0.59976541339E+01 -0.46533644399E+01  0.45555695765E+01  0.88531841813E+01  0.51100000000E-03 0.  1.
        -12    1    3    3    0    0 -0.33249747169E+02  0.20641889941E+02 -0.45516407908E+01  0.39399882501E+02  0.00000000000E+00 0.  1.
</event>
<event>
 7    1  0.2497665E-015  0.9000768E+02  0.7816164E-02  0.1186339E+00
        -11   -1    0    0    0    0  0.00000000000E+00  0.00000000000E+00  0.45593999997E+02  0.45594000000E+02  0.51100000000E-03 0.  1.
         11   -1    0    0    0    0 -0.00000000000E+00 -0.00000000000E+00 -0.45593999997E+02  0.45594000000E+02  0.51100000000E-03 0. -1.
    9900012    2    1    2    0    0  0.87143370421E+00  0.68481203114E+00 -0.40594768321E+00  0.90007678967E+02  0.89999939530E+02 0.  0.
        -12    1    1    2    0    0 -0.87143370421E+00 -0.68481203114E+00  0.40594768321E+00  0.11803210327E+01  0.00000000000E+00 0.  1.
         11    1    3    3    0    0 -0.45102757837E+01 -0.18430908191E+01 -0.38288602952E+02  0.38597366331E+02  0.51100000000E-03 0. -1.
        -11    1    3    3    0    0 -0.32559745444E+01 -0.95586686779E+01 -0.64418182762E+00  0.10118522007E+02  0.51100000000E-03 0.  1.
        -12    1    3    3    0    0  0.86376840323E+01  0.12086571528E+02  0.38526837096E+02  0.41291790629E+02  0.00000000000E+00 0.  1.
</event>
<event>
 7    1  0.2497665E-015  0.9000781E+02  0.7816164E-02  0.1186339E+00
        -11   -1    0    0    0    0  0.00000000000E+00  0.00000000000E+00  0.45593999997E+02  0.45594000000E+02  0.51100000000E-03 0.  1.
         11   -1    0    0    0    0 -0.00000000000E+00 -0.00000000000E+00 -0.45593999997E+02  0.45594000000E+02  0.51100000000E-03 0. -1.
    9900012    2    1    2    0    0 -0.79992390398E+00  0.25430306713E+00 -0.82963987527E+00  0.90007809073E+02  0.90000071352E+02 0.  0.
        -12    1    1    2    0    0  0.79992390398E+00 -0.25430306713E+00  0.82963987527E+00  0.11801909272E+01  0.00000000000E+00 0.  1.
         11    1    3    3    0    0  0.30639644162E+02 -0.28288619184E+02 -0.57255585487E+01  0.42092942291E+02  0.51100000000E-03 0. -1.
        -11    1    3    3    0    0 -0.81536997196E+01 -0.52486941202E+00  0.67876187811E+01  0.10622150253E+02  0.51100000000E-03 0.  1.
        -12    1    3    3    0    0 -0.23285868347E+02  0.29067791663E+02 -0.18917001077E+01  0.37292716529E+02  0.00000000000E+00 0.  1.
</event>
<event>
 7    1  0.2497665E-015  0.9000775E+02  0.7816164E-02  0.1186339E+00
        -11   -1    0    0    0    0  0.00000000000E+00  0.00000000000E+00  0.45593999997E+02  0.45594000000E+02  0.51100000000E-03 0. -1.
         11   -1    0    0    0    0 -0.00000000000E+00 -0.00000000000E+00 -0.45593999997E+02  0.45594000000E+02  0.51100000000E-03 0.  1.
    9900012    2    1    2    0    0 -0.28941297807E+00 -0.72800313541E+00 -0.88274566968E+00  0.90007750724E+02  0.90000012233E+02 0.  0.
        -12    1    1    2    0    0  0.28941297807E+00  0.72800313541E+00  0.88274566968E+00  0.11802492764E+01  0.00000000000E+00 0.  1.
         11    1    3    3    0    0  0.55024312563E+01  0.12889238946E+01 -0.67989392821E+01  0.88410208776E+01  0.51100000000E-03 0. -1.
        -11    1    3    3    0    0  0.22717629109E+02  0.14337992606E+02 -0.24519679591E+02  0.36371463977E+02  0.51100000000E-03 0.  1.
         12    1    3    3    0    0 -0.28509473343E+02 -0.16354919636E+02  0.30435873204E+02  0.44795265869E+02  0.00000000000E+00 0. -1.
</event>
<event>
 7    1  0.2497665E-015  0.9000767E+02  0.7816164E-02  0.1186339E+00
        -11   -1    0    0    0    0  0.00000000000E+00  0.00000000000E+00  0.45593999997E+02  0.45594000000E+02  0.51100000000E-03 0. -1.
         11   -1    0    0    0    0 -0.00000000000E+00 -0.00000000000E+00 -0.45593999997E+02  0.45594000000E+02  0.51100000000E-03 0.  1.
    9900012    2    1    2    0    0 -0.68333361471E+00 -0.26276134258E-01  0.96205468187E+00  0.90007667642E+02  0.89999928055E+02 0.  0.
        -12    1    1    2    0    0  0.68333361471E+00  0.26276134258E-01 -0.96205468187E+00  0.11803323579E+01  0.00000000000E+00 0.  1.
         11    1    3    3    0    0  0.42254110228E+01 -0.96698247687E+01 -0.27040526664E+01  0.10893645416E+02  0.51100000000E-03 0. -1.
        -11    1    3    3    0    0 -0.27140332742E+02 -0.25632688341E+02  0.15986801873E+01  0.37365601180E+02  0.51100000000E-03 0.  1.
         12    1    3    3    0    0  0.22231588104E+02  0.35276236976E+02  0.20674271609E+01  0.41748421046E+02  0.00000000000E+00 0. -1.
</event>
<event>
 7    1  0.2497665E-015  0.9000780E+02  0.7816164E-02  0.1186339E+00
        -11   -1    0    0    0    0  0.00000000000E+00  0.00000000000E+00  0.45593999997E+02  0.45594000000E+02  0.51100000000E-03 0. -1.
         11   -1    0    0    0    0 -0.00000000000E+00 -0.00000000000E+00 -0.45593999997E+02  0.45594000000E+02  0.51100000000E-03 0.  1.
    9900012    2    1    2    0    0  0.86917270080E+00  0.77393820862E+00  0.19603195292E+00  0.90007800838E+02  0.90000063009E+02 0.  0.
        -12    1    1    2    0    0 -0.86917270080E+00 -0.77393820862E+00 -0.19603195292E+00  0.11801991616E+01  0.00000000000E+00 0.  1.
         11    1    3    3    0    0 -0.16795904005E+02  0.16097867144E+02  0.34381609664E+02  0.41513116015E+02  0.51100000000E-03 0. -1.
        -11    1    3    3    0    0 -0.62747792745E+01 -0.21757726121E+01 -0.38559617707E+01  0.76795366294E+01  0.51100000000E-03 0.  1.
        -12    1    3    3    0    0  0.23939855981E+02 -0.13148156323E+02 -0.30329615940E+02  0.40815148194E+02  0.00000000000E+00 0.  1.
</event>
<event>
 7    1  0.2497665E-015  0.9000787E+02  0.7816164E-02  0.1186339E+00
        -11   -1    0    0    0    0  0.00000000000E+00  0.00000000000E+00  0.45593999997E+02  0.45594000000E+02  0.51100000000E-03 0. -1.
         11   -1    0    0    0    0 -0.00000000000E+00 -0.00000000000E+00 -0.45593999997E+02  0.45594000000E+02  0.51100000000E-03 0.  1.
    9900012    2    1    2    0    0 -0.13674909471E+00  0.64621864537E+00 -0.97796603341E+00  0.90007865933E+02  0.90000128964E+02 0.  0.
        -12    1    1    2    0    0  0.13674909471E+00 -0.64621864537E+00  0.97796603341E+00  0.11801340666E+01  0.00000000000E+00 0.  1.
         11    1    3    3    0    0 -0.23424908806E+02  0.11284276449E+02  0.19396898415E+02  0.32439187966E+02  0.51100000000E-03 0. -1.
        -11    1    3    3    0    0  0.29644178033E+01 -0.56499814078E+01  0.15093604713E+02  0.16386792436E+02  0.51100000000E-03 0.  1.
        -12    1    3    3    0    0  0.20323741908E+02 -0.49880763963E+01 -0.35468469161E+02  0.41181885531E+02  0.00000000000E+00 0.  1.
</event>
<event>
 7    1  0.2497665E-015  0.9000791E+02  0.7816164E-02  0.1186339E+00
        -11   -1    0    0    0    0  0.00000000000E+00  0.00000000000E+00  0.45593999997E+02  0.45594000000E+02  0.51100000000E-03 0.  1.
         11   -1    0    0    0    0 -0.00000000000E+00 -0.00000000000E+00 -0.45593999997E+02  0.45594000000E+02  0.51100000000E-03 0. -1.
    9900012    2    1    2    0    0  0.44199206371E+00 -0.18488561124E+00 -0.10784547281E+01  0.90007913446E+02  0.90000177104E+02 0.  0.
        -12    1    1    2    0    0 -0.44199206371E+00  0.18488561124E+00  0.10784547281E+01  0.11800865537E+01  0.00000000000E+00 0.  1.
         11    1    3    3    0    0  0.10497559275E+02  0.38786979543E+01  0.31417539112E+01  0.11623840435E+02  0.51100000000E-03 0. -1.
        -11    1    3    3    0    0 -0.53690826238E+00 -0.95875508654E+01  0.35702969436E+02  0.36971765293E+02  0.51100000000E-03 0.  1.
         12    1    3    3    0    0 -0.95186589486E+01  0.55239672998E+01 -0.39923178076E+02  0.41412307718E+02  0.00000000000E+00 0. -1.
</event>
<event>
 7    1  0.2497665E-015  0.9000815E+02  0.7816164E-02  0.1186338E+00
        -11   -1    0    0    0    0  0.00000000000E+00  0.00000000000E+00  0.45593999997E+02  0.45594000000E+02  0.51100000000E-03 0.  1.
         11   -1    0    0    0    0 -0.00000000000E+00 -0.00000000000E+00 -0.45593999997E+02  0.45594000000E+02  0.51100000000E-03 0. -1.
    9900012    2    1    2    0    0  0.10752097945E+01 -0.48418112578E+00 -0.39133719197E-01  0.90008153013E+02  0.90000419832E+02 0.  0.
        -12    1    1    2    0    0 -0.10752097945E+01  0.48418112578E+00  0.39133719197E-01  0.11798469870E+01  0.00000000000E+00 0.  1.
         11    1    3    3    0    0 -0.31543813701E+02 -0.86043449957E-01  0.10288722869E+02  0.33179472642E+02  0.51100000000E-03 0. -1.
        -11    1    3    3    0    0 -0.30531915445E+01 -0.69188152380E+01  0.12042709385E+02  0.14220366820E+02  0.51100000000E-03 0.  1.
        -12    1    3    3    0    0  0.35672215040E+02  0.65206775621E+01 -0.22370565973E+02  0.42608313551E+02  0.00000000000E+00 0.  1.
</event>
<event>
 7    1  0.2497665E-015  0.9000772E+02  0.7816164E-02  0.1186339E+00
        -11   -1    0    0    0    0  0.00000000000E+00  0.00000000000E+00  0.45593999997E+02  0.45594000000E+02  0.51100000000E-03 0.  1.
         11   -1    0    0    0    0 -0.00000000000E+00 -0.00000000000E+00 -0.45593999997E+02  0.45594000000E+02  0.51100000000E-03 0. -1.
    9900012    2    1    2    0    0  0.42404701330E+00  0.87444775847E+00 -0.66976428974E+00  0.90007720815E+02  0.89999981929E+02 0.  0.
        -12    1    1    2    0    0 -0.42404701330E+00 -0.87444775847E+00  0.66976428974E+00  0.11802791854E+01  0.00000000000E+00 0.  1.
         11    1    3    3    0    0 -0.26775267153E+02  0.47186188646E+01  0.27746681522E+02  0.38846603852E+02  0.51100000000E-03 0. -1.
        -11    1    3    3    0    0  0.79662669549E+01  0.61936278166E+01  0.50453912742E+01  0.11281773269E+02  0.51100000000E-03 0.  1.
        -12    1    3    3    0    0  0.19233047212E+02 -0.10037798923E+02 -0.33461837086E+02  0.39879343693E+02  0.00000000000E+00 0.  1.
</event>
<event>
 7    1  0.2497665E-015  0.9000775E+02  0.7816164E-02  0.1186339E+00
        -11   -1    0    0    0    0  0.00000000000E+00  0.00000000000E+00  0.45593999997E+02  0.45594000000E+02  0.51100000000E-03 0. -1.
         11   -1    0    0    0    0 -0.00000000000E+00 -0.00000000000E+00 -0.45593999997E+02  0.45594000000E+02  0.51100000000E-03 0.  1.
    9900012    2    1    2    0    0 -0.34863279432E+00  0.49863392253E+00  0.10113425254E+01  0.90007748197E+02  0.90000009674E+02 0.  0.
        -12    1    1    2    0    0  0.34863279432E+00 -0.49863392253E+00 -0.10113425254E+01  0.11802518026E+01  0.00000000000E+00 0.  1.
         11    1    3    3    0    0 -0.62686007377E+01 -0.24718443189E+01 -0.49379341953E+01  0.83539549869E+01  0.51100000000E-03 0. -1.
        -11    1    3    3    0    0 -0.23986627824E+02 -0.28798191517E+02 -0.89179934599E+00  0.37489858033E+02  0.51100000000E-03 0.  1.
         12    1    3    3    0    0  0.29906595767E+02  0.31768669758E+02  0.68410760666E+01  0.44163935177E+02  0.00000000000E+00 0. -1.
</event>
<event>
 7    1  0.2497665E-015  0.9000783E+02  0.7816164E-02  0.1186339E+00
        -11   -1    0    0    0    0  0.00000000000E+00  0.00000000000E+00  0.45593999997E+02  0.45594000000E+02  0.51100000000E-03 0.  1.
         11   -1    0    0    0    0 -0.00000000000E+00 -0.00000000000E+00 -0.45593999997E+02  0.45594000000E+02  0.51100000000E-03 0. -1.
    9900012    2    1    2    0    0 -0.42705614651E-01 -0.10406424741E+01 -0.55501589426E+00  0.90007829177E+02  0.90000091722E+02 0.  0.
        -12    1    1    2    0    0  0.42705614651E-01  0.10406424741E+01  0.55501589426E+00  0.11801708229E+01  0.00000000000E+00 0.  1.
         11    1    3    3    0    0  0.10850950068E+02 -0.12073308954E+02  0.65796268920E+01  0.17515690017E+02  0.51100000000E-03 0. -1.
        -11    1    3    3    0    0 -0.84897814863E+01  0.19784007241E+02  0.28501449764E+02  0.35718566196E+02  0.51100000000E-03 0.  1.
         12    1    3    3    0    0 -0.24038741963E+01 -0.87513407610E+01 -0.35636092550E+02  0.36773572964E+02  0.00000000000E+00 0. -1.
</event>
<event>
 7    1  0.2497665E-015  0.9000775E+02  0.7816164E-02  0.1186339E+00
        -11   -1    0    0    0    0  0.00000000000E+00  0.00000000000E+00  0.45593999997E+02  0.45594000000E+02  0.51100000000E-03 0.  1.
         11   -1    0    0    0    0 -0.00000000000E+00 -0.00000000000E+00 -0.45593999997E+02  0.45594000000E+02  0.51100000000E-03 0. -1.
    9900012    2    1    2    0    0  0.94474283151E+00  0.69191319665E+00 -0.14730009401E+00  0.90007754175E+02  0.90000015730E+02 0.  0.
        -12    1    1    2    0    0 -0.94474283151E+00 -0.69191319665E+00  0.14730009401E+00  0.11802458249E+01  0.00000000000E+00 0.  1.
         11    1    3    3    0    0 -0.21035291695E+02  0.18633733787E+02  0.29820071400E+02  0.40974823857E+02  0.51100000000E-03 0. -1.
        -11    1    3    3    0    0 -0.61575788552E+01 -0.42520625740E+01 -0.49730410581E+01  0.89848178122E+01  0.51100000000E-03 0.  1.
        -12    1    3    3    0    0  0.28137613381E+02 -0.13689758017E+02 -0.24994330436E+02  0.40048112506E+02  0.00000000000E+00 0.  1.
</event>
<event>
 7    1  0.2497665E-015  0.9000775E+02  0.7816164E-02  0.1186339E+00
        -11   -1    0    0    0    0  0.00000000000E+00  0.00000000000E+00  0.45593999997E+02  0.45594000000E+02  0.51100000000E-03 0. -1.
         11   -1    0    0    0    0 -0.00000000000E+00 -0.00000000000E+00 -0.45593999997E+02  0.45594000000E+02  0.51100000000E-03 0.  1.
    9900012    2    1    2    0    0 -0.86496429795E+00  0.33543221703E+00 -0.72960198716E+00  0.90007747032E+02  0.90000008493E+02 0.  0.
        -12    1    1    2    0    0  0.86496429795E+00 -0.33543221703E+00  0.72960198716E+00  0.11802529681E+01  0.00000000000E+00 0.  1.
         11    1    3    3    0    0  0.19330857929E+02  0.27708936553E+02  0.26223220809E+02  0.42768265607E+02  0.51100000000E-03 0. -1.
        -11    1    3    3    0    0  0.25130122512E+01 -0.39794602653E+01 -0.86566100409E+01  0.98533360969E+01  0.51100000000E-03 0.  1.
        -12    1    3    3    0    0 -0.22708834478E+02 -0.23394044070E+02 -0.18296212755E+02  0.37386145328E+02  0.00000000000E+00 0.  1.
</event>
<event>
 7    1  0.2497665E-015  0.9000777E+02  0.7816164E-02  0.1186339E+00
        -11   -1    0    0    0    0  0.00000000000E+00  0.00000000000E+00  0.45593999997E+02  0.45594000000E+02  0.51100000000E-03 0.  1.
         11   -1    0    0    0    0 -0.00000000000E+00 -0.00000000000E+00 -0.45593999997E+02  0.45594000000E+02  0.51100000000E-03 0. -1.
    9900012    2    1    2    0    0  0.86985167355E+00 -0.78933674271E+00  0.11511719375E+00  0.90007768499E+02  0.90000030243E+02 0.  0.
        -12    1    1    2    0    0 -0.86985167355E+00  0.78933674271E+00 -0.11511719375E+00  0.11802315009E+01  0.00000000000E+00 0.  1.
         11    1    3    3    0    0 -0.27988705207E+02 -0.21617202488E+00 -0.27656615186E+02  0.39348477903E+02  0.51100000000E-03 0. -1.
        -11    1    3    3    0    0  0.54017440358E+01 -0.62879339571E+01 -0.52059140443E+01  0.97886921177E+01  0.51100000000E-03 0.  1.
        -12    1    3    3    0    0  0.23456812844E+02  0.57147692392E+01  0.32977646424E+02  0.40870598478E+02  0.00000000000E+00 0.  1.
</event>
<event>
 7    1  0.2497665E-015  0.9000774E+02  0.7816164E-02  0.1186339E+00
        -11   -1    0    0    0    0  0.00000000000E+00  0.00000000000E+00  0.45593999997E+02  0.45594000000E+02  0.51100000000E-03 0. -1.
         11   -1    0    0    0    0 -0.00000000000E+00 -0.00000000000E+00 -0.45593999997E+02  0.45594000000E+02  0.51100000000E-03 0.  1.
    9900012    2    1    2    0    0 -0.56682458015E+00 -0.91832386493E+00  0.47790939437E+00  0.90007743157E+02  0.90000004567E+02 0.  0.
        -12    1    1    2    0    0  0.56682458015E+00  0.91832386493E+00 -0.47790939437E+00  0.11802568427E+01  0.00000000000E+00 0.  1.
         11    1    3    3    0    0 -0.32615590751E+02  0.10841062200E+02  0.12398015745E+02  0.36537873287E+02  0.51100000000E-03 0. -1.
        -11    1    3    3    0    0 -0.83578965963E+01 -0.47811248975E+01  0.25940717826E+01  0.99721010562E+01  0.51100000000E-03 0.  1.
        -12    1    3    3    0    0  0.40406662767E+02 -0.69782611674E+01 -0.14514178134E+02  0.43497768814E+02  0.00000000000E+00 0.  1.
</event>
<event>
 7    1  0.2497665E-015  0.9000756E+02  0.7816164E-02  0.1186339E+00
        -11   -1    0    0    0    0  0.00000000000E+00  0.00000000000E+00  0.45593999997E+02  0.45594000000E+02  0.51100000000E-03 0. -1.
         11   -1    0    0    0    0 -0.00000000000E+00 -0.00000000000E+00 -0.45593999997E+02  0.45594000000E+02  0.51100000000E-03 0.  1.
    9900012    2    1    2    0    0  0.35809637515E+00 -0.11240055976E+01  0.42679604917E-01  0.90007558072E+02  0.89999817038E+02 0.  0.
        -12    1    1    2    0    0 -0.35809637515E+00  0.11240055976E+01 -0.42679604917E-01  0.11804419283E+01  0.00000000000E+00 0.  1.
         11    1    3    3    0    0 -0.73324197862E+01 -0.69762885820E+01  0.54709451104E+01  0.11504965144E+02  0.51100000000E-03 0. -1.
        -11    1    3    3    0    0 -0.91103401190E+01 -0.32930600892E+02  0.60661347264E+01  0.34701884141E+02  0.51100000000E-03 0.  1.
         12    1    3    3    0    0  0.16800856280E+02  0.38782883876E+02 -0.11494400232E+02  0.43800708786E+02  0.00000000000E+00 0. -1.
</event>
<event>
 7    1  0.2497665E-015  0.9000774E+02  0.7816164E-02  0.1186339E+00
        -11   -1    0    0    0    0  0.00000000000E+00  0.00000000000E+00  0.45593999997E+02  0.45594000000E+02  0.51100000000E-03 0.  1.
         11   -1    0    0    0    0 -0.00000000000E+00 -0.00000000000E+00 -0.45593999997E+02  0.45594000000E+02  0.51100000000E-03 0. -1.
    9900012    2    1    2    0    0  0.10556887767E+01 -0.12992054601E+00 -0.51153339157E+00  0.90007735389E+02  0.89999996696E+02 0.  0.
        -12    1    1    2    0    0 -0.10556887767E+01  0.12992054601E+00  0.51153339157E+00  0.11802646111E+01  0.00000000000E+00 0.  1.
         11    1    3    3    0    0  0.32402410451E+02  0.32556734385E+01 -0.17808149639E+02  0.37116651336E+02  0.51100000000E-03 0. -1.
        -11    1    3    3    0    0  0.21002007274E+01  0.97304585639E+01 -0.44407412093E+01  0.10900130720E+02  0.51100000000E-03 0.  1.
        -12    1    3    3    0    0 -0.33446922402E+02 -0.13116052548E+02  0.21737357457E+02  0.41990953333E+02  0.00000000000E+00 0.  1.
</event>
<event>
 7    1  0.2497665E-015  0.9000788E+02  0.7816164E-02  0.1186339E+00
        -11   -1    0    0    0    0  0.00000000000E+00  0.00000000000E+00  0.45593999997E+02  0.45594000000E+02  0.51100000000E-03 0.  1.
         11   -1    0    0    0    0 -0.00000000000E+00 -0.00000000000E+00 -0.45593999997E+02  0.45594000000E+02  0.51100000000E-03 0. -1.
    9900012    2    1    2    0    0  0.49437985255E+00 -0.10416723448E+01 -0.25139269550E+00  0.90007876701E+02  0.90000139874E+02 0.  0.
        -12    1    1    2    0    0 -0.49437985255E+00  0.10416723448E+01  0.25139269550E+00  0.11801232986E+01  0.00000000000E+00 0.  1.
         11    1    3    3    0    0  0.86173503746E+01 -0.41375675981E+01  0.15511387559E+01  0.96842255657E+01  0.51100000000E-03 0. -1.
        -11    1    3    3    0    0  0.65174404244E+01  0.30037985889E+02  0.24982659104E+02  0.39609227235E+02  0.51100000000E-03 0.  1.
         12    1    3    3    0    0 -0.14640410946E+02 -0.26942090635E+02 -0.26785190556E+02  0.40714423901E+02  0.00000000000E+00 0. -1.
</event>
<event>
 7    1  0.2497665E-015  0.9000765E+02  0.7816164E-02  0.1186339E+00
        -11   -1    0    0    0    0  0.00000000000E+00  0.00000000000E+00  0.45593999997E+02  0.45594000000E+02  0.51100000000E-03 0.  1.
         11   -1    0    0    0    0 -0.00000000000E+00 -0.00000000000E+00 -0.45593999997E+02  0.45594000000E+02  0.51100000000E-03 0. -1.
    9900012    2    1    2    0    0 -0.17386136356E+00  0.11246352288E+01 -0.31335155072E+00  0.90007652015E+02  0.89999912221E+02 0.  0.
        -12    1    1    2    0    0  0.17386136356E+00 -0.11246352288E+01  0.31335155072E+00  0.11803479851E+01  0.00000000000E+00 0.  1.
         11    1    3    3    0    0 -0.73924911405E+01  0.51896867343E+01 -0.38782363887E+01  0.98296740236E+01  0.51100000000E-03 0. -1.
        -11    1    3    3    0    0 -0.33525437936E+02 -0.78728899266E+01 -0.11894301038E+02  0.36433662759E+02  0.51100000000E-03 0.  1.
         12    1    3    3    0    0  0.40744067713E+02  0.38078384210E+01  0.15459185876E+02  0.43744315233E+02  0.00000000000E+00 0. -1.
</event>
<event>
 7    1  0.2497665E-015  0.9000753E+02  0.7816164E-02  0.1186339E+00
        -11   -1    0    0    0    0  0.00000000000E+00  0.00000000000E+00  0.45593999997E+02  0.45594000000E+02  0.51100000000E-03 0.  1.
         11   -1    0    0    0    0 -0.00000000000E+00 -0.00000000000E+00 -0.45593999997E+02  0.45594000000E+02  0.51100000000E-03 0. -1.
    9900012    2    1    2    0    0  0.17575964966E+00  0.84237242716E+00 -0.80809960507E+00  0.90007530715E+02  0.89999789320E+02 0.  0.
        -12    1    1    2    0    0 -0.17575964966E+00 -0.84237242716E+00  0.80809960507E+00  0.11804692847E+01  0.00000000000E+00 0.  1.
         11    1    3    3    0    0  0.21240790960E+02  0.29121876638E+02 -0.23518474098E+02  0.43039209143E+02  0.51100000000E-03 0. -1.
        -11    1    3    3    0    0 -0.76400815709E+01  0.20724891475E+01  0.47456175001E+01  0.92296773180E+01  0.51100000000E-03 0.  1.
        -12    1    3    3    0    0 -0.13424949739E+02 -0.30351993358E+02  0.17964756993E+02  0.37738644254E+02  0.00000000000E+00 0.  1.
</event>
<event>
 7    1  0.2497665E-015  0.9000784E+02  0.7816164E-02  0.1186339E+00
        -11   -1    0    0    0    0  0.00000000000E+00  0.00000000000E+00  0.45593999997E+02  0.45594000000E+02  0.51100000000E-03 0.  1.
         11   -1    0    0    0    0 -0.00000000000E+00 -0.00000000000E+00 -0.45593999997E+02  0.45594000000E+02  0.51100000000E-03 0. -1.
    9900012    2    1    2    0    0  0.11724368255E+01  0.78161504319E-01  0.10983573773E+00  0.90007838477E+02  0.90000101145E+02 0.  0.
        -12    1    1    2    0    0 -0.11724368255E+01 -0.78161504319E-01 -0.10983573773E+00  0.11801615228E+01  0.00000000000E+00 0.  1.
         11    1    3    3    0    0 -0.98939457347E+01  0.31919373964E+02 -0.27548074810E+02  0.43308579086E+02  0.51100000000E-03 0. -1.
        -11    1    3    3    0    0 -0.28907479973E+01 -0.94122104490E+01  0.23650659868E+01  0.10126187185E+02  0.51100000000E-03 0.  1.
        -12    1    3    3    0    0  0.13957130558E+02 -0.22429002011E+02  0.25292844561E+02  0.36573072206E+02  0.00000000000E+00 0.  1.
</event>
<event>
 7    1  0.2497665E-015  0.9000660E+02  0.7816164E-02  0.1186341E+00
        -11   -1    0    0    0    0  0.00000000000E+00  0.00000000000E+00  0.45593999997E+02  0.45594000000E+02  0.51100000000E-03 0.  1.
         11   -1    0    0    0    0 -0.00000000000E+00 -0.00000000000E+00 -0.45593999997E+02  0.45594000000E+02  0.51100000000E-03 0. -1.
    9900012    2    1    2    0    0 -0.10961512969E+01 -0.19426680277E+00  0.39549856761E+00  0.90006599825E+02  0.89998846135E+02 0.  0.
        -12    1    1    2    0    0  0.10961512969E+01  0.19426680277E+00 -0.39549856761E+00  0.11814001749E+01  0.00000000000E+00 0.  1.
         11    1    3    3    0    0  0.13865738771E+02 -0.24900803713E+02 -0.24751486773E+02  0.37748441490E+02  0.51100000000E-03 0. -1.
        -11    1    3    3    0    0  0.43552555478E+01  0.10035437752E+02 -0.62369355299E+01  0.12592760890E+02  0.51100000000E-03 0.  1.
        -12    1    3    3    0    0 -0.19317145616E+02  0.14671099159E+02  0.31383920870E+02  0.39665397445E+02  0.00000000000E+00 0.  1.
</event>
<event>
 7    1  0.2497665E-015  0.9000773E+02  0.7816164E-02  0.1186339E+00
        -11   -1    0    0    0    0  0.00000000000E+00  0.00000000000E+00  0.45593999997E+02  0.45594000000E+02  0.51100000000E-03 0. -1.
         11   -1    0    0    0    0 -0.00000000000E+00 -0.00000000000E+00 -0.45593999997E+02  0.45594000000E+02  0.51100000000E-03 0.  1.
    9900012    2    1    2    0    0 -0.11593615788E+00  0.19639087239E+00  0.11580251611E+01  0.90007731877E+02  0.89999993138E+02 0.  0.
        -12    1    1    2    0    0  0.11593615788E+00 -0.19639087239E+00 -0.11580251611E+01  0.11802681226E+01  0.00000000000E+00 0.  1.
         11    1    3    3    0    0 -0.37564958560E+01 -0.50576392435E+01 -0.45554201408E+01  0.77744986175E+01  0.51100000000E-03 0. -1.
        -11    1    3    3    0    0 -0.97525061267E+01 -0.49369618558E+01 -0.35803492815E+02  0.37434944452E+02  0.51100000000E-03 0.  1.
         12    1    3    3    0    0  0.13393065825E+02  0.10190991972E+02  0.41516938117E+02  0.44798288808E+02  0.00000000000E+00 0. -1.
</event>
<event>
 7    1  0.2497665E-015  0.9000824E+02  0.7816164E-02  0.1186338E+00
        -11   -1    0    0    0    0  0.00000000000E+00  0.00000000000E+00  0.45593999997E+02  0.45594000000E+02  0.51100000000E-03 0. -1.
         11   -1    0    0    0    0 -0.00000000000E+00 -0.00000000000E+00 -0.45593999997E+02  0.45594000000E+02  0.51100000000E-03 0.  1.
    9900012    2    1    2    0    0 -0.21144650882E+00  0.11356379177E+01  0.23968235952E+00  0.90008241237E+02  0.90000509220E+02 0.  0.
        -12    1    1    2    0    0  0.21144650882E+00 -0.11356379177E+01 -0.23968235952E+00  0.11797587633E+01  0.00000000000E+00 0.  1.
         11    1    3    3    0    0  0.70406068844E+00  0.42744895637E+01  0.36402842605E+02  0.36659704206E+02  0.51100000000E-03 0. -1.
        -11    1    3    3    0    0  0.71079857836E+01  0.38457028558E+01  0.58710907232E+01  0.99891240305E+01  0.51100000000E-03 0.  1.
        -12    1    3    3    0    0 -0.80234929809E+01 -0.69845545017E+01 -0.42034250969E+02  0.43359413000E+02  0.00000000000E+00 0.  1.
</event>
<event>
 7    1  0.2497665E-015  0.9000776E+02  0.7816164E-02  0.1186339E+00
        -11   -1    0    0    0    0  0.00000000000E+00  0.00000000000E+00  0.45593999997E+02  0.45594000000E+02  0.51100000000E-03 0.  1.
         11   -1    0    0    0    0 -0.00000000000E+00 -0.00000000000E+00 -0.45593999997E+02  0.45594000000E+02  0.51100000000E-03 0. -1.
    9900012    2    1    2    0    0  0.97112375466E+00 -0.56781918870E+00 -0.35702444836E+00  0.90007760010E+02  0.90000021642E+02 0.  0.
        -12    1    1    2    0    0 -0.97112375466E+00  0.56781918870E+00  0.35702444836E+00  0.11802399903E+01  0.00000000000E+00 0.  1.
         11    1    3    3    0    0 -0.28252555460E+02  0.55438777943E+01 -0.27106218948E+02  0.39543502335E+02  0.51100000000E-03 0. -1.
        -11    1    3    3    0    0 -0.22910399942E+01 -0.76276428531E+01 -0.15120796109E+01  0.81065519650E+01  0.51100000000E-03 0.  1.
        -12    1    3    3    0    0  0.31514719208E+02  0.15159458702E+01  0.28261274110E+02  0.42357705710E+02  0.00000000000E+00 0.  1.
</event>
<event>
 7    1  0.2497665E-015  0.9000773E+02  0.7816164E-02  0.1186339E+00
        -11   -1    0    0    0    0  0.00000000000E+00  0.00000000000E+00  0.45593999997E+02  0.45594000000E+02  0.51100000000E-03 0. -1.
         11   -1    0    0    0    0 -0.00000000000E+00 -0.00000000000E+00 -0.45593999997E+02  0.45594000000E+02  0.51100000000E-03 0.  1.
    9900012    2    1    2    0    0  0.27588959046E+00  0.58643111988E+00  0.98641413324E+00  0.90007733349E+02  0.89999994630E+02 0.  0.
        -12    1    1    2    0    0 -0.27588959046E+00 -0.58643111988E+00 -0.98641413324E+00  0.11802666507E+01  0.00000000000E+00 0.  1.
         11    1    3    3    0    0  0.57177050000E+01  0.33925929109E+02  0.11338755804E+02  0.36224690472E+02  0.51100000000E-03 0. -1.
        -11    1    3    3    0    0  0.28040530579E+01  0.88210313332E+01 -0.49178134413E+01  0.10481326092E+02  0.51100000000E-03 0.  1.
        -12    1    3    3    0    0 -0.82458684674E+01 -0.42160529322E+02 -0.54345282299E+01  0.43301716786E+02  0.00000000000E+00 0.  1.
</event>
<event>
 7    1  0.2497665E-015  0.9000764E+02  0.7816164E-02  0.1186339E+00
        -11   -1    0    0    0    0  0.00000000000E+00  0.00000000000E+00  0.45593999997E+02  0.45594000000E+02  0.51100000000E-03 0.  1.
         11   -1    0    0    0    0 -0.00000000000E+00 -0.00000000000E+00 -0.45593999997E+02  0.45594000000E+02  0.51100000000E-03 0. -1.
    9900012    2    1    2    0    0 -0.89273887440E+00  0.77194106659E+00  0.19592565164E-01  0.90007635829E+02  0.89999895822E+02 0.  0.
        -12    1    1    2    0    0  0.89273887440E+00 -0.77194106659E+00 -0.19592565164E-01  0.11803641712E+01  0.00000000000E+00 0.  1.
         11    1    3    3    0    0 -0.11787906732E+02  0.33928387333E+01  0.11796414899E+02  0.17018269728E+02  0.51100000000E-03 0. -1.
        -11    1    3    3    0    0  0.17324945380E+02 -0.34982890989E+02 -0.65267785050E+01  0.39579732595E+02  0.51100000000E-03 0.  1.
         12    1    3    3    0    0 -0.64297775219E+01  0.32361993323E+02 -0.52500438289E+01  0.33409633506E+02  0.00000000000E+00 0. -1.
</event>
<event>
 7    1  0.2497665E-015  0.9000785E+02  0.7816164E-02  0.1186339E+00
        -11   -1    0    0    0    0  0.00000000000E+00  0.00000000000E+00  0.45593999997E+02  0.45594000000E+02  0.51100000000E-03 0. -1.
         11   -1    0    0    0    0 -0.00000000000E+00 -0.00000000000E+00 -0.45593999997E+02  0.45594000000E+02  0.51100000000E-03 0.  1.
    9900012    2    1    2    0    0 -0.50016846111E+00 -0.92723931939E+00  0.53179888058E+00  0.90007851156E+02  0.90000113991E+02 0.  0.
        -12    1    1    2    0    0  0.50016846111E+00  0.92723931939E+00 -0.53179888058E+00  0.11801488441E+01  0.00000000000E+00 0.  1.
         11    1    3    3    0    0 -0.98001909067E+01 -0.26368705919E+01  0.43775931936E+01  0.11052608324E+02  0.51100000000E-03 0. -1.
        -11    1    3    3    0    0 -0.30470605826E+02 -0.13969537430E+02 -0.11673575351E+02  0.35494762390E+02  0.51100000000E-03 0.  1.
         12    1    3    3    0    0  0.39770628271E+02  0.15679168702E+02  0.78277810381E+01  0.43460480442E+02  0.00000000000E+00 0. -1.
</event>
<event>
 7    1  0.2497665E-015  0.9000777E+02  0.7816164E-02  0.1186339E+00
        -11   -1    0    0    0    0  0.00000000000E+00  0.00000000000E+00  0.45593999997E+02  0.45594000000E+02  0.51100000000E-03 0. -1.
         11   -1    0    0    0    0 -0.00000000000E+00 -0.00000000000E+00 -0.45593999997E+02  0.45594000000E+02  0.51100000000E-03 0.  1.
    9900012    2    1    2    0    0 -0.96016977817E+00  0.38834876711E+00  0.56586891667E+00  0.90007767651E+02  0.90000029384E+02 0.  0.
        -12    1    1    2    0    0  0.96016977817E+00 -0.38834876711E+00 -0.56586891667E+00  0.11802323494E+01  0.00000000000E+00 0.  1.
         11    1    3    3    0    0 -0.52002159995E+01  0.60585625580E+01  0.93334873560E+01  0.12282606124E+02  0.51100000000E-03 0. -1.
        -11    1    3    3    0    0  0.55028890965E+00  0.30147121165E+02  0.15891703763E+02  0.34083690838E+02  0.51100000000E-03 0.  1.
         12    1    3    3    0    0  0.36897573117E+01 -0.35817334956E+02 -0.24659322203E+02  0.43641470688E+02  0.00000000000E+00 0. -1.
</event>
<event>
 7    1  0.2497665E-015  0.9000777E+02  0.7816164E-02  0.1186339E+00
        -11   -1    0    0    0    0  0.00000000000E+00  0.00000000000E+00  0.45593999997E+02  0.45594000000E+02  0.51100000000E-03 0.  1.
         11   -1    0    0    0    0 -0.00000000000E+00 -0.00000000000E+00 -0.45593999997E+02  0.45594000000E+02  0.51100000000E-03 0. -1.
    9900012    2    1    2    0    0 -0.27411545761E+00 -0.64550742007E-01 -0.11461349028E+01  0.90007774895E+02  0.90000036724E+02 0.  0.
        -12    1    1    2    0    0  0.27411545761E+00  0.64550742007E-01  0.11461349028E+01  0.11802251047E+01  0.00000000000E+00 0.  1.
         11    1    3    3    0    0 -0.59431004560E+00  0.39646940135E+01  0.32666009583E+01  0.51713330131E+01  0.51100000000E-03 0. -1.
        -11    1    3    3    0    0  0.75742392972E+01 -0.21146413312E+02  0.34811681256E+02  0.41429374229E+02  0.51100000000E-03 0.  1.
         12    1    3    3    0    0 -0.72540447092E+01  0.17117168556E+02 -0.39224417117E+02  0.43407067653E+02  0.00000000000E+00 0. -1.
</event>
<event>
 7    1  0.2497665E-015  0.9000762E+02  0.7816164E-02  0.1186339E+00
        -11   -1    0    0    0    0  0.00000000000E+00  0.00000000000E+00  0.45593999997E+02  0.45594000000E+02  0.51100000000E-03 0.  1.
         11   -1    0    0    0    0 -0.00000000000E+00 -0.00000000000E+00 -0.45593999997E+02  0.45594000000E+02  0.51100000000E-03 0. -1.
    9900012    2    1    2    0    0  0.89169906374E+00  0.42886377763E+00  0.64361630856E+00  0.90007621538E+02  0.89999881343E+02 0.  0.
        -12    1    1    2    0    0 -0.89169906374E+00 -0.42886377763E+00 -0.64361630856E+00  0.11803784616E+01  0.00000000000E+00 0.  1.
         11    1    3    3    0    0  0.43143780538E+01 -0.14916181522E+02 -0.19016880304E+01  0.15643616807E+02  0.51100000000E-03 0. -1.
        -11    1    3    3    0    0  0.20385615615E+02 -0.21872067916E+02  0.39613723066E+01  0.30160456723E+02  0.51100000000E-03 0.  1.
         12    1    3    3    0    0 -0.23808294605E+02  0.37217113215E+02 -0.14160679677E+01  0.44203548009E+02  0.00000000000E+00 0. -1.
</event>
<event>
 7    1  0.2497665E-015  0.9000793E+02  0.7816164E-02  0.1186339E+00
        -11   -1    0    0    0    0  0.00000000000E+00  0.00000000000E+00  0.45593999997E+02  0.45594000000E+02  0.51100000000E-03 0.  1.
         11   -1    0    0    0    0 -0.00000000000E+00 -0.00000000000E+00 -0.45593999997E+02  0.45594000000E+02  0.51100000000E-03 0. -1.
    9900012    2    1    2    0    0 -0.15421247326E+00 -0.10704886498E+01 -0.47206479691E+00  0.90007926863E+02  0.90000190697E+02 0.  0.
        -12    1    1    2    0    0  0.15421247326E+00  0.10704886498E+01  0.47206479691E+00  0.11800731370E+01  0.00000000000E+00 0.  1.
         11    1    3    3    0    0  0.19202432452E+02 -0.31092503301E+02 -0.18817811453E+00  0.36544665615E+02  0.51100000000E-03 0. -1.
        -11    1    3    3    0    0  0.89497602163E+01 -0.28270694270E+01  0.33094470938E+01  0.99520334506E+01  0.51100000000E-03 0.  1.
        -12    1    3    3    0    0 -0.28306405142E+02  0.32849084078E+02 -0.35933337761E+01  0.43511227798E+02  0.00000000000E+00 0.  1.
</event>
<event>
 7    1  0.2497665E-015  0.9000770E+02  0.7816164E-02  0.1186339E+00
        -11   -1    0    0    0    0  0.00000000000E+00  0.00000000000E+00  0.45593999997E+02  0.45594000000E+02  0.51100000000E-03 0. -1.
         11   -1    0    0    0    0 -0.00000000000E+00 -0.00000000000E+00 -0.45593999997E+02  0.45594000000E+02  0.51100000000E-03 0.  1.
    9900012    2    1    2    0    0 -0.11357895984E+01  0.22835132875E+00  0.22569496537E+00  0.90007703190E+02  0.89999964073E+02 0.  0.
        -12    1    1    2    0    0  0.11357895984E+01 -0.22835132875E+00 -0.22569496537E+00  0.11802968095E+01  0.00000000000E+00 0.  1.
         11    1    3    3    0    0 -0.69287963261E+01  0.37431130570E+02 -0.49578129263E+01  0.38388509525E+02  0.51100000000E-03 0. -1.
        -11    1    3    3    0    0 -0.66002447353E+01  0.21981078849E+01  0.75261369812E+01  0.10248787585E+02  0.51100000000E-03 0.  1.
        -12    1    3    3    0    0  0.12393251463E+02 -0.39400887127E+02 -0.23426290895E+01  0.41370406080E+02  0.00000000000E+00 0.  1.
</event>
<event>
 7    1  0.2497665E-015  0.9000775E+02  0.7816164E-02  0.1186339E+00
        -11   -1    0    0    0    0  0.00000000000E+00  0.00000000000E+00  0.45593999997E+02  0.45594000000E+02  0.51100000000E-03 0.  1.
         11   -1    0    0    0    0 -0.00000000000E+00 -0.00000000000E+00 -0.45593999997E+02  0.45594000000E+02  0.51100000000E-03 0. -1.
    9900012    2    1    2    0    0  0.51720070130E+00  0.41117697451E+00 -0.97797312093E+00  0.90007748122E+02  0.90000009597E+02 0.  0.
        -12    1    1    2    0    0 -0.51720070130E+00 -0.41117697451E+00  0.97797312093E+00  0.11802518778E+01  0.00000000000E+00 0.  1.
         11    1    3    3    0    0  0.27572381932E+02  0.44419639876E+01 -0.30518490855E+02  0.41368412754E+02  0.51100000000E-03 0. -1.
        -11    1    3    3    0    0  0.33009916895E+01  0.24581711834E+01  0.12643563086E+02  0.13296572471E+02  0.51100000000E-03 0.  1.
        -12    1    3    3    0    0 -0.30356172920E+02 -0.64889581964E+01  0.16896954648E+02  0.35342762897E+02  0.00000000000E+00 0.  1.
</event>
<event>
 7    1  0.2497665E-015  0.9000770E+02  0.7816164E-02  0.1186339E+00
        -11   -1    0    0    0    0  0.00000000000E+00  0.00000000000E+00  0.45593999997E+02  0.45594000000E+02  0.51100000000E-03 0.  1.
         11   -1    0    0    0    0 -0.00000000000E+00 -0.00000000000E+00 -0.45593999997E+02  0.45594000000E+02  0.51100000000E-03 0. -1.
    9900012    2    1    2    0    0 -0.64552555491E+00 -0.94841388990E+00  0.27735005390E+00  0.90007696988E+02  0.89999957788E+02 0.  0.
        -12    1    1    2    0    0  0.64552555491E+00  0.94841388990E+00 -0.27735005390E+00  0.11803030124E+01  0.00000000000E+00 0.  1.
         11    1    3    3    0    0 -0.15863781630E+01 -0.65555840550E+01 -0.72190888282E+01  0.98796519042E+01  0.51100000000E-03 0. -1.
        -11    1    3    3    0    0  0.73937424322E+01 -0.17160274244E+02  0.37510681000E+02  0.41906963964E+02  0.51100000000E-03 0.  1.
         12    1    3    3    0    0 -0.64528898241E+01  0.22767444410E+02 -0.30014242118E+02  0.38221081120E+02  0.00000000000E+00 0. -1.
</event>
<event>
 7    1  0.2497665E-015  0.9000792E+02  0.7816164E-02  0.1186339E+00
        -11   -1    0    0    0    0  0.00000000000E+00  0.00000000000E+00  0.45593999997E+02  0.45594000000E+02  0.51100000000E-03 0.  1.
         11   -1    0    0    0    0 -0.00000000000E+00 -0.00000000000E+00 -0.45593999997E+02  0.45594000000E+02  0.51100000000E-03 0. -1.
    9900012    2    1    2    0    0  0.73462513916E+00  0.50920244552E+00 -0.77047138365E+00  0.90007920605E+02  0.90000184357E+02 0.  0.
        -12    1    1    2    0    0 -0.73462513916E+00 -0.50920244552E+00  0.77047138365E+00  0.11800793951E+01  0.00000000000E+00 0.  1.
         11    1    3    3    0    0 -0.47562783739E+01 -0.61947668783E+01  0.32062296181E+01  0.84425842769E+01  0.51100000000E-03 0. -1.
        -11    1    3    3    0    0  0.17577997910E+02 -0.27904512660E+02  0.19232222256E+02  0.38177561610E+02  0.51100000000E-03 0.  1.
         12    1    3    3    0    0 -0.12087094397E+02  0.34608481984E+02 -0.23208923258E+02  0.43387774718E+02  0.00000000000E+00 0. -1.
</event>
<event>
 7    1  0.2497665E-015  0.9000891E+02  0.7816164E-02  0.1186337E+00
        -11   -1    0    0    0    0  0.00000000000E+00  0.00000000000E+00  0.45593999997E+02  0.45594000000E+02  0.51100000000E-03 0.  1.
         11   -1    0    0    0    0 -0.00000000000E+00 -0.00000000000E+00 -0.45593999997E+02  0.45594000000E+02  0.51100000000E-03 0. -1.
    9900012    2    1    2    0    0  0.45720217989E+00  0.24674368462E+00 -0.10584633538E+01  0.90008906725E+02  0.90001183486E+02 0.  0.
        -12    1    1    2    0    0 -0.45720217989E+00 -0.24674368462E+00  0.10584633538E+01  0.11790932747E+01  0.00000000000E+00 0.  1.
         11    1    3    3    0    0 -0.24742133921E+01  0.80862819228E+01 -0.24730969409E+01  0.88105559407E+01  0.51100000000E-03 0. -1.
        -11    1    3    3    0    0  0.93985443337E+01  0.35151522818E+02  0.79235946918E+01  0.37239032548E+02  0.51100000000E-03 0.  1.
         12    1    3    3    0    0 -0.64671287616E+01 -0.42991061056E+02 -0.65089611048E+01  0.43959318236E+02  0.00000000000E+00 0. -1.
</event>
<event>
 7    1  0.2497665E-015  0.9000765E+02  0.7816164E-02  0.1186339E+00
        -11   -1    0    0    0    0  0.00000000000E+00  0.00000000000E+00  0.45593999997E+02  0.45594000000E+02  0.51100000000E-03 0.  1.
         11   -1    0    0    0    0 -0.00000000000E+00 -0.00000000000E+00 -0.45593999997E+02  0.45594000000E+02  0.51100000000E-03 0. -1.
    9900012    2    1    2    0    0  0.49282867203E+00  0.99407791353E+00 -0.40268688601E+00  0.90007649321E+02  0.89999909492E+02 0.  0.
        -12    1    1    2    0    0 -0.49282867203E+00 -0.99407791353E+00  0.40268688601E+00  0.11803506794E+01  0.00000000000E+00 0.  1.
         11    1    3    3    0    0  0.95915391516E+01  0.31598792982E+00  0.14573189615E+01  0.97067631312E+01  0.51100000000E-03 0. -1.
        -11    1    3    3    0    0  0.47718950920E+01 -0.14338485915E+02  0.35016026685E+02  0.38137714748E+02  0.51100000000E-03 0.  1.
         12    1    3    3    0    0 -0.13870605572E+02  0.15016575899E+02 -0.36876032533E+02  0.42163171442E+02  0.00000000000E+00 0. -1.
</event>
<event>
 7    1  0.2497665E-015  0.9000770E+02  0.7816164E-02  0.1186339E+00
        -11   -1    0    0    0    0  0.00000000000E+00  0.00000000000E+00  0.45593999997E+02  0.45594000000E+02  0.51100000000E-03 0.  1.
         11   -1    0    0    0    0 -0.00000000000E+00 -0.00000000000E+00 -0.45593999997E+02  0.45594000000E+02  0.51100000000E-03 0. -1.
    9900012    2    1    2    0    0 -0.84909103740E+00 -0.77526462938E+00  0.26667146959E+00  0.90007701517E+02  0.89999962377E+02 0.  0.
        -12    1    1    2    0    0  0.84909103740E+00  0.77526462938E+00 -0.26667146959E+00  0.11802984826E+01  0.00000000000E+00 0.  1.
         11    1    3    3    0    0 -0.72311698502E+01  0.72166731848E+01  0.36812565300E+00  0.10222803237E+02  0.51100000000E-03 0. -1.
        -11    1    3    3    0    0 -0.10604523617E+02 -0.38749161976E+02 -0.13199318998E+02  0.42286824157E+02  0.51100000000E-03 0.  1.
         12    1    3    3    0    0  0.16986602430E+02  0.30757224162E+02  0.13097864814E+02  0.37498074124E+02  0.00000000000E+00 0. -1.
</event>
<event>
 7    1  0.2497665E-015  0.9000768E+02  0.7816164E-02  0.1186339E+00
        -11   -1    0    0    0    0  0.00000000000E+00  0.00000000000E+00  0.45593999997E+02  0.45594000000E+02  0.51100000000E-03 0.  1.
         11   -1    0    0    0    0 -0.00000000000E+00 -0.00000000000E+00 -0.45593999997E+02  0.45594000000E+02  0.51100000000E-03 0. -1.
    9900012    2    1    2    0    0 -0.18984448831E+00 -0.10426077233E+01  0.51970472901E+00  0.90007675977E+02  0.89999936500E+02 0.  0.
        -12    1    1    2    0    0  0.18984448831E+00  0.10426077233E+01 -0.51970472901E+00  0.11803240232E+01  0.00000000000E+00 0.  1.
         11    1    3    3    0    0 -0.44123174380E+01 -0.74460404457E+01  0.20325398756E+01  0.88906288923E+01  0.51100000000E-03 0. -1.
        -11    1    3    3    0    0 -0.32013289857E+02  0.12595003242E+02 -0.20184450005E+02  0.39886048393E+02  0.51100000000E-03 0.  1.
         12    1    3    3    0    0  0.36235762806E+02 -0.61915705197E+01  0.18671614859E+02  0.41230998692E+02  0.00000000000E+00 0. -1.
</event>
<event>
 7    1  0.2497665E-015  0.9000773E+02  0.7816164E-02  0.1186339E+00
        -11   -1    0    0    0    0  0.00000000000E+00  0.00000000000E+00  0.45593999997E+02  0.45594000000E+02  0.51100000000E-03 0.  1.
         11   -1    0    0    0    0 -0.00000000000E+00 -0.00000000000E+00 -0.45593999997E+02  0.45594000000E+02  0.51100000000E-03 0. -1.
    9900012    2    1    2    0    0 -0.49420031405E+00  0.40532455447E+00 -0.99222527761E+00  0.90007731833E+02  0.89999993093E+02 0.  0.
        -12    1    1    2    0    0  0.49420031405E+00 -0.40532455447E+00  0.99222527761E+00  0.11802681672E+01  0.00000000000E+00 0.  1.
         11    1    3    3    0    0  0.38282669925E+02  0.10628766552E+01 -0.48551773571E+01  0.38603954082E+02  0.51100000000E-03 0. -1.
        -11    1    3    3    0    0  0.98973851455E+00  0.99106542875E+01  0.23270568211E+01  0.10228188718E+02  0.51100000000E-03 0.  1.
        -12    1    3    3    0    0 -0.39766608753E+02 -0.10568206388E+02  0.15358952584E+01  0.41175589033E+02  0.00000000000E+00 0.  1.
</event>
<event>
 7    1  0.2497665E-015  0.9000788E+02  0.7816164E-02  0.1186339E+00
        -11   -1    0    0    0    0  0.00000000000E+00  0.00000000000E+00  0.45593999997E+02  0.45594000000E+02  0.51100000000E-03 0.  1.
         11   -1    0    0    0    0 -0.00000000000E+00 -0.00000000000E+00 -0.45593999997E+02  0.45594000000E+02  0.51100000000E-03 0. -1.
    9900012    2    1    2    0    0 -0.58438127396E+00  0.89202887980E+00 -0.50543955875E+00  0.90007878759E+02  0.90000141959E+02 0.  0.
        -12    1    1    2    0    0  0.58438127396E+00 -0.89202887980E+00  0.50543955875E+00  0.11801212409E+01  0.00000000000E+00 0.  1.
         11    1    3    3    0    0  0.76867925666E+01 -0.59116694718E+01  0.20412550179E+01  0.99096588344E+01  0.51100000000E-03 0. -1.
        -11    1    3    3    0    0  0.28833630741E+02 -0.14163919706E+02 -0.15341208614E+02  0.35599825353E+02  0.51100000000E-03 0.  1.
         12    1    3    3    0    0 -0.37104804582E+02  0.20967618057E+02  0.12794514037E+02  0.44498394572E+02  0.00000000000E+00 0. -1.
</event>
<event>
 7    1  0.2497665E-015  0.9000772E+02  0.7816164E-02  0.1186339E+00
        -11   -1    0    0    0    0  0.00000000000E+00  0.00000000000E+00  0.45593999997E+02  0.45594000000E+02  0.51100000000E-03 0. -1.
         11   -1    0    0    0    0 -0.00000000000E+00 -0.00000000000E+00 -0.45593999997E+02  0.45594000000E+02  0.51100000000E-03 0.  1.
    9900012    2    1    2    0    0  0.35096617958E+00  0.10998067744E+01 -0.24557553787E+00  0.90007720565E+02  0.89999981676E+02 0.  0.
        -12    1    1    2    0    0 -0.35096617958E+00 -0.10998067744E+01  0.24557553787E+00  0.11802794352E+01  0.00000000000E+00 0.  1.
         11    1    3    3    0    0  0.18204900129E+02  0.16743373006E+02  0.35508845631E+02  0.43273976552E+02  0.51100000000E-03 0. -1.
        -11    1    3    3    0    0  0.10844300626E+01 -0.78345327876E+01 -0.37948782225E+01  0.87725135250E+01  0.51100000000E-03 0.  1.
        -12    1    3    3    0    0 -0.18938364012E+02 -0.78090334443E+01 -0.31959542946E+02  0.37961230488E+02  0.00000000000E+00 0.  1.
</event>
<event>
 7    1  0.2497665E-015  0.9000775E+02  0.7816164E-02  0.1186339E+00
        -11   -1    0    0    0    0  0.00000000000E+00  0.00000000000E+00  0.45593999997E+02  0.45594000000E+02  0.51100000000E-03 0.  1.
         11   -1    0    0    0    0 -0.00000000000E+00 -0.00000000000E+00 -0.45593999997E+02  0.45594000000E+02  0.51100000000E-03 0. -1.
    9900012    2    1    2    0    0 -0.10359101833E+01 -0.18592271003E+00 -0.53415134770E+00  0.90007747983E+02  0.90000009456E+02 0.  0.
        -12    1    1    2    0    0  0.10359101833E+01  0.18592271003E+00  0.53415134770E+00  0.11802520172E+01  0.00000000000E+00 0.  1.
         11    1    3    3    0    0  0.10896610344E+01 -0.28554954262E+01  0.90228033566E+01  0.95263946995E+01  0.51100000000E-03 0. -1.
        -11    1    3    3    0    0 -0.18929990601E+01  0.41263472349E+02 -0.55905662563E+01  0.41683474269E+02  0.51100000000E-03 0.  1.
         12    1    3    3    0    0 -0.23257215762E+00 -0.38593899633E+02 -0.39663884479E+01  0.38797879015E+02  0.00000000000E+00 0. -1.
</event>
<event>
 7    1  0.2497665E-015  0.9000772E+02  0.7816164E-02  0.1186339E+00
        -11   -1    0    0    0    0  0.00000000000E+00  0.00000000000E+00  0.45593999997E+02  0.45594000000E+02  0.51100000000E-03 0.  1.
         11   -1    0    0    0    0 -0.00000000000E+00 -0.00000000000E+00 -0.45593999997E+02  0.45594000000E+02  0.51100000000E-03 0. -1.
    9900012    2    1    2    0    0 -0.50308478243E+00  0.68974592360E+00 -0.81499106945E+00  0.90007722837E+02  0.89999983979E+02 0.  0.
        -12    1    1    2    0    0  0.50308478243E+00 -0.68974592360E+00  0.81499106945E+00  0.11802771627E+01  0.00000000000E+00 0.  1.
         11    1    3    3    0    0  0.40580524011E+02 -0.67761769447E+01 -0.28188457718E+01  0.41238833576E+02  0.51100000000E-03 0. -1.
        -11    1    3    3    0    0 -0.49342914619E+01 -0.75768268713E+01  0.32134658514E+01  0.95959314664E+01  0.51100000000E-03 0.  1.
        -12    1    3    3    0    0 -0.36149317331E+02  0.15042749740E+02 -0.12096111491E+01  0.39172957795E+02  0.00000000000E+00 0.  1.
</event>
<event>
 7    1  0.2497665E-015  0.9000776E+02  0.7816164E-02  0.1186339E+00
        -11   -1    0    0    0    0  0.00000000000E+00  0.00000000000E+00  0.45593999997E+02  0.45594000000E+02  0.51100000000E-03 0.  1.
         11   -1    0    0    0    0 -0.00000000000E+00 -0.00000000000E+00 -0.45593999997E+02  0.45594000000E+02  0.51100000000E-03 0. -1.
    9900012    2    1    2    0    0 -0.27911878634E+00  0.11138437570E+01  0.27276846853E+00  0.90007763647E+02  0.90000025327E+02 0.  0.
        -12    1    1    2    0    0  0.27911878634E+00 -0.11138437570E+01 -0.27276846853E+00  0.11802363531E+01  0.00000000000E+00 0.  1.
         11    1    3    3    0    0 -0.17411058436E+01 -0.32904041231E+02 -0.14767133561E+02  0.36107833122E+02  0.51100000000E-03 0. -1.
        -11    1    3    3    0    0  0.52704049122E+01 -0.75474223272E+01 -0.83566048758E+00  0.92433262646E+01  0.51100000000E-03 0.  1.
        -12    1    3    3    0    0 -0.38084178550E+01  0.41565307315E+02  0.15875562517E+02  0.44656604260E+02  0.00000000000E+00 0.  1.
</event>
<event>
 7    1  0.2497665E-015  0.9000758E+02  0.7816164E-02  0.1186339E+00
        -11   -1    0    0    0    0  0.00000000000E+00  0.00000000000E+00  0.45593999997E+02  0.45594000000E+02  0.51100000000E-03 0.  1.
         11   -1    0    0    0    0 -0.00000000000E+00 -0.00000000000E+00 -0.45593999997E+02  0.45594000000E+02  0.51100000000E-03 0. -1.
    9900012    2    1    2    0    0  0.20930937528E+00  0.90760400221E+00 -0.72514299530E+00  0.90007581514E+02  0.89999840789E+02 0.  0.
        -12    1    1    2    0    0 -0.20930937528E+00 -0.90760400221E+00  0.72514299530E+00  0.11804184864E+01  0.00000000000E+00 0.  1.
         11    1    3    3    0    0  0.31692415934E+02 -0.16995725264E+02  0.12339996314E+02  0.38020250056E+02  0.51100000000E-03 0. -1.
        -11    1    3    3    0    0 -0.75192164992E+01 -0.87163271100E+01  0.41643528874E+01  0.12241519934E+02  0.51100000000E-03 0.  1.
        -12    1    3    3    0    0 -0.23963890060E+02  0.26619656376E+02 -0.17229492197E+02  0.39745811525E+02  0.00000000000E+00 0.  1.
</event>
<event>
 7    1  0.2497665E-015  0.9000766E+02  0.7816164E-02  0.1186339E+00
        -11   -1    0    0    0    0  0.00000000000E+00  0.00000000000E+00  0.45593999997E+02  0.45594000000E+02  0.51100000000E-03 0.  1.
         11   -1    0    0    0    0 -0.00000000000E+00 -0.00000000000E+00 -0.45593999997E+02  0.45594000000E+02  0.51100000000E-03 0. -1.
    9900012    2    1    2    0    0  0.30643663719E+00  0.68469052089E+00  0.91131370328E+00  0.90007662257E+02  0.89999922599E+02 0.  0.
        -12    1    1    2    0    0 -0.30643663719E+00 -0.68469052089E+00 -0.91131370328E+00  0.11803377431E+01  0.00000000000E+00 0.  1.
         11    1    3    3    0    0  0.71999221517E+01  0.15238955249E+02 -0.33129364382E+02  0.37170141521E+02  0.51100000000E-03 0. -1.
        -11    1    3    3    0    0  0.30680446264E+01 -0.21569559598E+01 -0.74842260930E+01  0.83713199267E+01  0.51100000000E-03 0.  1.
        -12    1    3    3    0    0 -0.99615301410E+01 -0.12397308768E+02  0.41524904178E+02  0.44466200810E+02  0.00000000000E+00 0.  1.
</event>
<event>
 7    1  0.2497665E-015  0.9000773E+02  0.7816164E-02  0.1186339E+00
        -11   -1    0    0    0    0  0.00000000000E+00  0.00000000000E+00  0.45593999997E+02  0.45594000000E+02  0.51100000000E-03 0.  1.
         11   -1    0    0    0    0 -0.00000000000E+00 -0.00000000000E+00 -0.45593999997E+02  0.45594000000E+02  0.51100000000E-03 0. -1.
    9900012    2    1    2    0    0  0.24908298454E+00 -0.11522768165E+01 -0.56965154799E-01  0.90007733410E+02  0.89999994691E+02 0.  0.
        -12    1    1    2    0    0 -0.24908298454E+00  0.11522768165E+01  0.56965154799E-01  0.11802665902E+01  0.00000000000E+00 0.  1.
         11    1    3    3    0    0 -0.45909301265E+01 -0.31920430267E+02 -0.23652269103E+02  0.39992753617E+02  0.51100000000E-03 0. -1.
        -11    1    3    3    0    0  0.10618434246E+02 -0.88235530803E+00  0.10045163941E+01  0.10702277803E+02  0.51100000000E-03 0.  1.
        -12    1    3    3    0    0 -0.57784211346E+01  0.31650508759E+02  0.22590787554E+02  0.39312701991E+02  0.00000000000E+00 0.  1.
</event>
<event>
 7    1  0.2497665E-015  0.9000767E+02  0.7816164E-02  0.1186339E+00
        -11   -1    0    0    0    0  0.00000000000E+00  0.00000000000E+00  0.45593999997E+02  0.45594000000E+02  0.51100000000E-03 0.  1.
         11   -1    0    0    0    0 -0.00000000000E+00 -0.00000000000E+00 -0.45593999997E+02  0.45594000000E+02  0.51100000000E-03 0. -1.
    9900012    2    1    2    0    0 -0.20761923610E-01 -0.10606201807E+01 -0.51753365968E+00  0.90007666439E+02  0.89999926836E+02 0.  0.
        -12    1    1    2    0    0  0.20761923610E-01  0.10606201807E+01  0.51753365968E+00  0.11803335605E+01  0.00000000000E+00 0.  1.
         11    1    3    3    0    0 -0.50502282114E+01  0.84362790908E+01  0.25542109228E+01  0.10158720568E+02  0.51100000000E-03 0. -1.
        -11    1    3    3    0    0 -0.23729645459E+02 -0.22965662766E+02 -0.24861598061E+02  0.41335418207E+02  0.51100000000E-03 0.  1.
         12    1    3    3    0    0  0.28759111747E+02  0.13468763494E+02  0.21789853478E+02  0.38513527665E+02  0.00000000000E+00 0. -1.
</event>
<event>
 7    1  0.2497665E-015  0.9000776E+02  0.7816164E-02  0.1186339E+00
        -11   -1    0    0    0    0  0.00000000000E+00  0.00000000000E+00  0.45593999997E+02  0.45594000000E+02  0.51100000000E-03 0.  1.
         11   -1    0    0    0    0 -0.00000000000E+00 -0.00000000000E+00 -0.45593999997E+02  0.45594000000E+02  0.51100000000E-03 0. -1.
    9900012    2    1    2    0    0 -0.46675752446E+00 -0.29598019775E+00 -0.10428292661E+01  0.90007762845E+02  0.90000024514E+02 0.  0.
        -12    1    1    2    0    0  0.46675752446E+00  0.29598019775E+00  0.10428292661E+01  0.11802371551E+01  0.00000000000E+00 0.  1.
         11    1    3    3    0    0  0.91465547130E+01  0.27285981744E+02 -0.28059687478E+02  0.40193660252E+02  0.51100000000E-03 0. -1.
        -11    1    3    3    0    0 -0.27809818101E+01  0.50526188826E+01  0.11861321818E+02  0.13189153609E+02  0.51100000000E-03 0.  1.
        -12    1    3    3    0    0 -0.68323304274E+01 -0.32634580825E+02  0.15155536394E+02  0.36624948983E+02  0.00000000000E+00 0.  1.
</event>
<event>
 7    1  0.2497665E-015  0.9000773E+02  0.7816164E-02  0.1186339E+00
        -11   -1    0    0    0    0  0.00000000000E+00  0.00000000000E+00  0.45593999997E+02  0.45594000000E+02  0.51100000000E-03 0.  1.
         11   -1    0    0    0    0 -0.00000000000E+00 -0.00000000000E+00 -0.45593999997E+02  0.45594000000E+02  0.51100000000E-03 0. -1.
    9900012    2    1    2    0    0 -0.28935730972E+00 -0.94292529941E+00 -0.64823580672E+00  0.90007726543E+02  0.89999987733E+02 0.  0.
        -12    1    1    2    0    0  0.28935730972E+00  0.94292529941E+00  0.64823580672E+00  0.11802734573E+01  0.00000000000E+00 0.  1.
         11    1    3    3    0    0 -0.44805935197E+01  0.10776714589E+02  0.10625314266E+02  0.15783237917E+02  0.51100000000E-03 0. -1.
        -11    1    3    3    0    0 -0.14915244939E+02  0.71689844417E+01  0.24450905834E+02  0.29524661995E+02  0.51100000000E-03 0.  1.
         12    1    3    3    0    0  0.19106481149E+02 -0.18888624330E+02 -0.35724455907E+02  0.44699826631E+02  0.00000000000E+00 0. -1.
</event>
<event>
 7    1  0.2497665E-015  0.9000775E+02  0.7816164E-02  0.1186339E+00
        -11   -1    0    0    0    0  0.00000000000E+00  0.00000000000E+00  0.45593999997E+02  0.45594000000E+02  0.51100000000E-03 0.  1.
         11   -1    0    0    0    0 -0.00000000000E+00 -0.00000000000E+00 -0.45593999997E+02  0.45594000000E+02  0.51100000000E-03 0. -1.
    9900012    2    1    2    0    0 -0.39942925165E+00 -0.83550856269E+00 -0.73169526224E+00  0.90007747382E+02  0.90000008847E+02 0.  0.
        -12    1    1    2    0    0  0.39942925165E+00  0.83550856269E+00  0.73169526224E+00  0.11802526180E+01  0.00000000000E+00 0.  1.
         11    1    3    3    0    0  0.11940156096E+01  0.87778440656E+01  0.35289762729E+01  0.95357167277E+01  0.51100000000E-03 0. -1.
        -11    1    3    3    0    0  0.11534848976E+02  0.32789899813E+02  0.50284606119E+01  0.35121441984E+02  0.51100000000E-03 0.  1.
         12    1    3    3    0    0 -0.13128293837E+02 -0.42403252441E+02 -0.92891321471E+01  0.45350588670E+02  0.00000000000E+00 0. -1.
</event>
<event>
 7    1  0.2497665E-015  0.9000775E+02  0.7816164E-02  0.1186339E+00
        -11   -1    0    0    0    0  0.00000000000E+00  0.00000000000E+00  0.45593999997E+02  0.45594000000E+02  0.51100000000E-03 0.  1.
         11   -1    0    0    0    0 -0.00000000000E+00 -0.00000000000E+00 -0.45593999997E+02  0.45594000000E+02  0.51100000000E-03 0. -1.
    9900012    2    1    2    0    0  0.96622972597E+00 -0.66449151944E+00  0.13358628142E+00  0.90007748265E+02  0.90000009742E+02 0.  0.
        -12    1    1    2    0    0 -0.96622972597E+00  0.66449151944E+00 -0.13358628142E+00  0.11802517347E+01  0.00000000000E+00 0.  1.
         11    1    3    3    0    0 -0.36824957826E+01 -0.61688421444E+01 -0.61175956147E+01  0.94361202280E+01  0.51100000000E-03 0. -1.
        -11    1    3    3    0    0 -0.37042045570E+02  0.31948972889E+01  0.10412447751E+02  0.38610096829E+02  0.51100000000E-03 0.  1.
         12    1    3    3    0    0  0.41690771079E+02  0.23094533361E+01 -0.41612658549E+01  0.41961531208E+02  0.00000000000E+00 0. -1.
</event>
<event>
 7    1  0.2497665E-015  0.9000719E+02  0.7816164E-02  0.1186340E+00
        -11   -1    0    0    0    0  0.00000000000E+00  0.00000000000E+00  0.45593999997E+02  0.45594000000E+02  0.51100000000E-03 0.  1.
         11   -1    0    0    0    0 -0.00000000000E+00 -0.00000000000E+00 -0.45593999997E+02  0.45594000000E+02  0.51100000000E-03 0. -1.
    9900012    2    1    2    0    0 -0.18708161958E-01  0.10116151998E+01 -0.60876884770E+00  0.90007188915E+02  0.89999443007E+02 0.  0.
        -12    1    1    2    0    0  0.18708161958E-01 -0.10116151998E+01  0.60876884770E+00  0.11808110847E+01  0.00000000000E+00 0.  1.
         11    1    3    3    0    0 -0.31708484213E+02 -0.80311776541E+01 -0.15067919350E+02  0.36013469416E+02  0.51100000000E-03 0. -1.
        -11    1    3    3    0    0 -0.39108030330E+00 -0.11467013024E+02 -0.33575183791E+01  0.11954842593E+02  0.51100000000E-03 0.  1.
        -12    1    3    3    0    0  0.32080856354E+02  0.20509805877E+02  0.17816668882E+02  0.42038876907E+02  0.00000000000E+00 0.  1.
</event>
<event>
 7    1  0.2497665E-015  0.9000774E+02  0.7816164E-02  0.1186339E+00
        -11   -1    0    0    0    0  0.00000000000E+00  0.00000000000E+00  0.45593999997E+02  0.45594000000E+02  0.51100000000E-03 0.  1.
         11   -1    0    0    0    0 -0.00000000000E+00 -0.00000000000E+00 -0.45593999997E+02  0.45594000000E+02  0.51100000000E-03 0. -1.
    9900012    2    1    2    0    0 -0.12347286513E+00  0.11653019456E+01  0.14083649959E+00  0.90007741938E+02  0.90000003332E+02 0.  0.
        -12    1    1    2    0    0  0.12347286513E+00 -0.11653019456E+01 -0.14083649959E+00  0.11802580618E+01  0.00000000000E+00 0.  1.
         11    1    3    3    0    0 -0.38220197698E+02 -0.62029679797E+01 -0.96789661930E+01  0.39911686392E+02  0.51100000000E-03 0. -1.
        -11    1    3    3    0    0  0.25955581296E+01 -0.29340610820E+01 -0.81136383854E+01  0.90098149008E+01  0.51100000000E-03 0.  1.
        -12    1    3    3    0    0  0.35501166703E+02  0.10302331007E+02  0.17933441078E+02  0.41086240645E+02  0.00000000000E+00 0.  1.
</event>
<event>
 7    1  0.2497665E-015  0.9000771E+02  0.7816164E-02  0.1186339E+00
        -11   -1    0    0    0    0  0.00000000000E+00  0.00000000000E+00  0.45593999997E+02  0.45594000000E+02  0.51100000000E-03 0.  1.
         11   -1    0    0    0    0 -0.00000000000E+00 -0.00000000000E+00 -0.45593999997E+02  0.45594000000E+02  0.51100000000E-03 0. -1.
    9900012    2    1    2    0    0 -0.59707044110E+00 -0.10180698285E+01  0.11007211815E-01  0.90007711711E+02  0.89999972705E+02 0.  0.
        -12    1    1    2    0    0  0.59707044110E+00  0.10180698285E+01 -0.11007211815E-01  0.11802882894E+01  0.00000000000E+00 0.  1.
         11    1    3    3    0    0 -0.13432914070E+02 -0.14084177896E+02 -0.36062613351E+02  0.40979498892E+02  0.51100000000E-03 0. -1.
        -11    1    3    3    0    0  0.81964178806E+01 -0.12630045072E+01 -0.16083642334E+01  0.84476791030E+01  0.51100000000E-03 0.  1.
        -12    1    3    3    0    0  0.46394257480E+01  0.14329112575E+02  0.37681984797E+02  0.40580533716E+02  0.00000000000E+00 0.  1.
</event>
<event>
 7    1  0.2497665E-015  0.9000774E+02  0.7816164E-02  0.1186339E+00
        -11   -1    0    0    0    0  0.00000000000E+00  0.00000000000E+00  0.45593999997E+02  0.45594000000E+02  0.51100000000E-03 0. -1.
         11   -1    0    0    0    0 -0.00000000000E+00 -0.00000000000E+00 -0.45593999997E+02  0.45594000000E+02  0.51100000000E-03 0.  1.
    9900012    2    1    2    0    0 -0.27100465337E+00 -0.62785707506E+00  0.96196033247E+00  0.90007739135E+02  0.90000000491E+02 0.  0.
        -12    1    1    2    0    0  0.27100465337E+00  0.62785707506E+00 -0.96196033247E+00  0.11802608653E+01  0.00000000000E+00 0.  1.
         11    1    3    3    0    0  0.20945114057E+01 -0.67085857059E+01 -0.78009293123E+01  0.10499838027E+02  0.51100000000E-03 0. -1.
        -11    1    3    3    0    0 -0.14084111690E+02 -0.13446795031E+02 -0.29283221743E+02  0.35166540555E+02  0.51100000000E-03 0.  1.
         12    1    3    3    0    0  0.11718595631E+02  0.19527523662E+02  0.38046111387E+02  0.44341360552E+02  0.00000000000E+00 0. -1.
</event>
<event>
 7    1  0.2497665E-015  0.9000793E+02  0.7816164E-02  0.1186339E+00
        -11   -1    0    0    0    0  0.00000000000E+00  0.00000000000E+00  0.45593999997E+02  0.45594000000E+02  0.51100000000E-03 0.  1.
         11   -1    0    0    0    0 -0.00000000000E+00 -0.00000000000E+00 -0.45593999997E+02  0.45594000000E+02  0.51100000000E-03 0. -1.
    9900012    2    1    2    0    0  0.84863728519E+00 -0.52082242410E+00 -0.63335067339E+00  0.90007926140E+02  0.90000189965E+02 0.  0.
        -12    1    1    2    0    0 -0.84863728519E+00  0.52082242410E+00  0.63335067339E+00  0.11800738599E+01  0.00000000000E+00 0.  1.
         11    1    3    3    0    0  0.46437137410E+01 -0.37546459445E+01 -0.71751285980E+01  0.93350904729E+01  0.51100000000E-03 0. -1.
        -11    1    3    3    0    0  0.17934206855E+02 -0.24380947355E+02 -0.20309538389E+02  0.36449193671E+02  0.51100000000E-03 0.  1.
         12    1    3    3    0    0 -0.21729283311E+02  0.27614770875E+02  0.26851316313E+02  0.44223641997E+02  0.00000000000E+00 0. -1.
</event>
<event>
 7    1  0.2497665E-015  0.9000775E+02  0.7816164E-02  0.1186339E+00
        -11   -1    0    0    0    0  0.00000000000E+00  0.00000000000E+00  0.45593999997E+02  0.45594000000E+02  0.51100000000E-03 0.  1.
         11   -1    0    0    0    0 -0.00000000000E+00 -0.00000000000E+00 -0.45593999997E+02  0.45594000000E+02  0.51100000000E-03 0. -1.
    9900012    2    1    2    0    0  0.67980450446E+00 -0.92611146973E+00 -0.27052055065E+00  0.90007746643E+02  0.90000008099E+02 0.  0.
        -12    1    1    2    0    0 -0.67980450446E+00  0.92611146973E+00  0.27052055065E+00  0.11802533571E+01  0.00000000000E+00 0.  1.
         11    1    3    3    0    0  0.69121401345E+01  0.90695557902E+01  0.86618248036E+01  0.14319976699E+02  0.51100000000E-03 0. -1.
        -11    1    3    3    0    0 -0.12383300832E+02 -0.23063810606E+02  0.26606858879E+02  0.37325734271E+02  0.51100000000E-03 0.  1.
         12    1    3    3    0    0  0.61509652022E+01  0.13068143346E+02 -0.35539204233E+02  0.38362035673E+02  0.00000000000E+00 0. -1.
</event>
<event>
 7    1  0.2497665E-015  0.9000789E+02  0.7816164E-02  0.1186339E+00
        -11   -1    0    0    0    0  0.00000000000E+00  0.00000000000E+00  0.45593999997E+02  0.45594000000E+02  0.51100000000E-03 0. -1.
         11   -1    0    0    0    0 -0.00000000000E+00 -0.00000000000E+00 -0.45593999997E+02  0.45594000000E+02  0.51100000000E-03 0.  1.
    9900012    2    1    2    0    0  0.80590280500E+00  0.78661801415E+00  0.35273747041E+00  0.90007885194E+02  0.90000148479E+02 0.  0.
        -12    1    1    2    0    0 -0.80590280500E+00 -0.78661801415E+00 -0.35273747041E+00  0.11801148056E+01  0.00000000000E+00 0.  1.
         11    1    3    3    0    0  0.14446079031E+02  0.35957229960E+02  0.21417721536E+02  0.44275618367E+02  0.51100000000E-03 0. -1.
        -11    1    3    3    0    0  0.19830645650E+01 -0.56408048850E+01 -0.77027921361E+01  0.97511143862E+01  0.51100000000E-03 0.  1.
        -12    1    3    3    0    0 -0.15623240791E+02 -0.29529807061E+02 -0.13362191929E+02  0.35981152441E+02  0.00000000000E+00 0.  1.
</event>
<event>
 7    1  0.2497665E-015  0.9000776E+02  0.7816164E-02  0.1186339E+00
        -11   -1    0    0    0    0  0.00000000000E+00  0.00000000000E+00  0.45593999997E+02  0.45594000000E+02  0.51100000000E-03 0.  1.
         11   -1    0    0    0    0 -0.00000000000E+00 -0.00000000000E+00 -0.45593999997E+02  0.45594000000E+02  0.51100000000E-03 0. -1.
    9900012    2    1    2    0    0  0.34732657218E+00 -0.11185288266E+01 -0.14570266575E+00  0.90007757758E+02  0.90000019360E+02 0.  0.
        -12    1    1    2    0    0 -0.34732657218E+00  0.11185288266E+01  0.14570266575E+00  0.11802422423E+01  0.00000000000E+00 0.  1.
         11    1    3    3    0    0 -0.23305653808E+02 -0.18282166093E+02  0.31769126800E+02  0.43435797614E+02  0.51100000000E-03 0. -1.
        -11    1    3    3    0    0  0.40336069770E+01 -0.33819036092E+01 -0.31039261745E+01  0.61107786104E+01  0.51100000000E-03 0.  1.
        -12    1    3    3    0    0  0.19619373403E+02  0.20545540876E+02 -0.28810903291E+02  0.40461181533E+02  0.00000000000E+00 0.  1.
</event>
<event>
 7    1  0.2497665E-015  0.9000777E+02  0.7816164E-02  0.1186339E+00
        -11   -1    0    0    0    0  0.00000000000E+00  0.00000000000E+00  0.45593999997E+02  0.45594000000E+02  0.51100000000E-03 0.  1.
         11   -1    0    0    0    0 -0.00000000000E+00 -0.00000000000E+00 -0.45593999997E+02  0.45594000000E+02  0.51100000000E-03 0. -1.
    9900012    2    1    2    0    0  0.58601965267E+00 -0.95887888143E+00  0.36065176900E+00  0.90007772293E+02  0.90000034087E+02 0.  0.
        -12    1    1    2    0    0 -0.58601965267E+00  0.95887888143E+00 -0.36065176900E+00  0.11802277073E+01  0.00000000000E+00 0.  1.
         11    1    3    3    0    0 -0.66400630114E+01 -0.10837562201E+02 -0.46388474832E+00  0.12718426812E+02  0.51100000000E-03 0. -1.
        -11    1    3    3    0    0  0.24664952523E+02 -0.26711042882E+02 -0.35056029012E+01  0.36525729928E+02  0.51100000000E-03 0.  1.
         12    1    3    3    0    0 -0.17438869859E+02  0.36589726202E+02  0.43301394185E+01  0.40763615552E+02  0.00000000000E+00 0. -1.
</event>
<event>
 7    1  0.2497665E-015  0.9000776E+02  0.7816164E-02  0.1186339E+00
        -11   -1    0    0    0    0  0.00000000000E+00  0.00000000000E+00  0.45593999997E+02  0.45594000000E+02  0.51100000000E-03 0.  1.
         11   -1    0    0    0    0 -0.00000000000E+00 -0.00000000000E+00 -0.45593999997E+02  0.45594000000E+02  0.51100000000E-03 0. -1.
    9900012    2    1    2    0    0 -0.85843228655E+00  0.14767070238E+00 -0.79639737481E+00  0.90007762140E+02  0.90000023801E+02 0.  0.
        -12    1    1    2    0    0  0.85843228655E+00 -0.14767070238E+00  0.79639737481E+00  0.11802378597E+01  0.00000000000E+00 0.  1.
         11    1    3    3    0    0  0.60407045513E+01  0.11610274987E+02 -0.13057094744E+02  0.18487193409E+02  0.51100000000E-03 0. -1.
        -11    1    3    3    0    0  0.27988184747E+02  0.94097190928E+01  0.20224417349E+01  0.29596816884E+02  0.51100000000E-03 0.  1.
         12    1    3    3    0    0 -0.34887321585E+02 -0.20872323377E+02  0.10238255634E+02  0.41923751847E+02  0.00000000000E+00 0. -1.
</event>
<event>
 7    1  0.2497665E-015  0.9000783E+02  0.7816164E-02  0.1186339E+00
        -11   -1    0    0    0    0  0.00000000000E+00  0.00000000000E+00  0.45593999997E+02  0.45594000000E+02  0.51100000000E-03 0.  1.
         11   -1    0    0    0    0 -0.00000000000E+00 -0.00000000000E+00 -0.45593999997E+02  0.45594000000E+02  0.51100000000E-03 0. -1.
    9900012    2    1    2    0    0  0.11501606515E+01  0.24307261596E+00  0.10414398285E+00  0.90007830610E+02  0.90000093174E+02 0.  0.
        -12    1    1    2    0    0 -0.11501606515E+01 -0.24307261596E+00 -0.10414398285E+00  0.11801693904E+01  0.00000000000E+00 0.  1.
         11    1    3    3    0    0  0.10999825314E+02 -0.97281602617E+01 -0.16976373643E+01  0.14782260716E+02  0.51100000000E-03 0. -1.
        -11    1    3    3    0    0  0.19843822970E+02 -0.54230819264E+01  0.26572577996E+02  0.33604895912E+02  0.51100000000E-03 0.  1.
         12    1    3    3    0    0 -0.29693487632E+02  0.15394314804E+02 -0.24770796649E+02  0.41620673981E+02  0.00000000000E+00 0. -1.
</event>
<event>
 7    1  0.2497665E-015  0.9000774E+02  0.7816164E-02  0.1186339E+00
        -11   -1    0    0    0    0  0.00000000000E+00  0.00000000000E+00  0.45593999997E+02  0.45594000000E+02  0.51100000000E-03 0.  1.
         11   -1    0    0    0    0 -0.00000000000E+00 -0.00000000000E+00 -0.45593999997E+02  0.45594000000E+02  0.51100000000E-03 0. -1.
    9900012    2    1    2    0    0 -0.41645063694E+00 -0.57394466564E+00 -0.94349430903E+00  0.90007735147E+02  0.89999996451E+02 0.  0.
        -12    1    1    2    0    0  0.41645063694E+00  0.57394466564E+00  0.94349430903E+00  0.11802648531E+01  0.00000000000E+00 0.  1.
         11    1    3    3    0    0 -0.10122145815E+02 -0.34093271269E+01 -0.30166411307E+00  0.10685146179E+02  0.51100000000E-03 0. -1.
        -11    1    3    3    0    0 -0.99980090474E+01 -0.32659722325E+02 -0.13516103977E+02  0.36732856058E+02  0.51100000000E-03 0.  1.
         12    1    3    3    0    0  0.19703704225E+02  0.35495104786E+02  0.12874273781E+02  0.42589732910E+02  0.00000000000E+00 0. -1.
</event>
<event>
 7    1  0.2497665E-015  0.9000785E+02  0.7816164E-02  0.1186339E+00
        -11   -1    0    0    0    0  0.00000000000E+00  0.00000000000E+00  0.45593999997E+02  0.45594000000E+02  0.51100000000E-03 0.  1.
         11   -1    0    0    0    0 -0.00000000000E+00 -0.00000000000E+00 -0.45593999997E+02  0.45594000000E+02  0.51100000000E-03 0. -1.
    9900012    2    1    2    0    0 -0.49032441549E-01 -0.28191511189E+00 -0.11449367999E+01  0.90007847219E+02  0.90000110002E+02 0.  0.
        -12    1    1    2    0    0  0.49032441549E-01  0.28191511189E+00  0.11449367999E+01  0.11801527810E+01  0.00000000000E+00 0.  1.
         11    1    3    3    0    0 -0.16822319796E+02 -0.30292658121E+02 -0.16563876498E+02  0.38405697289E+02  0.51100000000E-03 0. -1.
        -11    1    3    3    0    0  0.35845246450E+01 -0.76324786166E+01  0.67085805952E+01  0.10775370092E+02  0.51100000000E-03 0.  1.
        -12    1    3    3    0    0  0.13188762710E+02  0.37643221626E+02  0.87103591031E+01  0.40826779837E+02  0.00000000000E+00 0.  1.
</event>
<event>
 7    1  0.2497665E-015  0.9000768E+02  0.7816164E-02  0.1186339E+00
        -11   -1    0    0    0    0  0.00000000000E+00  0.00000000000E+00  0.45593999997E+02  0.45594000000E+02  0.51100000000E-03 0. -1.
         11   -1    0    0    0    0 -0.00000000000E+00 -0.00000000000E+00 -0.45593999997E+02  0.45594000000E+02  0.51100000000E-03 0.  1.
    9900012    2    1    2    0    0 -0.82293222870E+00  0.68133221145E+00 -0.50172681739E+00  0.90007677656E+02  0.89999938201E+02 0.  0.
        -12    1    1    2    0    0  0.82293222870E+00 -0.68133221145E+00  0.50172681739E+00  0.11803223435E+01  0.00000000000E+00 0.  1.
         11    1    3    3    0    0 -0.76098125624E+01  0.61913926117E+01  0.43725160922E+01  0.10740646486E+02  0.51100000000E-03 0. -1.
        -11    1    3    3    0    0 -0.15943594762E+02  0.90166417678E+01 -0.34585593693E+02  0.39136445087E+02  0.51100000000E-03 0.  1.
         12    1    3    3    0    0  0.22730475096E+02 -0.14526702168E+02  0.29711350784E+02  0.40130586083E+02  0.00000000000E+00 0. -1.
</event>
<event>
 7    1  0.2497665E-015  0.9000769E+02  0.7816164E-02  0.1186339E+00
        -11   -1    0    0    0    0  0.00000000000E+00  0.00000000000E+00  0.45593999997E+02  0.45594000000E+02  0.51100000000E-03 0. -1.
         11   -1    0    0    0    0 -0.00000000000E+00 -0.00000000000E+00 -0.45593999997E+02  0.45594000000E+02  0.51100000000E-03 0.  1.
    9900012    2    1    2    0    0  0.58798083332E+00  0.87720250025E+00  0.52718744334E+00  0.90007689750E+02  0.89999950454E+02 0.  0.
        -12    1    1    2    0    0 -0.58798083332E+00 -0.87720250025E+00 -0.52718744334E+00  0.11803102504E+01  0.00000000000E+00 0.  1.
         11    1    3    3    0    0  0.20379621540E+02 -0.15141970914E+02  0.26339367300E+02  0.36583746764E+02  0.51100000000E-03 0. -1.
        -11    1    3    3    0    0  0.91047310307E+01 -0.55947411387E+01 -0.61375562405E+01  0.12323426975E+02  0.51100000000E-03 0.  1.
        -12    1    3    3    0    0 -0.28896371737E+02  0.21613914553E+02 -0.19674623616E+02  0.41100516010E+02  0.00000000000E+00 0.  1.
</event>
<event>
 7    1  0.2497665E-015  0.9000800E+02  0.7816164E-02  0.1186339E+00
        -11   -1    0    0    0    0  0.00000000000E+00  0.00000000000E+00  0.45593999997E+02  0.45594000000E+02  0.51100000000E-03 0.  1.
         11   -1    0    0    0    0 -0.00000000000E+00 -0.00000000000E+00 -0.45593999997E+02  0.45594000000E+02  0.51100000000E-03 0. -1.
    9900012    2    1    2    0    0  0.78773518441E+00 -0.87855492004E+00 -0.23012706427E-02  0.90008003914E+02  0.90000268765E+02 0.  0.
        -12    1    1    2    0    0 -0.78773518441E+00  0.87855492004E+00  0.23012706427E-02  0.11799960865E+01  0.00000000000E+00 0.  1.
         11    1    3    3    0    0  0.67121708287E+01  0.40186848872E+01 -0.77847784379E+01  0.11036568355E+02  0.51100000000E-03 0. -1.
        -11    1    3    3    0    0 -0.30236339498E+01  0.54067069128E-01  0.43092333847E+02  0.43198316196E+02  0.51100000000E-03 0.  1.
         12    1    3    3    0    0 -0.29008016946E+01 -0.49513068764E+01 -0.35309856680E+02  0.35773119363E+02  0.00000000000E+00 0. -1.
</event>
<event>
 7    1  0.2497665E-015  0.9000781E+02  0.7816164E-02  0.1186339E+00
        -11   -1    0    0    0    0  0.00000000000E+00  0.00000000000E+00  0.45593999997E+02  0.45594000000E+02  0.51100000000E-03 0.  1.
         11   -1    0    0    0    0 -0.00000000000E+00 -0.00000000000E+00 -0.45593999997E+02  0.45594000000E+02  0.51100000000E-03 0. -1.
    9900012    2    1    2    0    0  0.57335524919E+00 -0.74948228748E+00 -0.70879003578E+00  0.90007812195E+02  0.90000074516E+02 0.  0.
        -12    1    1    2    0    0 -0.57335524919E+00  0.74948228748E+00  0.70879003578E+00  0.11801878053E+01  0.00000000000E+00 0.  1.
         11    1    3    3    0    0 -0.31217155977E+02  0.80083345949E+01  0.20107581722E+02  0.37986301389E+02  0.51100000000E-03 0. -1.
        -11    1    3    3    0    0 -0.66486514436E+01  0.18071390743E+01 -0.70222537811E+01  0.98378029092E+01  0.51100000000E-03 0.  1.
        -12    1    3    3    0    0  0.38439162670E+02 -0.10564955957E+02 -0.13794117977E+02  0.42183707896E+02  0.00000000000E+00 0.  1.
</event>
<event>
 7    1  0.2497665E-015  0.9000777E+02  0.7816164E-02  0.1186339E+00
        -11   -1    0    0    0    0  0.00000000000E+00  0.00000000000E+00  0.45593999997E+02  0.45594000000E+02  0.51100000000E-03 0.  1.
         11   -1    0    0    0    0 -0.00000000000E+00 -0.00000000000E+00 -0.45593999997E+02  0.45594000000E+02  0.51100000000E-03 0. -1.
    9900012    2    1    2    0    0 -0.65021717197E+00  0.20452630265E+00 -0.96349371709E+00  0.90007773953E+02  0.90000035769E+02 0.  0.
        -12    1    1    2    0    0  0.65021717197E+00 -0.20452630265E+00  0.96349371709E+00  0.11802260470E+01  0.00000000000E+00 0.  1.
         11    1    3    3    0    0  0.14947479165E+02 -0.23458917533E+02 -0.29741661841E+02  0.40722406541E+02  0.51100000000E-03 0. -1.
        -11    1    3    3    0    0  0.80865987866E+01  0.35214689068E+01  0.49546731890E+01  0.10116452435E+02  0.51100000000E-03 0.  1.
        -12    1    3    3    0    0 -0.23684295123E+02  0.20141974929E+02  0.23823494935E+02  0.39168914977E+02  0.00000000000E+00 0.  1.
</event>
<event>
 7    1  0.2497665E-015  0.9000768E+02  0.7816164E-02  0.1186339E+00
        -11   -1    0    0    0    0  0.00000000000E+00  0.00000000000E+00  0.45593999997E+02  0.45594000000E+02  0.51100000000E-03 0.  1.
         11   -1    0    0    0    0 -0.00000000000E+00 -0.00000000000E+00 -0.45593999997E+02  0.45594000000E+02  0.51100000000E-03 0. -1.
    9900012    2    1    2    0    0  0.22488128802E+00 -0.45143157763E+00 -0.10671408722E+01  0.90007681524E+02  0.89999942120E+02 0.  0.
        -12    1    1    2    0    0 -0.22488128802E+00  0.45143157763E+00  0.10671408722E+01  0.11803184757E+01  0.00000000000E+00 0.  1.
         11    1    3    3    0    0  0.88148742501E+01 -0.63755453175E+01 -0.52162217659E+01  0.12064765058E+02  0.51100000000E-03 0. -1.
        -11    1    3    3    0    0 -0.21165254844E+01 -0.35522257917E+02  0.53027776191E+01  0.35978186980E+02  0.51100000000E-03 0.  1.
         12    1    3    3    0    0 -0.64734674777E+01  0.41446371657E+02 -0.11536967254E+01  0.41964729486E+02  0.00000000000E+00 0. -1.
</event>
<event>
 7    1  0.2497665E-015  0.9000774E+02  0.7816164E-02  0.1186339E+00
        -11   -1    0    0    0    0  0.00000000000E+00  0.00000000000E+00  0.45593999997E+02  0.45594000000E+02  0.51100000000E-03 0.  1.
         11   -1    0    0    0    0 -0.00000000000E+00 -0.00000000000E+00 -0.45593999997E+02  0.45594000000E+02  0.51100000000E-03 0. -1.
    9900012    2    1    2    0    0 -0.42694629592E+00  0.10503319017E+01 -0.32792145921E+00  0.90007740399E+02  0.90000001772E+02 0.  0.
        -12    1    1    2    0    0  0.42694629592E+00 -0.10503319017E+01  0.32792145921E+00  0.11802596015E+01  0.00000000000E+00 0.  1.
         11    1    3    3    0    0 -0.12755991966E+02 -0.16090065271E+01  0.93619021405E+00  0.12891108774E+02  0.51100000000E-03 0. -1.
        -11    1    3    3    0    0 -0.31897771813E+02 -0.18519319127E+01 -0.56401358694E+01  0.32445471661E+02  0.51100000000E-03 0.  1.
         12    1    3    3    0    0  0.44226817483E+02  0.45112703416E+01  0.43760241961E+01  0.44671159964E+02  0.00000000000E+00 0. -1.
</event>
<event>
 7    1  0.2497665E-015  0.9000770E+02  0.7816164E-02  0.1186339E+00
        -11   -1    0    0    0    0  0.00000000000E+00  0.00000000000E+00  0.45593999997E+02  0.45594000000E+02  0.51100000000E-03 0. -1.
         11   -1    0    0    0    0 -0.00000000000E+00 -0.00000000000E+00 -0.45593999997E+02  0.45594000000E+02  0.51100000000E-03 0.  1.
    9900012    2    1    2    0    0  0.99457253232E+00 -0.63553770324E+00 -0.46072542103E-02  0.90007701766E+02  0.89999962629E+02 0.  0.
        -12    1    1    2    0    0 -0.99457253232E+00  0.63553770324E+00  0.46072542103E-02  0.11802982340E+01  0.00000000000E+00 0.  1.
         11    1    3    3    0    0  0.10855143844E+01 -0.19477218864E+02  0.11491220690E+02  0.22640418489E+02  0.51100000000E-03 0. -1.
        -11    1    3    3    0    0  0.43997810379E+01 -0.22840297899E+02 -0.10268958462E+02  0.25426143818E+02  0.51100000000E-03 0.  1.
        -12    1    3    3    0    0 -0.44907228900E+01  0.41681979060E+02 -0.12268694826E+01  0.41941139459E+02  0.00000000000E+00 0.  1.
</event>
<event>
 7    1  0.2497665E-015  0.9000776E+02  0.7816164E-02  0.1186339E+00
        -11   -1    0    0    0    0  0.00000000000E+00  0.00000000000E+00  0.45593999997E+02  0.45594000000E+02  0.51100000000E-03 0.  1.
         11   -1    0    0    0    0 -0.00000000000E+00 -0.00000000000E+00 -0.45593999997E+02  0.45594000000E+02  0.51100000000E-03 0. -1.
    9900012    2    1    2    0    0 -0.82877950527E+00  0.71800449222E+00 -0.43652414991E+00  0.90007763052E+02  0.90000024725E+02 0.  0.
        -12    1    1    2    0    0  0.82877950527E+00 -0.71800449222E+00  0.43652414991E+00  0.11802369477E+01  0.00000000000E+00 0.  1.
         11    1    3    3    0    0 -0.31272030969E+02  0.12887155899E+01  0.25953210222E+02  0.40659191211E+02  0.51100000000E-03 0. -1.
        -11    1    3    3    0    0  0.29366534640E+01 -0.83708066379E+01  0.19599873118E+01  0.90849264092E+01  0.51100000000E-03 0.  1.
        -12    1    3    3    0    0  0.27506598000E+02  0.78000955402E+01 -0.28349721684E+02  0.40263645432E+02  0.00000000000E+00 0.  1.
</event>
<event>
 7    1  0.2497665E-015  0.9000772E+02  0.7816164E-02  0.1186339E+00
        -11   -1    0    0    0    0  0.00000000000E+00  0.00000000000E+00  0.45593999997E+02  0.45594000000E+02  0.51100000000E-03 0. -1.
         11   -1    0    0    0    0 -0.00000000000E+00 -0.00000000000E+00 -0.45593999997E+02  0.45594000000E+02  0.51100000000E-03 0.  1.
    9900012    2    1    2    0    0  0.17516529590E+00 -0.17690568224E+00  0.11537296169E+01  0.90007715911E+02  0.89999976961E+02 0.  0.
        -12    1    1    2    0    0 -0.17516529590E+00  0.17690568224E+00 -0.11537296169E+01  0.11802840888E+01  0.00000000000E+00 0.  1.
         11    1    3    3    0    0 -0.10419945279E+01 -0.88284405162E+01 -0.22707901897E+01  0.91751622814E+01  0.51100000000E-03 0. -1.
        -11    1    3    3    0    0  0.65178744268E+00 -0.14150178130E+02 -0.34097040564E+02  0.36922358314E+02  0.51100000000E-03 0.  1.
         12    1    3    3    0    0  0.56537238111E+00  0.22801712964E+02  0.37521560371E+02  0.43910195316E+02  0.00000000000E+00 0. -1.
</event>
<event>
 7    1  0.2497665E-015  0.9000771E+02  0.7816164E-02  0.1186339E+00
        -11   -1    0    0    0    0  0.00000000000E+00  0.00000000000E+00  0.45593999997E+02  0.45594000000E+02  0.51100000000E-03 0.  1.
         11   -1    0    0    0    0 -0.00000000000E+00 -0.00000000000E+00 -0.45593999997E+02  0.45594000000E+02  0.51100000000E-03 0. -1.
    9900012    2    1    2    0    0  0.87194275204E+00  0.61872816441E-01 -0.79308223410E+00  0.90007706885E+02  0.89999967815E+02 0.  0.
        -12    1    1    2    0    0 -0.87194275204E+00 -0.61872816441E-01  0.79308223410E+00  0.11802931154E+01  0.00000000000E+00 0.  1.
         11    1    3    3    0    0 -0.27815867840E+02 -0.42000510772E+01 -0.63902627328E+01  0.28847848980E+02  0.51100000000E-03 0. -1.
        -11    1    3    3    0    0 -0.11877773990E+02 -0.12271396545E+02  0.22650624363E+01  0.17227861046E+02  0.51100000000E-03 0.  1.
        -12    1    3    3    0    0  0.40565584582E+02  0.16533320439E+02  0.33321180623E+01  0.43931996858E+02  0.00000000000E+00 0.  1.
</event>
<event>
 7    1  0.2497665E-015  0.9000774E+02  0.7816164E-02  0.1186339E+00
        -11   -1    0    0    0    0  0.00000000000E+00  0.00000000000E+00  0.45593999997E+02  0.45594000000E+02  0.51100000000E-03 0.  1.
         11   -1    0    0    0    0 -0.00000000000E+00 -0.00000000000E+00 -0.45593999997E+02  0.45594000000E+02  0.51100000000E-03 0. -1.
    9900012    2    1    2    0    0 -0.70943736165E+00  0.94271536732E+00  0.31561293483E-01  0.90007741660E+02  0.90000003050E+02 0.  0.
        -12    1    1    2    0    0  0.70943736165E+00 -0.94271536732E+00 -0.31561293483E-01  0.11802583400E+01  0.00000000000E+00 0.  1.
         11    1    3    3    0    0  0.12336893621E+02 -0.70209970341E+01  0.80176187458E+01  0.16302624150E+02  0.51100000000E-03 0. -1.
        -11    1    3    3    0    0  0.17136629157E+02 -0.12037111488E+02  0.19212226530E+02  0.28419460944E+02  0.51100000000E-03 0.  1.
        -12    1    3    3    0    0 -0.30182960140E+02  0.20000823889E+02 -0.27198283982E+02  0.45285656566E+02  0.00000000000E+00 0.  1.
</event>
<event>
 7    1  0.2497665E-015  0.9000797E+02  0.7816164E-02  0.1186339E+00
        -11   -1    0    0    0    0  0.00000000000E+00  0.00000000000E+00  0.45593999997E+02  0.45594000000E+02  0.51100000000E-03 0. -1.
         11   -1    0    0    0    0 -0.00000000000E+00 -0.00000000000E+00 -0.45593999997E+02  0.45594000000E+02  0.51100000000E-03 0.  1.
    9900012    2    1    2    0    0 -0.48728508705E+00  0.10439299582E+01 -0.25542750493E+00  0.90007966219E+02  0.90000230573E+02 0.  0.
        -12    1    1    2    0    0  0.48728508705E+00 -0.10439299582E+01  0.25542750493E+00  0.11800337809E+01  0.00000000000E+00 0.  1.
         11    1    3    3    0    0  0.98273906518E-01  0.16950589672E+02 -0.20970558134E+02  0.26964726156E+02  0.51100000000E-03 0. -1.
        -11    1    3    3    0    0 -0.14850383204E+01 -0.40373439910E+01 -0.20085858147E+02  0.20541353000E+02  0.51100000000E-03 0.  1.
         12    1    3    3    0    0  0.89947932682E+00 -0.11869315723E+02  0.40800988776E+02  0.42501887063E+02  0.00000000000E+00 0. -1.
</event>
<event>
 7    1  0.3978393E-015  0.9000793E+02  0.7816164E-02  0.1186339E+00
        -11   -1    0    0    0    0  0.00000000000E+00  0.00000000000E+00  0.45593999997E+02  0.45594000000E+02  0.51100000000E-03 0. -1.
         11   -1    0    0    0    0 -0.00000000000E+00 -0.00000000000E+00 -0.45593999997E+02  0.45594000000E+02  0.51100000000E-03 0.  1.
    9900012    2    1    2    0    0 -0.41255425437E+00  0.96774457663E+00  0.53462499704E+00  0.90007934550E+02  0.90000198486E+02 0.  0.
        -12    1    1    2    0    0  0.41255425437E+00 -0.96774457663E+00 -0.53462499704E+00  0.11800654498E+01  0.00000000000E+00 0.  1.
         11    1    3    3    0    0 -0.13503397141E+01 -0.13757626541E+02  0.35811697076E+02  0.38387150886E+02  0.51100000000E-03 0. -1.
        -11    1    3    3    0    0  0.13248090298E+01 -0.94677118990E+01 -0.92764196740E+00  0.96048533278E+01  0.51100000000E-03 0.  1.
        -12    1    3    3    0    0 -0.38702357012E+00  0.24193083016E+02 -0.34349430112E+02  0.42015930337E+02  0.00000000000E+00 0.  1.
</event>
<event>
 7    1  0.2497665E-015  0.9000778E+02  0.7816164E-02  0.1186339E+00
        -11   -1    0    0    0    0  0.00000000000E+00  0.00000000000E+00  0.45593999997E+02  0.45594000000E+02  0.51100000000E-03 0. -1.
         11   -1    0    0    0    0 -0.00000000000E+00 -0.00000000000E+00 -0.45593999997E+02  0.45594000000E+02  0.51100000000E-03 0.  1.
    9900012    2    1    2    0    0 -0.15570379804E+00  0.76365581755E+00  0.88628960941E+00  0.90007778346E+02  0.90000040220E+02 0.  0.
        -12    1    1    2    0    0  0.15570379804E+00 -0.76365581755E+00 -0.88628960941E+00  0.11802216538E+01  0.00000000000E+00 0.  1.
         11    1    3    3    0    0 -0.14402083603E+01  0.23487636780E+01  0.92857617994E+01  0.96858795879E+01  0.51100000000E-03 0. -1.
        -11    1    3    3    0    0 -0.75878403712E+01 -0.39867687448E+02 -0.40753715138E+01  0.40787454900E+02  0.51100000000E-03 0.  1.
         12    1    3    3    0    0  0.88723449335E+01  0.38282579588E+02 -0.43241006762E+01  0.39534443858E+02  0.00000000000E+00 0. -1.
</event>
<event>
 7    1  0.2497665E-015  0.9000746E+02  0.7816164E-02  0.1186340E+00
        -11   -1    0    0    0    0  0.00000000000E+00  0.00000000000E+00  0.45593999997E+02  0.45594000000E+02  0.51100000000E-03 0.  1.
         11   -1    0    0    0    0 -0.00000000000E+00 -0.00000000000E+00 -0.45593999997E+02  0.45594000000E+02  0.51100000000E-03 0. -1.
    9900012    2    1    2    0    0 -0.40117116712E+00 -0.99194069946E-04 -0.11102902967E+01  0.90007456541E+02  0.89999714167E+02 0.  0.
        -12    1    1    2    0    0  0.40117116712E+00  0.99194069941E-04  0.11102902967E+01  0.11805434588E+01  0.00000000000E+00 0.  1.
         11    1    3    3    0    0  0.49169767779E+01 -0.67773310215E+01 -0.20754355784E+01  0.86264888286E+01  0.51100000000E-03 0. -1.
        -11    1    3    3    0    0 -0.29385847540E+02 -0.26554626633E+02  0.56286028541E+01  0.40004467271E+02  0.51100000000E-03 0.  1.
         12    1    3    3    0    0  0.24067699595E+02  0.33331858461E+02 -0.46634575724E+01  0.41376500441E+02  0.00000000000E+00 0. -1.
</event>
<event>
 7    1  0.2497665E-015  0.9000777E+02  0.7816164E-02  0.1186339E+00
        -11   -1    0    0    0    0  0.00000000000E+00  0.00000000000E+00  0.45593999997E+02  0.45594000000E+02  0.51100000000E-03 0. -1.
         11   -1    0    0    0    0 -0.00000000000E+00 -0.00000000000E+00 -0.45593999997E+02  0.45594000000E+02  0.51100000000E-03 0.  1.
    9900012    2    1    2    0    0  0.24916797070E+00  0.99542168923E+00  0.58308165879E+00  0.90007774073E+02  0.90000035891E+02 0.  0.
        -12    1    1    2    0    0 -0.24916797070E+00 -0.99542168923E+00 -0.58308165879E+00  0.11802259266E+01  0.00000000000E+00 0.  1.
         11    1    3    3    0    0  0.18520117926E+01  0.93566242072E+01 -0.10539447087E+01  0.95962057057E+01  0.51100000000E-03 0. -1.
        -11    1    3    3    0    0  0.29837822397E+02  0.56097315289E+01 -0.23005201708E+02  0.38092046927E+02  0.51100000000E-03 0.  1.
         12    1    3    3    0    0 -0.31440666219E+02 -0.13970934047E+02  0.24642228076E+02  0.42319521441E+02  0.00000000000E+00 0. -1.
</event>
<event>
 7    1  0.2497665E-015  0.9000769E+02  0.7816164E-02  0.1186339E+00
        -11   -1    0    0    0    0  0.00000000000E+00  0.00000000000E+00  0.45593999997E+02  0.45594000000E+02  0.51100000000E-03 0. -1.
         11   -1    0    0    0    0 -0.00000000000E+00 -0.00000000000E+00 -0.45593999997E+02  0.45594000000E+02  0.51100000000E-03 0.  1.
    9900012    2    1    2    0    0  0.77117192033E+00 -0.44716487676E+00  0.77361225976E+00  0.90007687124E+02  0.89999947794E+02 0.  0.
        -12    1    1    2    0    0 -0.77117192033E+00  0.44716487676E+00 -0.77361225976E+00  0.11803128764E+01  0.00000000000E+00 0.  1.
         11    1    3    3    0    0 -0.63331958533E+01  0.25898501534E+01 -0.14448028596E+01  0.69931501556E+01  0.51100000000E-03 0. -1.
        -11    1    3    3    0    0 -0.20831101506E+01  0.30199235125E+02 -0.24859756965E+02  0.39170660789E+02  0.51100000000E-03 0.  1.
         12    1    3    3    0    0  0.91874779242E+01 -0.33236250155E+02  0.27078172085E+02  0.43843876179E+02  0.00000000000E+00 0. -1.
</event>
<event>
 7    1  0.2550384E-015  0.9000771E+02  0.7816164E-02  0.1186339E+00
        -11   -1    0    0    0    0  0.00000000000E+00  0.00000000000E+00  0.45593999997E+02  0.45594000000E+02  0.51100000000E-03 0. -1.
         11   -1    0    0    0    0 -0.00000000000E+00 -0.00000000000E+00 -0.45593999997E+02  0.45594000000E+02  0.51100000000E-03 0.  1.
    9900012    2    1    2    0    0  0.75379872719E+00 -0.70642197505E+00  0.57082611520E+00  0.90007708942E+02  0.89999969900E+02 0.  0.
        -12    1    1    2    0    0 -0.75379872719E+00  0.70642197505E+00 -0.57082611520E+00  0.11802910581E+01  0.00000000000E+00 0.  1.
         11    1    3    3    0    0  0.25845796956E+02  0.94172497333E+01  0.25272459715E+02  0.37354879643E+02  0.51100000000E-03 0. -1.
        -11    1    3    3    0    0  0.42467375490E+01 -0.41477017910E+01  0.69118304029E+01  0.91110707240E+01  0.51100000000E-03 0.  1.
        -12    1    3    3    0    0 -0.29338735778E+02 -0.59759699174E+01 -0.31613464003E+02  0.43541758575E+02  0.00000000000E+00 0.  1.
</event>
<event>
 7    1  0.2497665E-015  0.9000779E+02  0.7816164E-02  0.1186339E+00
        -11   -1    0    0    0    0  0.00000000000E+00  0.00000000000E+00  0.45593999997E+02  0.45594000000E+02  0.51100000000E-03 0. -1.
         11   -1    0    0    0    0 -0.00000000000E+00 -0.00000000000E+00 -0.45593999997E+02  0.45594000000E+02  0.51100000000E-03 0.  1.
    9900012    2    1    2    0    0  0.66280480130E+00 -0.85621070594E+00  0.46957388881E+00  0.90007785352E+02  0.90000047319E+02 0.  0.
        -12    1    1    2    0    0 -0.66280480130E+00  0.85621070594E+00 -0.46957388881E+00  0.11802146477E+01  0.00000000000E+00 0.  1.
         11    1    3    3    0    0  0.33160843752E+01 -0.44581291462E+01 -0.81352598493E+01  0.98515878997E+01  0.51100000000E-03 0. -1.
        -11    1    3    3    0    0 -0.25482066820E+02 -0.16646765707E+02 -0.21519754852E+02  0.37276673498E+02  0.51100000000E-03 0.  1.
         12    1    3    3    0    0  0.22828787246E+02  0.20248684147E+02  0.30124588590E+02  0.42879523954E+02  0.00000000000E+00 0. -1.
</event>
<event>
 7    1  0.2497665E-015  0.9000776E+02  0.7816164E-02  0.1186339E+00
        -11   -1    0    0    0    0  0.00000000000E+00  0.00000000000E+00  0.45593999997E+02  0.45594000000E+02  0.51100000000E-03 0.  1.
         11   -1    0    0    0    0 -0.00000000000E+00 -0.00000000000E+00 -0.45593999997E+02  0.45594000000E+02  0.51100000000E-03 0. -1.
    9900012    2    1    2    0    0  0.11270400253E+01  0.24168841947E+00  0.25362600585E+00  0.90007763303E+02  0.90000024978E+02 0.  0.
        -12    1    1    2    0    0 -0.11270400253E+01 -0.24168841947E+00 -0.25362600585E+00  0.11802366973E+01  0.00000000000E+00 0.  1.
         11    1    3    3    0    0  0.13658842514E+02  0.29533507887E+02 -0.12364674473E+02  0.34809154572E+02  0.51100000000E-03 0. -1.
        -11    1    3    3    0    0  0.11388581753E+02  0.35094315463E+01  0.79698312292E+01  0.14336461007E+02  0.51100000000E-03 0.  1.
        -12    1    3    3    0    0 -0.23920384241E+02 -0.32801251013E+02  0.46484692498E+01  0.40862147724E+02  0.00000000000E+00 0.  1.
</event>
<event>
 7    1  0.2497665E-015  0.9000782E+02  0.7816164E-02  0.1186339E+00
        -11   -1    0    0    0    0  0.00000000000E+00  0.00000000000E+00  0.45593999997E+02  0.45594000000E+02  0.51100000000E-03 0.  1.
         11   -1    0    0    0    0 -0.00000000000E+00 -0.00000000000E+00 -0.45593999997E+02  0.45594000000E+02  0.51100000000E-03 0. -1.
    9900012    2    1    2    0    0  0.67012002270E+00 -0.56169920181E+00 -0.79263421004E+00  0.90007815341E+02  0.90000077704E+02 0.  0.
        -12    1    1    2    0    0 -0.67012002270E+00  0.56169920181E+00  0.79263421004E+00  0.11801846589E+01  0.00000000000E+00 0.  1.
         11    1    3    3    0    0  0.30613897578E+02  0.32677946885E+01  0.25331850860E+02  0.39869686171E+02  0.51100000000E-03 0. -1.
        -11    1    3    3    0    0  0.62422512185E+01 -0.20265633764E+01 -0.40748373317E+01  0.77250863383E+01  0.51100000000E-03 0.  1.
        -12    1    3    3    0    0 -0.36186028774E+02 -0.18029305139E+01 -0.22049647739E+02  0.42413042832E+02  0.00000000000E+00 0.  1.
</event>
<event>
 7    1  0.2497665E-015  0.9000777E+02  0.7816164E-02  0.1186339E+00
        -11   -1    0    0    0    0  0.00000000000E+00  0.00000000000E+00  0.45593999997E+02  0.45594000000E+02  0.51100000000E-03 0.  1.
         11   -1    0    0    0    0 -0.00000000000E+00 -0.00000000000E+00 -0.45593999997E+02  0.45594000000E+02  0.51100000000E-03 0. -1.
    9900012    2    1    2    0    0 -0.86036658253E+00 -0.65073623958E+00 -0.47879786075E+00  0.90007773030E+02  0.90000034834E+02 0.  0.
        -12    1    1    2    0    0  0.86036658253E+00  0.65073623958E+00  0.47879786075E+00  0.11802269702E+01  0.00000000000E+00 0.  1.
         11    1    3    3    0    0 -0.10447560376E+02  0.54173486415E+01  0.28596500890E+01  0.12111019074E+02  0.51100000000E-03 0. -1.
        -11    1    3    3    0    0  0.17520437024E+02 -0.14141170301E+02  0.32936623067E+02  0.39896861409E+02  0.51100000000E-03 0.  1.
         12    1    3    3    0    0 -0.79332432303E+01  0.80730854201E+01 -0.36275071016E+02  0.37999892547E+02  0.00000000000E+00 0. -1.
</event>
<event>
 7    1  0.2497665E-015  0.9000779E+02  0.7816164E-02  0.1186339E+00
        -11   -1    0    0    0    0  0.00000000000E+00  0.00000000000E+00  0.45593999997E+02  0.45594000000E+02  0.51100000000E-03 0. -1.
         11   -1    0    0    0    0 -0.00000000000E+00 -0.00000000000E+00 -0.45593999997E+02  0.45594000000E+02  0.51100000000E-03 0.  1.
    9900012    2    1    2    0    0 -0.72996994403E-01  0.27189404396E+00  0.11461406417E+01  0.90007790992E+02  0.90000053033E+02 0.  0.
        -12    1    1    2    0    0  0.72996994403E-01 -0.27189404396E+00 -0.11461406417E+01  0.11802090081E+01  0.00000000000E+00 0.  1.
         11    1    3    3    0    0  0.15818180803E+02 -0.12603436496E+02  0.28843440612E+02  0.35227908283E+02  0.51100000000E-03 0. -1.
        -11    1    3    3    0    0  0.10316478249E+02 -0.43312207179E+01  0.22624282455E+01  0.11415243239E+02  0.51100000000E-03 0.  1.
        -12    1    3    3    0    0 -0.26207656046E+02  0.17206551257E+02 -0.29959728216E+02  0.43364639470E+02  0.00000000000E+00 0.  1.
</event>
<event>
 7    1  0.2497665E-015  0.9000776E+02  0.7816164E-02  0.1186339E+00
        -11   -1    0    0    0    0  0.00000000000E+00  0.00000000000E+00  0.45593999997E+02  0.45594000000E+02  0.51100000000E-03 0.  1.
         11   -1    0    0    0    0 -0.00000000000E+00 -0.00000000000E+00 -0.45593999997E+02  0.45594000000E+02  0.51100000000E-03 0. -1.
    9900012    2    1    2    0    0  0.92256731761E+00  0.23502051006E+00  0.69756641725E+00  0.90007761040E+02  0.90000022686E+02 0.  0.
        -12    1    1    2    0    0 -0.92256731761E+00 -0.23502051006E+00 -0.69756641725E+00  0.11802389598E+01  0.00000000000E+00 0.  1.
         11    1    3    3    0    0 -0.10763753701E+01 -0.28072919320E+01 -0.36916157863E+02  0.37038387972E+02  0.51100000000E-03 0. -1.
        -11    1    3    3    0    0 -0.12703480225E+02  0.32761821817E+01  0.58982289034E+00  0.13132390142E+02  0.51100000000E-03 0.  1.
        -12    1    3    3    0    0  0.14702422913E+02 -0.23386973971E+00  0.37023901390E+02  0.39836982927E+02  0.00000000000E+00 0.  1.
</event>
<event>
 7    1  0.2497665E-015  0.9000783E+02  0.7816164E-02  0.1186339E+00
        -11   -1    0    0    0    0  0.00000000000E+00  0.00000000000E+00  0.45593999997E+02  0.45594000000E+02  0.51100000000E-03 0.  1.
         11   -1    0    0    0    0 -0.00000000000E+00 -0.00000000000E+00 -0.45593999997E+02  0.45594000000E+02  0.51100000000E-03 0. -1.
    9900012    2    1    2    0    0 -0.38793417053E-01  0.11488343906E+01  0.26735700216E+00  0.90007828338E+02  0.90000090872E+02 0.  0.
        -12    1    1    2    0    0  0.38793417053E-01 -0.11488343906E+01 -0.26735700216E+00  0.11801716625E+01  0.00000000000E+00 0.  1.
         11    1    3    3    0    0  0.15642701824E+01  0.78892876785E+01 -0.59138527720E+01  0.99830584566E+01  0.51100000000E-03 0. -1.
        -11    1    3    3    0    0  0.14927013650E+02 -0.63753454790E+01  0.39568183890E+02  0.42768001393E+02  0.51100000000E-03 0.  1.
         12    1    3    3    0    0 -0.16530077249E+02 -0.36510780889E+00 -0.33386974116E+02  0.37256768488E+02  0.00000000000E+00 0. -1.
</event>
<event>
 7    1  0.2608411E-015  0.9000775E+02  0.7816164E-02  0.1186339E+00
        -11   -1    0    0    0    0  0.00000000000E+00  0.00000000000E+00  0.45593999997E+02  0.45594000000E+02  0.51100000000E-03 0.  1.
         11   -1    0    0    0    0 -0.00000000000E+00 -0.00000000000E+00 -0.45593999997E+02  0.45594000000E+02  0.51100000000E-03 0. -1.
    9900012    2    1    2    0    0 -0.67333923712E+00 -0.96735311895E+00 -0.61942843511E-01  0.90007748035E+02  0.90000009509E+02 0.  0.
        -12    1    1    2    0    0  0.67333923712E+00  0.96735311895E+00  0.61942843511E-01  0.11802519650E+01  0.00000000000E+00 0.  1.
         11    1    3    3    0    0  0.42723545732E+01 -0.27108874939E+02 -0.30226319277E+02  0.40826149602E+02  0.51100000000E-03 0. -1.
        -11    1    3    3    0    0 -0.71047034917E+01 -0.41727232958E+01  0.44085708893E+01  0.93447273344E+01  0.51100000000E-03 0.  1.
        -12    1    3    3    0    0  0.21590096813E+01  0.30314245115E+02  0.25755805544E+02  0.39836871099E+02  0.00000000000E+00 0.  1.
</event>
<event>
 7    1  0.2497665E-015  0.9000777E+02  0.7816164E-02  0.1186339E+00
        -11   -1    0    0    0    0  0.00000000000E+00  0.00000000000E+00  0.45593999997E+02  0.45594000000E+02  0.51100000000E-03 0.  1.
         11   -1    0    0    0    0 -0.00000000000E+00 -0.00000000000E+00 -0.45593999997E+02  0.45594000000E+02  0.51100000000E-03 0. -1.
    9900012    2    1    2    0    0 -0.73429825641E+00  0.86574946183E+00 -0.32283858022E+00  0.90007770866E+02  0.90000032641E+02 0.  0.
        -12    1    1    2    0    0  0.73429825641E+00 -0.86574946183E+00  0.32283858022E+00  0.11802291341E+01  0.00000000000E+00 0.  1.
         11    1    3    3    0    0 -0.82774086611E+01 -0.36427744352E+01 -0.35783682859E+02  0.36908769404E+02  0.51100000000E-03 0. -1.
        -11    1    3    3    0    0  0.22278068252E+00 -0.74915003470E+01 -0.58208840578E+01  0.94897260317E+01  0.51100000000E-03 0.  1.
        -12    1    3    3    0    0  0.73203297222E+01  0.12000024244E+02  0.41281728336E+02  0.43609275430E+02  0.00000000000E+00 0.  1.
</event>
<event>
 7    1  0.2497665E-015  0.9000783E+02  0.7816164E-02  0.1186339E+00
        -11   -1    0    0    0    0  0.00000000000E+00  0.00000000000E+00  0.45593999997E+02  0.45594000000E+02  0.51100000000E-03 0. -1.
         11   -1    0    0    0    0 -0.00000000000E+00 -0.00000000000E+00 -0.45593999997E+02  0.45594000000E+02  0.51100000000E-03 0.  1.
    9900012    2    1    2    0    0 -0.20500066017E+00  0.11233633720E+01  0.29804885168E+00  0.90007828972E+02  0.90000091515E+02 0.  0.
        -12    1    1    2    0    0  0.20500066017E+00 -0.11233633720E+01 -0.29804885168E+00  0.11801710275E+01  0.00000000000E+00 0.  1.
         11    1    3    3    0    0 -0.28288907394E+02  0.22458452303E+02  0.18803883096E+02  0.40721374991E+02  0.51100000000E-03 0. -1.
        -11    1    3    3    0    0 -0.52196105297E+01 -0.58556700988E+01 -0.77300690951E+01  0.11013045667E+02  0.51100000000E-03 0.  1.
        -12    1    3    3    0    0  0.33303517263E+02 -0.15479418832E+02 -0.10775765149E+02  0.38273408315E+02  0.00000000000E+00 0.  1.
</event>
<event>
 7    1  0.2497665E-015  0.9000766E+02  0.7816164E-02  0.1186339E+00
        -11   -1    0    0    0    0  0.00000000000E+00  0.00000000000E+00  0.45593999997E+02  0.45594000000E+02  0.51100000000E-03 0.  1.
         11   -1    0    0    0    0 -0.00000000000E+00 -0.00000000000E+00 -0.45593999997E+02  0.45594000000E+02  0.51100000000E-03 0. -1.
    9900012    2    1    2    0    0 -0.66863576717E+00  0.51474272169E+00 -0.82533215885E+00  0.90007658087E+02  0.89999918374E+02 0.  0.
        -12    1    1    2    0    0  0.66863576717E+00 -0.51474272169E+00  0.82533215885E+00  0.11803419128E+01  0.00000000000E+00 0.  1.
         11    1    3    3    0    0 -0.14993678290E+02 -0.11859573708E+02  0.23696767801E+01  0.19263313461E+02  0.51100000000E-03 0. -1.
        -11    1    3    3    0    0  0.54575869106E+01 -0.20510069750E+02  0.20298934568E+02  0.29368264519E+02  0.51100000000E-03 0.  1.
         12    1    3    3    0    0  0.88674556123E+01  0.32884386180E+02 -0.23493943507E+02  0.41376080106E+02  0.00000000000E+00 0. -1.
</event>
<event>
 7    1  0.2497665E-015  0.9000769E+02  0.7816164E-02  0.1186339E+00
        -11   -1    0    0    0    0  0.00000000000E+00  0.00000000000E+00  0.45593999997E+02  0.45594000000E+02  0.51100000000E-03 0.  1.
         11   -1    0    0    0    0 -0.00000000000E+00 -0.00000000000E+00 -0.45593999997E+02  0.45594000000E+02  0.51100000000E-03 0. -1.
    9900012    2    1    2    0    0 -0.10973911870E+01  0.20600878757E+00 -0.38265555323E+00  0.90007689740E+02  0.89999950444E+02 0.  0.
        -12    1    1    2    0    0  0.10973911870E+01 -0.20600878757E+00  0.38265555323E+00  0.11803102602E+01  0.00000000000E+00 0.  1.
         11    1    3    3    0    0  0.27713868536E+02 -0.71281196297E+01  0.32771303730E+02  0.43506631071E+02  0.51100000000E-03 0. -1.
        -11    1    3    3    0    0 -0.10660534919E+01 -0.15843030066E+01 -0.72900079818E+01  0.75359606355E+01  0.51100000000E-03 0.  1.
        -12    1    3    3    0    0 -0.27745206231E+02  0.89184314238E+01 -0.25863951302E+02  0.38965098034E+02  0.00000000000E+00 0.  1.
</event>
<event>
 7    1  0.2497665E-015  0.9000768E+02  0.7816164E-02  0.1186339E+00
        -11   -1    0    0    0    0  0.00000000000E+00  0.00000000000E+00  0.45593999997E+02  0.45594000000E+02  0.51100000000E-03 0. -1.
         11   -1    0    0    0    0 -0.00000000000E+00 -0.00000000000E+00 -0.45593999997E+02  0.45594000000E+02  0.51100000000E-03 0.  1.
    9900012    2    1    2    0    0  0.31249657912E-01 -0.74902499355E+00  0.91167508243E+00  0.90007675283E+02  0.89999935797E+02 0.  0.
        -12    1    1    2    0    0 -0.31249657912E-01  0.74902499355E+00 -0.91167508243E+00  0.11803247172E+01  0.00000000000E+00 0.  1.
         11    1    3    3    0    0 -0.15759345865E+02  0.15986409241E+02  0.28468632028E+02  0.36254451758E+02  0.51100000000E-03 0. -1.
        -11    1    3    3    0    0 -0.42104838549E+00  0.93434265704E+01  0.35867107267E+01  0.10017055252E+02  0.51100000000E-03 0.  1.
        -12    1    3    3    0    0  0.16211643909E+02 -0.26078860805E+02 -0.31143667672E+02  0.43736168273E+02  0.00000000000E+00 0.  1.
</event>
<event>
 7    1  0.2497665E-015  0.9000773E+02  0.7816164E-02  0.1186339E+00
        -11   -1    0    0    0    0  0.00000000000E+00  0.00000000000E+00  0.45593999997E+02  0.45594000000E+02  0.51100000000E-03 0. -1.
         11   -1    0    0    0    0 -0.00000000000E+00 -0.00000000000E+00 -0.45593999997E+02  0.45594000000E+02  0.51100000000E-03 0.  1.
    9900012    2    1    2    0    0 -0.11925554728E+00  0.80194361001E+00  0.85773105246E+00  0.90007729693E+02  0.89999990925E+02 0.  0.
        -12    1    1    2    0    0  0.11925554728E+00 -0.80194361001E+00 -0.85773105246E+00  0.11802703070E+01  0.00000000000E+00 0.  1.
         11    1    3    3    0    0 -0.45317627031E+01 -0.50623492326E+01  0.48146128221E+01  0.83273495086E+01  0.51100000000E-03 0. -1.
        -11    1    3    3    0    0 -0.13833319873E+02 -0.34501186276E+02 -0.39718345817E+01  0.37382724129E+02  0.51100000000E-03 0.  1.
         12    1    3    3    0    0  0.18245827029E+02  0.40365479118E+02  0.14952812014E-01  0.44297656055E+02  0.00000000000E+00 0. -1.
</event>
<event>
 7    1  0.2497665E-015  0.9000768E+02  0.7816164E-02  0.1186339E+00
        -11   -1    0    0    0    0  0.00000000000E+00  0.00000000000E+00  0.45593999997E+02  0.45594000000E+02  0.51100000000E-03 0. -1.
         11   -1    0    0    0    0 -0.00000000000E+00 -0.00000000000E+00 -0.45593999997E+02  0.45594000000E+02  0.51100000000E-03 0.  1.
    9900012    2    1    2    0    0 -0.88473123982E+00  0.69980101128E+00 -0.34740902528E+00  0.90007676378E+02  0.89999936906E+02 0.  0.
        -12    1    1    2    0    0  0.88473123982E+00 -0.69980101128E+00  0.34740902528E+00  0.11803236221E+01  0.00000000000E+00 0.  1.
         11    1    3    3    0    0 -0.11773568535E+02 -0.10252296006E+02  0.40285137597E+02  0.43204384047E+02  0.51100000000E-03 0. -1.
        -11    1    3    3    0    0  0.72579855775E+01 -0.33458524559E+01 -0.99793615512E+01  0.12785176594E+02  0.51100000000E-03 0.  1.
        -12    1    3    3    0    0  0.36308517180E+01  0.14297949473E+02 -0.30653185071E+02  0.34018115737E+02  0.00000000000E+00 0.  1.
</event>
<event>
 7    1  0.2497665E-015  0.9000771E+02  0.7816164E-02  0.1186339E+00
        -11   -1    0    0    0    0  0.00000000000E+00  0.00000000000E+00  0.45593999997E+02  0.45594000000E+02  0.51100000000E-03 0. -1.
         11   -1    0    0    0    0 -0.00000000000E+00 -0.00000000000E+00 -0.45593999997E+02  0.45594000000E+02  0.51100000000E-03 0.  1.
    9900012    2    1    2    0    0 -0.11766377784E+01 -0.91648411804E-01  0.14310858809E-01  0.90007711606E+02  0.89999972599E+02 0.  0.
        -12    1    1    2    0    0  0.11766377784E+01  0.91648411804E-01 -0.14310858809E-01  0.11802883942E+01  0.00000000000E+00 0.  1.
         11    1    3    3    0    0 -0.24308419638E+01  0.64775080378E+01 -0.73544677697E+01  0.10097291690E+02  0.51100000000E-03 0. -1.
        -11    1    3    3    0    0  0.15596592095E+02  0.29645886410E+02 -0.13026881760E+02  0.35942063306E+02  0.51100000000E-03 0.  1.
         12    1    3    3    0    0 -0.14342387910E+02 -0.36215042860E+02  0.20395660389E+02  0.43968356610E+02  0.00000000000E+00 0. -1.
</event>
<event>
 7    1  0.2497665E-015  0.9000773E+02  0.7816164E-02  0.1186339E+00
        -11   -1    0    0    0    0  0.00000000000E+00  0.00000000000E+00  0.45593999997E+02  0.45594000000E+02  0.51100000000E-03 0. -1.
         11   -1    0    0    0    0 -0.00000000000E+00 -0.00000000000E+00 -0.45593999997E+02  0.45594000000E+02  0.51100000000E-03 0.  1.
    9900012    2    1    2    0    0  0.17669033071E+00  0.57282959491E+00  0.10167071739E+01  0.90007726008E+02  0.89999987192E+02 0.  0.
        -12    1    1    2    0    0 -0.17669033071E+00 -0.57282959491E+00 -0.10167071739E+01  0.11802739916E+01  0.00000000000E+00 0.  1.
         11    1    3    3    0    0  0.78947104039E+01 -0.13183099524E+01 -0.46420618251E+01  0.92527364461E+01  0.51100000000E-03 0. -1.
        -11    1    3    3    0    0  0.22001340375E+02 -0.29298616582E+02  0.83853682779E+01  0.37586996599E+02  0.51100000000E-03 0.  1.
         12    1    3    3    0    0 -0.29719360448E+02  0.31189756129E+02 -0.27265992790E+01  0.43167992963E+02  0.00000000000E+00 0. -1.
</event>
<event>
 7    1  0.2497665E-015  0.9000702E+02  0.7816164E-02  0.1186340E+00
        -11   -1    0    0    0    0  0.00000000000E+00  0.00000000000E+00  0.45593999997E+02  0.45594000000E+02  0.51100000000E-03 0.  1.
         11   -1    0    0    0    0 -0.00000000000E+00 -0.00000000000E+00 -0.45593999997E+02  0.45594000000E+02  0.51100000000E-03 0. -1.
    9900012    2    1    2    0    0  0.39864712571E+00  0.59183936973E+00 -0.94102584732E+00  0.90007016082E+02  0.89999267891E+02 0.  0.
        -12    1    1    2    0    0 -0.39864712571E+00 -0.59183936973E+00  0.94102584732E+00  0.11809839185E+01  0.00000000000E+00 0.  1.
         11    1    3    3    0    0  0.53681892140E+01 -0.35023745751E+02  0.18524335550E+02  0.39982886711E+02  0.51100000000E-03 0. -1.
        -11    1    3    3    0    0  0.97063835726E+01  0.27531712814E+01 -0.40830731195E+01  0.10884177531E+02  0.51100000000E-03 0.  1.
        -12    1    3    3    0    0 -0.14675925661E+02  0.32862413840E+02 -0.15382288278E+02  0.39139951840E+02  0.00000000000E+00 0.  1.
</event>
<event>
 7    1  0.2497665E-015  0.9000770E+02  0.7816164E-02  0.1186339E+00
        -11   -1    0    0    0    0  0.00000000000E+00  0.00000000000E+00  0.45593999997E+02  0.45594000000E+02  0.51100000000E-03 0.  1.
         11   -1    0    0    0    0 -0.00000000000E+00 -0.00000000000E+00 -0.45593999997E+02  0.45594000000E+02  0.51100000000E-03 0. -1.
    9900012    2    1    2    0    0  0.43670625749E+00 -0.32724981093E+00 -0.10465633559E+01  0.90007703575E+02  0.89999964462E+02 0.  0.
        -12    1    1    2    0    0 -0.43670625749E+00  0.32724981093E+00  0.10465633559E+01  0.11802964255E+01  0.00000000000E+00 0.  1.
         11    1    3    3    0    0 -0.24459504309E+02  0.23652903679E+02 -0.11277669569E+02  0.35845683627E+02  0.51100000000E-03 0. -1.
        -11    1    3    3    0    0  0.47011536848E+01  0.99631288916E+01 -0.46462940008E+01  0.11956288366E+02  0.51100000000E-03 0.  1.
        -12    1    3    3    0    0  0.20195056882E+02 -0.33943282381E+02  0.14877400214E+02  0.42205731582E+02  0.00000000000E+00 0.  1.
</event>
<event>
 7    1  0.2497665E-015  0.9000776E+02  0.7816164E-02  0.1186339E+00
        -11   -1    0    0    0    0  0.00000000000E+00  0.00000000000E+00  0.45593999997E+02  0.45594000000E+02  0.51100000000E-03 0.  1.
         11   -1    0    0    0    0 -0.00000000000E+00 -0.00000000000E+00 -0.45593999997E+02  0.45594000000E+02  0.51100000000E-03 0. -1.
    9900012    2    1    2    0    0  0.10005875260E+01  0.62590612610E+00  0.54402506172E-02  0.90007761265E+02  0.90000022913E+02 0.  0.
        -12    1    1    2    0    0 -0.10005875260E+01 -0.62590612610E+00 -0.54402506172E-02  0.11802387352E+01  0.00000000000E+00 0.  1.
         11    1    3    3    0    0  0.62035545922E+01  0.31693761372E+02 -0.13980312974E+02  0.35191302201E+02  0.51100000000E-03 0. -1.
        -11    1    3    3    0    0  0.92983142480E+01  0.10451181068E+00 -0.94111000217E+01  0.13230206894E+02  0.51100000000E-03 0.  1.
        -12    1    3    3    0    0 -0.14501281314E+02 -0.31172367057E+02  0.23396853246E+02  0.41586252170E+02  0.00000000000E+00 0.  1.
</event>
<event>
 7    1  0.2497665E-015  0.9000778E+02  0.7816164E-02  0.1186339E+00
        -11   -1    0    0    0    0  0.00000000000E+00  0.00000000000E+00  0.45593999997E+02  0.45594000000E+02  0.51100000000E-03 0. -1.
         11   -1    0    0    0    0 -0.00000000000E+00 -0.00000000000E+00 -0.45593999997E+02  0.45594000000E+02  0.51100000000E-03 0.  1.
    9900012    2    1    2    0    0  0.59011640786E+00  0.15040562573E+00  0.10109755777E+01  0.90007775087E+02  0.90000036918E+02 0.  0.
        -12    1    1    2    0    0 -0.59011640786E+00 -0.15040562573E+00 -0.10109755777E+01  0.11802249132E+01  0.00000000000E+00 0.  1.
         11    1    3    3    0    0 -0.31240013185E+01 -0.59230313357E+01  0.35614135441E+02  0.36238216401E+02  0.51100000000E-03 0. -1.
        -11    1    3    3    0    0 -0.76137609221E+01 -0.19619706803E+01  0.66146090989E+01  0.10274810856E+02  0.51100000000E-03 0.  1.
        -12    1    3    3    0    0  0.11327878648E+02  0.80354076417E+01 -0.41217768962E+02  0.43494747830E+02  0.00000000000E+00 0.  1.
</event>
<event>
 7    1  0.2497665E-015  0.9000765E+02  0.7816164E-02  0.1186339E+00
        -11   -1    0    0    0    0  0.00000000000E+00  0.00000000000E+00  0.45593999997E+02  0.45594000000E+02  0.51100000000E-03 0.  1.
         11   -1    0    0    0    0 -0.00000000000E+00 -0.00000000000E+00 -0.45593999997E+02  0.45594000000E+02  0.51100000000E-03 0. -1.
    9900012    2    1    2    0    0  0.11069419590E+01  0.15310641771E+00 -0.38009402292E+00  0.90007646857E+02  0.89999906996E+02 0.  0.
        -12    1    1    2    0    0 -0.11069419590E+01 -0.15310641771E+00  0.38009402292E+00  0.11803531429E+01  0.00000000000E+00 0.  1.
         11    1    3    3    0    0 -0.81620921913E+01  0.79153022899E+01 -0.15045234421E+02  0.18858176962E+02  0.51100000000E-03 0. -1.
        -11    1    3    3    0    0 -0.27147379734E+02  0.99805817305E+01  0.86988334844E+01  0.30203674318E+02  0.51100000000E-03 0.  1.
         12    1    3    3    0    0  0.36416413884E+02 -0.17742777603E+02  0.59663069139E+01  0.40945795577E+02  0.00000000000E+00 0. -1.
</event>
<event>
 7    1  0.2497665E-015  0.9000775E+02  0.7816164E-02  0.1186339E+00
        -11   -1    0    0    0    0  0.00000000000E+00  0.00000000000E+00  0.45593999997E+02  0.45594000000E+02  0.51100000000E-03 0.  1.
         11   -1    0    0    0    0 -0.00000000000E+00 -0.00000000000E+00 -0.45593999997E+02  0.45594000000E+02  0.51100000000E-03 0. -1.
    9900012    2    1    2    0    0  0.59221761245E+00 -0.88485024380E+00  0.50923064071E+00  0.90007746849E+02  0.90000008308E+02 0.  0.
        -12    1    1    2    0    0 -0.59221761245E+00  0.88485024380E+00 -0.50923064071E+00  0.11802531508E+01  0.00000000000E+00 0.  1.
         11    1    3    3    0    0 -0.30012814612E+02 -0.19280865879E+02 -0.53885733213E+01  0.36077105658E+02  0.51100000000E-03 0. -1.
        -11    1    3    3    0    0 -0.84109392387E+01  0.57954283428E+01 -0.51905707904E+01  0.11457439240E+02  0.51100000000E-03 0.  1.
        -12    1    3    3    0    0  0.39015971463E+02  0.12600587293E+02  0.11088374752E+02  0.42473201951E+02  0.00000000000E+00 0.  1.
</event>
<event>
 7    1  0.4600290E-015  0.9000852E+02  0.7816164E-02  0.1186337E+00
        -11   -1    0    0    0    0  0.00000000000E+00  0.00000000000E+00  0.45593999997E+02  0.45594000000E+02  0.51100000000E-03 0.  1.
         11   -1    0    0    0    0 -0.00000000000E+00 -0.00000000000E+00 -0.45593999997E+02  0.45594000000E+02  0.51100000000E-03 0. -1.
    9900012    2    1    2    0    0  0.24471356964E+00 -0.59791277089E+00 -0.98681204418E+00  0.90008516035E+02  0.90000787643E+02 0.  0.
        -12    1    1    2    0    0 -0.24471356964E+00  0.59791277089E+00  0.98681204418E+00  0.11794839648E+01  0.00000000000E+00 0.  1.
         11    1    3    3    0    0 -0.17818844862E+02 -0.25207489586E+02 -0.23311821886E+02  0.38682939435E+02  0.51100000000E-03 0. -1.
        -11    1    3    3    0    0 -0.90490568625E+01  0.36651754176E+01 -0.10966508401E+01  0.98245399012E+01  0.51100000000E-03 0.  1.
        -12    1    3    3    0    0  0.27112615294E+02  0.20944401397E+02  0.23421660682E+02  0.41501036699E+02  0.00000000000E+00 0.  1.
</event>
<event>
 7    1  0.2497665E-015  0.9000773E+02  0.7816164E-02  0.1186339E+00
        -11   -1    0    0    0    0  0.00000000000E+00  0.00000000000E+00  0.45593999997E+02  0.45594000000E+02  0.51100000000E-03 0. -1.
         11   -1    0    0    0    0 -0.00000000000E+00 -0.00000000000E+00 -0.45593999997E+02  0.45594000000E+02  0.51100000000E-03 0.  1.
    9900012    2    1    2    0    0  0.32541177962E+00 -0.32625396309E-02  0.11345188987E+01  0.90007730284E+02  0.89999991524E+02 0.  0.
        -12    1    1    2    0    0 -0.32541177962E+00  0.32625396309E-02 -0.11345188987E+01  0.11802697158E+01  0.00000000000E+00 0.  1.
         11    1    3    3    0    0 -0.73367633468E+01 -0.34743026906E+02  0.73799850944E+01  0.36268032691E+02  0.51100000000E-03 0. -1.
        -11    1    3    3    0    0  0.57432865152E+00 -0.83332347340E+01 -0.56481029396E+01  0.10083338813E+02  0.51100000000E-03 0.  1.
        -12    1    3    3    0    0  0.70878464749E+01  0.43072999100E+02 -0.59736325608E+00  0.43656358781E+02  0.00000000000E+00 0.  1.
</event>
<event>
 7    1  0.2497665E-015  0.9000777E+02  0.7816164E-02  0.1186339E+00
        -11   -1    0    0    0    0  0.00000000000E+00  0.00000000000E+00  0.45593999997E+02  0.45594000000E+02  0.51100000000E-03 0. -1.
         11   -1    0    0    0    0 -0.00000000000E+00 -0.00000000000E+00 -0.45593999997E+02  0.45594000000E+02  0.51100000000E-03 0.  1.
    9900012    2    1    2    0    0 -0.10813110998E+01 -0.37648144991E+00  0.28630174995E+00  0.90007770925E+02  0.90000032702E+02 0.  0.
        -12    1    1    2    0    0  0.10813110998E+01  0.37648144991E+00 -0.28630174995E+00  0.11802290747E+01  0.00000000000E+00 0.  1.
         11    1    3    3    0    0  0.21118782547E+01 -0.31470074998E+02  0.18047720071E+02  0.36339315488E+02  0.51100000000E-03 0. -1.
        -11    1    3    3    0    0 -0.32634959912E+01 -0.83422387065E+01 -0.10091236374E+02  0.13493569006E+02  0.51100000000E-03 0.  1.
        -12    1    3    3    0    0  0.70306636642E-01  0.39435832254E+02 -0.76701819478E+01  0.40174886431E+02  0.00000000000E+00 0.  1.
</event>
<event>
 7    1  0.2497665E-015  0.9000777E+02  0.7816164E-02  0.1186339E+00
        -11   -1    0    0    0    0  0.00000000000E+00  0.00000000000E+00  0.45593999997E+02  0.45594000000E+02  0.51100000000E-03 0. -1.
         11   -1    0    0    0    0 -0.00000000000E+00 -0.00000000000E+00 -0.45593999997E+02  0.45594000000E+02  0.51100000000E-03 0.  1.
    9900012    2    1    2    0    0  0.33345249710E+00 -0.37556939694E+00  0.10680332267E+01  0.90007772093E+02  0.90000033884E+02 0.  0.
        -12    1    1    2    0    0 -0.33345249710E+00  0.37556939694E+00 -0.10680332267E+01  0.11802279073E+01  0.00000000000E+00 0.  1.
         11    1    3    3    0    0 -0.19837283985E+02 -0.60978786542E+01  0.32836304730E+02  0.38844882141E+02  0.51100000000E-03 0. -1.
        -11    1    3    3    0    0  0.76084316254E+01 -0.66354434951E+01  0.43364164323E+01  0.10987349540E+02  0.51100000000E-03 0.  1.
        -12    1    3    3    0    0  0.12562304856E+02  0.12357752752E+02 -0.36104687936E+02  0.40175540411E+02  0.00000000000E+00 0.  1.
</event>
<event>
 7    1  0.2497665E-015  0.9000774E+02  0.7816164E-02  0.1186339E+00
        -11   -1    0    0    0    0  0.00000000000E+00  0.00000000000E+00  0.45593999997E+02  0.45594000000E+02  0.51100000000E-03 0. -1.
         11   -1    0    0    0    0 -0.00000000000E+00 -0.00000000000E+00 -0.45593999997E+02  0.45594000000E+02  0.51100000000E-03 0.  1.
    9900012    2    1    2    0    0  0.11280913074E+01 -0.15870682252E-01  0.34665840430E+00  0.90007739891E+02  0.90000001257E+02 0.  0.
        -12    1    1    2    0    0 -0.11280913074E+01  0.15870682252E-01 -0.34665840430E+00  0.11802601093E+01  0.00000000000E+00 0.  1.
         11    1    3    3    0    0  0.14397823345E+02  0.15206314689E+02  0.30616132605E+02  0.37092814661E+02  0.51100000000E-03 0. -1.
        -11    1    3    3    0    0 -0.47560129501E+01 -0.29137682894E+00  0.89251017602E+01  0.10117410802E+02  0.51100000000E-03 0.  1.
        -12    1    3    3    0    0 -0.85137190877E+01 -0.14930808543E+02 -0.39194575961E+02  0.42797514428E+02  0.00000000000E+00 0.  1.
</event>
<event>
 7    1  0.2497665E-015  0.9000782E+02  0.7816164E-02  0.1186339E+00
        -11   -1    0    0    0    0  0.00000000000E+00  0.00000000000E+00  0.45593999997E+02  0.45594000000E+02  0.51100000000E-03 0. -1.
         11   -1    0    0    0    0 -0.00000000000E+00 -0.00000000000E+00 -0.45593999997E+02  0.45594000000E+02  0.51100000000E-03 0.  1.
    9900012    2    1    2    0    0  0.10740793854E+00  0.10791673630E+01  0.46550632679E+00  0.90007815776E+02  0.90000078144E+02 0.  0.
        -12    1    1    2    0    0 -0.10740793854E+00 -0.10791673630E+01 -0.46550632679E+00  0.11801842242E+01  0.00000000000E+00 0.  1.
         11    1    3    3    0    0  0.40007735716E+01 -0.28856103974E+01  0.81357597950E+01  0.95143851215E+01  0.51100000000E-03 0. -1.
        -11    1    3    3    0    0  0.18604935640E+02 -0.31582146292E+02 -0.11064161365E+02  0.38288265324E+02  0.51100000000E-03 0.  1.
         12    1    3    3    0    0 -0.22498301273E+02  0.35546924052E+02  0.33939078967E+01  0.42205165330E+02  0.00000000000E+00 0. -1.
</event>
<event>
 7    1  0.2497665E-015  0.9000764E+02  0.7816164E-02  0.1186339E+00
        -11   -1    0    0    0    0  0.00000000000E+00  0.00000000000E+00  0.45593999997E+02  0.45594000000E+02  0.51100000000E-03 0.  1.
         11   -1    0    0    0    0 -0.00000000000E+00 -0.00000000000E+00 -0.45593999997E+02  0.45594000000E+02  0.51100000000E-03 0. -1.
    9900012    2    1    2    0    0 -0.68353374811E+00 -0.93276159916E+00  0.23663903146E+00  0.90007635388E+02  0.89999895375E+02 0.  0.
        -12    1    1    2    0    0  0.68353374811E+00  0.93276159916E+00 -0.23663903146E+00  0.11803646118E+01  0.00000000000E+00 0.  1.
         11    1    3    3    0    0 -0.64108949659E+00 -0.62517134736E+01  0.64129033373E+01  0.89788778014E+01  0.51100000000E-03 0. -1.
        -11    1    3    3    0    0  0.32917782515E+02 -0.12033784068E+02  0.15064841137E+02  0.38148942363E+02  0.51100000000E-03 0.  1.
         12    1    3    3    0    0 -0.32960226766E+02  0.17352735942E+02 -0.21241105443E+02  0.42879815224E+02  0.00000000000E+00 0. -1.
</event>
<event>
 7    1  0.2497665E-015  0.9000774E+02  0.7816164E-02  0.1186339E+00
        -11   -1    0    0    0    0  0.00000000000E+00  0.00000000000E+00  0.45593999997E+02  0.45594000000E+02  0.51100000000E-03 0. -1.
         11   -1    0    0    0    0 -0.00000000000E+00 -0.00000000000E+00 -0.45593999997E+02  0.45594000000E+02  0.51100000000E-03 0.  1.
    9900012    2    1    2    0    0 -0.67016751825E+00  0.12436926994E+00  0.96355015332E+00  0.90007736845E+02  0.89999998171E+02 0.  0.
        -12    1    1    2    0    0  0.67016751825E+00 -0.12436926994E+00 -0.96355015332E+00  0.11802631553E+01  0.00000000000E+00 0.  1.
         11    1    3    3    0    0  0.14781593159E+02  0.12994858460E+02  0.27041696943E+02  0.33445705502E+02  0.51100000000E-03 0. -1.
        -11    1    3    3    0    0  0.10534929048E+02  0.30262585943E+01  0.58567350844E+01  0.12427562804E+02  0.51100000000E-03 0.  1.
        -12    1    3    3    0    0 -0.25986689725E+02 -0.15896747784E+02 -0.31934881874E+02  0.44134468540E+02  0.00000000000E+00 0.  1.
</event>
<event>
 7    1  0.2497665E-015  0.9000760E+02  0.7816164E-02  0.1186339E+00
        -11   -1    0    0    0    0  0.00000000000E+00  0.00000000000E+00  0.45593999997E+02  0.45594000000E+02  0.51100000000E-03 0. -1.
         11   -1    0    0    0    0 -0.00000000000E+00 -0.00000000000E+00 -0.45593999997E+02  0.45594000000E+02  0.51100000000E-03 0.  1.
    9900012    2    1    2    0    0  0.31733819867E+00 -0.66933815545E+00  0.91904193643E+00  0.90007595332E+02  0.89999854791E+02 0.  0.
        -12    1    1    2    0    0 -0.31733819867E+00  0.66933815545E+00 -0.91904193643E+00  0.11804046677E+01  0.00000000000E+00 0.  1.
         11    1    3    3    0    0  0.14214450462E+02  0.33199135683E+02 -0.38677008554E+01  0.36320687249E+02  0.51100000000E-03 0. -1.
        -11    1    3    3    0    0 -0.10013302444E+01  0.57195653678E+01 -0.82227447004E+01  0.10066261517E+02  0.51100000000E-03 0.  1.
        -12    1    3    3    0    0 -0.12895782018E+02 -0.39588039207E+02  0.13009487492E+02  0.43620646567E+02  0.00000000000E+00 0.  1.
</event>
<event>
 7    1  0.2497665E-015  0.9000755E+02  0.7816164E-02  0.1186339E+00
        -11   -1    0    0    0    0  0.00000000000E+00  0.00000000000E+00  0.45593999997E+02  0.45594000000E+02  0.51100000000E-03 0.  1.
         11   -1    0    0    0    0 -0.00000000000E+00 -0.00000000000E+00 -0.45593999997E+02  0.45594000000E+02  0.51100000000E-03 0. -1.
    9900012    2    1    2    0    0  0.42727950396E-01 -0.10386453185E+01 -0.55932562231E+00  0.90007553082E+02  0.89999811982E+02 0.  0.
        -12    1    1    2    0    0 -0.42727950396E-01  0.10386453185E+01  0.55932562231E+00  0.11804469184E+01  0.00000000000E+00 0.  1.
         11    1    3    3    0    0  0.13818571344E+02 -0.27012539363E+01 -0.27837980819E+02  0.31196199499E+02  0.51100000000E-03 0. -1.
        -11    1    3    3    0    0  0.10396612007E+02  0.71510877185E+01 -0.85510956512E+01  0.15242992944E+02  0.51100000000E-03 0.  1.
        -12    1    3    3    0    0 -0.24172455401E+02 -0.54884791007E+01  0.35829750848E+02  0.43568360639E+02  0.00000000000E+00 0.  1.
</event>
<event>
 7    1  0.2497665E-015  0.9000762E+02  0.7816164E-02  0.1186339E+00
        -11   -1    0    0    0    0  0.00000000000E+00  0.00000000000E+00  0.45593999997E+02  0.45594000000E+02  0.51100000000E-03 0.  1.
         11   -1    0    0    0    0 -0.00000000000E+00 -0.00000000000E+00 -0.45593999997E+02  0.45594000000E+02  0.51100000000E-03 0. -1.
    9900012    2    1    2    0    0  0.47863817259E+00 -0.34875617651E-01 -0.10784161560E+01  0.90007622004E+02  0.89999881814E+02 0.  0.
        -12    1    1    2    0    0 -0.47863817259E+00  0.34875617651E-01  0.10784161560E+01  0.11803779965E+01  0.00000000000E+00 0.  1.
         11    1    3    3    0    0 -0.10391516615E+01 -0.69143591954E+01 -0.82185455628E+01  0.10790398078E+02  0.51100000000E-03 0. -1.
        -11    1    3    3    0    0  0.18733276528E+02 -0.21760134859E+02 -0.20966125845E+02  0.35553024510E+02  0.51100000000E-03 0.  1.
         12    1    3    3    0    0 -0.17215486694E+02  0.28639618437E+02  0.28106255252E+02  0.43664199416E+02  0.00000000000E+00 0. -1.
</event>
<event>
 7    1  0.2497665E-015  0.9000777E+02  0.7816164E-02  0.1186339E+00
        -11   -1    0    0    0    0  0.00000000000E+00  0.00000000000E+00  0.45593999997E+02  0.45594000000E+02  0.51100000000E-03 0.  1.
         11   -1    0    0    0    0 -0.00000000000E+00 -0.00000000000E+00 -0.45593999997E+02  0.45594000000E+02  0.51100000000E-03 0. -1.
    9900012    2    1    2    0    0  0.34749360837E+00 -0.91603243041E+00  0.65808898720E+00  0.90007767677E+02  0.90000029410E+02 0.  0.
        -12    1    1    2    0    0 -0.34749360837E+00  0.91603243041E+00 -0.65808898720E+00  0.11802323231E+01  0.00000000000E+00 0.  1.
         11    1    3    3    0    0 -0.22695884093E+02  0.24356274873E+02  0.13419196661E+02  0.35894374486E+02  0.51100000000E-03 0. -1.
        -11    1    3    3    0    0  0.27667567803E+01  0.10149141340E+02 -0.75918068434E+01  0.12972877261E+02  0.51100000000E-03 0.  1.
        -12    1    3    3    0    0  0.20276620921E+02 -0.35421448643E+02 -0.51693008304E+01  0.41140515930E+02  0.00000000000E+00 0.  1.
</event>
<event>
 7    1  0.2497665E-015  0.9000773E+02  0.7816164E-02  0.1186339E+00
        -11   -1    0    0    0    0  0.00000000000E+00  0.00000000000E+00  0.45593999997E+02  0.45594000000E+02  0.51100000000E-03 0.  1.
         11   -1    0    0    0    0 -0.00000000000E+00 -0.00000000000E+00 -0.45593999997E+02  0.45594000000E+02  0.51100000000E-03 0. -1.
    9900012    2    1    2    0    0  0.11461027779E+01  0.24916140491E+00  0.13192492827E+00  0.90007730044E+02  0.89999991280E+02 0.  0.
        -12    1    1    2    0    0 -0.11461027779E+01 -0.24916140491E+00 -0.13192492827E+00  0.11802699563E+01  0.00000000000E+00 0.  1.
         11    1    3    3    0    0  0.26032814143E+02 -0.16971902520E+02 -0.18721172715E+02  0.36279955836E+02  0.51100000000E-03 0. -1.
        -11    1    3    3    0    0  0.68442418499E+01 -0.19972404408E+01 -0.57958432722E+01  0.91882759741E+01  0.51100000000E-03 0.  1.
        -12    1    3    3    0    0 -0.31730953215E+02  0.19218304366E+02  0.24648940916E+02  0.44539498234E+02  0.00000000000E+00 0.  1.
</event>
<event>
 7    1  0.2497665E-015  0.9000725E+02  0.7816164E-02  0.1186340E+00
        -11   -1    0    0    0    0  0.00000000000E+00  0.00000000000E+00  0.45593999997E+02  0.45594000000E+02  0.51100000000E-03 0.  1.
         11   -1    0    0    0    0 -0.00000000000E+00 -0.00000000000E+00 -0.45593999997E+02  0.45594000000E+02  0.51100000000E-03 0. -1.
    9900012    2    1    2    0    0 -0.35417522822E+00 -0.41961328093E+00 -0.10453007472E+01  0.90007250641E+02  0.89999505548E+02 0.  0.
        -12    1    1    2    0    0  0.35417522822E+00  0.41961328093E+00  0.10453007472E+01  0.11807493594E+01  0.00000000000E+00 0.  1.
         11    1    3    3    0    0  0.20621333048E+01  0.80046619962E+01 -0.18594114551E+01  0.84725685988E+01  0.51100000000E-03 0. -1.
        -11    1    3    3    0    0  0.30987977883E+02  0.20322703840E+02 -0.36571855900E+01  0.37237643203E+02  0.51100000000E-03 0.  1.
         12    1    3    3    0    0 -0.33404286416E+02 -0.28746979117E+02  0.44712962980E+01  0.44297038839E+02  0.00000000000E+00 0. -1.
</event>
<event>
 7    1  0.2497665E-015  0.9000769E+02  0.7816164E-02  0.1186339E+00
        -11   -1    0    0    0    0  0.00000000000E+00  0.00000000000E+00  0.45593999997E+02  0.45594000000E+02  0.51100000000E-03 0.  1.
         11   -1    0    0    0    0 -0.00000000000E+00 -0.00000000000E+00 -0.45593999997E+02  0.45594000000E+02  0.51100000000E-03 0. -1.
    9900012    2    1    2    0    0 -0.47169120665E+00  0.10613169485E+01  0.21035574396E+00  0.90007688262E+02  0.89999948947E+02 0.  0.
        -12    1    1    2    0    0  0.47169120665E+00 -0.10613169485E+01 -0.21035574396E+00  0.11803117379E+01  0.00000000000E+00 0.  1.
         11    1    3    3    0    0  0.99329247297E+01  0.23548123722E+02 -0.25563551013E+02  0.36147922003E+02  0.51100000000E-03 0. -1.
        -11    1    3    3    0    0  0.11093668383E+01  0.87541585318E+01 -0.35315428811E+01  0.95046189699E+01  0.51100000000E-03 0.  1.
        -12    1    3    3    0    0 -0.11513982775E+02 -0.31240965306E+02  0.29305449638E+02  0.44355147289E+02  0.00000000000E+00 0.  1.
</event>
<event>
 7    1  0.2497665E-015  0.9000762E+02  0.7816164E-02  0.1186339E+00
        -11   -1    0    0    0    0  0.00000000000E+00  0.00000000000E+00  0.45593999997E+02  0.45594000000E+02  0.51100000000E-03 0. -1.
         11   -1    0    0    0    0 -0.00000000000E+00 -0.00000000000E+00 -0.45593999997E+02  0.45594000000E+02  0.51100000000E-03 0.  1.
    9900012    2    1    2    0    0  0.86158820944E+00 -0.51374189470E+00  0.62211159762E+00  0.90007623866E+02  0.89999883701E+02 0.  0.
        -12    1    1    2    0    0 -0.86158820944E+00  0.51374189470E+00 -0.62211159762E+00  0.11803761337E+01  0.00000000000E+00 0.  1.
         11    1    3    3    0    0 -0.35144296032E+01 -0.67172039989E+01 -0.37808489448E+01  0.84715325652E+01  0.51100000000E-03 0. -1.
        -11    1    3    3    0    0 -0.11889879570E+02  0.10447443284E+02 -0.35155367323E+02  0.38554093937E+02  0.51100000000E-03 0.  1.
         12    1    3    3    0    0  0.16265897382E+02 -0.42439811801E+01  0.39558327866E+02  0.42981997365E+02  0.00000000000E+00 0. -1.
</event>
<event>
 7    1  0.2497665E-015  0.9000772E+02  0.7816164E-02  0.1186339E+00
        -11   -1    0    0    0    0  0.00000000000E+00  0.00000000000E+00  0.45593999997E+02  0.45594000000E+02  0.51100000000E-03 0. -1.
         11   -1    0    0    0    0 -0.00000000000E+00 -0.00000000000E+00 -0.45593999997E+02  0.45594000000E+02  0.51100000000E-03 0.  1.
    9900012    2    1    2    0    0  0.10697256842E+01  0.27180858455E+00 -0.41818269383E+00  0.90007716258E+02  0.89999977313E+02 0.  0.
        -12    1    1    2    0    0 -0.10697256842E+01 -0.27180858455E+00  0.41818269383E+00  0.11802837419E+01  0.00000000000E+00 0.  1.
         11    1    3    3    0    0 -0.88639691190E+00 -0.10563960162E+00 -0.94764110676E+01  0.95183625795E+01  0.51100000000E-03 0. -1.
        -11    1    3    3    0    0 -0.26065218967E+01 -0.33050903290E+02 -0.17558271717E+02  0.37515984201E+02  0.51100000000E-03 0.  1.
         12    1    3    3    0    0  0.45626444928E+01  0.33428351476E+02  0.26616500091E+02  0.42973369477E+02  0.00000000000E+00 0. -1.
</event>
<event>
 7    1  0.2497665E-015  0.9000776E+02  0.7816164E-02  0.1186339E+00
        -11   -1    0    0    0    0  0.00000000000E+00  0.00000000000E+00  0.45593999997E+02  0.45594000000E+02  0.51100000000E-03 0. -1.
         11   -1    0    0    0    0 -0.00000000000E+00 -0.00000000000E+00 -0.45593999997E+02  0.45594000000E+02  0.51100000000E-03 0.  1.
    9900012    2    1    2    0    0 -0.50633672557E+00  0.10059569987E+01  0.35303285391E+00  0.90007763346E+02  0.90000025022E+02 0.  0.
        -12    1    1    2    0    0  0.50633672557E+00 -0.10059569987E+01 -0.35303285391E+00  0.11802366537E+01  0.00000000000E+00 0.  1.
         11    1    3    3    0    0  0.66928856515E+01 -0.11732239171E+02  0.35299460068E+02  0.37795397017E+02  0.51100000000E-03 0. -1.
        -11    1    3    3    0    0  0.67320707306E+01 -0.47593688801E+01  0.24823047477E+01  0.86101222744E+01  0.51100000000E-03 0.  1.
        -12    1    3    3    0    0 -0.13931293108E+02  0.17497565050E+02 -0.37428731962E+02  0.43602244055E+02  0.00000000000E+00 0.  1.
</event>
<event>
 7    1  0.2497665E-015  0.9000770E+02  0.7816164E-02  0.1186339E+00
        -11   -1    0    0    0    0  0.00000000000E+00  0.00000000000E+00  0.45593999997E+02  0.45594000000E+02  0.51100000000E-03 0. -1.
         11   -1    0    0    0    0 -0.00000000000E+00 -0.00000000000E+00 -0.45593999997E+02  0.45594000000E+02  0.51100000000E-03 0.  1.
    9900012    2    1    2    0    0 -0.17083988890E+00 -0.10904724782E+01  0.41809055314E+00  0.90007696563E+02  0.89999957357E+02 0.  0.
        -12    1    1    2    0    0  0.17083988890E+00  0.10904724782E+01 -0.41809055314E+00  0.11803034372E+01  0.00000000000E+00 0.  1.
         11    1    3    3    0    0 -0.13094151065E+02 -0.18858614016E+02  0.19153318814E+02  0.29899059125E+02  0.51100000000E-03 0. -1.
        -11    1    3    3    0    0  0.92029993782E+01  0.29031542481E+02  0.74575623696E+01  0.31355077629E+02  0.51100000000E-03 0.  1.
        -12    1    3    3    0    0  0.37203117974E+01 -0.11263400943E+02 -0.26192790631E+02  0.28753559809E+02  0.00000000000E+00 0.  1.
</event>
<event>
 7    1  0.2497665E-015  0.9000884E+02  0.7816164E-02  0.1186337E+00
        -11   -1    0    0    0    0  0.00000000000E+00  0.00000000000E+00  0.45593999997E+02  0.45594000000E+02  0.51100000000E-03 0.  1.
         11   -1    0    0    0    0 -0.00000000000E+00 -0.00000000000E+00 -0.45593999997E+02  0.45594000000E+02  0.51100000000E-03 0. -1.
    9900012    2    1    2    0    0 -0.79715037274E+00 -0.84032434683E+00 -0.22097770416E+00  0.90008837216E+02  0.90001113061E+02 0.  0.
        -12    1    1    2    0    0  0.79715037274E+00  0.84032434683E+00  0.22097770416E+00  0.11791627837E+01  0.00000000000E+00 0.  1.
         11    1    3    3    0    0 -0.21006468388E+02  0.34864819152E+02 -0.14198294106E+02  0.43109382789E+02  0.51100000000E-03 0. -1.
        -11    1    3    3    0    0  0.44728612169E+01 -0.61249835230E+01 -0.43148699766E+01  0.87258245341E+01  0.51100000000E-03 0.  1.
        -12    1    3    3    0    0  0.15736456799E+02 -0.29580159976E+02  0.18292186378E+02  0.38173629894E+02  0.00000000000E+00 0.  1.
</event>
<event>
 7    1  0.2497665E-015  0.9000774E+02  0.7816164E-02  0.1186339E+00
        -11   -1    0    0    0    0  0.00000000000E+00  0.00000000000E+00  0.45593999997E+02  0.45594000000E+02  0.51100000000E-03 0.  1.
         11   -1    0    0    0    0 -0.00000000000E+00 -0.00000000000E+00 -0.45593999997E+02  0.45594000000E+02  0.51100000000E-03 0. -1.
    9900012    2    1    2    0    0 -0.57960597326E-01 -0.17361294788E+00 -0.11659829524E+01  0.90007738532E+02  0.89999999881E+02 0.  0.
        -12    1    1    2    0    0  0.57960597326E-01  0.17361294788E+00  0.11659829524E+01  0.11802614676E+01  0.00000000000E+00 0.  1.
         11    1    3    3    0    0 -0.33255927794E+02  0.55875955809E+01 -0.13223850404E+02  0.36222205587E+02  0.51100000000E-03 0. -1.
        -11    1    3    3    0    0 -0.91227008801E+01 -0.27357081101E+00  0.53708257380E+01  0.10589819720E+02  0.51100000000E-03 0.  1.
        -12    1    3    3    0    0  0.42320668077E+02 -0.54876377178E+01  0.66870417131E+01  0.43195713225E+02  0.00000000000E+00 0.  1.
</event>
<event>
 7    1  0.2497665E-015  0.9000775E+02  0.7816164E-02  0.1186339E+00
        -11   -1    0    0    0    0  0.00000000000E+00  0.00000000000E+00  0.45593999997E+02  0.45594000000E+02  0.51100000000E-03 0. -1.
         11   -1    0    0    0    0 -0.00000000000E+00 -0.00000000000E+00 -0.45593999997E+02  0.45594000000E+02  0.51100000000E-03 0.  1.
    9900012    2    1    2    0    0 -0.78965987494E+00  0.80933577642E+00  0.33825211665E+00  0.90007745107E+02  0.90000006543E+02 0.  0.
        -12    1    1    2    0    0  0.78965987494E+00 -0.80933577642E+00 -0.33825211665E+00  0.11802548926E+01  0.00000000000E+00 0.  1.
         11    1    3    3    0    0  0.53473096410E+01 -0.20020108887E+02 -0.59216402189E+00  0.20730391669E+02  0.51100000000E-03 0. -1.
        -11    1    3    3    0    0 -0.19838710975E+02 -0.76323682032E+01 -0.21733172930E+02  0.30399972095E+02  0.51100000000E-03 0.  1.
         12    1    3    3    0    0  0.13701741459E+02  0.28461812867E+02  0.22663589068E+02  0.38877381343E+02  0.00000000000E+00 0. -1.
</event>
<event>
 7    1  0.2497665E-015  0.9000769E+02  0.7816164E-02  0.1186339E+00
        -11   -1    0    0    0    0  0.00000000000E+00  0.00000000000E+00  0.45593999997E+02  0.45594000000E+02  0.51100000000E-03 0. -1.
         11   -1    0    0    0    0 -0.00000000000E+00 -0.00000000000E+00 -0.45593999997E+02  0.45594000000E+02  0.51100000000E-03 0.  1.
    9900012    2    1    2    0    0  0.11287062279E+01 -0.27612154659E+00 -0.20713441795E+00  0.90007692614E+02  0.89999953357E+02 0.  0.
        -12    1    1    2    0    0 -0.11287062279E+01  0.27612154659E+00  0.20713441795E+00  0.11803073855E+01  0.00000000000E+00 0.  1.
         11    1    3    3    0    0 -0.81071057483E+00 -0.95424985648E+01  0.16939622746E+00  0.95783728179E+01  0.51100000000E-03 0. -1.
        -11    1    3    3    0    0 -0.50280629010E+01 -0.22583265446E+02 -0.28962604785E+02  0.37069094552E+02  0.51100000000E-03 0.  1.
         12    1    3    3    0    0  0.69674797037E+01  0.31849642464E+02  0.28586074139E+02  0.43360225244E+02  0.00000000000E+00 0. -1.
</event>
<event>
 7    1  0.2670460E-015  0.9000774E+02  0.7816164E-02  0.1186339E+00
        -11   -1    0    0    0    0  0.00000000000E+00  0.00000000000E+00  0.45593999997E+02  0.45594000000E+02  0.51100000000E-03 0. -1.
         11   -1    0    0    0    0 -0.00000000000E+00 -0.00000000000E+00 -0.45593999997E+02  0.45594000000E+02  0.51100000000E-03 0.  1.
    9900012    2    1    2    0    0 -0.96944074445E+00  0.49760935313E+00  0.45341097599E+00  0.90007740733E+02  0.90000002110E+02 0.  0.
        -12    1    1    2    0    0  0.96944074445E+00 -0.49760935313E+00 -0.45341097599E+00  0.11802592675E+01  0.00000000000E+00 0.  1.
         11    1    3    3    0    0  0.34989745970E+02  0.50130574243E+01  0.86054024424E+01  0.36379472498E+02  0.51100000000E-03 0. -1.
        -11    1    3    3    0    0  0.45078618982E+01  0.24233092664E+01  0.80089297845E+01  0.95045359302E+01  0.51100000000E-03 0.  1.
        -12    1    3    3    0    0 -0.40467048612E+02 -0.69387573376E+01 -0.16160921251E+02  0.44123732304E+02  0.00000000000E+00 0.  1.
</event>
<event>
 7    1  0.2497665E-015  0.9000769E+02  0.7816164E-02  0.1186339E+00
        -11   -1    0    0    0    0  0.00000000000E+00  0.00000000000E+00  0.45593999997E+02  0.45594000000E+02  0.51100000000E-03 0.  1.
         11   -1    0    0    0    0 -0.00000000000E+00 -0.00000000000E+00 -0.45593999997E+02  0.45594000000E+02  0.51100000000E-03 0. -1.
    9900012    2    1    2    0    0 -0.85133569674E+00 -0.67826971193E+00 -0.45640079046E+00  0.90007693280E+02  0.89999954032E+02 0.  0.
        -12    1    1    2    0    0  0.85133569674E+00  0.67826971193E+00  0.45640079046E+00  0.11803067195E+01  0.00000000000E+00 0.  1.
         11    1    3    3    0    0 -0.54162265509E+01  0.57052460704E+01 -0.84473667416E+01  0.11543108243E+02  0.51100000000E-03 0. -1.
        -11    1    3    3    0    0 -0.27289448161E+02  0.21263881265E+02  0.10660703836E+02  0.36201066751E+02  0.51100000000E-03 0.  1.
         12    1    3    3    0    0  0.31854339015E+02 -0.27647397048E+02 -0.26697378845E+01  0.42263518287E+02  0.00000000000E+00 0. -1.
</event>
<event>
 7    1  0.2497665E-015  0.9000776E+02  0.7816164E-02  0.1186339E+00
        -11   -1    0    0    0    0  0.00000000000E+00  0.00000000000E+00  0.45593999997E+02  0.45594000000E+02  0.51100000000E-03 0. -1.
         11   -1    0    0    0    0 -0.00000000000E+00 -0.00000000000E+00 -0.45593999997E+02  0.45594000000E+02  0.51100000000E-03 0.  1.
    9900012    2    1    2    0    0  0.13406739901E-01  0.75342571825E+00  0.90837662754E+00  0.90007755046E+02  0.90000016613E+02 0.  0.
        -12    1    1    2    0    0 -0.13406739901E-01 -0.75342571825E+00 -0.90837662754E+00  0.11802449538E+01  0.00000000000E+00 0.  1.
         11    1    3    3    0    0 -0.31422365927E+00 -0.61347744507E+01 -0.39531215506E+01  0.73048863320E+01  0.51100000000E-03 0. -1.
        -11    1    3    3    0    0 -0.29978314662E+02  0.31318531779E+02 -0.83321771133E+00  0.43361780807E+02  0.51100000000E-03 0.  1.
         12    1    3    3    0    0  0.30305945061E+02 -0.24430331610E+02  0.56947158895E+01  0.39341087907E+02  0.00000000000E+00 0. -1.
</event>
<event>
 7    1  0.2497665E-015  0.9000779E+02  0.7816164E-02  0.1186339E+00
        -11   -1    0    0    0    0  0.00000000000E+00  0.00000000000E+00  0.45593999997E+02  0.45594000000E+02  0.51100000000E-03 0.  1.
         11   -1    0    0    0    0 -0.00000000000E+00 -0.00000000000E+00 -0.45593999997E+02  0.45594000000E+02  0.51100000000E-03 0. -1.
    9900012    2    1    2    0    0  0.10807913589E+01  0.30165750244E-01 -0.47314607558E+00  0.90007793602E+02  0.90000055677E+02 0.  0.
        -12    1    1    2    0    0 -0.10807913589E+01 -0.30165750244E-01  0.47314607558E+00  0.11802063984E+01  0.00000000000E+00 0.  1.
         11    1    3    3    0    0  0.65478188227E+01 -0.10513029134E+02  0.56597748653E+01  0.13617296527E+02  0.51100000000E-03 0. -1.
        -11    1    3    3    0    0 -0.60174434797E+01  0.22485089999E+02  0.30207059625E+02  0.38134700074E+02  0.51100000000E-03 0.  1.
         12    1    3    3    0    0  0.55041601592E+00 -0.11941895115E+02 -0.36339980565E+02  0.38255797001E+02  0.00000000000E+00 0. -1.
</event>
<event>
 7    1  0.2497665E-015  0.9000777E+02  0.7816164E-02  0.1186339E+00
        -11   -1    0    0    0    0  0.00000000000E+00  0.00000000000E+00  0.45593999997E+02  0.45594000000E+02  0.51100000000E-03 0. -1.
         11   -1    0    0    0    0 -0.00000000000E+00 -0.00000000000E+00 -0.45593999997E+02  0.45594000000E+02  0.51100000000E-03 0.  1.
    9900012    2    1    2    0    0  0.93737248743E+00  0.49286173642E+00  0.52091392680E+00  0.90007774941E+02  0.90000036770E+02 0.  0.
        -12    1    1    2    0    0 -0.93737248743E+00 -0.49286173642E+00 -0.52091392680E+00  0.11802250593E+01  0.00000000000E+00 0.  1.
         11    1    3    3    0    0  0.10387907399E+02  0.18977516203E+02 -0.32917843968E+01  0.21883568861E+02  0.51100000000E-03 0. -1.
        -11    1    3    3    0    0  0.19478199452E+02 -0.29355798072E+02 -0.59196570591E+01  0.35724018171E+02  0.51100000000E-03 0.  1.
         12    1    3    3    0    0 -0.28928734363E+02  0.10871143606E+02  0.97323553826E+01  0.32400187908E+02  0.00000000000E+00 0. -1.
</event>
<event>
 7    1  0.2497665E-015  0.9000760E+02  0.7816164E-02  0.1186339E+00
        -11   -1    0    0    0    0  0.00000000000E+00  0.00000000000E+00  0.45593999997E+02  0.45594000000E+02  0.51100000000E-03 0. -1.
         11   -1    0    0    0    0 -0.00000000000E+00 -0.00000000000E+00 -0.45593999997E+02  0.45594000000E+02  0.51100000000E-03 0.  1.
    9900012    2    1    2    0    0  0.77710565880E+00 -0.76587479088E+00  0.45042000659E+00  0.90007603633E+02  0.89999863201E+02 0.  0.
        -12    1    1    2    0    0 -0.77710565880E+00  0.76587479088E+00 -0.45042000659E+00  0.11803963667E+01  0.00000000000E+00 0.  1.
         11    1    3    3    0    0  0.34047710870E+01 -0.69658926511E+01 -0.47705227564E+00  0.77681211188E+01  0.51100000000E-03 0. -1.
        -11    1    3    3    0    0 -0.50180837851E+01 -0.35726510425E+02  0.13315109050E+02  0.38455907756E+02  0.51100000000E-03 0.  1.
         12    1    3    3    0    0  0.23904183569E+01  0.41926528285E+02 -0.12387636768E+02  0.43783574759E+02  0.00000000000E+00 0. -1.
</event>
<event>
 7    1  0.2497665E-015  0.9000774E+02  0.7816164E-02  0.1186339E+00
        -11   -1    0    0    0    0  0.00000000000E+00  0.00000000000E+00  0.45593999997E+02  0.45594000000E+02  0.51100000000E-03 0.  1.
         11   -1    0    0    0    0 -0.00000000000E+00 -0.00000000000E+00 -0.45593999997E+02  0.45594000000E+02  0.51100000000E-03 0. -1.
    9900012    2    1    2    0    0  0.76865745812E+00 -0.84419357906E+00 -0.29918169586E+00  0.90007742920E+02  0.90000004327E+02 0.  0.
        -12    1    1    2    0    0 -0.76865745812E+00  0.84419357906E+00  0.29918169586E+00  0.11802570796E+01  0.00000000000E+00 0.  1.
         11    1    3    3    0    0  0.97968447441E+01 -0.19855769171E+02  0.84275038382E+01  0.23690769458E+02  0.51100000000E-03 0.  1.
        -11    1    3    3    0    0  0.13231404035E+02  0.12923756504E+01 -0.28649673660E+02  0.31583921362E+02  0.51100000000E-03 0. -1.
        -12    1    3    3    0    0 -0.22259591321E+02  0.17719199941E+02  0.19922988126E+02  0.34733052100E+02  0.00000000000E+00 0.  1.
</event>
<event>
 7    1  0.2497665E-015  0.9000765E+02  0.7816164E-02  0.1186339E+00
        -11   -1    0    0    0    0  0.00000000000E+00  0.00000000000E+00  0.45593999997E+02  0.45594000000E+02  0.51100000000E-03 0.  1.
         11   -1    0    0    0    0 -0.00000000000E+00 -0.00000000000E+00 -0.45593999997E+02  0.45594000000E+02  0.51100000000E-03 0. -1.
    9900012    2    1    2    0    0 -0.98200855220E+00  0.63473339544E+00  0.16123775002E+00  0.90007650521E+02  0.89999910708E+02 0.  0.
        -12    1    1    2    0    0  0.98200855220E+00 -0.63473339544E+00 -0.16123775002E+00  0.11803494787E+01  0.00000000000E+00 0.  1.
         11    1    3    3    0    0 -0.14389703931E+02 -0.12525645292E+02 -0.36263630506E+02  0.40975678968E+02  0.51100000000E-03 0. -1.
        -11    1    3    3    0    0  0.78810032866E+01 -0.43875400439E+01  0.94957631771E+00  0.90698630577E+01  0.51100000000E-03 0.  1.
        -12    1    3    3    0    0  0.55266920918E+01  0.17547918731E+02  0.35475291938E+02  0.39962108495E+02  0.00000000000E+00 0.  1.
</event>
<event>
 7    1  0.2497665E-015  0.9000793E+02  0.7816164E-02  0.1186339E+00
        -11   -1    0    0    0    0  0.00000000000E+00  0.00000000000E+00  0.45593999997E+02  0.45594000000E+02  0.51100000000E-03 0.  1.
         11   -1    0    0    0    0 -0.00000000000E+00 -0.00000000000E+00 -0.45593999997E+02  0.45594000000E+02  0.51100000000E-03 0. -1.
    9900012    2    1    2    0    0  0.41865666110E+00  0.40503867783E+00 -0.10262692713E+01  0.90007932905E+02  0.90000196820E+02 0.  0.
        -12    1    1    2    0    0 -0.41865666110E+00 -0.40503867783E+00  0.10262692713E+01  0.11800670946E+01  0.00000000000E+00 0.  1.
         11    1    3    3    0    0 -0.10330070562E+01  0.11227653113E+02  0.17902023428E+01  0.11416309504E+02  0.51100000000E-03 0. -1.
        -11    1    3    3    0    0 -0.31865309156E+01 -0.23511301234E+02  0.32809855819E+02  0.40489775303E+02  0.51100000000E-03 0.  1.
         12    1    3    3    0    0  0.46381946329E+01  0.12688686799E+02 -0.35626327433E+02  0.38101848098E+02  0.00000000000E+00 0. -1.
</event>
<event>
 7    1  0.2497665E-015  0.9000772E+02  0.7816164E-02  0.1186339E+00
        -11   -1    0    0    0    0  0.00000000000E+00  0.00000000000E+00  0.45593999997E+02  0.45594000000E+02  0.51100000000E-03 0.  1.
         11   -1    0    0    0    0 -0.00000000000E+00 -0.00000000000E+00 -0.45593999997E+02  0.45594000000E+02  0.51100000000E-03 0. -1.
    9900012    2    1    2    0    0 -0.83646311489E+00 -0.80302032381E+00 -0.22034054103E+00  0.90007719467E+02  0.89999980564E+02 0.  0.
        -12    1    1    2    0    0  0.83646311489E+00  0.80302032381E+00  0.22034054103E+00  0.11802805332E+01  0.00000000000E+00 0.  1.
         11    1    3    3    0    0  0.16241462569E+01  0.80647744458E+01  0.77523691748E+01  0.11303878361E+02  0.51100000000E-03 0. -1.
        -11    1    3    3    0    0  0.25176267253E+02 -0.12602420765E+02  0.23485515467E+02  0.36663808844E+02  0.51100000000E-03 0.  1.
         12    1    3    3    0    0 -0.27636876625E+02  0.37346259954E+01 -0.31458225183E+02  0.42040032262E+02  0.00000000000E+00 0. -1.
</event>
<event>
 7    1  0.2497665E-015  0.9000767E+02  0.7816164E-02  0.1186339E+00
        -11   -1    0    0    0    0  0.00000000000E+00  0.00000000000E+00  0.45593999997E+02  0.45594000000E+02  0.51100000000E-03 0. -1.
         11   -1    0    0    0    0 -0.00000000000E+00 -0.00000000000E+00 -0.45593999997E+02  0.45594000000E+02  0.51100000000E-03 0.  1.
    9900012    2    1    2    0    0 -0.57653072960E+00  0.89318864202E+00 -0.51284867872E+00  0.90007666403E+02  0.89999926800E+02 0.  0.
        -12    1    1    2    0    0  0.57653072960E+00 -0.89318864202E+00  0.51284867872E+00  0.11803335968E+01  0.00000000000E+00 0.  1.
         11    1    3    3    0    0  0.11191245387E+02  0.34506110874E+02 -0.27496580990E+01  0.36379613534E+02  0.51100000000E-03 0. -1.
        -11    1    3    3    0    0  0.37834878314E+01  0.74722117312E+01  0.47458650673E+01  0.96266278532E+01  0.51100000000E-03 0.  1.
        -12    1    3    3    0    0 -0.15551263948E+02 -0.41085133964E+02 -0.25090556469E+01  0.44001425016E+02  0.00000000000E+00 0.  1.
</event>
<event>
 7    1  0.2497665E-015  0.9000762E+02  0.7816164E-02  0.1186339E+00
        -11   -1    0    0    0    0  0.00000000000E+00  0.00000000000E+00  0.45593999997E+02  0.45594000000E+02  0.51100000000E-03 0. -1.
         11   -1    0    0    0    0 -0.00000000000E+00 -0.00000000000E+00 -0.45593999997E+02  0.45594000000E+02  0.51100000000E-03 0.  1.
    9900012    2    1    2    0    0 -0.51076267981E+00 -0.10641085144E+01  0.96005448578E-02  0.90007619715E+02  0.89999879496E+02 0.  0.
        -12    1    1    2    0    0  0.51076267981E+00  0.10641085144E+01 -0.96005448578E-02  0.11803802845E+01  0.00000000000E+00 0.  1.
         11    1    3    3    0    0  0.28582961959E+02 -0.17478724357E+02  0.19909027199E+02  0.38972565784E+02  0.51100000000E-03 0. -1.
        -11    1    3    3    0    0  0.53614808801E+01  0.15026185353E+01  0.37045496592E+01  0.66878268615E+01  0.51100000000E-03 0.  1.
        -12    1    3    3    0    0 -0.34455205519E+02  0.14911997307E+02 -0.23603976314E+02  0.44347227070E+02  0.00000000000E+00 0.  1.
</event>
<event>
 7    1  0.2497665E-015  0.9000781E+02  0.7816164E-02  0.1186339E+00
        -11   -1    0    0    0    0  0.00000000000E+00  0.00000000000E+00  0.45593999997E+02  0.45594000000E+02  0.51100000000E-03 0.  1.
         11   -1    0    0    0    0 -0.00000000000E+00 -0.00000000000E+00 -0.45593999997E+02  0.45594000000E+02  0.51100000000E-03 0. -1.
    9900012    2    1    2    0    0  0.59309815916E+00 -0.58329223929E+00 -0.83716356740E+00  0.90007814378E+02  0.90000076728E+02 0.  0.
        -12    1    1    2    0    0 -0.59309815916E+00  0.58329223929E+00  0.83716356740E+00  0.11801856216E+01  0.00000000000E+00 0.  1.
         11    1    3    3    0    0  0.23149188212E+01 -0.18613610958E+00  0.11188472060E+02  0.11426959486E+02  0.51100000000E-03 0. -1.
        -11    1    3    3    0    0 -0.39241643723E+02  0.25790837643E+01 -0.91289922938E+00  0.39336899476E+02  0.51100000000E-03 0.  1.
         12    1    3    3    0    0  0.37519823061E+02 -0.29762398940E+01 -0.11112736398E+02  0.39243955416E+02  0.00000000000E+00 0. -1.
</event>
<event>
 7    1  0.2497665E-015  0.9000771E+02  0.7816164E-02  0.1186339E+00
        -11   -1    0    0    0    0  0.00000000000E+00  0.00000000000E+00  0.45593999997E+02  0.45594000000E+02  0.51100000000E-03 0.  1.
         11   -1    0    0    0    0 -0.00000000000E+00 -0.00000000000E+00 -0.45593999997E+02  0.45594000000E+02  0.51100000000E-03 0. -1.
    9900012    2    1    2    0    0  0.83243552714E+00  0.65532158376E+00  0.52027762738E+00  0.90007710165E+02  0.89999971139E+02 0.  0.
        -12    1    1    2    0    0 -0.83243552714E+00 -0.65532158376E+00 -0.52027762738E+00  0.11802898350E+01  0.00000000000E+00 0.  1.
         11    1    3    3    0    0  0.59527777912E+00  0.95879679790E+01 -0.43563693004E+00  0.96163020645E+01  0.51100000000E-03 0. -1.
        -11    1    3    3    0    0  0.50313679925E+01 -0.11998743884E+01  0.39983825265E+02  0.40317001941E+02  0.51100000000E-03 0.  1.
         12    1    3    3    0    0 -0.47942102444E+01 -0.77327720068E+01 -0.39027910708E+02  0.40074406159E+02  0.00000000000E+00 0. -1.
</event>
<event>
 7    1  0.2497665E-015  0.9000781E+02  0.7816164E-02  0.1186339E+00
        -11   -1    0    0    0    0  0.00000000000E+00  0.00000000000E+00  0.45593999997E+02  0.45594000000E+02  0.51100000000E-03 0. -1.
         11   -1    0    0    0    0 -0.00000000000E+00 -0.00000000000E+00 -0.45593999997E+02  0.45594000000E+02  0.51100000000E-03 0.  1.
    9900012    2    1    2    0    0  0.11423628408E+00  0.33470028441E+00  0.11259551850E+01  0.90007809639E+02  0.90000071926E+02 0.  0.
        -12    1    1    2    0    0 -0.11423628408E+00 -0.33470028441E+00 -0.11259551850E+01  0.11801903607E+01  0.00000000000E+00 0.  1.
         11    1    3    3    0    0 -0.67237016404E+01  0.81298533623E+00  0.69713580908E+01  0.97195135062E+01  0.51100000000E-03 0. -1.
        -11    1    3    3    0    0 -0.11395179839E+02 -0.34120934134E+02  0.12193392956E+02  0.37983774191E+02  0.51100000000E-03 0.  1.
         12    1    3    3    0    0  0.18233117764E+02  0.33642649082E+02 -0.18038795862E+02  0.42304521942E+02  0.00000000000E+00 0. -1.
</event>
<event>
 7    1  0.2497665E-015  0.9000771E+02  0.7816164E-02  0.1186339E+00
        -11   -1    0    0    0    0  0.00000000000E+00  0.00000000000E+00  0.45593999997E+02  0.45594000000E+02  0.51100000000E-03 0.  1.
         11   -1    0    0    0    0 -0.00000000000E+00 -0.00000000000E+00 -0.45593999997E+02  0.45594000000E+02  0.51100000000E-03 0. -1.
    9900012    2    1    2    0    0 -0.27547880166E+00 -0.45843513144E+00 -0.10521596123E+01  0.90007707159E+02  0.89999968094E+02 0.  0.
        -12    1    1    2    0    0  0.27547880166E+00  0.45843513144E+00  0.10521596123E+01  0.11802928407E+01  0.00000000000E+00 0.  1.
         11    1    3    3    0    0  0.22260057360E+02  0.71848141627E+00 -0.31957486554E+02  0.38952629132E+02  0.51100000000E-03 0. -1.
        -11    1    3    3    0    0 -0.39311259909E+01  0.11215344760E+02 -0.11884944760E+01  0.11943627130E+02  0.51100000000E-03 0.  1.
        -12    1    3    3    0    0 -0.18604410170E+02 -0.12392261307E+02  0.32093821418E+02  0.39111450897E+02  0.00000000000E+00 0.  1.
</event>
<event>
 7    1  0.2497665E-015  0.9000775E+02  0.7816164E-02  0.1186339E+00
        -11   -1    0    0    0    0  0.00000000000E+00  0.00000000000E+00  0.45593999997E+02  0.45594000000E+02  0.51100000000E-03 0.  1.
         11   -1    0    0    0    0 -0.00000000000E+00 -0.00000000000E+00 -0.45593999997E+02  0.45594000000E+02  0.51100000000E-03 0. -1.
    9900012    2    1    2    0    0  0.41290443165E+00 -0.13969449396E+00 -0.10968068807E+01  0.90007750046E+02  0.90000011546E+02 0.  0.
        -12    1    1    2    0    0 -0.41290443165E+00  0.13969449396E+00  0.10968068807E+01  0.11802499544E+01  0.00000000000E+00 0.  1.
         11    1    3    3    0    0 -0.17028485549E+02  0.20084139258E+02 -0.33068612997E+02  0.42271445866E+02  0.51100000000E-03 0. -1.
        -11    1    3    3    0    0  0.60566495068E+01  0.33317586336E+01  0.67636035181E+00  0.69455800642E+01  0.51100000000E-03 0.  1.
        -12    1    3    3    0    0  0.11384740474E+02 -0.23555592386E+02  0.31295445764E+02  0.40790724115E+02  0.00000000000E+00 0.  1.
</event>
<event>
 7    1  0.2497665E-015  0.9000756E+02  0.7816164E-02  0.1186339E+00
        -11   -1    0    0    0    0  0.00000000000E+00  0.00000000000E+00  0.45593999997E+02  0.45594000000E+02  0.51100000000E-03 0.  1.
         11   -1    0    0    0    0 -0.00000000000E+00 -0.00000000000E+00 -0.45593999997E+02  0.45594000000E+02  0.51100000000E-03 0. -1.
    9900012    2    1    2    0    0 -0.58836614474E+00  0.67019301927E+00  0.77337732969E+00  0.90007556906E+02  0.89999815857E+02 0.  0.
        -12    1    1    2    0    0  0.58836614474E+00 -0.67019301927E+00 -0.77337732969E+00  0.11804430937E+01  0.00000000000E+00 0.  1.
         11    1    3    3    0    0  0.66060329098E+01 -0.64332060548E+01 -0.49520879248E+01  0.10466565149E+02  0.51100000000E-03 0. -1.
        -11    1    3    3    0    0  0.27852673146E+02 -0.18980194080E+02  0.11186762865E+02  0.35512854467E+02  0.51100000000E-03 0.  1.
         12    1    3    3    0    0 -0.35047072201E+02  0.26083593154E+02 -0.54612976101E+01  0.44028137290E+02  0.00000000000E+00 0. -1.
</event>
<event>
 7    1  0.2497665E-015  0.9000768E+02  0.7816164E-02  0.1186339E+00
        -11   -1    0    0    0    0  0.00000000000E+00  0.00000000000E+00  0.45593999997E+02  0.45594000000E+02  0.51100000000E-03 0.  1.
         11   -1    0    0    0    0 -0.00000000000E+00 -0.00000000000E+00 -0.45593999997E+02  0.45594000000E+02  0.51100000000E-03 0. -1.
    9900012    2    1    2    0    0 -0.67428578597E+00  0.77897121828E+00 -0.57592389427E+00  0.90007684020E+02  0.89999944649E+02 0.  0.
        -12    1    1    2    0    0  0.67428578597E+00 -0.77897121828E+00  0.57592389427E+00  0.11803159798E+01  0.00000000000E+00 0.  1.
         11    1    3    3    0    0  0.15226154794E+02 -0.22347326814E+02 -0.29610842489E+02  0.40100384022E+02  0.51100000000E-03 0. -1.
        -11    1    3    3    0    0 -0.10214280049E+02 -0.53658704030E+01  0.82145798332E+01  0.14163453117E+02  0.51100000000E-03 0.  1.
        -12    1    3    3    0    0 -0.56861605306E+01  0.28492168435E+02  0.20820338762E+02  0.35743846881E+02  0.00000000000E+00 0.  1.
</event>
<event>
 7    1  0.2497665E-015  0.9000774E+02  0.7816164E-02  0.1186339E+00
        -11   -1    0    0    0    0  0.00000000000E+00  0.00000000000E+00  0.45593999997E+02  0.45594000000E+02  0.51100000000E-03 0.  1.
         11   -1    0    0    0    0 -0.00000000000E+00 -0.00000000000E+00 -0.45593999997E+02  0.45594000000E+02  0.51100000000E-03 0. -1.
    9900012    2    1    2    0    0 -0.10443699625E+01  0.46265419770E+00  0.29707075448E+00  0.90007742164E+02  0.90000003561E+02 0.  0.
        -12    1    1    2    0    0  0.10443699625E+01 -0.46265419770E+00 -0.29707075448E+00  0.11802578356E+01  0.00000000000E+00 0.  1.
         11    1    3    3    0    0 -0.22566213612E+02 -0.22238820138E+02 -0.22875039743E+02  0.39077699029E+02  0.51100000000E-03 0. -1.
        -11    1    3    3    0    0 -0.54868188792E+01  0.15502708754E+02  0.13741198394E+02  0.21430345160E+02  0.51100000000E-03 0.  1.
        -12    1    3    3    0    0  0.27008662529E+02  0.71987655810E+01  0.94309121041E+01  0.29499697975E+02  0.00000000000E+00 0.  1.
</event>
<event>
 7    1  0.2497665E-015  0.9000789E+02  0.7816164E-02  0.1186339E+00
        -11   -1    0    0    0    0  0.00000000000E+00  0.00000000000E+00  0.45593999997E+02  0.45594000000E+02  0.51100000000E-03 0. -1.
         11   -1    0    0    0    0 -0.00000000000E+00 -0.00000000000E+00 -0.45593999997E+02  0.45594000000E+02  0.51100000000E-03 0.  1.
    9900012    2    1    2    0    0 -0.73796938864E+00  0.91061230201E+00  0.13729713047E+00  0.90007888105E+02  0.90000151428E+02 0.  0.
        -12    1    1    2    0    0  0.73796938864E+00 -0.91061230201E+00 -0.13729713047E+00  0.11801118952E+01  0.00000000000E+00 0.  1.
         11    1    3    3    0    0  0.12588869803E+01  0.60574044597E+01  0.98258361572E+01  0.11611373806E+02  0.51100000000E-03 0. -1.
        -11    1    3    3    0    0  0.26213503419E+02  0.12249458324E+02 -0.28226047769E+02  0.40421612580E+02  0.51100000000E-03 0.  1.
         12    1    3    3    0    0 -0.28210359788E+02 -0.17396250481E+02  0.18537508742E+02  0.37974901718E+02  0.00000000000E+00 0. -1.
</event>
<event>
 7    1  0.2497665E-015  0.9000767E+02  0.7816164E-02  0.1186339E+00
        -11   -1    0    0    0    0  0.00000000000E+00  0.00000000000E+00  0.45593999997E+02  0.45594000000E+02  0.51100000000E-03 0. -1.
         11   -1    0    0    0    0 -0.00000000000E+00 -0.00000000000E+00 -0.45593999997E+02  0.45594000000E+02  0.51100000000E-03 0.  1.
    9900012    2    1    2    0    0 -0.26135180489E-01 -0.60769411344E+00  0.10115368696E+01  0.90007668681E+02  0.89999929108E+02 0.  0.
        -12    1    1    2    0    0  0.26135180489E-01  0.60769411344E+00 -0.10115368696E+01  0.11803313186E+01  0.00000000000E+00 0.  1.
         11    1    3    3    0    0 -0.53253497925E+01  0.22562248547E+01 -0.75434636868E+01  0.95054587297E+01  0.51100000000E-03 0. -1.
        -11    1    3    3    0    0  0.15283326073E+02  0.24689795390E+02 -0.23290438045E+02  0.37223790199E+02  0.51100000000E-03 0.  1.
         12    1    3    3    0    0 -0.99841114606E+01 -0.27553714358E+02  0.31845438601E+02  0.43278419752E+02  0.00000000000E+00 0. -1.
</event>
<event>
 7    1  0.2497665E-015  0.9000826E+02  0.7816164E-02  0.1186338E+00
        -11   -1    0    0    0    0  0.00000000000E+00  0.00000000000E+00  0.45593999997E+02  0.45594000000E+02  0.51100000000E-03 0.  1.
         11   -1    0    0    0    0 -0.00000000000E+00 -0.00000000000E+00 -0.45593999997E+02  0.45594000000E+02  0.51100000000E-03 0. -1.
    9900012    2    1    2    0    0 -0.11193342028E+01 -0.30749148296E+00 -0.21054110936E+00  0.90008259508E+02  0.90000527732E+02 0.  0.
        -12    1    1    2    0    0  0.11193342028E+01  0.30749148296E+00  0.21054110936E+00  0.11797404920E+01  0.00000000000E+00 0.  1.
         11    1    3    3    0    0  0.87561802791E+01  0.21583399123E+02 -0.24134946912E+02  0.33541160884E+02  0.51100000000E-03 0. -1.
        -11    1    3    3    0    0 -0.11876366758E+02 -0.27816274755E+01 -0.11117024720E+02  0.16503750412E+02  0.51100000000E-03 0.  1.
        -12    1    3    3    0    0  0.20008522763E+01 -0.19109263130E+02  0.35041430522E+02  0.39963348211E+02  0.00000000000E+00 0.  1.
</event>
<event>
 7    1  0.2497665E-015  0.9000779E+02  0.7816164E-02  0.1186339E+00
        -11   -1    0    0    0    0  0.00000000000E+00  0.00000000000E+00  0.45593999997E+02  0.45594000000E+02  0.51100000000E-03 0. -1.
         11   -1    0    0    0    0 -0.00000000000E+00 -0.00000000000E+00 -0.45593999997E+02  0.45594000000E+02  0.51100000000E-03 0.  1.
    9900012    2    1    2    0    0  0.95657932232E-01  0.15910664289E-02  0.11763297193E+01  0.90007786214E+02  0.90000048192E+02 0.  0.
        -12    1    1    2    0    0 -0.95657932232E-01 -0.15910664289E-02 -0.11763297193E+01  0.11802137857E+01  0.00000000000E+00 0.  1.
         11    1    3    3    0    0 -0.86761047702E+01  0.31426368890E+02  0.27147049993E+02  0.42424683608E+02  0.51100000000E-03 0. -1.
        -11    1    3    3    0    0 -0.29261609673E+01 -0.88687031196E+01  0.22529524059E+01  0.96068781524E+01  0.51100000000E-03 0.  1.
        -12    1    3    3    0    0  0.11697923670E+02 -0.22556074704E+02 -0.28223672680E+02  0.37976224454E+02  0.00000000000E+00 0.  1.
</event>
<event>
 7    1  0.2497665E-015  0.9000772E+02  0.7816164E-02  0.1186339E+00
        -11   -1    0    0    0    0  0.00000000000E+00  0.00000000000E+00  0.45593999997E+02  0.45594000000E+02  0.51100000000E-03 0.  1.
         11   -1    0    0    0    0 -0.00000000000E+00 -0.00000000000E+00 -0.45593999997E+02  0.45594000000E+02  0.51100000000E-03 0. -1.
    9900012    2    1    2    0    0 -0.73222637757E-01 -0.90660894438E+00 -0.75216619306E+00  0.90007722357E+02  0.89999983492E+02 0.  0.
        -12    1    1    2    0    0  0.73222637757E-01  0.90660894438E+00  0.75216619306E+00  0.11802776430E+01  0.00000000000E+00 0.  1.
         11    1    3    3    0    0 -0.66626597160E+01 -0.61747613150E+01  0.21322639081E+01  0.93308767767E+01  0.51100000000E-03 0. -1.
        -11    1    3    3    0    0  0.57740500704E+01 -0.12933379173E+02  0.35481717704E+02  0.38204243777E+02  0.51100000000E-03 0.  1.
         12    1    3    3    0    0  0.81538700775E+00  0.18201531544E+02 -0.38366147805E+02  0.42472601803E+02  0.00000000000E+00 0. -1.
</event>
<event>
 7    1  0.2497665E-015  0.9000820E+02  0.7816164E-02  0.1186338E+00
        -11   -1    0    0    0    0  0.00000000000E+00  0.00000000000E+00  0.45593999997E+02  0.45594000000E+02  0.51100000000E-03 0.  1.
         11   -1    0    0    0    0 -0.00000000000E+00 -0.00000000000E+00 -0.45593999997E+02  0.45594000000E+02  0.51100000000E-03 0. -1.
    9900012    2    1    2    0    0 -0.23566566751E+00 -0.50453471699E+00 -0.10401149325E+01  0.90008198042E+02  0.90000465455E+02 0.  0.
        -12    1    1    2    0    0  0.23566566751E+00  0.50453471699E+00  0.10401149325E+01  0.11798019580E+01  0.00000000000E+00 0.  1.
         11    1    3    3    0    0 -0.65269451362E+01 -0.42665928844E+01 -0.38157794634E+01  0.86813017933E+01  0.51100000000E-03 0. -1.
        -11    1    3    3    0    0 -0.10798151019E+02 -0.18851099836E+02 -0.30607497255E+02  0.37533757059E+02  0.51100000000E-03 0.  1.
         12    1    3    3    0    0  0.17089430488E+02  0.22613158004E+02  0.33383161786E+02  0.43793139190E+02  0.00000000000E+00 0. -1.
</event>
<event>
 7    1  0.2497665E-015  0.9000775E+02  0.7816164E-02  0.1186339E+00
        -11   -1    0    0    0    0  0.00000000000E+00  0.00000000000E+00  0.45593999997E+02  0.45594000000E+02  0.51100000000E-03 0. -1.
         11   -1    0    0    0    0 -0.00000000000E+00 -0.00000000000E+00 -0.45593999997E+02  0.45594000000E+02  0.51100000000E-03 0.  1.
    9900012    2    1    2    0    0  0.99960258991E+00  0.62697403552E+00  0.26084775669E-01  0.90007753333E+02  0.90000014877E+02 0.  0.
        -12    1    1    2    0    0 -0.99960258991E+00 -0.62697403552E+00 -0.26084775669E-01  0.11802466668E+01  0.00000000000E+00 0.  1.
         11    1    3    3    0    0  0.26023493327E+02  0.31566217664E+02 -0.13353201440E+01  0.40932033699E+02  0.51100000000E-03 0. -1.
        -11    1    3    3    0    0  0.49190355556E+01 -0.66399680790E+01 -0.54745027152E+01  0.99124299305E+01  0.51100000000E-03 0.  1.
        -12    1    3    3    0    0 -0.29942926293E+02 -0.24299275550E+02  0.68359076349E+01  0.39163289704E+02  0.00000000000E+00 0.  1.
</event>
<event>
 7    1  0.2497665E-015  0.9000782E+02  0.7816164E-02  0.1186339E+00
        -11   -1    0    0    0    0  0.00000000000E+00  0.00000000000E+00  0.45593999997E+02  0.45594000000E+02  0.51100000000E-03 0.  1.
         11   -1    0    0    0    0 -0.00000000000E+00 -0.00000000000E+00 -0.45593999997E+02  0.45594000000E+02  0.51100000000E-03 0. -1.
    9900012    2    1    2    0    0 -0.48615444538E+00  0.10742297391E+01 -0.50175743821E-01  0.90007816420E+02  0.90000078797E+02 0.  0.
        -12    1    1    2    0    0  0.48615444538E+00 -0.10742297391E+01  0.50175743821E-01  0.11801835799E+01  0.00000000000E+00 0.  1.
         11    1    3    3    0    0  0.15429906235E+02 -0.14976360904E+02 -0.35613078807E+02  0.41601259292E+02  0.51100000000E-03 0. -1.
        -11    1    3    3    0    0 -0.29629969597E+01  0.91098725157E+01 -0.36796198973E+00  0.95866847514E+01  0.51100000000E-03 0.  1.
        -12    1    3    3    0    0 -0.12953063721E+02  0.69407181272E+01  0.35930865053E+02  0.38819872376E+02  0.00000000000E+00 0.  1.
</event>
<event>
 7    1  0.2497665E-015  0.9000810E+02  0.7816164E-02  0.1186338E+00
        -11   -1    0    0    0    0  0.00000000000E+00  0.00000000000E+00  0.45593999997E+02  0.45594000000E+02  0.51100000000E-03 0.  1.
         11   -1    0    0    0    0 -0.00000000000E+00 -0.00000000000E+00 -0.45593999997E+02  0.45594000000E+02  0.51100000000E-03 0. -1.
    9900012    2    1    2    0    0 -0.72219069631E+00 -0.82021964052E+00  0.44478892422E+00  0.90008103035E+02  0.90000369194E+02 0.  0.
        -12    1    1    2    0    0  0.72219069631E+00  0.82021964052E+00 -0.44478892422E+00  0.11798969648E+01  0.00000000000E+00 0.  1.
         11    1    3    3    0    0 -0.98267894407E+01  0.18178831930E+02 -0.28625896900E+02  0.35305490998E+02  0.51100000000E-03 0. -1.
        -11    1    3    3    0    0  0.13475594492E+01  0.10342990334E+02 -0.26906670641E+01  0.10771864046E+02  0.51100000000E-03 0.  1.
        -12    1    3    3    0    0  0.77570392952E+01 -0.29342041904E+02  0.31761352888E+02  0.43930747991E+02  0.00000000000E+00 0.  1.
</event>
<event>
 7    1  0.2497665E-015  0.9000770E+02  0.7816164E-02  0.1186339E+00
        -11   -1    0    0    0    0  0.00000000000E+00  0.00000000000E+00  0.45593999997E+02  0.45594000000E+02  0.51100000000E-03 0.  1.
         11   -1    0    0    0    0 -0.00000000000E+00 -0.00000000000E+00 -0.45593999997E+02  0.45594000000E+02  0.51100000000E-03 0. -1.
    9900012    2    1    2    0    0 -0.94990688945E+00  0.42092316386E+00 -0.56000838524E+00  0.90007699699E+02  0.89999960535E+02 0.  0.
        -12    1    1    2    0    0  0.94990688945E+00 -0.42092316386E+00  0.56000838524E+00  0.11803003008E+01  0.00000000000E+00 0.  1.
         11    1    3    3    0    0 -0.41245478949E+01 -0.41133244184E+02 -0.59144814018E+00  0.41343747817E+02  0.51100000000E-03 0. -1.
        -11    1    3    3    0    0 -0.75619934409E+01  0.56699418223E+01 -0.52908880055E+01  0.10831688752E+02  0.51100000000E-03 0.  1.
        -12    1    3    3    0    0  0.10736634446E+02  0.35884225525E+02  0.53223277604E+01  0.37832263130E+02  0.00000000000E+00 0.  1.
</event>
<event>
 7    1  0.2497665E-015  0.9000761E+02  0.7816164E-02  0.1186339E+00
        -11   -1    0    0    0    0  0.00000000000E+00  0.00000000000E+00  0.45593999997E+02  0.45594000000E+02  0.51100000000E-03 0.  1.
         11   -1    0    0    0    0 -0.00000000000E+00 -0.00000000000E+00 -0.45593999997E+02  0.45594000000E+02  0.51100000000E-03 0. -1.
    9900012    2    1    2    0    0  0.21952093799E+00  0.28894714474E+00 -0.11232235225E+01  0.90007614056E+02  0.89999873762E+02 0.  0.
        -12    1    1    2    0    0 -0.21952093799E+00 -0.28894714474E+00  0.11232235225E+01  0.11803859437E+01  0.00000000000E+00 0.  1.
         11    1    3    3    0    0 -0.35371303278E+02 -0.36432689345E+01 -0.41885504119E+01  0.35804279897E+02  0.51100000000E-03 0. -1.
        -11    1    3    3    0    0 -0.69837185609E+01  0.82394601367E+01  0.36692338389E+01  0.11407204106E+02  0.51100000000E-03 0.  1.
        -12    1    3    3    0    0  0.42574542777E+02 -0.43072440575E+01 -0.60390694949E+00  0.42796130054E+02  0.00000000000E+00 0.  1.
</event>
<event>
 7    1  0.2497665E-015  0.9000799E+02  0.7816164E-02  0.1186339E+00
        -11   -1    0    0    0    0  0.00000000000E+00  0.00000000000E+00  0.45593999997E+02  0.45594000000E+02  0.51100000000E-03 0.  1.
         11   -1    0    0    0    0 -0.00000000000E+00 -0.00000000000E+00 -0.45593999997E+02  0.45594000000E+02  0.51100000000E-03 0. -1.
    9900012    2    1    2    0    0  0.27963566875E+00 -0.25842667573E+00 -0.11168900052E+01  0.90007989942E+02  0.90000254609E+02 0.  0.
        -12    1    1    2    0    0 -0.27963566875E+00  0.25842667573E+00  0.11168900052E+01  0.11800100583E+01  0.00000000000E+00 0.  1.
         11    1    3    3    0    0 -0.28222711070E+01  0.11815704247E+01 -0.10794756628E+02  0.11219986354E+02  0.51100000000E-03 0. -1.
        -11    1    3    3    0    0  0.29205760054E+00 -0.39333284876E+02  0.10745421506E+02  0.40775687369E+02  0.51100000000E-03 0.  1.
         12    1    3    3    0    0  0.28098491753E+01  0.37893287776E+02 -0.10675548829E+01  0.38012316218E+02  0.00000000000E+00 0. -1.
</event>
<event>
 7    1  0.3397561E-015  0.9000769E+02  0.7816164E-02  0.1186339E+00
        -11   -1    0    0    0    0  0.00000000000E+00  0.00000000000E+00  0.45593999997E+02  0.45594000000E+02  0.51100000000E-03 0. -1.
         11   -1    0    0    0    0 -0.00000000000E+00 -0.00000000000E+00 -0.45593999997E+02  0.45594000000E+02  0.51100000000E-03 0.  1.
    9900012    2    1    2    0    0 -0.25274753495E+00  0.62694732542E+00  0.96756454708E+00  0.90007692659E+02  0.89999953403E+02 0.  0.
        -12    1    1    2    0    0  0.25274753495E+00 -0.62694732542E+00 -0.96756454708E+00  0.11803073405E+01  0.00000000000E+00 0.  1.
         11    1    3    3    0    0  0.27258371984E+02 -0.18869019874E+02  0.14564583563E+02  0.36210300314E+02  0.51100000000E-03 0. -1.
        -11    1    3    3    0    0  0.79131036811E+01 -0.46280188812E+01 -0.30386742133E+01  0.96576037332E+01  0.51100000000E-03 0.  1.
        -12    1    3    3    0    0 -0.35424223200E+02  0.24123986080E+02 -0.10558344802E+02  0.44139788612E+02  0.00000000000E+00 0.  1.
</event>
<event>
 7    1  0.2497665E-015  0.9000759E+02  0.7816164E-02  0.1186339E+00
        -11   -1    0    0    0    0  0.00000000000E+00  0.00000000000E+00  0.45593999997E+02  0.45594000000E+02  0.51100000000E-03 0. -1.
         11   -1    0    0    0    0 -0.00000000000E+00 -0.00000000000E+00 -0.45593999997E+02  0.45594000000E+02  0.51100000000E-03 0.  1.
    9900012    2    1    2    0    0 -0.11308270352E+01 -0.33237869149E+00 -0.64211305669E-01  0.90007589703E+02  0.89999849087E+02 0.  0.
        -12    1    1    2    0    0  0.11308270352E+01  0.33237869149E+00  0.64211305669E-01  0.11804102972E+01  0.00000000000E+00 0.  1.
         11    1    3    3    0    0  0.39892781042E+01  0.10284858371E+02  0.79170929550E+01  0.13578402432E+02  0.51100000000E-03 0. -1.
        -11    1    3    3    0    0  0.24452174951E+02  0.20719831454E+02  0.22978489275E+01  0.32132544021E+02  0.51100000000E-03 0.  1.
         12    1    3    3    0    0 -0.29572280090E+02 -0.31337068516E+02 -0.10279153188E+02  0.44296643249E+02  0.00000000000E+00 0. -1.
</event>
<event>
 7    1  0.2497665E-015  0.9000775E+02  0.7816164E-02  0.1186339E+00
        -11   -1    0    0    0    0  0.00000000000E+00  0.00000000000E+00  0.45593999997E+02  0.45594000000E+02  0.51100000000E-03 0. -1.
         11   -1    0    0    0    0 -0.00000000000E+00 -0.00000000000E+00 -0.45593999997E+02  0.45594000000E+02  0.51100000000E-03 0.  1.
    9900012    2    1    2    0    0 -0.47940508660E-01 -0.11756392511E+01 -0.92588369534E-01  0.90007746405E+02  0.90000007858E+02 0.  0.
        -12    1    1    2    0    0  0.47940508660E-01  0.11756392511E+01  0.92588369534E-01  0.11802535945E+01  0.00000000000E+00 0.  1.
         11    1    3    3    0    0  0.12994886921E+02 -0.31367717649E+01 -0.16409880327E+01  0.13468454446E+02  0.51100000000E-03 0. -1.
        -11    1    3    3    0    0 -0.21522291175E+02 -0.25313299057E+02 -0.21722909229E+02  0.39697064278E+02  0.51100000000E-03 0.  1.
         12    1    3    3    0    0  0.84794637458E+01  0.27274431571E+02  0.23271308893E+02  0.36842227681E+02  0.00000000000E+00 0. -1.
</event>
<event>
 7    1  0.2497665E-015  0.9000767E+02  0.7816164E-02  0.1186339E+00
        -11   -1    0    0    0    0  0.00000000000E+00  0.00000000000E+00  0.45593999997E+02  0.45594000000E+02  0.51100000000E-03 0.  1.
         11   -1    0    0    0    0 -0.00000000000E+00 -0.00000000000E+00 -0.45593999997E+02  0.45594000000E+02  0.51100000000E-03 0. -1.
    9900012    2    1    2    0    0  0.14584268867E+00 -0.32956932880E+00 -0.11239620953E+01  0.90007670883E+02  0.89999931339E+02 0.  0.
        -12    1    1    2    0    0 -0.14584268867E+00  0.32956932880E+00  0.11239620953E+01  0.11803291169E+01  0.00000000000E+00 0.  1.
         11    1    3    3    0    0  0.41012250050E+01 -0.59974695645E+01  0.11171370312E+02  0.13326259889E+02  0.51100000000E-03 0. -1.
        -11    1    3    3    0    0 -0.10566279099E+02 -0.15540544956E+02  0.26195992552E+02  0.32239491584E+02  0.51100000000E-03 0.  1.
         12    1    3    3    0    0  0.66108967825E+01  0.21208445192E+02 -0.38491324960E+02  0.44441919410E+02  0.00000000000E+00 0. -1.
</event>
<event>
 7    1  0.2497665E-015  0.9000764E+02  0.7816164E-02  0.1186339E+00
        -11   -1    0    0    0    0  0.00000000000E+00  0.00000000000E+00  0.45593999997E+02  0.45594000000E+02  0.51100000000E-03 0.  1.
         11   -1    0    0    0    0 -0.00000000000E+00 -0.00000000000E+00 -0.45593999997E+02  0.45594000000E+02  0.51100000000E-03 0. -1.
    9900012    2    1    2    0    0  0.11110604401E+01 -0.29209697116E+00  0.27108099621E+00  0.90007635290E+02  0.89999895276E+02 0.  0.
        -12    1    1    2    0    0 -0.11110604401E+01  0.29209697116E+00 -0.27108099621E+00  0.11803647100E+01  0.00000000000E+00 0.  1.
         11    1    3    3    0    0 -0.10803972743E+02 -0.24846631667E+02 -0.26081153276E+02  0.37607279730E+02  0.51100000000E-03 0. -1.
        -11    1    3    3    0    0  0.49297774216E-01 -0.82648070289E+01 -0.62788980503E+00  0.82887701961E+01  0.51100000000E-03 0.  1.
        -12    1    3    3    0    0  0.11865735409E+02  0.32819341725E+02  0.26980124078E+02  0.44111585364E+02  0.00000000000E+00 0.  1.
</event>
<event>
 7    1  0.2497665E-015  0.9000776E+02  0.7816164E-02  0.1186339E+00
        -11   -1    0    0    0    0  0.00000000000E+00  0.00000000000E+00  0.45593999997E+02  0.45594000000E+02  0.51100000000E-03 0.  1.
         11   -1    0    0    0    0 -0.00000000000E+00 -0.00000000000E+00 -0.45593999997E+02  0.45594000000E+02  0.51100000000E-03 0. -1.
    9900012    2    1    2    0    0 -0.13737803898E+00 -0.33635633484E+00 -0.11229268429E+01  0.90007757227E+02  0.90000018822E+02 0.  0.
        -12    1    1    2    0    0  0.13737803898E+00  0.33635633484E+00  0.11229268429E+01  0.11802427734E+01  0.00000000000E+00 0.  1.
         11    1    3    3    0    0 -0.89191062120E+01  0.10388936679E+01  0.89616813656E+00  0.90240164707E+01  0.51100000000E-03 0. -1.
        -11    1    3    3    0    0  0.13293386803E+02  0.35775787505E+02 -0.15517669076E+02  0.41199747063E+02  0.51100000000E-03 0.  1.
         12    1    3    3    0    0 -0.45116586302E+01 -0.37151037508E+02  0.13498574096E+02  0.39783993692E+02  0.00000000000E+00 0. -1.
</event>
<event>
 7    1  0.2497665E-015  0.9000776E+02  0.7816164E-02  0.1186339E+00
        -11   -1    0    0    0    0  0.00000000000E+00  0.00000000000E+00  0.45593999997E+02  0.45594000000E+02  0.51100000000E-03 0. -1.
         11   -1    0    0    0    0 -0.00000000000E+00 -0.00000000000E+00 -0.45593999997E+02  0.45594000000E+02  0.51100000000E-03 0.  1.
    9900012    2    1    2    0    0  0.35583999539E+00 -0.73263153492E+00  0.85416721950E+00  0.90007757352E+02  0.90000018949E+02 0.  0.
        -12    1    1    2    0    0 -0.35583999539E+00  0.73263153492E+00 -0.85416721950E+00  0.11802426476E+01  0.00000000000E+00 0.  1.
         11    1    3    3    0    0  0.22884340276E+02  0.30765195738E+02 -0.15304948323E+02  0.41284764043E+02  0.51100000000E-03 0. -1.
        -11    1    3    3    0    0 -0.32909821741E+01  0.15135900189E+01  0.91988851266E+01  0.98864051226E+01  0.51100000000E-03 0.  1.
        -12    1    3    3    0    0 -0.19237518107E+02 -0.33011417292E+02  0.69602304164E+01  0.38836588186E+02  0.00000000000E+00 0.  1.
</event>
<event>
 7    1  0.2497665E-015  0.9000777E+02  0.7816164E-02  0.1186339E+00
        -11   -1    0    0    0    0  0.00000000000E+00  0.00000000000E+00  0.45593999997E+02  0.45594000000E+02  0.51100000000E-03 0. -1.
         11   -1    0    0    0    0 -0.00000000000E+00 -0.00000000000E+00 -0.45593999997E+02  0.45594000000E+02  0.51100000000E-03 0.  1.
    9900012    2    1    2    0    0 -0.15438477250E+00  0.97227419825E+00  0.65099152463E+00  0.90007770472E+02  0.90000032242E+02 0.  0.
        -12    1    1    2    0    0  0.15438477250E+00 -0.97227419825E+00 -0.65099152463E+00  0.11802295284E+01  0.00000000000E+00 0.  1.
         11    1    3    3    0    0 -0.22748305813E+02  0.21178742736E+02 -0.17446610583E+02  0.35642794255E+02  0.51100000000E-03 0. -1.
        -11    1    3    3    0    0  0.42140830250E+01  0.12402702420E+02  0.88463034116E+01  0.15806410326E+02  0.51100000000E-03 0.  1.
        -12    1    3    3    0    0  0.18379838015E+02 -0.32609170958E+02  0.92512986960E+01  0.38558565891E+02  0.00000000000E+00 0.  1.
</event>
<event>
 7    1  0.2497665E-015  0.9000776E+02  0.7816164E-02  0.1186339E+00
        -11   -1    0    0    0    0  0.00000000000E+00  0.00000000000E+00  0.45593999997E+02  0.45594000000E+02  0.51100000000E-03 0. -1.
         11   -1    0    0    0    0 -0.00000000000E+00 -0.00000000000E+00 -0.45593999997E+02  0.45594000000E+02  0.51100000000E-03 0.  1.
    9900012    2    1    2    0    0  0.29552526832E-01 -0.10435323096E+01  0.55057925179E+00  0.90007758268E+02  0.90000019877E+02 0.  0.
        -12    1    1    2    0    0 -0.29552526832E-01  0.10435323096E+01 -0.55057925179E+00  0.11802417318E+01  0.00000000000E+00 0.  1.
         11    1    3    3    0    0 -0.45863039414E+01  0.80391846339E+01  0.34484663646E+02  0.35705107484E+02  0.51100000000E-03 0. -1.
        -11    1    3    3    0    0  0.34949491984E+01 -0.15449300595E+02  0.35770494375E+01  0.16238560334E+02  0.51100000000E-03 0.  1.
        -12    1    3    3    0    0  0.11209072698E+01  0.63665836516E+01 -0.37511133831E+02  0.38064090450E+02  0.00000000000E+00 0.  1.
</event>
<event>
 7    1  0.2497665E-015  0.9000772E+02  0.7816164E-02  0.1186339E+00
        -11   -1    0    0    0    0  0.00000000000E+00  0.00000000000E+00  0.45593999997E+02  0.45594000000E+02  0.51100000000E-03 0. -1.
         11   -1    0    0    0    0 -0.00000000000E+00 -0.00000000000E+00 -0.45593999997E+02  0.45594000000E+02  0.51100000000E-03 0.  1.
    9900012    2    1    2    0    0  0.45172596952E+00  0.81853907301E+00  0.72041116970E+00  0.90007722567E+02  0.89999983705E+02 0.  0.
        -12    1    1    2    0    0 -0.45172596952E+00 -0.81853907301E+00 -0.72041116970E+00  0.11802774331E+01  0.00000000000E+00 0.  1.
         11    1    3    3    0    0  0.84355927631E+01  0.57251543040E+01 -0.18298908653E+01  0.10357852958E+02  0.51100000000E-03 0. -1.
        -11    1    3    3    0    0 -0.18536492866E+02 -0.70633297281E+01  0.37855680807E+02  0.42738095001E+02  0.51100000000E-03 0.  1.
         12    1    3    3    0    0  0.10552626073E+02  0.21567144971E+01 -0.35305378772E+02  0.36911774608E+02  0.00000000000E+00 0. -1.
</event>
<event>
 7    1  0.2497665E-015  0.9000769E+02  0.7816164E-02  0.1186339E+00
        -11   -1    0    0    0    0  0.00000000000E+00  0.00000000000E+00  0.45593999997E+02  0.45594000000E+02  0.51100000000E-03 0. -1.
         11   -1    0    0    0    0 -0.00000000000E+00 -0.00000000000E+00 -0.45593999997E+02  0.45594000000E+02  0.51100000000E-03 0.  1.
    9900012    2    1    2    0    0 -0.45592725536E+00  0.10029093899E+01  0.42360481574E+00  0.90007687352E+02  0.89999948025E+02 0.  0.
        -12    1    1    2    0    0  0.45592725536E+00 -0.10029093899E+01 -0.42360481574E+00  0.11803126477E+01  0.00000000000E+00 0.  1.
         11    1    3    3    0    0  0.39038984098E+01 -0.71223227115E+01  0.42795359415E+01  0.91805409283E+01  0.51100000000E-03 0. -1.
        -11    1    3    3    0    0  0.41309861040E+01 -0.93012312732E+01 -0.39208953831E+02  0.40508270886E+02  0.51100000000E-03 0.  1.
         12    1    3    3    0    0 -0.84908117692E+01  0.17426463375E+02  0.35353022705E+02  0.40318875538E+02  0.00000000000E+00 0. -1.
</event>
<event>
 7    1  0.2497665E-015  0.9000667E+02  0.7816164E-02  0.1186341E+00
        -11   -1    0    0    0    0  0.00000000000E+00  0.00000000000E+00  0.45593999997E+02  0.45594000000E+02  0.51100000000E-03 0.  1.
         11   -1    0    0    0    0 -0.00000000000E+00 -0.00000000000E+00 -0.45593999997E+02  0.45594000000E+02  0.51100000000E-03 0. -1.
    9900012    2    1    2    0    0 -0.11065502391E+01 -0.28349127627E+00 -0.30118258420E+00  0.90006673760E+02  0.89998921048E+02 0.  0.
        -12    1    1    2    0    0  0.11065502391E+01  0.28349127627E+00  0.30118258420E+00  0.11813262396E+01  0.00000000000E+00 0.  1.
         11    1    3    3    0    0 -0.21363578570E+02 -0.13833079527E+02 -0.32595981050E+02  0.41355224088E+02  0.51100000000E-03 0. -1.
        -11    1    3    3    0    0  0.89877952501E+01  0.13976107883E+01 -0.30667181170E+01  0.95988822080E+01  0.51100000000E-03 0.  1.
        -12    1    3    3    0    0  0.11269233081E+02  0.12151977463E+02  0.35361516583E+02  0.39052567464E+02  0.00000000000E+00 0.  1.
</event>
<event>
 7    1  0.2497665E-015  0.9000762E+02  0.7816164E-02  0.1186339E+00
        -11   -1    0    0    0    0  0.00000000000E+00  0.00000000000E+00  0.45593999997E+02  0.45594000000E+02  0.51100000000E-03 0. -1.
         11   -1    0    0    0    0 -0.00000000000E+00 -0.00000000000E+00 -0.45593999997E+02  0.45594000000E+02  0.51100000000E-03 0.  1.
    9900012    2    1    2    0    0 -0.56553240349E+00  0.14942214785E+00  0.10252565518E+01  0.90007616641E+02  0.89999876380E+02 0.  0.
        -12    1    1    2    0    0  0.56553240349E+00 -0.14942214785E+00 -0.10252565518E+01  0.11803833592E+01  0.00000000000E+00 0.  1.
         11    1    3    3    0    0  0.12375588485E+02  0.33991092411E+01  0.36146881808E+02  0.38357609397E+02  0.51100000000E-03 0. -1.
        -11    1    3    3    0    0 -0.23617586058E+01  0.16288427938E+01  0.72019215724E+01  0.77523355936E+01  0.51100000000E-03 0.  1.
        -12    1    3    3    0    0 -0.10579362282E+02 -0.48785298871E+01 -0.42323546828E+02  0.43897671650E+02  0.00000000000E+00 0.  1.
</event>
<event>
 7    1  0.2497665E-015  0.9000776E+02  0.7816164E-02  0.1186339E+00
        -11   -1    0    0    0    0  0.00000000000E+00  0.00000000000E+00  0.45593999997E+02  0.45594000000E+02  0.51100000000E-03 0.  1.
         11   -1    0    0    0    0 -0.00000000000E+00 -0.00000000000E+00 -0.45593999997E+02  0.45594000000E+02  0.51100000000E-03 0. -1.
    9900012    2    1    2    0    0  0.84009082797E+00  0.69166270465E+00 -0.45695852594E+00  0.90007762316E+02  0.90000023979E+02 0.  0.
        -12    1    1    2    0    0 -0.84009082797E+00 -0.69166270465E+00  0.45695852594E+00  0.11802376840E+01  0.00000000000E+00 0.  1.
         11    1    3    3    0    0 -0.28351541694E+00  0.95316593589E+01  0.10250544809E+01  0.95908106057E+01  0.51100000000E-03 0. -1.
        -11    1    3    3    0    0 -0.22277804383E+01  0.11921651514E+02  0.35697622318E+02  0.37701578480E+02  0.51100000000E-03 0.  1.
         12    1    3    3    0    0  0.33513866832E+01 -0.20761648168E+02 -0.37179635324E+02  0.42715373230E+02  0.00000000000E+00 0. -1.
</event>
<event>
 7    1  0.2497665E-015  0.9000778E+02  0.7816164E-02  0.1186339E+00
        -11   -1    0    0    0    0  0.00000000000E+00  0.00000000000E+00  0.45593999997E+02  0.45594000000E+02  0.51100000000E-03 0. -1.
         11   -1    0    0    0    0 -0.00000000000E+00 -0.00000000000E+00 -0.45593999997E+02  0.45594000000E+02  0.51100000000E-03 0.  1.
    9900012    2    1    2    0    0 -0.31133267673E+00  0.11380210268E+01 -0.29823753511E-01  0.90007784194E+02  0.90000046145E+02 0.  0.
        -12    1    1    2    0    0  0.31133267673E+00 -0.11380210268E+01  0.29823753511E-01  0.11802158063E+01  0.00000000000E+00 0.  1.
         11    1    3    3    0    0  0.26101499189E+02 -0.15362079418E+02  0.15225087585E+02  0.33898156826E+02  0.51100000000E-03 0. -1.
        -11    1    3    3    0    0 -0.18798440066E+02  0.13746696131E+02  0.13031911040E+02  0.26686770300E+02  0.51100000000E-03 0.  1.
        -12    1    3    3    0    0 -0.76143917997E+01  0.27534043145E+01 -0.28286822378E+02  0.29422857068E+02  0.00000000000E+00 0.  1.
</event>
<event>
 7    1  0.2497665E-015  0.9000773E+02  0.7816164E-02  0.1186339E+00
        -11   -1    0    0    0    0  0.00000000000E+00  0.00000000000E+00  0.45593999997E+02  0.45594000000E+02  0.51100000000E-03 0.  1.
         11   -1    0    0    0    0 -0.00000000000E+00 -0.00000000000E+00 -0.45593999997E+02  0.45594000000E+02  0.51100000000E-03 0. -1.
    9900012    2    1    2    0    0  0.30191293025E+00  0.20381159258E+00 -0.11226502118E+01  0.90007731352E+02  0.89999992606E+02 0.  0.
        -12    1    1    2    0    0 -0.30191293025E+00 -0.20381159258E+00  0.11226502118E+01  0.11802686477E+01  0.00000000000E+00 0.  1.
         11    1    3    3    0    0  0.19487338571E+02 -0.21992519683E+02  0.17330559491E+02  0.34114155114E+02  0.51100000000E-03 0. -1.
        -11    1    3    3    0    0  0.10326549114E+02 -0.29148452940E+01  0.35878833980E+01  0.11314011102E+02  0.51100000000E-03 0.  1.
        -12    1    3    3    0    0 -0.29511974754E+02  0.25111176570E+02 -0.22041093101E+02  0.44579565136E+02  0.00000000000E+00 0.  1.
</event>
<event>
 7    1  0.2497665E-015  0.9000737E+02  0.7816164E-02  0.1186340E+00
        -11   -1    0    0    0    0  0.00000000000E+00  0.00000000000E+00  0.45593999997E+02  0.45594000000E+02  0.51100000000E-03 0.  1.
         11   -1    0    0    0    0 -0.00000000000E+00 -0.00000000000E+00 -0.45593999997E+02  0.45594000000E+02  0.51100000000E-03 0. -1.
    9900012    2    1    2    0    0  0.37740354687E+00 -0.88399687979E+00  0.68556106466E+00  0.90007373940E+02  0.89999630475E+02 0.  0.
        -12    1    1    2    0    0 -0.37740354687E+00  0.88399687979E+00 -0.68556106466E+00  0.11806260602E+01  0.00000000000E+00 0.  1.
         11    1    3    3    0    0  0.66914825852E+00  0.35099037839E+02  0.13194581063E+01  0.35130203338E+02  0.51100000000E-03 0. -1.
        -11    1    3    3    0    0  0.45097538897E+01  0.78451343904E+01  0.51454792583E+01  0.10409609542E+02  0.51100000000E-03 0.  1.
        -12    1    3    3    0    0 -0.48014986013E+01 -0.43828169109E+02 -0.57793762999E+01  0.44467561061E+02  0.00000000000E+00 0.  1.
</event>
<event>
 7    1  0.2497665E-015  0.9000777E+02  0.7816164E-02  0.1186339E+00
        -11   -1    0    0    0    0  0.00000000000E+00  0.00000000000E+00  0.45593999997E+02  0.45594000000E+02  0.51100000000E-03 0. -1.
         11   -1    0    0    0    0 -0.00000000000E+00 -0.00000000000E+00 -0.45593999997E+02  0.45594000000E+02  0.51100000000E-03 0.  1.
    9900012    2    1    2    0    0  0.11516571579E+01 -0.16879425493E+00  0.19528070146E+00  0.90007771098E+02  0.90000032876E+02 0.  0.
        -12    1    1    2    0    0 -0.11516571579E+01  0.16879425493E+00 -0.19528070146E+00  0.11802289024E+01  0.00000000000E+00 0.  1.
         11    1    3    3    0    0  0.71557259792E+01 -0.31299277433E+02 -0.91121334315E+01  0.33374843191E+02  0.51100000000E-03 0. -1.
        -11    1    3    3    0    0  0.79515707389E+01 -0.79006737590E+01 -0.56665091713E+01  0.12560153244E+02  0.51100000000E-03 0.  1.
        -12    1    3    3    0    0 -0.13955639560E+02  0.39031156937E+02  0.14973923304E+02  0.44072774663E+02  0.00000000000E+00 0.  1.
</event>
<event>
 7    1  0.2497665E-015  0.9000778E+02  0.7816164E-02  0.1186339E+00
        -11   -1    0    0    0    0  0.00000000000E+00  0.00000000000E+00  0.45593999997E+02  0.45594000000E+02  0.51100000000E-03 0.  1.
         11   -1    0    0    0    0 -0.00000000000E+00 -0.00000000000E+00 -0.45593999997E+02  0.45594000000E+02  0.51100000000E-03 0. -1.
    9900012    2    1    2    0    0 -0.78099639809E+00  0.33424080555E+00 -0.81929786209E+00  0.90007779141E+02  0.90000041025E+02 0.  0.
        -12    1    1    2    0    0  0.78099639809E+00 -0.33424080555E+00  0.81929786209E+00  0.11802208593E+01  0.00000000000E+00 0.  1.
         11    1    3    3    0    0 -0.89026178849E+01  0.35318236702E+01 -0.75333321178E+01  0.12185297563E+02  0.51100000000E-03 0. -1.
        -11    1    3    3    0    0 -0.27754673554E+02  0.12104824556E+02  0.20374298205E+02  0.36496036898E+02  0.51100000000E-03 0.  1.
         12    1    3    3    0    0  0.35876295041E+02 -0.15302407421E+02 -0.13660263949E+02  0.41326444680E+02  0.00000000000E+00 0. -1.
</event>
<event>
 7    1  0.2497665E-015  0.9000772E+02  0.7816164E-02  0.1186339E+00
        -11   -1    0    0    0    0  0.00000000000E+00  0.00000000000E+00  0.45593999997E+02  0.45594000000E+02  0.51100000000E-03 0. -1.
         11   -1    0    0    0    0 -0.00000000000E+00 -0.00000000000E+00 -0.45593999997E+02  0.45594000000E+02  0.51100000000E-03 0.  1.
    9900012    2    1    2    0    0 -0.97184529431E-01  0.53974660675E+00  0.10451305958E+01  0.90007716477E+02  0.89999977535E+02 0.  0.
        -12    1    1    2    0    0  0.97184529431E-01 -0.53974660675E+00 -0.10451305958E+01  0.11802835229E+01  0.00000000000E+00 0.  1.
         11    1    3    3    0    0 -0.26547047108E+01  0.13401775248E+02 -0.50557412586E+01  0.14567620150E+02  0.51100000000E-03 0. -1.
        -11    1    3    3    0    0 -0.34653824971E+02 -0.15344080031E+02  0.31171280605E+01  0.38026896596E+02  0.51100000000E-03 0.  1.
         12    1    3    3    0    0  0.37211345152E+02  0.24820513904E+01  0.29837437939E+01  0.37413199732E+02  0.00000000000E+00 0. -1.
</event>
<event>
 7    1  0.2497665E-015  0.9000775E+02  0.7816164E-02  0.1186339E+00
        -11   -1    0    0    0    0  0.00000000000E+00  0.00000000000E+00  0.45593999997E+02  0.45594000000E+02  0.51100000000E-03 0. -1.
         11   -1    0    0    0    0 -0.00000000000E+00 -0.00000000000E+00 -0.45593999997E+02  0.45594000000E+02  0.51100000000E-03 0.  1.
    9900012    2    1    2    0    0  0.50628850294E+00  0.99496899838E+00  0.38301566070E+00  0.90007749030E+02  0.90000010517E+02 0.  0.
        -12    1    1    2    0    0 -0.50628850294E+00 -0.99496899838E+00 -0.38301566070E+00  0.11802509700E+01  0.00000000000E+00 0.  1.
         11    1    3    3    0    0 -0.57575585931E+01 -0.76993430072E+01 -0.11945934303E+01  0.96879521789E+01  0.51100000000E-03 0. -1.
        -11    1    3    3    0    0  0.28942915243E+02 -0.15076368932E+02 -0.22455683277E+02  0.39613721797E+02  0.51100000000E-03 0.  1.
         12    1    3    3    0    0 -0.22679068147E+02  0.23770680938E+02  0.24033292368E+02  0.40706075054E+02  0.00000000000E+00 0. -1.
</event>
<event>
 7    1  0.2497665E-015  0.9000782E+02  0.7816164E-02  0.1186339E+00
        -11   -1    0    0    0    0  0.00000000000E+00  0.00000000000E+00  0.45593999997E+02  0.45594000000E+02  0.51100000000E-03 0.  1.
         11   -1    0    0    0    0 -0.00000000000E+00 -0.00000000000E+00 -0.45593999997E+02  0.45594000000E+02  0.51100000000E-03 0. -1.
    9900012    2    1    2    0    0 -0.24730076053E+00  0.11410006143E+01 -0.17258514147E+00  0.90007819633E+02  0.90000082052E+02 0.  0.
        -12    1    1    2    0    0  0.24730076053E+00 -0.11410006143E+01  0.17258514147E+00  0.11801803672E+01  0.00000000000E+00 0.  1.
         11    1    3    3    0    0  0.13595781061E+02 -0.21402698664E+02 -0.21790729892E+02  0.33432868292E+02  0.51100000000E-03 0. -1.
        -11    1    3    3    0    0  0.12961615227E+02 -0.47045262135E+01  0.32439865123E+01  0.14165432748E+02  0.51100000000E-03 0.  1.
        -12    1    3    3    0    0 -0.26804697048E+02  0.27248225492E+02  0.18374158238E+02  0.42409518593E+02  0.00000000000E+00 0.  1.
</event>
<event>
 7    1  0.2497665E-015  0.9000781E+02  0.7816164E-02  0.1186339E+00
        -11   -1    0    0    0    0  0.00000000000E+00  0.00000000000E+00  0.45593999997E+02  0.45594000000E+02  0.51100000000E-03 0.  1.
         11   -1    0    0    0    0 -0.00000000000E+00 -0.00000000000E+00 -0.45593999997E+02  0.45594000000E+02  0.51100000000E-03 0. -1.
    9900012    2    1    2    0    0  0.49673915426E+00  0.69868159837E+00  0.81113880282E+00  0.90007808524E+02  0.90000070796E+02 0.  0.
        -12    1    1    2    0    0 -0.49673915426E+00 -0.69868159837E+00 -0.81113880282E+00  0.11801914763E+01  0.00000000000E+00 0.  1.
         11    1    3    3    0    0  0.74649145249E+01  0.66951198928E+00 -0.60987338178E+01  0.96626988781E+01  0.51100000000E-03 0. -1.
        -11    1    3    3    0    0 -0.80672394398E+01  0.35413902408E+02 -0.14346675055E+02  0.39051913158E+02  0.51100000000E-03 0.  1.
         12    1    3    3    0    0  0.10990640692E+01 -0.35384732799E+02  0.21256547676E+02  0.41293196487E+02  0.00000000000E+00 0. -1.
</event>
<event>
 7    1  0.2965004E-015  0.9000779E+02  0.7816164E-02  0.1186339E+00
        -11   -1    0    0    0    0  0.00000000000E+00  0.00000000000E+00  0.45593999997E+02  0.45594000000E+02  0.51100000000E-03 0.  1.
         11   -1    0    0    0    0 -0.00000000000E+00 -0.00000000000E+00 -0.45593999997E+02  0.45594000000E+02  0.51100000000E-03 0. -1.
    9900012    2    1    2    0    0  0.19394396253E+00 -0.50136501986E+00 -0.10506683234E+01  0.90007794480E+02  0.90000056567E+02 0.  0.
        -12    1    1    2    0    0 -0.19394396253E+00  0.50136501986E+00  0.10506683234E+01  0.11802055200E+01  0.00000000000E+00 0.  1.
         11    1    3    3    0    0  0.32619913298E+02 -0.15324386535E+02  0.23449337518E+01  0.36116399056E+02  0.51100000000E-03 0. -1.
        -11    1    3    3    0    0  0.95239426646E+01  0.16050907610E+01  0.89464382486E+00  0.96995973145E+01  0.51100000000E-03 0.  1.
        -12    1    3    3    0    0 -0.41949912000E+02  0.13217930754E+02 -0.42902459000E+01  0.44191798109E+02  0.00000000000E+00 0.  1.
</event>
<event>
 7    1  0.2497665E-015  0.9000760E+02  0.7816164E-02  0.1186339E+00
        -11   -1    0    0    0    0  0.00000000000E+00  0.00000000000E+00  0.45593999997E+02  0.45594000000E+02  0.51100000000E-03 0.  1.
         11   -1    0    0    0    0 -0.00000000000E+00 -0.00000000000E+00 -0.45593999997E+02  0.45594000000E+02  0.51100000000E-03 0. -1.
    9900012    2    1    2    0    0 -0.45614257088E+00  0.51994369426E+00 -0.95652171818E+00  0.90007601217E+02  0.89999860753E+02 0.  0.
        -12    1    1    2    0    0  0.45614257088E+00 -0.51994369426E+00  0.95652171818E+00  0.11803987833E+01  0.00000000000E+00 0.  1.
         11    1    3    3    0    0  0.27504940951E+02 -0.24824261024E+02 -0.28399643454E+01  0.37159535921E+02  0.51100000000E-03 0. -1.
        -11    1    3    3    0    0  0.31343017903E+01 -0.32198212117E+01 -0.82780793887E+01  0.94190071119E+01  0.51100000000E-03 0.  1.
        -12    1    3    3    0    0 -0.31095385312E+02  0.28564025930E+02  0.10161522016E+02  0.43429058184E+02  0.00000000000E+00 0.  1.
</event>
<event>
 7    1  0.2497665E-015  0.9000786E+02  0.7816164E-02  0.1186339E+00
        -11   -1    0    0    0    0  0.00000000000E+00  0.00000000000E+00  0.45593999997E+02  0.45594000000E+02  0.51100000000E-03 0.  1.
         11   -1    0    0    0    0 -0.00000000000E+00 -0.00000000000E+00 -0.45593999997E+02  0.45594000000E+02  0.51100000000E-03 0. -1.
    9900012    2    1    2    0    0  0.26182017405E+00  0.44276039103E-01 -0.11498781155E+01  0.90007860241E+02  0.90000123196E+02 0.  0.
        -12    1    1    2    0    0 -0.26182017405E+00 -0.44276039103E-01  0.11498781155E+01  0.11801397594E+01  0.00000000000E+00 0.  1.
         11    1    3    3    0    0  0.16320732442E+01 -0.15309459763E+01  0.89937336982E+01  0.92679396174E+01  0.51100000000E-03 0. -1.
        -11    1    3    3    0    0  0.37000452906E+02  0.46395832193E+01 -0.18072681245E+02  0.41438883375E+02  0.51100000000E-03 0.  1.
         12    1    3    3    0    0 -0.38370705977E+02 -0.30643612039E+01  0.79290694314E+01  0.39301037248E+02  0.00000000000E+00 0. -1.
</event>
<event>
 7    1  0.2497665E-015  0.9000763E+02  0.7816164E-02  0.1186339E+00
        -11   -1    0    0    0    0  0.00000000000E+00  0.00000000000E+00  0.45593999997E+02  0.45594000000E+02  0.51100000000E-03 0.  1.
         11   -1    0    0    0    0 -0.00000000000E+00 -0.00000000000E+00 -0.45593999997E+02  0.45594000000E+02  0.51100000000E-03 0. -1.
    9900012    2    1    2    0    0 -0.45113025363E+00 -0.10823056719E+01 -0.13556558090E+00  0.90007626288E+02  0.89999886155E+02 0.  0.
        -12    1    1    2    0    0  0.45113025363E+00  0.10823056719E+01  0.13556558090E+00  0.11803737119E+01  0.00000000000E+00 0.  1.
         11    1    3    3    0    0  0.55563687827E+01  0.67274690425E+01 -0.55172925068E+01  0.10323400149E+02  0.51100000000E-03 0. -1.
        -11    1    3    3    0    0  0.32265763226E+01  0.33938610184E+02  0.12553606714E+02  0.36329507260E+02  0.51100000000E-03 0.  1.
         12    1    3    3    0    0 -0.92340753589E+01 -0.41748384898E+02 -0.71718797883E+01  0.43354718879E+02  0.00000000000E+00 0. -1.
</event>
<event>
 7    1  0.2497665E-015  0.9000774E+02  0.7816164E-02  0.1186339E+00
        -11   -1    0    0    0    0  0.00000000000E+00  0.00000000000E+00  0.45593999997E+02  0.45594000000E+02  0.51100000000E-03 0. -1.
         11   -1    0    0    0    0 -0.00000000000E+00 -0.00000000000E+00 -0.45593999997E+02  0.45594000000E+02  0.51100000000E-03 0.  1.
    9900012    2    1    2    0    0 -0.42820060226E+00 -0.21153998704E-01  0.10996359728E+01  0.90007744722E+02  0.90000006153E+02 0.  0.
        -12    1    1    2    0    0  0.42820060226E+00  0.21153998704E-01 -0.10996359728E+01  0.11802552775E+01  0.00000000000E+00 0.  1.
         11    1    3    3    0    0  0.20540570060E+02  0.11060853540E+02  0.27222896010E+02  0.35851688480E+02  0.51100000000E-03 0. -1.
        -11    1    3    3    0    0  0.53674647708E+01 -0.57556299280E+01  0.76654029088E+01  0.10986143816E+02  0.51100000000E-03 0.  1.
        -12    1    3    3    0    0 -0.26336235433E+02 -0.53263776103E+01 -0.33788662946E+02  0.43169912427E+02  0.00000000000E+00 0.  1.
</event>
<event>
 7    1  0.2497665E-015  0.9000722E+02  0.7816164E-02  0.1186340E+00
        -11   -1    0    0    0    0  0.00000000000E+00  0.00000000000E+00  0.45593999997E+02  0.45594000000E+02  0.51100000000E-03 0.  1.
         11   -1    0    0    0    0 -0.00000000000E+00 -0.00000000000E+00 -0.45593999997E+02  0.45594000000E+02  0.51100000000E-03 0. -1.
    9900012    2    1    2    0    0  0.10559203456E+01  0.40872633511E+00  0.33499235734E+00  0.90007218533E+02  0.89999473016E+02 0.  0.
        -12    1    1    2    0    0 -0.10559203456E+01 -0.40872633511E+00 -0.33499235734E+00  0.11807814670E+01  0.00000000000E+00 0.  1.
         11    1    3    3    0    0 -0.56494504636E+01  0.28849815370E+02 -0.28466350951E+02  0.40921403619E+02  0.51100000000E-03 0. -1.
        -11    1    3    3    0    0  0.95855502827E+01 -0.53712461493E+01 -0.12857658786E+01  0.11062832077E+02  0.51100000000E-03 0.  1.
        -12    1    3    3    0    0 -0.28801794735E+01 -0.23069842885E+02  0.30087109187E+02  0.38022982837E+02  0.00000000000E+00 0.  1.
</event>
<event>
 7    1  0.2497665E-015  0.9000779E+02  0.7816164E-02  0.1186339E+00
        -11   -1    0    0    0    0  0.00000000000E+00  0.00000000000E+00  0.45593999997E+02  0.45594000000E+02  0.51100000000E-03 0. -1.
         11   -1    0    0    0    0 -0.00000000000E+00 -0.00000000000E+00 -0.45593999997E+02  0.45594000000E+02  0.51100000000E-03 0.  1.
    9900012    2    1    2    0    0 -0.70722616884E+00  0.81138731121E+00 -0.48412667360E+00  0.90007789485E+02  0.90000051507E+02 0.  0.
        -12    1    1    2    0    0  0.70722616884E+00 -0.81138731121E+00  0.48412667360E+00  0.11802105146E+01  0.00000000000E+00 0.  1.
         11    1    3    3    0    0 -0.91346819265E+01  0.17991393315E+00  0.78457545213E-02  0.91364569029E+01  0.51100000000E-03 0. -1.
        -11    1    3    3    0    0 -0.62103214490E+00 -0.25468654069E+02 -0.30728568165E+02  0.39915948226E+02  0.51100000000E-03 0.  1.
         12    1    3    3    0    0  0.90484879025E+01  0.26100127447E+02  0.30236595737E+02  0.40955384357E+02  0.00000000000E+00 0. -1.
</event>
<event>
 7    1  0.2497665E-015  0.9000774E+02  0.7816164E-02  0.1186339E+00
        -11   -1    0    0    0    0  0.00000000000E+00  0.00000000000E+00  0.45593999997E+02  0.45594000000E+02  0.51100000000E-03 0. -1.
         11   -1    0    0    0    0 -0.00000000000E+00 -0.00000000000E+00 -0.45593999997E+02  0.45594000000E+02  0.51100000000E-03 0.  1.
    9900012    2    1    2    0    0  0.10261274453E+01 -0.52378816104E+00 -0.25634166183E+00  0.90007744681E+02  0.90000006110E+02 0.  0.
        -12    1    1    2    0    0 -0.10261274453E+01  0.52378816104E+00  0.25634166183E+00  0.11802553195E+01  0.00000000000E+00 0.  1.
         11    1    3    3    0    0 -0.21317420889E+02 -0.35125859315E+02  0.74277629224E+01  0.41754402022E+02  0.51100000000E-03 0. -1.
        -11    1    3    3    0    0  0.33434674087E+00  0.55778453498E+01  0.70196540833E+01  0.89721619580E+01  0.51100000000E-03 0.  1.
        -12    1    3    3    0    0  0.22009201593E+02  0.29024225804E+02 -0.14703758668E+02  0.39281180700E+02  0.00000000000E+00 0.  1.
</event>
<event>
 7    1  0.2497665E-015  0.9000765E+02  0.7816164E-02  0.1186339E+00
        -11   -1    0    0    0    0  0.00000000000E+00  0.00000000000E+00  0.45593999997E+02  0.45594000000E+02  0.51100000000E-03 0.  1.
         11   -1    0    0    0    0 -0.00000000000E+00 -0.00000000000E+00 -0.45593999997E+02  0.45594000000E+02  0.51100000000E-03 0. -1.
    9900012    2    1    2    0    0 -0.69976186211E+00  0.47823508277E+00 -0.82149508976E+00  0.90007648510E+02  0.89999908670E+02 0.  0.
        -12    1    1    2    0    0  0.69976186211E+00 -0.47823508277E+00  0.82149508976E+00  0.11803514903E+01  0.00000000000E+00 0.  1.
         11    1    3    3    0    0  0.18714466866E+01  0.18774220732E+01  0.90035281107E+01  0.93856563458E+01  0.51100000000E-03 0. -1.
        -11    1    3    3    0    0 -0.22698337602E+02  0.15499380011E+02  0.24890570360E+02  0.37080801012E+02  0.51100000000E-03 0.  1.
         12    1    3    3    0    0  0.20127129053E+02 -0.16898567001E+02 -0.34715593560E+02  0.43541191151E+02  0.00000000000E+00 0. -1.
</event>
<event>
 7    1  0.2497665E-015  0.9000768E+02  0.7816164E-02  0.1186339E+00
        -11   -1    0    0    0    0  0.00000000000E+00  0.00000000000E+00  0.45593999997E+02  0.45594000000E+02  0.51100000000E-03 0. -1.
         11   -1    0    0    0    0 -0.00000000000E+00 -0.00000000000E+00 -0.45593999997E+02  0.45594000000E+02  0.51100000000E-03 0.  1.
    9900012    2    1    2    0    0 -0.15036107993E+00 -0.11660614878E+01 -0.10414375367E+00  0.90007680650E+02  0.89999941234E+02 0.  0.
        -12    1    1    2    0    0  0.15036107993E+00  0.11660614878E+01  0.10414375367E+00  0.11803193505E+01  0.00000000000E+00 0.  1.
         11    1    3    3    0    0  0.70626891587E+01 -0.38078605552E+01 -0.48566982877E+01  0.93791736672E+01  0.51100000000E-03 0. -1.
        -11    1    3    3    0    0 -0.33205268934E+02  0.25810028709E+02 -0.93139692348E+01  0.43075485954E+02  0.51100000000E-03 0.  1.
         12    1    3    3    0    0  0.25992218696E+02 -0.23168229642E+02  0.14066523769E+02  0.37553021029E+02  0.00000000000E+00 0. -1.
</event>
<event>
 7    1  0.2497665E-015  0.9000772E+02  0.7816164E-02  0.1186339E+00
        -11   -1    0    0    0    0  0.00000000000E+00  0.00000000000E+00  0.45593999997E+02  0.45594000000E+02  0.51100000000E-03 0. -1.
         11   -1    0    0    0    0 -0.00000000000E+00 -0.00000000000E+00 -0.45593999997E+02  0.45594000000E+02  0.51100000000E-03 0.  1.
    9900012    2    1    2    0    0  0.47242845654E+00  0.11608536506E-01  0.10815434074E+01  0.90007720564E+02  0.89999981676E+02 0.  0.
        -12    1    1    2    0    0 -0.47242845654E+00 -0.11608536506E-01 -0.10815434074E+01  0.11802794359E+01  0.00000000000E+00 0.  1.
         11    1    3    3    0    0 -0.19922529088E+02  0.48907026921E+01  0.28100926607E+02  0.34792071145E+02  0.51100000000E-03 0. -1.
        -11    1    3    3    0    0 -0.50536199826E+00 -0.71826997020E+00  0.11318773459E+02  0.11352794167E+02  0.51100000000E-03 0.  1.
        -12    1    3    3    0    0  0.20900319543E+02 -0.41608241854E+01 -0.38338156660E+02  0.43862855253E+02  0.00000000000E+00 0.  1.
</event>
<event>
 7    1  0.2497665E-015  0.9000766E+02  0.7816164E-02  0.1186339E+00
        -11   -1    0    0    0    0  0.00000000000E+00  0.00000000000E+00  0.45593999997E+02  0.45594000000E+02  0.51100000000E-03 0.  1.
         11   -1    0    0    0    0 -0.00000000000E+00 -0.00000000000E+00 -0.45593999997E+02  0.45594000000E+02  0.51100000000E-03 0. -1.
    9900012    2    1    2    0    0  0.12195599566E+00 -0.45572520315E+00 -0.10819651631E+01  0.90007657956E+02  0.89999918241E+02 0.  0.
        -12    1    1    2    0    0 -0.12195599566E+00  0.45572520315E+00  0.10819651631E+01  0.11803420436E+01  0.00000000000E+00 0.  1.
         11    1    3    3    0    0  0.17028855528E+02 -0.13850788264E+02 -0.33574970457E+02  0.40113649766E+02  0.51100000000E-03 0. -1.
        -11    1    3    3    0    0  0.21529403488E+01 -0.84817082649E+01  0.60629090466E+01  0.10645815779E+02  0.51100000000E-03 0.  1.
        -12    1    3    3    0    0 -0.19059839881E+02  0.21876771326E+02  0.26430096247E+02  0.39248192411E+02  0.00000000000E+00 0.  1.
</event>
<event>
 7    1  0.2497665E-015  0.9000778E+02  0.7816164E-02  0.1186339E+00
        -11   -1    0    0    0    0  0.00000000000E+00  0.00000000000E+00  0.45593999997E+02  0.45594000000E+02  0.51100000000E-03 0. -1.
         11   -1    0    0    0    0 -0.00000000000E+00 -0.00000000000E+00 -0.45593999997E+02  0.45594000000E+02  0.51100000000E-03 0.  1.
    9900012    2    1    2    0    0  0.10991145303E+01  0.40287461173E+00 -0.15019372266E+00  0.90007780165E+02  0.90000042064E+02 0.  0.
        -12    1    1    2    0    0 -0.10991145303E+01 -0.40287461173E+00  0.15019372266E+00  0.11802198345E+01  0.00000000000E+00 0.  1.
         11    1    3    3    0    0  0.33322079062E+02 -0.75217575447E+01 -0.56460731669E+01  0.34623921384E+02  0.51100000000E-03 0. -1.
        -11    1    3    3    0    0  0.70536153360E+01 -0.90562632415E+01 -0.27559293323E+01  0.11805275937E+02  0.51100000000E-03 0.  1.
        -12    1    3    3    0    0 -0.39276579867E+02  0.16980895398E+02  0.82518087765E+01  0.43578582844E+02  0.00000000000E+00 0.  1.
</event>
<event>
 7    1  0.2497665E-015  0.9000778E+02  0.7816164E-02  0.1186339E+00
        -11   -1    0    0    0    0  0.00000000000E+00  0.00000000000E+00  0.45593999997E+02  0.45594000000E+02  0.51100000000E-03 0.  1.
         11   -1    0    0    0    0 -0.00000000000E+00 -0.00000000000E+00 -0.45593999997E+02  0.45594000000E+02  0.51100000000E-03 0. -1.
    9900012    2    1    2    0    0 -0.11097497626E+00  0.10150672126E+01 -0.59181740882E+00  0.90007777675E+02  0.90000039540E+02 0.  0.
        -12    1    1    2    0    0  0.11097497626E+00 -0.10150672126E+01  0.59181740882E+00  0.11802223251E+01  0.00000000000E+00 0.  1.
         11    1    3    3    0    0  0.66762330222E+01  0.57950004327E+01 -0.95360664410E+01  0.13003487256E+02  0.51100000000E-03 0. -1.
        -11    1    3    3    0    0  0.18593718981E+02  0.22429114408E+02  0.23113011343E+02  0.37188746312E+02  0.51100000000E-03 0.  1.
         12    1    3    3    0    0 -0.25380926979E+02 -0.27209047628E+02 -0.14168762311E+02  0.39815544107E+02  0.00000000000E+00 0. -1.
</event>
<event>
 7    1  0.2497665E-015  0.9000899E+02  0.7816164E-02  0.1186337E+00
        -11   -1    0    0    0    0  0.00000000000E+00  0.00000000000E+00  0.45593999997E+02  0.45594000000E+02  0.51100000000E-03 0.  1.
         11   -1    0    0    0    0 -0.00000000000E+00 -0.00000000000E+00 -0.45593999997E+02  0.45594000000E+02  0.51100000000E-03 0. -1.
    9900012    2    1    2    0    0  0.11278279030E+01  0.33336184930E+00 -0.83264310372E-01  0.90008992431E+02  0.90001270323E+02 0.  0.
        -12    1    1    2    0    0 -0.11278279030E+01 -0.33336184930E+00  0.83264310372E-01  0.11790075686E+01  0.00000000000E+00 0.  1.
         11    1    3    3    0    0 -0.72923085341E+01 -0.30313494317E+01  0.42237490213E+01  0.89558304579E+01  0.51100000000E-03 0. -1.
        -11    1    3    3    0    0 -0.32100490645E+02  0.19186889539E+02 -0.32762839059E+01  0.37540808014E+02  0.51100000000E-03 0.  1.
         12    1    3    3    0    0  0.40520627082E+02 -0.15822178258E+02 -0.10307294258E+01  0.43512353960E+02  0.00000000000E+00 0. -1.
</event>
<event>
 7    1  0.2497665E-015  0.9000777E+02  0.7816164E-02  0.1186339E+00
        -11   -1    0    0    0    0  0.00000000000E+00  0.00000000000E+00  0.45593999997E+02  0.45594000000E+02  0.51100000000E-03 0.  1.
         11   -1    0    0    0    0 -0.00000000000E+00 -0.00000000000E+00 -0.45593999997E+02  0.45594000000E+02  0.51100000000E-03 0. -1.
    9900012    2    1    2    0    0  0.10135542014E+01  0.31195775562E+00 -0.51800687203E+00  0.90007770836E+02  0.90000032611E+02 0.  0.
        -12    1    1    2    0    0 -0.10135542014E+01 -0.31195775562E+00  0.51800687203E+00  0.11802291641E+01  0.00000000000E+00 0.  1.
         11    1    3    3    0    0 -0.44712484607E+01 -0.14189171733E+02 -0.70144112631E+01  0.16447693543E+02  0.51100000000E-03 0. -1.
        -11    1    3    3    0    0  0.30643952244E+02  0.44013052079E+01 -0.19016443877E+02  0.36332470803E+02  0.51100000000E-03 0.  1.
         12    1    3    3    0    0 -0.25159149582E+02  0.10099824280E+02  0.25512848268E+02  0.37227606490E+02  0.00000000000E+00 0. -1.
</event>
<event>
 7    1  0.2497665E-015  0.9000773E+02  0.7816164E-02  0.1186339E+00
        -11   -1    0    0    0    0  0.00000000000E+00  0.00000000000E+00  0.45593999997E+02  0.45594000000E+02  0.51100000000E-03 0.  1.
         11   -1    0    0    0    0 -0.00000000000E+00 -0.00000000000E+00 -0.45593999997E+02  0.45594000000E+02  0.51100000000E-03 0. -1.
    9900012    2    1    2    0    0  0.33007244212E-01  0.10711253966E+01  0.49461156476E+00  0.90007728975E+02  0.89999990197E+02 0.  0.
        -12    1    1    2    0    0 -0.33007244212E-01 -0.10711253966E+01 -0.49461156476E+00  0.11802710254E+01  0.00000000000E+00 0.  1.
         11    1    3    3    0    0  0.25684505706E+02  0.23494949681E+02 -0.20364973463E+02  0.40329128906E+02  0.51100000000E-03 0. -1.
        -11    1    3    3    0    0 -0.21971687448E+01  0.66600451420E+01  0.67695397065E+01  0.97473288590E+01  0.51100000000E-03 0.  1.
        -12    1    3    3    0    0 -0.23454329717E+02 -0.29083869426E+02  0.14090045321E+02  0.39931271210E+02  0.00000000000E+00 0.  1.
</event>
<event>
 7    1  0.2497665E-015  0.9000778E+02  0.7816164E-02  0.1186339E+00
        -11   -1    0    0    0    0  0.00000000000E+00  0.00000000000E+00  0.45593999997E+02  0.45594000000E+02  0.51100000000E-03 0. -1.
         11   -1    0    0    0    0 -0.00000000000E+00 -0.00000000000E+00 -0.45593999997E+02  0.45594000000E+02  0.51100000000E-03 0.  1.
    9900012    2    1    2    0    0 -0.91811150994E+00 -0.71927041109E+00 -0.18064431064E+00  0.90007783479E+02  0.90000045421E+02 0.  0.
        -12    1    1    2    0    0  0.91811150994E+00  0.71927041109E+00  0.18064431064E+00  0.11802165208E+01  0.00000000000E+00 0.  1.
         11    1    3    3    0    0  0.65130522184E+01  0.39534574595E+01 -0.54964854859E+01  0.93947340591E+01  0.51100000000E-03 0. -1.
        -11    1    3    3    0    0 -0.28394856896E+02  0.25171591434E+02 -0.12594581690E+02  0.39981250627E+02  0.51100000000E-03 0.  1.
         12    1    3    3    0    0  0.20963693168E+02 -0.29844319305E+02  0.17910422865E+02  0.40631798793E+02  0.00000000000E+00 0. -1.
</event>
<event>
 7    1  0.2497665E-015  0.9000777E+02  0.7816164E-02  0.1186339E+00
        -11   -1    0    0    0    0  0.00000000000E+00  0.00000000000E+00  0.45593999997E+02  0.45594000000E+02  0.51100000000E-03 0. -1.
         11   -1    0    0    0    0 -0.00000000000E+00 -0.00000000000E+00 -0.45593999997E+02  0.45594000000E+02  0.51100000000E-03 0.  1.
    9900012    2    1    2    0    0 -0.66971902123E+00 -0.74299639560E+00  0.62639876313E+00  0.90007770098E+02  0.90000031863E+02 0.  0.
        -12    1    1    2    0    0  0.66971902123E+00  0.74299639560E+00 -0.62639876313E+00  0.11802299021E+01  0.00000000000E+00 0.  1.
         11    1    3    3    0    0  0.10128947758E+02  0.51574200875E+01 -0.89262348437E+01  0.14452412719E+02  0.51100000000E-03 0. -1.
        -11    1    3    3    0    0 -0.17443435799E+02 -0.27508431227E+02 -0.20094576616E+02  0.38272434606E+02  0.51100000000E-03 0.  1.
         12    1    3    3    0    0  0.66447690194E+01  0.21608014744E+02  0.29647210223E+02  0.37282922773E+02  0.00000000000E+00 0. -1.
</event>
<event>
 7    1  0.2497665E-015  0.9000784E+02  0.7816164E-02  0.1186339E+00
        -11   -1    0    0    0    0  0.00000000000E+00  0.00000000000E+00  0.45593999997E+02  0.45594000000E+02  0.51100000000E-03 0.  1.
         11   -1    0    0    0    0 -0.00000000000E+00 -0.00000000000E+00 -0.45593999997E+02  0.45594000000E+02  0.51100000000E-03 0. -1.
    9900012    2    1    2    0    0  0.72647117770E+00  0.24077002981E+00 -0.89835689630E+00  0.90007840819E+02  0.90000103518E+02 0.  0.
        -12    1    1    2    0    0 -0.72647117770E+00 -0.24077002981E+00  0.89835689630E+00  0.11801591810E+01  0.00000000000E+00 0.  1.
         11    1    3    3    0    0 -0.82295743607E+01  0.53938288889E+01 -0.18827790330E+01  0.10018190525E+02  0.51100000000E-03 0. -1.
        -11    1    3    3    0    0 -0.17140031044E+02 -0.35822768767E+02  0.21023694989E+00  0.39712663297E+02  0.51100000000E-03 0.  1.
         12    1    3    3    0    0  0.26096076582E+02  0.30669709908E+02  0.77418518676E+00  0.40276986997E+02  0.00000000000E+00 0. -1.
</event>
<event>
 7    1  0.3543409E-015  0.9000773E+02  0.7816164E-02  0.1186339E+00
        -11   -1    0    0    0    0  0.00000000000E+00  0.00000000000E+00  0.45593999997E+02  0.45594000000E+02  0.51100000000E-03 0. -1.
         11   -1    0    0    0    0 -0.00000000000E+00 -0.00000000000E+00 -0.45593999997E+02  0.45594000000E+02  0.51100000000E-03 0.  1.
    9900012    2    1    2    0    0 -0.78089033980E+00 -0.37026009867E-01  0.88424230800E+00  0.90007726681E+02  0.89999987873E+02 0.  0.
        -12    1    1    2    0    0  0.78089033980E+00  0.37026009867E-01 -0.88424230800E+00  0.11802733190E+01  0.00000000000E+00 0.  1.
         11    1    3    3    0    0 -0.32843912307E+02 -0.22173081239E+02  0.13719246819E+02  0.41935496191E+02  0.51100000000E-03 0. -1.
        -11    1    3    3    0    0  0.72615429981E+01 -0.57636144743E+00  0.60796787811E+01  0.94881343568E+01  0.51100000000E-03 0.  1.
        -12    1    3    3    0    0  0.24801478969E+02  0.22712416677E+02 -0.18914683293E+02  0.38584096133E+02  0.00000000000E+00 0.  1.
</event>
<event>
 7    1  0.2497665E-015  0.9000805E+02  0.7816164E-02  0.1186338E+00
        -11   -1    0    0    0    0  0.00000000000E+00  0.00000000000E+00  0.45593999997E+02  0.45594000000E+02  0.51100000000E-03 0. -1.
         11   -1    0    0    0    0 -0.00000000000E+00 -0.00000000000E+00 -0.45593999997E+02  0.45594000000E+02  0.51100000000E-03 0.  1.
    9900012    2    1    2    0    0  0.10796409745E+01  0.13249814034E+00  0.45726744450E+00  0.90008053431E+02  0.90000318935E+02 0.  0.
        -12    1    1    2    0    0 -0.10796409745E+01 -0.13249814034E+00 -0.45726744450E+00  0.11799465695E+01  0.00000000000E+00 0.  1.
         11    1    3    3    0    0 -0.33792126545E+02  0.24134699470E+02 -0.82000478967E+01  0.42327677951E+02  0.51100000000E-03 0. -1.
        -11    1    3    3    0    0 -0.18569985235E+00 -0.82292299232E+01 -0.18830677961E+00  0.82334785643E+01  0.51100000000E-03 0.  1.
        -12    1    3    3    0    0  0.35057467372E+02 -0.15772971406E+02  0.88456221208E+01  0.39446896915E+02  0.00000000000E+00 0.  1.
</event>
<event>
 7    1  0.2497665E-015  0.9000780E+02  0.7816164E-02  0.1186339E+00
        -11   -1    0    0    0    0  0.00000000000E+00  0.00000000000E+00  0.45593999997E+02  0.45594000000E+02  0.51100000000E-03 0. -1.
         11   -1    0    0    0    0 -0.00000000000E+00 -0.00000000000E+00 -0.45593999997E+02  0.45594000000E+02  0.51100000000E-03 0.  1.
    9900012    2    1    2    0    0  0.59077158267E+00 -0.90885137556E+00  0.46673817072E+00  0.90007802387E+02  0.90000064578E+02 0.  0.
        -12    1    1    2    0    0 -0.59077158267E+00  0.90885137556E+00 -0.46673817072E+00  0.11801976130E+01  0.00000000000E+00 0.  1.
         11    1    3    3    0    0  0.41092950914E+00  0.88819895906E+01 -0.82403511005E+00  0.89295932871E+01  0.51100000000E-03 0. -1.
        -11    1    3    3    0    0 -0.20660209086E+00 -0.63542587161E+01 -0.39566912900E+02  0.40074429315E+02  0.51100000000E-03 0.  1.
         12    1    3    3    0    0  0.38644416439E+00 -0.34365822501E+01  0.40857686180E+02  0.41003779785E+02  0.00000000000E+00 0. -1.
</event>
<event>
 7    1  0.2497665E-015  0.9000780E+02  0.7816164E-02  0.1186339E+00
        -11   -1    0    0    0    0  0.00000000000E+00  0.00000000000E+00  0.45593999997E+02  0.45594000000E+02  0.51100000000E-03 0.  1.
         11   -1    0    0    0    0 -0.00000000000E+00 -0.00000000000E+00 -0.45593999997E+02  0.45594000000E+02  0.51100000000E-03 0. -1.
    9900012    2    1    2    0    0  0.52905795072E+00 -0.95932433359E+00 -0.43894773419E+00  0.90007796371E+02  0.90000058483E+02 0.  0.
        -12    1    1    2    0    0 -0.52905795072E+00  0.95932433359E+00  0.43894773419E+00  0.11802036289E+01  0.00000000000E+00 0.  1.
         11    1    3    3    0    0 -0.29419104917E+00 -0.85976720767E+01 -0.44624951264E+01  0.96912525778E+01  0.51100000000E-03 0. -1.
        -11    1    3    3    0    0  0.17898532052E+02 -0.32150484909E+02 -0.34696505860E+00  0.36798525983E+02  0.51100000000E-03 0.  1.
         12    1    3    3    0    0 -0.17075283052E+02  0.39788832652E+02  0.43705124508E+01  0.43518017811E+02  0.00000000000E+00 0. -1.
</event>
<event>
 7    1  0.2497665E-015  0.9000772E+02  0.7816164E-02  0.1186339E+00
        -11   -1    0    0    0    0  0.00000000000E+00  0.00000000000E+00  0.45593999997E+02  0.45594000000E+02  0.51100000000E-03 0. -1.
         11   -1    0    0    0    0 -0.00000000000E+00 -0.00000000000E+00 -0.45593999997E+02  0.45594000000E+02  0.51100000000E-03 0.  1.
    9900012    2    1    2    0    0  0.81318233613E+00 -0.23587497080E-01  0.85511868583E+00  0.90007724673E+02  0.89999985838E+02 0.  0.
        -12    1    1    2    0    0 -0.81318233613E+00  0.23587497080E-01 -0.85511868583E+00  0.11802753275E+01  0.00000000000E+00 0.  1.
         11    1    3    3    0    0 -0.84814611279E+01  0.44886362654E+01 -0.43865073976E+01  0.10551041929E+02  0.51100000000E-03 0. -1.
        -11    1    3    3    0    0 -0.98994097463E+01  0.32069647362E+02 -0.10622739898E+02  0.35203738416E+02  0.51100000000E-03 0.  1.
         12    1    3    3    0    0  0.19194053210E+02 -0.36581871125E+02  0.15864365981E+02  0.44252944327E+02  0.00000000000E+00 0. -1.
</event>
<event>
 7    1  0.2497665E-015  0.9000780E+02  0.7816164E-02  0.1186339E+00
        -11   -1    0    0    0    0  0.00000000000E+00  0.00000000000E+00  0.45593999997E+02  0.45594000000E+02  0.51100000000E-03 0. -1.
         11   -1    0    0    0    0 -0.00000000000E+00 -0.00000000000E+00 -0.45593999997E+02  0.45594000000E+02  0.51100000000E-03 0.  1.
    9900012    2    1    2    0    0 -0.61012057764E+00  0.25274588964E+00  0.97812904045E+00  0.90007803396E+02  0.90000065601E+02 0.  0.
        -12    1    1    2    0    0  0.61012057764E+00 -0.25274588964E+00 -0.97812904045E+00  0.11801966039E+01  0.00000000000E+00 0.  1.
         11    1    3    3    0    0 -0.20190532082E+02  0.25580511632E+01  0.35006853609E+02  0.40492974840E+02  0.51100000000E-03 0. -1.
        -11    1    3    3    0    0  0.36194329251E+01 -0.75545893424E+01  0.29634916261E+01  0.88856287178E+01  0.51100000000E-03 0.  1.
        -12    1    3    3    0    0  0.15960978580E+02  0.52492840688E+01 -0.36992216195E+02  0.40629199838E+02  0.00000000000E+00 0.  1.
</event>
<event>
 7    1  0.2497665E-015  0.9000784E+02  0.7816164E-02  0.1186339E+00
        -11   -1    0    0    0    0  0.00000000000E+00  0.00000000000E+00  0.45593999997E+02  0.45594000000E+02  0.51100000000E-03 0.  1.
         11   -1    0    0    0    0 -0.00000000000E+00 -0.00000000000E+00 -0.45593999997E+02  0.45594000000E+02  0.51100000000E-03 0. -1.
    9900012    2    1    2    0    0 -0.85733611031E+00  0.57174908710E-02 -0.81099671204E+00  0.90007841721E+02  0.90000104432E+02 0.  0.
        -12    1    1    2    0    0  0.85733611031E+00 -0.57174908710E-02  0.81099671204E+00  0.11801582787E+01  0.00000000000E+00 0.  1.
         11    1    3    3    0    0 -0.15093917366E+01 -0.23696080211E+01 -0.90919238904E+01  0.95161119097E+01  0.51100000000E-03 0. -1.
        -11    1    3    3    0    0  0.27737469103E+02 -0.22924940140E+02  0.20563153360E+02  0.41445908713E+02  0.51100000000E-03 0.  1.
         12    1    3    3    0    0 -0.27085413477E+02  0.25300265652E+02 -0.12282226182E+02  0.39045821099E+02  0.00000000000E+00 0. -1.
</event>
<event>
 7    1  0.2497665E-015  0.9000775E+02  0.7816164E-02  0.1186339E+00
        -11   -1    0    0    0    0  0.00000000000E+00  0.00000000000E+00  0.45593999997E+02  0.45594000000E+02  0.51100000000E-03 0. -1.
         11   -1    0    0    0    0 -0.00000000000E+00 -0.00000000000E+00 -0.45593999997E+02  0.45594000000E+02  0.51100000000E-03 0.  1.
    9900012    2    1    2    0    0 -0.37274611761E+00  0.84406061104E+00  0.73594969245E+00  0.90007745818E+02  0.90000007263E+02 0.  0.
        -12    1    1    2    0    0  0.37274611761E+00 -0.84406061104E+00 -0.73594969245E+00  0.11802541816E+01  0.00000000000E+00 0.  1.
         11    1    3    3    0    0 -0.43671471588E+01 -0.53922088959E+01  0.35557362361E+02  0.36228081780E+02  0.51100000000E-03 0. -1.
        -11    1    3    3    0    0  0.13940172691E+02  0.11584889191E+02 -0.10340780770E+01  0.18155092673E+02  0.51100000000E-03 0.  1.
        -12    1    3    3    0    0 -0.99457716496E+01 -0.53486196840E+01 -0.33787334592E+02  0.35624571366E+02  0.00000000000E+00 0.  1.
</event>
<event>
 7    1  0.2497665E-015  0.9000781E+02  0.7816164E-02  0.1186339E+00
        -11   -1    0    0    0    0  0.00000000000E+00  0.00000000000E+00  0.45593999997E+02  0.45594000000E+02  0.51100000000E-03 0.  1.
         11   -1    0    0    0    0 -0.00000000000E+00 -0.00000000000E+00 -0.45593999997E+02  0.45594000000E+02  0.51100000000E-03 0. -1.
    9900012    2    1    2    0    0 -0.90299441141E+00  0.60158472680E-01 -0.75751347935E+00  0.90007811617E+02  0.90000073930E+02 0.  0.
        -12    1    1    2    0    0  0.90299441141E+00 -0.60158472680E-01  0.75751347935E+00  0.11801883834E+01  0.00000000000E+00 0.  1.
         11    1    3    3    0    0  0.25900003006E+01  0.17544140025E+01  0.10886207668E+02  0.11326764220E+02  0.51100000000E-03 0. -1.
        -11    1    3    3    0    0 -0.34764392765E+02 -0.20023814467E+01  0.14693667522E+02  0.37795190187E+02  0.51100000000E-03 0.  1.
         12    1    3    3    0    0  0.31271398053E+02  0.30812591681E+00 -0.26337388669E+02  0.40885857209E+02  0.00000000000E+00 0. -1.
</event>
<event>
 7    1  0.2497665E-015  0.9000777E+02  0.7816164E-02  0.1186339E+00
        -11   -1    0    0    0    0  0.00000000000E+00  0.00000000000E+00  0.45593999997E+02  0.45594000000E+02  0.51100000000E-03 0. -1.
         11   -1    0    0    0    0 -0.00000000000E+00 -0.00000000000E+00 -0.45593999997E+02  0.45594000000E+02  0.51100000000E-03 0.  1.
    9900012    2    1    2    0    0  0.10588653352E+01 -0.31466162520E+00 -0.41560760100E+00  0.90007772304E+02  0.90000034098E+02 0.  0.
        -12    1    1    2    0    0 -0.10588653352E+01  0.31466162520E+00  0.41560760100E+00  0.11802276960E+01  0.00000000000E+00 0.  1.
         11    1    3    3    0    0  0.70738480429E+01 -0.31696006286E+02  0.24361261120E+02  0.40597379032E+02  0.51100000000E-03 0. -1.
        -11    1    3    3    0    0  0.97279556263E+00  0.58753274497E+01  0.62561518973E+01  0.86374325277E+01  0.51100000000E-03 0.  1.
        -12    1    3    3    0    0 -0.69877782703E+01  0.25506017211E+02 -0.31033020618E+02  0.40772960744E+02  0.00000000000E+00 0.  1.
</event>
<event>
 7    1  0.2497665E-015  0.9000767E+02  0.7816164E-02  0.1186339E+00
        -11   -1    0    0    0    0  0.00000000000E+00  0.00000000000E+00  0.45593999997E+02  0.45594000000E+02  0.51100000000E-03 0. -1.
         11   -1    0    0    0    0 -0.00000000000E+00 -0.00000000000E+00 -0.45593999997E+02  0.45594000000E+02  0.51100000000E-03 0.  1.
    9900012    2    1    2    0    0  0.10188940677E+01  0.17645545574E+00  0.56911782701E+00  0.90007670915E+02  0.89999931371E+02 0.  0.
        -12    1    1    2    0    0 -0.10188940677E+01 -0.17645545574E+00 -0.56911782701E+00  0.11803290855E+01  0.00000000000E+00 0.  1.
         11    1    3    3    0    0 -0.32822147834E+02 -0.84935327667E+01  0.22480652563E+02  0.40679395610E+02  0.51100000000E-03 0. -1.
        -11    1    3    3    0    0  0.32841391303E+01 -0.83945010492E+01 -0.27335262448E+01  0.94194152518E+01  0.51100000000E-03 0.  1.
        -12    1    3    3    0    0  0.30556902771E+02  0.17064489272E+02 -0.19178008491E+02  0.39908860053E+02  0.00000000000E+00 0.  1.
</event>
<event>
 7    1  0.2497665E-015  0.9000789E+02  0.7816164E-02  0.1186339E+00
        -11   -1    0    0    0    0  0.00000000000E+00  0.00000000000E+00  0.45593999997E+02  0.45594000000E+02  0.51100000000E-03 0.  1.
         11   -1    0    0    0    0 -0.00000000000E+00 -0.00000000000E+00 -0.45593999997E+02  0.45594000000E+02  0.51100000000E-03 0. -1.
    9900012    2    1    2    0    0 -0.91205835347E+00  0.73836899567E+00  0.12502743476E+00  0.90007885144E+02  0.90000148428E+02 0.  0.
        -12    1    1    2    0    0  0.91205835347E+00 -0.73836899567E+00 -0.12502743476E+00  0.11801148560E+01  0.00000000000E+00 0.  1.
         11    1    3    3    0    0  0.14759992255E+02 -0.21925695178E+02 -0.23683644581E+01  0.26536816517E+02  0.51100000000E-03 0. -1.
        -11    1    3    3    0    0 -0.13394117569E+02 -0.15164866252E+02  0.13116821753E+02  0.24112788454E+02  0.51100000000E-03 0.  1.
         12    1    3    3    0    0 -0.22779330397E+01  0.37828930426E+02 -0.10623429860E+02  0.39358280172E+02  0.00000000000E+00 0. -1.
</event>
<event>
 7    1  0.2497665E-015  0.9000749E+02  0.7816164E-02  0.1186340E+00
        -11   -1    0    0    0    0  0.00000000000E+00  0.00000000000E+00  0.45593999997E+02  0.45594000000E+02  0.51100000000E-03 0. -1.
         11   -1    0    0    0    0 -0.00000000000E+00 -0.00000000000E+00 -0.45593999997E+02  0.45594000000E+02  0.51100000000E-03 0.  1.
    9900012    2    1    2    0    0 -0.10149553218E+01  0.48471989522E+00  0.35848899039E+00  0.90007490772E+02  0.89999748849E+02 0.  0.
        -12    1    1    2    0    0  0.10149553218E+01 -0.48471989522E+00 -0.35848899039E+00  0.11805092284E+01  0.00000000000E+00 0.  1.
         11    1    3    3    0    0  0.24821546806E+00 -0.26533496114E+01 -0.97290292926E+01  0.10087412271E+02  0.51100000000E-03 0. -1.
        -11    1    3    3    0    0 -0.94259443746E+01  0.30000684620E+02 -0.21167302898E+02  0.37907047066E+02  0.51100000000E-03 0.  1.
         12    1    3    3    0    0  0.81627735848E+01 -0.26862615114E+02  0.31254821181E+02  0.42013031435E+02  0.00000000000E+00 0. -1.
</event>
<event>
 7    1  0.2497665E-015  0.9000771E+02  0.7816164E-02  0.1186339E+00
        -11   -1    0    0    0    0  0.00000000000E+00  0.00000000000E+00  0.45593999997E+02  0.45594000000E+02  0.51100000000E-03 0.  1.
         11   -1    0    0    0    0 -0.00000000000E+00 -0.00000000000E+00 -0.45593999997E+02  0.45594000000E+02  0.51100000000E-03 0. -1.
    9900012    2    1    2    0    0 -0.18675084400E+00 -0.11654158059E+01 -0.36310604589E-02  0.90007710602E+02  0.89999971582E+02 0.  0.
        -12    1    1    2    0    0  0.18675084400E+00  0.11654158059E+01  0.36310604589E-02  0.11802893980E+01  0.00000000000E+00 0.  1.
         11    1    3    3    0    0  0.15620041628E+02 -0.23234081295E+02 -0.28758773274E+02  0.40135710714E+02  0.51100000000E-03 0. -1.
        -11    1    3    3    0    0 -0.12828942244E+02  0.17884671594E+01 -0.18009298999E+01  0.13077603857E+02  0.51100000000E-03 0.  1.
        -12    1    3    3    0    0 -0.29778502275E+01  0.20280198329E+02  0.30556072113E+02  0.36794396030E+02  0.00000000000E+00 0.  1.
</event>
<event>
 7    1  0.2497665E-015  0.9000774E+02  0.7816164E-02  0.1186339E+00
        -11   -1    0    0    0    0  0.00000000000E+00  0.00000000000E+00  0.45593999997E+02  0.45594000000E+02  0.51100000000E-03 0.  1.
         11   -1    0    0    0    0 -0.00000000000E+00 -0.00000000000E+00 -0.45593999997E+02  0.45594000000E+02  0.51100000000E-03 0. -1.
    9900012    2    1    2    0    0 -0.77807421986E+00  0.20438649281E+00 -0.86362723158E+00  0.90007735061E+02  0.89999996364E+02 0.  0.
        -12    1    1    2    0    0  0.77807421986E+00 -0.20438649281E+00  0.86362723158E+00  0.11802649386E+01  0.00000000000E+00 0.  1.
         11    1    3    3    0    0  0.29874347849E+02 -0.18512290070E+02  0.17937975735E+02  0.39458237629E+02  0.51100000000E-03 0. -1.
        -11    1    3    3    0    0 -0.19302455111E+01 -0.76762726096E+01 -0.32607855380E+01  0.85605917725E+01  0.51100000000E-03 0.  1.
        -12    1    3    3    0    0 -0.28722176558E+02  0.26392949172E+02 -0.15540817428E+02  0.41988905660E+02  0.00000000000E+00 0.  1.
</event>
<event>
 7    1  0.2497665E-015  0.9000785E+02  0.7816164E-02  0.1186339E+00
        -11   -1    0    0    0    0  0.00000000000E+00  0.00000000000E+00  0.45593999997E+02  0.45594000000E+02  0.51100000000E-03 0. -1.
         11   -1    0    0    0    0 -0.00000000000E+00 -0.00000000000E+00 -0.45593999997E+02  0.45594000000E+02  0.51100000000E-03 0.  1.
    9900012    2    1    2    0    0  0.78755243833E+00  0.44755825038E+00 -0.75644958869E+00  0.90007846107E+02  0.90000108876E+02 0.  0.
        -12    1    1    2    0    0 -0.78755243833E+00 -0.44755825038E+00  0.75644958869E+00  0.11801538929E+01  0.00000000000E+00 0.  1.
         11    1    3    3    0    0  0.27067440384E+01  0.27121159173E+02  0.92813532102E+01  0.28792833411E+02  0.51100000000E-03 0. -1.
        -11    1    3    3    0    0 -0.65142381116E+01  0.13118928648E+02  0.86527566064E+01  0.17012106989E+02  0.51100000000E-03 0.  1.
        -12    1    3    3    0    0  0.45950465115E+01 -0.39792529571E+02 -0.18690559405E+02  0.44202905707E+02  0.00000000000E+00 0.  1.
</event>
<event>
 7    1  0.2497665E-015  0.9000757E+02  0.7816164E-02  0.1186339E+00
        -11   -1    0    0    0    0  0.00000000000E+00  0.00000000000E+00  0.45593999997E+02  0.45594000000E+02  0.51100000000E-03 0. -1.
         11   -1    0    0    0    0 -0.00000000000E+00 -0.00000000000E+00 -0.45593999997E+02  0.45594000000E+02  0.51100000000E-03 0.  1.
    9900012    2    1    2    0    0  0.27244443148E+00 -0.10361020453E+01  0.49565281744E+00  0.90007574173E+02  0.89999833352E+02 0.  0.
        -12    1    1    2    0    0 -0.27244443148E+00  0.10361020453E+01 -0.49565281744E+00  0.11804258266E+01  0.00000000000E+00 0.  1.
         11    1    3    3    0    0 -0.64376067275E+01 -0.74113341911E+01 -0.27019812042E+01  0.10181913256E+02  0.51100000000E-03 0. -1.
        -11    1    3    3    0    0  0.11392322419E+02 -0.29651385858E+02 -0.19229015429E+02  0.37131452006E+02  0.51100000000E-03 0.  1.
         12    1    3    3    0    0 -0.46822712604E+01  0.36026618004E+02  0.22426649451E+02  0.42694208911E+02  0.00000000000E+00 0. -1.
</event>
<event>
 7    1  0.2497665E-015  0.9000761E+02  0.7816164E-02  0.1186339E+00
        -11   -1    0    0    0    0  0.00000000000E+00  0.00000000000E+00  0.45593999997E+02  0.45594000000E+02  0.51100000000E-03 0. -1.
         11   -1    0    0    0    0 -0.00000000000E+00 -0.00000000000E+00 -0.45593999997E+02  0.45594000000E+02  0.51100000000E-03 0.  1.
    9900012    2    1    2    0    0 -0.14911274310E+00  0.49916825110E+00  0.10592003149E+01  0.90007614953E+02  0.89999874670E+02 0.  0.
        -12    1    1    2    0    0  0.14911274310E+00 -0.49916825110E+00 -0.10592003149E+01  0.11803850474E+01  0.00000000000E+00 0.  1.
         11    1    3    3    0    0  0.18169775200E+02  0.82876655003E+01 -0.83772596109E+01  0.21656514242E+02  0.51100000000E-03 0. -1.
        -11    1    3    3    0    0  0.53823169295E+01 -0.29189743418E+02  0.18724122327E+02  0.35094204842E+02  0.51100000000E-03 0.  1.
         12    1    3    3    0    0 -0.23701204872E+02  0.21401246168E+02 -0.92876624009E+01  0.33256895869E+02  0.00000000000E+00 0. -1.
</event>
<event>
 7    1  0.2497665E-015  0.9000778E+02  0.7816164E-02  0.1186339E+00
        -11   -1    0    0    0    0  0.00000000000E+00  0.00000000000E+00  0.45593999997E+02  0.45594000000E+02  0.51100000000E-03 0.  1.
         11   -1    0    0    0    0 -0.00000000000E+00 -0.00000000000E+00 -0.45593999997E+02  0.45594000000E+02  0.51100000000E-03 0. -1.
    9900012    2    1    2    0    0 -0.27963492026E+00  0.90379489544E+00 -0.70561267740E+00  0.90007775381E+02  0.90000037216E+02 0.  0.
        -12    1    1    2    0    0  0.27963492026E+00 -0.90379489544E+00  0.70561267740E+00  0.11802246194E+01  0.00000000000E+00 0.  1.
         11    1    3    3    0    0 -0.12213933945E+02  0.18490818658E+02 -0.34176753657E+02  0.40732555135E+02  0.51100000000E-03 0. -1.
        -11    1    3    3    0    0 -0.74418064697E+01 -0.36785943575E+01  0.15660207050E+00  0.83028347237E+01  0.51100000000E-03 0.  1.
        -12    1    3    3    0    0  0.19376105494E+02 -0.13908429405E+02  0.33314538909E+02  0.40972385522E+02  0.00000000000E+00 0.  1.
</event>
<event>
 7    1  0.2497665E-015  0.9000780E+02  0.7816164E-02  0.1186339E+00
        -11   -1    0    0    0    0  0.00000000000E+00  0.00000000000E+00  0.45593999997E+02  0.45594000000E+02  0.51100000000E-03 0.  1.
         11   -1    0    0    0    0 -0.00000000000E+00 -0.00000000000E+00 -0.45593999997E+02  0.45594000000E+02  0.51100000000E-03 0. -1.
    9900012    2    1    2    0    0 -0.10029730346E+01 -0.61117008807E+00 -0.11566784251E+00  0.90007803900E+02  0.90000066111E+02 0.  0.
        -12    1    1    2    0    0  0.10029730346E+01  0.61117008807E+00  0.11566784251E+00  0.11801961000E+01  0.00000000000E+00 0.  1.
         11    1    3    3    0    0 -0.20702228829E+02 -0.28243694855E+02 -0.17752983263E+02  0.39261393156E+02  0.51100000000E-03 0. -1.
        -11    1    3    3    0    0  0.12411716441E+01  0.87416114262E+01 -0.94369734602E+01  0.12923341121E+02  0.51100000000E-03 0.  1.
        -12    1    3    3    0    0  0.18458084150E+02  0.18890913340E+02  0.27074288881E+02  0.37823069623E+02  0.00000000000E+00 0.  1.
</event>
<event>
 7    1  0.2497665E-015  0.9000780E+02  0.7816164E-02  0.1186339E+00
        -11   -1    0    0    0    0  0.00000000000E+00  0.00000000000E+00  0.45593999997E+02  0.45594000000E+02  0.51100000000E-03 0. -1.
         11   -1    0    0    0    0 -0.00000000000E+00 -0.00000000000E+00 -0.45593999997E+02  0.45594000000E+02  0.51100000000E-03 0.  1.
    9900012    2    1    2    0    0  0.34324065373E+00 -0.54982222345E+00  0.98628355638E+00  0.90007799222E+02  0.90000061371E+02 0.  0.
        -12    1    1    2    0    0 -0.34324065373E+00  0.54982222345E+00 -0.98628355638E+00  0.11802007784E+01  0.00000000000E+00 0.  1.
         11    1    3    3    0    0 -0.67174393621E+01 -0.12277503910E+01 -0.46843136538E+01  0.82809514716E+01  0.51100000000E-03 0. -1.
        -11    1    3    3    0    0  0.11788251768E+02  0.16481596903E+02 -0.33541007822E+02  0.39186797805E+02  0.51100000000E-03 0.  1.
         12    1    3    3    0    0 -0.47275717525E+01 -0.15803668735E+02  0.39211605032E+02  0.42540049945E+02  0.00000000000E+00 0. -1.
</event>
<event>
 7    1  0.2497665E-015  0.9000769E+02  0.7816164E-02  0.1186339E+00
        -11   -1    0    0    0    0  0.00000000000E+00  0.00000000000E+00  0.45593999997E+02  0.45594000000E+02  0.51100000000E-03 0.  1.
         11   -1    0    0    0    0 -0.00000000000E+00 -0.00000000000E+00 -0.45593999997E+02  0.45594000000E+02  0.51100000000E-03 0. -1.
    9900012    2    1    2    0    0  0.36724059995E+00  0.10893739265E+01  0.26743159932E+00  0.90007694586E+02  0.89999955355E+02 0.  0.
        -12    1    1    2    0    0 -0.36724059995E+00 -0.10893739265E+01 -0.26743159932E+00  0.11803054140E+01  0.00000000000E+00 0.  1.
         11    1    3    3    0    0 -0.86749814575E+00  0.66415756436E+01 -0.42982510516E+01  0.79585201153E+01  0.51100000000E-03 0. -1.
        -11    1    3    3    0    0 -0.74763385828E+01  0.34160044479E+02  0.17871503171E+02  0.39270789440E+02  0.51100000000E-03 0.  1.
         12    1    3    3    0    0  0.87110773285E+01 -0.39712246196E+02 -0.13305820520E+02  0.42778385031E+02  0.00000000000E+00 0. -1.
</event>
<event>
 7    1  0.2497665E-015  0.9000772E+02  0.7816164E-02  0.1186339E+00
        -11   -1    0    0    0    0  0.00000000000E+00  0.00000000000E+00  0.45593999997E+02  0.45594000000E+02  0.51100000000E-03 0.  1.
         11   -1    0    0    0    0 -0.00000000000E+00 -0.00000000000E+00 -0.45593999997E+02  0.45594000000E+02  0.51100000000E-03 0. -1.
    9900012    2    1    2    0    0  0.77854153610E+00 -0.16091495164E+00 -0.87238191828E+00  0.90007715815E+02  0.89999976864E+02 0.  0.
        -12    1    1    2    0    0 -0.77854153610E+00  0.16091495164E+00  0.87238191828E+00  0.11802841846E+01  0.00000000000E+00 0.  1.
         11    1    3    3    0    0  0.71763235204E+01 -0.45924062548E+01 -0.48991524144E+01  0.98280979400E+01  0.51100000000E-03 0. -1.
        -11    1    3    3    0    0 -0.16286754844E+02  0.18680735805E+02  0.36057978099E+02  0.43753926206E+02  0.51100000000E-03 0.  1.
         12    1    3    3    0    0  0.98889728596E+01 -0.14249244502E+02 -0.32031207603E+02  0.36425691670E+02  0.00000000000E+00 0. -1.
</event>
<event>
 7    1  0.2497665E-015  0.9000764E+02  0.7816164E-02  0.1186339E+00
        -11   -1    0    0    0    0  0.00000000000E+00  0.00000000000E+00  0.45593999997E+02  0.45594000000E+02  0.51100000000E-03 0. -1.
         11   -1    0    0    0    0 -0.00000000000E+00 -0.00000000000E+00 -0.45593999997E+02  0.45594000000E+02  0.51100000000E-03 0.  1.
    9900012    2    1    2    0    0 -0.10624334079E+01  0.21402557090E+00  0.46761964417E+00  0.90007644197E+02  0.89999904300E+02 0.  0.
        -12    1    1    2    0    0  0.10624334079E+01 -0.21402557090E+00 -0.46761964417E+00  0.11803558035E+01  0.00000000000E+00 0.  1.
         11    1    3    3    0    0 -0.95214108055E+01 -0.37335689843E+01  0.18435656466E+01  0.10392090052E+02  0.51100000000E-03 0. -1.
        -11    1    3    3    0    0  0.32485903103E+02 -0.35886540077E+01 -0.27950764922E+02  0.43005320578E+02  0.51100000000E-03 0.  1.
         12    1    3    3    0    0 -0.24026925705E+02  0.75362485629E+01  0.26574818920E+02  0.36610233567E+02  0.00000000000E+00 0. -1.
</event>
<event>
 7    1  0.2497665E-015  0.9000771E+02  0.7816164E-02  0.1186339E+00
        -11   -1    0    0    0    0  0.00000000000E+00  0.00000000000E+00  0.45593999997E+02  0.45594000000E+02  0.51100000000E-03 0.  1.
         11   -1    0    0    0    0 -0.00000000000E+00 -0.00000000000E+00 -0.45593999997E+02  0.45594000000E+02  0.51100000000E-03 0. -1.
    9900012    2    1    2    0    0 -0.74266322455E+00  0.68724526163E+00 -0.60764945957E+00  0.90007706570E+02  0.89999967497E+02 0.  0.
        -12    1    1    2    0    0  0.74266322455E+00 -0.68724526163E+00  0.60764945957E+00  0.11802934298E+01  0.00000000000E+00 0.  1.
         11    1    3    3    0    0 -0.30029649875E+01 -0.42763366170E+01 -0.74289895019E+01  0.90826614414E+01  0.51100000000E-03 0. -1.
        -11    1    3    3    0    0 -0.27048166535E+02  0.24796787278E+02  0.21594193618E+02  0.42576908888E+02  0.51100000000E-03 0.  1.
         12    1    3    3    0    0  0.29308468298E+02 -0.19833205399E+02 -0.14772853575E+02  0.38348136241E+02  0.00000000000E+00 0. -1.
</event>
<event>
 7    1  0.2497665E-015  0.9000776E+02  0.7816164E-02  0.1186339E+00
        -11   -1    0    0    0    0  0.00000000000E+00  0.00000000000E+00  0.45593999997E+02  0.45594000000E+02  0.51100000000E-03 0. -1.
         11   -1    0    0    0    0 -0.00000000000E+00 -0.00000000000E+00 -0.45593999997E+02  0.45594000000E+02  0.51100000000E-03 0.  1.
    9900012    2    1    2    0    0 -0.97290799967E+00 -0.65353177592E+00  0.13893506141E+00  0.90007764130E+02  0.90000025816E+02 0.  0.
        -12    1    1    2    0    0  0.97290799967E+00  0.65353177592E+00 -0.13893506141E+00  0.11802358702E+01  0.00000000000E+00 0.  1.
         11    1    3    3    0    0  0.17714006520E+02 -0.14512006178E+01  0.33934383866E+02  0.38307106636E+02  0.51100000000E-03 0. -1.
        -11    1    3    3    0    0 -0.83813389612E+01 -0.52468188941E+01  0.50190274045E+01  0.11089030058E+02  0.51100000000E-03 0.  1.
        -12    1    3    3    0    0 -0.10305575558E+02  0.60444877359E+01 -0.38814476209E+02  0.40611627435E+02  0.00000000000E+00 0.  1.
</event>
<event>
 7    1  0.2497665E-015  0.9000795E+02  0.7816164E-02  0.1186339E+00
        -11   -1    0    0    0    0  0.00000000000E+00  0.00000000000E+00  0.45593999997E+02  0.45594000000E+02  0.51100000000E-03 0. -1.
         11   -1    0    0    0    0 -0.00000000000E+00 -0.00000000000E+00 -0.45593999997E+02  0.45594000000E+02  0.51100000000E-03 0.  1.
    9900012    2    1    2    0    0 -0.19831017571E+00  0.11372649401E+01  0.24456310586E+00  0.90007953568E+02  0.90000217754E+02 0.  0.
        -12    1    1    2    0    0  0.19831017571E+00 -0.11372649401E+01 -0.24456310586E+00  0.11800464323E+01  0.00000000000E+00 0.  1.
         11    1    3    3    0    0  0.30007762584E+02 -0.11357019829E+02 -0.16697828044E+02  0.36169948525E+02  0.51100000000E-03 0. -1.
        -11    1    3    3    0    0 -0.77219324511E+01 -0.69452561989E+01 -0.94853393287E+01  0.14065435894E+02  0.51100000000E-03 0.  1.
        -12    1    3    3    0    0 -0.22484140308E+02  0.19439540968E+02  0.26427730478E+02  0.39772569149E+02  0.00000000000E+00 0.  1.
</event>
<event>
 7    1  0.2497665E-015  0.9000781E+02  0.7816164E-02  0.1186339E+00
        -11   -1    0    0    0    0  0.00000000000E+00  0.00000000000E+00  0.45593999997E+02  0.45594000000E+02  0.51100000000E-03 0. -1.
         11   -1    0    0    0    0 -0.00000000000E+00 -0.00000000000E+00 -0.45593999997E+02  0.45594000000E+02  0.51100000000E-03 0.  1.
    9900012    2    1    2    0    0 -0.84808835162E+00 -0.40833652064E+00  0.71194541449E+00  0.90007805593E+02  0.90000067826E+02 0.  0.
        -12    1    1    2    0    0  0.84808835162E+00  0.40833652064E+00 -0.71194541449E+00  0.11801944075E+01  0.00000000000E+00 0.  1.
         11    1    3    3    0    0 -0.53062047271E+01  0.84827345377E+01  0.76035569365E+00  0.10034477310E+02  0.51100000000E-03 0. -1.
        -11    1    3    3    0    0 -0.29836724940E+02  0.18342650682E+02 -0.67563042052E+01  0.35669743985E+02  0.51100000000E-03 0.  1.
         12    1    3    3    0    0  0.34294841316E+02 -0.27233721740E+02  0.67078939261E+01  0.44303584297E+02  0.00000000000E+00 0. -1.
</event>
<event>
 7    1  0.2497665E-015  0.9000773E+02  0.7816164E-02  0.1186339E+00
        -11   -1    0    0    0    0  0.00000000000E+00  0.00000000000E+00  0.45593999997E+02  0.45594000000E+02  0.51100000000E-03 0. -1.
         11   -1    0    0    0    0 -0.00000000000E+00 -0.00000000000E+00 -0.45593999997E+02  0.45594000000E+02  0.51100000000E-03 0.  1.
    9900012    2    1    2    0    0  0.39160879292E+00  0.40908032525E+00  0.10355307008E+01  0.90007733932E+02  0.89999995220E+02 0.  0.
        -12    1    1    2    0    0 -0.39160879292E+00 -0.40908032525E+00 -0.10355307008E+01  0.11802660681E+01  0.00000000000E+00 0.  1.
         11    1    3    3    0    0 -0.71249570940E+01  0.10197106950E+02 -0.43288823211E+01  0.13171379053E+02  0.51100000000E-03 0. -1.
        -11    1    3    3    0    0  0.22586759001E+02  0.13087110066E+02 -0.24858263361E+02  0.36046738960E+02  0.51100000000E-03 0.  1.
         12    1    3    3    0    0 -0.15070193114E+02 -0.22875136691E+02  0.30222676383E+02  0.40789615919E+02  0.00000000000E+00 0. -1.
</event>
<event>
 7    1  0.2497665E-015  0.9000738E+02  0.7816164E-02  0.1186340E+00
        -11   -1    0    0    0    0  0.00000000000E+00  0.00000000000E+00  0.45593999997E+02  0.45594000000E+02  0.51100000000E-03 0. -1.
         11   -1    0    0    0    0 -0.00000000000E+00 -0.00000000000E+00 -0.45593999997E+02  0.45594000000E+02  0.51100000000E-03 0.  1.
    9900012    2    1    2    0    0  0.29952386220E+00  0.17405703042E+00  0.11286460002E+01  0.90007384827E+02  0.89999641506E+02 0.  0.
        -12    1    1    2    0    0 -0.29952386220E+00 -0.17405703042E+00 -0.11286460002E+01  0.11806151734E+01  0.00000000000E+00 0.  1.
         11    1    3    3    0    0  0.80402601484E+01  0.32597018724E+02  0.28635605237E+02  0.44127194568E+02  0.51100000000E-03 0. -1.
        -11    1    3    3    0    0  0.44746084955E+00  0.58775259678E-01 -0.61210885974E+01  0.61377032856E+01  0.51100000000E-03 0.  1.
        -12    1    3    3    0    0 -0.81881971358E+01 -0.32481736953E+02 -0.21385870639E+02  0.39742486973E+02  0.00000000000E+00 0.  1.
</event>
<event>
 7    1  0.2497665E-015  0.9000758E+02  0.7816164E-02  0.1186339E+00
        -11   -1    0    0    0    0  0.00000000000E+00  0.00000000000E+00  0.45593999997E+02  0.45594000000E+02  0.51100000000E-03 0.  1.
         11   -1    0    0    0    0 -0.00000000000E+00 -0.00000000000E+00 -0.45593999997E+02  0.45594000000E+02  0.51100000000E-03 0. -1.
    9900012    2    1    2    0    0 -0.47202943912E-01  0.97325141651E+00 -0.66628356670E+00  0.90007584722E+02  0.89999844040E+02 0.  0.
        -12    1    1    2    0    0  0.47202943912E-01 -0.97325141651E+00  0.66628356670E+00  0.11804152782E+01  0.00000000000E+00 0.  1.
         11    1    3    3    0    0 -0.87009858648E+01  0.55128506672E+01  0.56367397431E+00  0.10315832788E+02  0.51100000000E-03 0. -1.
        -11    1    3    3    0    0 -0.56802787253E+00  0.13447877238E+02  0.35390114255E+02  0.37863283601E+02  0.51100000000E-03 0.  1.
         12    1    3    3    0    0  0.92218107934E+01 -0.17987476488E+02 -0.36620071796E+02  0.41828468333E+02  0.00000000000E+00 0. -1.
</event>
<event>
 7    1  0.2497665E-015  0.9000760E+02  0.7816164E-02  0.1186339E+00
        -11   -1    0    0    0    0  0.00000000000E+00  0.00000000000E+00  0.45593999997E+02  0.45594000000E+02  0.51100000000E-03 0.  1.
         11   -1    0    0    0    0 -0.00000000000E+00 -0.00000000000E+00 -0.45593999997E+02  0.45594000000E+02  0.51100000000E-03 0. -1.
    9900012    2    1    2    0    0  0.34287028546E+00  0.61422957194E+00 -0.94789325290E+00  0.90007601924E+02  0.89999861469E+02 0.  0.
        -12    1    1    2    0    0 -0.34287028546E+00 -0.61422957194E+00  0.94789325290E+00  0.11803980763E+01  0.00000000000E+00 0.  1.
         11    1    3    3    0    0 -0.11967567896E+01 -0.66586003759E+01 -0.10252617420E+01  0.68425395637E+01  0.51100000000E-03 0. -1.
        -11    1    3    3    0    0  0.26844495685E+02 -0.91308781451E+00 -0.31815755028E+02  0.41637758659E+02  0.51100000000E-03 0.  1.
         12    1    3    3    0    0 -0.25304868610E+02  0.81859177624E+01  0.31893123517E+02  0.41527303701E+02  0.00000000000E+00 0. -1.
</event>
<event>
 7    1  0.2497665E-015  0.9000755E+02  0.7816164E-02  0.1186339E+00
        -11   -1    0    0    0    0  0.00000000000E+00  0.00000000000E+00  0.45593999997E+02  0.45594000000E+02  0.51100000000E-03 0.  1.
         11   -1    0    0    0    0 -0.00000000000E+00 -0.00000000000E+00 -0.45593999997E+02  0.45594000000E+02  0.51100000000E-03 0. -1.
    9900012    2    1    2    0    0  0.70970487693E+00 -0.94287477904E+00 -0.27550855393E-01  0.90007553936E+02  0.89999812847E+02 0.  0.
        -12    1    1    2    0    0 -0.70970487693E+00  0.94287477904E+00  0.27550855393E-01  0.11804460644E+01  0.00000000000E+00 0.  1.
         11    1    3    3    0    0  0.87225236204E+01  0.18938701977E+01 -0.23522309894E+01  0.92305012606E+01  0.51100000000E-03 0. -1.
        -11    1    3    3    0    0  0.23053594547E+02  0.21821072971E+02  0.19824721496E+02  0.37425219169E+02  0.51100000000E-03 0.  1.
         12    1    3    3    0    0 -0.31066413290E+02 -0.24657817948E+02 -0.17500041363E+02  0.43351833506E+02  0.00000000000E+00 0. -1.
</event>
<event>
 7    1  0.2497665E-015  0.9000767E+02  0.7816164E-02  0.1186339E+00
        -11   -1    0    0    0    0  0.00000000000E+00  0.00000000000E+00  0.45593999997E+02  0.45594000000E+02  0.51100000000E-03 0. -1.
         11   -1    0    0    0    0 -0.00000000000E+00 -0.00000000000E+00 -0.45593999997E+02  0.45594000000E+02  0.51100000000E-03 0.  1.
    9900012    2    1    2    0    0  0.94109471073E+00  0.21148159101E+00 -0.68028845935E+00  0.90007671187E+02  0.89999931647E+02 0.  0.
        -12    1    1    2    0    0 -0.94109471073E+00 -0.21148159101E+00  0.68028845935E+00  0.11803288126E+01  0.00000000000E+00 0.  1.
         11    1    3    3    0    0 -0.49032437551E+01 -0.81187085527E+01  0.25452439161E+01  0.98200557402E+01  0.51100000000E-03 0. -1.
        -11    1    3    3    0    0 -0.36619166557E+01 -0.34131917482E+02 -0.10870660994E+02  0.36007897679E+02  0.51100000000E-03 0.  1.
         12    1    3    3    0    0  0.95062551216E+01  0.42462107626E+02  0.76451286184E+01  0.44179717768E+02  0.00000000000E+00 0. -1.
</event>
<event>
 7    1  0.2497665E-015  0.9000780E+02  0.7816164E-02  0.1186339E+00
        -11   -1    0    0    0    0  0.00000000000E+00  0.00000000000E+00  0.45593999997E+02  0.45594000000E+02  0.51100000000E-03 0. -1.
         11   -1    0    0    0    0 -0.00000000000E+00 -0.00000000000E+00 -0.45593999997E+02  0.45594000000E+02  0.51100000000E-03 0.  1.
    9900012    2    1    2    0    0 -0.31834510175E+00  0.10005486766E+01  0.53890671110E+00  0.90007804380E+02  0.90000066598E+02 0.  0.
        -12    1    1    2    0    0  0.31834510175E+00 -0.10005486766E+01 -0.53890671110E+00  0.11801956199E+01  0.00000000000E+00 0.  1.
         11    1    3    3    0    0  0.89061539837E+01  0.40827847453E+00  0.32792101712E+01  0.94994468104E+01  0.51100000000E-03 0. -1.
        -11    1    3    3    0    0  0.11359127673E+02  0.35932505125E+02  0.73246097475E+01  0.38390423470E+02  0.51100000000E-03 0.  1.
         12    1    3    3    0    0 -0.20583626758E+02 -0.35340234923E+02 -0.10064913208E+02  0.42117934099E+02  0.00000000000E+00 0. -1.
</event>
<event>
 7    1  0.2497665E-015  0.9000774E+02  0.7816164E-02  0.1186339E+00
        -11   -1    0    0    0    0  0.00000000000E+00  0.00000000000E+00  0.45593999997E+02  0.45594000000E+02  0.51100000000E-03 0. -1.
         11   -1    0    0    0    0 -0.00000000000E+00 -0.00000000000E+00 -0.45593999997E+02  0.45594000000E+02  0.51100000000E-03 0.  1.
    9900012    2    1    2    0    0  0.22293661470E+00 -0.10769120400E+01  0.42845576334E+00  0.90007739598E+02  0.90000000960E+02 0.  0.
        -12    1    1    2    0    0 -0.22293661470E+00  0.10769120400E+01 -0.42845576334E+00  0.11802604023E+01  0.00000000000E+00 0.  1.
         11    1    3    3    0    0 -0.91236997811E-01  0.57699660822E+01 -0.54991390155E+01  0.79712836452E+01  0.51100000000E-03 0. -1.
        -11    1    3    3    0    0  0.38326695580E+02  0.99896331512E+01 -0.22280285673E+01  0.39669792993E+02  0.51100000000E-03 0.  1.
         12    1    3    3    0    0 -0.38012521967E+02 -0.16836511273E+02  0.81556233462E+01  0.42366662960E+02  0.00000000000E+00 0. -1.
</event>
<event>
 7    1  0.2497665E-015  0.9000776E+02  0.7816164E-02  0.1186339E+00
        -11   -1    0    0    0    0  0.00000000000E+00  0.00000000000E+00  0.45593999997E+02  0.45594000000E+02  0.51100000000E-03 0. -1.
         11   -1    0    0    0    0 -0.00000000000E+00 -0.00000000000E+00 -0.45593999997E+02  0.45594000000E+02  0.51100000000E-03 0.  1.
    9900012    2    1    2    0    0  0.51558930248E+00  0.10596063715E+01  0.66134012378E-01  0.90007757780E+02  0.90000019382E+02 0.  0.
        -12    1    1    2    0    0 -0.51558930248E+00 -0.10596063715E+01 -0.66134012378E-01  0.11802422205E+01  0.00000000000E+00 0.  1.
         11    1    3    3    0    0  0.16266304595E+02 -0.30479284307E+02  0.11051045679E+02  0.36272648758E+02  0.51100000000E-03 0. -1.
        -11    1    3    3    0    0  0.39330784370E+01 -0.74235008282E+01 -0.47182770125E+01  0.96353312744E+01  0.51100000000E-03 0.  1.
        -12    1    3    3    0    0 -0.19683793730E+02  0.38962391506E+02 -0.62666346543E+01  0.44099777748E+02  0.00000000000E+00 0.  1.
</event>
<event>
 7    1  0.7102460E-015  0.9000773E+02  0.7816164E-02  0.1186339E+00
        -11   -1    0    0    0    0  0.00000000000E+00  0.00000000000E+00  0.45593999997E+02  0.45594000000E+02  0.51100000000E-03 0. -1.
         11   -1    0    0    0    0 -0.00000000000E+00 -0.00000000000E+00 -0.45593999997E+02  0.45594000000E+02  0.51100000000E-03 0.  1.
    9900012    2    1    2    0    0 -0.69072569106E+00 -0.20334505302E-01  0.95682624986E+00  0.90007732257E+02  0.89999993523E+02 0.  0.
        -12    1    1    2    0    0  0.69072569106E+00  0.20334505302E-01 -0.95682624986E+00  0.11802677428E+01  0.00000000000E+00 0.  1.
         11    1    3    3    0    0  0.78545011290E+01  0.12931112871E+02  0.36054136538E+02  0.39099969691E+02  0.51100000000E-03 0. -1.
        -11    1    3    3    0    0 -0.31736273231E+01  0.86714143611E+01  0.11975847610E+00  0.92346997656E+01  0.51100000000E-03 0.  1.
        -12    1    3    3    0    0 -0.53715994970E+01 -0.21622861738E+02 -0.35217068764E+02  0.41673062801E+02  0.00000000000E+00 0.  1.
</event>
<event>
 7    1  0.2497665E-015  0.9000762E+02  0.7816164E-02  0.1186339E+00
        -11   -1    0    0    0    0  0.00000000000E+00  0.00000000000E+00  0.45593999997E+02  0.45594000000E+02  0.51100000000E-03 0.  1.
         11   -1    0    0    0    0 -0.00000000000E+00 -0.00000000000E+00 -0.45593999997E+02  0.45594000000E+02  0.51100000000E-03 0. -1.
    9900012    2    1    2    0    0 -0.29273726414E+00 -0.63593987291E+00 -0.95035555309E+00  0.90007622812E+02  0.89999882633E+02 0.  0.
        -12    1    1    2    0    0  0.29273726414E+00  0.63593987291E+00  0.95035555309E+00  0.11803771876E+01  0.00000000000E+00 0.  1.
         11    1    3    3    0    0  0.61924775533E+01 -0.81903460559E+01 -0.28422979094E+01  0.10653975992E+02  0.51100000000E-03 0. -1.
        -11    1    3    3    0    0  0.15927860352E+02  0.24378822577E+02 -0.26562362302E+02  0.39415514927E+02  0.51100000000E-03 0.  1.
         12    1    3    3    0    0 -0.22413075169E+02 -0.16824416394E+02  0.28454304659E+02  0.39938131894E+02  0.00000000000E+00 0. -1.
</event>
<event>
 7    1  0.2497665E-015  0.9000778E+02  0.7816164E-02  0.1186339E+00
        -11   -1    0    0    0    0  0.00000000000E+00  0.00000000000E+00  0.45593999997E+02  0.45594000000E+02  0.51100000000E-03 0.  1.
         11   -1    0    0    0    0 -0.00000000000E+00 -0.00000000000E+00 -0.45593999997E+02  0.45594000000E+02  0.51100000000E-03 0. -1.
    9900012    2    1    2    0    0  0.15646325971E+00  0.51041693036E+00 -0.10525800010E+01  0.90007775084E+02  0.90000036915E+02 0.  0.
        -12    1    1    2    0    0 -0.15646325971E+00 -0.51041693036E+00  0.10525800010E+01  0.11802249162E+01  0.00000000000E+00 0.  1.
         11    1    3    3    0    0  0.30946146698E+02 -0.23635198330E+02  0.47373183446E+01  0.39226633566E+02  0.51100000000E-03 0. -1.
        -11    1    3    3    0    0 -0.15462702039E+02  0.10132485955E+02  0.13139997944E+02  0.22680872386E+02  0.51100000000E-03 0.  1.
        -12    1    3    3    0    0 -0.15326981399E+02  0.14013129305E+02 -0.18929896289E+02  0.28100269131E+02  0.00000000000E+00 0.  1.
</event>
<event>
 7    1  0.2711358E-015  0.9000768E+02  0.7816164E-02  0.1186339E+00
        -11   -1    0    0    0    0  0.00000000000E+00  0.00000000000E+00  0.45593999997E+02  0.45594000000E+02  0.51100000000E-03 0.  1.
         11   -1    0    0    0    0 -0.00000000000E+00 -0.00000000000E+00 -0.45593999997E+02  0.45594000000E+02  0.51100000000E-03 0. -1.
    9900012    2    1    2    0    0 -0.86015994072E+00  0.63302917454E+00  0.50255295858E+00  0.90007677783E+02  0.89999938330E+02 0.  0.
        -12    1    1    2    0    0  0.86015994072E+00 -0.63302917454E+00 -0.50255295858E+00  0.11803222169E+01  0.00000000000E+00 0.  1.
         11    1    3    3    0    0  0.25606589272E+02  0.25610233297E+02  0.69839341660E+00  0.36222496011E+02  0.51100000000E-03 0. -1.
        -11    1    3    3    0    0  0.21114121192E+01  0.89216766827E+01 -0.21034021776E+01  0.94063104855E+01  0.51100000000E-03 0.  1.
        -12    1    3    3    0    0 -0.28578161332E+02 -0.33898880805E+02  0.19075617196E+01  0.44378871286E+02  0.00000000000E+00 0.  1.
</event>
<event>
 7    1  0.3384430E-015  0.9000751E+02  0.7816164E-02  0.1186340E+00
        -11   -1    0    0    0    0  0.00000000000E+00  0.00000000000E+00  0.45593999997E+02  0.45594000000E+02  0.51100000000E-03 0. -1.
         11   -1    0    0    0    0 -0.00000000000E+00 -0.00000000000E+00 -0.45593999997E+02  0.45594000000E+02  0.51100000000E-03 0.  1.
    9900012    2    1    2    0    0  0.20524874042E+00 -0.73686738400E+00  0.89914425598E+00  0.90007508162E+02  0.89999766469E+02 0.  0.
        -12    1    1    2    0    0 -0.20524874042E+00  0.73686738400E+00 -0.89914425598E+00  0.11804918382E+01  0.00000000000E+00 0.  1.
         11    1    3    3    0    0  0.10282878069E+02 -0.66645755573E+01  0.33677982792E+02  0.35837978095E+02  0.51100000000E-03 0. -1.
        -11    1    3    3    0    0 -0.29760123999E+01 -0.35044461895E+01  0.93490875624E+01  0.10418408295E+02  0.51100000000E-03 0.  1.
        -12    1    3    3    0    0 -0.71016169291E+01  0.94321543627E+01 -0.42127926098E+02  0.43751121771E+02  0.00000000000E+00 0.  1.
</event>
<event>
 7    1  0.2497665E-015  0.9000773E+02  0.7816164E-02  0.1186339E+00
        -11   -1    0    0    0    0  0.00000000000E+00  0.00000000000E+00  0.45593999997E+02  0.45594000000E+02  0.51100000000E-03 0.  1.
         11   -1    0    0    0    0 -0.00000000000E+00 -0.00000000000E+00 -0.45593999997E+02  0.45594000000E+02  0.51100000000E-03 0. -1.
    9900012    2    1    2    0    0 -0.72795390593E+00  0.68552044541E+00 -0.62703983925E+00  0.90007731331E+02  0.89999992585E+02 0.  0.
        -12    1    1    2    0    0  0.72795390593E+00 -0.68552044541E+00  0.62703983925E+00  0.11802686687E+01  0.00000000000E+00 0.  1.
         11    1    3    3    0    0 -0.26230396369E+01 -0.20600372251E+02 -0.32073694551E+02  0.38209652658E+02  0.51100000000E-03 0. -1.
        -11    1    3    3    0    0  0.34726387622E+01 -0.92382978644E+01  0.37716044413E+01  0.10565527328E+02  0.51100000000E-03 0.  1.
        -12    1    3    3    0    0 -0.15775530312E+01  0.30524190560E+02  0.27675050271E+02  0.41232551345E+02  0.00000000000E+00 0.  1.
</event>
<event>
 7    1  0.2497665E-015  0.9000796E+02  0.7816164E-02  0.1186339E+00
        -11   -1    0    0    0    0  0.00000000000E+00  0.00000000000E+00  0.45593999997E+02  0.45594000000E+02  0.51100000000E-03 0.  1.
         11   -1    0    0    0    0 -0.00000000000E+00 -0.00000000000E+00 -0.45593999997E+02  0.45594000000E+02  0.51100000000E-03 0. -1.
    9900012    2    1    2    0    0  0.48162747261E+00 -0.50552452952E+00  0.95129974267E+00  0.90007961326E+02  0.90000225615E+02 0.  0.
        -12    1    1    2    0    0 -0.48162747261E+00  0.50552452952E+00 -0.95129974267E+00  0.11800386742E+01  0.00000000000E+00 0.  1.
         11    1    3    3    0    0  0.20628059963E+01  0.24892612839E+01 -0.88740528933E+01  0.94445966210E+01  0.51100000000E-03 0. -1.
        -11    1    3    3    0    0  0.12325833896E+02 -0.36680247276E+02 -0.87297119853E+01  0.39668307161E+02  0.51100000000E-03 0.  1.
         12    1    3    3    0    0 -0.13907012419E+02  0.33685461462E+02  0.18555064621E+02  0.40895057543E+02  0.00000000000E+00 0. -1.
</event>
<event>
 7    1  0.2497665E-015  0.9000775E+02  0.7816164E-02  0.1186339E+00
        -11   -1    0    0    0    0  0.00000000000E+00  0.00000000000E+00  0.45593999997E+02  0.45594000000E+02  0.51100000000E-03 0. -1.
         11   -1    0    0    0    0 -0.00000000000E+00 -0.00000000000E+00 -0.45593999997E+02  0.45594000000E+02  0.51100000000E-03 0.  1.
    9900012    2    1    2    0    0 -0.19782717975E+00  0.73979814319E+00  0.89808262380E+00  0.90007750329E+02  0.90000011834E+02 0.  0.
        -12    1    1    2    0    0  0.19782717975E+00 -0.73979814319E+00 -0.89808262380E+00  0.11802496706E+01  0.00000000000E+00 0.  1.
         11    1    3    3    0    0  0.27589812763E+02 -0.20241076527E+02 -0.17591413893E+02  0.38475405005E+02  0.51100000000E-03 0. -1.
        -11    1    3    3    0    0  0.11074172201E+01 -0.70394401842E+01  0.62064113721E+01  0.94498483261E+01  0.51100000000E-03 0.  1.
        -12    1    3    3    0    0 -0.28895057162E+02  0.28020314855E+02  0.12283085145E+02  0.42082496999E+02  0.00000000000E+00 0.  1.
</event>
<event>
 7    1  0.2497665E-015  0.9000831E+02  0.7816164E-02  0.1186338E+00
        -11   -1    0    0    0    0  0.00000000000E+00  0.00000000000E+00  0.45593999997E+02  0.45594000000E+02  0.51100000000E-03 0. -1.
         11   -1    0    0    0    0 -0.00000000000E+00 -0.00000000000E+00 -0.45593999997E+02  0.45594000000E+02  0.51100000000E-03 0.  1.
    9900012    2    1    2    0    0 -0.63331134573E+00  0.97471658294E+00  0.20126236409E+00  0.90008312661E+02  0.90000581587E+02 0.  0.
        -12    1    1    2    0    0  0.63331134573E+00 -0.97471658294E+00 -0.20126236409E+00  0.11796873386E+01  0.00000000000E+00 0.  1.
         11    1    3    3    0    0 -0.85218384061E+01 -0.21039818085E+01 -0.26417039928E+01  0.91666280341E+01  0.51100000000E-03 0. -1.
        -11    1    3    3    0    0  0.14326233635E+02 -0.55404396369E+01  0.39635948468E+02  0.42508185714E+02  0.51100000000E-03 0.  1.
         12    1    3    3    0    0 -0.64377065749E+01  0.86191380284E+01 -0.36792982111E+02  0.38333498913E+02  0.00000000000E+00 0. -1.
</event>
<event>
 7    1  0.2497665E-015  0.9000786E+02  0.7816164E-02  0.1186339E+00
        -11   -1    0    0    0    0  0.00000000000E+00  0.00000000000E+00  0.45593999997E+02  0.45594000000E+02  0.51100000000E-03 0.  1.
         11   -1    0    0    0    0 -0.00000000000E+00 -0.00000000000E+00 -0.45593999997E+02  0.45594000000E+02  0.51100000000E-03 0. -1.
    9900012    2    1    2    0    0 -0.11145381474E+01 -0.37515361081E+00 -0.98925235953E-01  0.90007863687E+02  0.90000126688E+02 0.  0.
        -12    1    1    2    0    0  0.11145381474E+01  0.37515361081E+00  0.98925235953E-01  0.11801363125E+01  0.00000000000E+00 0.  1.
         11    1    3    3    0    0  0.27797349069E+02 -0.11585172621E+02 -0.17371971604E+02  0.34766280180E+02  0.51100000000E-03 0. -1.
        -11    1    3    3    0    0 -0.47500017836E+01 -0.15378512745E+01 -0.13320889934E+02  0.14225807970E+02  0.51100000000E-03 0.  1.
        -12    1    3    3    0    0 -0.24161885433E+02  0.12747870284E+02  0.30593936302E+02  0.41015775537E+02  0.00000000000E+00 0.  1.
</event>
<event>
 7    1  0.2497665E-015  0.9000769E+02  0.7816164E-02  0.1186339E+00
        -11   -1    0    0    0    0  0.00000000000E+00  0.00000000000E+00  0.45593999997E+02  0.45594000000E+02  0.51100000000E-03 0. -1.
         11   -1    0    0    0    0 -0.00000000000E+00 -0.00000000000E+00 -0.45593999997E+02  0.45594000000E+02  0.51100000000E-03 0.  1.
    9900012    2    1    2    0    0 -0.11163142322E+01 -0.21915885843E+00  0.31456841202E+00  0.90007685908E+02  0.89999946562E+02 0.  0.
        -12    1    1    2    0    0  0.11163142322E+01  0.21915885843E+00 -0.31456841202E+00  0.11803140921E+01  0.00000000000E+00 0.  1.
         11    1    3    3    0    0  0.14652106616E+02 -0.21360895663E+02  0.25942968512E+02  0.36660737953E+02  0.51100000000E-03 0. -1.
        -11    1    3    3    0    0 -0.15016412106E+02 -0.24189475440E+01  0.37647473297E+01  0.15668990474E+02  0.51100000000E-03 0.  1.
        -12    1    3    3    0    0 -0.75200874223E+00  0.23560684349E+02 -0.29393147429E+02  0.37677957481E+02  0.00000000000E+00 0.  1.
</event>
<event>
 7    1  0.2497665E-015  0.9000769E+02  0.7816164E-02  0.1186339E+00
        -11   -1    0    0    0    0  0.00000000000E+00  0.00000000000E+00  0.45593999997E+02  0.45594000000E+02  0.51100000000E-03 0. -1.
         11   -1    0    0    0    0 -0.00000000000E+00 -0.00000000000E+00 -0.45593999997E+02  0.45594000000E+02  0.51100000000E-03 0.  1.
    9900012    2    1    2    0    0 -0.37405209331E+00 -0.44966083813E+00  0.10251891501E+01  0.90007693840E+02  0.89999954599E+02 0.  0.
        -12    1    1    2    0    0  0.37405209331E+00  0.44966083813E+00 -0.10251891501E+01  0.11803061600E+01  0.00000000000E+00 0.  1.
         11    1    3    3    0    0 -0.70865185795E+01 -0.13228335060E+01 -0.34039850914E+01  0.79721859503E+01  0.51100000000E-03 0. -1.
        -11    1    3    3    0    0  0.31454268163E+01 -0.40380029348E+02  0.27016607293E+01  0.40592357051E+02  0.51100000000E-03 0.  1.
         12    1    3    3    0    0  0.35670396699E+01  0.41253202015E+02  0.17275135122E+01  0.41443150839E+02  0.00000000000E+00 0. -1.
</event>
<event>
 7    1  0.2497665E-015  0.9000801E+02  0.7816164E-02  0.1186339E+00
        -11   -1    0    0    0    0  0.00000000000E+00  0.00000000000E+00  0.45593999997E+02  0.45594000000E+02  0.51100000000E-03 0. -1.
         11   -1    0    0    0    0 -0.00000000000E+00 -0.00000000000E+00 -0.45593999997E+02  0.45594000000E+02  0.51100000000E-03 0.  1.
    9900012    2    1    2    0    0 -0.24609024786E+00 -0.10141712248E+01  0.55070973980E+00  0.90008006398E+02  0.90000271282E+02 0.  0.
        -12    1    1    2    0    0  0.24609024786E+00  0.10141712248E+01 -0.55070973980E+00  0.11799936020E+01  0.00000000000E+00 0.  1.
         11    1    3    3    0    0  0.10004296793E+02 -0.11210981293E+01 -0.39864490221E+01  0.10827492388E+02  0.51100000000E-03 0. -1.
        -11    1    3    3    0    0 -0.24307756863E+02 -0.30297436162E+02  0.18335100056E+02  0.42953202162E+02  0.51100000000E-03 0.  1.
         12    1    3    3    0    0  0.14057369822E+02  0.30404363066E+02 -0.13797941294E+02  0.36227311848E+02  0.00000000000E+00 0. -1.
</event>
<event>
 7    1  0.2497665E-015  0.9000767E+02  0.7816164E-02  0.1186339E+00
        -11   -1    0    0    0    0  0.00000000000E+00  0.00000000000E+00  0.45593999997E+02  0.45594000000E+02  0.51100000000E-03 0.  1.
         11   -1    0    0    0    0 -0.00000000000E+00 -0.00000000000E+00 -0.45593999997E+02  0.45594000000E+02  0.51100000000E-03 0. -1.
    9900012    2    1    2    0    0 -0.65120963657E+00 -0.56301992110E+00 -0.80754185251E+00  0.90007665613E+02  0.89999925999E+02 0.  0.
        -12    1    1    2    0    0  0.65120963657E+00  0.56301992110E+00  0.80754185251E+00  0.11803343873E+01  0.00000000000E+00 0.  1.
         11    1    3    3    0    0 -0.23864989367E+01 -0.17583536093E+02 -0.22658241825E+02  0.28779715801E+02  0.51100000000E-03 0. -1.
        -11    1    3    3    0    0 -0.80673822551E+01 -0.14833636276E+02 -0.58713639003E+01  0.17877145631E+02  0.51100000000E-03 0.  1.
        -12    1    3    3    0    0  0.98026715552E+01  0.31854152448E+02  0.27722063873E+02  0.43350804181E+02  0.00000000000E+00 0.  1.
</event>
<event>
 7    1  0.2497665E-015  0.9000787E+02  0.7816164E-02  0.1186339E+00
        -11   -1    0    0    0    0  0.00000000000E+00  0.00000000000E+00  0.45593999997E+02  0.45594000000E+02  0.51100000000E-03 0.  1.
         11   -1    0    0    0    0 -0.00000000000E+00 -0.00000000000E+00 -0.45593999997E+02  0.45594000000E+02  0.51100000000E-03 0. -1.
    9900012    2    1    2    0    0  0.84184964666E+00 -0.99192603168E-01  0.82106715420E+00  0.90007872349E+02  0.90000135464E+02 0.  0.
        -12    1    1    2    0    0 -0.84184964666E+00  0.99192603168E-01 -0.82106715420E+00  0.11801276506E+01  0.00000000000E+00 0.  1.
         11    1    3    3    0    0 -0.27920355019E+02 -0.17881133150E+02  0.15784845274E+02  0.36721144968E+02  0.51100000000E-03 0. -1.
        -11    1    3    3    0    0 -0.82469510215E+01  0.64537593604E+01  0.25907089124E+01  0.10787723762E+02  0.51100000000E-03 0.  1.
        -12    1    3    3    0    0  0.37009155687E+02  0.11328181187E+02 -0.17554487033E+02  0.42499003620E+02  0.00000000000E+00 0.  1.
</event>
<event>
 7    1  0.2497665E-015  0.9000766E+02  0.7816164E-02  0.1186339E+00
        -11   -1    0    0    0    0  0.00000000000E+00  0.00000000000E+00  0.45593999997E+02  0.45594000000E+02  0.51100000000E-03 0. -1.
         11   -1    0    0    0    0 -0.00000000000E+00 -0.00000000000E+00 -0.45593999997E+02  0.45594000000E+02  0.51100000000E-03 0.  1.
    9900012    2    1    2    0    0  0.80666659083E+00  0.94190055575E-01  0.85651290587E+00  0.90007662288E+02  0.89999922631E+02 0.  0.
        -12    1    1    2    0    0 -0.80666659083E+00 -0.94190055575E-01 -0.85651290587E+00  0.11803377115E+01  0.00000000000E+00 0.  1.
         11    1    3    3    0    0  0.10297635464E+01  0.13269335616E+02  0.19858477262E+01  0.13456569849E+02  0.51100000000E-03 0. -1.
        -11    1    3    3    0    0  0.30226781327E+02  0.14923902606E+02  0.67380926413E+01  0.34377071880E+02  0.51100000000E-03 0.  1.
         12    1    3    3    0    0 -0.30449878283E+02 -0.28099048166E+02 -0.78674274617E+01  0.42174020559E+02  0.00000000000E+00 0. -1.
</event>
<event>
 7    1  0.2497665E-015  0.9000776E+02  0.7816164E-02  0.1186339E+00
        -11   -1    0    0    0    0  0.00000000000E+00  0.00000000000E+00  0.45593999997E+02  0.45594000000E+02  0.51100000000E-03 0. -1.
         11   -1    0    0    0    0 -0.00000000000E+00 -0.00000000000E+00 -0.45593999997E+02  0.45594000000E+02  0.51100000000E-03 0.  1.
    9900012    2    1    2    0    0 -0.32738689723E+00 -0.43493433708E-01  0.11330897115E+01  0.90007760129E+02  0.90000021763E+02 0.  0.
        -12    1    1    2    0    0  0.32738689723E+00  0.43493433708E-01 -0.11330897115E+01  0.11802398712E+01  0.00000000000E+00 0.  1.
         11    1    3    3    0    0 -0.32177229129E+02 -0.13752947126E+02  0.12823059662E+02  0.37268599229E+02  0.51100000000E-03 0. -1.
        -11    1    3    3    0    0 -0.22776743354E+01 -0.79102985305E+01  0.43041465199E+01  0.92890419713E+01  0.51100000000E-03 0.  1.
        -12    1    3    3    0    0  0.34127516568E+02  0.21619752223E+02 -0.15994116471E+02  0.43450118929E+02  0.00000000000E+00 0.  1.
</event>
<event>
 7    1  0.2497665E-015  0.9000773E+02  0.7816164E-02  0.1186339E+00
        -11   -1    0    0    0    0  0.00000000000E+00  0.00000000000E+00  0.45593999997E+02  0.45594000000E+02  0.51100000000E-03 0. -1.
         11   -1    0    0    0    0 -0.00000000000E+00 -0.00000000000E+00 -0.45593999997E+02  0.45594000000E+02  0.51100000000E-03 0.  1.
    9900012    2    1    2    0    0  0.95873379625E+00  0.62896255654E+00  0.27976230800E+00  0.90007732514E+02  0.89999993783E+02 0.  0.
        -12    1    1    2    0    0 -0.95873379625E+00 -0.62896255654E+00 -0.27976230800E+00  0.11802674860E+01  0.00000000000E+00 0.  1.
         11    1    3    3    0    0 -0.17465236001E+02  0.66840302141E+01  0.12844768950E+01  0.18744615484E+02  0.51100000000E-03 0. -1.
        -11    1    3    3    0    0  0.20309958360E+02 -0.10419489635E+02 -0.32331497015E+02  0.39577593059E+02  0.51100000000E-03 0.  1.
         12    1    3    3    0    0 -0.18859885627E+01  0.43644219776E+01  0.31326782428E+02  0.31685523971E+02  0.00000000000E+00 0. -1.
</event>
<event>
 7    1  0.2497665E-015  0.9000776E+02  0.7816164E-02  0.1186339E+00
        -11   -1    0    0    0    0  0.00000000000E+00  0.00000000000E+00  0.45593999997E+02  0.45594000000E+02  0.51100000000E-03 0. -1.
         11   -1    0    0    0    0 -0.00000000000E+00 -0.00000000000E+00 -0.45593999997E+02  0.45594000000E+02  0.51100000000E-03 0.  1.
    9900012    2    1    2    0    0 -0.58345237181E+00  0.70438107062E+00  0.74591795706E+00  0.90007761481E+02  0.90000023133E+02 0.  0.
        -12    1    1    2    0    0  0.58345237181E+00 -0.70438107062E+00 -0.74591795706E+00  0.11802385189E+01  0.00000000000E+00 0.  1.
         11    1    3    3    0    0  0.78936721188E+01 -0.14561485941E+02  0.33202850190E+02  0.37104934891E+02  0.51100000000E-03 0. -1.
        -11    1    3    3    0    0  0.11159131986E+02 -0.41187748398E+01 -0.24623085577E+01  0.12147160020E+02  0.51100000000E-03 0.  1.
        -12    1    3    3    0    0 -0.19636256477E+02  0.19384641851E+02 -0.29994623675E+02  0.40755666569E+02  0.00000000000E+00 0.  1.
</event>
<event>
 7    1  0.2497665E-015  0.9000788E+02  0.7816164E-02  0.1186339E+00
        -11   -1    0    0    0    0  0.00000000000E+00  0.00000000000E+00  0.45593999997E+02  0.45594000000E+02  0.51100000000E-03 0.  1.
         11   -1    0    0    0    0 -0.00000000000E+00 -0.00000000000E+00 -0.45593999997E+02  0.45594000000E+02  0.51100000000E-03 0. -1.
    9900012    2    1    2    0    0 -0.51614958954E+00  0.76393258677E+00 -0.73666670200E+00  0.90007880843E+02  0.90000144070E+02 0.  0.
        -12    1    1    2    0    0  0.51614958954E+00 -0.76393258677E+00  0.73666670200E+00  0.11801191574E+01  0.00000000000E+00 0.  1.
         11    1    3    3    0    0  0.36202410704E+02  0.18095729464E+02 -0.11587454491E+01  0.40489661111E+02  0.51100000000E-03 0. -1.
        -11    1    3    3    0    0  0.16399373305E+01 -0.10075040484E+02 -0.20099848275E+01  0.10403647172E+02  0.51100000000E-03 0.  1.
        -12    1    3    3    0    0 -0.38358497624E+02 -0.72567563930E+01  0.24320635745E+01  0.39114572560E+02  0.00000000000E+00 0.  1.
</event>
<event>
 7    1  0.2497665E-015  0.9000767E+02  0.7816164E-02  0.1186339E+00
        -11   -1    0    0    0    0  0.00000000000E+00  0.00000000000E+00  0.45593999997E+02  0.45594000000E+02  0.51100000000E-03 0.  1.
         11   -1    0    0    0    0 -0.00000000000E+00 -0.00000000000E+00 -0.45593999997E+02  0.45594000000E+02  0.51100000000E-03 0. -1.
    9900012    2    1    2    0    0 -0.92221155275E+00 -0.11399588878E+00 -0.72780972793E+00  0.90007671143E+02  0.89999931602E+02 0.  0.
        -12    1    1    2    0    0  0.92221155275E+00  0.11399588878E+00  0.72780972793E+00  0.11803288570E+01  0.00000000000E+00 0.  1.
         11    1    3    3    0    0 -0.25597082434E+02  0.29607951690E+02 -0.12820034831E+02  0.41184884676E+02  0.51100000000E-03 0. -1.
        -11    1    3    3    0    0 -0.55066475226E+01 -0.83350229957E+01  0.28727731773E+00  0.99939133374E+01  0.51100000000E-03 0.  1.
        -12    1    3    3    0    0  0.30181518404E+02 -0.21386924583E+02  0.11804947786E+02  0.38828873130E+02  0.00000000000E+00 0.  1.
</event>
<event>
 7    1  0.2497665E-015  0.9000768E+02  0.7816164E-02  0.1186339E+00
        -11   -1    0    0    0    0  0.00000000000E+00  0.00000000000E+00  0.45593999997E+02  0.45594000000E+02  0.51100000000E-03 0. -1.
         11   -1    0    0    0    0 -0.00000000000E+00 -0.00000000000E+00 -0.45593999997E+02  0.45594000000E+02  0.51100000000E-03 0.  1.
    9900012    2    1    2    0    0  0.99362107149E+00  0.18547055440E+00  0.60949044777E+00  0.90007677685E+02  0.89999938231E+02 0.  0.
        -12    1    1    2    0    0 -0.99362107149E+00 -0.18547055440E+00 -0.60949044777E+00  0.11803223145E+01  0.00000000000E+00 0.  1.
         11    1    3    3    0    0  0.28783458935E+02  0.19794637794E+02  0.14559488132E+02  0.37845658781E+02  0.51100000000E-03 0. -1.
        -11    1    3    3    0    0  0.13769510440E+01  0.91327403232E+01 -0.14587117264E+01  0.93504427783E+01  0.51100000000E-03 0.  1.
        -12    1    3    3    0    0 -0.29166788907E+02 -0.28741907563E+02 -0.12491285958E+02  0.42811576126E+02  0.00000000000E+00 0.  1.
</event>
<event>
 7    1  0.2497665E-015  0.9000706E+02  0.7816164E-02  0.1186340E+00
        -11   -1    0    0    0    0  0.00000000000E+00  0.00000000000E+00  0.45593999997E+02  0.45594000000E+02  0.51100000000E-03 0. -1.
         11   -1    0    0    0    0 -0.00000000000E+00 -0.00000000000E+00 -0.45593999997E+02  0.45594000000E+02  0.51100000000E-03 0.  1.
    9900012    2    1    2    0    0  0.75593001298E-01  0.65418905293E+00  0.98028066948E+00  0.90007056390E+02  0.89999308732E+02 0.  0.
        -12    1    1    2    0    0 -0.75593001298E-01 -0.65418905293E+00 -0.98028066948E+00  0.11809436099E+01  0.00000000000E+00 0.  1.
         11    1    3    3    0    0 -0.12737165263E+02  0.29145810377E+02  0.13335527152E+02  0.34489852510E+02  0.51100000000E-03 0. -1.
        -11    1    3    3    0    0 -0.86367290643E+01  0.79713401263E+01 -0.15482045553E+01  0.11854631582E+02  0.51100000000E-03 0.  1.
        -12    1    3    3    0    0  0.21449487329E+02 -0.36462961451E+02 -0.10807041927E+02  0.43662572298E+02  0.00000000000E+00 0.  1.
</event>
<event>
 7    1  0.2497665E-015  0.9000783E+02  0.7816164E-02  0.1186339E+00
        -11   -1    0    0    0    0  0.00000000000E+00  0.00000000000E+00  0.45593999997E+02  0.45594000000E+02  0.51100000000E-03 0.  1.
         11   -1    0    0    0    0 -0.00000000000E+00 -0.00000000000E+00 -0.45593999997E+02  0.45594000000E+02  0.51100000000E-03 0. -1.
    9900012    2    1    2    0    0 -0.34393213230E+00  0.33488170928E+00 -0.10781255332E+01  0.90007834869E+02  0.90000097489E+02 0.  0.
        -12    1    1    2    0    0  0.34393213230E+00 -0.33488170928E+00  0.10781255332E+01  0.11801651308E+01  0.00000000000E+00 0.  1.
         11    1    3    3    0    0 -0.40138393025E+02 -0.86887704276E+01 -0.33014186497E+01  0.41200542370E+02  0.51100000000E-03 0. -1.
        -11    1    3    3    0    0  0.95786307101E+00  0.27021476087E+01  0.84924315658E+01  0.89632860895E+01  0.51100000000E-03 0.  1.
        -12    1    3    3    0    0  0.38836597822E+02  0.63215045282E+01 -0.62691384493E+01  0.39844006410E+02  0.00000000000E+00 0.  1.
</event>
<event>
 7    1  0.2497665E-015  0.9000779E+02  0.7816164E-02  0.1186339E+00
        -11   -1    0    0    0    0  0.00000000000E+00  0.00000000000E+00  0.45593999997E+02  0.45594000000E+02  0.51100000000E-03 0. -1.
         11   -1    0    0    0    0 -0.00000000000E+00 -0.00000000000E+00 -0.45593999997E+02  0.45594000000E+02  0.51100000000E-03 0.  1.
    9900012    2    1    2    0    0  0.14727933989E+00 -0.25394283391E+00  0.11431132737E+01  0.90007794034E+02  0.90000056115E+02 0.  0.
        -12    1    1    2    0    0 -0.14727933989E+00  0.25394283391E+00 -0.11431132737E+01  0.11802059665E+01  0.00000000000E+00 0.  1.
         11    1    3    3    0    0 -0.10586740911E+02  0.28647274407E+02 -0.22297862123E+02  0.37814548385E+02  0.51100000000E-03 0. -1.
        -11    1    3    3    0    0 -0.26713407637E+01  0.16745222127E+00 -0.73225101961E+01  0.77963618154E+01  0.51100000000E-03 0.  1.
        -12    1    3    3    0    0  0.13405361015E+02 -0.29068669462E+02  0.30763485593E+02  0.44396883833E+02  0.00000000000E+00 0.  1.
</event>
<event>
 7    1  0.2497665E-015  0.9000805E+02  0.7816164E-02  0.1186338E+00
        -11   -1    0    0    0    0  0.00000000000E+00  0.00000000000E+00  0.45593999997E+02  0.45594000000E+02  0.51100000000E-03 0.  1.
         11   -1    0    0    0    0 -0.00000000000E+00 -0.00000000000E+00 -0.45593999997E+02  0.45594000000E+02  0.51100000000E-03 0. -1.
    9900012    2    1    2    0    0  0.79691287692E+00  0.36559221686E+00 -0.78964871394E+00  0.90008053860E+02  0.90000319370E+02 0.  0.
        -12    1    1    2    0    0 -0.79691287692E+00 -0.36559221686E+00  0.78964871394E+00  0.11799461402E+01  0.00000000000E+00 0.  1.
         11    1    3    3    0    0  0.18854189761E+02  0.29334678697E+02 -0.49233400604E+01  0.35217085675E+02  0.51100000000E-03 0. -1.
        -11    1    3    3    0    0 -0.80814816320E+01 -0.44930574853E+01 -0.18052465263E+02  0.20282736829E+02  0.51100000000E-03 0.  1.
        -12    1    3    3    0    0 -0.99757952525E+01 -0.24476028995E+02  0.22186156609E+02  0.34508231357E+02  0.00000000000E+00 0.  1.
</event>
<event>
 7    1  0.2554697E-015  0.9000784E+02  0.7816164E-02  0.1186339E+00
        -11   -1    0    0    0    0  0.00000000000E+00  0.00000000000E+00  0.45593999997E+02  0.45594000000E+02  0.51100000000E-03 0. -1.
         11   -1    0    0    0    0 -0.00000000000E+00 -0.00000000000E+00 -0.45593999997E+02  0.45594000000E+02  0.51100000000E-03 0.  1.
    9900012    2    1    2    0    0  0.99950451934E-01 -0.77788374197E-01  0.11733467656E+01  0.90007837403E+02  0.90000100056E+02 0.  0.
        -12    1    1    2    0    0 -0.99950451934E-01  0.77788374197E-01 -0.11733467656E+01  0.11801625974E+01  0.00000000000E+00 0.  1.
         11    1    3    3    0    0  0.25244711725E+02  0.16620939782E+01  0.34511543296E+02  0.42791408570E+02  0.51100000000E-03 0. -1.
        -11    1    3    3    0    0  0.36977092338E+01  0.27473145355E+00 -0.78143538445E+01  0.86494310343E+01  0.51100000000E-03 0.  1.
        -12    1    3    3    0    0 -0.28842470507E+02 -0.20146138060E+01 -0.25523842686E+02  0.38566997798E+02  0.00000000000E+00 0.  1.
</event>
<event>
 7    1  0.2497665E-015  0.9000775E+02  0.7816164E-02  0.1186339E+00
        -11   -1    0    0    0    0  0.00000000000E+00  0.00000000000E+00  0.45593999997E+02  0.45594000000E+02  0.51100000000E-03 0. -1.
         11   -1    0    0    0    0 -0.00000000000E+00 -0.00000000000E+00 -0.45593999997E+02  0.45594000000E+02  0.51100000000E-03 0.  1.
    9900012    2    1    2    0    0 -0.66368841568E+00  0.90953271594E+00 -0.35392129535E+00  0.90007749028E+02  0.90000010515E+02 0.  0.
        -12    1    1    2    0    0  0.66368841568E+00 -0.90953271594E+00  0.35392129535E+00  0.11802509724E+01  0.00000000000E+00 0.  1.
         11    1    3    3    0    0 -0.31570173517E+02  0.57533026211E+01  0.10339969045E+01  0.32106782722E+02  0.51100000000E-03 0. -1.
        -11    1    3    3    0    0 -0.12517319756E+02 -0.57982595116E+01 -0.40730016772E+01  0.14383756469E+02  0.51100000000E-03 0.  1.
        -12    1    3    3    0    0  0.43423804857E+02  0.95448960639E+00  0.26850834773E+01  0.43517209836E+02  0.00000000000E+00 0.  1.
</event>
<event>
 7    1  0.2497665E-015  0.9000803E+02  0.7816164E-02  0.1186338E+00
        -11   -1    0    0    0    0  0.00000000000E+00  0.00000000000E+00  0.45593999997E+02  0.45594000000E+02  0.51100000000E-03 0. -1.
         11   -1    0    0    0    0 -0.00000000000E+00 -0.00000000000E+00 -0.45593999997E+02  0.45594000000E+02  0.51100000000E-03 0.  1.
    9900012    2    1    2    0    0 -0.58406026422E+00 -0.99645465688E+00 -0.24142763032E+00  0.90008027299E+02  0.90000292458E+02 0.  0.
        -12    1    1    2    0    0  0.58406026422E+00  0.99645465688E+00  0.24142763032E+00  0.11799727014E+01  0.00000000000E+00 0.  1.
         11    1    3    3    0    0  0.94373763378E+01 -0.12746224824E+01  0.26225610386E+01  0.98775787153E+01  0.51100000000E-03 0. -1.
        -11    1    3    3    0    0  0.27201345890E+01  0.37043876530E+02 -0.13940732799E+02  0.39673567420E+02  0.51100000000E-03 0.  1.
         12    1    3    3    0    0 -0.12741571191E+02 -0.36765708705E+02  0.11076744130E+02  0.40456881164E+02  0.00000000000E+00 0. -1.
</event>
<event>
 7    1  0.2497665E-015  0.9000768E+02  0.7816164E-02  0.1186339E+00
        -11   -1    0    0    0    0  0.00000000000E+00  0.00000000000E+00  0.45593999997E+02  0.45594000000E+02  0.51100000000E-03 0.  1.
         11   -1    0    0    0    0 -0.00000000000E+00 -0.00000000000E+00 -0.45593999997E+02  0.45594000000E+02  0.51100000000E-03 0. -1.
    9900012    2    1    2    0    0  0.11090030758E+01  0.25954063684E+00 -0.30967188940E+00  0.90007684007E+02  0.89999944636E+02 0.  0.
        -12    1    1    2    0    0 -0.11090030758E+01 -0.25954063684E+00  0.30967188940E+00  0.11803159931E+01  0.00000000000E+00 0.  1.
         11    1    3    3    0    0 -0.45679046237E+01 -0.94110523487E+01 -0.17040761955E+01  0.10598940273E+02  0.51100000000E-03 0. -1.
        -11    1    3    3    0    0 -0.31361631897E+02  0.78249045720E+01  0.19905808678E+02  0.37960799599E+02  0.51100000000E-03 0.  1.
         12    1    3    3    0    0  0.37038539597E+02  0.18456884136E+01 -0.18511404372E+02  0.41447944135E+02  0.00000000000E+00 0. -1.
</event>
<event>
 7    1  0.2497665E-015  0.9000772E+02  0.7816164E-02  0.1186339E+00
        -11   -1    0    0    0    0  0.00000000000E+00  0.00000000000E+00  0.45593999997E+02  0.45594000000E+02  0.51100000000E-03 0.  1.
         11   -1    0    0    0    0 -0.00000000000E+00 -0.00000000000E+00 -0.45593999997E+02  0.45594000000E+02  0.51100000000E-03 0. -1.
    9900012    2    1    2    0    0 -0.15167427326E-02 -0.86982772789E+00 -0.79778370885E+00  0.90007719769E+02  0.89999980870E+02 0.  0.
        -12    1    1    2    0    0  0.15167427326E-02  0.86982772789E+00  0.79778370885E+00  0.11802802306E+01  0.00000000000E+00 0.  1.
         11    1    3    3    0    0 -0.24347990843E+02  0.16440894828E+02  0.16034212567E+02  0.33469742361E+02  0.51100000000E-03 0. -1.
        -11    1    3    3    0    0 -0.10080067588E+02 -0.10230913621E+02  0.49466646235E+01  0.15190419588E+02  0.51100000000E-03 0.  1.
        -12    1    3    3    0    0  0.34426541688E+02 -0.70798089344E+01 -0.21778660899E+02  0.41347557820E+02  0.00000000000E+00 0.  1.
</event>
<event>
 7    1  0.2497665E-015  0.9000776E+02  0.7816164E-02  0.1186339E+00
        -11   -1    0    0    0    0  0.00000000000E+00  0.00000000000E+00  0.45593999997E+02  0.45594000000E+02  0.51100000000E-03 0. -1.
         11   -1    0    0    0    0 -0.00000000000E+00 -0.00000000000E+00 -0.45593999997E+02  0.45594000000E+02  0.51100000000E-03 0.  1.
    9900012    2    1    2    0    0 -0.15521650838E-01  0.59076745604E+00  0.10216303561E+01  0.90007756087E+02  0.90000017668E+02 0.  0.
        -12    1    1    2    0    0  0.15521650838E-01 -0.59076745604E+00 -0.10216303561E+01  0.11802439126E+01  0.00000000000E+00 0.  1.
         11    1    3    3    0    0  0.12298905136E+01  0.78466278375E+01 -0.22181790367E+01  0.82463639015E+01  0.51100000000E-03 0. -1.
        -11    1    3    3    0    0  0.14755547929E+02 -0.17419908789E+02 -0.33430167099E+02  0.40481545047E+02  0.51100000000E-03 0.  1.
         12    1    3    3    0    0 -0.16000960093E+02  0.10164048407E+02  0.36669976491E+02  0.41279847139E+02  0.00000000000E+00 0. -1.
</event>
<event>
 7    1  0.2497665E-015  0.9000847E+02  0.7816164E-02  0.1186338E+00
        -11   -1    0    0    0    0  0.00000000000E+00  0.00000000000E+00  0.45593999997E+02  0.45594000000E+02  0.51100000000E-03 0. -1.
         11   -1    0    0    0    0 -0.00000000000E+00 -0.00000000000E+00 -0.45593999997E+02  0.45594000000E+02  0.51100000000E-03 0.  1.
    9900012    2    1    2    0    0  0.79656249872E+00  0.54931653114E+00  0.67456211989E+00  0.90008468517E+02  0.90000739498E+02 0.  0.
        -12    1    1    2    0    0 -0.79656249872E+00 -0.54931653114E+00 -0.67456211989E+00  0.11795314830E+01  0.00000000000E+00 0.  1.
         11    1    3    3    0    0 -0.22896840458E+02 -0.97485166839E+01  0.36328833634E+02  0.44035020540E+02  0.51100000000E-03 0. -1.
        -11    1    3    3    0    0  0.67899259292E+01 -0.91599981270E+00 -0.28855326557E+01  0.74342752672E+01  0.51100000000E-03 0.  1.
        -12    1    3    3    0    0  0.16903477027E+02  0.11213833028E+02 -0.32768738858E+02  0.38539172710E+02  0.00000000000E+00 0.  1.
</event>
<event>
 7    1  0.2497665E-015  0.9000783E+02  0.7816164E-02  0.1186339E+00
        -11   -1    0    0    0    0  0.00000000000E+00  0.00000000000E+00  0.45593999997E+02  0.45594000000E+02  0.51100000000E-03 0. -1.
         11   -1    0    0    0    0 -0.00000000000E+00 -0.00000000000E+00 -0.45593999997E+02  0.45594000000E+02  0.51100000000E-03 0.  1.
    9900012    2    1    2    0    0 -0.93158110294E+00  0.19479415119E+00  0.69785665983E+00  0.90007833897E+02  0.90000096505E+02 0.  0.
        -12    1    1    2    0    0  0.93158110294E+00 -0.19479415119E+00 -0.69785665983E+00  0.11801661029E+01  0.00000000000E+00 0.  1.
         11    1    3    3    0    0 -0.16843599522E+02  0.32453365712E+02  0.12114296385E+02  0.38518618460E+02  0.51100000000E-03 0. -1.
        -11    1    3    3    0    0 -0.95492501164E+01 -0.11098822142E+01  0.19759039653E+00  0.96155633502E+01  0.51100000000E-03 0.  1.
        -12    1    3    3    0    0  0.25461268536E+02 -0.31148689346E+02 -0.11614030122E+02  0.41873652087E+02  0.00000000000E+00 0.  1.
</event>
<event>
 7    1  0.2497665E-015  0.9000831E+02  0.7816164E-02  0.1186338E+00
        -11   -1    0    0    0    0  0.00000000000E+00  0.00000000000E+00  0.45593999997E+02  0.45594000000E+02  0.51100000000E-03 0.  1.
         11   -1    0    0    0    0 -0.00000000000E+00 -0.00000000000E+00 -0.45593999997E+02  0.45594000000E+02  0.51100000000E-03 0. -1.
    9900012    2    1    2    0    0  0.37828965924E+00 -0.10091059548E+01 -0.47986661002E+00  0.90008309423E+02  0.90000578305E+02 0.  0.
        -12    1    1    2    0    0 -0.37828965924E+00  0.10091059548E+01  0.47986661002E+00  0.11796905771E+01  0.00000000000E+00 0.  1.
         11    1    3    3    0    0  0.18967986499E+02  0.10672100213E+02 -0.28824890167E+02  0.36118589786E+02  0.51100000000E-03 0. -1.
        -11    1    3    3    0    0 -0.22978163286E+01  0.47823140588E+01 -0.87056486211E+01  0.10195038294E+02  0.51100000000E-03 0.  1.
        -12    1    3    3    0    0 -0.16291880511E+02 -0.16463520227E+02  0.37050672178E+02  0.43694681343E+02  0.00000000000E+00 0.  1.
</event>
<event>
 7    1  0.2497665E-015  0.9000769E+02  0.7816164E-02  0.1186339E+00
        -11   -1    0    0    0    0  0.00000000000E+00  0.00000000000E+00  0.45593999997E+02  0.45594000000E+02  0.51100000000E-03 0. -1.
         11   -1    0    0    0    0 -0.00000000000E+00 -0.00000000000E+00 -0.45593999997E+02  0.45594000000E+02  0.51100000000E-03 0.  1.
    9900012    2    1    2    0    0  0.77172741260E+00  0.10888648064E+00 -0.88640795380E+00  0.90007687107E+02  0.89999947777E+02 0.  0.
        -12    1    1    2    0    0 -0.77172741260E+00 -0.10888648064E+00  0.88640795380E+00  0.11803128931E+01  0.00000000000E+00 0.  1.
         11    1    3    3    0    0  0.11307393249E+02 -0.32917735845E+02  0.13724824421E+02  0.37413971733E+02  0.51100000000E-03 0. -1.
        -11    1    3    3    0    0 -0.29602183759E+01 -0.36764570125E+01  0.76610071448E+01  0.89983476112E+01  0.51100000000E-03 0.  1.
        -12    1    3    3    0    0 -0.75754474603E+01  0.36703079338E+02 -0.22272239520E+02  0.43595367762E+02  0.00000000000E+00 0.  1.
</event>
<event>
 7    1  0.2497665E-015  0.9000784E+02  0.7816164E-02  0.1186339E+00
        -11   -1    0    0    0    0  0.00000000000E+00  0.00000000000E+00  0.45593999997E+02  0.45594000000E+02  0.51100000000E-03 0.  1.
         11   -1    0    0    0    0 -0.00000000000E+00 -0.00000000000E+00 -0.45593999997E+02  0.45594000000E+02  0.51100000000E-03 0. -1.
    9900012    2    1    2    0    0 -0.84466935556E+00  0.76436015090E+00 -0.30833390373E+00  0.90007837911E+02  0.90000100571E+02 0.  0.
        -12    1    1    2    0    0  0.84466935556E+00 -0.76436015090E+00  0.30833390373E+00  0.11801620892E+01  0.00000000000E+00 0.  1.
         11    1    3    3    0    0 -0.13342879028E+01 -0.92684027638E+01 -0.61611017157E+00  0.93841998063E+01  0.51100000000E-03 0. -1.
        -11    1    3    3    0    0 -0.24701883801E+02 -0.26478283862E+02 -0.13157191769E+01  0.36235530861E+02  0.51100000000E-03 0.  1.
         12    1    3    3    0    0  0.25191502348E+02  0.36511046776E+02  0.16234954448E+01  0.44388107244E+02  0.00000000000E+00 0. -1.
</event>
<event>
 7    1  0.2497665E-015  0.9000775E+02  0.7816164E-02  0.1186339E+00
        -11   -1    0    0    0    0  0.00000000000E+00  0.00000000000E+00  0.45593999997E+02  0.45594000000E+02  0.51100000000E-03 0. -1.
         11   -1    0    0    0    0 -0.00000000000E+00 -0.00000000000E+00 -0.45593999997E+02  0.45594000000E+02  0.51100000000E-03 0.  1.
    9900012    2    1    2    0    0  0.82825768485E+00 -0.82231814499E+00 -0.17544765607E+00  0.90007745873E+02  0.90000007319E+02 0.  0.
        -12    1    1    2    0    0 -0.82825768485E+00  0.82231814499E+00  0.17544765607E+00  0.11802541269E+01  0.00000000000E+00 0.  1.
         11    1    3    3    0    0  0.72048550864E+01 -0.42821203998E+02  0.22069192967E+01  0.43479143755E+02  0.51100000000E-03 0. -1.
        -11    1    3    3    0    0  0.22986911428E+01  0.87760115027E+01 -0.75529305800E+01  0.11804622801E+02  0.51100000000E-03 0.  1.
        -12    1    3    3    0    0 -0.86752885443E+01  0.33222874350E+02  0.51705636272E+01  0.34723979317E+02  0.00000000000E+00 0.  1.
</event>
<event>
 7    1  0.2497665E-015  0.9000753E+02  0.7816164E-02  0.1186339E+00
        -11   -1    0    0    0    0  0.00000000000E+00  0.00000000000E+00  0.45593999997E+02  0.45594000000E+02  0.51100000000E-03 0.  1.
         11   -1    0    0    0    0 -0.00000000000E+00 -0.00000000000E+00 -0.45593999997E+02  0.45594000000E+02  0.51100000000E-03 0. -1.
    9900012    2    1    2    0    0 -0.10443257560E+01 -0.16477208523E+00 -0.52512038799E+00  0.90007526558E+02  0.89999785109E+02 0.  0.
        -12    1    1    2    0    0  0.10443257560E+01  0.16477208523E+00  0.52512038799E+00  0.11804734417E+01  0.00000000000E+00 0.  1.
         11    1    3    3    0    0  0.54887087052E+01  0.78314748688E+00  0.11550930014E+02  0.12812619861E+02  0.51100000000E-03 0. -1.
        -11    1    3    3    0    0  0.87240701888E+01 -0.25471227360E+02 -0.32215242846E+02  0.41984695971E+02  0.51100000000E-03 0.  1.
         12    1    3    3    0    0 -0.15257104650E+02  0.24523307788E+02  0.20139192443E+02  0.35210210727E+02  0.00000000000E+00 0. -1.
</event>
<event>
 7    1  0.2497665E-015  0.9000776E+02  0.7816164E-02  0.1186339E+00
        -11   -1    0    0    0    0  0.00000000000E+00  0.00000000000E+00  0.45593999997E+02  0.45594000000E+02  0.51100000000E-03 0.  1.
         11   -1    0    0    0    0 -0.00000000000E+00 -0.00000000000E+00 -0.45593999997E+02  0.45594000000E+02  0.51100000000E-03 0. -1.
    9900012    2    1    2    0    0  0.98137392916E+00 -0.62916808669E+00  0.18444165174E+00  0.90007760197E+02  0.90000021831E+02 0.  0.
        -12    1    1    2    0    0 -0.98137392916E+00  0.62916808669E+00 -0.18444165174E+00  0.11802398032E+01  0.00000000000E+00 0.  1.
         11    1    3    3    0    0  0.74319476037E+01  0.14164997276E+02 -0.33514619758E+02  0.37136380152E+02  0.51100000000E-03 0. -1.
        -11    1    3    3    0    0  0.80899711956E+01  0.38285155639E+01 -0.28128125563E+01  0.93817418482E+01  0.51100000000E-03 0.  1.
        -12    1    3    3    0    0 -0.14540544870E+02 -0.18622680926E+02  0.36511873966E+02  0.43489638197E+02  0.00000000000E+00 0.  1.
</event>
<event>
 7    1  0.2497665E-015  0.9000777E+02  0.7816164E-02  0.1186339E+00
        -11   -1    0    0    0    0  0.00000000000E+00  0.00000000000E+00  0.45593999997E+02  0.45594000000E+02  0.51100000000E-03 0. -1.
         11   -1    0    0    0    0 -0.00000000000E+00 -0.00000000000E+00 -0.45593999997E+02  0.45594000000E+02  0.51100000000E-03 0.  1.
    9900012    2    1    2    0    0  0.52607014878E+00 -0.58951801696E+00  0.87672836360E+00  0.90007773786E+02  0.90000035600E+02 0.  0.
        -12    1    1    2    0    0 -0.52607014878E+00  0.58951801696E+00 -0.87672836360E+00  0.11802262145E+01  0.00000000000E+00 0.  1.
         11    1    3    3    0    0  0.19346491965E+02 -0.16573158032E+02  0.29725068575E+02  0.39147618326E+02  0.51100000000E-03 0. -1.
        -11    1    3    3    0    0 -0.79551611767E+00 -0.82793004837E+01  0.10040008986E+01  0.83778088101E+01  0.51100000000E-03 0.  1.
        -12    1    3    3    0    0 -0.18024905699E+02  0.24262940499E+02 -0.29852341110E+02  0.42482346650E+02  0.00000000000E+00 0.  1.
</event>
<event>
 7    1  0.2497665E-015  0.9000775E+02  0.7816164E-02  0.1186339E+00
        -11   -1    0    0    0    0  0.00000000000E+00  0.00000000000E+00  0.45593999997E+02  0.45594000000E+02  0.51100000000E-03 0.  1.
         11   -1    0    0    0    0 -0.00000000000E+00 -0.00000000000E+00 -0.45593999997E+02  0.45594000000E+02  0.51100000000E-03 0. -1.
    9900012    2    1    2    0    0 -0.33044301990E+00 -0.70823694316E+00 -0.88441622932E+00  0.90007752474E+02  0.90000014006E+02 0.  0.
        -12    1    1    2    0    0  0.33044301990E+00  0.70823694316E+00  0.88441622932E+00  0.11802475265E+01  0.00000000000E+00 0.  1.
         11    1    3    3    0    0  0.54047462147E+01  0.51502270736E+01  0.24441624127E+01  0.78555744994E+01  0.51100000000E-03 0. -1.
        -11    1    3    3    0    0  0.36760888060E+02  0.37450471956E+01  0.64262057711E+01  0.37505791424E+02  0.51100000000E-03 0.  1.
         12    1    3    3    0    0 -0.42496077295E+02 -0.96035112124E+01 -0.97547844131E+01  0.44646386550E+02  0.00000000000E+00 0. -1.
</event>
<event>
 7    1  0.2497665E-015  0.9000798E+02  0.7816164E-02  0.1186339E+00
        -11   -1    0    0    0    0  0.00000000000E+00  0.00000000000E+00  0.45593999997E+02  0.45594000000E+02  0.51100000000E-03 0.  1.
         11   -1    0    0    0    0 -0.00000000000E+00 -0.00000000000E+00 -0.45593999997E+02  0.45594000000E+02  0.51100000000E-03 0. -1.
    9900012    2    1    2    0    0 -0.46407953120E+00  0.10466790530E+00 -0.10798733781E+01  0.90007978096E+02  0.90000242606E+02 0.  0.
        -12    1    1    2    0    0  0.46407953120E+00 -0.10466790530E+00  0.10798733781E+01  0.11800219042E+01  0.00000000000E+00 0.  1.
         11    1    3    3    0    0 -0.24672215053E+02  0.95776434833E+01  0.22440327967E+02  0.34698959204E+02  0.51100000000E-03 0. -1.
        -11    1    3    3    0    0 -0.97032003265E+01  0.52539884780E+01  0.78817285972E+00  0.11062445852E+02  0.51100000000E-03 0.  1.
        -12    1    3    3    0    0  0.33911335848E+02 -0.14726964056E+02 -0.24308374204E+02  0.44246573040E+02  0.00000000000E+00 0.  1.
</event>
<event>
 7    1  0.2497665E-015  0.9000852E+02  0.7816164E-02  0.1186337E+00
        -11   -1    0    0    0    0  0.00000000000E+00  0.00000000000E+00  0.45593999997E+02  0.45594000000E+02  0.51100000000E-03 0.  1.
         11   -1    0    0    0    0 -0.00000000000E+00 -0.00000000000E+00 -0.45593999997E+02  0.45594000000E+02  0.51100000000E-03 0. -1.
    9900012    2    1    2    0    0 -0.79861360345E+00  0.77523936491E+00  0.39036125514E+00  0.90008524833E+02  0.90000796557E+02 0.  0.
        -12    1    1    2    0    0  0.79861360345E+00 -0.77523936491E+00 -0.39036125514E+00  0.11794751672E+01  0.00000000000E+00 0.  1.
         11    1    3    3    0    0  0.20428592427E+01  0.85667911937E+01  0.49680150116E+01  0.10111595258E+02  0.51100000000E-03 0. -1.
        -11    1    3    3    0    0  0.11514805574E+02 -0.65118386265E+01  0.35191930024E+02  0.37596099914E+02  0.51100000000E-03 0.  1.
         12    1    3    3    0    0 -0.14356278420E+02 -0.12797132023E+01 -0.39769583780E+02  0.42300829661E+02  0.00000000000E+00 0. -1.
</event>
<event>
 7    1  0.2497665E-015  0.9000771E+02  0.7816164E-02  0.1186339E+00
        -11   -1    0    0    0    0  0.00000000000E+00  0.00000000000E+00  0.45593999997E+02  0.45594000000E+02  0.51100000000E-03 0. -1.
         11   -1    0    0    0    0 -0.00000000000E+00 -0.00000000000E+00 -0.45593999997E+02  0.45594000000E+02  0.51100000000E-03 0.  1.
    9900012    2    1    2    0    0  0.43736153701E+00 -0.10577211572E+01 -0.28814132780E+00  0.90007709957E+02  0.89999970929E+02 0.  0.
        -12    1    1    2    0    0 -0.43736153701E+00  0.10577211572E+01  0.28814132780E+00  0.11802900429E+01  0.00000000000E+00 0.  1.
         11    1    3    3    0    0 -0.11912201480E+02  0.23768516181E+02  0.28673656802E+02  0.39102704513E+02  0.51100000000E-03 0. -1.
        -11    1    3    3    0    0 -0.57098348322E+01  0.24963856360E+01 -0.13116837596E+02  0.14521900146E+02  0.51100000000E-03 0.  1.
        -12    1    3    3    0    0  0.18059397849E+02 -0.27322622974E+02 -0.15844960533E+02  0.36383105299E+02  0.00000000000E+00 0.  1.
</event>
<event>
 7    1  0.2497665E-015  0.9000772E+02  0.7816164E-02  0.1186339E+00
        -11   -1    0    0    0    0  0.00000000000E+00  0.00000000000E+00  0.45593999997E+02  0.45594000000E+02  0.51100000000E-03 0.  1.
         11   -1    0    0    0    0 -0.00000000000E+00 -0.00000000000E+00 -0.45593999997E+02  0.45594000000E+02  0.51100000000E-03 0. -1.
    9900012    2    1    2    0    0  0.55849436338E+00  0.10385411635E+01  0.50797188652E-01  0.90007718654E+02  0.89999979740E+02 0.  0.
        -12    1    1    2    0    0 -0.55849436338E+00 -0.10385411635E+01 -0.50797188652E-01  0.11802813463E+01  0.00000000000E+00 0.  1.
         11    1    3    3    0    0 -0.28748074596E+02 -0.96723344685E+01  0.19408451659E+02  0.36009635421E+02  0.51100000000E-03 0. -1.
        -11    1    3    3    0    0  0.20386449446E+02 -0.13107977041E+02 -0.48510696250E+01  0.24717590090E+02  0.51100000000E-03 0.  1.
        -12    1    3    3    0    0  0.89201195137E+01  0.23818852673E+02 -0.14506584846E+02  0.29280493142E+02  0.00000000000E+00 0.  1.
</event>
<event>
 7    1  0.2497665E-015  0.9000774E+02  0.7816164E-02  0.1186339E+00
        -11   -1    0    0    0    0  0.00000000000E+00  0.00000000000E+00  0.45593999997E+02  0.45594000000E+02  0.51100000000E-03 0. -1.
         11   -1    0    0    0    0 -0.00000000000E+00 -0.00000000000E+00 -0.45593999997E+02  0.45594000000E+02  0.51100000000E-03 0.  1.
    9900012    2    1    2    0    0  0.10994429760E+01  0.30960139921E+00  0.29728815506E+00  0.90007742345E+02  0.90000003744E+02 0.  0.
        -12    1    1    2    0    0 -0.10994429760E+01 -0.30960139921E+00 -0.29728815506E+00  0.11802576545E+01  0.00000000000E+00 0.  1.
         11    1    3    3    0    0 -0.71581609967E+01  0.85328515444E+01  0.35250782931E+02  0.36968453063E+02  0.51100000000E-03 0. -1.
        -11    1    3    3    0    0  0.72669536730E+01  0.98357653878E+01  0.15245120669E+01  0.12323758913E+02  0.51100000000E-03 0.  1.
        -12    1    3    3    0    0  0.99065029970E+00 -0.18059015533E+02 -0.36478006843E+02  0.40715530370E+02  0.00000000000E+00 0.  1.
</event>
<event>
 7    1  0.2497665E-015  0.9000779E+02  0.7816164E-02  0.1186339E+00
        -11   -1    0    0    0    0  0.00000000000E+00  0.00000000000E+00  0.45593999997E+02  0.45594000000E+02  0.51100000000E-03 0. -1.
         11   -1    0    0    0    0 -0.00000000000E+00 -0.00000000000E+00 -0.45593999997E+02  0.45594000000E+02  0.51100000000E-03 0.  1.
    9900012    2    1    2    0    0 -0.10757624615E+01 -0.41140364108E+00 -0.25764646425E+00  0.90007788354E+02  0.90000050360E+02 0.  0.
        -12    1    1    2    0    0  0.10757624615E+01  0.41140364108E+00  0.25764646425E+00  0.11802116462E+01  0.00000000000E+00 0.  1.
         11    1    3    3    0    0 -0.97076714430E+01  0.18681280021E+01  0.39848107389E+02  0.41056064714E+02  0.51100000000E-03 0. -1.
        -11    1    3    3    0    0 -0.82964470822E+01 -0.19772352544E+01 -0.47771316320E+01  0.97755552441E+01  0.51100000000E-03 0.  1.
        -12    1    3    3    0    0  0.16928356064E+02 -0.30229638885E+00 -0.35328622221E+02  0.39176168396E+02  0.00000000000E+00 0.  1.
</event>
<event>
 7    1  0.2497665E-015  0.9000776E+02  0.7816164E-02  0.1186339E+00
        -11   -1    0    0    0    0  0.00000000000E+00  0.00000000000E+00  0.45593999997E+02  0.45594000000E+02  0.51100000000E-03 0. -1.
         11   -1    0    0    0    0 -0.00000000000E+00 -0.00000000000E+00 -0.45593999997E+02  0.45594000000E+02  0.51100000000E-03 0.  1.
    9900012    2    1    2    0    0 -0.14554565623E+00 -0.62138746578E+00  0.99280730561E+00  0.90007757539E+02  0.90000019139E+02 0.  0.
        -12    1    1    2    0    0  0.14554565623E+00  0.62138746578E+00 -0.99280730561E+00  0.11802424610E+01  0.00000000000E+00 0.  1.
         11    1    3    3    0    0  0.38962990265E+01  0.15455617789E+02  0.31727658370E+02  0.35506359616E+02  0.51100000000E-03 0. -1.
        -11    1    3    3    0    0 -0.74138409696E+01  0.33321613345E+01  0.77732171656E+01  0.11246832552E+02  0.51100000000E-03 0.  1.
        -12    1    3    3    0    0  0.33719962869E+01 -0.19409166589E+02 -0.38508068230E+02  0.43254565371E+02  0.00000000000E+00 0.  1.
</event>
<event>
 7    1  0.2497665E-015  0.9000745E+02  0.7816164E-02  0.1186340E+00
        -11   -1    0    0    0    0  0.00000000000E+00  0.00000000000E+00  0.45593999997E+02  0.45594000000E+02  0.51100000000E-03 0.  1.
         11   -1    0    0    0    0 -0.00000000000E+00 -0.00000000000E+00 -0.45593999997E+02  0.45594000000E+02  0.51100000000E-03 0. -1.
    9900012    2    1    2    0    0  0.83602083709E+00 -0.20515643443E+00 -0.80789022341E+00  0.90007446479E+02  0.89999703972E+02 0.  0.
        -12    1    1    2    0    0 -0.83602083709E+00  0.20515643443E+00  0.80789022341E+00  0.11805535209E+01  0.00000000000E+00 0.  1.
         11    1    3    3    0    0 -0.79753114016E+01 -0.32479484220E+01 -0.62580237408E+00  0.86340251202E+01  0.51100000000E-03 0. -1.
        -11    1    3    3    0    0  0.16874755130E+02 -0.24323020008E+02  0.28375884851E+02  0.41006798270E+02  0.51100000000E-03 0.  1.
         12    1    3    3    0    0 -0.80634228911E+01  0.27365811996E+02 -0.28557972700E+02  0.40366623089E+02  0.00000000000E+00 0. -1.
</event>
<event>
 7    1  0.2497665E-015  0.9000770E+02  0.7816164E-02  0.1186339E+00
        -11   -1    0    0    0    0  0.00000000000E+00  0.00000000000E+00  0.45593999997E+02  0.45594000000E+02  0.51100000000E-03 0.  1.
         11   -1    0    0    0    0 -0.00000000000E+00 -0.00000000000E+00 -0.45593999997E+02  0.45594000000E+02  0.51100000000E-03 0. -1.
    9900012    2    1    2    0    0  0.10131431963E+01 -0.60515880441E+00  0.20988941770E-01  0.90007696289E+02  0.89999957080E+02 0.  0.
        -12    1    1    2    0    0 -0.10131431963E+01  0.60515880441E+00 -0.20988941770E-01  0.11803037111E+01  0.00000000000E+00 0.  1.
         11    1    3    3    0    0  0.67306690528E+00  0.82275604889E+01 -0.53824640059E+01  0.98547800429E+01  0.51100000000E-03 0. -1.
        -11    1    3    3    0    0  0.12393678818E+02 -0.77991853992E+01  0.40480806747E+02  0.43047953293E+02  0.51100000000E-03 0.  1.
         12    1    3    3    0    0 -0.12053602527E+02 -0.10335338941E+01 -0.35077353799E+02  0.37104962953E+02  0.00000000000E+00 0. -1.
</event>
<event>
 7    1  0.2497665E-015  0.9000775E+02  0.7816164E-02  0.1186339E+00
        -11   -1    0    0    0    0  0.00000000000E+00  0.00000000000E+00  0.45593999997E+02  0.45594000000E+02  0.51100000000E-03 0. -1.
         11   -1    0    0    0    0 -0.00000000000E+00 -0.00000000000E+00 -0.45593999997E+02  0.45594000000E+02  0.51100000000E-03 0.  1.
    9900012    2    1    2    0    0  0.81069844596E+00  0.72656577978E+00  0.45591580241E+00  0.90007750441E+02  0.90000011947E+02 0.  0.
        -12    1    1    2    0    0 -0.81069844596E+00 -0.72656577978E+00 -0.45591580241E+00  0.11802495590E+01  0.00000000000E+00 0.  1.
         11    1    3    3    0    0 -0.19560182019E+02 -0.37628626615E+01  0.26793146660E+02  0.33386113344E+02  0.51100000000E-03 0. -1.
        -11    1    3    3    0    0  0.11843510713E+01 -0.27376688084E+01  0.12421296904E+02  0.12774432864E+02  0.51100000000E-03 0.  1.
        -12    1    3    3    0    0  0.19186529394E+02  0.72270972497E+01 -0.38758527761E+02  0.43847204233E+02  0.00000000000E+00 0.  1.
</event>
<event>
 7    1  0.2497665E-015  0.9000771E+02  0.7816164E-02  0.1186339E+00
        -11   -1    0    0    0    0  0.00000000000E+00  0.00000000000E+00  0.45593999997E+02  0.45594000000E+02  0.51100000000E-03 0.  1.
         11   -1    0    0    0    0 -0.00000000000E+00 -0.00000000000E+00 -0.45593999997E+02  0.45594000000E+02  0.51100000000E-03 0. -1.
    9900012    2    1    2    0    0 -0.75979090720E+00 -0.15355163738E+00 -0.89007037909E+00  0.90007709524E+02  0.89999970490E+02 0.  0.
        -12    1    1    2    0    0  0.75979090720E+00  0.15355163738E+00  0.89007037909E+00  0.11802904760E+01  0.00000000000E+00 0.  1.
         11    1    3    3    0    0 -0.62553591638E+01 -0.20098601766E+02 -0.26973724599E+02  0.34214984002E+02  0.51100000000E-03 0. -1.
        -11    1    3    3    0    0 -0.39678372816E+01  0.34153446901E+00 -0.11604984941E+02  0.12269313519E+02  0.51100000000E-03 0.  1.
        -12    1    3    3    0    0  0.94634055382E+01  0.19603515660E+02  0.37688639161E+02  0.43523412003E+02  0.00000000000E+00 0.  1.
</event>
<event>
 7    1  0.2497665E-015  0.9000781E+02  0.7816164E-02  0.1186339E+00
        -11   -1    0    0    0    0  0.00000000000E+00  0.00000000000E+00  0.45593999997E+02  0.45594000000E+02  0.51100000000E-03 0. -1.
         11   -1    0    0    0    0 -0.00000000000E+00 -0.00000000000E+00 -0.45593999997E+02  0.45594000000E+02  0.51100000000E-03 0.  1.
    9900012    2    1    2    0    0  0.29461186950E+00  0.87163070498E+00  0.73913001857E+00  0.90007809582E+02  0.90000071868E+02 0.  0.
        -12    1    1    2    0    0 -0.29461186950E+00 -0.87163070498E+00 -0.73913001857E+00  0.11801904185E+01  0.00000000000E+00 0.  1.
         11    1    3    3    0    0 -0.70097763781E+01 -0.52775991157E+00 -0.11756290478E+01  0.71272434583E+01  0.51100000000E-03 0. -1.
        -11    1    3    3    0    0  0.10762587481E+02 -0.40705247830E+01 -0.39408311797E+02  0.41053836608E+02  0.51100000000E-03 0.  1.
         12    1    3    3    0    0 -0.34581992339E+01  0.54699153996E+01  0.41323070863E+02  0.41826729515E+02  0.00000000000E+00 0. -1.
</event>
<event>
 7    1  0.2497665E-015  0.9000774E+02  0.7816164E-02  0.1186339E+00
        -11   -1    0    0    0    0  0.00000000000E+00  0.00000000000E+00  0.45593999997E+02  0.45594000000E+02  0.51100000000E-03 0.  1.
         11   -1    0    0    0    0 -0.00000000000E+00 -0.00000000000E+00 -0.45593999997E+02  0.45594000000E+02  0.51100000000E-03 0. -1.
    9900012    2    1    2    0    0  0.11522454352E+01 -0.14329671637E+00 -0.21171130742E+00  0.90007735127E+02  0.89999996431E+02 0.  0.
        -12    1    1    2    0    0 -0.11522454352E+01  0.14329671637E+00  0.21171130742E+00  0.11802648727E+01  0.00000000000E+00 0.  1.
         11    1    3    3    0    0 -0.88520581656E+01  0.27581900853E+02 -0.20905496634E+02  0.35723381394E+02  0.51100000000E-03 0. -1.
        -11    1    3    3    0    0  0.32444787161E-01  0.83702682213E+01 -0.41524908644E+01  0.93437478242E+01  0.51100000000E-03 0.  1.
        -12    1    3    3    0    0  0.99718588137E+01 -0.36095465791E+02  0.24846276191E+02  0.44940605909E+02  0.00000000000E+00 0.  1.
</event>
<event>
 7    1  0.2497665E-015  0.9000774E+02  0.7816164E-02  0.1186339E+00
        -11   -1    0    0    0    0  0.00000000000E+00  0.00000000000E+00  0.45593999997E+02  0.45594000000E+02  0.51100000000E-03 0.  1.
         11   -1    0    0    0    0 -0.00000000000E+00 -0.00000000000E+00 -0.45593999997E+02  0.45594000000E+02  0.51100000000E-03 0. -1.
    9900012    2    1    2    0    0 -0.87397298405E+00  0.68247921027E+00  0.40425011168E+00  0.90007735283E+02  0.89999996589E+02 0.  0.
        -12    1    1    2    0    0  0.87397298405E+00 -0.68247921027E+00 -0.40425011168E+00  0.11802647170E+01  0.00000000000E+00 0.  1.
         11    1    3    3    0    0  0.24592423814E+00 -0.34325001057E+02  0.37531834761E+01  0.34530458479E+02  0.51100000000E-03 0. -1.
        -11    1    3    3    0    0 -0.63168966847E+01 -0.89546395153E+01 -0.22964150222E+01  0.11196529587E+02  0.51100000000E-03 0.  1.
        -12    1    3    3    0    0  0.51969994625E+01  0.43962119783E+02 -0.10525183422E+01  0.44280747217E+02  0.00000000000E+00 0.  1.
</event>
<event>
 7    1  0.2497665E-015  0.9000777E+02  0.7816164E-02  0.1186339E+00
        -11   -1    0    0    0    0  0.00000000000E+00  0.00000000000E+00  0.45593999997E+02  0.45594000000E+02  0.51100000000E-03 0. -1.
         11   -1    0    0    0    0 -0.00000000000E+00 -0.00000000000E+00 -0.45593999997E+02  0.45594000000E+02  0.51100000000E-03 0.  1.
    9900012    2    1    2    0    0  0.10571403759E+01  0.51663115227E+00  0.92101764944E-01  0.90007772794E+02  0.90000034595E+02 0.  0.
        -12    1    1    2    0    0 -0.10571403759E+01 -0.51663115227E+00 -0.92101764944E-01  0.11802272056E+01  0.00000000000E+00 0.  1.
         11    1    3    3    0    0  0.70254377817E+01  0.34327920987E+02  0.17171157399E+02  0.39020655837E+02  0.51100000000E-03 0. -1.
        -11    1    3    3    0    0 -0.14348687847E+02 -0.24375153533E+01 -0.58836973253E+00  0.14566142359E+02  0.51100000000E-03 0.  1.
        -12    1    3    3    0    0  0.83803904412E+01 -0.31373774481E+02 -0.16490685901E+02  0.36420974598E+02  0.00000000000E+00 0.  1.
</event>
<event>
 7    1  0.2497665E-015  0.9000770E+02  0.7816164E-02  0.1186339E+00
        -11   -1    0    0    0    0  0.00000000000E+00  0.00000000000E+00  0.45593999997E+02  0.45594000000E+02  0.51100000000E-03 0. -1.
         11   -1    0    0    0    0 -0.00000000000E+00 -0.00000000000E+00 -0.45593999997E+02  0.45594000000E+02  0.51100000000E-03 0.  1.
    9900012    2    1    2    0    0 -0.64998242294E+00 -0.98519921822E+00  0.39479334920E-02  0.90007699091E+02  0.89999959919E+02 0.  0.
        -12    1    1    2    0    0  0.64998242294E+00  0.98519921822E+00 -0.39479334920E-02  0.11803009090E+01  0.00000000000E+00 0.  1.
         11    1    3    3    0    0  0.40501218876E+01 -0.30441663536E+01  0.82479432044E+01  0.96798245571E+01  0.51100000000E-03 0. -1.
        -11    1    3    3    0    0 -0.12596259982E+02 -0.36997780138E+02 -0.10333248048E+02  0.40426198389E+02  0.51100000000E-03 0.  1.
         12    1    3    3    0    0  0.78961556713E+01  0.39056747274E+02  0.20892527772E+01  0.39901676145E+02  0.00000000000E+00 0. -1.
</event>
<event>
 7    1  0.2497665E-015  0.9000705E+02  0.7816164E-02  0.1186340E+00
        -11   -1    0    0    0    0  0.00000000000E+00  0.00000000000E+00  0.45593999997E+02  0.45594000000E+02  0.51100000000E-03 0. -1.
         11   -1    0    0    0    0 -0.00000000000E+00 -0.00000000000E+00 -0.45593999997E+02  0.45594000000E+02  0.51100000000E-03 0.  1.
    9900012    2    1    2    0    0 -0.59272053622E+00  0.10110641248E+01  0.14513050179E+00  0.90007054971E+02  0.89999307294E+02 0.  0.
        -12    1    1    2    0    0  0.59272053622E+00 -0.10110641248E+01 -0.14513050179E+00  0.11809450288E+01  0.00000000000E+00 0.  1.
         11    1    3    3    0    0 -0.49706203298E+00 -0.25197823569E+01 -0.94792703412E+01  0.98210457821E+01  0.51100000000E-03 0. -1.
        -11    1    3    3    0    0 -0.38682198647E+02  0.85457182884E+01 -0.17284255394E+01  0.39652607082E+02  0.51100000000E-03 0.  1.
         12    1    3    3    0    0  0.38586540144E+02 -0.50148718067E+01  0.11352826382E+02  0.40533402107E+02  0.00000000000E+00 0. -1.
</event>
<event>
 7    1  0.2497665E-015  0.9000758E+02  0.7816164E-02  0.1186339E+00
        -11   -1    0    0    0    0  0.00000000000E+00  0.00000000000E+00  0.45593999997E+02  0.45594000000E+02  0.51100000000E-03 0. -1.
         11   -1    0    0    0    0 -0.00000000000E+00 -0.00000000000E+00 -0.45593999997E+02  0.45594000000E+02  0.51100000000E-03 0.  1.
    9900012    2    1    2    0    0  0.10188766156E+01 -0.35261941653E+00  0.48056014776E+00  0.90007581402E+02  0.89999840676E+02 0.  0.
        -12    1    1    2    0    0 -0.10188766156E+01  0.35261941653E+00 -0.48056014776E+00  0.11804185980E+01  0.00000000000E+00 0.  1.
         11    1    3    3    0    0  0.53963128730E+01 -0.18381423416E+02  0.36095221491E+02  0.40863944182E+02  0.51100000000E-03 0. -1.
        -11    1    3    3    0    0  0.80599537313E+01 -0.59792516165E-01 -0.95427247815E+00  0.81164687839E+01  0.51100000000E-03 0.  1.
        -12    1    3    3    0    0 -0.12437389989E+02  0.18088596515E+02 -0.34660388865E+02  0.41027168436E+02  0.00000000000E+00 0.  1.
</event>
<event>
 7    1  0.2497665E-015  0.9000776E+02  0.7816164E-02  0.1186339E+00
        -11   -1    0    0    0    0  0.00000000000E+00  0.00000000000E+00  0.45593999997E+02  0.45594000000E+02  0.51100000000E-03 0. -1.
         11   -1    0    0    0    0 -0.00000000000E+00 -0.00000000000E+00 -0.45593999997E+02  0.45594000000E+02  0.51100000000E-03 0.  1.
    9900012    2    1    2    0    0 -0.14845678794E+00  0.79605525095E+00 -0.85861261748E+00  0.90007763156E+02  0.90000024830E+02 0.  0.
        -12    1    1    2    0    0  0.14845678794E+00 -0.79605525095E+00  0.85861261748E+00  0.11802368437E+01  0.00000000000E+00 0.  1.
         11    1    3    3    0    0  0.84165188275E+01 -0.43820698846E+01  0.12921770042E-01  0.94889669027E+01  0.51100000000E-03 0. -1.
        -11    1    3    3    0    0 -0.31408279421E+02  0.36221970933E+01 -0.29921526281E+02  0.43530426867E+02  0.51100000000E-03 0.  1.
         12    1    3    3    0    0  0.22843303806E+02  0.15559280422E+01  0.29049991894E+02  0.36988369386E+02  0.00000000000E+00 0. -1.
</event>
<event>
 7    1  0.2497665E-015  0.9000777E+02  0.7816164E-02  0.1186339E+00
        -11   -1    0    0    0    0  0.00000000000E+00  0.00000000000E+00  0.45593999997E+02  0.45594000000E+02  0.51100000000E-03 0.  1.
         11   -1    0    0    0    0 -0.00000000000E+00 -0.00000000000E+00 -0.45593999997E+02  0.45594000000E+02  0.51100000000E-03 0. -1.
    9900012    2    1    2    0    0  0.26323155210E+00 -0.11495726103E+01  0.46153694622E-01  0.90007771971E+02  0.90000033761E+02 0.  0.
        -12    1    1    2    0    0 -0.26323155210E+00  0.11495726103E+01 -0.46153694622E-01  0.11802280288E+01  0.00000000000E+00 0.  1.
         11    1    3    3    0    0 -0.67115278038E+01  0.17155578110E+02 -0.33916120808E+02  0.38596136033E+02  0.51100000000E-03 0. -1.
        -11    1    3    3    0    0 -0.67949004195E+01  0.63932003202E+01  0.38195289051E+01  0.10081293735E+02  0.51100000000E-03 0.  1.
        -12    1    3    3    0    0  0.13769659775E+02 -0.24698351041E+02  0.30142745598E+02  0.41330342203E+02  0.00000000000E+00 0.  1.
</event>
<event>
 7    1  0.2497665E-015  0.9000783E+02  0.7816164E-02  0.1186339E+00
        -11   -1    0    0    0    0  0.00000000000E+00  0.00000000000E+00  0.45593999997E+02  0.45594000000E+02  0.51100000000E-03 0.  1.
         11   -1    0    0    0    0 -0.00000000000E+00 -0.00000000000E+00 -0.45593999997E+02  0.45594000000E+02  0.51100000000E-03 0. -1.
    9900012    2    1    2    0    0  0.10148988994E+01  0.55588451514E+00 -0.23190970833E+00  0.90007826503E+02  0.90000089013E+02 0.  0.
        -12    1    1    2    0    0 -0.10148988994E+01 -0.55588451514E+00  0.23190970833E+00  0.11801734970E+01  0.00000000000E+00 0.  1.
         11    1    3    3    0    0 -0.77558194277E+01  0.42557244647E+01 -0.54755457283E+01  0.10404111062E+02  0.51100000000E-03 0. -1.
        -11    1    3    3    0    0 -0.21381338283E+02  0.13336859221E+01  0.32314667679E+02  0.38770840749E+02  0.51100000000E-03 0.  1.
         12    1    3    3    0    0  0.30152056610E+02 -0.50335258717E+01 -0.27071031659E+02  0.40832874692E+02  0.00000000000E+00 0. -1.
</event>
<event>
 7    1  0.2497665E-015  0.9000773E+02  0.7816164E-02  0.1186339E+00
        -11   -1    0    0    0    0  0.00000000000E+00  0.00000000000E+00  0.45593999997E+02  0.45594000000E+02  0.51100000000E-03 0.  1.
         11   -1    0    0    0    0 -0.00000000000E+00 -0.00000000000E+00 -0.45593999997E+02  0.45594000000E+02  0.51100000000E-03 0. -1.
    9900012    2    1    2    0    0  0.10277752512E+01 -0.36424155754E+00  0.45171354962E+00  0.90007729264E+02  0.89999990490E+02 0.  0.
        -12    1    1    2    0    0 -0.10277752512E+01  0.36424155754E+00 -0.45171354962E+00  0.11802707359E+01  0.00000000000E+00 0.  1.
         11    1    3    3    0    0  0.36884672671E+01 -0.23793711594E+02 -0.27050270905E+02  0.36214122363E+02  0.51100000000E-03 0. -1.
        -11    1    3    3    0    0 -0.58105380210E+00 -0.41060647361E+01 -0.78840481378E+01  0.89081763812E+01  0.51100000000E-03 0.  1.
        -12    1    3    3    0    0 -0.20796382138E+01  0.27535534773E+02  0.35386032593E+02  0.44885430520E+02  0.00000000000E+00 0.  1.
</event>
<event>
 7    1  0.2497665E-015  0.9000769E+02  0.7816164E-02  0.1186339E+00
        -11   -1    0    0    0    0  0.00000000000E+00  0.00000000000E+00  0.45593999997E+02  0.45594000000E+02  0.51100000000E-03 0.  1.
         11   -1    0    0    0    0 -0.00000000000E+00 -0.00000000000E+00 -0.45593999997E+02  0.45594000000E+02  0.51100000000E-03 0. -1.
    9900012    2    1    2    0    0  0.73376200689E+00  0.80483411895E+00 -0.45494577063E+00  0.90007686357E+02  0.89999947017E+02 0.  0.
        -12    1    1    2    0    0 -0.73376200689E+00 -0.80483411895E+00  0.45494577063E+00  0.11803136431E+01  0.00000000000E+00 0.  1.
         11    1    3    3    0    0  0.98580564197E+01 -0.35895221205E+01 -0.73492353444E+01  0.12809262502E+02  0.51100000000E-03 0. -1.
        -11    1    3    3    0    0  0.99931040937E+01 -0.14466395211E+02  0.34477066209E+02  0.38701509202E+02  0.51100000000E-03 0.  1.
         12    1    3    3    0    0 -0.19117398506E+02  0.18860751451E+02 -0.27582776635E+02  0.38496914654E+02  0.00000000000E+00 0. -1.
</event>
<event>
 7    1  0.2497665E-015  0.9000744E+02  0.7816164E-02  0.1186340E+00
        -11   -1    0    0    0    0  0.00000000000E+00  0.00000000000E+00  0.45593999997E+02  0.45594000000E+02  0.51100000000E-03 0.  1.
         11   -1    0    0    0    0 -0.00000000000E+00 -0.00000000000E+00 -0.45593999997E+02  0.45594000000E+02  0.51100000000E-03 0. -1.
    9900012    2    1    2    0    0  0.33045789507E-01 -0.65887399577E+00 -0.97903528017E+00  0.90007442061E+02  0.89999699496E+02 0.  0.
        -12    1    1    2    0    0 -0.33045789507E-01  0.65887399577E+00  0.97903528017E+00  0.11805579386E+01  0.00000000000E+00 0.  1.
         11    1    3    3    0    0  0.28523162017E+02 -0.12684074193E+02 -0.16397764805E+02  0.35261072026E+02  0.51100000000E-03 0. -1.
        -11    1    3    3    0    0  0.10114970605E+02  0.56757114621E+01 -0.22552094376E+01  0.11815764927E+02  0.51100000000E-03 0.  1.
        -12    1    3    3    0    0 -0.38605086832E+02  0.63494887350E+01  0.17673938963E+02  0.42930605108E+02  0.00000000000E+00 0.  1.
</event>
<event>
 7    1  0.2497665E-015  0.9000767E+02  0.7816164E-02  0.1186339E+00
        -11   -1    0    0    0    0  0.00000000000E+00  0.00000000000E+00  0.45593999997E+02  0.45594000000E+02  0.51100000000E-03 0.  1.
         11   -1    0    0    0    0 -0.00000000000E+00 -0.00000000000E+00 -0.45593999997E+02  0.45594000000E+02  0.51100000000E-03 0. -1.
    9900012    2    1    2    0    0  0.10692545131E+00 -0.34177739377E+00 -0.11246898226E+01  0.90007672911E+02  0.89999933394E+02 0.  0.
        -12    1    1    2    0    0 -0.10692545131E+00  0.34177739377E+00  0.11246898226E+01  0.11803270886E+01  0.00000000000E+00 0.  1.
         11    1    3    3    0    0  0.88373569896E+01  0.86094626848E+01  0.42460136398E+01  0.13048002084E+02  0.51100000000E-03 0. -1.
        -11    1    3    3    0    0 -0.89406437999E+01 -0.21001596478E+02  0.31083939784E+02  0.38564406892E+02  0.51100000000E-03 0.  1.
         12    1    3    3    0    0  0.21021226163E+00  0.12050356399E+02 -0.36454643246E+02  0.38395263936E+02  0.00000000000E+00 0. -1.
</event>
<event>
 7    1  0.2497665E-015  0.9000770E+02  0.7816164E-02  0.1186339E+00
        -11   -1    0    0    0    0  0.00000000000E+00  0.00000000000E+00  0.45593999997E+02  0.45594000000E+02  0.51100000000E-03 0.  1.
         11   -1    0    0    0    0 -0.00000000000E+00 -0.00000000000E+00 -0.45593999997E+02  0.45594000000E+02  0.51100000000E-03 0. -1.
    9900012    2    1    2    0    0 -0.38578833585E+00  0.48165946907E+00 -0.10061214502E+01  0.90007699675E+02  0.89999960511E+02 0.  0.
        -12    1    1    2    0    0  0.38578833585E+00 -0.48165946907E+00  0.10061214502E+01  0.11803003248E+01  0.00000000000E+00 0.  1.
         11    1    3    3    0    0 -0.88039543654E+00 -0.87281285760E+01 -0.34400951751E+02  0.35501842293E+02  0.51100000000E-03 0. -1.
        -11    1    3    3    0    0  0.50644874382E+01 -0.22986008088E+00 -0.92728059911E+01  0.10568197570E+02  0.51100000000E-03 0.  1.
        -12    1    3    3    0    0 -0.45698803375E+01  0.94396481260E+01  0.42667636292E+02  0.43937659812E+02  0.00000000000E+00 0.  1.
</event>
<event>
 7    1  0.2497665E-015  0.9000779E+02  0.7816164E-02  0.1186339E+00
        -11   -1    0    0    0    0  0.00000000000E+00  0.00000000000E+00  0.45593999997E+02  0.45594000000E+02  0.51100000000E-03 0.  1.
         11   -1    0    0    0    0 -0.00000000000E+00 -0.00000000000E+00 -0.45593999997E+02  0.45594000000E+02  0.51100000000E-03 0. -1.
    9900012    2    1    2    0    0 -0.33534870415E+00  0.23544430023E+00 -0.11067933839E+01  0.90007794778E+02  0.90000056869E+02 0.  0.
        -12    1    1    2    0    0  0.33534870415E+00 -0.23544430023E+00  0.11067933839E+01  0.11802052222E+01  0.00000000000E+00 0.  1.
         11    1    3    3    0    0 -0.49795694271E+00 -0.56944390448E+01  0.62488558806E+01  0.84689312920E+01  0.51100000000E-03 0. -1.
        -11    1    3    3    0    0  0.30958554283E+02  0.83751198563E+01  0.22024725886E+02  0.38905825612E+02  0.51100000000E-03 0.  1.
         12    1    3    3    0    0 -0.30795946045E+02 -0.24452365113E+01 -0.29380375151E+02  0.42633037874E+02  0.00000000000E+00 0. -1.
</event>
<event>
 7    1  0.2497665E-015  0.9000778E+02  0.7816164E-02  0.1186339E+00
        -11   -1    0    0    0    0  0.00000000000E+00  0.00000000000E+00  0.45593999997E+02  0.45594000000E+02  0.51100000000E-03 0.  1.
         11   -1    0    0    0    0 -0.00000000000E+00 -0.00000000000E+00 -0.45593999997E+02  0.45594000000E+02  0.51100000000E-03 0. -1.
    9900012    2    1    2    0    0 -0.12499367092E+00 -0.11496794776E+01 -0.23566288721E+00  0.90007778277E+02  0.90000040150E+02 0.  0.
        -12    1    1    2    0    0  0.12499367092E+00  0.11496794776E+01  0.23566288721E+00  0.11802217230E+01  0.00000000000E+00 0.  1.
         11    1    3    3    0    0  0.76109859910E+00  0.93050003213E+01  0.62727566682E+01  0.11247656580E+02  0.51100000000E-03 0. -1.
        -11    1    3    3    0    0  0.53299040911E+01  0.12496767110E+02  0.31285620437E+02  0.34108167822E+02  0.51100000000E-03 0.  1.
         12    1    3    3    0    0 -0.62159963611E+01 -0.22951446909E+02 -0.37794039992E+02  0.44651953875E+02  0.00000000000E+00 0. -1.
</event>
<event>
 7    1  0.2497665E-015  0.9000755E+02  0.7816164E-02  0.1186339E+00
        -11   -1    0    0    0    0  0.00000000000E+00  0.00000000000E+00  0.45593999997E+02  0.45594000000E+02  0.51100000000E-03 0. -1.
         11   -1    0    0    0    0 -0.00000000000E+00 -0.00000000000E+00 -0.45593999997E+02  0.45594000000E+02  0.51100000000E-03 0.  1.
    9900012    2    1    2    0    0 -0.31512320041E+00 -0.10366371362E+01 -0.46854636187E+00  0.90007553103E+02  0.89999812004E+02 0.  0.
        -12    1    1    2    0    0  0.31512320041E+00  0.10366371362E+01  0.46854636187E+00  0.11804468971E+01  0.00000000000E+00 0.  1.
         11    1    3    3    0    0  0.16572836140E+02  0.32896770523E+02  0.16654178280E+02  0.40425463053E+02  0.51100000000E-03 0. -1.
        -11    1    3    3    0    0 -0.47746685306E+01 -0.34893117024E+01  0.68006959723E+01  0.90123371942E+01  0.51100000000E-03 0.  1.
        -12    1    3    3    0    0 -0.12113290810E+02 -0.30444095957E+02 -0.23923420614E+02  0.40569752856E+02  0.00000000000E+00 0.  1.
</event>
<event>
 7    1  0.2497665E-015  0.9000776E+02  0.7816164E-02  0.1186339E+00
        -11   -1    0    0    0    0  0.00000000000E+00  0.00000000000E+00  0.45593999997E+02  0.45594000000E+02  0.51100000000E-03 0. -1.
         11   -1    0    0    0    0 -0.00000000000E+00 -0.00000000000E+00 -0.45593999997E+02  0.45594000000E+02  0.51100000000E-03 0.  1.
    9900012    2    1    2    0    0  0.45716798613E+00  0.18912129680E+00  0.10715450588E+01  0.90007755006E+02  0.90000016572E+02 0.  0.
        -12    1    1    2    0    0 -0.45716798613E+00 -0.18912129680E+00 -0.10715450588E+01  0.11802449939E+01  0.00000000000E+00 0.  1.
         11    1    3    3    0    0  0.68328636947E+01  0.30568124440E+02 -0.24107606548E+02  0.39525623990E+02  0.51100000000E-03 0. -1.
        -11    1    3    3    0    0 -0.11634434926E+02 -0.29287141745E+01 -0.11907006004E+01  0.12056334888E+02  0.51100000000E-03 0.  1.
        -12    1    3    3    0    0  0.52587392170E+01 -0.27450288969E+02  0.26369852207E+02  0.38425796128E+02  0.00000000000E+00 0.  1.
</event>
<event>
 7    1  0.2497665E-015  0.9000781E+02  0.7816164E-02  0.1186339E+00
        -11   -1    0    0    0    0  0.00000000000E+00  0.00000000000E+00  0.45593999997E+02  0.45594000000E+02  0.51100000000E-03 0. -1.
         11   -1    0    0    0    0 -0.00000000000E+00 -0.00000000000E+00 -0.45593999997E+02  0.45594000000E+02  0.51100000000E-03 0.  1.
    9900012    2    1    2    0    0  0.31987897033E+00 -0.10583107990E+01  0.41291294552E+00  0.90007812979E+02  0.90000075311E+02 0.  0.
        -12    1    1    2    0    0 -0.31987897033E+00  0.10583107990E+01 -0.41291294552E+00  0.11801870206E+01  0.00000000000E+00 0.  1.
         11    1    3    3    0    0  0.29782837097E+02 -0.18429830503E+02 -0.24968595006E+02  0.43012867548E+02  0.51100000000E-03 0. -1.
        -11    1    3    3    0    0 -0.59961445844E+01  0.11168711055E+02  0.12010234932E+01  0.12733275863E+02  0.51100000000E-03 0.  1.
        -12    1    3    3    0    0 -0.23466813542E+02  0.62028086490E+01  0.24180484458E+02  0.34261669568E+02  0.00000000000E+00 0.  1.
</event>
<event>
 7    1  0.2497665E-015  0.9000772E+02  0.7816164E-02  0.1186339E+00
        -11   -1    0    0    0    0  0.00000000000E+00  0.00000000000E+00  0.45593999997E+02  0.45594000000E+02  0.51100000000E-03 0.  1.
         11   -1    0    0    0    0 -0.00000000000E+00 -0.00000000000E+00 -0.45593999997E+02  0.45594000000E+02  0.51100000000E-03 0. -1.
    9900012    2    1    2    0    0  0.30572112401E+00 -0.21008384534E+00 -0.11204713085E+01  0.90007721821E+02  0.89999982949E+02 0.  0.
        -12    1    1    2    0    0 -0.30572112401E+00  0.21008384534E+00  0.11204713085E+01  0.11802781795E+01  0.00000000000E+00 0.  1.
         11    1    3    3    0    0 -0.85987538151E+01  0.89947640490E+00  0.35207789325E+01  0.93350688015E+01  0.51100000000E-03 0. -1.
        -11    1    3    3    0    0  0.34962831071E+02 -0.37035850501E+00  0.23642343909E+02  0.42207785392E+02  0.51100000000E-03 0.  1.
         12    1    3    3    0    0 -0.26058356132E+02 -0.73920174524E+00 -0.28283594150E+02  0.38464867627E+02  0.00000000000E+00 0. -1.
</event>
<event>
 7    1  0.2497665E-015  0.9000702E+02  0.7816164E-02  0.1186340E+00
        -11   -1    0    0    0    0  0.00000000000E+00  0.00000000000E+00  0.45593999997E+02  0.45594000000E+02  0.51100000000E-03 0.  1.
         11   -1    0    0    0    0 -0.00000000000E+00 -0.00000000000E+00 -0.45593999997E+02  0.45594000000E+02  0.51100000000E-03 0. -1.
    9900012    2    1    2    0    0 -0.16796788566E+00  0.86927761238E+00 -0.78156994861E+00  0.90007022285E+02  0.89999274177E+02 0.  0.
        -12    1    1    2    0    0  0.16796788566E+00 -0.86927761238E+00  0.78156994861E+00  0.11809777147E+01  0.00000000000E+00 0.  1.
         11    1    3    3    0    0 -0.16217741626E+02  0.28301828237E+02  0.19673714756E+02  0.38092829739E+02  0.51100000000E-03 0. -1.
        -11    1    3    3    0    0 -0.46590922701E+01 -0.15169042536E+01  0.72109553746E+01  0.87181429772E+01  0.51100000000E-03 0.  1.
        -12    1    3    3    0    0  0.20708866011E+02 -0.25915646371E+02 -0.27666240079E+02  0.43196049569E+02  0.00000000000E+00 0.  1.
</event>
<event>
 7    1  0.2497665E-015  0.9000778E+02  0.7816164E-02  0.1186339E+00
        -11   -1    0    0    0    0  0.00000000000E+00  0.00000000000E+00  0.45593999997E+02  0.45594000000E+02  0.51100000000E-03 0. -1.
         11   -1    0    0    0    0 -0.00000000000E+00 -0.00000000000E+00 -0.45593999997E+02  0.45594000000E+02  0.51100000000E-03 0.  1.
    9900012    2    1    2    0    0  0.35982560363E+00  0.89993958582E+00  0.67346265341E+00  0.90007780669E+02  0.90000042574E+02 0.  0.
        -12    1    1    2    0    0 -0.35982560363E+00 -0.89993958582E+00 -0.67346265341E+00  0.11802193308E+01  0.00000000000E+00 0.  1.
         11    1    3    3    0    0 -0.71589072454E+00  0.46724625468E+01  0.13075945877E+02  0.13904127683E+02  0.51100000000E-03 0. -1.
        -11    1    3    3    0    0 -0.36789814089E+02  0.14226073339E+01 -0.74552523375E+01  0.37564544720E+02  0.51100000000E-03 0.  1.
         12    1    3    3    0    0  0.37865530417E+02 -0.51951302949E+01 -0.49472308861E+01  0.38539108267E+02  0.00000000000E+00 0. -1.
</event>
<event>
 7    1  0.2497665E-015  0.9000773E+02  0.7816164E-02  0.1186339E+00
        -11   -1    0    0    0    0  0.00000000000E+00  0.00000000000E+00  0.45593999997E+02  0.45594000000E+02  0.51100000000E-03 0. -1.
         11   -1    0    0    0    0 -0.00000000000E+00 -0.00000000000E+00 -0.45593999997E+02  0.45594000000E+02  0.51100000000E-03 0.  1.
    9900012    2    1    2    0    0  0.25612717942E-01 -0.63175889636E+00  0.99662060864E+00  0.90007733949E+02  0.89999995237E+02 0.  0.
        -12    1    1    2    0    0 -0.25612717942E-01  0.63175889636E+00 -0.99662060864E+00  0.11802660514E+01  0.00000000000E+00 0.  1.
         11    1    3    3    0    0  0.35852471604E+02 -0.13286785111E+02 -0.90799176200E+01  0.39298642253E+02  0.51100000000E-03 0. -1.
        -11    1    3    3    0    0  0.49856121518E+01  0.64138609303E+01 -0.33172825635E+00  0.81304356869E+01  0.51100000000E-03 0.  1.
        -12    1    3    3    0    0 -0.40812471038E+02  0.62411652842E+01  0.10408266485E+02  0.42578656009E+02  0.00000000000E+00 0.  1.
</event>
<event>
 7    1  0.2497665E-015  0.9000774E+02  0.7816164E-02  0.1186339E+00
        -11   -1    0    0    0    0  0.00000000000E+00  0.00000000000E+00  0.45593999997E+02  0.45594000000E+02  0.51100000000E-03 0.  1.
         11   -1    0    0    0    0 -0.00000000000E+00 -0.00000000000E+00 -0.45593999997E+02  0.45594000000E+02  0.51100000000E-03 0. -1.
    9900012    2    1    2    0    0  0.25373105916E+00 -0.89269824071E+00 -0.72919087061E+00  0.90007742009E+02  0.90000003404E+02 0.  0.
        -12    1    1    2    0    0 -0.25373105916E+00  0.89269824071E+00  0.72919087061E+00  0.11802579909E+01  0.00000000000E+00 0.  1.
         11    1    3    3    0    0 -0.54591181267E+01  0.22532372046E+00 -0.80646031788E+01  0.97411788913E+01  0.51100000000E-03 0. -1.
        -11    1    3    3    0    0  0.11131794212E+02  0.33224856747E+02 -0.15869545046E+02  0.38466224256E+02  0.51100000000E-03 0.  1.
         12    1    3    3    0    0 -0.54189450262E+01 -0.34342878709E+02  0.23204957354E+02  0.41800338862E+02  0.00000000000E+00 0. -1.
</event>
<event>
 7    1  0.2497665E-015  0.9000766E+02  0.7816164E-02  0.1186339E+00
        -11   -1    0    0    0    0  0.00000000000E+00  0.00000000000E+00  0.45593999997E+02  0.45594000000E+02  0.51100000000E-03 0. -1.
         11   -1    0    0    0    0 -0.00000000000E+00 -0.00000000000E+00 -0.45593999997E+02  0.45594000000E+02  0.51100000000E-03 0.  1.
    9900012    2    1    2    0    0  0.26551728523E+00  0.15337236232E+00  0.11398116755E+01  0.90007663961E+02  0.89999924325E+02 0.  0.
        -12    1    1    2    0    0 -0.26551728523E+00 -0.15337236232E+00 -0.11398116755E+01  0.11803360394E+01  0.00000000000E+00 0.  1.
         11    1    3    3    0    0  0.62999798691E+00 -0.14825947991E+02  0.24421850192E+02  0.28576780756E+02  0.51100000000E-03 0. -1.
        -11    1    3    3    0    0 -0.70610277618E+01 -0.33616099750E+01  0.15863322107E+02  0.17686252379E+02  0.51100000000E-03 0.  1.
        -12    1    3    3    0    0  0.66965470601E+01  0.18340930329E+02 -0.39145360623E+02  0.43744630826E+02  0.00000000000E+00 0.  1.
</event>
<event>
 7    1  0.2497665E-015  0.9000778E+02  0.7816164E-02  0.1186339E+00
        -11   -1    0    0    0    0  0.00000000000E+00  0.00000000000E+00  0.45593999997E+02  0.45594000000E+02  0.51100000000E-03 0.  1.
         11   -1    0    0    0    0 -0.00000000000E+00 -0.00000000000E+00 -0.45593999997E+02  0.45594000000E+02  0.51100000000E-03 0. -1.
    9900012    2    1    2    0    0  0.39051618913E+00  0.31497882399E+00 -0.10682683200E+01  0.90007783174E+02  0.90000045112E+02 0.  0.
        -12    1    1    2    0    0 -0.39051618913E+00 -0.31497882399E+00  0.10682683200E+01  0.11802168263E+01  0.00000000000E+00 0.  1.
         11    1    3    3    0    0 -0.74134452767E+01 -0.56282575919E+01  0.22615357212E+01  0.95786741499E+01  0.51100000000E-03 0. -1.
        -11    1    3    3    0    0  0.65220935975E+00 -0.36322671933E+02 -0.83313255182E+01  0.37271609283E+02  0.51100000000E-03 0.  1.
         12    1    3    3    0    0  0.71517521060E+01  0.42265908349E+02  0.50015214770E+01  0.43157499740E+02  0.00000000000E+00 0. -1.
</event>
<event>
 7    1  0.2497665E-015  0.9000764E+02  0.7816164E-02  0.1186339E+00
        -11   -1    0    0    0    0  0.00000000000E+00  0.00000000000E+00  0.45593999997E+02  0.45594000000E+02  0.51100000000E-03 0.  1.
         11   -1    0    0    0    0 -0.00000000000E+00 -0.00000000000E+00 -0.45593999997E+02  0.45594000000E+02  0.51100000000E-03 0. -1.
    9900012    2    1    2    0    0 -0.80188621053E+00 -0.76235716292E+00 -0.41115552897E+00  0.90007636155E+02  0.89999896152E+02 0.  0.
        -12    1    1    2    0    0  0.80188621053E+00  0.76235716292E+00  0.41115552897E+00  0.11803638454E+01  0.00000000000E+00 0.  1.
         11    1    3    3    0    0  0.24887569902E+02  0.26341397885E+02 -0.37008272538E+01  0.36427414138E+02  0.51100000000E-03 0. -1.
        -11    1    3    3    0    0  0.76252624411E+01  0.33437943583E+01  0.10532835489E+01  0.83925558980E+01  0.51100000000E-03 0.  1.
        -12    1    3    3    0    0 -0.33314718554E+02 -0.30447549406E+02  0.22363881759E+01  0.45187666118E+02  0.00000000000E+00 0.  1.
</event>
<event>
 7    1  0.2497665E-015  0.9000776E+02  0.7816164E-02  0.1186339E+00
        -11   -1    0    0    0    0  0.00000000000E+00  0.00000000000E+00  0.45593999997E+02  0.45594000000E+02  0.51100000000E-03 0. -1.
         11   -1    0    0    0    0 -0.00000000000E+00 -0.00000000000E+00 -0.45593999997E+02  0.45594000000E+02  0.51100000000E-03 0.  1.
    9900012    2    1    2    0    0 -0.64024539231E+00 -0.93296183207E+00  0.33561182948E+00  0.90007759667E+02  0.90000021295E+02 0.  0.
        -12    1    1    2    0    0  0.64024539231E+00  0.93296183207E+00 -0.33561182948E+00  0.11802403325E+01  0.00000000000E+00 0.  1.
         11    1    3    3    0    0  0.74321980891E+01 -0.18501014349E+02  0.10106851216E+02  0.22353378763E+02  0.51100000000E-03 0. -1.
        -11    1    3    3    0    0 -0.22448759514E+02 -0.12083157117E+02  0.11981789725E+02  0.28169358795E+02  0.51100000000E-03 0.  1.
        -12    1    3    3    0    0  0.14376316033E+02  0.29651209634E+02 -0.21753029112E+02  0.39485022109E+02  0.00000000000E+00 0.  1.
</event>
<event>
 7    1  0.2497665E-015  0.9000773E+02  0.7816164E-02  0.1186339E+00
        -11   -1    0    0    0    0  0.00000000000E+00  0.00000000000E+00  0.45593999997E+02  0.45594000000E+02  0.51100000000E-03 0.  1.
         11   -1    0    0    0    0 -0.00000000000E+00 -0.00000000000E+00 -0.45593999997E+02  0.45594000000E+02  0.51100000000E-03 0. -1.
    9900012    2    1    2    0    0 -0.11196191598E+01  0.35710381810E+00  0.10942504737E+00  0.90007727133E+02  0.89999988331E+02 0.  0.
        -12    1    1    2    0    0  0.11196191598E+01 -0.35710381810E+00 -0.10942504737E+00  0.11802728672E+01  0.00000000000E+00 0.  1.
         11    1    3    3    0    0  0.11320132005E+02  0.18789107096E+00  0.23313390330E+01  0.11559231532E+02  0.51100000000E-03 0. -1.
        -11    1    3    3    0    0  0.14349955845E+02  0.22837890307E+01  0.31877325726E+02  0.35032853449E+02  0.51100000000E-03 0.  1.
         12    1    3    3    0    0 -0.26789707010E+02 -0.21145762835E+01 -0.34099239711E+02  0.43415642152E+02  0.00000000000E+00 0. -1.
</event>
<event>
 7    1  0.2497665E-015  0.9000764E+02  0.7816164E-02  0.1186339E+00
        -11   -1    0    0    0    0  0.00000000000E+00  0.00000000000E+00  0.45593999997E+02  0.45594000000E+02  0.51100000000E-03 0.  1.
         11   -1    0    0    0    0 -0.00000000000E+00 -0.00000000000E+00 -0.45593999997E+02  0.45594000000E+02  0.51100000000E-03 0. -1.
    9900012    2    1    2    0    0  0.30816491640E+00  0.56684494155E+00 -0.98841787562E+00  0.90007640436E+02  0.89999900490E+02 0.  0.
        -12    1    1    2    0    0 -0.30816491640E+00 -0.56684494155E+00  0.98841787562E+00  0.11803595640E+01  0.00000000000E+00 0.  1.
         11    1    3    3    0    0  0.13894545784E+02 -0.10051610893E+02 -0.33899902836E+01  0.17480998784E+02  0.51100000000E-03 0. -1.
        -11    1    3    3    0    0  0.10149289631E+02 -0.15158041236E+02  0.24913541559E+02  0.30878128949E+02  0.51100000000E-03 0.  1.
         12    1    3    3    0    0 -0.23735670499E+02  0.25776497071E+02 -0.22511969151E+02  0.41648512703E+02  0.00000000000E+00 0. -1.
</event>
<event>
 7    1  0.3749143E-015  0.9000771E+02  0.7816164E-02  0.1186339E+00
        -11   -1    0    0    0    0  0.00000000000E+00  0.00000000000E+00  0.45593999997E+02  0.45594000000E+02  0.51100000000E-03 0. -1.
         11   -1    0    0    0    0 -0.00000000000E+00 -0.00000000000E+00 -0.45593999997E+02  0.45594000000E+02  0.51100000000E-03 0.  1.
    9900012    2    1    2    0    0  0.52337491413E+00 -0.71332734794E+00  0.78123918134E+00  0.90007706873E+02  0.89999967804E+02 0.  0.
        -12    1    1    2    0    0 -0.52337491413E+00  0.71332734794E+00 -0.78123918134E+00  0.11802931265E+01  0.00000000000E+00 0.  1.
         11    1    3    3    0    0  0.12349264944E+02  0.19548215481E+02  0.31527624832E+02  0.39097675135E+02  0.51100000000E-03 0. -1.
        -11    1    3    3    0    0  0.49850535005E+01 -0.58545576838E+01  0.47768227023E+01  0.90523278479E+01  0.51100000000E-03 0.  1.
        -12    1    3    3    0    0 -0.16810943531E+02 -0.14406985145E+02 -0.35523208353E+02  0.41857703891E+02  0.00000000000E+00 0.  1.
</event>
<event>
 7    1  0.2497665E-015  0.9000771E+02  0.7816164E-02  0.1186339E+00
        -11   -1    0    0    0    0  0.00000000000E+00  0.00000000000E+00  0.45593999997E+02  0.45594000000E+02  0.51100000000E-03 0.  1.
         11   -1    0    0    0    0 -0.00000000000E+00 -0.00000000000E+00 -0.45593999997E+02  0.45594000000E+02  0.51100000000E-03 0. -1.
    9900012    2    1    2    0    0 -0.82371516711E+00 -0.37504186902E+00 -0.75758297632E+00  0.90007705526E+02  0.89999966439E+02 0.  0.
        -12    1    1    2    0    0  0.82371516711E+00  0.37504186902E+00  0.75758297632E+00  0.11802944743E+01  0.00000000000E+00 0.  1.
         11    1    3    3    0    0  0.27480951721E+02  0.26426713580E+01 -0.21017908848E+02  0.34697822871E+02  0.51100000000E-03 0. -1.
        -11    1    3    3    0    0  0.10464966119E+02 -0.29303687658E+01 -0.13056791874E+01  0.10945655548E+02  0.51100000000E-03 0.  1.
        -12    1    3    3    0    0 -0.38769633007E+02 -0.87344461226E-01  0.21566005059E+02  0.44364227106E+02  0.00000000000E+00 0.  1.
</event>
<event>
 7    1  0.2497665E-015  0.9000777E+02  0.7816164E-02  0.1186339E+00
        -11   -1    0    0    0    0  0.00000000000E+00  0.00000000000E+00  0.45593999997E+02  0.45594000000E+02  0.51100000000E-03 0. -1.
         11   -1    0    0    0    0 -0.00000000000E+00 -0.00000000000E+00 -0.45593999997E+02  0.45594000000E+02  0.51100000000E-03 0.  1.
    9900012    2    1    2    0    0  0.61778665820E+00 -0.82821637491E+00 -0.57039096696E+00  0.90007767576E+02  0.90000029308E+02 0.  0.
        -12    1    1    2    0    0 -0.61778665820E+00  0.82821637491E+00  0.57039096696E+00  0.11802324237E+01  0.00000000000E+00 0.  1.
         11    1    3    3    0    0 -0.17521008691E+02 -0.21921890571E+02  0.25718620921E+02  0.38065765382E+02  0.51100000000E-03 0. -1.
        -11    1    3    3    0    0 -0.35383696899E+01 -0.75873887665E+01 -0.81094185181E+01  0.11655522181E+02  0.51100000000E-03 0.  1.
        -12    1    3    3    0    0  0.21677165039E+02  0.28681062962E+02 -0.18179593370E+02  0.40286480013E+02  0.00000000000E+00 0.  1.
</event>
<event>
 7    1  0.2497665E-015  0.9000771E+02  0.7816164E-02  0.1186339E+00
        -11   -1    0    0    0    0  0.00000000000E+00  0.00000000000E+00  0.45593999997E+02  0.45594000000E+02  0.51100000000E-03 0. -1.
         11   -1    0    0    0    0 -0.00000000000E+00 -0.00000000000E+00 -0.45593999997E+02  0.45594000000E+02  0.51100000000E-03 0.  1.
    9900012    2    1    2    0    0  0.76767968078E-01  0.49577802012E+00  0.10683631421E+01  0.90007708100E+02  0.89999969047E+02 0.  0.
        -12    1    1    2    0    0 -0.76767968078E-01 -0.49577802012E+00 -0.10683631421E+01  0.11802919002E+01  0.00000000000E+00 0.  1.
         11    1    3    3    0    0  0.35117491732E+02  0.86400726836E+01 -0.10012103694E+02  0.37525075645E+02  0.51100000000E-03 0. -1.
        -11    1    3    3    0    0  0.63495169315E+01  0.78125753641E+00  0.76933213033E+01  0.10005694456E+02  0.51100000000E-03 0.  1.
        -12    1    3    3    0    0 -0.41390240696E+02 -0.89255521999E+01  0.33871455332E+01  0.42476937999E+02  0.00000000000E+00 0.  1.
</event>
<event>
 7    1  0.2497665E-015  0.9000784E+02  0.7816164E-02  0.1186339E+00
        -11   -1    0    0    0    0  0.00000000000E+00  0.00000000000E+00  0.45593999997E+02  0.45594000000E+02  0.51100000000E-03 0.  1.
         11   -1    0    0    0    0 -0.00000000000E+00 -0.00000000000E+00 -0.45593999997E+02  0.45594000000E+02  0.51100000000E-03 0. -1.
    9900012    2    1    2    0    0  0.71399938147E+00  0.83292083192E+00 -0.43501062459E+00  0.90007836252E+02  0.90000098890E+02 0.  0.
        -12    1    1    2    0    0 -0.71399938147E+00 -0.83292083192E+00  0.43501062459E+00  0.11801637482E+01  0.00000000000E+00 0.  1.
         11    1    3    3    0    0 -0.49685426426E+01  0.21296303609E+01  0.79702627978E+01  0.96305156036E+01  0.51100000000E-03 0. -1.
        -11    1    3    3    0    0 -0.36586462973E+02  0.50041335467E+01 -0.72110709498E+01  0.37624595279E+02  0.51100000000E-03 0.  1.
         12    1    3    3    0    0  0.42269004997E+02 -0.63008430757E+01 -0.11942024725E+01  0.42752725369E+02  0.00000000000E+00 0. -1.
</event>
<event>
 7    1  0.2497665E-015  0.9000748E+02  0.7816164E-02  0.1186340E+00
        -11   -1    0    0    0    0  0.00000000000E+00  0.00000000000E+00  0.45593999997E+02  0.45594000000E+02  0.51100000000E-03 0. -1.
         11   -1    0    0    0    0 -0.00000000000E+00 -0.00000000000E+00 -0.45593999997E+02  0.45594000000E+02  0.51100000000E-03 0.  1.
    9900012    2    1    2    0    0  0.32987659030E+00  0.75268536833E+00  0.84751664330E+00  0.90007475418E+02  0.89999733293E+02 0.  0.
        -12    1    1    2    0    0 -0.32987659030E+00 -0.75268536833E+00 -0.84751664330E+00  0.11805245822E+01  0.00000000000E+00 0.  1.
         11    1    3    3    0    0  0.53330649918E+01 -0.23511564464E+02 -0.20721454460E+02  0.31790154465E+02  0.51100000000E-03 0. -1.
        -11    1    3    3    0    0 -0.19069559025E+02  0.10790474151E+01 -0.55251601646E+01  0.19883154172E+02  0.51100000000E-03 0.  1.
        -12    1    3    3    0    0  0.14066370623E+02  0.23185202417E+02  0.27094131268E+02  0.38334166781E+02  0.00000000000E+00 0.  1.
</event>
<event>
 7    1  0.2497665E-015  0.9000775E+02  0.7816164E-02  0.1186339E+00
        -11   -1    0    0    0    0  0.00000000000E+00  0.00000000000E+00  0.45593999997E+02  0.45594000000E+02  0.51100000000E-03 0.  1.
         11   -1    0    0    0    0 -0.00000000000E+00 -0.00000000000E+00 -0.45593999997E+02  0.45594000000E+02  0.51100000000E-03 0. -1.
    9900012    2    1    2    0    0  0.97141992172E-01  0.97794922263E+00 -0.65358814846E+00  0.90007746334E+02  0.90000007785E+02 0.  0.
        -12    1    1    2    0    0 -0.97141992172E-01 -0.97794922263E+00  0.65358814846E+00  0.11802536662E+01  0.00000000000E+00 0.  1.
         11    1    3    3    0    0  0.73774301927E+01 -0.52726038031E+01 -0.34730911067E+01  0.97102620567E+01  0.51100000000E-03 0. -1.
        -11    1    3    3    0    0  0.18401106436E+02  0.30532999268E+02  0.20132576038E+02  0.40941243026E+02  0.51100000000E-03 0.  1.
         12    1    3    3    0    0 -0.25681394636E+02 -0.24282446242E+02 -0.17313073079E+02  0.39356241251E+02  0.00000000000E+00 0. -1.
</event>
<event>
 7    1  0.2497665E-015  0.9000773E+02  0.7816164E-02  0.1186339E+00
        -11   -1    0    0    0    0  0.00000000000E+00  0.00000000000E+00  0.45593999997E+02  0.45594000000E+02  0.51100000000E-03 0.  1.
         11   -1    0    0    0    0 -0.00000000000E+00 -0.00000000000E+00 -0.45593999997E+02  0.45594000000E+02  0.51100000000E-03 0. -1.
    9900012    2    1    2    0    0  0.11786137916E+01 -0.21211293815E-02 -0.62504601614E-01  0.90007728085E+02  0.89999989295E+02 0.  0.
        -12    1    1    2    0    0 -0.11786137916E+01  0.21211293815E-02  0.62504601614E-01  0.11802719154E+01  0.00000000000E+00 0.  1.
         11    1    3    3    0    0 -0.87370081006E+01  0.31304748307E+01  0.35745598542E+00  0.92877854335E+01  0.51100000000E-03 0. -1.
        -11    1    3    3    0    0 -0.29908414155E+02 -0.99164650301E+01  0.18035693834E+02  0.36306139540E+02  0.51100000000E-03 0.  1.
         12    1    3    3    0    0  0.39824036047E+02  0.67838690700E+01 -0.18455654421E+02  0.44413803111E+02  0.00000000000E+00 0. -1.
</event>
<event>
 7    1  0.2497665E-015  0.9000774E+02  0.7816164E-02  0.1186339E+00
        -11   -1    0    0    0    0  0.00000000000E+00  0.00000000000E+00  0.45593999997E+02  0.45594000000E+02  0.51100000000E-03 0. -1.
         11   -1    0    0    0    0 -0.00000000000E+00 -0.00000000000E+00 -0.45593999997E+02  0.45594000000E+02  0.51100000000E-03 0.  1.
    9900012    2    1    2    0    0  0.58233017365E+00  0.54963661865E+00  0.86706484544E+00  0.90007741431E+02  0.90000002818E+02 0.  0.
        -12    1    1    2    0    0 -0.58233017365E+00 -0.54963661865E+00 -0.86706484544E+00  0.11802585691E+01  0.00000000000E+00 0.  1.
         11    1    3    3    0    0 -0.81570560403E+01  0.25904265021E+02  0.23651735239E+02  0.36013512597E+02  0.51100000000E-03 0. -1.
        -11    1    3    3    0    0 -0.20875557213E+01  0.10600138260E+01  0.10145806557E+02  0.10412440115E+02  0.51100000000E-03 0.  1.
        -12    1    3    3    0    0  0.10826941935E+02 -0.26414642229E+02 -0.32930476950E+02  0.43581788718E+02  0.00000000000E+00 0.  1.
</event>
<event>
 7    1  0.2497665E-015  0.9000774E+02  0.7816164E-02  0.1186339E+00
        -11   -1    0    0    0    0  0.00000000000E+00  0.00000000000E+00  0.45593999997E+02  0.45594000000E+02  0.51100000000E-03 0. -1.
         11   -1    0    0    0    0 -0.00000000000E+00 -0.00000000000E+00 -0.45593999997E+02  0.45594000000E+02  0.51100000000E-03 0.  1.
    9900012    2    1    2    0    0  0.47071031679E+00 -0.94595983698E+00  0.52592673789E+00  0.90007742761E+02  0.90000004166E+02 0.  0.
        -12    1    1    2    0    0 -0.47071031679E+00  0.94595983698E+00 -0.52592673789E+00  0.11802572385E+01  0.00000000000E+00 0.  1.
         11    1    3    3    0    0 -0.23188777009E+01 -0.28712202695E+01 -0.17234154365E+01  0.40732371224E+01  0.51100000000E-03 0. -1.
        -11    1    3    3    0    0  0.75837875981E+01 -0.38464890759E+02 -0.14699910077E+02  0.41870622302E+02  0.51100000000E-03 0.  1.
         12    1    3    3    0    0 -0.47941995804E+01  0.40390151191E+02  0.16949252251E+02  0.44063883337E+02  0.00000000000E+00 0. -1.
</event>
<event>
 7    1  0.2497665E-015  0.9000753E+02  0.7816164E-02  0.1186339E+00
        -11   -1    0    0    0    0  0.00000000000E+00  0.00000000000E+00  0.45593999997E+02  0.45594000000E+02  0.51100000000E-03 0.  1.
         11   -1    0    0    0    0 -0.00000000000E+00 -0.00000000000E+00 -0.45593999997E+02  0.45594000000E+02  0.51100000000E-03 0. -1.
    9900012    2    1    2    0    0  0.31421731798E+00 -0.91858309631E+00 -0.67154691088E+00  0.90007532855E+02  0.89999791488E+02 0.  0.
        -12    1    1    2    0    0 -0.31421731798E+00  0.91858309631E+00  0.67154691088E+00  0.11804671453E+01  0.00000000000E+00 0.  1.
         11    1    3    3    0    0  0.58314366056E+01  0.24439843185E+01  0.56136067807E+01  0.84552524258E+01  0.51100000000E-03 0. -1.
        -11    1    3    3    0    0  0.18519648743E+02  0.27424947995E+02 -0.21687367642E+02  0.39565731102E+02  0.51100000000E-03 0.  1.
         12    1    3    3    0    0 -0.24036868031E+02 -0.30787515410E+02  0.15402213951E+02  0.41986549327E+02  0.00000000000E+00 0. -1.
</event>
<event>
 7    1  0.2497665E-015  0.9000770E+02  0.7816164E-02  0.1186339E+00
        -11   -1    0    0    0    0  0.00000000000E+00  0.00000000000E+00  0.45593999997E+02  0.45594000000E+02  0.51100000000E-03 0. -1.
         11   -1    0    0    0    0 -0.00000000000E+00 -0.00000000000E+00 -0.45593999997E+02  0.45594000000E+02  0.51100000000E-03 0.  1.
    9900012    2    1    2    0    0  0.12089818470E+00 -0.11409494177E+01  0.27698182864E+00  0.90007703055E+02  0.89999963935E+02 0.  0.
        -12    1    1    2    0    0 -0.12089818470E+00  0.11409494177E+01 -0.27698182864E+00  0.11802969449E+01  0.00000000000E+00 0.  1.
         11    1    3    3    0    0 -0.24201347949E+01 -0.10391394361E+02  0.18551929292E+01  0.10829583106E+02  0.51100000000E-03 0. -1.
        -11    1    3    3    0    0 -0.29078543945E+02 -0.19316968400E+02 -0.86902937032E+01  0.35975383126E+02  0.51100000000E-03 0.  1.
         12    1    3    3    0    0  0.31619576925E+02  0.28567413344E+02  0.71120826026E+01  0.43202736823E+02  0.00000000000E+00 0. -1.
</event>
<event>
 7    1  0.2497665E-015  0.9000785E+02  0.7816164E-02  0.1186339E+00
        -11   -1    0    0    0    0  0.00000000000E+00  0.00000000000E+00  0.45593999997E+02  0.45594000000E+02  0.51100000000E-03 0. -1.
         11   -1    0    0    0    0 -0.00000000000E+00 -0.00000000000E+00 -0.45593999997E+02  0.45594000000E+02  0.51100000000E-03 0.  1.
    9900012    2    1    2    0    0 -0.92633638739E+00 -0.48086470581E+00  0.55083003641E+00  0.90007854375E+02  0.90000117252E+02 0.  0.
        -12    1    1    2    0    0  0.92633638739E+00  0.48086470581E+00 -0.55083003641E+00  0.11801456253E+01  0.00000000000E+00 0.  1.
         11    1    3    3    0    0  0.15516519148E+02 -0.57678464745E+01 -0.24535133519E+01  0.16734698905E+02  0.51100000000E-03 0. -1.
        -11    1    3    3    0    0 -0.69984879700E+01 -0.11697671899E+02 -0.31135946983E+02  0.33989138802E+02  0.51100000000E-03 0.  1.
         12    1    3    3    0    0 -0.94443675651E+01  0.16984653667E+02  0.34140290371E+02  0.39284016668E+02  0.00000000000E+00 0. -1.
</event>
<event>
 7    1  0.2497665E-015  0.9000789E+02  0.7816164E-02  0.1186339E+00
        -11   -1    0    0    0    0  0.00000000000E+00  0.00000000000E+00  0.45593999997E+02  0.45594000000E+02  0.51100000000E-03 0. -1.
         11   -1    0    0    0    0 -0.00000000000E+00 -0.00000000000E+00 -0.45593999997E+02  0.45594000000E+02  0.51100000000E-03 0.  1.
    9900012    2    1    2    0    0  0.79595716592E+00  0.37830308470E-01  0.87044562974E+00  0.90007892150E+02  0.90000155527E+02 0.  0.
        -12    1    1    2    0    0 -0.79595716592E+00 -0.37830308470E-01 -0.87044562974E+00  0.11801078495E+01  0.00000000000E+00 0.  1.
         11    1    3    3    0    0 -0.24588283587E+02  0.19345554403E+02 -0.95575720488E+01  0.32713626345E+02  0.51100000000E-03 0. -1.
        -11    1    3    3    0    0 -0.12747949087E+02 -0.12007090217E+02  0.31685425622E+01  0.17796631244E+02  0.51100000000E-03 0.  1.
        -12    1    3    3    0    0  0.38132189840E+02 -0.73006338780E+01  0.72594751163E+01  0.39497634562E+02  0.00000000000E+00 0.  1.
</event>
<event>
 7    1  0.2497665E-015  0.9000794E+02  0.7816164E-02  0.1186339E+00
        -11   -1    0    0    0    0  0.00000000000E+00  0.00000000000E+00  0.45593999997E+02  0.45594000000E+02  0.51100000000E-03 0. -1.
         11   -1    0    0    0    0 -0.00000000000E+00 -0.00000000000E+00 -0.45593999997E+02  0.45594000000E+02  0.51100000000E-03 0.  1.
    9900012    2    1    2    0    0  0.10677732074E+01 -0.15711509796E+00  0.47719572320E+00  0.90007940453E+02  0.90000204467E+02 0.  0.
        -12    1    1    2    0    0 -0.10677732074E+01  0.15711509796E+00 -0.47719572320E+00  0.11800595471E+01  0.00000000000E+00 0.  1.
         11    1    3    3    0    0 -0.65617821255E+01 -0.11077285721E+02  0.30989321946E+01  0.13242606413E+02  0.51100000000E-03 0. -1.
        -11    1    3    3    0    0  0.56201522534E+01  0.18570742967E+02 -0.36844116314E+02  0.41640695394E+02  0.51100000000E-03 0.  1.
         12    1    3    3    0    0  0.20094030795E+01 -0.76505723437E+01  0.34222379842E+02  0.35124638646E+02  0.00000000000E+00 0. -1.
</event>
<event>
 7    1  0.2497665E-015  0.9000783E+02  0.7816164E-02  0.1186339E+00
        -11   -1    0    0    0    0  0.00000000000E+00  0.00000000000E+00  0.45593999997E+02  0.45594000000E+02  0.51100000000E-03 0.  1.
         11   -1    0    0    0    0 -0.00000000000E+00 -0.00000000000E+00 -0.45593999997E+02  0.45594000000E+02  0.51100000000E-03 0. -1.
    9900012    2    1    2    0    0  0.20257207064E+00  0.13748625797E+00 -0.11545019851E+01  0.90007825119E+02  0.90000087611E+02 0.  0.
        -12    1    1    2    0    0 -0.20257207064E+00 -0.13748625797E+00  0.11545019851E+01  0.11801748805E+01  0.00000000000E+00 0.  1.
         11    1    3    3    0    0  0.62396538405E+01 -0.17023311517E+00  0.87512110331E+01  0.10749230399E+02  0.51100000000E-03 0. -1.
        -11    1    3    3    0    0 -0.26146137557E+01  0.86569464964E+01  0.33616088095E+02  0.34811209499E+02  0.51100000000E-03 0.  1.
         12    1    3    3    0    0 -0.34224680141E+01 -0.83492271232E+01 -0.43521801113E+02  0.44447385221E+02  0.00000000000E+00 0. -1.
</event>
<event>
 7    1  0.2497665E-015  0.9000780E+02  0.7816164E-02  0.1186339E+00
        -11   -1    0    0    0    0  0.00000000000E+00  0.00000000000E+00  0.45593999997E+02  0.45594000000E+02  0.51100000000E-03 0. -1.
         11   -1    0    0    0    0 -0.00000000000E+00 -0.00000000000E+00 -0.45593999997E+02  0.45594000000E+02  0.51100000000E-03 0.  1.
    9900012    2    1    2    0    0 -0.40538961573E+00 -0.81559059332E+00 -0.75056327495E+00  0.90007799175E+02  0.90000061325E+02 0.  0.
        -12    1    1    2    0    0  0.40538961573E+00  0.81559059332E+00  0.75056327495E+00  0.11802008245E+01  0.00000000000E+00 0.  1.
         11    1    3    3    0    0  0.41793614889E+01 -0.48601163065E+01 -0.24845110652E+01  0.68746336966E+01  0.51100000000E-03 0. -1.
        -11    1    3    3    0    0  0.34852354405E+02 -0.16092881558E+02 -0.34826202005E+01  0.38546025582E+02  0.51100000000E-03 0.  1.
         12    1    3    3    0    0 -0.39437105510E+02  0.20137407271E+02  0.52165679908E+01  0.44587139897E+02  0.00000000000E+00 0. -1.
</event>
<event>
 7    1  0.2497665E-015  0.9000777E+02  0.7816164E-02  0.1186339E+00
        -11   -1    0    0    0    0  0.00000000000E+00  0.00000000000E+00  0.45593999997E+02  0.45594000000E+02  0.51100000000E-03 0.  1.
         11   -1    0    0    0    0 -0.00000000000E+00 -0.00000000000E+00 -0.45593999997E+02  0.45594000000E+02  0.51100000000E-03 0. -1.
    9900012    2    1    2    0    0  0.90522082833E+00  0.68558641223E+00  0.32169664757E+00  0.90007770272E+02  0.90000032040E+02 0.  0.
        -12    1    1    2    0    0 -0.90522082833E+00 -0.68558641223E+00 -0.32169664757E+00  0.11802297275E+01  0.00000000000E+00 0.  1.
         11    1    3    3    0    0  0.13688801830E+02  0.25007850243E+02 -0.22939324519E+02  0.36592191502E+02  0.51100000000E-03 0. -1.
        -11    1    3    3    0    0  0.41651182439E+01  0.94134709280E+01  0.41323386312E+01  0.11092243584E+02  0.51100000000E-03 0.  1.
        -12    1    3    3    0    0 -0.16948699245E+02 -0.33735734759E+02  0.19128682535E+02  0.42323335187E+02  0.00000000000E+00 0.  1.
</event>
<event>
 7    1  0.2497665E-015  0.9000767E+02  0.7816164E-02  0.1186339E+00
        -11   -1    0    0    0    0  0.00000000000E+00  0.00000000000E+00  0.45593999997E+02  0.45594000000E+02  0.51100000000E-03 0.  1.
         11   -1    0    0    0    0 -0.00000000000E+00 -0.00000000000E+00 -0.45593999997E+02  0.45594000000E+02  0.51100000000E-03 0. -1.
    9900012    2    1    2    0    0  0.11453012431E+00 -0.84210010060E+00  0.81910039620E+00  0.90007671576E+02  0.89999932041E+02 0.  0.
        -12    1    1    2    0    0 -0.11453012431E+00  0.84210010060E+00 -0.81910039620E+00  0.11803284237E+01  0.00000000000E+00 0.  1.
         11    1    3    3    0    0 -0.36921573043E+02 -0.55584067364E+01 -0.44150104999E+01  0.37597749392E+02  0.51100000000E-03 0. -1.
        -11    1    3    3    0    0 -0.69514165776E+01  0.10122418003E+01  0.43408001122E+01  0.82576856185E+01  0.51100000000E-03 0.  1.
        -12    1    3    3    0    0  0.43987519745E+02  0.37040648355E+01  0.89331078383E+00  0.44152236566E+02  0.00000000000E+00 0.  1.
</event>
<event>
 7    1  0.2497665E-015  0.9000867E+02  0.7816164E-02  0.1186337E+00
        -11   -1    0    0    0    0  0.00000000000E+00  0.00000000000E+00  0.45593999997E+02  0.45594000000E+02  0.51100000000E-03 0.  1.
         11   -1    0    0    0    0 -0.00000000000E+00 -0.00000000000E+00 -0.45593999997E+02  0.45594000000E+02  0.51100000000E-03 0. -1.
    9900012    2    1    2    0    0 -0.59165445452E+00 -0.36931098532E+00 -0.95098571894E+00  0.90008669921E+02  0.90000943559E+02 0.  0.
        -12    1    1    2    0    0  0.59165445452E+00  0.36931098532E+00  0.95098571894E+00  0.11793300789E+01  0.00000000000E+00 0.  1.
         11    1    3    3    0    0  0.47302589500E+01 -0.76805372546E+01 -0.10422840014E+01  0.90803281027E+01  0.51100000000E-03 0. -1.
        -11    1    3    3    0    0 -0.19534992381E+02  0.33585928183E+02 -0.21184225059E+02  0.44253834758E+02  0.51100000000E-03 0.  1.
         12    1    3    3    0    0  0.14213078977E+02 -0.26274701914E+02  0.21275523341E+02  0.36674507060E+02  0.00000000000E+00 0. -1.
</event>
<event>
 7    1  0.2497665E-015  0.9000772E+02  0.7816164E-02  0.1186339E+00
        -11   -1    0    0    0    0  0.00000000000E+00  0.00000000000E+00  0.45593999997E+02  0.45594000000E+02  0.51100000000E-03 0. -1.
         11   -1    0    0    0    0 -0.00000000000E+00 -0.00000000000E+00 -0.45593999997E+02  0.45594000000E+02  0.51100000000E-03 0.  1.
    9900012    2    1    2    0    0  0.48103085096E+00  0.60913626260E+00  0.88917547202E+00  0.90007715845E+02  0.89999976894E+02 0.  0.
        -12    1    1    2    0    0 -0.48103085096E+00 -0.60913626260E+00 -0.88917547202E+00  0.11802841548E+01  0.00000000000E+00 0.  1.
         11    1    3    3    0    0  0.25737133416E+02  0.25050110102E+02  0.29803642895E-01  0.35915302325E+02  0.51100000000E-03 0. -1.
        -11    1    3    3    0    0  0.39189529771E+01  0.51004591757E+01  0.97030305388E+01  0.11641377845E+02  0.51100000000E-03 0.  1.
        -12    1    3    3    0    0 -0.29175055542E+02 -0.29541433015E+02 -0.88436587097E+01  0.42451035675E+02  0.00000000000E+00 0.  1.
</event>
<event>
 7    1  0.2497665E-015  0.9000767E+02  0.7816164E-02  0.1186339E+00
        -11   -1    0    0    0    0  0.00000000000E+00  0.00000000000E+00  0.45593999997E+02  0.45594000000E+02  0.51100000000E-03 0.  1.
         11   -1    0    0    0    0 -0.00000000000E+00 -0.00000000000E+00 -0.45593999997E+02  0.45594000000E+02  0.51100000000E-03 0. -1.
    9900012    2    1    2    0    0 -0.93674046226E+00  0.66089678056E+00 -0.28091318371E+00  0.90007669764E+02  0.89999930205E+02 0.  0.
        -12    1    1    2    0    0  0.93674046226E+00 -0.66089678056E+00  0.28091318371E+00  0.11803302356E+01  0.00000000000E+00 0.  1.
         11    1    3    3    0    0 -0.27262124068E+02 -0.21837082264E+02 -0.22824884997E+02  0.41725974475E+02  0.51100000000E-03 0. -1.
        -11    1    3    3    0    0  0.94414509014E+01 -0.20104331598E+01 -0.18156060937E+01  0.98223857775E+01  0.51100000000E-03 0.  1.
        -12    1    3    3    0    0  0.16883932704E+02  0.24508412204E+02  0.24359577907E+02  0.38459309512E+02  0.00000000000E+00 0.  1.
</event>
<event>
 7    1  0.2497665E-015  0.9000773E+02  0.7816164E-02  0.1186339E+00
        -11   -1    0    0    0    0  0.00000000000E+00  0.00000000000E+00  0.45593999997E+02  0.45594000000E+02  0.51100000000E-03 0.  1.
         11   -1    0    0    0    0 -0.00000000000E+00 -0.00000000000E+00 -0.45593999997E+02  0.45594000000E+02  0.51100000000E-03 0. -1.
    9900012    2    1    2    0    0  0.93573622658E+00  0.60466227783E+00 -0.38964519536E+00  0.90007727941E+02  0.89999989149E+02 0.  0.
        -12    1    1    2    0    0 -0.93573622658E+00 -0.60466227783E+00  0.38964519536E+00  0.11802720594E+01  0.00000000000E+00 0.  1.
         11    1    3    3    0    0 -0.37159963906E+02 -0.26040939587E+01 -0.69899090838E+01  0.37901227581E+02  0.51100000000E-03 0. -1.
        -11    1    3    3    0    0 -0.60503340806E+01 -0.15943402885E+01  0.43931234869E+01  0.76451290162E+01  0.51100000000E-03 0.  1.
        -12    1    3    3    0    0  0.44146034213E+02  0.48030965251E+01  0.22071404015E+01  0.44461371344E+02  0.00000000000E+00 0.  1.
</event>
<event>
 7    1  0.2497665E-015  0.9000773E+02  0.7816164E-02  0.1186339E+00
        -11   -1    0    0    0    0  0.00000000000E+00  0.00000000000E+00  0.45593999997E+02  0.45594000000E+02  0.51100000000E-03 0. -1.
         11   -1    0    0    0    0 -0.00000000000E+00 -0.00000000000E+00 -0.45593999997E+02  0.45594000000E+02  0.51100000000E-03 0.  1.
    9900012    2    1    2    0    0  0.84001294487E+00 -0.14301174874E+00 -0.81667756449E+00  0.90007730390E+02  0.89999991631E+02 0.  0.
        -12    1    1    2    0    0 -0.84001294487E+00  0.14301174874E+00  0.81667756449E+00  0.11802696099E+01  0.00000000000E+00 0.  1.
         11    1    3    3    0    0  0.89308496233E+01 -0.15454378745E+01 -0.10610478550E+02  0.13954594531E+02  0.51100000000E-03 0. -1.
        -11    1    3    3    0    0  0.87183435770E+01  0.18297927241E+02 -0.26051661838E+02  0.33007767887E+02  0.51100000000E-03 0.  1.
         12    1    3    3    0    0 -0.16809180255E+02 -0.16895501116E+02  0.35845462824E+02  0.43045367972E+02  0.00000000000E+00 0. -1.
</event>
<event>
 7    1  0.2497665E-015  0.9000775E+02  0.7816164E-02  0.1186339E+00
        -11   -1    0    0    0    0  0.00000000000E+00  0.00000000000E+00  0.45593999997E+02  0.45594000000E+02  0.51100000000E-03 0.  1.
         11   -1    0    0    0    0 -0.00000000000E+00 -0.00000000000E+00 -0.45593999997E+02  0.45594000000E+02  0.51100000000E-03 0. -1.
    9900012    2    1    2    0    0  0.98847458241E+00  0.53979861172E+00 -0.35287406618E+00  0.90007752294E+02  0.90000013824E+02 0.  0.
        -12    1    1    2    0    0 -0.98847458241E+00 -0.53979861172E+00  0.35287406618E+00  0.11802477061E+01  0.00000000000E+00 0.  1.
         11    1    3    3    0    0 -0.29792037017E+01  0.55207124519E+01 -0.80211167522E+01  0.10182938421E+02  0.51100000000E-03 0. -1.
        -11    1    3    3    0    0 -0.47913180223E+01  0.36526813967E+02  0.63465875040E+01  0.37382402815E+02  0.51100000000E-03 0.  1.
         12    1    3    3    0    0  0.87589963064E+01 -0.41507727807E+02  0.13216551821E+01  0.42442411058E+02  0.00000000000E+00 0. -1.
</event>
<event>
 7    1  0.2497665E-015  0.9000779E+02  0.7816164E-02  0.1186339E+00
        -11   -1    0    0    0    0  0.00000000000E+00  0.00000000000E+00  0.45593999997E+02  0.45594000000E+02  0.51100000000E-03 0. -1.
         11   -1    0    0    0    0 -0.00000000000E+00 -0.00000000000E+00 -0.45593999997E+02  0.45594000000E+02  0.51100000000E-03 0.  1.
    9900012    2    1    2    0    0 -0.66194622422E+00 -0.67847788399E+00  0.70313333952E+00  0.90007787504E+02  0.90000049499E+02 0.  0.
        -12    1    1    2    0    0  0.66194622422E+00  0.67847788399E+00 -0.70313333952E+00  0.11802124961E+01  0.00000000000E+00 0.  1.
         11    1    3    3    0    0  0.34542989885E+01 -0.19157738750E+02  0.38143518712E+02  0.42823815284E+02  0.51100000000E-03 0. -1.
        -11    1    3    3    0    0  0.45005573414E+01  0.93115912904E+01 -0.33901650185E+01  0.10883655997E+02  0.51100000000E-03 0.  1.
        -12    1    3    3    0    0 -0.86168025541E+01  0.91676695758E+01 -0.34050220354E+02  0.36300316223E+02  0.00000000000E+00 0.  1.
</event>
<event>
 7    1  0.3531163E-015  0.9000774E+02  0.7816164E-02  0.1186339E+00
        -11   -1    0    0    0    0  0.00000000000E+00  0.00000000000E+00  0.45593999997E+02  0.45594000000E+02  0.51100000000E-03 0. -1.
         11   -1    0    0    0    0 -0.00000000000E+00 -0.00000000000E+00 -0.45593999997E+02  0.45594000000E+02  0.51100000000E-03 0.  1.
    9900012    2    1    2    0    0 -0.90366667967E-02 -0.87542662748E+00  0.79156038018E+00  0.90007736776E+02  0.89999998102E+02 0.  0.
        -12    1    1    2    0    0  0.90366667967E-02  0.87542662748E+00 -0.79156038018E+00  0.11802632236E+01  0.00000000000E+00 0.  1.
         11    1    3    3    0    0  0.23726309895E+01 -0.35860734075E+02  0.57543957821E+01  0.36396905051E+02  0.51100000000E-03 0. -1.
        -11    1    3    3    0    0 -0.45216846685E+01 -0.86140868249E+01 -0.92220741634E+00  0.97723380441E+01  0.51100000000E-03 0.  1.
        -12    1    3    3    0    0  0.21400170122E+01  0.43599394272E+02 -0.40406279856E+01  0.43838493681E+02  0.00000000000E+00 0.  1.
</event>
<event>
 7    1  0.2497665E-015  0.9000770E+02  0.7816164E-02  0.1186339E+00
        -11   -1    0    0    0    0  0.00000000000E+00  0.00000000000E+00  0.45593999997E+02  0.45594000000E+02  0.51100000000E-03 0.  1.
         11   -1    0    0    0    0 -0.00000000000E+00 -0.00000000000E+00 -0.45593999997E+02  0.45594000000E+02  0.51100000000E-03 0. -1.
    9900012    2    1    2    0    0 -0.35227682763E+00 -0.10867285023E+01  0.29671033397E+00  0.90007697148E+02  0.89999957950E+02 0.  0.
        -12    1    1    2    0    0  0.35227682763E+00  0.10867285023E+01 -0.29671033397E+00  0.11803028524E+01  0.00000000000E+00 0.  1.
         11    1    3    3    0    0 -0.38225576983E+02  0.31258012983E+01 -0.15070012955E+02  0.41207652932E+02  0.51100000000E-03 0. -1.
        -11    1    3    3    0    0  0.66359517650E+00 -0.78216073075E+01  0.69402172346E+01  0.10477810599E+02  0.51100000000E-03 0.  1.
        -12    1    3    3    0    0  0.37209704979E+02  0.36090775069E+01  0.84265060546E+01  0.38322233616E+02  0.00000000000E+00 0.  1.
</event>
<event>
 7    1  0.2497665E-015  0.9000776E+02  0.7816164E-02  0.1186339E+00
        -11   -1    0    0    0    0  0.00000000000E+00  0.00000000000E+00  0.45593999997E+02  0.45594000000E+02  0.51100000000E-03 0.  1.
         11   -1    0    0    0    0 -0.00000000000E+00 -0.00000000000E+00 -0.45593999997E+02  0.45594000000E+02  0.51100000000E-03 0. -1.
    9900012    2    1    2    0    0 -0.51984124051E+00 -0.90132714072E+00 -0.55708130157E+00  0.90007760572E+02  0.90000022212E+02 0.  0.
        -12    1    1    2    0    0  0.51984124051E+00  0.90132714072E+00  0.55708130157E+00  0.11802394276E+01  0.00000000000E+00 0.  1.
         11    1    3    3    0    0 -0.18224849792E+02  0.64427772832E+01  0.97992090824E+01  0.21672079456E+02  0.51100000000E-03 0. -1.
        -11    1    3    3    0    0  0.16190804280E+02  0.22404923193E+01  0.25997682447E+02  0.30708979826E+02  0.51100000000E-03 0.  1.
         12    1    3    3    0    0  0.15142042714E+01 -0.95845967432E+01 -0.36353972831E+02  0.37626701290E+02  0.00000000000E+00 0. -1.
</event>
<event>
 7    1  0.2497665E-015  0.9000780E+02  0.7816164E-02  0.1186339E+00
        -11   -1    0    0    0    0  0.00000000000E+00  0.00000000000E+00  0.45593999997E+02  0.45594000000E+02  0.51100000000E-03 0.  1.
         11   -1    0    0    0    0 -0.00000000000E+00 -0.00000000000E+00 -0.45593999997E+02  0.45594000000E+02  0.51100000000E-03 0. -1.
    9900012    2    1    2    0    0 -0.16360059283E+00 -0.49382146762E+00 -0.10593622666E+01  0.90007799505E+02  0.90000061659E+02 0.  0.
        -12    1    1    2    0    0  0.16360059283E+00  0.49382146762E+00  0.10593622666E+01  0.11802004947E+01  0.00000000000E+00 0.  1.
         11    1    3    3    0    0 -0.48990880085E+01  0.11815204109E+02 -0.32113983218E+02  0.34567441760E+02  0.51100000000E-03 0. -1.
        -11    1    3    3    0    0 -0.34642521427E+01 -0.13444207498E+02 -0.76560974637E+01  0.15854450063E+02  0.51100000000E-03 0.  1.
        -12    1    3    3    0    0  0.81997395584E+01  0.11351819218E+01  0.38710718415E+02  0.39585907682E+02  0.00000000000E+00 0.  1.
</event>
<event>
 7    1  0.2497665E-015  0.9000778E+02  0.7816164E-02  0.1186339E+00
        -11   -1    0    0    0    0  0.00000000000E+00  0.00000000000E+00  0.45593999997E+02  0.45594000000E+02  0.51100000000E-03 0. -1.
         11   -1    0    0    0    0 -0.00000000000E+00 -0.00000000000E+00 -0.45593999997E+02  0.45594000000E+02  0.51100000000E-03 0.  1.
    9900012    2    1    2    0    0 -0.10085806082E+01 -0.35283024973E+00  0.50120178115E+00  0.90007776608E+02  0.90000038460E+02 0.  0.
        -12    1    1    2    0    0  0.10085806082E+01  0.35283024973E+00 -0.50120178115E+00  0.11802233915E+01  0.00000000000E+00 0.  1.
         11    1    3    3    0    0 -0.34334543714E+01  0.39372744337E+00 -0.12092261723E+02  0.12576423341E+02  0.51100000000E-03 0. -1.
        -11    1    3    3    0    0  0.23943276751E+02  0.26452474418E+02  0.21457662076E+02  0.41634663040E+02  0.51100000000E-03 0.  1.
         12    1    3    3    0    0 -0.21518402988E+02 -0.27199032111E+02 -0.88641985720E+01  0.35796690228E+02  0.00000000000E+00 0. -1.
</event>
<event>
 7    1  0.2497665E-015  0.9000772E+02  0.7816164E-02  0.1186339E+00
        -11   -1    0    0    0    0  0.00000000000E+00  0.00000000000E+00  0.45593999997E+02  0.45594000000E+02  0.51100000000E-03 0.  1.
         11   -1    0    0    0    0 -0.00000000000E+00 -0.00000000000E+00 -0.45593999997E+02  0.45594000000E+02  0.51100000000E-03 0. -1.
    9900012    2    1    2    0    0 -0.35812927518E+00  0.13519931624E+00 -0.11164758856E+01  0.90007722983E+02  0.89999984127E+02 0.  0.
        -12    1    1    2    0    0  0.35812927518E+00 -0.13519931624E+00  0.11164758856E+01  0.11802770166E+01  0.00000000000E+00 0.  1.
         11    1    3    3    0    0 -0.25789504463E+01  0.11512725855E+02 -0.72166449753E+01  0.13830177402E+02  0.51100000000E-03 0. -1.
        -11    1    3    3    0    0 -0.16745588672E+02  0.15706542184E+02 -0.22731225498E+02  0.32308185035E+02  0.51100000000E-03 0.  1.
         12    1    3    3    0    0  0.18966409843E+02 -0.27084068722E+02  0.28831394588E+02  0.43869360547E+02  0.00000000000E+00 0. -1.
</event>
<event>
 7    1  0.2497665E-015  0.9000754E+02  0.7816164E-02  0.1186339E+00
        -11   -1    0    0    0    0  0.00000000000E+00  0.00000000000E+00  0.45593999997E+02  0.45594000000E+02  0.51100000000E-03 0.  1.
         11   -1    0    0    0    0 -0.00000000000E+00 -0.00000000000E+00 -0.45593999997E+02  0.45594000000E+02  0.51100000000E-03 0. -1.
    9900012    2    1    2    0    0  0.65025513384E+00  0.54721483591E+00 -0.81926989141E+00  0.90007542898E+02  0.89999801664E+02 0.  0.
        -12    1    1    2    0    0 -0.65025513384E+00 -0.54721483591E+00  0.81926989141E+00  0.11804571024E+01  0.00000000000E+00 0.  1.
         11    1    3    3    0    0  0.18507348184E+02 -0.28566565025E+01 -0.24930107215E+02  0.31180004317E+02  0.51100000000E-03 0. -1.
        -11    1    3    3    0    0  0.16682622210E+01 -0.39067090040E+01 -0.14411798713E+02  0.15024826671E+02  0.51100000000E-03 0.  1.
        -12    1    3    3    0    0 -0.19525355272E+02  0.73105803425E+01  0.38522636037E+02  0.43802711910E+02  0.00000000000E+00 0.  1.
</event>
<event>
 7    1  0.2497665E-015  0.9000780E+02  0.7816164E-02  0.1186339E+00
        -11   -1    0    0    0    0  0.00000000000E+00  0.00000000000E+00  0.45593999997E+02  0.45594000000E+02  0.51100000000E-03 0.  1.
         11   -1    0    0    0    0 -0.00000000000E+00 -0.00000000000E+00 -0.45593999997E+02  0.45594000000E+02  0.51100000000E-03 0. -1.
    9900012    2    1    2    0    0  0.27434804874E+00 -0.49819575449E+00 -0.10341179247E+01  0.90007802667E+02  0.90000064863E+02 0.  0.
        -12    1    1    2    0    0 -0.27434804874E+00  0.49819575449E+00  0.10341179247E+01  0.11801973325E+01  0.00000000000E+00 0.  1.
         11    1    3    3    0    0 -0.59602050448E+01 -0.61519547143E+01  0.63293845354E+01  0.10650431909E+02  0.51100000000E-03 0. -1.
        -11    1    3    3    0    0  0.37062641687E+02 -0.77013327452E+01  0.13055493474E+02  0.40042425563E+02  0.51100000000E-03 0.  1.
         12    1    3    3    0    0 -0.30828088593E+02  0.13355091705E+02 -0.20418995934E+02  0.39314945196E+02  0.00000000000E+00 0. -1.
</event>
<event>
 7    1  0.2497665E-015  0.9000753E+02  0.7816164E-02  0.1186339E+00
        -11   -1    0    0    0    0  0.00000000000E+00  0.00000000000E+00  0.45593999997E+02  0.45594000000E+02  0.51100000000E-03 0. -1.
         11   -1    0    0    0    0 -0.00000000000E+00 -0.00000000000E+00 -0.45593999997E+02  0.45594000000E+02  0.51100000000E-03 0.  1.
    9900012    2    1    2    0    0  0.62140951254E-01 -0.11271279881E+01  0.34530340913E+00  0.90007528296E+02  0.89999786869E+02 0.  0.
        -12    1    1    2    0    0 -0.62140951254E-01  0.11271279881E+01 -0.34530340913E+00  0.11804717039E+01  0.00000000000E+00 0.  1.
         11    1    3    3    0    0 -0.11191756765E+02 -0.24145892064E+02  0.15177889193E+02  0.30637360260E+02  0.51100000000E-03 0. -1.
        -11    1    3    3    0    0 -0.90933168176E+01 -0.96742655496E+01 -0.16066674935E+02  0.20842693406E+02  0.51100000000E-03 0.  1.
        -12    1    3    3    0    0  0.20347214534E+02  0.32693029626E+02  0.12340891516E+01  0.38527474631E+02  0.00000000000E+00 0.  1.
</event>
<event>
 7    1  0.2497665E-015  0.9000743E+02  0.7816164E-02  0.1186340E+00
        -11   -1    0    0    0    0  0.00000000000E+00  0.00000000000E+00  0.45593999997E+02  0.45594000000E+02  0.51100000000E-03 0.  1.
         11   -1    0    0    0    0 -0.00000000000E+00 -0.00000000000E+00 -0.45593999997E+02  0.45594000000E+02  0.51100000000E-03 0. -1.
    9900012    2    1    2    0    0  0.96381993569E+00  0.54540689639E+00 -0.40905287889E+00  0.90007431574E+02  0.89999688870E+02 0.  0.
        -12    1    1    2    0    0 -0.96381993569E+00 -0.54540689639E+00  0.40905287889E+00  0.11805684261E+01  0.00000000000E+00 0.  1.
         11    1    3    3    0    0 -0.18187755219E+02 -0.18330528733E+02 -0.28366297130E+02  0.38359477795E+02  0.51100000000E-03 0. -1.
        -11    1    3    3    0    0 -0.60264728633E+00 -0.68203882962E+01 -0.23845071329E+01  0.72502934279E+01  0.51100000000E-03 0.  1.
        -12    1    3    3    0    0  0.19754222441E+02  0.25696323926E+02  0.30341751384E+02  0.44397660351E+02  0.00000000000E+00 0.  1.
</event>
<event>
 7    1  0.2497665E-015  0.9000762E+02  0.7816164E-02  0.1186339E+00
        -11   -1    0    0    0    0  0.00000000000E+00  0.00000000000E+00  0.45593999997E+02  0.45594000000E+02  0.51100000000E-03 0.  1.
         11   -1    0    0    0    0 -0.00000000000E+00 -0.00000000000E+00 -0.45593999997E+02  0.45594000000E+02  0.51100000000E-03 0. -1.
    9900012    2    1    2    0    0 -0.69286781046E+00  0.50873546184E+00 -0.80896266773E+00  0.90007619481E+02  0.89999879258E+02 0.  0.
        -12    1    1    2    0    0  0.69286781046E+00 -0.50873546184E+00  0.80896266773E+00  0.11803805194E+01  0.00000000000E+00 0.  1.
         11    1    3    3    0    0  0.66459620524E+01  0.23572671606E+01 -0.33007672635E+02  0.33752510620E+02  0.51100000000E-03 0. -1.
        -11    1    3    3    0    0  0.14652103349E+01 -0.19487872138E+01 -0.11460482404E+02  0.11716965056E+02  0.51100000000E-03 0.  1.
        -12    1    3    3    0    0 -0.88040401977E+01  0.10025551495E+00  0.43659192372E+02  0.44538143804E+02  0.00000000000E+00 0.  1.
</event>
<event>
 7    1  0.2497665E-015  0.9000772E+02  0.7816164E-02  0.1186339E+00
        -11   -1    0    0    0    0  0.00000000000E+00  0.00000000000E+00  0.45593999997E+02  0.45594000000E+02  0.51100000000E-03 0. -1.
         11   -1    0    0    0    0 -0.00000000000E+00 -0.00000000000E+00 -0.45593999997E+02  0.45594000000E+02  0.51100000000E-03 0.  1.
    9900012    2    1    2    0    0  0.23892420457E+00  0.51819367227E+00  0.10331721648E+01  0.90007722838E+02  0.89999983979E+02 0.  0.
        -12    1    1    2    0    0 -0.23892420457E+00 -0.51819367227E+00 -0.10331721648E+01  0.11802771622E+01  0.00000000000E+00 0.  1.
         11    1    3    3    0    0 -0.83212573626E+01  0.60207910190E+00 -0.48590692411E+00  0.83571483857E+01  0.51100000000E-03 0. -1.
        -11    1    3    3    0    0 -0.95929129613E+01  0.22442506903E+02 -0.30127463533E+02  0.38773111229E+02  0.51100000000E-03 0.  1.
         12    1    3    3    0    0  0.18153094529E+02 -0.22526392333E+02  0.31646542622E+02  0.42877463223E+02  0.00000000000E+00 0. -1.
</event>
<event>
 7    1  0.2497665E-015  0.9000774E+02  0.7816164E-02  0.1186339E+00
        -11   -1    0    0    0    0  0.00000000000E+00  0.00000000000E+00  0.45593999997E+02  0.45594000000E+02  0.51100000000E-03 0. -1.
         11   -1    0    0    0    0 -0.00000000000E+00 -0.00000000000E+00 -0.45593999997E+02  0.45594000000E+02  0.51100000000E-03 0.  1.
    9900012    2    1    2    0    0 -0.76668321989E+00  0.57233689382E+00 -0.69110944395E+00  0.90007743696E+02  0.90000005113E+02 0.  0.
        -12    1    1    2    0    0  0.76668321989E+00 -0.57233689382E+00  0.69110944395E+00  0.11802563040E+01  0.00000000000E+00 0.  1.
         11    1    3    3    0    0  0.22048362018E+01  0.89398090040E+01 -0.34366830850E+01  0.98281370865E+01  0.51100000000E-03 0. -1.
        -11    1    3    3    0    0  0.41938143435E+01 -0.20903707527E+02 -0.34318656524E+02  0.40402020407E+02  0.51100000000E-03 0.  1.
         12    1    3    3    0    0 -0.71653337652E+01  0.12536235417E+02  0.37064230165E+02  0.39777586202E+02  0.00000000000E+00 0. -1.
</event>
<event>
 7    1  0.2497665E-015  0.9000838E+02  0.7816164E-02  0.1186338E+00
        -11   -1    0    0    0    0  0.00000000000E+00  0.00000000000E+00  0.45593999997E+02  0.45594000000E+02  0.51100000000E-03 0.  1.
         11   -1    0    0    0    0 -0.00000000000E+00 -0.00000000000E+00 -0.45593999997E+02  0.45594000000E+02  0.51100000000E-03 0. -1.
    9900012    2    1    2    0    0 -0.10130901318E+01  0.16218978433E+00 -0.58211410068E+00  0.90008375497E+02  0.90000645251E+02 0.  0.
        -12    1    1    2    0    0  0.10130901318E+01 -0.16218978433E+00  0.58211410068E+00  0.11796245028E+01  0.00000000000E+00 0.  1.
         11    1    3    3    0    0  0.94216283888E+01 -0.72438359848E+00  0.38513509428E+01  0.10204151971E+02  0.51100000000E-03 0. -1.
        -11    1    3    3    0    0  0.16507150584E+02  0.28884251380E+02  0.14843806041E+02  0.36429721056E+02  0.51100000000E-03 0.  1.
         12    1    3    3    0    0 -0.26941869105E+02 -0.27997677997E+02 -0.19277271085E+02  0.43374502470E+02  0.00000000000E+00 0. -1.
</event>
<event>
 7    1  0.2497665E-015  0.9000774E+02  0.7816164E-02  0.1186339E+00
        -11   -1    0    0    0    0  0.00000000000E+00  0.00000000000E+00  0.45593999997E+02  0.45594000000E+02  0.51100000000E-03 0.  1.
         11   -1    0    0    0    0 -0.00000000000E+00 -0.00000000000E+00 -0.45593999997E+02  0.45594000000E+02  0.51100000000E-03 0. -1.
    9900012    2    1    2    0    0  0.78546751990E+00  0.87991747260E+00 -0.42402136468E-01  0.90007740738E+02  0.90000002116E+02 0.  0.
        -12    1    1    2    0    0 -0.78546751990E+00 -0.87991747260E+00  0.42402136468E-01  0.11802592616E+01  0.00000000000E+00 0.  1.
         11    1    3    3    0    0 -0.12801234545E+01  0.71490425514E+01 -0.59915607942E+01  0.94152178133E+01  0.51100000000E-03 0. -1.
        -11    1    3    3    0    0 -0.21913233934E+02  0.29794924198E+02  0.96069309933E+00  0.36997976444E+02  0.51100000000E-03 0.  1.
         12    1    3    3    0    0  0.23978824909E+02 -0.36064049277E+02  0.49884655584E+01  0.43594546481E+02  0.00000000000E+00 0. -1.
</event>
<event>
 7    1  0.2497665E-015  0.9000779E+02  0.7816164E-02  0.1186339E+00
        -11   -1    0    0    0    0  0.00000000000E+00  0.00000000000E+00  0.45593999997E+02  0.45594000000E+02  0.51100000000E-03 0.  1.
         11   -1    0    0    0    0 -0.00000000000E+00 -0.00000000000E+00 -0.45593999997E+02  0.45594000000E+02  0.51100000000E-03 0. -1.
    9900012    2    1    2    0    0 -0.63711787688E+00  0.61623026688E+00 -0.77925043263E+00  0.90007792320E+02  0.90000054379E+02 0.  0.
        -12    1    1    2    0    0  0.63711787688E+00 -0.61623026688E+00  0.77925043263E+00  0.11802076799E+01  0.00000000000E+00 0.  1.
         11    1    3    3    0    0  0.56228735345E+00 -0.51407250257E+01 -0.84911417193E+01  0.99419670496E+01  0.51100000000E-03 0. -1.
        -11    1    3    3    0    0  0.31918152270E+02 -0.13994670587E+02 -0.11871224598E+02  0.36817729735E+02  0.51100000000E-03 0.  1.
         12    1    3    3    0    0 -0.33117557500E+02  0.19751625879E+02  0.19583115885E+02  0.43248095535E+02  0.00000000000E+00 0. -1.
</event>
<event>
 7    1  0.2497665E-015  0.9000774E+02  0.7816164E-02  0.1186339E+00
        -11   -1    0    0    0    0  0.00000000000E+00  0.00000000000E+00  0.45593999997E+02  0.45594000000E+02  0.51100000000E-03 0.  1.
         11   -1    0    0    0    0 -0.00000000000E+00 -0.00000000000E+00 -0.45593999997E+02  0.45594000000E+02  0.51100000000E-03 0. -1.
    9900012    2    1    2    0    0  0.99627132534E+00  0.53611849239E+00 -0.33620644845E+00  0.90007739703E+02  0.90000001068E+02 0.  0.
        -12    1    1    2    0    0 -0.99627132534E+00 -0.53611849239E+00  0.33620644845E+00  0.11802602965E+01  0.00000000000E+00 0.  1.
         11    1    3    3    0    0  0.32413614423E+01 -0.89644641222E+01 -0.44547613680E+01  0.10522021674E+02  0.51100000000E-03 0. -1.
        -11    1    3    3    0    0 -0.36313178100E+02  0.21792623652E+02 -0.34316323431E+01  0.42489309834E+02  0.51100000000E-03 0.  1.
         12    1    3    3    0    0  0.34068087983E+02 -0.12292041038E+02  0.75501872627E+01  0.36996408196E+02  0.00000000000E+00 0. -1.
</event>
<event>
 7    1  0.2497665E-015  0.9000782E+02  0.7816164E-02  0.1186339E+00
        -11   -1    0    0    0    0  0.00000000000E+00  0.00000000000E+00  0.45593999997E+02  0.45594000000E+02  0.51100000000E-03 0.  1.
         11   -1    0    0    0    0 -0.00000000000E+00 -0.00000000000E+00 -0.45593999997E+02  0.45594000000E+02  0.51100000000E-03 0. -1.
    9900012    2    1    2    0    0 -0.37594898465E+00 -0.29215911479E+00 -0.10798802410E+01  0.90007815302E+02  0.90000077664E+02 0.  0.
        -12    1    1    2    0    0  0.37594898465E+00  0.29215911479E+00  0.10798802410E+01  0.11801846984E+01  0.00000000000E+00 0.  1.
         11    1    3    3    0    0 -0.13797346693E+02  0.33185628197E+02 -0.15952911616E+02  0.39321089556E+02  0.51100000000E-03 0. -1.
        -11    1    3    3    0    0  0.53258233024E+00 -0.10142749000E+01 -0.85533083058E+01  0.86296860167E+01  0.51100000000E-03 0.  1.
        -12    1    3    3    0    0  0.12888815378E+02 -0.32463512411E+02  0.23426339681E+02  0.42057039729E+02  0.00000000000E+00 0.  1.
</event>
<event>
 7    1  0.2497665E-015  0.9000769E+02  0.7816164E-02  0.1186339E+00
        -11   -1    0    0    0    0  0.00000000000E+00  0.00000000000E+00  0.45593999997E+02  0.45594000000E+02  0.51100000000E-03 0.  1.
         11   -1    0    0    0    0 -0.00000000000E+00 -0.00000000000E+00 -0.45593999997E+02  0.45594000000E+02  0.51100000000E-03 0. -1.
    9900012    2    1    2    0    0 -0.19647248779E+00 -0.54052951915E+00 -0.10307018844E+01  0.90007694966E+02  0.89999955739E+02 0.  0.
        -12    1    1    2    0    0  0.19647248779E+00  0.54052951915E+00  0.10307018844E+01  0.11803050343E+01  0.00000000000E+00 0.  1.
         11    1    3    3    0    0  0.20655500778E+01  0.70834197713E+00 -0.12534323840E+02  0.12723109678E+02  0.51100000000E-03 0. -1.
        -11    1    3    3    0    0 -0.12336122000E+02 -0.37127492653E+02  0.47348864124E+01  0.39408752407E+02  0.51100000000E-03 0.  1.
         12    1    3    3    0    0  0.10074099435E+02  0.35878621157E+02  0.67687355436E+01  0.37875832880E+02  0.00000000000E+00 0. -1.
</event>
<event>
 7    1  0.2497665E-015  0.9000787E+02  0.7816164E-02  0.1186339E+00
        -11   -1    0    0    0    0  0.00000000000E+00  0.00000000000E+00  0.45593999997E+02  0.45594000000E+02  0.51100000000E-03 0.  1.
         11   -1    0    0    0    0 -0.00000000000E+00 -0.00000000000E+00 -0.45593999997E+02  0.45594000000E+02  0.51100000000E-03 0. -1.
    9900012    2    1    2    0    0  0.52604426104E+00  0.10225674511E+01 -0.26520505379E+00  0.90007872686E+02  0.90000135805E+02 0.  0.
        -12    1    1    2    0    0 -0.52604426104E+00 -0.10225674511E+01  0.26520505379E+00  0.11801273139E+01  0.00000000000E+00 0.  1.
         11    1    3    3    0    0  0.31059612748E+01  0.57573472170E+01  0.14913916579E+02  0.16285544216E+02  0.51100000000E-03 0. -1.
        -11    1    3    3    0    0  0.43063534654E+01  0.30164151250E+02  0.77001703106E+01  0.31427906769E+02  0.51100000000E-03 0.  1.
         12    1    3    3    0    0 -0.68862704792E+01 -0.34898931016E+02 -0.22879291944E+02  0.42294421701E+02  0.00000000000E+00 0. -1.
</event>
<event>
 7    1  0.3878946E-015  0.9000723E+02  0.7816164E-02  0.1186340E+00
        -11   -1    0    0    0    0  0.00000000000E+00  0.00000000000E+00  0.45593999997E+02  0.45594000000E+02  0.51100000000E-03 0.  1.
         11   -1    0    0    0    0 -0.00000000000E+00 -0.00000000000E+00 -0.45593999997E+02  0.45594000000E+02  0.51100000000E-03 0. -1.
    9900012    2    1    2    0    0 -0.10937765267E+00  0.79423174626E+00 -0.86685889701E+00  0.90007232502E+02  0.89999487169E+02 0.  0.
        -12    1    1    2    0    0  0.10937765267E+00 -0.79423174626E+00  0.86685889701E+00  0.11807674983E+01  0.00000000000E+00 0.  1.
         11    1    3    3    0    0 -0.30389217777E+02 -0.18613056355E+02 -0.78027114370E+01  0.36480580177E+02  0.51100000000E-03 0. -1.
        -11    1    3    3    0    0 -0.30877596935E+01 -0.59958654636E+01 -0.66227298478E+01  0.94522597024E+01  0.51100000000E-03 0.  1.
        -12    1    3    3    0    0  0.33367599818E+02  0.25403153565E+02  0.13558582388E+02  0.44074392623E+02  0.00000000000E+00 0.  1.
</event>
<event>
 7    1  0.2591986E-015  0.9000781E+02  0.7816164E-02  0.1186339E+00
        -11   -1    0    0    0    0  0.00000000000E+00  0.00000000000E+00  0.45593999997E+02  0.45594000000E+02  0.51100000000E-03 0.  1.
         11   -1    0    0    0    0 -0.00000000000E+00 -0.00000000000E+00 -0.45593999997E+02  0.45594000000E+02  0.51100000000E-03 0. -1.
    9900012    2    1    2    0    0  0.41637636580E+00  0.57597211718E+00 -0.94219081289E+00  0.90007814978E+02  0.90000077336E+02 0.  0.
        -12    1    1    2    0    0 -0.41637636580E+00 -0.57597211718E+00  0.94219081289E+00  0.11801850218E+01  0.00000000000E+00 0.  1.
         11    1    3    3    0    0  0.21353350092E+02  0.72787071363E+01 -0.32875632976E+02  0.39871699006E+02  0.51100000000E-03 0. -1.
        -11    1    3    3    0    0 -0.50887204776E+01  0.78632914129E+01 -0.23489205319E+01  0.96562858217E+01  0.51100000000E-03 0.  1.
        -12    1    3    3    0    0 -0.15848253249E+02 -0.14566026432E+02  0.34282362695E+02  0.40479830151E+02  0.00000000000E+00 0.  1.
</event>
<event>
 7    1  0.2497665E-015  0.9000774E+02  0.7816164E-02  0.1186339E+00
        -11   -1    0    0    0    0  0.00000000000E+00  0.00000000000E+00  0.45593999997E+02  0.45594000000E+02  0.51100000000E-03 0.  1.
         11   -1    0    0    0    0 -0.00000000000E+00 -0.00000000000E+00 -0.45593999997E+02  0.45594000000E+02  0.51100000000E-03 0. -1.
    9900012    2    1    2    0    0  0.52884183367E+00 -0.96530325276E+00  0.42606984240E+00  0.90007737501E+02  0.89999998836E+02 0.  0.
        -12    1    1    2    0    0 -0.52884183367E+00  0.96530325276E+00 -0.42606984240E+00  0.11802624985E+01  0.00000000000E+00 0.  1.
         11    1    3    3    0    0  0.10825159434E+02 -0.10060000393E+02 -0.33321266201E+02  0.36451261517E+02  0.51100000000E-03 0. -1.
        -11    1    3    3    0    0 -0.36037405467E+01  0.13590271074E+01 -0.89010403847E+01  0.96985782875E+01  0.51100000000E-03 0.  1.
        -12    1    3    3    0    0 -0.66925770538E+01  0.77356700332E+01  0.42648376428E+02  0.43857897697E+02  0.00000000000E+00 0.  1.
</event>
<event>
 7    1  0.2497665E-015  0.9000769E+02  0.7816164E-02  0.1186339E+00
        -11   -1    0    0    0    0  0.00000000000E+00  0.00000000000E+00  0.45593999997E+02  0.45594000000E+02  0.51100000000E-03 0.  1.
         11   -1    0    0    0    0 -0.00000000000E+00 -0.00000000000E+00 -0.45593999997E+02  0.45594000000E+02  0.51100000000E-03 0. -1.
    9900012    2    1    2    0    0  0.10449781708E+01  0.12075687834E+00 -0.53531627341E+00  0.90007692788E+02  0.89999953533E+02 0.  0.
        -12    1    1    2    0    0 -0.10449781708E+01 -0.12075687834E+00  0.53531627341E+00  0.11803072116E+01  0.00000000000E+00 0.  1.
         11    1    3    3    0    0 -0.59112613081E+01 -0.65323597410E+01  0.11633026213E+01  0.88863945045E+01  0.51100000000E-03 0. -1.
        -11    1    3    3    0    0 -0.22477575757E+02 -0.63621629445E+01  0.28594519122E+02  0.36923773552E+02  0.51100000000E-03 0.  1.
         12    1    3    3    0    0  0.29433815236E+02  0.13015279564E+02 -0.30293138017E+02  0.44197524732E+02  0.00000000000E+00 0. -1.
</event>
<event>
 7    1  0.2497665E-015  0.9000780E+02  0.7816164E-02  0.1186339E+00
        -11   -1    0    0    0    0  0.00000000000E+00  0.00000000000E+00  0.45593999997E+02  0.45594000000E+02  0.51100000000E-03 0. -1.
         11   -1    0    0    0    0 -0.00000000000E+00 -0.00000000000E+00 -0.45593999997E+02  0.45594000000E+02  0.51100000000E-03 0.  1.
    9900012    2    1    2    0    0  0.99846451647E+00 -0.30742500844E+00  0.54901914593E+00  0.90007803597E+02  0.90000065805E+02 0.  0.
        -12    1    1    2    0    0 -0.99846451647E+00  0.30742500844E+00 -0.54901914593E+00  0.11801964027E+01  0.00000000000E+00 0.  1.
         11    1    3    3    0    0  0.37466624085E+01 -0.40702668068E+02  0.15862173448E+02  0.43844648633E+02  0.51100000000E-03 0. -1.
        -11    1    3    3    0    0  0.36987306165E+01  0.91262881818E+01  0.16897025695E+01  0.99912381208E+01  0.51100000000E-03 0.  1.
        -12    1    3    3    0    0 -0.64469285085E+01  0.31268954878E+02 -0.17002856871E+02  0.36171916843E+02  0.00000000000E+00 0.  1.
</event>
<event>
 7    1  0.2497665E-015  0.9000787E+02  0.7816164E-02  0.1186339E+00
        -11   -1    0    0    0    0  0.00000000000E+00  0.00000000000E+00  0.45593999997E+02  0.45594000000E+02  0.51100000000E-03 0.  1.
         11   -1    0    0    0    0 -0.00000000000E+00 -0.00000000000E+00 -0.45593999997E+02  0.45594000000E+02  0.51100000000E-03 0. -1.
    9900012    2    1    2    0    0 -0.50246829896E+00 -0.18959659843E+00 -0.10508459544E+01  0.90007873532E+02  0.90000136662E+02 0.  0.
        -12    1    1    2    0    0  0.50246829896E+00  0.18959659843E+00  0.10508459544E+01  0.11801264684E+01  0.00000000000E+00 0.  1.
         11    1    3    3    0    0 -0.33349476268E+01 -0.66459138620E+01  0.43215690994E+01  0.86003492066E+01  0.51100000000E-03 0. -1.
        -11    1    3    3    0    0  0.20795615304E+02  0.20515154153E+01  0.32857050717E+02  0.38939082082E+02  0.51100000000E-03 0.  1.
         12    1    3    3    0    0 -0.17963135976E+02  0.44048018483E+01 -0.38229465770E+02  0.42468442243E+02  0.00000000000E+00 0. -1.
</event>
<event>
 7    1  0.2497665E-015  0.9000773E+02  0.7816164E-02  0.1186339E+00
        -11   -1    0    0    0    0  0.00000000000E+00  0.00000000000E+00  0.45593999997E+02  0.45594000000E+02  0.51100000000E-03 0.  1.
         11   -1    0    0    0    0 -0.00000000000E+00 -0.00000000000E+00 -0.45593999997E+02  0.45594000000E+02  0.51100000000E-03 0. -1.
    9900012    2    1    2    0    0  0.79234084466E+00 -0.76260646779E+00 -0.42856588169E+00  0.90007728271E+02  0.89999989484E+02 0.  0.
        -12    1    1    2    0    0 -0.79234084466E+00  0.76260646779E+00  0.42856588169E+00  0.11802717288E+01  0.00000000000E+00 0.  1.
         11    1    3    3    0    0 -0.26499154488E+02  0.23744465443E+02 -0.27774971130E+01  0.35689204505E+02  0.51100000000E-03 0. -1.
        -11    1    3    3    0    0 -0.77066996961E+01  0.26900501589E+01  0.55641555419E+01  0.98787356083E+01  0.51100000000E-03 0.  1.
        -12    1    3    3    0    0  0.34998195029E+02 -0.27197122070E+02 -0.32152243106E+01  0.44439788158E+02  0.00000000000E+00 0.  1.
</event>
<event>
 7    1  0.2497665E-015  0.9000786E+02  0.7816164E-02  0.1186339E+00
        -11   -1    0    0    0    0  0.00000000000E+00  0.00000000000E+00  0.45593999997E+02  0.45594000000E+02  0.51100000000E-03 0. -1.
         11   -1    0    0    0    0 -0.00000000000E+00 -0.00000000000E+00 -0.45593999997E+02  0.45594000000E+02  0.51100000000E-03 0.  1.
    9900012    2    1    2    0    0 -0.91785254348E+00  0.18589361988E+00  0.71814038108E+00  0.90007857917E+02  0.90000120841E+02 0.  0.
        -12    1    1    2    0    0  0.91785254348E+00 -0.18589361988E+00 -0.71814038108E+00  0.11801420832E+01  0.00000000000E+00 0.  1.
         11    1    3    3    0    0 -0.17370271184E+02  0.34068644386E+02  0.10852458238E+02  0.39751411313E+02  0.51100000000E-03 0. -1.
        -11    1    3    3    0    0  0.82251286971E+01  0.47808701334E+01 -0.28181072703E+00  0.95178190182E+01  0.51100000000E-03 0.  1.
        -12    1    3    3    0    0  0.82272899435E+01 -0.38663620899E+02 -0.98525071301E+01  0.40738627586E+02  0.00000000000E+00 0.  1.
</event>
<event>
 7    1  0.2497665E-015  0.9000774E+02  0.7816164E-02  0.1186339E+00
        -11   -1    0    0    0    0  0.00000000000E+00  0.00000000000E+00  0.45593999997E+02  0.45594000000E+02  0.51100000000E-03 0. -1.
         11   -1    0    0    0    0 -0.00000000000E+00 -0.00000000000E+00 -0.45593999997E+02  0.45594000000E+02  0.51100000000E-03 0.  1.
    9900012    2    1    2    0    0 -0.10457194087E+01 -0.52867415600E-01  0.54469350525E+00  0.90007739410E+02  0.90000000770E+02 0.  0.
        -12    1    1    2    0    0  0.10457194087E+01  0.52867415600E-01 -0.54469350525E+00  0.11802605899E+01  0.00000000000E+00 0.  1.
         11    1    3    3    0    0 -0.24568497410E+02  0.28152845116E+02 -0.56555406912E+01  0.37791254198E+02  0.51100000000E-03 0. -1.
        -11    1    3    3    0    0 -0.42686204964E+01 -0.40408680480E+01 -0.10301495822E+02  0.11860461709E+02  0.51100000000E-03 0.  1.
        -12    1    3    3    0    0  0.27791398498E+02 -0.24164844483E+02  0.16501730018E+02  0.40356023503E+02  0.00000000000E+00 0.  1.
</event>
<event>
 7    1  0.2497665E-015  0.9000773E+02  0.7816164E-02  0.1186339E+00
        -11   -1    0    0    0    0  0.00000000000E+00  0.00000000000E+00  0.45593999997E+02  0.45594000000E+02  0.51100000000E-03 0.  1.
         11   -1    0    0    0    0 -0.00000000000E+00 -0.00000000000E+00 -0.45593999997E+02  0.45594000000E+02  0.51100000000E-03 0. -1.
    9900012    2    1    2    0    0  0.83762115448E+00  0.81140484561E+00 -0.18180808520E+00  0.90007728336E+02  0.89999989550E+02 0.  0.
        -12    1    1    2    0    0 -0.83762115448E+00 -0.81140484561E+00  0.18180808520E+00  0.11802716644E+01  0.00000000000E+00 0.  1.
         11    1    3    3    0    0  0.22165772705E+02 -0.32659691068E+01 -0.30063510862E+02  0.37494035785E+02  0.51100000000E-03 0. -1.
        -11    1    3    3    0    0  0.85470599935E+01 -0.16841418112E+01 -0.14598152109E+01  0.88328720631E+01  0.51100000000E-03 0.  1.
        -12    1    3    3    0    0 -0.29875211544E+02  0.57615157637E+01  0.31341517988E+02  0.43680820488E+02  0.00000000000E+00 0.  1.
</event>
<event>
 7    1  0.2497665E-015  0.9000728E+02  0.7816164E-02  0.1186340E+00
        -11   -1    0    0    0    0  0.00000000000E+00  0.00000000000E+00  0.45593999997E+02  0.45594000000E+02  0.51100000000E-03 0.  1.
         11   -1    0    0    0    0 -0.00000000000E+00 -0.00000000000E+00 -0.45593999997E+02  0.45594000000E+02  0.51100000000E-03 0. -1.
    9900012    2    1    2    0    0  0.11009310842E+01  0.41205105727E+00  0.11073680682E+00  0.90007280742E+02  0.89999536047E+02 0.  0.
        -12    1    1    2    0    0 -0.11009310842E+01 -0.41205105727E+00 -0.11073680682E+00  0.11807192581E+01  0.00000000000E+00 0.  1.
         11    1    3    3    0    0 -0.38326188859E+01  0.67290409297E+01  0.58197156132E+01  0.96870041519E+01  0.51100000000E-03 0. -1.
        -11    1    3    3    0    0  0.17214103389E+02 -0.20129907828E+02  0.30056370619E+02  0.40061502215E+02  0.51100000000E-03 0.  1.
         12    1    3    3    0    0 -0.12280553419E+02  0.13812917956E+02 -0.35765349425E+02  0.40258774375E+02  0.00000000000E+00 0. -1.
</event>
<event>
 7    1  0.2497665E-015  0.9000765E+02  0.7816164E-02  0.1186339E+00
        -11   -1    0    0    0    0  0.00000000000E+00  0.00000000000E+00  0.45593999997E+02  0.45594000000E+02  0.51100000000E-03 0. -1.
         11   -1    0    0    0    0 -0.00000000000E+00 -0.00000000000E+00 -0.45593999997E+02  0.45594000000E+02  0.51100000000E-03 0.  1.
    9900012    2    1    2    0    0  0.39583391598E+00  0.36189292345E+00  0.10514655750E+01  0.90007648005E+02  0.89999908158E+02 0.  0.
        -12    1    1    2    0    0 -0.39583391598E+00 -0.36189292345E+00 -0.10514655750E+01  0.11803519951E+01  0.00000000000E+00 0.  1.
         11    1    3    3    0    0 -0.64172104602E+00 -0.52469766236E+01 -0.74865614484E+01  0.91646697797E+01  0.51100000000E-03 0. -1.
        -11    1    3    3    0    0  0.30399502443E+01 -0.37285166661E+02  0.26842860713E+01  0.37505070889E+02  0.51100000000E-03 0.  1.
         12    1    3    3    0    0 -0.20023952823E+01  0.42894036208E+02  0.58537409521E+01  0.43337907336E+02  0.00000000000E+00 0. -1.
</event>
<event>
 7    1  0.2497665E-015  0.9000813E+02  0.7816164E-02  0.1186338E+00
        -11   -1    0    0    0    0  0.00000000000E+00  0.00000000000E+00  0.45593999997E+02  0.45594000000E+02  0.51100000000E-03 0. -1.
         11   -1    0    0    0    0 -0.00000000000E+00 -0.00000000000E+00 -0.45593999997E+02  0.45594000000E+02  0.51100000000E-03 0.  1.
    9900012    2    1    2    0    0 -0.33690208720E+00 -0.93342352190E+00  0.63820503920E+00  0.90008132143E+02  0.90000398687E+02 0.  0.
        -12    1    1    2    0    0  0.33690208720E+00  0.93342352190E+00 -0.63820503920E+00  0.11798678569E+01  0.00000000000E+00 0.  1.
         11    1    3    3    0    0 -0.46073069287E+01  0.41832404845E+01  0.70108275684E+01  0.93743523265E+01  0.51100000000E-03 0. -1.
        -11    1    3    3    0    0 -0.61322917540E+01  0.27367786821E+02 -0.28492127063E+02  0.39980020792E+02  0.51100000000E-03 0.  1.
         12    1    3    3    0    0  0.10402696595E+02 -0.32484450828E+02  0.22119504534E+02  0.40653759025E+02  0.00000000000E+00 0. -1.
</event>
<event>
 7    1  0.2497665E-015  0.9000792E+02  0.7816164E-02  0.1186339E+00
        -11   -1    0    0    0    0  0.00000000000E+00  0.00000000000E+00  0.45593999997E+02  0.45594000000E+02  0.51100000000E-03 0.  1.
         11   -1    0    0    0    0 -0.00000000000E+00 -0.00000000000E+00 -0.45593999997E+02  0.45594000000E+02  0.51100000000E-03 0. -1.
    9900012    2    1    2    0    0  0.33290808244E+00 -0.11174509125E+01 -0.18181179355E+00  0.90007923790E+02  0.90000187584E+02 0.  0.
        -12    1    1    2    0    0 -0.33290808244E+00  0.11174509125E+01  0.18181179355E+00  0.11800762100E+01  0.00000000000E+00 0.  1.
         11    1    3    3    0    0 -0.16985620714E+00  0.85580384860E+01  0.11952953734E+01  0.86427776293E+01  0.51100000000E-03 0. -1.
        -11    1    3    3    0    0  0.12051335893E+02 -0.18006451049E+02  0.35636721847E+02  0.41706629215E+02  0.51100000000E-03 0.  1.
         12    1    3    3    0    0 -0.11548571603E+02  0.83309616505E+01 -0.37013829014E+02  0.39658516946E+02  0.00000000000E+00 0. -1.
</event>
<event>
 7    1  0.2497665E-015  0.9000773E+02  0.7816164E-02  0.1186339E+00
        -11   -1    0    0    0    0  0.00000000000E+00  0.00000000000E+00  0.45593999997E+02  0.45594000000E+02  0.51100000000E-03 0. -1.
         11   -1    0    0    0    0 -0.00000000000E+00 -0.00000000000E+00 -0.45593999997E+02  0.45594000000E+02  0.51100000000E-03 0.  1.
    9900012    2    1    2    0    0 -0.98910004779E+00  0.60337063192E+00  0.22508727699E+00  0.90007729139E+02  0.89999990363E+02 0.  0.
        -12    1    1    2    0    0  0.98910004779E+00 -0.60337063192E+00 -0.22508727699E+00  0.11802708614E+01  0.00000000000E+00 0.  1.
         11    1    3    3    0    0 -0.25431732280E+02  0.29092602304E+02  0.16874831046E+02  0.42165298987E+02  0.51100000000E-03 0. -1.
        -11    1    3    3    0    0 -0.34633614611E+01 -0.52693590391E+01  0.25181356241E+01  0.67898471688E+01  0.51100000000E-03 0.  1.
        -12    1    3    3    0    0  0.27905993693E+02 -0.23219872633E+02 -0.19167879393E+02  0.41052582983E+02  0.00000000000E+00 0.  1.
</event>
<event>
 7    1  0.2497665E-015  0.9000771E+02  0.7816164E-02  0.1186339E+00
        -11   -1    0    0    0    0  0.00000000000E+00  0.00000000000E+00  0.45593999997E+02  0.45594000000E+02  0.51100000000E-03 0. -1.
         11   -1    0    0    0    0 -0.00000000000E+00 -0.00000000000E+00 -0.45593999997E+02  0.45594000000E+02  0.51100000000E-03 0.  1.
    9900012    2    1    2    0    0  0.11193819798E+01 -0.30832534091E+00  0.21211537947E+00  0.90007714667E+02  0.89999975701E+02 0.  0.
        -12    1    1    2    0    0 -0.11193819798E+01  0.30832534091E+00 -0.21211537947E+00  0.11802853327E+01  0.00000000000E+00 0.  1.
         11    1    3    3    0    0  0.44272608259E+01 -0.27122463331E+02 -0.30193133462E+02  0.40827122897E+02  0.51100000000E-03 0. -1.
        -11    1    3    3    0    0  0.72434485406E+01  0.66782333990E+01 -0.15405359126E+01  0.99719405960E+01  0.51100000000E-03 0.  1.
        -12    1    3    3    0    0 -0.10551327387E+02  0.20135904591E+02  0.31945784754E+02  0.39208651174E+02  0.00000000000E+00 0.  1.
</event>
<event>
 7    1  0.2497665E-015  0.9000778E+02  0.7816164E-02  0.1186339E+00
        -11   -1    0    0    0    0  0.00000000000E+00  0.00000000000E+00  0.45593999997E+02  0.45594000000E+02  0.51100000000E-03 0.  1.
         11   -1    0    0    0    0 -0.00000000000E+00 -0.00000000000E+00 -0.45593999997E+02  0.45594000000E+02  0.51100000000E-03 0. -1.
    9900012    2    1    2    0    0  0.51956760675E+00  0.89056655891E+00  0.57433806545E+00  0.90007778196E+02  0.90000040068E+02 0.  0.
        -12    1    1    2    0    0 -0.51956760675E+00 -0.89056655891E+00 -0.57433806545E+00  0.11802218043E+01  0.00000000000E+00 0.  1.
         11    1    3    3    0    0  0.58093930761E+01 -0.31918483629E+01  0.90311925671E+01  0.11202650728E+02  0.51100000000E-03 0. -1.
        -11    1    3    3    0    0  0.46186540331E+01 -0.23252807609E+02  0.25017802037E+02  0.34466149274E+02  0.51100000000E-03 0.  1.
         12    1    3    3    0    0 -0.99084795024E+01  0.27335222531E+02 -0.33474656539E+02  0.44338978194E+02  0.00000000000E+00 0. -1.
</event>
<event>
 7    1  0.2497665E-015  0.9000774E+02  0.7816164E-02  0.1186339E+00
        -11   -1    0    0    0    0  0.00000000000E+00  0.00000000000E+00  0.45593999997E+02  0.45594000000E+02  0.51100000000E-03 0.  1.
         11   -1    0    0    0    0 -0.00000000000E+00 -0.00000000000E+00 -0.45593999997E+02  0.45594000000E+02  0.51100000000E-03 0. -1.
    9900012    2    1    2    0    0  0.52641020109E+00  0.15093366601E+00 -0.10455228804E+01  0.90007742924E+02  0.90000004331E+02 0.  0.
        -12    1    1    2    0    0 -0.52641020109E+00 -0.15093366601E+00  0.10455228804E+01  0.11802570757E+01  0.00000000000E+00 0.  1.
         11    1    3    3    0    0 -0.62017517030E+01  0.45667303953E+01  0.69193452900E+01  0.10353457886E+02  0.51100000000E-03 0. -1.
        -11    1    3    3    0    0  0.18744320640E+02  0.31983812640E+02  0.83410656354E+01  0.37998515806E+02  0.51100000000E-03 0.  1.
         12    1    3    3    0    0 -0.12016158736E+02 -0.36399609370E+02 -0.16305933806E+02  0.41655769232E+02  0.00000000000E+00 0. -1.
</event>
<event>
 7    1  0.2497665E-015  0.9000775E+02  0.7816164E-02  0.1186339E+00
        -11   -1    0    0    0    0  0.00000000000E+00  0.00000000000E+00  0.45593999997E+02  0.45594000000E+02  0.51100000000E-03 0.  1.
         11   -1    0    0    0    0 -0.00000000000E+00 -0.00000000000E+00 -0.45593999997E+02  0.45594000000E+02  0.51100000000E-03 0. -1.
    9900012    2    1    2    0    0  0.94016259236E+00 -0.15044950054E+00  0.69746530601E+00  0.90007746381E+02  0.90000007833E+02 0.  0.
        -12    1    1    2    0    0 -0.94016259236E+00  0.15044950054E+00 -0.69746530601E+00  0.11802536191E+01  0.00000000000E+00 0.  1.
         11    1    3    3    0    0 -0.10840575696E+02 -0.20578789786E+02 -0.32060262070E+02  0.39608901458E+02  0.51100000000E-03 0. -1.
        -11    1    3    3    0    0 -0.52958276600E+01 -0.52493994955E+01  0.67601753463E+01  0.10064887314E+02  0.51100000000E-03 0.  1.
        -12    1    3    3    0    0  0.17076565948E+02  0.25677739780E+02  0.25997552030E+02  0.40333957609E+02  0.00000000000E+00 0.  1.
</event>
<event>
 7    1  0.2662585E-015  0.9000768E+02  0.7816164E-02  0.1186339E+00
        -11   -1    0    0    0    0  0.00000000000E+00  0.00000000000E+00  0.45593999997E+02  0.45594000000E+02  0.51100000000E-03 0.  1.
         11   -1    0    0    0    0 -0.00000000000E+00 -0.00000000000E+00 -0.45593999997E+02  0.45594000000E+02  0.51100000000E-03 0. -1.
    9900012    2    1    2    0    0 -0.20900991824E+00  0.83925164238E+00 -0.80319566209E+00  0.90007681510E+02  0.89999942106E+02 0.  0.
        -12    1    1    2    0    0  0.20900991824E+00 -0.83925164238E+00  0.80319566209E+00  0.11803184896E+01  0.00000000000E+00 0.  1.
         11    1    3    3    0    0 -0.35116700024E+01  0.33524941079E+02 -0.17958124191E+02  0.38193556070E+02  0.51100000000E-03 0. -1.
        -11    1    3    3    0    0  0.57075762857E+01  0.32297066236E+01 -0.61027841346E+01  0.89583149301E+01  0.51100000000E-03 0.  1.
        -12    1    3    3    0    0 -0.24049162015E+01 -0.35915396060E+02  0.23257712664E+02  0.42855810510E+02  0.00000000000E+00 0.  1.
</event>
<event>
 7    1  0.2497665E-015  0.9000773E+02  0.7816164E-02  0.1186339E+00
        -11   -1    0    0    0    0  0.00000000000E+00  0.00000000000E+00  0.45593999997E+02  0.45594000000E+02  0.51100000000E-03 0.  1.
         11   -1    0    0    0    0 -0.00000000000E+00 -0.00000000000E+00 -0.45593999997E+02  0.45594000000E+02  0.51100000000E-03 0. -1.
    9900012    2    1    2    0    0 -0.10901224628E+01 -0.40189328882E+00 -0.20774557356E+00  0.90007727395E+02  0.89999988596E+02 0.  0.
        -12    1    1    2    0    0  0.10901224628E+01  0.40189328882E+00  0.20774557356E+00  0.11802726053E+01  0.00000000000E+00 0.  1.
         11    1    3    3    0    0 -0.35030546852E+01  0.51562310864E+01 -0.33280520013E+02  0.33859284159E+02  0.51100000000E-03 0. -1.
        -11    1    3    3    0    0  0.84532398860E+01  0.14404691875E+01 -0.93752260863E+01  0.12705395723E+02  0.51100000000E-03 0.  1.
        -12    1    3    3    0    0 -0.60403076636E+01 -0.69985935627E+01  0.42448000526E+02  0.43443047513E+02  0.00000000000E+00 0.  1.
</event>
<event>
 7    1  0.2497665E-015  0.9000752E+02  0.7816164E-02  0.1186339E+00
        -11   -1    0    0    0    0  0.00000000000E+00  0.00000000000E+00  0.45593999997E+02  0.45594000000E+02  0.51100000000E-03 0. -1.
         11   -1    0    0    0    0 -0.00000000000E+00 -0.00000000000E+00 -0.45593999997E+02  0.45594000000E+02  0.51100000000E-03 0.  1.
    9900012    2    1    2    0    0  0.52778195351E+00 -0.14449719771E+00  0.10459972235E+01  0.90007515599E+02  0.89999774004E+02 0.  0.
        -12    1    1    2    0    0 -0.52778195351E+00  0.14449719771E+00 -0.10459972235E+01  0.11804844015E+01  0.00000000000E+00 0.  1.
         11    1    3    3    0    0  0.56847733883E+01 -0.77956161576E+00  0.32824210483E+01  0.66104956689E+01  0.51100000000E-03 0. -1.
        -11    1    3    3    0    0  0.29705168441E+02  0.26426377310E+02  0.21080253616E+01  0.39814497623E+02  0.51100000000E-03 0.  1.
         12    1    3    3    0    0 -0.34862159875E+02 -0.25791312892E+02 -0.43444491864E+01  0.43582522306E+02  0.00000000000E+00 0. -1.
</event>
<event>
 7    1  0.2497665E-015  0.9000782E+02  0.7816164E-02  0.1186339E+00
        -11   -1    0    0    0    0  0.00000000000E+00  0.00000000000E+00  0.45593999997E+02  0.45594000000E+02  0.51100000000E-03 0. -1.
         11   -1    0    0    0    0 -0.00000000000E+00 -0.00000000000E+00 -0.45593999997E+02  0.45594000000E+02  0.51100000000E-03 0.  1.
    9900012    2    1    2    0    0  0.45030858434E+00 -0.88023102732E+00 -0.64438966937E+00  0.90007820976E+02  0.90000083413E+02 0.  0.
        -12    1    1    2    0    0 -0.45030858434E+00  0.88023102732E+00  0.64438966937E+00  0.11801790240E+01  0.00000000000E+00 0.  1.
         11    1    3    3    0    0 -0.21613495748E+02  0.73335986893E+01  0.31810933461E+02  0.39151760574E+02  0.51100000000E-03 0. -1.
        -11    1    3    3    0    0  0.18498265760E+02 -0.59441576728E+01 -0.13628061429E+01  0.19477579096E+02  0.51100000000E-03 0.  1.
        -12    1    3    3    0    0  0.35655385716E+01 -0.22696720438E+01 -0.31092516987E+02  0.31378481306E+02  0.00000000000E+00 0.  1.
</event>
<event>
 7    1  0.2497665E-015  0.9000774E+02  0.7816164E-02  0.1186339E+00
        -11   -1    0    0    0    0  0.00000000000E+00  0.00000000000E+00  0.45593999997E+02  0.45594000000E+02  0.51100000000E-03 0. -1.
         11   -1    0    0    0    0 -0.00000000000E+00 -0.00000000000E+00 -0.45593999997E+02  0.45594000000E+02  0.51100000000E-03 0.  1.
    9900012    2    1    2    0    0  0.41786723283E+00 -0.90520688358E+00  0.63166388663E+00  0.90007740795E+02  0.90000002173E+02 0.  0.
        -12    1    1    2    0    0 -0.41786723283E+00  0.90520688358E+00 -0.63166388663E+00  0.11802592054E+01  0.00000000000E+00 0.  1.
         11    1    3    3    0    0 -0.81217728428E+00 -0.26182431423E+01  0.88036088636E+01  0.92205400263E+01  0.51100000000E-03 0. -1.
        -11    1    3    3    0    0  0.16194744736E+02  0.25444050192E+02  0.23676642457E+02  0.38343876246E+02  0.51100000000E-03 0.  1.
         12    1    3    3    0    0 -0.14964700219E+02 -0.23731013933E+02 -0.31848587434E+02  0.42443324522E+02  0.00000000000E+00 0. -1.
</event>
<event>
 7    1  0.2497665E-015  0.9000782E+02  0.7816164E-02  0.1186339E+00
        -11   -1    0    0    0    0  0.00000000000E+00  0.00000000000E+00  0.45593999997E+02  0.45594000000E+02  0.51100000000E-03 0.  1.
         11   -1    0    0    0    0 -0.00000000000E+00 -0.00000000000E+00 -0.45593999997E+02  0.45594000000E+02  0.51100000000E-03 0. -1.
    9900012    2    1    2    0    0  0.91714179775E+00 -0.64940433810E+00  0.36047550768E+00  0.90007823037E+02  0.90000085501E+02 0.  0.
        -12    1    1    2    0    0 -0.91714179775E+00  0.64940433810E+00 -0.36047550768E+00  0.11801769626E+01  0.00000000000E+00 0.  1.
         11    1    3    3    0    0  0.15900431860E+01 -0.37997390167E+01 -0.75917422782E+01  0.86371757542E+01  0.51100000000E-03 0. -1.
        -11    1    3    3    0    0  0.89042596860E+01 -0.27374688902E+02  0.30723332578E+02  0.42102049807E+02  0.51100000000E-03 0.  1.
         12    1    3    3    0    0 -0.95771610742E+01  0.30525023580E+02 -0.22771114792E+02  0.39268597476E+02  0.00000000000E+00 0. -1.
</event>
<event>
 7    1  0.2497665E-015  0.9000773E+02  0.7816164E-02  0.1186339E+00
        -11   -1    0    0    0    0  0.00000000000E+00  0.00000000000E+00  0.45593999997E+02  0.45594000000E+02  0.51100000000E-03 0. -1.
         11   -1    0    0    0    0 -0.00000000000E+00 -0.00000000000E+00 -0.45593999997E+02  0.45594000000E+02  0.51100000000E-03 0.  1.
    9900012    2    1    2    0    0 -0.52112572171E+00  0.20344879978E+00  0.10392613856E+01  0.90007734073E+02  0.89999995362E+02 0.  0.
        -12    1    1    2    0    0  0.52112572171E+00 -0.20344879978E+00 -0.10392613856E+01  0.11802659275E+01  0.00000000000E+00 0.  1.
         11    1    3    3    0    0 -0.21444760615E+02  0.29989839385E+02  0.20858223441E+02  0.42359576362E+02  0.51100000000E-03 0. -1.
        -11    1    3    3    0    0  0.87546794038E+01 -0.59003675209E+00  0.22755046481E+01  0.90647932407E+01  0.51100000000E-03 0.  1.
        -12    1    3    3    0    0  0.12168955490E+02 -0.29196353833E+02 -0.22094466704E+02  0.38583364470E+02  0.00000000000E+00 0.  1.
</event>
<event>
 7    1  0.2497665E-015  0.9000786E+02  0.7816164E-02  0.1186339E+00
        -11   -1    0    0    0    0  0.00000000000E+00  0.00000000000E+00  0.45593999997E+02  0.45594000000E+02  0.51100000000E-03 0. -1.
         11   -1    0    0    0    0 -0.00000000000E+00 -0.00000000000E+00 -0.45593999997E+02  0.45594000000E+02  0.51100000000E-03 0.  1.
    9900012    2    1    2    0    0  0.35857597700E+00  0.76752141396E+00  0.82161751032E+00  0.90007863912E+02  0.90000126916E+02 0.  0.
        -12    1    1    2    0    0 -0.35857597700E+00 -0.76752141396E+00 -0.82161751032E+00  0.11801360877E+01  0.00000000000E+00 0.  1.
         11    1    3    3    0    0  0.24361588130E+02  0.21249095128E+02 -0.13097218663E+02  0.34879050402E+02  0.51100000000E-03 0. -1.
        -11    1    3    3    0    0  0.11873414802E+02 -0.52041349939E+01 -0.17956532155E+01  0.13087603708E+02  0.51100000000E-03 0.  1.
        -12    1    3    3    0    0 -0.35876426955E+02 -0.15277438720E+02  0.15714489389E+02  0.42041209802E+02  0.00000000000E+00 0.  1.
</event>
<event>
 7    1  0.2497665E-015  0.9000772E+02  0.7816164E-02  0.1186339E+00
        -11   -1    0    0    0    0  0.00000000000E+00  0.00000000000E+00  0.45593999997E+02  0.45594000000E+02  0.51100000000E-03 0. -1.
         11   -1    0    0    0    0 -0.00000000000E+00 -0.00000000000E+00 -0.45593999997E+02  0.45594000000E+02  0.51100000000E-03 0.  1.
    9900012    2    1    2    0    0 -0.29744020750E+00  0.10126383377E+01 -0.52834882135E+00  0.90007720560E+02  0.89999981671E+02 0.  0.
        -12    1    1    2    0    0  0.29744020750E+00 -0.10126383377E+01  0.52834882135E+00  0.11802794402E+01  0.00000000000E+00 0.  1.
         11    1    3    3    0    0  0.46010235229E+01  0.80768308628E+01 -0.24240133838E+01  0.96062716696E+01  0.51100000000E-03 0. -1.
        -11    1    3    3    0    0  0.23716972558E+02  0.92756416183E+01 -0.26608810003E+02  0.36831522977E+02  0.51100000000E-03 0.  1.
         12    1    3    3    0    0 -0.28615436289E+02 -0.16339834143E+02  0.28504474565E+02  0.43569925913E+02  0.00000000000E+00 0. -1.
</event>
<event>
 7    1  0.2497665E-015  0.9000841E+02  0.7816164E-02  0.1186338E+00
        -11   -1    0    0    0    0  0.00000000000E+00  0.00000000000E+00  0.45593999997E+02  0.45594000000E+02  0.51100000000E-03 0. -1.
         11   -1    0    0    0    0 -0.00000000000E+00 -0.00000000000E+00 -0.45593999997E+02  0.45594000000E+02  0.51100000000E-03 0.  1.
    9900012    2    1    2    0    0  0.97100467926E+00 -0.55192358069E+00 -0.37941604020E+00  0.90008412675E+02  0.90000682920E+02 0.  0.
        -12    1    1    2    0    0 -0.97100467926E+00  0.55192358069E+00  0.37941604020E+00  0.11795873251E+01  0.00000000000E+00 0.  1.
         11    1    3    3    0    0 -0.52765288512E+01 -0.12279100209E+02 -0.75516789940E+01  0.15350762670E+02  0.51100000000E-03 0. -1.
        -11    1    3    3    0    0  0.84753977041E+01 -0.30635929915E+02  0.50276730058E+01  0.32181828166E+02  0.51100000000E-03 0.  1.
         12    1    3    3    0    0 -0.22278641737E+01  0.42363106544E+02  0.21445899480E+01  0.42475821838E+02  0.00000000000E+00 0. -1.
</event>
<event>
 7    1  0.2497665E-015  0.9000774E+02  0.7816164E-02  0.1186339E+00
        -11   -1    0    0    0    0  0.00000000000E+00  0.00000000000E+00  0.45593999997E+02  0.45594000000E+02  0.51100000000E-03 0. -1.
         11   -1    0    0    0    0 -0.00000000000E+00 -0.00000000000E+00 -0.45593999997E+02  0.45594000000E+02  0.51100000000E-03 0.  1.
    9900012    2    1    2    0    0 -0.61880649721E+00  0.83997431246E+00  0.55184336016E+00  0.90007741799E+02  0.90000003191E+02 0.  0.
        -12    1    1    2    0    0  0.61880649721E+00 -0.83997431246E+00 -0.55184336016E+00  0.11802582009E+01  0.00000000000E+00 0.  1.
         11    1    3    3    0    0 -0.11569476351E+02  0.25460295993E+02 -0.28067306274E+02  0.39621372223E+02  0.51100000000E-03 0. -1.
        -11    1    3    3    0    0  0.73616649730E+01 -0.55978641059E+01 -0.57860664456E+01  0.10909113571E+02  0.51100000000E-03 0.  1.
        -12    1    3    3    0    0  0.35890048808E+01 -0.19022457575E+02  0.34405216080E+02  0.39477256005E+02  0.00000000000E+00 0.  1.
</event>
<event>
 7    1  0.2497665E-015  0.9000775E+02  0.7816164E-02  0.1186339E+00
        -11   -1    0    0    0    0  0.00000000000E+00  0.00000000000E+00  0.45593999997E+02  0.45594000000E+02  0.51100000000E-03 0.  1.
         11   -1    0    0    0    0 -0.00000000000E+00 -0.00000000000E+00 -0.45593999997E+02  0.45594000000E+02  0.51100000000E-03 0. -1.
    9900012    2    1    2    0    0  0.40529117561E+00 -0.10841411730E+01 -0.23101460281E+00  0.90007749702E+02  0.90000011198E+02 0.  0.
        -12    1    1    2    0    0 -0.40529117561E+00  0.10841411730E+01  0.23101460281E+00  0.11802502983E+01  0.00000000000E+00 0.  1.
         11    1    3    3    0    0  0.19730246076E+01 -0.46893788654E+01 -0.37282502413E+01  0.63073726994E+01  0.51100000000E-03 0. -1.
        -11    1    3    3    0    0  0.10154363355E+02 -0.38168041622E+02  0.72348740045E+01  0.40152881572E+02  0.51100000000E-03 0.  1.
         12    1    3    3    0    0 -0.11722096787E+02  0.41773279314E+02 -0.37376383660E+01  0.43547495431E+02  0.00000000000E+00 0. -1.
</event>
<event>
 7    1  0.2497665E-015  0.9000780E+02  0.7816164E-02  0.1186339E+00
        -11   -1    0    0    0    0  0.00000000000E+00  0.00000000000E+00  0.45593999997E+02  0.45594000000E+02  0.51100000000E-03 0. -1.
         11   -1    0    0    0    0 -0.00000000000E+00 -0.00000000000E+00 -0.45593999997E+02  0.45594000000E+02  0.51100000000E-03 0.  1.
    9900012    2    1    2    0    0 -0.63851988290E+00  0.92585663064E+00  0.35770804364E+00  0.90007799515E+02  0.90000061668E+02 0.  0.
        -12    1    1    2    0    0  0.63851988290E+00 -0.92585663064E+00 -0.35770804364E+00  0.11802004854E+01  0.00000000000E+00 0.  1.
         11    1    3    3    0    0  0.67473451400E-01  0.21148891965E+02  0.39125866712E+02  0.44475989368E+02  0.51100000000E-03 0. -1.
        -11    1    3    3    0    0 -0.48553848347E+01 -0.57759764231E+01 -0.65987378424E+01  0.10023971613E+02  0.51100000000E-03 0.  1.
        -12    1    3    3    0    0  0.41493915004E+01 -0.14447058911E+02 -0.32169420826E+02  0.35507838533E+02  0.00000000000E+00 0.  1.
</event>
<event>
 7    1  0.2497665E-015  0.9000767E+02  0.7816164E-02  0.1186339E+00
        -11   -1    0    0    0    0  0.00000000000E+00  0.00000000000E+00  0.45593999997E+02  0.45594000000E+02  0.51100000000E-03 0. -1.
         11   -1    0    0    0    0 -0.00000000000E+00 -0.00000000000E+00 -0.45593999997E+02  0.45594000000E+02  0.51100000000E-03 0.  1.
    9900012    2    1    2    0    0  0.49307893559E+00 -0.10178545972E+00  0.10675621267E+01  0.90007671228E+02  0.89999931688E+02 0.  0.
        -12    1    1    2    0    0 -0.49307893559E+00  0.10178545972E+00 -0.10675621267E+01  0.11803287723E+01  0.00000000000E+00 0.  1.
         11    1    3    3    0    0 -0.21391548125E+01 -0.68099654299E+01  0.56074843923E+01  0.90771963700E+01  0.51100000000E-03 0. -1.
        -11    1    3    3    0    0  0.14224285307E+02 -0.30566961848E+02  0.15435990484E+02  0.37080173295E+02  0.51100000000E-03 0.  1.
         12    1    3    3    0    0 -0.11592051559E+02  0.37275141818E+02 -0.19975912750E+02  0.43850301562E+02  0.00000000000E+00 0. -1.
</event>
<event>
 7    1  0.2497665E-015  0.9000783E+02  0.7816164E-02  0.1186339E+00
        -11   -1    0    0    0    0  0.00000000000E+00  0.00000000000E+00  0.45593999997E+02  0.45594000000E+02  0.51100000000E-03 0. -1.
         11   -1    0    0    0    0 -0.00000000000E+00 -0.00000000000E+00 -0.45593999997E+02  0.45594000000E+02  0.51100000000E-03 0.  1.
    9900012    2    1    2    0    0 -0.87824779715E+00  0.59924695063E+00  0.51223519592E+00  0.90007830098E+02  0.90000092656E+02 0.  0.
        -12    1    1    2    0    0  0.87824779715E+00 -0.59924695063E+00 -0.51223519592E+00  0.11801699017E+01  0.00000000000E+00 0.  1.
         11    1    3    3    0    0 -0.52960577434E+01  0.32938388930E+02  0.15469367749E+02  0.36773455532E+02  0.51100000000E-03 0. -1.
        -11    1    3    3    0    0 -0.55168169881E+01  0.76484632495E+01 -0.89822978117E-01  0.94309240368E+01  0.51100000000E-03 0.  1.
        -12    1    3    3    0    0  0.99346269343E+01 -0.39987605229E+02 -0.14867309575E+02  0.43803450529E+02  0.00000000000E+00 0.  1.
</event>
<event>
 7    1  0.3398487E-015  0.9000771E+02  0.7816164E-02  0.1186339E+00
        -11   -1    0    0    0    0  0.00000000000E+00  0.00000000000E+00  0.45593999997E+02  0.45594000000E+02  0.51100000000E-03 0. -1.
         11   -1    0    0    0    0 -0.00000000000E+00 -0.00000000000E+00 -0.45593999997E+02  0.45594000000E+02  0.51100000000E-03 0.  1.
    9900012    2    1    2    0    0  0.21651520407E-01  0.26913736720E+00  0.11489938251E+01  0.90007707443E+02  0.89999968381E+02 0.  0.
        -12    1    1    2    0    0 -0.21651520407E-01 -0.26913736720E+00 -0.11489938251E+01  0.11802925573E+01  0.00000000000E+00 0.  1.
         11    1    3    3    0    0 -0.29370773301E+02 -0.55666490467E+01  0.25568734329E+02  0.39336879406E+02  0.51100000000E-03 0. -1.
        -11    1    3    3    0    0  0.42599699032E+01 -0.39226285552E+01  0.71205013616E+01  0.91780116724E+01  0.51100000000E-03 0.  1.
        -12    1    3    3    0    0  0.25132454919E+02  0.97584149691E+01 -0.31540241865E+02  0.41492816365E+02  0.00000000000E+00 0.  1.
</event>
<event>
 7    1  0.2497665E-015  0.9000774E+02  0.7816164E-02  0.1186339E+00
        -11   -1    0    0    0    0  0.00000000000E+00  0.00000000000E+00  0.45593999997E+02  0.45594000000E+02  0.51100000000E-03 0.  1.
         11   -1    0    0    0    0 -0.00000000000E+00 -0.00000000000E+00 -0.45593999997E+02  0.45594000000E+02  0.51100000000E-03 0. -1.
    9900012    2    1    2    0    0  0.88478936505E+00 -0.76842814246E+00 -0.14026363292E+00  0.90007742436E+02  0.90000003836E+02 0.  0.
        -12    1    1    2    0    0 -0.88478936505E+00  0.76842814246E+00  0.14026363292E+00  0.11802575640E+01  0.00000000000E+00 0.  1.
         11    1    3    3    0    0 -0.23256072137E+01 -0.44520281568E+01 -0.90092931112E+01  0.10314861426E+02  0.51100000000E-03 0. -1.
        -11    1    3    3    0    0  0.13356806813E+02 -0.28978748417E+02 -0.17603737769E+02  0.36442608740E+02  0.51100000000E-03 0.  1.
         12    1    3    3    0    0 -0.10146410235E+02  0.32662348431E+02  0.26472767247E+02  0.43250272270E+02  0.00000000000E+00 0. -1.
</event>
<event>
 7    1  0.2497665E-015  0.9000684E+02  0.7816164E-02  0.1186341E+00
        -11   -1    0    0    0    0  0.00000000000E+00  0.00000000000E+00  0.45593999997E+02  0.45594000000E+02  0.51100000000E-03 0.  1.
         11   -1    0    0    0    0 -0.00000000000E+00 -0.00000000000E+00 -0.45593999997E+02  0.45594000000E+02  0.51100000000E-03 0. -1.
    9900012    2    1    2    0    0  0.44107243914E+00 -0.26926112278E-01 -0.10953854165E+01  0.90006839925E+02  0.89999089407E+02 0.  0.
        -12    1    1    2    0    0 -0.44107243914E+00  0.26926112278E-01  0.10953854165E+01  0.11811600750E+01  0.00000000000E+00 0.  1.
         11    1    3    3    0    0 -0.64283510854E+01 -0.15295793502E+01 -0.73024614160E+01  0.98483122239E+01  0.51100000000E-03 0. -1.
        -11    1    3    3    0    0 -0.33428512654E+02  0.90317667680E+01 -0.10052142194E+02  0.36056675279E+02  0.51100000000E-03 0.  1.
         12    1    3    3    0    0  0.40297936179E+02 -0.75291135300E+01  0.16259218193E+02  0.44101852422E+02  0.00000000000E+00 0. -1.
</event>
<event>
 7    1  0.2497665E-015  0.9000763E+02  0.7816164E-02  0.1186339E+00
        -11   -1    0    0    0    0  0.00000000000E+00  0.00000000000E+00  0.45593999997E+02  0.45594000000E+02  0.51100000000E-03 0.  1.
         11   -1    0    0    0    0 -0.00000000000E+00 -0.00000000000E+00 -0.45593999997E+02  0.45594000000E+02  0.51100000000E-03 0. -1.
    9900012    2    1    2    0    0  0.10706297266E+01  0.30415833106E+00  0.39307320887E+00  0.90007632748E+02  0.89999892700E+02 0.  0.
        -12    1    1    2    0    0 -0.10706297266E+01 -0.30415833106E+00 -0.39307320887E+00  0.11803672519E+01  0.00000000000E+00 0.  1.
         11    1    3    3    0    0 -0.28791100914E+01  0.77391935092E+01  0.22014636955E+01  0.85458079639E+01  0.51100000000E-03 0. -1.
        -11    1    3    3    0    0  0.64986721248E+01  0.23767652416E+02  0.28646518566E+02  0.37785672774E+02  0.51100000000E-03 0.  1.
         12    1    3    3    0    0 -0.25489323068E+01 -0.31202687594E+02 -0.30454909053E+02  0.43676152010E+02  0.00000000000E+00 0. -1.
</event>
<event>
 7    1  0.2497665E-015  0.9000770E+02  0.7816164E-02  0.1186339E+00
        -11   -1    0    0    0    0  0.00000000000E+00  0.00000000000E+00  0.45593999997E+02  0.45594000000E+02  0.51100000000E-03 0.  1.
         11   -1    0    0    0    0 -0.00000000000E+00 -0.00000000000E+00 -0.45593999997E+02  0.45594000000E+02  0.51100000000E-03 0. -1.
    9900012    2    1    2    0    0  0.24056327166E+00 -0.45676612992E+00 -0.10614144541E+01  0.90007700619E+02  0.89999961467E+02 0.  0.
        -12    1    1    2    0    0 -0.24056327166E+00  0.45676612992E+00  0.10614144541E+01  0.11802993808E+01  0.00000000000E+00 0.  1.
         11    1    3    3    0    0  0.92006694249E+01 -0.29541571353E+01 -0.44948143156E+01  0.10657519329E+02  0.51100000000E-03 0. -1.
        -11    1    3    3    0    0  0.15717554200E+02 -0.12802427597E+02  0.32475372890E+02  0.38283070762E+02  0.51100000000E-03 0.  1.
         12    1    3    3    0    0 -0.24677660353E+02  0.15299818602E+02 -0.29041973028E+02  0.41067110528E+02  0.00000000000E+00 0. -1.
</event>
<event>
 7    1  0.2497665E-015  0.9000773E+02  0.7816164E-02  0.1186339E+00
        -11   -1    0    0    0    0  0.00000000000E+00  0.00000000000E+00  0.45593999997E+02  0.45594000000E+02  0.51100000000E-03 0. -1.
         11   -1    0    0    0    0 -0.00000000000E+00 -0.00000000000E+00 -0.45593999997E+02  0.45594000000E+02  0.51100000000E-03 0.  1.
    9900012    2    1    2    0    0 -0.61242443166E+00 -0.91981130543E-01  0.10047396676E+01  0.90007734770E+02  0.89999996069E+02 0.  0.
        -12    1    1    2    0    0  0.61242443166E+00  0.91981130543E-01 -0.10047396676E+01  0.11802652297E+01  0.00000000000E+00 0.  1.
         11    1    3    3    0    0 -0.33794714068E+01 -0.21255391864E+01 -0.74481541814E+01  0.84506653462E+01  0.51100000000E-03 0. -1.
        -11    1    3    3    0    0 -0.28631938112E+02  0.44293738858E+01 -0.23043298002E+02  0.37018925108E+02  0.51100000000E-03 0.  1.
         12    1    3    3    0    0  0.31398985088E+02 -0.23958158299E+01  0.31496191851E+02  0.44538144316E+02  0.00000000000E+00 0. -1.
</event>
<event>
 7    1  0.2497665E-015  0.9000773E+02  0.7816164E-02  0.1186339E+00
        -11   -1    0    0    0    0  0.00000000000E+00  0.00000000000E+00  0.45593999997E+02  0.45594000000E+02  0.51100000000E-03 0. -1.
         11   -1    0    0    0    0 -0.00000000000E+00 -0.00000000000E+00 -0.45593999997E+02  0.45594000000E+02  0.51100000000E-03 0.  1.
    9900012    2    1    2    0    0  0.32104277201E-01  0.70835241087E+00  0.94352125405E+00  0.90007734700E+02  0.89999995998E+02 0.  0.
        -12    1    1    2    0    0 -0.32104277201E-01 -0.70835241087E+00 -0.94352125405E+00  0.11802653004E+01  0.00000000000E+00 0.  1.
         11    1    3    3    0    0 -0.33755167652E+02 -0.15007532460E+02  0.23981580583E+02  0.44042633678E+02  0.51100000000E-03 0. -1.
        -11    1    3    3    0    0  0.48542622361E+01 -0.11331547706E+01 -0.76166177347E+01  0.91027889994E+01  0.51100000000E-03 0.  1.
        -12    1    3    3    0    0  0.28933009693E+02  0.16849039641E+02 -0.15421441595E+02  0.36862312022E+02  0.00000000000E+00 0.  1.
</event>
<event>
 7    1  0.2497665E-015  0.9000778E+02  0.7816164E-02  0.1186339E+00
        -11   -1    0    0    0    0  0.00000000000E+00  0.00000000000E+00  0.45593999997E+02  0.45594000000E+02  0.51100000000E-03 0. -1.
         11   -1    0    0    0    0 -0.00000000000E+00 -0.00000000000E+00 -0.45593999997E+02  0.45594000000E+02  0.51100000000E-03 0.  1.
    9900012    2    1    2    0    0  0.11387836958E+01  0.21392673359E+00 -0.22433312971E+00  0.90007780399E+02  0.90000042300E+02 0.  0.
        -12    1    1    2    0    0 -0.11387836958E+01 -0.21392673359E+00  0.22433312971E+00  0.11802196008E+01  0.00000000000E+00 0.  1.
         11    1    3    3    0    0 -0.34321041173E+02  0.12497067583E+02 -0.26023096808E+01  0.36618063593E+02  0.51100000000E-03 0. -1.
        -11    1    3    3    0    0 -0.68143722251E+01  0.72007680621E+00 -0.50885263477E+01  0.85350618089E+01  0.51100000000E-03 0.  1.
        -12    1    3    3    0    0  0.42274197094E+02 -0.13003217656E+02  0.74665028988E+01  0.44854654997E+02  0.00000000000E+00 0.  1.
</event>
<event>
 7    1  0.2497665E-015  0.9000762E+02  0.7816164E-02  0.1186339E+00
        -11   -1    0    0    0    0  0.00000000000E+00  0.00000000000E+00  0.45593999997E+02  0.45594000000E+02  0.51100000000E-03 0.  1.
         11   -1    0    0    0    0 -0.00000000000E+00 -0.00000000000E+00 -0.45593999997E+02  0.45594000000E+02  0.51100000000E-03 0. -1.
    9900012    2    1    2    0    0 -0.11527270690E+01 -0.21989583801E+00 -0.12710745096E+00  0.90007622866E+02  0.89999882687E+02 0.  0.
        -12    1    1    2    0    0  0.11527270690E+01  0.21989583801E+00  0.12710745096E+00  0.11803771344E+01  0.00000000000E+00 0.  1.
         11    1    3    3    0    0  0.22874727110E+01 -0.81799202477E+01  0.47675517836E+01  0.97402862860E+01  0.51100000000E-03 0. -1.
        -11    1    3    3    0    0 -0.40499031128E+02  0.60089060839E+01  0.64823818900E+01  0.41452379303E+02  0.51100000000E-03 0.  1.
         12    1    3    3    0    0  0.37058831348E+02  0.19511183258E+01 -0.11377041125E+02  0.38814957276E+02  0.00000000000E+00 0. -1.
</event>
<event>
 7    1  0.2497665E-015  0.9000765E+02  0.7816164E-02  0.1186339E+00
        -11   -1    0    0    0    0  0.00000000000E+00  0.00000000000E+00  0.45593999997E+02  0.45594000000E+02  0.51100000000E-03 0.  1.
         11   -1    0    0    0    0 -0.00000000000E+00 -0.00000000000E+00 -0.45593999997E+02  0.45594000000E+02  0.51100000000E-03 0. -1.
    9900012    2    1    2    0    0  0.50674869517E+00  0.73215818782E+00 -0.77484480180E+00  0.90007646528E+02  0.89999906662E+02 0.  0.
        -12    1    1    2    0    0 -0.50674869517E+00 -0.73215818782E+00  0.77484480180E+00  0.11803534720E+01  0.00000000000E+00 0.  1.
         11    1    3    3    0    0  0.18249627712E+02 -0.16383140239E+02 -0.30065129679E+02  0.38799074971E+02  0.51100000000E-03 0. -1.
        -11    1    3    3    0    0 -0.15745806880E+02 -0.60361918659E+01  0.49901334228E+01  0.17586002342E+02  0.51100000000E-03 0.  1.
        -12    1    3    3    0    0 -0.19970721367E+01  0.23151490292E+02  0.24300151455E+02  0.33622569215E+02  0.00000000000E+00 0.  1.
</event>
<event>
 7    1  0.2497665E-015  0.9000769E+02  0.7816164E-02  0.1186339E+00
        -11   -1    0    0    0    0  0.00000000000E+00  0.00000000000E+00  0.45593999997E+02  0.45594000000E+02  0.51100000000E-03 0.  1.
         11   -1    0    0    0    0 -0.00000000000E+00 -0.00000000000E+00 -0.45593999997E+02  0.45594000000E+02  0.51100000000E-03 0. -1.
    9900012    2    1    2    0    0 -0.97645789078E+00  0.77320147250E-01 -0.65855072510E+00  0.90007687552E+02  0.89999948228E+02 0.  0.
        -12    1    1    2    0    0  0.97645789078E+00 -0.77320147250E-01  0.65855072510E+00  0.11803124481E+01  0.00000000000E+00 0.  1.
         11    1    3    3    0    0  0.37710522940E+01 -0.24707531924E+01  0.77275594295E+01  0.89465430050E+01  0.51100000000E-03 0. -1.
        -11    1    3    3    0    0  0.12445408577E+02  0.37572104723E+02 -0.13259306011E+02  0.41741591298E+02  0.51100000000E-03 0.  1.
         12    1    3    3    0    0 -0.17192918762E+02 -0.35024031383E+02  0.48731958560E+01  0.39319553249E+02  0.00000000000E+00 0. -1.
</event>
<event>
 7    1  0.2497665E-015  0.9000773E+02  0.7816164E-02  0.1186339E+00
        -11   -1    0    0    0    0  0.00000000000E+00  0.00000000000E+00  0.45593999997E+02  0.45594000000E+02  0.51100000000E-03 0.  1.
         11   -1    0    0    0    0 -0.00000000000E+00 -0.00000000000E+00 -0.45593999997E+02  0.45594000000E+02  0.51100000000E-03 0. -1.
    9900012    2    1    2    0    0  0.89284112135E+00 -0.94911645475E-01 -0.76607797410E+00  0.90007725053E+02  0.89999986224E+02 0.  0.
        -12    1    1    2    0    0 -0.89284112135E+00  0.94911645475E-01  0.76607797410E+00  0.11802749471E+01  0.00000000000E+00 0.  1.
         11    1    3    3    0    0  0.97007662484E+01 -0.12113997983E+01 -0.21039792821E-01  0.97761341138E+01  0.51100000000E-03 0. -1.
        -11    1    3    3    0    0 -0.28622703100E+02  0.26696319602E+02  0.17733633030E+02  0.42970156548E+02  0.51100000000E-03 0.  1.
         12    1    3    3    0    0  0.19814777973E+02 -0.25579831449E+02 -0.18478671212E+02  0.37261434391E+02  0.00000000000E+00 0. -1.
</event>
<event>
 7    1  0.2497665E-015  0.9000773E+02  0.7816164E-02  0.1186339E+00
        -11   -1    0    0    0    0  0.00000000000E+00  0.00000000000E+00  0.45593999997E+02  0.45594000000E+02  0.51100000000E-03 0.  1.
         11   -1    0    0    0    0 -0.00000000000E+00 -0.00000000000E+00 -0.45593999997E+02  0.45594000000E+02  0.51100000000E-03 0. -1.
    9900012    2    1    2    0    0 -0.73120541840E+00 -0.91125091784E+00  0.16730070217E+00  0.90007733452E+02  0.89999994734E+02 0.  0.
        -12    1    1    2    0    0  0.73120541840E+00  0.91125091784E+00 -0.16730070217E+00  0.11802665479E+01  0.00000000000E+00 0.  1.
         11    1    3    3    0    0 -0.86719303506E+01 -0.44439578699E-01 -0.46690003534E+01  0.98490565763E+01  0.51100000000E-03 0. -1.
        -11    1    3    3    0    0 -0.35486854282E+02 -0.67800399064E+01  0.36725224144E+01  0.36314916895E+02  0.51100000000E-03 0.  1.
         12    1    3    3    0    0  0.43427579214E+02  0.59132285673E+01  0.11637786412E+01  0.43843759980E+02  0.00000000000E+00 0. -1.
</event>
<event>
 7    1  0.2497665E-015  0.9000776E+02  0.7816164E-02  0.1186339E+00
        -11   -1    0    0    0    0  0.00000000000E+00  0.00000000000E+00  0.45593999997E+02  0.45594000000E+02  0.51100000000E-03 0.  1.
         11   -1    0    0    0    0 -0.00000000000E+00 -0.00000000000E+00 -0.45593999997E+02  0.45594000000E+02  0.51100000000E-03 0. -1.
    9900012    2    1    2    0    0  0.98688572447E-01  0.23215036568E+00 -0.11529648321E+01  0.90007762257E+02  0.90000023919E+02 0.  0.
        -12    1    1    2    0    0 -0.98688572447E-01 -0.23215036568E+00  0.11529648321E+01  0.11802377433E+01  0.00000000000E+00 0.  1.
         11    1    3    3    0    0  0.79931016216E+01  0.22511177514E+02 -0.24668257780E+02  0.34338982640E+02  0.51100000000E-03 0. -1.
        -11    1    3    3    0    0 -0.16098049224E+02  0.36757805138E+01 -0.39727782108E+01  0.16983566120E+02  0.51100000000E-03 0.  1.
        -12    1    3    3    0    0  0.82036361746E+01 -0.25954807662E+02  0.27488071158E+02  0.38685213496E+02  0.00000000000E+00 0.  1.
</event>
<event>
 7    1  0.2497665E-015  0.9000773E+02  0.7816164E-02  0.1186339E+00
        -11   -1    0    0    0    0  0.00000000000E+00  0.00000000000E+00  0.45593999997E+02  0.45594000000E+02  0.51100000000E-03 0.  1.
         11   -1    0    0    0    0 -0.00000000000E+00 -0.00000000000E+00 -0.45593999997E+02  0.45594000000E+02  0.51100000000E-03 0. -1.
    9900012    2    1    2    0    0  0.58044247611E+00  0.10123902325E+01 -0.17659716382E+00  0.90007731383E+02  0.89999992637E+02 0.  0.
        -12    1    1    2    0    0 -0.58044247611E+00 -0.10123902325E+01  0.17659716382E+00  0.11802686174E+01  0.00000000000E+00 0.  1.
         11    1    3    3    0    0 -0.13107550539E+02 -0.83049991642E+01 -0.34995341800E+02  0.38281259648E+02  0.51100000000E-03 0. -1.
        -11    1    3    3    0    0  0.41110178437E+01  0.27391433637E+01 -0.68628245641E+01  0.84558698747E+01  0.51100000000E-03 0.  1.
        -12    1    3    3    0    0  0.95769751713E+01  0.65782460330E+01  0.41681569201E+02  0.43270601860E+02  0.00000000000E+00 0.  1.
</event>
<event>
 7    1  0.2497665E-015  0.9000770E+02  0.7816164E-02  0.1186339E+00
        -11   -1    0    0    0    0  0.00000000000E+00  0.00000000000E+00  0.45593999997E+02  0.45594000000E+02  0.51100000000E-03 0.  1.
         11   -1    0    0    0    0 -0.00000000000E+00 -0.00000000000E+00 -0.45593999997E+02  0.45594000000E+02  0.51100000000E-03 0. -1.
    9900012    2    1    2    0    0  0.96948979312E+00  0.59087549110E+00  0.32259637911E+00  0.90007698035E+02  0.89999958849E+02 0.  0.
        -12    1    1    2    0    0 -0.96948979312E+00 -0.59087549110E+00 -0.32259637911E+00  0.11803019651E+01  0.00000000000E+00 0.  1.
         11    1    3    3    0    0  0.14823455883E+01  0.10007462249E+02  0.25323145049E+01  0.10428771074E+02  0.51100000000E-03 0. -1.
        -11    1    3    3    0    0  0.21566648882E+02 -0.28541667370E+02  0.21691170783E+02  0.41836037222E+02  0.51100000000E-03 0.  1.
         12    1    3    3    0    0 -0.22079504677E+02  0.19125080612E+02 -0.23900888909E+02  0.37742889739E+02  0.00000000000E+00 0. -1.
</event>
<event>
 7    1  0.2497665E-015  0.9000774E+02  0.7816164E-02  0.1186339E+00
        -11   -1    0    0    0    0  0.00000000000E+00  0.00000000000E+00  0.45593999997E+02  0.45594000000E+02  0.51100000000E-03 0.  1.
         11   -1    0    0    0    0 -0.00000000000E+00 -0.00000000000E+00 -0.45593999997E+02  0.45594000000E+02  0.51100000000E-03 0. -1.
    9900012    2    1    2    0    0 -0.12626305472E+00 -0.11342345914E+01 -0.30096961169E+00  0.90007740209E+02  0.90000001580E+02 0.  0.
        -12    1    1    2    0    0  0.12626305472E+00  0.11342345914E+01  0.30096961169E+00  0.11802597911E+01  0.00000000000E+00 0.  1.
         11    1    3    3    0    0 -0.17377207198E+02 -0.22159125583E+02 -0.10744665287E+02  0.30140371746E+02  0.51100000000E-03 0. -1.
        -11    1    3    3    0    0 -0.59353322407E+00 -0.12144954028E+02 -0.11110434529E+02  0.16471003178E+02  0.51100000000E-03 0.  1.
        -12    1    3    3    0    0  0.17844477367E+02  0.33169845019E+02  0.21554130204E+02  0.43396365285E+02  0.00000000000E+00 0.  1.
</event>
<event>
 7    1  0.2497665E-015  0.9000778E+02  0.7816164E-02  0.1186339E+00
        -11   -1    0    0    0    0  0.00000000000E+00  0.00000000000E+00  0.45593999997E+02  0.45594000000E+02  0.51100000000E-03 0.  1.
         11   -1    0    0    0    0 -0.00000000000E+00 -0.00000000000E+00 -0.45593999997E+02  0.45594000000E+02  0.51100000000E-03 0. -1.
    9900012    2    1    2    0    0 -0.75242620568E+00 -0.12168484002E+00 -0.90109262216E+00  0.90007779551E+02  0.90000041441E+02 0.  0.
        -12    1    1    2    0    0  0.75242620568E+00  0.12168484002E+00  0.90109262216E+00  0.11802204493E+01  0.00000000000E+00 0.  1.
         11    1    3    3    0    0 -0.88499808003E+01  0.14785429262E+01  0.76706060506E+01  0.11804509596E+02  0.51100000000E-03 0. -1.
        -11    1    3    3    0    0 -0.24161217876E+02  0.25742378359E+02 -0.15690906090E+01  0.35339730311E+02  0.51100000000E-03 0.  1.
         12    1    3    3    0    0  0.32258772471E+02 -0.27342606126E+02 -0.70026080638E+01  0.42863539644E+02  0.00000000000E+00 0. -1.
</event>
<event>
 7    1  0.2497665E-015  0.9000765E+02  0.7816164E-02  0.1186339E+00
        -11   -1    0    0    0    0  0.00000000000E+00  0.00000000000E+00  0.45593999997E+02  0.45594000000E+02  0.51100000000E-03 0.  1.
         11   -1    0    0    0    0 -0.00000000000E+00 -0.00000000000E+00 -0.45593999997E+02  0.45594000000E+02  0.51100000000E-03 0. -1.
    9900012    2    1    2    0    0  0.82386792782E+00  0.28691148431E+00  0.79507163022E+00  0.90007654517E+02  0.89999914756E+02 0.  0.
        -12    1    1    2    0    0 -0.82386792782E+00 -0.28691148431E+00 -0.79507163022E+00  0.11803454831E+01  0.00000000000E+00 0.  1.
         11    1    3    3    0    0 -0.38092131245E+01 -0.64762412203E+01  0.33991120820E+01  0.82465609910E+01  0.51100000000E-03 0. -1.
        -11    1    3    3    0    0 -0.31528139830E+02 -0.19008136323E+02 -0.56771376557E+01  0.37250003219E+02  0.51100000000E-03 0.  1.
         12    1    3    3    0    0  0.36161220882E+02  0.25771289028E+02  0.30730972039E+01  0.44511090307E+02  0.00000000000E+00 0. -1.
</event>
<event>
 7    1  0.2497665E-015  0.9000772E+02  0.7816164E-02  0.1186339E+00
        -11   -1    0    0    0    0  0.00000000000E+00  0.00000000000E+00  0.45593999997E+02  0.45594000000E+02  0.51100000000E-03 0.  1.
         11   -1    0    0    0    0 -0.00000000000E+00 -0.00000000000E+00 -0.45593999997E+02  0.45594000000E+02  0.51100000000E-03 0. -1.
    9900012    2    1    2    0    0  0.44540349603E+00  0.94072384339E+00  0.55652891402E+00  0.90007716112E+02  0.89999977165E+02 0.  0.
        -12    1    1    2    0    0 -0.44540349603E+00 -0.94072384339E+00 -0.55652891402E+00  0.11802838879E+01  0.00000000000E+00 0.  1.
         11    1    3    3    0    0 -0.42296632713E+01  0.75564415277E+01 -0.13129251439E+00  0.86606638277E+01  0.51100000000E-03 0. -1.
        -11    1    3    3    0    0  0.32555272000E+02  0.23460354248E+02 -0.25506639657E+01  0.40208703577E+02  0.51100000000E-03 0.  1.
         12    1    3    3    0    0 -0.27880205232E+02 -0.30076071933E+02  0.32384853942E+01  0.41138348707E+02  0.00000000000E+00 0. -1.
</event>
<event>
 7    1  0.2497665E-015  0.9000770E+02  0.7816164E-02  0.1186339E+00
        -11   -1    0    0    0    0  0.00000000000E+00  0.00000000000E+00  0.45593999997E+02  0.45594000000E+02  0.51100000000E-03 0. -1.
         11   -1    0    0    0    0 -0.00000000000E+00 -0.00000000000E+00 -0.45593999997E+02  0.45594000000E+02  0.51100000000E-03 0.  1.
    9900012    2    1    2    0    0 -0.89923498838E-01 -0.43376461524E+00  0.10940132307E+01  0.90007702188E+02  0.89999963056E+02 0.  0.
        -12    1    1    2    0    0  0.89923498838E-01  0.43376461524E+00 -0.10940132307E+01  0.11802978125E+01  0.00000000000E+00 0.  1.
         11    1    3    3    0    0  0.10559154010E+02 -0.25973301874E+01  0.21303757426E+01  0.11080629882E+02  0.51100000000E-03 0. -1.
        -11    1    3    3    0    0  0.31707684141E+02 -0.37003379437E+01 -0.13086156986E+02  0.34500974471E+02  0.51100000000E-03 0.  1.
         12    1    3    3    0    0 -0.42356761650E+02  0.58639035159E+01  0.12049794474E+02  0.44426097835E+02  0.00000000000E+00 0. -1.
</event>
<event>
 7    1  0.2497665E-015  0.9000786E+02  0.7816164E-02  0.1186339E+00
        -11   -1    0    0    0    0  0.00000000000E+00  0.00000000000E+00  0.45593999997E+02  0.45594000000E+02  0.51100000000E-03 0. -1.
         11   -1    0    0    0    0 -0.00000000000E+00 -0.00000000000E+00 -0.45593999997E+02  0.45594000000E+02  0.51100000000E-03 0.  1.
    9900012    2    1    2    0    0 -0.82665124721E-01 -0.24672227604E-01  0.11769862651E+01  0.90007856403E+02  0.90000119307E+02 0.  0.
        -12    1    1    2    0    0  0.82665124721E-01  0.24672227604E-01 -0.11769862651E+01  0.11801435972E+01  0.00000000000E+00 0.  1.
         11    1    3    3    0    0  0.27855693791E+02  0.14913391048E+01  0.22134224487E+02  0.35610218517E+02  0.51100000000E-03 0. -1.
        -11    1    3    3    0    0  0.16931671132E+01  0.14298721390E+01  0.10705402662E+02  0.10932382889E+02  0.51100000000E-03 0.  1.
        -12    1    3    3    0    0 -0.29631526029E+02 -0.29458834714E+01 -0.31662640884E+02  0.43465254997E+02  0.00000000000E+00 0.  1.
</event>
<event>
 7    1  0.2497665E-015  0.9000787E+02  0.7816164E-02  0.1186339E+00
        -11   -1    0    0    0    0  0.00000000000E+00  0.00000000000E+00  0.45593999997E+02  0.45594000000E+02  0.51100000000E-03 0.  1.
         11   -1    0    0    0    0 -0.00000000000E+00 -0.00000000000E+00 -0.45593999997E+02  0.45594000000E+02  0.51100000000E-03 0. -1.
    9900012    2    1    2    0    0  0.78307348755E+00 -0.46181212153E-01 -0.88168420451E+00  0.90007871266E+02  0.90000134367E+02 0.  0.
        -12    1    1    2    0    0 -0.78307348755E+00  0.46181212153E-01  0.88168420451E+00  0.11801287335E+01  0.00000000000E+00 0.  1.
         11    1    3    3    0    0 -0.33024584566E+01 -0.64252975149E+01 -0.89381161964E+01  0.11492632484E+02  0.51100000000E-03 0. -1.
        -11    1    3    3    0    0  0.28411962224E+02 -0.25376552114E+02  0.43067728147E+01  0.38337413671E+02  0.51100000000E-03 0.  1.
         12    1    3    3    0    0 -0.24326430280E+02  0.31755668417E+02  0.37496591772E+01  0.40177825112E+02  0.00000000000E+00 0. -1.
</event>
<event>
 7    1  0.2497665E-015  0.9000767E+02  0.7816164E-02  0.1186339E+00
        -11   -1    0    0    0    0  0.00000000000E+00  0.00000000000E+00  0.45593999997E+02  0.45594000000E+02  0.51100000000E-03 0. -1.
         11   -1    0    0    0    0 -0.00000000000E+00 -0.00000000000E+00 -0.45593999997E+02  0.45594000000E+02  0.51100000000E-03 0.  1.
    9900012    2    1    2    0    0  0.41537011036E+00 -0.62291747562E-01  0.11030659869E+01  0.90007674976E+02  0.89999935486E+02 0.  0.
        -12    1    1    2    0    0 -0.41537011036E+00  0.62291747562E-01 -0.11030659869E+01  0.11803250238E+01  0.00000000000E+00 0.  1.
         11    1    3    3    0    0  0.19760009868E+01  0.41545517830E+02 -0.59960129942E+01  0.42022455946E+02  0.51100000000E-03 0. -1.
        -11    1    3    3    0    0 -0.44774696377E+01 -0.37022486311E+01  0.80836071458E+01  0.99548522858E+01  0.51100000000E-03 0.  1.
        -12    1    3    3    0    0  0.29168387612E+01 -0.37905560946E+02 -0.98452816469E+00  0.38030366744E+02  0.00000000000E+00 0.  1.
</event>
<event>
 7    1  0.2497665E-015  0.9000770E+02  0.7816164E-02  0.1186339E+00
        -11   -1    0    0    0    0  0.00000000000E+00  0.00000000000E+00  0.45593999997E+02  0.45594000000E+02  0.51100000000E-03 0. -1.
         11   -1    0    0    0    0 -0.00000000000E+00 -0.00000000000E+00 -0.45593999997E+02  0.45594000000E+02  0.51100000000E-03 0.  1.
    9900012    2    1    2    0    0  0.77735304996E+00  0.88569973248E+00  0.66050839093E-01  0.90007701523E+02  0.89999962384E+02 0.  0.
        -12    1    1    2    0    0 -0.77735304996E+00 -0.88569973248E+00 -0.66050839093E-01  0.11802984765E+01  0.00000000000E+00 0.  1.
         11    1    3    3    0    0 -0.23682359510E+02  0.26695100361E+02  0.80645245380E+01  0.36585777176E+02  0.51100000000E-03 0. -1.
        -11    1    3    3    0    0 -0.94804106022E+01 -0.29307438228E+01  0.41050610256E+01  0.10738667088E+02  0.51100000000E-03 0.  1.
        -12    1    3    3    0    0  0.33940123162E+02 -0.22878656806E+02 -0.12103534725E+02  0.42683257260E+02  0.00000000000E+00 0.  1.
</event>
<event>
 7    1  0.2497665E-015  0.9000767E+02  0.7816164E-02  0.1186339E+00
        -11   -1    0    0    0    0  0.00000000000E+00  0.00000000000E+00  0.45593999997E+02  0.45594000000E+02  0.51100000000E-03 0.  1.
         11   -1    0    0    0    0 -0.00000000000E+00 -0.00000000000E+00 -0.45593999997E+02  0.45594000000E+02  0.51100000000E-03 0. -1.
    9900012    2    1    2    0    0 -0.26130648167E-01  0.11505233864E+01 -0.26228772502E+00  0.90007668807E+02  0.89999929236E+02 0.  0.
        -12    1    1    2    0    0  0.26130648167E-01 -0.11505233864E+01  0.26228772502E+00  0.11803311925E+01  0.00000000000E+00 0.  1.
         11    1    3    3    0    0  0.29179420787E+01  0.10288906679E+02  0.52502960227E+01  0.11913924426E+02  0.51100000000E-03 0. -1.
        -11    1    3    3    0    0  0.22033765828E+02  0.62883042014E+01  0.26248591466E+02  0.34842763388E+02  0.51100000000E-03 0.  1.
         12    1    3    3    0    0 -0.24977838555E+02 -0.15426687494E+02 -0.31761175214E+02  0.43250980994E+02  0.00000000000E+00 0. -1.
</event>
<event>
 7    1  0.2497665E-015  0.9000778E+02  0.7816164E-02  0.1186339E+00
        -11   -1    0    0    0    0  0.00000000000E+00  0.00000000000E+00  0.45593999997E+02  0.45594000000E+02  0.51100000000E-03 0.  1.
         11   -1    0    0    0    0 -0.00000000000E+00 -0.00000000000E+00 -0.45593999997E+02  0.45594000000E+02  0.51100000000E-03 0. -1.
    9900012    2    1    2    0    0  0.84632383088E+00 -0.80825115355E+00 -0.15293810405E+00  0.90007777980E+02  0.90000039849E+02 0.  0.
        -12    1    1    2    0    0 -0.84632383088E+00  0.80825115355E+00  0.15293810405E+00  0.11802220205E+01  0.00000000000E+00 0.  1.
         11    1    3    3    0    0 -0.60859998232E+01  0.92833633055E+01 -0.41202475568E+02  0.42671585643E+02  0.51100000000E-03 0. -1.
        -11    1    3    3    0    0 -0.45933397866E+01  0.32589035294E+01  0.69510984108E+01  0.89463395859E+01  0.51100000000E-03 0.  1.
        -12    1    3    3    0    0  0.11525663441E+02 -0.13350517988E+02  0.34098439053E+02  0.38389852750E+02  0.00000000000E+00 0.  1.
</event>
<event>
 7    1  0.2497665E-015  0.9000762E+02  0.7816164E-02  0.1186339E+00
        -11   -1    0    0    0    0  0.00000000000E+00  0.00000000000E+00  0.45593999997E+02  0.45594000000E+02  0.51100000000E-03 0.  1.
         11   -1    0    0    0    0 -0.00000000000E+00 -0.00000000000E+00 -0.45593999997E+02  0.45594000000E+02  0.51100000000E-03 0. -1.
    9900012    2    1    2    0    0 -0.73480625338E+00 -0.50052783926E+00 -0.77642298679E+00  0.90007618281E+02  0.89999878042E+02 0.  0.
        -12    1    1    2    0    0  0.73480625338E+00  0.50052783926E+00  0.77642298679E+00  0.11803817189E+01  0.00000000000E+00 0.  1.
         11    1    3    3    0    0  0.49196305396E+01 -0.62460593371E+01 -0.44056201556E+01  0.90898575954E+01  0.51100000000E-03 0. -1.
        -11    1    3    3    0    0  0.83398034568E+01  0.40480308610E+02 -0.71612015475E+01  0.41946281298E+02  0.51100000000E-03 0.  1.
         12    1    3    3    0    0 -0.13994240250E+02 -0.34734777112E+02  0.10790398716E+02  0.38971479388E+02  0.00000000000E+00 0. -1.
</event>
<event>
 7    1  0.2497665E-015  0.9000780E+02  0.7816164E-02  0.1186339E+00
        -11   -1    0    0    0    0  0.00000000000E+00  0.00000000000E+00  0.45593999997E+02  0.45594000000E+02  0.51100000000E-03 0. -1.
         11   -1    0    0    0    0 -0.00000000000E+00 -0.00000000000E+00 -0.45593999997E+02  0.45594000000E+02  0.51100000000E-03 0.  1.
    9900012    2    1    2    0    0  0.10903647780E+01 -0.20632532166E+00 -0.40174359554E+00  0.90007803659E+02  0.90000065867E+02 0.  0.
        -12    1    1    2    0    0 -0.10903647780E+01  0.20632532166E+00  0.40174359554E+00  0.11801963413E+01  0.00000000000E+00 0.  1.
         11    1    3    3    0    0 -0.11753469580E+02 -0.28391528821E+02  0.18694433984E+02  0.35968108349E+02  0.51100000000E-03 0. -1.
        -11    1    3    3    0    0  0.32739239504E+01 -0.10011245017E+02 -0.64119332904E+00  0.10552475254E+02  0.51100000000E-03 0.  1.
        -12    1    3    3    0    0  0.95699104073E+01  0.38196448517E+02 -0.18454984250E+02  0.43487220056E+02  0.00000000000E+00 0.  1.
</event>
<event>
 7    1  0.2497665E-015  0.9000782E+02  0.7816164E-02  0.1186339E+00
        -11   -1    0    0    0    0  0.00000000000E+00  0.00000000000E+00  0.45593999997E+02  0.45594000000E+02  0.51100000000E-03 0.  1.
         11   -1    0    0    0    0 -0.00000000000E+00 -0.00000000000E+00 -0.45593999997E+02  0.45594000000E+02  0.51100000000E-03 0. -1.
    9900012    2    1    2    0    0  0.27515525560E+00 -0.66338553501E+00 -0.93649817542E+00  0.90007822210E+02  0.90000084663E+02 0.  0.
        -12    1    1    2    0    0 -0.27515525560E+00  0.66338553501E+00  0.93649817542E+00  0.11801777897E+01  0.00000000000E+00 0.  1.
         11    1    3    3    0    0 -0.10089335966E+02 -0.29975718615E+02 -0.19083210838E+02  0.36939238525E+02  0.51100000000E-03 0. -1.
        -11    1    3    3    0    0 -0.69823542764E+01 -0.13567877345E+01 -0.68439722583E+01  0.98708713258E+01  0.51100000000E-03 0.  1.
        -12    1    3    3    0    0  0.17346845498E+02  0.30669120814E+02  0.24990684920E+02  0.43197712359E+02  0.00000000000E+00 0.  1.
</event>
<event>
 7    1  0.2497665E-015  0.9000775E+02  0.7816164E-02  0.1186339E+00
        -11   -1    0    0    0    0  0.00000000000E+00  0.00000000000E+00  0.45593999997E+02  0.45594000000E+02  0.51100000000E-03 0.  1.
         11   -1    0    0    0    0 -0.00000000000E+00 -0.00000000000E+00 -0.45593999997E+02  0.45594000000E+02  0.51100000000E-03 0. -1.
    9900012    2    1    2    0    0  0.53344364132E+00 -0.94449596561E+00 -0.46515009019E+00  0.90007746064E+02  0.90000007512E+02 0.  0.
        -12    1    1    2    0    0 -0.53344364132E+00  0.94449596561E+00  0.46515009019E+00  0.11802539362E+01  0.00000000000E+00 0.  1.
         11    1    3    3    0    0 -0.34544490593E+02  0.38119745856E+01 -0.71535434007E+00  0.34761540712E+02  0.51100000000E-03 0. -1.
        -11    1    3    3    0    0 -0.27560314631E+01  0.12700773620E+02 -0.33573857697E+01  0.13423017523E+02  0.51100000000E-03 0.  1.
        -12    1    3    3    0    0  0.37833965697E+02 -0.17457244171E+02  0.36075900196E+01  0.41823187829E+02  0.00000000000E+00 0.  1.
</event>
<event>
 7    1  0.2497665E-015  0.9000781E+02  0.7816164E-02  0.1186339E+00
        -11   -1    0    0    0    0  0.00000000000E+00  0.00000000000E+00  0.45593999997E+02  0.45594000000E+02  0.51100000000E-03 0.  1.
         11   -1    0    0    0    0 -0.00000000000E+00 -0.00000000000E+00 -0.45593999997E+02  0.45594000000E+02  0.51100000000E-03 0. -1.
    9900012    2    1    2    0    0 -0.10451237196E+01  0.44374602474E+00  0.32195475656E+00  0.90007809766E+02  0.90000072055E+02 0.  0.
        -12    1    1    2    0    0  0.10451237196E+01 -0.44374602474E+00 -0.32195475656E+00  0.11801902342E+01  0.00000000000E+00 0.  1.
         11    1    3    3    0    0  0.68461416505E+01  0.61172133100E+01  0.56543804473E+01  0.10782484532E+02  0.51100000000E-03 0. -1.
        -11    1    3    3    0    0 -0.21785420309E+02  0.32097023919E+02 -0.20315386224E+01  0.38845213759E+02  0.51100000000E-03 0.  1.
         12    1    3    3    0    0  0.13894154939E+02 -0.37770491205E+02 -0.33008870684E+01  0.40380111475E+02  0.00000000000E+00 0. -1.
</event>
<event>
 7    1  0.2497665E-015  0.9000771E+02  0.7816164E-02  0.1186339E+00
        -11   -1    0    0    0    0  0.00000000000E+00  0.00000000000E+00  0.45593999997E+02  0.45594000000E+02  0.51100000000E-03 0. -1.
         11   -1    0    0    0    0 -0.00000000000E+00 -0.00000000000E+00 -0.45593999997E+02  0.45594000000E+02  0.51100000000E-03 0.  1.
    9900012    2    1    2    0    0  0.44163743500E+00  0.43737004520E+00  0.10033635721E+01  0.90007714171E+02  0.89999975198E+02 0.  0.
        -12    1    1    2    0    0 -0.44163743500E+00 -0.43737004520E+00 -0.10033635721E+01  0.11802858290E+01  0.00000000000E+00 0.  1.
         11    1    3    3    0    0 -0.75703231018E+01  0.28762863090E+02 -0.21763361948E+02  0.36854524940E+02  0.51100000000E-03 0. -1.
        -11    1    3    3    0    0 -0.47521232428E+01  0.64945369198E+01 -0.23249008314E+01  0.83765654808E+01  0.51100000000E-03 0.  1.
        -12    1    3    3    0    0  0.12764083780E+02 -0.34820029965E+02  0.25091626352E+02  0.44776623750E+02  0.00000000000E+00 0.  1.
</event>
<event>
 7    1  0.2497665E-015  0.9000774E+02  0.7816164E-02  0.1186339E+00
        -11   -1    0    0    0    0  0.00000000000E+00  0.00000000000E+00  0.45593999997E+02  0.45594000000E+02  0.51100000000E-03 0.  1.
         11   -1    0    0    0    0 -0.00000000000E+00 -0.00000000000E+00 -0.45593999997E+02  0.45594000000E+02  0.51100000000E-03 0. -1.
    9900012    2    1    2    0    0  0.48802144247E+00  0.10597689495E+01 -0.17812515323E+00  0.90007744212E+02  0.90000005636E+02 0.  0.
        -12    1    1    2    0    0 -0.48802144247E+00 -0.10597689495E+01  0.17812515323E+00  0.11802557879E+01  0.00000000000E+00 0.  1.
         11    1    3    3    0    0  0.45680959552E+01 -0.53461091179E+01 -0.50617996530E+01  0.86643060509E+01  0.51100000000E-03 0. -1.
        -11    1    3    3    0    0  0.17818167204E+02  0.64282086109E+01  0.37526254278E+02  0.42036040594E+02  0.51100000000E-03 0.  1.
         12    1    3    3    0    0 -0.21898241717E+02 -0.22330543572E-01 -0.32642579778E+02  0.39307397567E+02  0.00000000000E+00 0. -1.
</event>
<event>
 7    1  0.2497665E-015  0.9000782E+02  0.7816164E-02  0.1186339E+00
        -11   -1    0    0    0    0  0.00000000000E+00  0.00000000000E+00  0.45593999997E+02  0.45594000000E+02  0.51100000000E-03 0. -1.
         11   -1    0    0    0    0 -0.00000000000E+00 -0.00000000000E+00 -0.45593999997E+02  0.45594000000E+02  0.51100000000E-03 0.  1.
    9900012    2    1    2    0    0  0.10066197252E+01  0.60623687719E+00 -0.10958074736E+00  0.90007824436E+02  0.90000086918E+02 0.  0.
        -12    1    1    2    0    0 -0.10066197252E+01 -0.60623687719E+00  0.10958074736E+00  0.11801755643E+01  0.00000000000E+00 0.  1.
         11    1    3    3    0    0 -0.23422721842E+01 -0.70002540977E+01  0.49411985248E+01  0.88828621254E+01  0.51100000000E-03 0. -1.
        -11    1    3    3    0    0 -0.63954608352E+01  0.26754474212E+02 -0.34843536984E+02  0.44393421579E+02  0.51100000000E-03 0.  1.
         12    1    3    3    0    0  0.97443527446E+01 -0.19147983237E+02  0.29792757712E+02  0.36731540732E+02  0.00000000000E+00 0. -1.
</event>
<event>
 7    1  0.2497665E-015  0.9000770E+02  0.7816164E-02  0.1186339E+00
        -11   -1    0    0    0    0  0.00000000000E+00  0.00000000000E+00  0.45593999997E+02  0.45594000000E+02  0.51100000000E-03 0.  1.
         11   -1    0    0    0    0 -0.00000000000E+00 -0.00000000000E+00 -0.45593999997E+02  0.45594000000E+02  0.51100000000E-03 0. -1.
    9900012    2    1    2    0    0 -0.89594636136E+00  0.63365570020E+00 -0.43459398093E+00  0.90007698616E+02  0.89999959438E+02 0.  0.
        -12    1    1    2    0    0  0.89594636136E+00 -0.63365570020E+00  0.43459398093E+00  0.11803013840E+01  0.00000000000E+00 0.  1.
         11    1    3    3    0    0 -0.35168707195E+01  0.32047144659E+01 -0.80334109071E+01  0.93367159927E+01  0.51100000000E-03 0. -1.
        -11    1    3    3    0    0  0.31809620288E+02  0.82667338335E+01 -0.20496037391E+02  0.38733427167E+02  0.51100000000E-03 0.  1.
         12    1    3    3    0    0 -0.29188695930E+02 -0.10837792599E+02  0.28094854317E+02  0.41937555456E+02  0.00000000000E+00 0. -1.
</event>
<event>
 7    1  0.2497665E-015  0.9000772E+02  0.7816164E-02  0.1186339E+00
        -11   -1    0    0    0    0  0.00000000000E+00  0.00000000000E+00  0.45593999997E+02  0.45594000000E+02  0.51100000000E-03 0. -1.
         11   -1    0    0    0    0 -0.00000000000E+00 -0.00000000000E+00 -0.45593999997E+02  0.45594000000E+02  0.51100000000E-03 0.  1.
    9900012    2    1    2    0    0 -0.10864367380E+01 -0.45022018586E+00  0.10011950593E+00  0.90007717442E+02  0.89999978512E+02 0.  0.
        -12    1    1    2    0    0  0.10864367380E+01  0.45022018586E+00 -0.10011950593E+00  0.11802825581E+01  0.00000000000E+00 0.  1.
         11    1    3    3    0    0  0.11574009566E+02 -0.55579507935E+01  0.34693866348E+02  0.36993416669E+02  0.51100000000E-03 0. -1.
        -11    1    3    3    0    0  0.70052692190E+01  0.67031408296E+01  0.33411344766E+01  0.10255197398E+02  0.51100000000E-03 0.  1.
        -12    1    3    3    0    0 -0.19665715523E+02 -0.15954102219E+01 -0.37934881318E+02  0.42759103375E+02  0.00000000000E+00 0.  1.
</event>
<event>
 7    1  0.2497665E-015  0.9000778E+02  0.7816164E-02  0.1186339E+00
        -11   -1    0    0    0    0  0.00000000000E+00  0.00000000000E+00  0.45593999997E+02  0.45594000000E+02  0.51100000000E-03 0.  1.
         11   -1    0    0    0    0 -0.00000000000E+00 -0.00000000000E+00 -0.45593999997E+02  0.45594000000E+02  0.51100000000E-03 0. -1.
    9900012    2    1    2    0    0  0.10644729729E+01  0.34432308607E+00 -0.37585663283E+00  0.90007775739E+02  0.90000037579E+02 0.  0.
        -12    1    1    2    0    0 -0.10644729729E+01 -0.34432308607E+00  0.37585663283E+00  0.11802242609E+01  0.00000000000E+00 0.  1.
         11    1    3    3    0    0 -0.21599683173E+01  0.10618625741E+02 -0.24858695900E+01  0.11117563746E+02  0.51100000000E-03 0. -1.
        -11    1    3    3    0    0  0.28823935777E+02  0.21967020832E+02 -0.65323491228E+01  0.36824460122E+02  0.51100000000E-03 0.  1.
         12    1    3    3    0    0 -0.25599494487E+02 -0.32241323487E+02  0.86423620800E+01  0.42065751871E+02  0.00000000000E+00 0. -1.
</event>
<event>
 7    1  0.2497665E-015  0.9000772E+02  0.7816164E-02  0.1186339E+00
        -11   -1    0    0    0    0  0.00000000000E+00  0.00000000000E+00  0.45593999997E+02  0.45594000000E+02  0.51100000000E-03 0. -1.
         11   -1    0    0    0    0 -0.00000000000E+00 -0.00000000000E+00 -0.45593999997E+02  0.45594000000E+02  0.51100000000E-03 0.  1.
    9900012    2    1    2    0    0  0.11395267614E+01  0.27484919644E+00 -0.13780988461E+00  0.90007722539E+02  0.89999983676E+02 0.  0.
        -12    1    1    2    0    0 -0.11395267614E+01 -0.27484919644E+00  0.13780988461E+00  0.11802774610E+01  0.00000000000E+00 0.  1.
         11    1    3    3    0    0 -0.55836660940E+01  0.67518736909E+01  0.17388888521E+02  0.19471480931E+02  0.51100000000E-03 0. -1.
        -11    1    3    3    0    0 -0.23264901204E+02 -0.22697375380E+02 -0.68587841685E+00  0.32509950886E+02  0.51100000000E-03 0.  1.
         12    1    3    3    0    0  0.29988094059E+02  0.16220350885E+02 -0.16840819989E+02  0.38026290722E+02  0.00000000000E+00 0. -1.
</event>
<event>
 7    1  0.2497665E-015  0.9000768E+02  0.7816164E-02  0.1186339E+00
        -11   -1    0    0    0    0  0.00000000000E+00  0.00000000000E+00  0.45593999997E+02  0.45594000000E+02  0.51100000000E-03 0.  1.
         11   -1    0    0    0    0 -0.00000000000E+00 -0.00000000000E+00 -0.45593999997E+02  0.45594000000E+02  0.51100000000E-03 0. -1.
    9900012    2    1    2    0    0 -0.68644147339E+00  0.84784633668E+00 -0.45068255156E+00  0.90007677981E+02  0.89999938530E+02 0.  0.
        -12    1    1    2    0    0  0.68644147339E+00 -0.84784633668E+00  0.45068255156E+00  0.11803220193E+01  0.00000000000E+00 0.  1.
         11    1    3    3    0    0  0.38896213865E+01  0.11701499536E+02 -0.38224551795E+02  0.40164295165E+02  0.51100000000E-03 0. -1.
        -11    1    3    3    0    0 -0.32202192611E+01 -0.74649881045E+01 -0.31781344115E+01  0.87290548222E+01  0.51100000000E-03 0.  1.
        -12    1    3    3    0    0 -0.13558435988E+01 -0.33886650946E+01  0.40952003655E+02  0.41114327993E+02  0.00000000000E+00 0.  1.
</event>
<event>
 7    1  0.2497665E-015  0.9000781E+02  0.7816164E-02  0.1186339E+00
        -11   -1    0    0    0    0  0.00000000000E+00  0.00000000000E+00  0.45593999997E+02  0.45594000000E+02  0.51100000000E-03 0.  1.
         11   -1    0    0    0    0 -0.00000000000E+00 -0.00000000000E+00 -0.45593999997E+02  0.45594000000E+02  0.51100000000E-03 0. -1.
    9900012    2    1    2    0    0 -0.42047704966E+00  0.55221959066E-01 -0.11013626889E+01  0.90007809258E+02  0.90000071541E+02 0.  0.
        -12    1    1    2    0    0  0.42047704966E+00 -0.55221959066E-01  0.11013626889E+01  0.11801907416E+01  0.00000000000E+00 0.  1.
         11    1    3    3    0    0  0.42161095958E+01  0.13741819203E+02  0.99648456685E+01  0.17490320883E+02  0.51100000000E-03 0. -1.
        -11    1    3    3    0    0 -0.34736548992E+02 -0.12156837572E+00  0.61592779930E+01  0.35278595783E+02  0.51100000000E-03 0.  1.
         12    1    3    3    0    0  0.30099962347E+02 -0.13565028868E+02 -0.17225486350E+02  0.37238892592E+02  0.00000000000E+00 0. -1.
</event>
<event>
 7    1  0.2497665E-015  0.9000777E+02  0.7816164E-02  0.1186339E+00
        -11   -1    0    0    0    0  0.00000000000E+00  0.00000000000E+00  0.45593999997E+02  0.45594000000E+02  0.51100000000E-03 0. -1.
         11   -1    0    0    0    0 -0.00000000000E+00 -0.00000000000E+00 -0.45593999997E+02  0.45594000000E+02  0.51100000000E-03 0.  1.
    9900012    2    1    2    0    0 -0.96180185455E+00 -0.44630058740E+00  0.51835835826E+00  0.90007770188E+02  0.90000031954E+02 0.  0.
        -12    1    1    2    0    0  0.96180185455E+00  0.44630058740E+00 -0.51835835826E+00  0.11802298121E+01  0.00000000000E+00 0.  1.
         11    1    3    3    0    0 -0.20583081668E+02  0.32657141075E+02 -0.84085693894E+01  0.39507672085E+02  0.51100000000E-03 0. -1.
        -11    1    3    3    0    0  0.11447112407E+02 -0.25832490848E+01 -0.84315293056E+01  0.14449921972E+02  0.51100000000E-03 0.  1.
        -12    1    3    3    0    0  0.81741674063E+01 -0.30520192578E+02  0.17358457053E+02  0.36050176131E+02  0.00000000000E+00 0.  1.
</event>
<event>
 7    1  0.2497665E-015  0.9000770E+02  0.7816164E-02  0.1186339E+00
        -11   -1    0    0    0    0  0.00000000000E+00  0.00000000000E+00  0.45593999997E+02  0.45594000000E+02  0.51100000000E-03 0. -1.
         11   -1    0    0    0    0 -0.00000000000E+00 -0.00000000000E+00 -0.45593999997E+02  0.45594000000E+02  0.51100000000E-03 0.  1.
    9900012    2    1    2    0    0 -0.95848258083E+00 -0.59301961350E+00 -0.35034734104E+00  0.90007701572E+02  0.89999962433E+02 0.  0.
        -12    1    1    2    0    0  0.95848258083E+00  0.59301961350E+00  0.35034734104E+00  0.11802984280E+01  0.00000000000E+00 0.  1.
         11    1    3    3    0    0 -0.69282460982E+01 -0.60907938507E+01 -0.12152055100E+01  0.93045735217E+01  0.51100000000E-03 0. -1.
        -11    1    3    3    0    0 -0.29216761912E+02  0.11613684501E+02 -0.21931308649E+02  0.38333785929E+02  0.51100000000E-03 0.  1.
         12    1    3    3    0    0  0.35186525430E+02 -0.61159102636E+01  0.22796166818E+02  0.42369342121E+02  0.00000000000E+00 0. -1.
</event>
<event>
 7    1  0.2497665E-015  0.9000862E+02  0.7816164E-02  0.1186337E+00
        -11   -1    0    0    0    0  0.00000000000E+00  0.00000000000E+00  0.45593999997E+02  0.45594000000E+02  0.51100000000E-03 0. -1.
         11   -1    0    0    0    0 -0.00000000000E+00 -0.00000000000E+00 -0.45593999997E+02  0.45594000000E+02  0.51100000000E-03 0.  1.
    9900012    2    1    2    0    0  0.25414870237E+00  0.81830543892E+00  0.81038908257E+00  0.90008616339E+02  0.90000889270E+02 0.  0.
        -12    1    1    2    0    0 -0.25414870237E+00 -0.81830543892E+00 -0.81038908257E+00  0.11793836608E+01  0.00000000000E+00 0.  1.
         11    1    3    3    0    0 -0.28230050770E+02 -0.14662647534E+02  0.40307037036E+01  0.32065176934E+02  0.51100000000E-03 0. -1.
        -11    1    3    3    0    0 -0.10290789420E+02 -0.61300003241E+01 -0.61335646731E+01  0.13457260744E+02  0.51100000000E-03 0.  1.
        -12    1    3    3    0    0  0.38774988893E+02  0.21610953297E+02  0.29132500520E+01  0.44486178662E+02  0.00000000000E+00 0.  1.
</event>
<event>
 7    1  0.2497665E-015  0.9000778E+02  0.7816164E-02  0.1186339E+00
        -11   -1    0    0    0    0  0.00000000000E+00  0.00000000000E+00  0.45593999997E+02  0.45594000000E+02  0.51100000000E-03 0.  1.
         11   -1    0    0    0    0 -0.00000000000E+00 -0.00000000000E+00 -0.45593999997E+02  0.45594000000E+02  0.51100000000E-03 0. -1.
    9900012    2    1    2    0    0  0.31148703683E+00 -0.10917991958E+01 -0.32228330239E+00  0.90007781298E+02  0.90000043211E+02 0.  0.
        -12    1    1    2    0    0 -0.31148703683E+00  0.10917991958E+01  0.32228330239E+00  0.11802187022E+01  0.00000000000E+00 0.  1.
         11    1    3    3    0    0 -0.57953882417E+01 -0.55090133597E+01  0.34078512407E+01  0.86919044754E+01  0.51100000000E-03 0. -1.
        -11    1    3    3    0    0  0.60052736579E+01 -0.31808482033E+02 -0.23542509995E+02  0.40026149179E+02  0.51100000000E-03 0.  1.
         12    1    3    3    0    0  0.10160162066E+00  0.36225696197E+02  0.19812375452E+02  0.41289727644E+02  0.00000000000E+00 0. -1.
</event>
<event>
 7    1  0.2497665E-015  0.9000781E+02  0.7816164E-02  0.1186339E+00
        -11   -1    0    0    0    0  0.00000000000E+00  0.00000000000E+00  0.45593999997E+02  0.45594000000E+02  0.51100000000E-03 0.  1.
         11   -1    0    0    0    0 -0.00000000000E+00 -0.00000000000E+00 -0.45593999997E+02  0.45594000000E+02  0.51100000000E-03 0. -1.
    9900012    2    1    2    0    0 -0.11743118422E+01  0.11514689630E-01 -0.11709284280E+00  0.90007808649E+02  0.90000070923E+02 0.  0.
        -12    1    1    2    0    0  0.11743118422E+01 -0.11514689630E-01  0.11709284280E+00  0.11801913509E+01  0.00000000000E+00 0.  1.
         11    1    3    3    0    0 -0.86361567813E+01 -0.35546923338E+01  0.69979577980E+01  0.11670066630E+02  0.51100000000E-03 0. -1.
        -11    1    3    3    0    0 -0.17142686397E+02  0.25468961268E+02 -0.26118896824E+02  0.40308019755E+02  0.51100000000E-03 0.  1.
         12    1    3    3    0    0  0.24604531336E+02 -0.21902754245E+02  0.19003846183E+02  0.38029722265E+02  0.00000000000E+00 0. -1.
</event>
<event>
 7    1  0.2497665E-015  0.9000774E+02  0.7816164E-02  0.1186339E+00
        -11   -1    0    0    0    0  0.00000000000E+00  0.00000000000E+00  0.45593999997E+02  0.45594000000E+02  0.51100000000E-03 0. -1.
         11   -1    0    0    0    0 -0.00000000000E+00 -0.00000000000E+00 -0.45593999997E+02  0.45594000000E+02  0.51100000000E-03 0.  1.
    9900012    2    1    2    0    0 -0.63547724383E+00  0.99341557266E+00 -0.48122348011E-01  0.90007736645E+02  0.89999997968E+02 0.  0.
        -12    1    1    2    0    0  0.63547724383E+00 -0.99341557266E+00  0.48122348011E-01  0.11802633553E+01  0.00000000000E+00 0.  1.
         11    1    3    3    0    0  0.76859643841E+01 -0.36122622647E+02 -0.17275412493E+01  0.36971642030E+02  0.51100000000E-03 0. -1.
        -11    1    3    3    0    0  0.30051521537E+01 -0.51852871629E+01  0.66631885309E+01  0.89619319395E+01  0.51100000000E-03 0.  1.
        -12    1    3    3    0    0 -0.11326593782E+02  0.42301325382E+02 -0.49837696296E+01  0.44074162675E+02  0.00000000000E+00 0.  1.
</event>
<event>
 7    1  0.2497665E-015  0.9000765E+02  0.7816164E-02  0.1186339E+00
        -11   -1    0    0    0    0  0.00000000000E+00  0.00000000000E+00  0.45593999997E+02  0.45594000000E+02  0.51100000000E-03 0.  1.
         11   -1    0    0    0    0 -0.00000000000E+00 -0.00000000000E+00 -0.45593999997E+02  0.45594000000E+02  0.51100000000E-03 0. -1.
    9900012    2    1    2    0    0  0.25594844315E+00 -0.11501070289E+01  0.70456420166E-01  0.90007652640E+02  0.89999912855E+02 0.  0.
        -12    1    1    2    0    0 -0.25594844315E+00  0.11501070289E+01 -0.70456420166E-01  0.11803473602E+01  0.00000000000E+00 0.  1.
         11    1    3    3    0    0  0.11457812234E+01 -0.67459930154E+01  0.33846903634E+01  0.76339613238E+01  0.51100000000E-03 0. -1.
        -11    1    3    3    0    0 -0.13702074313E+02 -0.11482058100E+01  0.37035095103E+02  0.39505233661E+02  0.51100000000E-03 0.  1.
         12    1    3    3    0    0  0.12812241533E+02  0.67440917965E+01 -0.40349329046E+02  0.42868457655E+02  0.00000000000E+00 0. -1.
</event>
<event>
 7    1  0.2497665E-015  0.9000775E+02  0.7816164E-02  0.1186339E+00
        -11   -1    0    0    0    0  0.00000000000E+00  0.00000000000E+00  0.45593999997E+02  0.45594000000E+02  0.51100000000E-03 0.  1.
         11   -1    0    0    0    0 -0.00000000000E+00 -0.00000000000E+00 -0.45593999997E+02  0.45594000000E+02  0.51100000000E-03 0. -1.
    9900012    2    1    2    0    0 -0.95282351808E+00  0.15077343194E+00 -0.67999355692E+00  0.90007747264E+02  0.90000008727E+02 0.  0.
        -12    1    1    2    0    0  0.95282351808E+00 -0.15077343194E+00  0.67999355692E+00  0.11802527364E+01  0.00000000000E+00 0.  1.
         11    1    3    3    0    0  0.65383516157E+01  0.49846352286E+01 -0.83583676841E+01  0.11724288499E+02  0.51100000000E-03 0. -1.
        -11    1    3    3    0    0 -0.32983058867E+02 -0.24200203169E+02  0.17933630946E+02  0.44667069803E+02  0.51100000000E-03 0.  1.
         12    1    3    3    0    0  0.25491883733E+02  0.19366341372E+02 -0.10255256819E+02  0.33616388961E+02  0.00000000000E+00 0. -1.
</event>
<event>
 7    1  0.2497665E-015  0.9000783E+02  0.7816164E-02  0.1186339E+00
        -11   -1    0    0    0    0  0.00000000000E+00  0.00000000000E+00  0.45593999997E+02  0.45594000000E+02  0.51100000000E-03 0.  1.
         11   -1    0    0    0    0 -0.00000000000E+00 -0.00000000000E+00 -0.45593999997E+02  0.45594000000E+02  0.51100000000E-03 0. -1.
    9900012    2    1    2    0    0  0.50495561867E+00 -0.55392663888E+00 -0.91158552213E+00  0.90007829223E+02  0.90000091769E+02 0.  0.
        -12    1    1    2    0    0 -0.50495561867E+00  0.55392663888E+00  0.91158552213E+00  0.11801707767E+01  0.00000000000E+00 0.  1.
         11    1    3    3    0    0  0.11053493873E+01  0.96453292934E+01  0.40059095329E+01  0.10502451423E+02  0.51100000000E-03 0. -1.
        -11    1    3    3    0    0 -0.42662764713E+01  0.30942121501E+02  0.13812617183E+02  0.34152663024E+02  0.51100000000E-03 0.  1.
         12    1    3    3    0    0  0.36658827026E+01 -0.41141377433E+02 -0.18730112238E+02  0.45352714776E+02  0.00000000000E+00 0. -1.
</event>
<event>
 7    1  0.2497665E-015  0.9000779E+02  0.7816164E-02  0.1186339E+00
        -11   -1    0    0    0    0  0.00000000000E+00  0.00000000000E+00  0.45593999997E+02  0.45594000000E+02  0.51100000000E-03 0.  1.
         11   -1    0    0    0    0 -0.00000000000E+00 -0.00000000000E+00 -0.45593999997E+02  0.45594000000E+02  0.51100000000E-03 0. -1.
    9900012    2    1    2    0    0  0.11742383571E+01  0.78299666415E-01 -0.89059140937E-01  0.90007788965E+02  0.90000050979E+02 0.  0.
        -12    1    1    2    0    0 -0.11742383571E+01 -0.78299666415E-01  0.89059140937E-01  0.11802110352E+01  0.00000000000E+00 0.  1.
         11    1    3    3    0    0  0.29428664117E+01  0.61233383671E+01 -0.62110895478E+01  0.92050730093E+01  0.51100000000E-03 0. -1.
        -11    1    3    3    0    0 -0.12844739683E+02  0.23488672511E+02 -0.24900266590E+02  0.36561295797E+02  0.51100000000E-03 0.  1.
         12    1    3    3    0    0  0.11076111629E+02 -0.29533711211E+02  0.31022296997E+02  0.44241420159E+02  0.00000000000E+00 0. -1.
</event>
<event>
 7    1  0.2497665E-015  0.9000764E+02  0.7816164E-02  0.1186339E+00
        -11   -1    0    0    0    0  0.00000000000E+00  0.00000000000E+00  0.45593999997E+02  0.45594000000E+02  0.51100000000E-03 0. -1.
         11   -1    0    0    0    0 -0.00000000000E+00 -0.00000000000E+00 -0.45593999997E+02  0.45594000000E+02  0.51100000000E-03 0.  1.
    9900012    2    1    2    0    0  0.55140533109E+00  0.10385837487E+01 -0.10269367570E+00  0.90007639871E+02  0.89999899918E+02 0.  0.
        -12    1    1    2    0    0 -0.55140533109E+00 -0.10385837487E+01  0.10269367570E+00  0.11803601287E+01  0.00000000000E+00 0.  1.
         11    1    3    3    0    0  0.37718235211E+01  0.29961799674E+01 -0.69645998757E+01  0.84681402185E+01  0.51100000000E-03 0. -1.
        -11    1    3    3    0    0  0.27427645466E+01 -0.19880696105E+02 -0.32318937208E+02  0.38043114193E+02  0.51100000000E-03 0.  1.
         12    1    3    3    0    0 -0.59631827366E+01  0.17923099886E+02  0.39180843408E+02  0.43496385460E+02  0.00000000000E+00 0. -1.
</event>
<event>
 7    1  0.2497665E-015  0.9000790E+02  0.7816164E-02  0.1186339E+00
        -11   -1    0    0    0    0  0.00000000000E+00  0.00000000000E+00  0.45593999997E+02  0.45594000000E+02  0.51100000000E-03 0.  1.
         11   -1    0    0    0    0 -0.00000000000E+00 -0.00000000000E+00 -0.45593999997E+02  0.45594000000E+02  0.51100000000E-03 0. -1.
    9900012    2    1    2    0    0  0.74923990960E+00 -0.33795883692E+00 -0.84679731371E+00  0.90007897332E+02  0.90000160776E+02 0.  0.
        -12    1    1    2    0    0 -0.74923990960E+00  0.33795883692E+00  0.84679731371E+00  0.11801026685E+01  0.00000000000E+00 0.  1.
         11    1    3    3    0    0  0.18594134116E+02  0.26921449668E+02 -0.22564800335E+02  0.39745144234E+02  0.51100000000E-03 0. -1.
        -11    1    3    3    0    0 -0.82706070329E+01  0.52251262480E+00 -0.57115765121E+01  0.10064694066E+02  0.51100000000E-03 0.  1.
        -12    1    3    3    0    0 -0.95742871739E+01 -0.27781921130E+02  0.27429579533E+02  0.40198059031E+02  0.00000000000E+00 0.  1.
</event>
<event>
 7    1  0.2497665E-015  0.9000764E+02  0.7816164E-02  0.1186339E+00
        -11   -1    0    0    0    0  0.00000000000E+00  0.00000000000E+00  0.45593999997E+02  0.45594000000E+02  0.51100000000E-03 0.  1.
         11   -1    0    0    0    0 -0.00000000000E+00 -0.00000000000E+00 -0.45593999997E+02  0.45594000000E+02  0.51100000000E-03 0. -1.
    9900012    2    1    2    0    0  0.95392639636E+00  0.38605803160E+00 -0.57812721550E+00  0.90007640965E+02  0.89999901026E+02 0.  0.
        -12    1    1    2    0    0 -0.95392639636E+00 -0.38605803160E+00  0.57812721550E+00  0.11803590347E+01  0.00000000000E+00 0.  1.
         11    1    3    3    0    0 -0.90611816208E+01 -0.73482649910E+01 -0.38869365052E+02  0.40582379804E+02  0.51100000000E-03 0. -1.
        -11    1    3    3    0    0 -0.61637559478E+01 -0.55163019735E+01  0.38307441840E+01  0.91157049158E+01  0.51100000000E-03 0.  1.
        -12    1    3    3    0    0  0.16178863965E+02  0.13250624996E+02  0.34460493652E+02  0.40309556246E+02  0.00000000000E+00 0.  1.
</event>
<event>
 7    1  0.2497665E-015  0.9000742E+02  0.7816164E-02  0.1186340E+00
        -11   -1    0    0    0    0  0.00000000000E+00  0.00000000000E+00  0.45593999997E+02  0.45594000000E+02  0.51100000000E-03 0. -1.
         11   -1    0    0    0    0 -0.00000000000E+00 -0.00000000000E+00 -0.45593999997E+02  0.45594000000E+02  0.51100000000E-03 0.  1.
    9900012    2    1    2    0    0 -0.47824937109E+00 -0.57478928137E+00  0.91360142732E+00  0.90007418471E+02  0.89999675594E+02 0.  0.
        -12    1    1    2    0    0  0.47824937109E+00  0.57478928137E+00 -0.91360142732E+00  0.11805815291E+01  0.00000000000E+00 0.  1.
         11    1    3    3    0    0 -0.12132747701E+02  0.55297633915E+01  0.35234499682E+02  0.37672958711E+02  0.51100000000E-03 0. -1.
        -11    1    3    3    0    0  0.10161071939E+02 -0.15440705708E+02 -0.19215548951E+01  0.18583733456E+02  0.51100000000E-03 0.  1.
        -12    1    3    3    0    0  0.14934263902E+01  0.93361530347E+01 -0.32399343360E+02  0.33750726303E+02  0.00000000000E+00 0.  1.
</event>
<event>
 7    1  0.2497665E-015  0.9000777E+02  0.7816164E-02  0.1186339E+00
        -11   -1    0    0    0    0  0.00000000000E+00  0.00000000000E+00  0.45593999997E+02  0.45594000000E+02  0.51100000000E-03 0. -1.
         11   -1    0    0    0    0 -0.00000000000E+00 -0.00000000000E+00 -0.45593999997E+02  0.45594000000E+02  0.51100000000E-03 0.  1.
    9900012    2    1    2    0    0  0.65029938094E+00 -0.41237574376E+00  0.89442488571E+00  0.90007771668E+02  0.90000033454E+02 0.  0.
        -12    1    1    2    0    0 -0.65029938094E+00  0.41237574376E+00 -0.89442488571E+00  0.11802283318E+01  0.00000000000E+00 0.  1.
         11    1    3    3    0    0  0.81435650227E+01  0.23299752657E+01 -0.45673198146E+01  0.96232451162E+01  0.51100000000E-03 0. -1.
        -11    1    3    3    0    0 -0.21107402671E+02 -0.85178817553E+01 -0.32480666573E+02  0.39661952276E+02  0.51100000000E-03 0.  1.
         12    1    3    3    0    0  0.13614137029E+02  0.57755307458E+01  0.37942411273E+02  0.40722574276E+02  0.00000000000E+00 0. -1.
</event>
<event>
 7    1  0.2497665E-015  0.9000775E+02  0.7816164E-02  0.1186339E+00
        -11   -1    0    0    0    0  0.00000000000E+00  0.00000000000E+00  0.45593999997E+02  0.45594000000E+02  0.51100000000E-03 0.  1.
         11   -1    0    0    0    0 -0.00000000000E+00 -0.00000000000E+00 -0.45593999997E+02  0.45594000000E+02  0.51100000000E-03 0. -1.
    9900012    2    1    2    0    0 -0.28051063156E+00  0.11463898728E+01  0.91292913029E-02  0.90007754560E+02  0.90000016120E+02 0.  0.
        -12    1    1    2    0    0  0.28051063156E+00 -0.11463898728E+01 -0.91292913029E-02  0.11802454401E+01  0.00000000000E+00 0.  1.
         11    1    3    3    0    0 -0.39786188907E+01  0.14787296020E+02 -0.39803273539E+02  0.42647322502E+02  0.51100000000E-03 0. -1.
        -11    1    3    3    0    0  0.20458269646E+01  0.56242957917E+01  0.64437364411E+01  0.87943078582E+01  0.51100000000E-03 0.  1.
        -12    1    3    3    0    0  0.16522812945E+01 -0.19265201939E+02  0.33368666389E+02  0.38566124200E+02  0.00000000000E+00 0.  1.
</event>
<event>
 7    1  0.2497665E-015  0.9000752E+02  0.7816164E-02  0.1186339E+00
        -11   -1    0    0    0    0  0.00000000000E+00  0.00000000000E+00  0.45593999997E+02  0.45594000000E+02  0.51100000000E-03 0.  1.
         11   -1    0    0    0    0 -0.00000000000E+00 -0.00000000000E+00 -0.45593999997E+02  0.45594000000E+02  0.51100000000E-03 0. -1.
    9900012    2    1    2    0    0  0.38067396719E+00  0.93653615607E+00 -0.60952184475E+00  0.90007521487E+02  0.89999779970E+02 0.  0.
        -12    1    1    2    0    0 -0.38067396719E+00 -0.93653615607E+00  0.60952184475E+00  0.11804785132E+01  0.00000000000E+00 0.  1.
         11    1    3    3    0    0 -0.83877154923E+01  0.34928744914E+02 -0.86973821221E+01  0.36959646217E+02  0.51100000000E-03 0. -1.
        -11    1    3    3    0    0 -0.33898668751E+01  0.21553198465E+01  0.13901118588E+02  0.14469889403E+02  0.51100000000E-03 0.  1.
         12    1    3    3    0    0  0.12158256335E+02 -0.36147528605E+02 -0.58132583111E+01  0.38577985866E+02  0.00000000000E+00 0. -1.
</event>
<event>
 7    1  0.2497665E-015  0.9000769E+02  0.7816164E-02  0.1186339E+00
        -11   -1    0    0    0    0  0.00000000000E+00  0.00000000000E+00  0.45593999997E+02  0.45594000000E+02  0.51100000000E-03 0. -1.
         11   -1    0    0    0    0 -0.00000000000E+00 -0.00000000000E+00 -0.45593999997E+02  0.45594000000E+02  0.51100000000E-03 0.  1.
    9900012    2    1    2    0    0 -0.63048546204E+00  0.93214313214E+00  0.35598839127E+00  0.90007690519E+02  0.89999951234E+02 0.  0.
        -12    1    1    2    0    0  0.63048546204E+00 -0.93214313214E+00 -0.35598839127E+00  0.11803094812E+01  0.00000000000E+00 0.  1.
         11    1    3    3    0    0 -0.83614584378E+01 -0.46884457117E+00 -0.25597836647E+01  0.87570711491E+01  0.51100000000E-03 0. -1.
        -11    1    3    3    0    0 -0.29915820469E+02 -0.21763712214E+02  0.11584504694E+01  0.37012936812E+02  0.51100000000E-03 0.  1.
         12    1    3    3    0    0  0.37646793445E+02  0.23164699917E+02  0.17573215866E+01  0.44237682558E+02  0.00000000000E+00 0. -1.
</event>
<event>
 7    1  0.2497665E-015  0.9000781E+02  0.7816164E-02  0.1186339E+00
        -11   -1    0    0    0    0  0.00000000000E+00  0.00000000000E+00  0.45593999997E+02  0.45594000000E+02  0.51100000000E-03 0.  1.
         11   -1    0    0    0    0 -0.00000000000E+00 -0.00000000000E+00 -0.45593999997E+02  0.45594000000E+02  0.51100000000E-03 0. -1.
    9900012    2    1    2    0    0 -0.76628938619E+00 -0.26182708872E+00 -0.85854298909E+00  0.90007809798E+02  0.90000072088E+02 0.  0.
        -12    1    1    2    0    0  0.76628938619E+00  0.26182708872E+00  0.85854298909E+00  0.11801902016E+01  0.00000000000E+00 0.  1.
         11    1    3    3    0    0 -0.54786813566E+01 -0.37092324863E+01  0.10068538460E+02  0.12047813994E+02  0.51100000000E-03 0. -1.
        -11    1    3    3    0    0 -0.35605359770E+02  0.19909145721E+01  0.16553427615E+01  0.35699377377E+02  0.51100000000E-03 0.  1.
         12    1    3    3    0    0  0.40317751740E+02  0.14564908255E+01 -0.12582424211E+02  0.42260618428E+02  0.00000000000E+00 0. -1.
</event>
<event>
 7    1  0.2497665E-015  0.9000770E+02  0.7816164E-02  0.1186339E+00
        -11   -1    0    0    0    0  0.00000000000E+00  0.00000000000E+00  0.45593999997E+02  0.45594000000E+02  0.51100000000E-03 0.  1.
         11   -1    0    0    0    0 -0.00000000000E+00 -0.00000000000E+00 -0.45593999997E+02  0.45594000000E+02  0.51100000000E-03 0. -1.
    9900012    2    1    2    0    0  0.12687497705E+00  0.65399009602E+00 -0.97432237739E+00  0.90007701563E+02  0.89999962424E+02 0.  0.
        -12    1    1    2    0    0 -0.12687497705E+00 -0.65399009602E+00  0.97432237739E+00  0.11802984371E+01  0.00000000000E+00 0.  1.
         11    1    3    3    0    0  0.25541741674E+01 -0.25144513793E+01  0.76144623953E+01  0.84158368120E+01  0.51100000000E-03 0. -1.
        -11    1    3    3    0    0  0.26085417166E+02 -0.27322804480E+02  0.40071928334E+01  0.37987395647E+02  0.51100000000E-03 0.  1.
         12    1    3    3    0    0 -0.28512716357E+02  0.30491245956E+02 -0.12595977606E+02  0.43604469104E+02  0.00000000000E+00 0. -1.
</event>
<event>
 7    1  0.2497665E-015  0.9000777E+02  0.7816164E-02  0.1186339E+00
        -11   -1    0    0    0    0  0.00000000000E+00  0.00000000000E+00  0.45593999997E+02  0.45594000000E+02  0.51100000000E-03 0.  1.
         11   -1    0    0    0    0 -0.00000000000E+00 -0.00000000000E+00 -0.45593999997E+02  0.45594000000E+02  0.51100000000E-03 0. -1.
    9900012    2    1    2    0    0  0.30264959307E+00  0.72146399535E+00 -0.88364621244E+00  0.90007772182E+02  0.90000033975E+02 0.  0.
        -12    1    1    2    0    0 -0.30264959307E+00 -0.72146399535E+00  0.88364621244E+00  0.11802278176E+01  0.00000000000E+00 0.  1.
         11    1    3    3    0    0 -0.15996883307E+01 -0.26248664434E+02  0.20997438248E+02  0.33651802337E+02  0.51100000000E-03 0. -1.
        -11    1    3    3    0    0  0.73027957908E+01 -0.93914560942E+01  0.26160298818E+01  0.12180882010E+02  0.51100000000E-03 0.  1.
        -12    1    3    3    0    0 -0.54004578670E+01  0.36361584523E+02 -0.24497114342E+02  0.44175087836E+02  0.00000000000E+00 0.  1.
</event>
<event>
 7    1  0.2497665E-015  0.9000772E+02  0.7816164E-02  0.1186339E+00
        -11   -1    0    0    0    0  0.00000000000E+00  0.00000000000E+00  0.45593999997E+02  0.45594000000E+02  0.51100000000E-03 0.  1.
         11   -1    0    0    0    0 -0.00000000000E+00 -0.00000000000E+00 -0.45593999997E+02  0.45594000000E+02  0.51100000000E-03 0. -1.
    9900012    2    1    2    0    0 -0.89804761703E+00 -0.67171569508E+00 -0.36793784827E+00  0.90007716239E+02  0.89999977293E+02 0.  0.
        -12    1    1    2    0    0  0.89804761703E+00  0.67171569508E+00  0.36793784827E+00  0.11802837615E+01  0.00000000000E+00 0.  1.
         11    1    3    3    0    0  0.17483119258E+01  0.18345951390E+02 -0.31940080265E+02  0.36875455992E+02  0.51100000000E-03 0. -1.
        -11    1    3    3    0    0 -0.13106495493E+02 -0.89279044535E+00 -0.22808318429E+01  0.13333397656E+02  0.51100000000E-03 0.  1.
        -12    1    3    3    0    0  0.10460135950E+02 -0.18124876640E+02  0.33852974260E+02  0.39798862591E+02  0.00000000000E+00 0.  1.
</event>
<event>
 7    1  0.2497665E-015  0.9000775E+02  0.7816164E-02  0.1186339E+00
        -11   -1    0    0    0    0  0.00000000000E+00  0.00000000000E+00  0.45593999997E+02  0.45594000000E+02  0.51100000000E-03 0. -1.
         11   -1    0    0    0    0 -0.00000000000E+00 -0.00000000000E+00 -0.45593999997E+02  0.45594000000E+02  0.51100000000E-03 0.  1.
    9900012    2    1    2    0    0  0.78260053544E+00 -0.88345965895E+00 -0.38166386948E-02  0.90007754630E+02  0.90000016191E+02 0.  0.
        -12    1    1    2    0    0 -0.78260053544E+00  0.88345965895E+00  0.38166386948E-02  0.11802453702E+01  0.00000000000E+00 0.  1.
         11    1    3    3    0    0  0.26763204396E+01  0.29771525807E+01  0.35824900375E+02  0.36047879490E+02  0.51100000000E-03 0. -1.
        -11    1    3    3    0    0 -0.91474059323E+01 -0.35004568679E+01  0.60128259176E+01  0.11492706790E+02  0.51100000000E-03 0.  1.
        -12    1    3    3    0    0  0.72536860281E+01 -0.36015537181E+00 -0.41841542931E+02  0.42467168351E+02  0.00000000000E+00 0.  1.
</event>
<event>
 7    1  0.2497665E-015  0.9000774E+02  0.7816164E-02  0.1186339E+00
        -11   -1    0    0    0    0  0.00000000000E+00  0.00000000000E+00  0.45593999997E+02  0.45594000000E+02  0.51100000000E-03 0.  1.
         11   -1    0    0    0    0 -0.00000000000E+00 -0.00000000000E+00 -0.45593999997E+02  0.45594000000E+02  0.51100000000E-03 0. -1.
    9900012    2    1    2    0    0  0.23637591953E+00  0.74324433015E+00 -0.88584692360E+00  0.90007741350E+02  0.90000002735E+02 0.  0.
        -12    1    1    2    0    0 -0.23637591953E+00 -0.74324433015E+00  0.88584692360E+00  0.11802586503E+01  0.00000000000E+00 0.  1.
         11    1    3    3    0    0 -0.58327203139E+01  0.10920768966E+01 -0.78368093070E+01  0.98299968761E+01  0.51100000000E-03 0. -1.
        -11    1    3    3    0    0  0.33098616026E+01  0.14540250055E+02  0.40614316253E+02  0.43265421995E+02  0.51100000000E-03 0.  1.
         12    1    3    3    0    0  0.27592346308E+01 -0.14889082621E+02 -0.33663353869E+02  0.36912322479E+02  0.00000000000E+00 0. -1.
</event>
<event>
 7    1  0.2497665E-015  0.9000765E+02  0.7816164E-02  0.1186339E+00
        -11   -1    0    0    0    0  0.00000000000E+00  0.00000000000E+00  0.45593999997E+02  0.45594000000E+02  0.51100000000E-03 0.  1.
         11   -1    0    0    0    0 -0.00000000000E+00 -0.00000000000E+00 -0.45593999997E+02  0.45594000000E+02  0.51100000000E-03 0. -1.
    9900012    2    1    2    0    0 -0.78191317075E+00  0.36507812495E+00 -0.80533453200E+00  0.90007646683E+02  0.89999906819E+02 0.  0.
        -12    1    1    2    0    0  0.78191317075E+00 -0.36507812495E+00  0.80533453200E+00  0.11803533167E+01  0.00000000000E+00 0.  1.
         11    1    3    3    0    0 -0.25317857191E+02  0.33529184322E+02  0.45391626187E+01  0.42258775320E+02  0.51100000000E-03 0. -1.
        -11    1    3    3    0    0 -0.23435578504E+01 -0.69760262351E+01  0.49083634053E+01  0.88458598797E+01  0.51100000000E-03 0.  1.
        -12    1    3    3    0    0  0.26879501871E+02 -0.26188079962E+02 -0.10252860556E+02  0.38903011483E+02  0.00000000000E+00 0.  1.
</event>
<event>
 7    1  0.2886285E-015  0.9000767E+02  0.7816164E-02  0.1186339E+00
        -11   -1    0    0    0    0  0.00000000000E+00  0.00000000000E+00  0.45593999997E+02  0.45594000000E+02  0.51100000000E-03 0. -1.
         11   -1    0    0    0    0 -0.00000000000E+00 -0.00000000000E+00 -0.45593999997E+02  0.45594000000E+02  0.51100000000E-03 0.  1.
    9900012    2    1    2    0    0 -0.74267939997E+00  0.35090426131E-01  0.91672013347E+00  0.90007669609E+02  0.89999930048E+02 0.  0.
        -12    1    1    2    0    0  0.74267939997E+00 -0.35090426131E-01 -0.91672013347E+00  0.11803303911E+01  0.00000000000E+00 0.  1.
         11    1    3    3    0    0 -0.18814365347E+01 -0.39413344498E+01  0.39136404025E+02  0.39379335202E+02  0.51100000000E-03 0. -1.
        -11    1    3    3    0    0 -0.11274632319E+01  0.99505057949E+01  0.17372582809E+01  0.10163749579E+02  0.51100000000E-03 0.  1.
        -12    1    3    3    0    0  0.22662203667E+01 -0.59740809189E+01 -0.39956942172E+02  0.40464584828E+02  0.00000000000E+00 0.  1.
</event>
<event>
 7    1  0.3026436E-015  0.9000767E+02  0.7816164E-02  0.1186339E+00
        -11   -1    0    0    0    0  0.00000000000E+00  0.00000000000E+00  0.45593999997E+02  0.45594000000E+02  0.51100000000E-03 0. -1.
         11   -1    0    0    0    0 -0.00000000000E+00 -0.00000000000E+00 -0.45593999997E+02  0.45594000000E+02  0.51100000000E-03 0.  1.
    9900012    2    1    2    0    0 -0.95470162694E+00  0.56163458107E+00  0.40779669252E+00  0.90007666682E+02  0.89999927082E+02 0.  0.
        -12    1    1    2    0    0  0.95470162694E+00 -0.56163458107E+00 -0.40779669252E+00  0.11803333180E+01  0.00000000000E+00 0.  1.
         11    1    3    3    0    0 -0.16836644748E+02 -0.22821752495E+02  0.28826492028E+02  0.40438492012E+02  0.51100000000E-03 0. -1.
        -11    1    3    3    0    0 -0.37043919037E+01  0.88684190287E+01  0.27521980700E+01  0.99972981311E+01  0.51100000000E-03 0.  1.
        -12    1    3    3    0    0  0.19586335025E+02  0.14514968047E+02 -0.31170893405E+02  0.39571876539E+02  0.00000000000E+00 0.  1.
</event>
<event>
 7    1  0.2497665E-015  0.9000783E+02  0.7816164E-02  0.1186339E+00
        -11   -1    0    0    0    0  0.00000000000E+00  0.00000000000E+00  0.45593999997E+02  0.45594000000E+02  0.51100000000E-03 0.  1.
         11   -1    0    0    0    0 -0.00000000000E+00 -0.00000000000E+00 -0.45593999997E+02  0.45594000000E+02  0.51100000000E-03 0. -1.
    9900012    2    1    2    0    0 -0.56077482759E-01  0.78746436169E+00 -0.87725004082E+00  0.90007825251E+02  0.90000087744E+02 0.  0.
        -12    1    1    2    0    0  0.56077482759E-01 -0.78746436169E+00  0.87725004082E+00  0.11801747494E+01  0.00000000000E+00 0.  1.
         11    1    3    3    0    0  0.18511974022E+01  0.85700215731E+01  0.37617918773E+01  0.95406121384E+01  0.51100000000E-03 0. -1.
        -11    1    3    3    0    0  0.16425334103E+02  0.31339792754E+02 -0.10400385364E+02  0.36880106104E+02  0.51100000000E-03 0.  1.
         12    1    3    3    0    0 -0.18332608988E+02 -0.39122349965E+02  0.57613434457E+01  0.43587107009E+02  0.00000000000E+00 0. -1.
</event>
<event>
 7    1  0.2497665E-015  0.9000775E+02  0.7816164E-02  0.1186339E+00
        -11   -1    0    0    0    0  0.00000000000E+00  0.00000000000E+00  0.45593999997E+02  0.45594000000E+02  0.51100000000E-03 0. -1.
         11   -1    0    0    0    0 -0.00000000000E+00 -0.00000000000E+00 -0.45593999997E+02  0.45594000000E+02  0.51100000000E-03 0.  1.
    9900012    2    1    2    0    0 -0.10405336168E+01 -0.15285764938E-01  0.55681668618E+00  0.90007750584E+02  0.90000012092E+02 0.  0.
        -12    1    1    2    0    0  0.10405336168E+01  0.15285764938E-01 -0.55681668618E+00  0.11802494162E+01  0.00000000000E+00 0.  1.
         11    1    3    3    0    0  0.13937214626E+02 -0.36436565410E+01  0.56228785548E+01  0.15464118081E+02  0.51100000000E-03 0.  1.
        -11    1    3    3    0    0 -0.17005882579E+02 -0.28678750188E+02 -0.20014926212E+02  0.38887890482E+02  0.51100000000E-03 0. -1.
         12    1    3    3    0    0  0.20281343361E+01  0.32307120964E+02  0.14948864343E+02  0.35655742020E+02  0.00000000000E+00 0. -1.
</event>
<event>
 7    1  0.2497665E-015  0.9000770E+02  0.7816164E-02  0.1186339E+00
        -11   -1    0    0    0    0  0.00000000000E+00  0.00000000000E+00  0.45593999997E+02  0.45594000000E+02  0.51100000000E-03 0.  1.
         11   -1    0    0    0    0 -0.00000000000E+00 -0.00000000000E+00 -0.45593999997E+02  0.45594000000E+02  0.51100000000E-03 0. -1.
    9900012    2    1    2    0    0  0.88192763579E+00 -0.72734681775E+00  0.29372519560E+00  0.90007701632E+02  0.89999962493E+02 0.  0.
        -12    1    1    2    0    0 -0.88192763579E+00  0.72734681775E+00 -0.29372519560E+00  0.11802983685E+01  0.00000000000E+00 0.  1.
         11    1    3    3    0    0 -0.16784097881E+02 -0.70681417023E+01 -0.34917125227E+02  0.39381089411E+02  0.51100000000E-03 0. -1.
        -11    1    3    3    0    0 -0.69983268671E+01  0.49981794486E+01  0.13369886438E+01  0.87032129489E+01  0.51100000000E-03 0.  1.
        -12    1    3    3    0    0  0.24664352384E+02  0.13426154360E+01  0.33873861778E+02  0.41923399272E+02  0.00000000000E+00 0.  1.
</event>
<event>
 7    1  0.2497665E-015  0.9000775E+02  0.7816164E-02  0.1186339E+00
        -11   -1    0    0    0    0  0.00000000000E+00  0.00000000000E+00  0.45593999997E+02  0.45594000000E+02  0.51100000000E-03 0. -1.
         11   -1    0    0    0    0 -0.00000000000E+00 -0.00000000000E+00 -0.45593999997E+02  0.45594000000E+02  0.51100000000E-03 0.  1.
    9900012    2    1    2    0    0  0.96076777207E+00  0.15543885709E+00  0.66764339303E+00  0.90007752716E+02  0.90000014252E+02 0.  0.
        -12    1    1    2    0    0 -0.96076777207E+00 -0.15543885709E+00 -0.66764339303E+00  0.11802472836E+01  0.00000000000E+00 0.  1.
         11    1    3    3    0    0 -0.12438267871E+01  0.59162023294E+01  0.63354578560E+01  0.87570875059E+01  0.51100000000E-03 0. -1.
        -11    1    3    3    0    0 -0.38491594461E+02 -0.91289204700E+01 -0.79553864856E+01  0.40351309861E+02  0.51100000000E-03 0.  1.
         12    1    3    3    0    0  0.40696189020E+02  0.33681569977E+01  0.22875720226E+01  0.40899355350E+02  0.00000000000E+00 0. -1.
</event>
<event>
 7    1  0.2497665E-015  0.9000765E+02  0.7816164E-02  0.1186339E+00
        -11   -1    0    0    0    0  0.00000000000E+00  0.00000000000E+00  0.45593999997E+02  0.45594000000E+02  0.51100000000E-03 0.  1.
         11   -1    0    0    0    0 -0.00000000000E+00 -0.00000000000E+00 -0.45593999997E+02  0.45594000000E+02  0.51100000000E-03 0. -1.
    9900012    2    1    2    0    0 -0.62114303702E+00 -0.13085173857E+00 -0.99512535580E+00  0.90007654574E+02  0.89999914815E+02 0.  0.
        -12    1    1    2    0    0  0.62114303702E+00  0.13085173857E+00  0.99512535580E+00  0.11803454256E+01  0.00000000000E+00 0.  1.
         11    1    3    3    0    0  0.25551948004E+02  0.24492270558E+02 -0.15940549620E+01  0.35430415963E+02  0.51100000000E-03 0. -1.
        -11    1    3    3    0    0  0.89265681917E+01  0.26688029025E+01  0.36606739922E+01  0.10010327814E+02  0.51100000000E-03 0.  1.
        -12    1    3    3    0    0 -0.35099659232E+02 -0.27291925199E+02 -0.30617443860E+01  0.44566910797E+02  0.00000000000E+00 0.  1.
</event>
<event>
 7    1  0.2497665E-015  0.9000777E+02  0.7816164E-02  0.1186339E+00
        -11   -1    0    0    0    0  0.00000000000E+00  0.00000000000E+00  0.45593999997E+02  0.45594000000E+02  0.51100000000E-03 0.  1.
         11   -1    0    0    0    0 -0.00000000000E+00 -0.00000000000E+00 -0.45593999997E+02  0.45594000000E+02  0.51100000000E-03 0. -1.
    9900012    2    1    2    0    0  0.95981343507E-01 -0.11171662269E+01 -0.36833453291E+00  0.90007769885E+02  0.90000031647E+02 0.  0.
        -12    1    1    2    0    0 -0.95981343507E-01  0.11171662269E+01  0.36833453291E+00  0.11802301152E+01  0.00000000000E+00 0.  1.
         11    1    3    3    0    0  0.19841623448E+02  0.29386444943E+02  0.24125280235E+01  0.35539744782E+02  0.51100000000E-03 0. -1.
        -11    1    3    3    0    0  0.50940623758E+01  0.73308953508E+01  0.13141702453E+01  0.90232223639E+01  0.51100000000E-03 0.  1.
        -12    1    3    3    0    0 -0.24839704480E+02 -0.37834506521E+02 -0.40950328016E+01  0.45444802739E+02  0.00000000000E+00 0.  1.
</event>
<event>
 7    1  0.2497665E-015  0.9000774E+02  0.7816164E-02  0.1186339E+00
        -11   -1    0    0    0    0  0.00000000000E+00  0.00000000000E+00  0.45593999997E+02  0.45594000000E+02  0.51100000000E-03 0.  1.
         11   -1    0    0    0    0 -0.00000000000E+00 -0.00000000000E+00 -0.45593999997E+02  0.45594000000E+02  0.51100000000E-03 0. -1.
    9900012    2    1    2    0    0  0.47933794634E+00 -0.67369193844E+00 -0.84225319963E+00  0.90007738950E+02  0.90000000304E+02 0.  0.
        -12    1    1    2    0    0 -0.47933794634E+00  0.67369193844E+00  0.84225319963E+00  0.11802610504E+01  0.00000000000E+00 0.  1.
         11    1    3    3    0    0  0.46436572005E+01  0.41996720479E+01  0.37220493407E+01  0.72838485062E+01  0.51100000000E-03 0. -1.
        -11    1    3    3    0    0  0.14397678708E+01 -0.77967660777E+00  0.38786521957E+02  0.38821065324E+02  0.51100000000E-03 0.  1.
         12    1    3    3    0    0 -0.56040871249E+01 -0.40936873786E+01 -0.43350824497E+02  0.43902825119E+02  0.00000000000E+00 0. -1.
</event>
<event>
 7    1  0.2497665E-015  0.9000771E+02  0.7816164E-02  0.1186339E+00
        -11   -1    0    0    0    0  0.00000000000E+00  0.00000000000E+00  0.45593999997E+02  0.45594000000E+02  0.51100000000E-03 0.  1.
         11   -1    0    0    0    0 -0.00000000000E+00 -0.00000000000E+00 -0.45593999997E+02  0.45594000000E+02  0.51100000000E-03 0. -1.
    9900012    2    1    2    0    0 -0.16745805118E-01  0.26863585592E+00 -0.11491893543E+01  0.90007711130E+02  0.89999972117E+02 0.  0.
        -12    1    1    2    0    0  0.16745805118E-01 -0.26863585592E+00  0.11491893543E+01  0.11802888702E+01  0.00000000000E+00 0.  1.
         11    1    3    3    0    0 -0.19511228052E+02  0.22638414657E+02 -0.13956719869E+02  0.32984479200E+02  0.51100000000E-03 0. -1.
        -11    1    3    3    0    0  0.16440462861E+01  0.14095773624E+02 -0.77190435247E+00  0.14212303080E+02  0.51100000000E-03 0.  1.
        -12    1    3    3    0    0  0.17850435961E+02 -0.36465552425E+02  0.13579434867E+02  0.42810928850E+02  0.00000000000E+00 0.  1.
</event>
<event>
 7    1  0.2497665E-015  0.9000773E+02  0.7816164E-02  0.1186339E+00
        -11   -1    0    0    0    0  0.00000000000E+00  0.00000000000E+00  0.45593999997E+02  0.45594000000E+02  0.51100000000E-03 0. -1.
         11   -1    0    0    0    0 -0.00000000000E+00 -0.00000000000E+00 -0.45593999997E+02  0.45594000000E+02  0.51100000000E-03 0.  1.
    9900012    2    1    2    0    0 -0.96586326771E+00  0.35642425744E+00  0.57716247759E+00  0.90007726037E+02  0.89999987220E+02 0.  0.
        -12    1    1    2    0    0  0.96586326771E+00 -0.35642425744E+00 -0.57716247759E+00  0.11802739634E+01  0.00000000000E+00 0.  1.
         11    1    3    3    0    0 -0.41497362537E+01  0.81517280214E+01  0.56028623872E+00  0.91643276698E+01  0.51100000000E-03 0. -1.
        -11    1    3    3    0    0 -0.34891316250E+02  0.94094923768E+01 -0.10738205315E+02  0.37699490051E+02  0.51100000000E-03 0.  1.
         12    1    3    3    0    0  0.38075189236E+02 -0.17204796141E+02  0.10755081554E+02  0.43143908316E+02  0.00000000000E+00 0. -1.
</event>
<event>
 7    1  0.2497665E-015  0.9000779E+02  0.7816164E-02  0.1186339E+00
        -11   -1    0    0    0    0  0.00000000000E+00  0.00000000000E+00  0.45593999997E+02  0.45594000000E+02  0.51100000000E-03 0.  1.
         11   -1    0    0    0    0 -0.00000000000E+00 -0.00000000000E+00 -0.45593999997E+02  0.45594000000E+02  0.51100000000E-03 0. -1.
    9900012    2    1    2    0    0  0.17436930489E+00  0.56742508154E+00 -0.10200611720E+01  0.90007787870E+02  0.90000049870E+02 0.  0.
        -12    1    1    2    0    0 -0.17436930489E+00 -0.56742508154E+00  0.10200611720E+01  0.11802121302E+01  0.00000000000E+00 0.  1.
         11    1    3    3    0    0  0.26569095254E+02 -0.24507261663E+02  0.14596212802E+02  0.38981689615E+02  0.51100000000E-03 0. -1.
        -11    1    3    3    0    0 -0.69589270864E+01 -0.15520060625E+01  0.78171910106E+01  0.10580352762E+02  0.51100000000E-03 0.  1.
        -12    1    3    3    0    0 -0.19435798863E+02  0.26626692807E+02 -0.23433464985E+02  0.40445745493E+02  0.00000000000E+00 0.  1.
</event>
<event>
 7    1  0.2497665E-015  0.9000784E+02  0.7816164E-02  0.1186339E+00
        -11   -1    0    0    0    0  0.00000000000E+00  0.00000000000E+00  0.45593999997E+02  0.45594000000E+02  0.51100000000E-03 0. -1.
         11   -1    0    0    0    0 -0.00000000000E+00 -0.00000000000E+00 -0.45593999997E+02  0.45594000000E+02  0.51100000000E-03 0.  1.
    9900012    2    1    2    0    0 -0.43021726251E+00  0.10892992685E+01  0.14535320937E+00  0.90007835882E+02  0.90000098516E+02 0.  0.
        -12    1    1    2    0    0  0.43021726251E+00 -0.10892992685E+01 -0.14535320937E+00  0.11801641177E+01  0.00000000000E+00 0.  1.
         11    1    3    3    0    0  0.48264419206E+01 -0.78407093583E+01 -0.18601217175E+00  0.92090100252E+01  0.51100000000E-03 0. -1.
        -11    1    3    3    0    0 -0.23616824179E+02  0.16560612611E+01 -0.33858893704E+02  0.41314907798E+02  0.51100000000E-03 0.  1.
         12    1    3    3    0    0  0.18360164996E+02  0.72739473657E+01  0.34190259085E+02  0.39483918059E+02  0.00000000000E+00 0. -1.
</event>
<event>
 7    1  0.2497665E-015  0.9000769E+02  0.7816164E-02  0.1186339E+00
        -11   -1    0    0    0    0  0.00000000000E+00  0.00000000000E+00  0.45593999997E+02  0.45594000000E+02  0.51100000000E-03 0.  1.
         11   -1    0    0    0    0 -0.00000000000E+00 -0.00000000000E+00 -0.45593999997E+02  0.45594000000E+02  0.51100000000E-03 0. -1.
    9900012    2    1    2    0    0 -0.11493822523E+01 -0.26299967333E+00  0.53668140882E-01  0.90007691286E+02  0.89999952011E+02 0.  0.
        -12    1    1    2    0    0  0.11493822523E+01  0.26299967333E+00 -0.53668140882E-01  0.11803087136E+01  0.00000000000E+00 0.  1.
         11    1    3    3    0    0  0.18350198266E+02  0.37668824534E+02 -0.11103676150E+02  0.43346992312E+02  0.51100000000E-03 0. -1.
        -11    1    3    3    0    0 -0.49215248163E+00 -0.10530952662E+02 -0.21432690321E+01  0.10758103013E+02  0.51100000000E-03 0.  1.
        -12    1    3    3    0    0 -0.19007428037E+02 -0.27400871545E+02  0.13300613323E+02  0.35902595961E+02  0.00000000000E+00 0.  1.
</event>
<event>
 7    1  0.2497665E-015  0.9000774E+02  0.7816164E-02  0.1186339E+00
        -11   -1    0    0    0    0  0.00000000000E+00  0.00000000000E+00  0.45593999997E+02  0.45594000000E+02  0.51100000000E-03 0. -1.
         11   -1    0    0    0    0 -0.00000000000E+00 -0.00000000000E+00 -0.45593999997E+02  0.45594000000E+02  0.51100000000E-03 0.  1.
    9900012    2    1    2    0    0  0.77444657792E+00 -0.86787088869E+00 -0.20009137907E+00  0.90007744120E+02  0.90000005543E+02 0.  0.
        -12    1    1    2    0    0 -0.77444657792E+00  0.86787088869E+00  0.20009137907E+00  0.11802558797E+01  0.00000000000E+00 0.  1.
         11    1    3    3    0    0 -0.14564802316E+01  0.92446569899E+01  0.36406098753E+01  0.10041865268E+02  0.51100000000E-03 0. -1.
        -11    1    3    3    0    0  0.37977357029E+02 -0.19721429898E+02 -0.36740696992E+01  0.42950124942E+02  0.51100000000E-03 0.  1.
         12    1    3    3    0    0 -0.35746430220E+02  0.96089020194E+01 -0.16663155519E+00  0.37015753910E+02  0.00000000000E+00 0. -1.
</event>
<event>
 7    1  0.3150016E-015  0.9000753E+02  0.7816164E-02  0.1186339E+00
        -11   -1    0    0    0    0  0.00000000000E+00  0.00000000000E+00  0.45593999997E+02  0.45594000000E+02  0.51100000000E-03 0. -1.
         11   -1    0    0    0    0 -0.00000000000E+00 -0.00000000000E+00 -0.45593999997E+02  0.45594000000E+02  0.51100000000E-03 0.  1.
    9900012    2    1    2    0    0 -0.38950929747E+00 -0.35820313611E+00  0.10552150899E+01  0.90007531506E+02  0.89999790122E+02 0.  0.
        -12    1    1    2    0    0  0.38950929747E+00  0.35820313611E+00 -0.10552150899E+01  0.11804684941E+01  0.00000000000E+00 0.  1.
         11    1    3    3    0    0 -0.23114738072E+01 -0.36513987292E+02  0.93824171317E+01  0.37770940293E+02  0.51100000000E-03 0. -1.
        -11    1    3    3    0    0  0.51997567331E+01 -0.65641558086E+01 -0.36553469470E+01  0.91371315590E+01  0.51100000000E-03 0.  1.
        -12    1    3    3    0    0 -0.32777922234E+01  0.42719939964E+02 -0.46718550948E+01  0.43099459654E+02  0.00000000000E+00 0.  1.
</event>
<event>
 7    1  0.2497665E-015  0.9000768E+02  0.7816164E-02  0.1186339E+00
        -11   -1    0    0    0    0  0.00000000000E+00  0.00000000000E+00  0.45593999997E+02  0.45594000000E+02  0.51100000000E-03 0.  1.
         11   -1    0    0    0    0 -0.00000000000E+00 -0.00000000000E+00 -0.45593999997E+02  0.45594000000E+02  0.51100000000E-03 0. -1.
    9900012    2    1    2    0    0 -0.10596659404E+00 -0.97172659297E-01 -0.11715306218E+01  0.90007679941E+02  0.89999940516E+02 0.  0.
        -12    1    1    2    0    0  0.10596659404E+00  0.97172659297E-01  0.11715306218E+01  0.11803200594E+01  0.00000000000E+00 0.  1.
         11    1    3    3    0    0  0.25992523271E+01 -0.96194544848E+01  0.15486952970E+01  0.10084070340E+02  0.51100000000E-03 0. -1.
        -11    1    3    3    0    0 -0.98236955622E+01 -0.28726772560E+02 -0.21022329713E+02  0.36927913602E+02  0.51100000000E-03 0.  1.
         12    1    3    3    0    0  0.71184766411E+01  0.38249054385E+02  0.18302103794E+02  0.42995695998E+02  0.00000000000E+00 0. -1.
</event>
<event>
 7    1  0.2497665E-015  0.9000779E+02  0.7816164E-02  0.1186339E+00
        -11   -1    0    0    0    0  0.00000000000E+00  0.00000000000E+00  0.45593999997E+02  0.45594000000E+02  0.51100000000E-03 0. -1.
         11   -1    0    0    0    0 -0.00000000000E+00 -0.00000000000E+00 -0.45593999997E+02  0.45594000000E+02  0.51100000000E-03 0.  1.
    9900012    2    1    2    0    0  0.36907184764E-04  0.98742320793E+00 -0.64645110789E+00  0.90007786618E+02  0.90000048601E+02 0.  0.
        -12    1    1    2    0    0 -0.36907184764E-04 -0.98742320793E+00  0.64645110789E+00  0.11802133823E+01  0.00000000000E+00 0.  1.
         11    1    3    3    0    0 -0.13967581526E+02  0.61908804999E+00  0.51292882706E+00  0.13990700481E+02  0.51100000000E-03 0. -1.
        -11    1    3    3    0    0 -0.44326643034E+01  0.21294181321E+02 -0.29249623365E+02  0.36450392840E+02  0.51100000000E-03 0.  1.
         12    1    3    3    0    0  0.18400282737E+02 -0.20925846163E+02  0.28090243430E+02  0.39566693296E+02  0.00000000000E+00 0. -1.
</event>
<event>
 7    1  0.2497665E-015  0.9000778E+02  0.7816164E-02  0.1186339E+00
        -11   -1    0    0    0    0  0.00000000000E+00  0.00000000000E+00  0.45593999997E+02  0.45594000000E+02  0.51100000000E-03 0. -1.
         11   -1    0    0    0    0 -0.00000000000E+00 -0.00000000000E+00 -0.45593999997E+02  0.45594000000E+02  0.51100000000E-03 0.  1.
    9900012    2    1    2    0    0 -0.52032986237E+00  0.62532756392E+00  0.85507322674E+00  0.90007776313E+02  0.90000038160E+02 0.  0.
        -12    1    1    2    0    0  0.52032986237E+00 -0.62532756392E+00 -0.85507322674E+00  0.11802236868E+01  0.00000000000E+00 0.  1.
         11    1    3    3    0    0  0.13494748022E+02  0.35939179906E+02  0.25369182020E+01  0.38472962334E+02  0.51100000000E-03 0. -1.
        -11    1    3    3    0    0 -0.50972317595E+01  0.46123316241E+01  0.68939738850E+01  0.97356176388E+01  0.51100000000E-03 0.  1.
        -12    1    3    3    0    0 -0.89178461249E+01 -0.39926183966E+02 -0.85758188603E+01  0.41799196341E+02  0.00000000000E+00 0.  1.
</event>
<event>
 7    1  0.2922759E-015  0.9000791E+02  0.7816164E-02  0.1186339E+00
        -11   -1    0    0    0    0  0.00000000000E+00  0.00000000000E+00  0.45593999997E+02  0.45594000000E+02  0.51100000000E-03 0. -1.
         11   -1    0    0    0    0 -0.00000000000E+00 -0.00000000000E+00 -0.45593999997E+02  0.45594000000E+02  0.51100000000E-03 0.  1.
    9900012    2    1    2    0    0  0.59263099001E+00 -0.30619854817E+00  0.97347366922E+00  0.90007906772E+02  0.90000170342E+02 0.  0.
        -12    1    1    2    0    0 -0.59263099001E+00  0.30619854817E+00 -0.97347366922E+00  0.11800932276E+01  0.00000000000E+00 0.  1.
         11    1    3    3    0    0 -0.21000620634E+02  0.38097826049E+01  0.33349103145E+02  0.39594231794E+02  0.51100000000E-03 0. -1.
        -11    1    3    3    0    0 -0.44789720230E+00 -0.94426825845E+01  0.15782377701E+01  0.95841379903E+01  0.51100000000E-03 0.  1.
        -12    1    3    3    0    0  0.22041148826E+02  0.53267014315E+01 -0.33953867246E+02  0.40829536988E+02  0.00000000000E+00 0.  1.
</event>
<event>
 7    1  0.2497665E-015  0.9000776E+02  0.7816164E-02  0.1186339E+00
        -11   -1    0    0    0    0  0.00000000000E+00  0.00000000000E+00  0.45593999997E+02  0.45594000000E+02  0.51100000000E-03 0.  1.
         11   -1    0    0    0    0 -0.00000000000E+00 -0.00000000000E+00 -0.45593999997E+02  0.45594000000E+02  0.51100000000E-03 0. -1.
    9900012    2    1    2    0    0  0.34068191418E+00  0.11205631785E+01 -0.14574097533E+00  0.90007760009E+02  0.90000021641E+02 0.  0.
        -12    1    1    2    0    0 -0.34068191418E+00 -0.11205631785E+01  0.14574097533E+00  0.11802399907E+01  0.00000000000E+00 0.  1.
         11    1    3    3    0    0  0.17139651059E+01 -0.77366645848E+01 -0.15026449597E+01  0.80654570495E+01  0.51100000000E-03 0. -1.
        -11    1    3    3    0    0  0.28261875987E+02  0.18117494563E+02  0.25871338717E+02  0.42382819760E+02  0.51100000000E-03 0.  1.
         12    1    3    3    0    0 -0.29635159179E+02 -0.92602667999E+01 -0.24514434733E+02  0.39559483200E+02  0.00000000000E+00 0. -1.
</event>
<event>
 7    1  0.2497665E-015  0.9000777E+02  0.7816164E-02  0.1186339E+00
        -11   -1    0    0    0    0  0.00000000000E+00  0.00000000000E+00  0.45593999997E+02  0.45594000000E+02  0.51100000000E-03 0. -1.
         11   -1    0    0    0    0 -0.00000000000E+00 -0.00000000000E+00 -0.45593999997E+02  0.45594000000E+02  0.51100000000E-03 0.  1.
    9900012    2    1    2    0    0 -0.25635737641E+00 -0.24378269234E+00  0.11259594516E+01  0.90007773839E+02  0.90000035653E+02 0.  0.
        -12    1    1    2    0    0  0.25635737641E+00  0.24378269234E+00 -0.11259594516E+01  0.11802261615E+01  0.00000000000E+00 0.  1.
         11    1    3    3    0    0  0.23094602474E+01  0.35042194864E+01  0.72635349654E+01  0.83888080976E+01  0.51100000000E-03 0. -1.
        -11    1    3    3    0    0  0.25990382641E+02  0.22354394790E+02  0.15128346201E+02  0.37471133093E+02  0.51100000000E-03 0.  1.
         12    1    3    3    0    0 -0.28556200265E+02 -0.26102396969E+02 -0.21265921715E+02  0.44147832648E+02  0.00000000000E+00 0. -1.
</event>
<event>
 7    1  0.2497665E-015  0.9000778E+02  0.7816164E-02  0.1186339E+00
        -11   -1    0    0    0    0  0.00000000000E+00  0.00000000000E+00  0.45593999997E+02  0.45594000000E+02  0.51100000000E-03 0. -1.
         11   -1    0    0    0    0 -0.00000000000E+00 -0.00000000000E+00 -0.45593999997E+02  0.45594000000E+02  0.51100000000E-03 0.  1.
    9900012    2    1    2    0    0 -0.11529801392E+01 -0.74939580272E-01 -0.24073000083E+00  0.90007775413E+02  0.90000037249E+02 0.  0.
        -12    1    1    2    0    0  0.11529801392E+01  0.74939580272E-01  0.24073000083E+00  0.11802245869E+01  0.00000000000E+00 0.  1.
         11    1    3    3    0    0  0.37625631127E+02  0.75635279142E+01  0.26970153105E+01  0.38472964066E+02  0.51100000000E-03 0. -1.
        -11    1    3    3    0    0 -0.17318781360E+00  0.69440742985E+01  0.61508222802E+01  0.92780804515E+01  0.51100000000E-03 0.  1.
        -12    1    3    3    0    0 -0.38605423453E+02 -0.14582541793E+02 -0.90885675915E+01  0.42256730895E+02  0.00000000000E+00 0.  1.
</event>
<event>
 7    1  0.2497665E-015  0.9000778E+02  0.7816164E-02  0.1186339E+00
        -11   -1    0    0    0    0  0.00000000000E+00  0.00000000000E+00  0.45593999997E+02  0.45594000000E+02  0.51100000000E-03 0.  1.
         11   -1    0    0    0    0 -0.00000000000E+00 -0.00000000000E+00 -0.45593999997E+02  0.45594000000E+02  0.51100000000E-03 0. -1.
    9900012    2    1    2    0    0  0.49718504691E+00 -0.82424599276E+00 -0.68289685774E+00  0.90007778603E+02  0.90000040481E+02 0.  0.
        -12    1    1    2    0    0 -0.49718504691E+00  0.82424599276E+00  0.68289685774E+00  0.11802213969E+01  0.00000000000E+00 0.  1.
         11    1    3    3    0    0 -0.23104324550E+02 -0.15798086307E+02  0.31654084706E+02  0.42253643899E+02  0.51100000000E-03 0. -1.
        -11    1    3    3    0    0 -0.33242303680E+01  0.57342778436E+01 -0.70719047484E+01  0.96924861082E+01  0.51100000000E-03 0.  1.
        -12    1    3    3    0    0  0.26925739965E+02  0.92395624709E+01 -0.25265076816E+02  0.38061648596E+02  0.00000000000E+00 0.  1.
</event>
<event>
 7    1  0.2497665E-015  0.9000778E+02  0.7816164E-02  0.1186339E+00
        -11   -1    0    0    0    0  0.00000000000E+00  0.00000000000E+00  0.45593999997E+02  0.45594000000E+02  0.51100000000E-03 0. -1.
         11   -1    0    0    0    0 -0.00000000000E+00 -0.00000000000E+00 -0.45593999997E+02  0.45594000000E+02  0.51100000000E-03 0.  1.
    9900012    2    1    2    0    0 -0.84738859830E+00 -0.66140087210E+00  0.48724910417E+00  0.90007775344E+02  0.90000037178E+02 0.  0.
        -12    1    1    2    0    0  0.84738859830E+00  0.66140087210E+00 -0.48724910417E+00  0.11802246564E+01  0.00000000000E+00 0.  1.
         11    1    3    3    0    0 -0.71014627530E+00  0.11480957911E+02  0.21877308599E+02  0.24717065645E+02  0.51100000000E-03 0. -1.
        -11    1    3    3    0    0  0.21743477589E+02 -0.17225672239E+02  0.74610800869E+01  0.28725777937E+02  0.51100000000E-03 0.  1.
        -12    1    3    3    0    0 -0.21880719912E+02  0.50833134562E+01 -0.28851139582E+02  0.36564931762E+02  0.00000000000E+00 0.  1.
</event>
<event>
 7    1  0.2497665E-015  0.9000773E+02  0.7816164E-02  0.1186339E+00
        -11   -1    0    0    0    0  0.00000000000E+00  0.00000000000E+00  0.45593999997E+02  0.45594000000E+02  0.51100000000E-03 0.  1.
         11   -1    0    0    0    0 -0.00000000000E+00 -0.00000000000E+00 -0.45593999997E+02  0.45594000000E+02  0.51100000000E-03 0. -1.
    9900012    2    1    2    0    0  0.88595351306E+00 -0.52223638484E+00  0.57912526978E+00  0.90007732849E+02  0.89999994123E+02 0.  0.
        -12    1    1    2    0    0 -0.88595351306E+00  0.52223638484E+00 -0.57912526978E+00  0.11802671507E+01  0.00000000000E+00 0.  1.
         11    1    3    3    0    0  0.21742868309E+02  0.13591998551E+02 -0.29406892188E+02  0.39016151211E+02  0.51100000000E-03 0. -1.
        -11    1    3    3    0    0  0.82607835359E+01  0.11695023849E+01  0.66202608798E+01  0.10650640114E+02  0.51100000000E-03 0.  1.
        -12    1    3    3    0    0 -0.29117698332E+02 -0.15283737321E+02  0.23365756578E+02  0.40340941525E+02  0.00000000000E+00 0.  1.
</event>
<event>
 7    1  0.2497665E-015  0.9000766E+02  0.7816164E-02  0.1186339E+00
        -11   -1    0    0    0    0  0.00000000000E+00  0.00000000000E+00  0.45593999997E+02  0.45594000000E+02  0.51100000000E-03 0.  1.
         11   -1    0    0    0    0 -0.00000000000E+00 -0.00000000000E+00 -0.45593999997E+02  0.45594000000E+02  0.51100000000E-03 0. -1.
    9900012    2    1    2    0    0 -0.11608207254E+01 -0.18268564270E+00 -0.11104297219E+00  0.90007657108E+02  0.89999917382E+02 0.  0.
        -12    1    1    2    0    0  0.11608207254E+01  0.18268564270E+00  0.11104297219E+00  0.11803428918E+01  0.00000000000E+00 0.  1.
         11    1    3    3    0    0  0.79965211071E+01 -0.17276624959E+02  0.90782781560E+01  0.21091260141E+02  0.51100000000E-03 0. -1.
        -11    1    3    3    0    0 -0.79884251926E+01  0.31084193498E+01  0.27938880846E+02  0.29224275373E+02  0.51100000000E-03 0.  1.
        -12    1    3    3    0    0 -0.11689166399E+01  0.13985519966E+02 -0.37128201974E+02  0.39692121594E+02  0.00000000000E+00 0.  1.
</event>
<event>
 7    1  0.2497665E-015  0.9000773E+02  0.7816164E-02  0.1186339E+00
        -11   -1    0    0    0    0  0.00000000000E+00  0.00000000000E+00  0.45593999997E+02  0.45594000000E+02  0.51100000000E-03 0. -1.
         11   -1    0    0    0    0 -0.00000000000E+00 -0.00000000000E+00 -0.45593999997E+02  0.45594000000E+02  0.51100000000E-03 0.  1.
    9900012    2    1    2    0    0  0.10947835365E+01 -0.11452458045E+00  0.42587207212E+00  0.90007731432E+02  0.89999992687E+02 0.  0.
        -12    1    1    2    0    0 -0.10947835365E+01  0.11452458045E+00 -0.42587207212E+00  0.11802685682E+01  0.00000000000E+00 0.  1.
         11    1    3    3    0    0 -0.59041118821E+01 -0.32609659235E+02  0.14039518194E+02  0.35991061167E+02  0.51100000000E-03 0. -1.
        -11    1    3    3    0    0  0.18921862474E+01 -0.95557311368E+01 -0.86293332010E+00  0.97794182102E+01  0.51100000000E-03 0.  1.
        -12    1    3    3    0    0  0.51067091712E+01  0.42050865791E+02 -0.12750712802E+02  0.44237252054E+02  0.00000000000E+00 0.  1.
</event>
<event>
 7    1  0.2497665E-015  0.9000772E+02  0.7816164E-02  0.1186339E+00
        -11   -1    0    0    0    0  0.00000000000E+00  0.00000000000E+00  0.45593999997E+02  0.45594000000E+02  0.51100000000E-03 0.  1.
         11   -1    0    0    0    0 -0.00000000000E+00 -0.00000000000E+00 -0.45593999997E+02  0.45594000000E+02  0.51100000000E-03 0. -1.
    9900012    2    1    2    0    0  0.11457862354E+01  0.22831902831E+00 -0.16767916654E+00  0.90007715298E+02  0.89999976340E+02 0.  0.
        -12    1    1    2    0    0 -0.11457862354E+01 -0.22831902831E+00  0.16767916654E+00  0.11802847024E+01  0.00000000000E+00 0.  1.
         11    1    3    3    0    0 -0.46441770207E+01  0.72120687662E+01  0.45385832851E+01  0.97046924003E+01  0.51100000000E-03 0. -1.
        -11    1    3    3    0    0 -0.34826925457E+02  0.98187178717E+01 -0.31290156318E+01  0.36319591084E+02  0.51100000000E-03 0.  1.
         12    1    3    3    0    0  0.40616888713E+02 -0.16802467610E+02 -0.15772468199E+01  0.43983431813E+02  0.00000000000E+00 0. -1.
</event>
<event>
 7    1  0.2497665E-015  0.9000778E+02  0.7816164E-02  0.1186339E+00
        -11   -1    0    0    0    0  0.00000000000E+00  0.00000000000E+00  0.45593999997E+02  0.45594000000E+02  0.51100000000E-03 0. -1.
         11   -1    0    0    0    0 -0.00000000000E+00 -0.00000000000E+00 -0.45593999997E+02  0.45594000000E+02  0.51100000000E-03 0.  1.
    9900012    2    1    2    0    0  0.91113257143E+00  0.17822151091E+00  0.72868682642E+00  0.90007783935E+02  0.90000045883E+02 0.  0.
        -12    1    1    2    0    0 -0.91113257143E+00 -0.17822151091E+00 -0.72868682642E+00  0.11802160652E+01  0.00000000000E+00 0.  1.
         11    1    3    3    0    0  0.83742263140E+01 -0.70599006651E+01 -0.42303572745E+01  0.11741626237E+02  0.51100000000E-03 0. -1.
        -11    1    3    3    0    0  0.13247067400E+02 -0.11831138190E+02 -0.29091515530E+02  0.34084848565E+02  0.51100000000E-03 0.  1.
         12    1    3    3    0    0 -0.20710161143E+02  0.19069260366E+02  0.34050559631E+02  0.44181309133E+02  0.00000000000E+00 0. -1.
</event>
<event>
 7    1  0.2497665E-015  0.9000764E+02  0.7816164E-02  0.1186339E+00
        -11   -1    0    0    0    0  0.00000000000E+00  0.00000000000E+00  0.45593999997E+02  0.45594000000E+02  0.51100000000E-03 0.  1.
         11   -1    0    0    0    0 -0.00000000000E+00 -0.00000000000E+00 -0.45593999997E+02  0.45594000000E+02  0.51100000000E-03 0. -1.
    9900012    2    1    2    0    0  0.16759999416E+00 -0.11639382660E+01 -0.10201331596E+00  0.90007640410E+02  0.89999900463E+02 0.  0.
        -12    1    1    2    0    0 -0.16759999416E+00  0.11639382660E+01  0.10201331596E+00  0.11803595900E+01  0.00000000000E+00 0.  1.
         11    1    3    3    0    0 -0.13913484691E+02 -0.35170541061E+02  0.79917431938E+01  0.38657728520E+02  0.51100000000E-03 0. -1.
        -11    1    3    3    0    0 -0.35142699616E+01  0.36727686711E+00  0.90350677065E+01  0.97014140404E+01  0.51100000000E-03 0.  1.
        -12    1    3    3    0    0  0.17595354647E+02  0.33639325928E+02 -0.17128824216E+02  0.41648497849E+02  0.00000000000E+00 0.  1.
</event>
<event>
 7    1  0.2497665E-015  0.9000769E+02  0.7816164E-02  0.1186339E+00
        -11   -1    0    0    0    0  0.00000000000E+00  0.00000000000E+00  0.45593999997E+02  0.45594000000E+02  0.51100000000E-03 0. -1.
         11   -1    0    0    0    0 -0.00000000000E+00 -0.00000000000E+00 -0.45593999997E+02  0.45594000000E+02  0.51100000000E-03 0.  1.
    9900012    2    1    2    0    0  0.28242239394E-01  0.11602646387E+01 -0.21476343586E+00  0.90007688605E+02  0.89999949294E+02 0.  0.
        -12    1    1    2    0    0 -0.28242239394E-01 -0.11602646387E+01  0.21476343586E+00  0.11803113951E+01  0.00000000000E+00 0.  1.
         11    1    3    3    0    0  0.10320539263E+02 -0.15341758023E+01 -0.31289727763E+01  0.10893011382E+02  0.51100000000E-03 0. -1.
        -11    1    3    3    0    0  0.21124507363E+02 -0.56169609968E+01 -0.27141541479E+02  0.34849079418E+02  0.51100000000E-03 0.  1.
         12    1    3    3    0    0 -0.31416804387E+02  0.83114014378E+01  0.30055750819E+02  0.44265597805E+02  0.00000000000E+00 0. -1.
</event>
<event>
 7    1  0.2497665E-015  0.9000773E+02  0.7816164E-02  0.1186339E+00
        -11   -1    0    0    0    0  0.00000000000E+00  0.00000000000E+00  0.45593999997E+02  0.45594000000E+02  0.51100000000E-03 0.  1.
         11   -1    0    0    0    0 -0.00000000000E+00 -0.00000000000E+00 -0.45593999997E+02  0.45594000000E+02  0.51100000000E-03 0. -1.
    9900012    2    1    2    0    0 -0.86190966598E+00  0.54632602196E+00 -0.59301384580E+00  0.90007734854E+02  0.89999996154E+02 0.  0.
        -12    1    1    2    0    0  0.86190966598E+00 -0.54632602196E+00  0.59301384580E+00  0.11802651464E+01  0.00000000000E+00 0.  1.
         11    1    3    3    0    0  0.19115598729E+01  0.51574731050E+01 -0.69897273949E+01  0.88943734626E+01  0.51100000000E-03 0. -1.
        -11    1    3    3    0    0  0.33778748382E+02 -0.33393497593E+01 -0.16728204311E+02  0.37841616229E+02  0.51100000000E-03 0.  1.
         12    1    3    3    0    0 -0.36552217921E+02 -0.12717973238E+01  0.23124917860E+02  0.43271745162E+02  0.00000000000E+00 0. -1.
</event>
<event>
 7    1  0.2497665E-015  0.9000780E+02  0.7816164E-02  0.1186339E+00
        -11   -1    0    0    0    0  0.00000000000E+00  0.00000000000E+00  0.45593999997E+02  0.45594000000E+02  0.51100000000E-03 0.  1.
         11   -1    0    0    0    0 -0.00000000000E+00 -0.00000000000E+00 -0.45593999997E+02  0.45594000000E+02  0.51100000000E-03 0. -1.
    9900012    2    1    2    0    0 -0.10695882541E+01 -0.12313184495E-01  0.49870923521E+00  0.90007795971E+02  0.90000058078E+02 0.  0.
        -12    1    1    2    0    0  0.10695882541E+01  0.12313184495E-01 -0.49870923521E+00  0.11802040286E+01  0.00000000000E+00 0.  1.
         11    1    3    3    0    0  0.58022423867E+01 -0.54336266436E+01 -0.34278701197E+02  0.35188345674E+02  0.51100000000E-03 0. -1.
        -11    1    3    3    0    0 -0.12843608306E+01  0.84733854992E+01 -0.79083659670E+01  0.11661479198E+02  0.51100000000E-03 0.  1.
        -12    1    3    3    0    0 -0.55874698102E+01 -0.30520720401E+01  0.42685776399E+02  0.43157971100E+02  0.00000000000E+00 0.  1.
</event>
<event>
 7    1  0.2497665E-015  0.9000764E+02  0.7816164E-02  0.1186339E+00
        -11   -1    0    0    0    0  0.00000000000E+00  0.00000000000E+00  0.45593999997E+02  0.45594000000E+02  0.51100000000E-03 0. -1.
         11   -1    0    0    0    0 -0.00000000000E+00 -0.00000000000E+00 -0.45593999997E+02  0.45594000000E+02  0.51100000000E-03 0.  1.
    9900012    2    1    2    0    0  0.80018042777E+00 -0.70667360762E+00  0.50355960004E+00  0.90007640489E+02  0.89999900543E+02 0.  0.
        -12    1    1    2    0    0 -0.80018042777E+00  0.70667360762E+00 -0.50355960004E+00  0.11803595111E+01  0.00000000000E+00 0.  1.
         11    1    3    3    0    0 -0.56881770497E+01 -0.10380691962E+01 -0.87986021519E+01  0.10528454108E+02  0.51100000000E-03 0. -1.
        -11    1    3    3    0    0  0.22559412141E+02 -0.20100841690E+02 -0.23030928867E+02  0.37992033343E+02  0.51100000000E-03 0.  1.
         12    1    3    3    0    0 -0.16071054664E+02  0.20432237279E+02  0.32333090619E+02  0.41487153038E+02  0.00000000000E+00 0. -1.
</event>
<event>
 7    1  0.2497665E-015  0.9000777E+02  0.7816164E-02  0.1186339E+00
        -11   -1    0    0    0    0  0.00000000000E+00  0.00000000000E+00  0.45593999997E+02  0.45594000000E+02  0.51100000000E-03 0. -1.
         11   -1    0    0    0    0 -0.00000000000E+00 -0.00000000000E+00 -0.45593999997E+02  0.45594000000E+02  0.51100000000E-03 0.  1.
    9900012    2    1    2    0    0 -0.74235616309E+00  0.58835519604E+00  0.70404373705E+00  0.90007774558E+02  0.90000036382E+02 0.  0.
        -12    1    1    2    0    0  0.74235616309E+00 -0.58835519604E+00 -0.70404373705E+00  0.11802254417E+01  0.00000000000E+00 0.  1.
         11    1    3    3    0    0 -0.41662883492E+01 -0.43887060378E+01 -0.65954176196E+01  0.89508789029E+01  0.51100000000E-03 0. -1.
        -11    1    3    3    0    0  0.10490856860E+02  0.26991106625E+02 -0.27066049887E+02  0.39637721570E+02  0.51100000000E-03 0.  1.
         12    1    3    3    0    0 -0.70669246737E+01 -0.22014045391E+02  0.34365511244E+02  0.41419174085E+02  0.00000000000E+00 0. -1.
</event>
<event>
 7    1  0.2497665E-015  0.9000779E+02  0.7816164E-02  0.1186339E+00
        -11   -1    0    0    0    0  0.00000000000E+00  0.00000000000E+00  0.45593999997E+02  0.45594000000E+02  0.51100000000E-03 0.  1.
         11   -1    0    0    0    0 -0.00000000000E+00 -0.00000000000E+00 -0.45593999997E+02  0.45594000000E+02  0.51100000000E-03 0. -1.
    9900012    2    1    2    0    0 -0.42880129335E+00 -0.10217207035E+01 -0.40633091115E+00  0.90007793004E+02  0.90000055071E+02 0.  0.
        -12    1    1    2    0    0  0.42880129335E+00  0.10217207035E+01  0.40633091115E+00  0.11802069965E+01  0.00000000000E+00 0.  1.
         11    1    3    3    0    0 -0.40778120858E+02  0.44048231350E+01 -0.12919545563E+02  0.43002003039E+02  0.51100000000E-03 0. -1.
        -11    1    3    3    0    0  0.10304280633E+02  0.70290382246E+01  0.59748328398E+01  0.13830553331E+02  0.51100000000E-03 0.  1.
        -12    1    3    3    0    0  0.30045038932E+02 -0.12455582063E+02  0.65383818118E+01  0.33175236633E+02  0.00000000000E+00 0.  1.
</event>
<event>
 7    1  0.2497665E-015  0.9000770E+02  0.7816164E-02  0.1186339E+00
        -11   -1    0    0    0    0  0.00000000000E+00  0.00000000000E+00  0.45593999997E+02  0.45594000000E+02  0.51100000000E-03 0. -1.
         11   -1    0    0    0    0 -0.00000000000E+00 -0.00000000000E+00 -0.45593999997E+02  0.45594000000E+02  0.51100000000E-03 0.  1.
    9900012    2    1    2    0    0  0.10243174255E+01  0.52429700756E+00 -0.26268823079E+00  0.90007695528E+02  0.89999956309E+02 0.  0.
        -12    1    1    2    0    0 -0.10243174255E+01 -0.52429700756E+00  0.26268823079E+00  0.11803044721E+01  0.00000000000E+00 0.  1.
         11    1    3    3    0    0  0.21627270775E+01  0.56934412010E+01  0.39302422595E+02  0.39771510950E+02  0.51100000000E-03 0. -1.
        -11    1    3    3    0    0 -0.77798191967E+01  0.57527003695E+01 -0.11423130499E+01  0.97428962654E+01  0.51100000000E-03 0.  1.
        -12    1    3    3    0    0  0.66414095447E+01 -0.10921844563E+02 -0.38422797776E+02  0.40493288312E+02  0.00000000000E+00 0.  1.
</event>
<event>
 7    1  0.4196785E-015  0.9000771E+02  0.7816164E-02  0.1186339E+00
        -11   -1    0    0    0    0  0.00000000000E+00  0.00000000000E+00  0.45593999997E+02  0.45594000000E+02  0.51100000000E-03 0.  1.
         11   -1    0    0    0    0 -0.00000000000E+00 -0.00000000000E+00 -0.45593999997E+02  0.45594000000E+02  0.51100000000E-03 0. -1.
    9900012    2    1    2    0    0  0.14202467842E+00  0.81081124239E+00 -0.84587831026E+00  0.90007705123E+02  0.89999966031E+02 0.  0.
        -12    1    1    2    0    0 -0.14202467842E+00 -0.81081124239E+00  0.84587831026E+00  0.11802948766E+01  0.00000000000E+00 0.  1.
         11    1    3    3    0    0  0.15553488673E+02  0.26911176006E+02 -0.26372414613E+02  0.40763055046E+02  0.51100000000E-03 0. -1.
        -11    1    3    3    0    0 -0.47201669326E+00 -0.68417990678E+01 -0.61940771763E+01  0.92411907550E+01  0.51100000000E-03 0.  1.
        -12    1    3    3    0    0 -0.14939447301E+02 -0.19258565695E+02  0.31720613479E+02  0.40003459323E+02  0.00000000000E+00 0.  1.
</event>
<event>
 7    1  0.2497665E-015  0.9000757E+02  0.7816164E-02  0.1186339E+00
        -11   -1    0    0    0    0  0.00000000000E+00  0.00000000000E+00  0.45593999997E+02  0.45594000000E+02  0.51100000000E-03 0. -1.
         11   -1    0    0    0    0 -0.00000000000E+00 -0.00000000000E+00 -0.45593999997E+02  0.45594000000E+02  0.51100000000E-03 0.  1.
    9900012    2    1    2    0    0  0.40856327409E+00  0.10295199808E+01 -0.40815518340E+00  0.90007565337E+02  0.89999824399E+02 0.  0.
        -12    1    1    2    0    0 -0.40856327409E+00 -0.10295199808E+01  0.40815518340E+00  0.11804346630E+01  0.00000000000E+00 0.  1.
         11    1    3    3    0    0  0.15097863640E+02 -0.63256565364E+01  0.35787159535E+02  0.39353274387E+02  0.51100000000E-03 0. -1.
        -11    1    3    3    0    0 -0.50131701764E+01  0.83894682876E+01  0.30361573062E+01  0.10233929100E+02  0.51100000000E-03 0.  1.
        -12    1    3    3    0    0 -0.96761301894E+01 -0.10342917704E+01 -0.39231472025E+02  0.40420361851E+02  0.00000000000E+00 0.  1.
</event>
<event>
 7    1  0.2988982E-015  0.9000784E+02  0.7816164E-02  0.1186339E+00
        -11   -1    0    0    0    0  0.00000000000E+00  0.00000000000E+00  0.45593999997E+02  0.45594000000E+02  0.51100000000E-03 0.  1.
         11   -1    0    0    0    0 -0.00000000000E+00 -0.00000000000E+00 -0.45593999997E+02  0.45594000000E+02  0.51100000000E-03 0. -1.
    9900012    2    1    2    0    0  0.67556138830E+00  0.60236447190E+00 -0.75733956689E+00  0.90007835026E+02  0.90000097648E+02 0.  0.
        -12    1    1    2    0    0 -0.67556138830E+00 -0.60236447190E+00  0.75733956689E+00  0.11801649740E+01  0.00000000000E+00 0.  1.
         11    1    3    3    0    0  0.24918947391E+02  0.98068908328E+00 -0.26467540630E+02  0.36365456101E+02  0.51100000000E-03 0. -1.
        -11    1    3    3    0    0  0.46501129870E+01 -0.52272959379E+01 -0.68847514906E+01  0.98157005335E+01  0.51100000000E-03 0.  1.
        -12    1    3    3    0    0 -0.28893498990E+02  0.48489713265E+01  0.32594952554E+02  0.43826678391E+02  0.00000000000E+00 0.  1.
</event>
<event>
 7    1  0.2497665E-015  0.9000777E+02  0.7816164E-02  0.1186339E+00
        -11   -1    0    0    0    0  0.00000000000E+00  0.00000000000E+00  0.45593999997E+02  0.45594000000E+02  0.51100000000E-03 0.  1.
         11   -1    0    0    0    0 -0.00000000000E+00 -0.00000000000E+00 -0.45593999997E+02  0.45594000000E+02  0.51100000000E-03 0. -1.
    9900012    2    1    2    0    0 -0.11802071056E+01  0.65962091062E-02 -0.64792865008E-03  0.90007774284E+02  0.90000036104E+02 0.  0.
        -12    1    1    2    0    0  0.11802071056E+01 -0.65962091062E-02  0.64792865007E-03  0.11802257165E+01  0.00000000000E+00 0.  1.
         11    1    3    3    0    0  0.30117641639E+02 -0.17477690336E+02 -0.37790698180E+01  0.35026038404E+02  0.51100000000E-03 0. -1.
        -11    1    3    3    0    0  0.84094694944E+01 -0.36827388501E+01 -0.25842252278E+01  0.95372932693E+01  0.51100000000E-03 0.  1.
        -12    1    3    3    0    0 -0.39707318238E+02  0.21167025396E+02  0.63626471171E+01  0.45444442610E+02  0.00000000000E+00 0.  1.
</event>
<event>
 7    1  0.2497665E-015  0.9000778E+02  0.7816164E-02  0.1186339E+00
        -11   -1    0    0    0    0  0.00000000000E+00  0.00000000000E+00  0.45593999997E+02  0.45594000000E+02  0.51100000000E-03 0. -1.
         11   -1    0    0    0    0 -0.00000000000E+00 -0.00000000000E+00 -0.45593999997E+02  0.45594000000E+02  0.51100000000E-03 0.  1.
    9900012    2    1    2    0    0 -0.78784675487E+00 -0.54774496230E+00  0.68715873492E+00  0.90007782147E+02  0.90000044072E+02 0.  0.
        -12    1    1    2    0    0  0.78784675487E+00  0.54774496230E+00 -0.68715873492E+00  0.11802178527E+01  0.00000000000E+00 0.  1.
         11    1    3    3    0    0 -0.10181784054E+02  0.35491797345E+01  0.81963638810E+00  0.10813750847E+02  0.51100000000E-03 0. -1.
        -11    1    3    3    0    0 -0.19258055617E+02 -0.79181984038E+01 -0.30718281335E+02  0.37110421455E+02  0.51100000000E-03 0.  1.
         12    1    3    3    0    0  0.28651992916E+02  0.38212737070E+01  0.30585803682E+02  0.42083609846E+02  0.00000000000E+00 0. -1.
</event>
<event>
 7    1  0.2497665E-015  0.9000757E+02  0.7816164E-02  0.1186339E+00
        -11   -1    0    0    0    0  0.00000000000E+00  0.00000000000E+00  0.45593999997E+02  0.45594000000E+02  0.51100000000E-03 0.  1.
         11   -1    0    0    0    0 -0.00000000000E+00 -0.00000000000E+00 -0.45593999997E+02  0.45594000000E+02  0.51100000000E-03 0. -1.
    9900012    2    1    2    0    0  0.88568128362E+00  0.12751060397E+00 -0.76989093264E+00  0.90007566885E+02  0.89999825968E+02 0.  0.
        -12    1    1    2    0    0 -0.88568128362E+00 -0.12751060397E+00  0.76989093264E+00  0.11804331148E+01  0.00000000000E+00 0.  1.
         11    1    3    3    0    0  0.73940372203E+01  0.75843232780E+01 -0.87191640584E+01  0.13719240800E+02  0.51100000000E-03 0. -1.
        -11    1    3    3    0    0 -0.43166425635E+01  0.11437424807E+02  0.38447801844E+02  0.40344535641E+02  0.51100000000E-03 0.  1.
         12    1    3    3    0    0 -0.21917133732E+01 -0.18894237481E+02 -0.30498528718E+02  0.35943790444E+02  0.00000000000E+00 0. -1.
</event>
<event>
 7    1  0.2497665E-015  0.9000763E+02  0.7816164E-02  0.1186339E+00
        -11   -1    0    0    0    0  0.00000000000E+00  0.00000000000E+00  0.45593999997E+02  0.45594000000E+02  0.51100000000E-03 0.  1.
         11   -1    0    0    0    0 -0.00000000000E+00 -0.00000000000E+00 -0.45593999997E+02  0.45594000000E+02  0.51100000000E-03 0. -1.
    9900012    2    1    2    0    0 -0.11358332424E+01  0.26035025062E+00  0.18809414953E+00  0.90007627679E+02  0.89999887564E+02 0.  0.
        -12    1    1    2    0    0  0.11358332424E+01 -0.26035025062E+00 -0.18809414953E+00  0.11803723212E+01  0.00000000000E+00 0.  1.
         11    1    3    3    0    0 -0.11603820383E+02  0.24866500435E+01  0.50969110693E+01  0.12915516971E+02  0.51100000000E-03 0. -1.
        -11    1    3    3    0    0 -0.21778858177E+02 -0.66678719648E+01  0.24336851343E+02  0.33332589362E+02  0.51100000000E-03 0.  1.
         12    1    3    3    0    0  0.32246845317E+02  0.44415721720E+01 -0.29245668263E+02  0.43759521346E+02  0.00000000000E+00 0. -1.
</event>
<event>
 7    1  0.2497665E-015  0.9000781E+02  0.7816164E-02  0.1186339E+00
        -11   -1    0    0    0    0  0.00000000000E+00  0.00000000000E+00  0.45593999997E+02  0.45594000000E+02  0.51100000000E-03 0. -1.
         11   -1    0    0    0    0 -0.00000000000E+00 -0.00000000000E+00 -0.45593999997E+02  0.45594000000E+02  0.51100000000E-03 0.  1.
    9900012    2    1    2    0    0 -0.51271273163E+00 -0.58470013049E+00  0.88774782832E+00  0.90007811543E+02  0.90000073855E+02 0.  0.
        -12    1    1    2    0    0  0.51271273163E+00  0.58470013049E+00 -0.88774782832E+00  0.11801884572E+01  0.00000000000E+00 0.  1.
         11    1    3    3    0    0  0.77332586585E+00 -0.11670056381E+01 -0.96268145611E+01  0.97280776060E+01  0.51100000000E-03 0. -1.
        -11    1    3    3    0    0  0.35338199344E+02 -0.64126577460E+01 -0.10578360727E+02  0.37440782954E+02  0.51100000000E-03 0.  1.
         12    1    3    3    0    0 -0.36624237942E+02  0.69949632536E+01  0.21092923117E+02  0.42838950983E+02  0.00000000000E+00 0. -1.
</event>
<event>
 7    1  0.2497665E-015  0.9000781E+02  0.7816164E-02  0.1186339E+00
        -11   -1    0    0    0    0  0.00000000000E+00  0.00000000000E+00  0.45593999997E+02  0.45594000000E+02  0.51100000000E-03 0. -1.
         11   -1    0    0    0    0 -0.00000000000E+00 -0.00000000000E+00 -0.45593999997E+02  0.45594000000E+02  0.51100000000E-03 0.  1.
    9900012    2    1    2    0    0  0.79548876533E+00 -0.83830198006E+00  0.23935056406E+00  0.90007813033E+02  0.90000075365E+02 0.  0.
        -12    1    1    2    0    0 -0.79548876533E+00  0.83830198006E+00 -0.23935056406E+00  0.11801869674E+01  0.00000000000E+00 0.  1.
         11    1    3    3    0    0 -0.81655066370E+01  0.79451753988E+00  0.17995918000E+01  0.83991242203E+01  0.51100000000E-03 0. -1.
        -11    1    3    3    0    0  0.24993275231E+01 -0.99116660249E+00 -0.41277068616E+02  0.41364543308E+02  0.51100000000E-03 0.  1.
         12    1    3    3    0    0  0.64616678793E+01 -0.64165291744E+00  0.39716827380E+02  0.40244145504E+02  0.00000000000E+00 0. -1.
</event>
<event>
 7    1  0.2497665E-015  0.9000775E+02  0.7816164E-02  0.1186339E+00
        -11   -1    0    0    0    0  0.00000000000E+00  0.00000000000E+00  0.45593999997E+02  0.45594000000E+02  0.51100000000E-03 0.  1.
         11   -1    0    0    0    0 -0.00000000000E+00 -0.00000000000E+00 -0.45593999997E+02  0.45594000000E+02  0.51100000000E-03 0. -1.
    9900012    2    1    2    0    0  0.11189458897E+01  0.28518726528E+00 -0.24418425307E+00  0.90007746794E+02  0.90000008252E+02 0.  0.
        -12    1    1    2    0    0 -0.11189458897E+01 -0.28518726528E+00  0.24418425307E+00  0.11802532058E+01  0.00000000000E+00 0.  1.
         11    1    3    3    0    0  0.24679434940E+02  0.34855482776E+02 -0.12666717263E+02  0.44546884459E+02  0.51100000000E-03 0. -1.
        -11    1    3    3    0    0 -0.16711286991E+01 -0.10339753239E+02 -0.13768113694E+00  0.10474832911E+02  0.51100000000E-03 0.  1.
        -12    1    3    3    0    0 -0.21889360352E+02 -0.24230542272E+02  0.12560214147E+02  0.34986029424E+02  0.00000000000E+00 0.  1.
</event>
<event>
 7    1  0.2497665E-015  0.9000777E+02  0.7816164E-02  0.1186339E+00
        -11   -1    0    0    0    0  0.00000000000E+00  0.00000000000E+00  0.45593999997E+02  0.45594000000E+02  0.51100000000E-03 0. -1.
         11   -1    0    0    0    0 -0.00000000000E+00 -0.00000000000E+00 -0.45593999997E+02  0.45594000000E+02  0.51100000000E-03 0.  1.
    9900012    2    1    2    0    0  0.97284327315E+00 -0.41043986349E+00 -0.52730435379E+00  0.90007773413E+02  0.90000035222E+02 0.  0.
        -12    1    1    2    0    0 -0.97284327315E+00  0.41043986349E+00  0.52730435379E+00  0.11802265872E+01  0.00000000000E+00 0.  1.
         11    1    3    3    0    0  0.54581704952E+01  0.76621473509E+01  0.22056920371E+01  0.96625671954E+01  0.51100000000E-03 0. -1.
        -11    1    3    3    0    0  0.62264867988E+01 -0.39017653353E+02  0.15989696146E+02  0.42624133940E+02  0.51100000000E-03 0.  1.
         12    1    3    3    0    0 -0.10711814021E+02  0.30945066139E+02 -0.18722692537E+02  0.37721072278E+02  0.00000000000E+00 0. -1.
</event>
<event>
 7    1  0.2497665E-015  0.9000771E+02  0.7816164E-02  0.1186339E+00
        -11   -1    0    0    0    0  0.00000000000E+00  0.00000000000E+00  0.45593999997E+02  0.45594000000E+02  0.51100000000E-03 0.  1.
         11   -1    0    0    0    0 -0.00000000000E+00 -0.00000000000E+00 -0.45593999997E+02  0.45594000000E+02  0.51100000000E-03 0. -1.
    9900012    2    1    2    0    0  0.22130086206E+00 -0.99538795414E+00 -0.59439848460E+00  0.90007711557E+02  0.89999972549E+02 0.  0.
        -12    1    1    2    0    0 -0.22130086206E+00  0.99538795414E+00  0.59439848460E+00  0.11802884433E+01  0.00000000000E+00 0.  1.
         11    1    3    3    0    0 -0.32775133712E+02 -0.22226826795E+02  0.31839864820E+00  0.39602305453E+02  0.51100000000E-03 0. -1.
        -11    1    3    3    0    0 -0.57634267548E+01  0.58190440487E+01  0.24760479477E+01  0.85562360474E+01  0.51100000000E-03 0.  1.
        -12    1    3    3    0    0  0.38759861329E+02  0.15412394793E+02 -0.33888450805E+01  0.41849170057E+02  0.00000000000E+00 0.  1.
</event>
<event>
 7    1  0.2497665E-015  0.9000759E+02  0.7816164E-02  0.1186339E+00
        -11   -1    0    0    0    0  0.00000000000E+00  0.00000000000E+00  0.45593999997E+02  0.45594000000E+02  0.51100000000E-03 0. -1.
         11   -1    0    0    0    0 -0.00000000000E+00 -0.00000000000E+00 -0.45593999997E+02  0.45594000000E+02  0.51100000000E-03 0.  1.
    9900012    2    1    2    0    0  0.65813628450E+00 -0.37917306007E+00 -0.90357094966E+00  0.90007594968E+02  0.89999854421E+02 0.  0.
        -12    1    1    2    0    0 -0.65813628450E+00  0.37917306007E+00  0.90357094966E+00  0.11804050320E+01  0.00000000000E+00 0.  1.
         11    1    3    3    0    0  0.10393772496E+02 -0.19521470970E+02 -0.10461758106E+02  0.24465623198E+02  0.51100000000E-03 0. -1.
        -11    1    3    3    0    0  0.90699535249E+01 -0.43090402316E+01  0.28360540053E+02  0.30085746077E+02  0.51100000000E-03 0.  1.
        -12    1    3    3    0    0 -0.18805589737E+02  0.23451338141E+02 -0.18802352897E+02  0.35456225693E+02  0.00000000000E+00 0.  1.
</event>
<event>
 7    1  0.2497665E-015  0.9000768E+02  0.7816164E-02  0.1186339E+00
        -11   -1    0    0    0    0  0.00000000000E+00  0.00000000000E+00  0.45593999997E+02  0.45594000000E+02  0.51100000000E-03 0.  1.
         11   -1    0    0    0    0 -0.00000000000E+00 -0.00000000000E+00 -0.45593999997E+02  0.45594000000E+02  0.51100000000E-03 0. -1.
    9900012    2    1    2    0    0 -0.23516798270E+00 -0.72017181173E+00 -0.90509736809E+00  0.90007681118E+02  0.89999941708E+02 0.  0.
        -12    1    1    2    0    0  0.23516798270E+00  0.72017181173E+00  0.90509736809E+00  0.11803188824E+01  0.00000000000E+00 0.  1.
         11    1    3    3    0    0  0.58408488175E+01  0.61008263107E+00 -0.49727406033E+01  0.76951845393E+01  0.51100000000E-03 0. -1.
        -11    1    3    3    0    0 -0.38537759688E+02  0.15575042561E+02 -0.10578172279E+02  0.42891008400E+02  0.51100000000E-03 0.  1.
         12    1    3    3    0    0  0.32461742888E+02 -0.16905297004E+02  0.14645815515E+02  0.39421488178E+02  0.00000000000E+00 0. -1.
</event>
<event>
 7    1  0.2497665E-015  0.9000773E+02  0.7816164E-02  0.1186339E+00
        -11   -1    0    0    0    0  0.00000000000E+00  0.00000000000E+00  0.45593999997E+02  0.45594000000E+02  0.51100000000E-03 0.  1.
         11   -1    0    0    0    0 -0.00000000000E+00 -0.00000000000E+00 -0.45593999997E+02  0.45594000000E+02  0.51100000000E-03 0. -1.
    9900012    2    1    2    0    0  0.37755594057E+00 -0.55762098153E+00 -0.96930761928E+00  0.90007725918E+02  0.89999987100E+02 0.  0.
        -12    1    1    2    0    0 -0.37755594057E+00  0.55762098153E+00  0.96930761928E+00  0.11802740818E+01  0.00000000000E+00 0.  1.
         11    1    3    3    0    0 -0.22200089488E+02 -0.29851015002E+01 -0.26936654586E+02  0.35033386430E+02  0.51100000000E-03 0. -1.
        -11    1    3    3    0    0 -0.43187823793E+01 -0.10473677769E+02 -0.46329535923E+01  0.12239855657E+02  0.51100000000E-03 0.  1.
        -12    1    3    3    0    0  0.26896427808E+02  0.12901158288E+02  0.30600300559E+02  0.42734483831E+02  0.00000000000E+00 0.  1.
</event>
<event>
 7    1  0.2497665E-015  0.9000759E+02  0.7816164E-02  0.1186339E+00
        -11   -1    0    0    0    0  0.00000000000E+00  0.00000000000E+00  0.45593999997E+02  0.45594000000E+02  0.51100000000E-03 0.  1.
         11   -1    0    0    0    0 -0.00000000000E+00 -0.00000000000E+00 -0.45593999997E+02  0.45594000000E+02  0.51100000000E-03 0. -1.
    9900012    2    1    2    0    0 -0.14286705230E+00 -0.11716468862E+01  0.14078065194E-01  0.90007590913E+02  0.89999850313E+02 0.  0.
        -12    1    1    2    0    0  0.14286705230E+00  0.11716468862E+01 -0.14078065194E-01  0.11804090869E+01  0.00000000000E+00 0.  1.
         11    1    3    3    0    0  0.32434995700E+02 -0.26764217566E+02  0.47843803331E+01  0.42323073889E+02  0.51100000000E-03 0. -1.
        -11    1    3    3    0    0 -0.24505802290E+00  0.99601029101E+01  0.39662573869E+01  0.10723567566E+02  0.51100000000E-03 0.  1.
        -12    1    3    3    0    0 -0.32332804730E+02  0.15632467769E+02 -0.87365596548E+01  0.36960949458E+02  0.00000000000E+00 0.  1.
</event>
<event>
 7    1  0.2497665E-015  0.9000778E+02  0.7816164E-02  0.1186339E+00
        -11   -1    0    0    0    0  0.00000000000E+00  0.00000000000E+00  0.45593999997E+02  0.45594000000E+02  0.51100000000E-03 0.  1.
         11   -1    0    0    0    0 -0.00000000000E+00 -0.00000000000E+00 -0.45593999997E+02  0.45594000000E+02  0.51100000000E-03 0. -1.
    9900012    2    1    2    0    0  0.99777667277E+00 -0.16818462348E+00  0.60751429955E+00  0.90007780537E+02  0.90000042440E+02 0.  0.
        -12    1    1    2    0    0 -0.99777667277E+00  0.16818462348E+00 -0.60751429955E+00  0.11802194628E+01  0.00000000000E+00 0.  1.
         11    1    3    3    0    0  0.17369226836E+02  0.21036848127E+02 -0.26933931659E+02  0.38336349524E+02  0.51100000000E-03 0. -1.
        -11    1    3    3    0    0 -0.19995061406E+01  0.19516797402E+01 -0.70790430866E+01  0.76105144305E+01  0.51100000000E-03 0.  1.
        -12    1    3    3    0    0 -0.14371944023E+02 -0.23156712491E+02  0.34620489045E+02  0.44060916582E+02  0.00000000000E+00 0.  1.
</event>
<event>
 7    1  0.2497665E-015  0.9000773E+02  0.7816164E-02  0.1186339E+00
        -11   -1    0    0    0    0  0.00000000000E+00  0.00000000000E+00  0.45593999997E+02  0.45594000000E+02  0.51100000000E-03 0. -1.
         11   -1    0    0    0    0 -0.00000000000E+00 -0.00000000000E+00 -0.45593999997E+02  0.45594000000E+02  0.51100000000E-03 0.  1.
    9900012    2    1    2    0    0  0.29400467153E+00 -0.55137712404E+00  0.10012887120E+01  0.90007731147E+02  0.89999992398E+02 0.  0.
        -12    1    1    2    0    0 -0.29400467153E+00  0.55137712404E+00 -0.10012887120E+01  0.11802688527E+01  0.00000000000E+00 0.  1.
         11    1    3    3    0    0  0.81869710368E+01 -0.38532464677E+02  0.15969565484E+02  0.42506521275E+02  0.51100000000E-03 0. -1.
        -11    1    3    3    0    0  0.21833115404E+01  0.11357002092E+02  0.51325566094E+01  0.12652726323E+02  0.51100000000E-03 0.  1.
        -12    1    3    3    0    0 -0.10076277906E+02  0.26624085461E+02 -0.20100833381E+02  0.34848483550E+02  0.00000000000E+00 0.  1.
</event>
<event>
 7    1  0.2497665E-015  0.9000776E+02  0.7816164E-02  0.1186339E+00
        -11   -1    0    0    0    0  0.00000000000E+00  0.00000000000E+00  0.45593999997E+02  0.45594000000E+02  0.51100000000E-03 0. -1.
         11   -1    0    0    0    0 -0.00000000000E+00 -0.00000000000E+00 -0.45593999997E+02  0.45594000000E+02  0.51100000000E-03 0.  1.
    9900012    2    1    2    0    0 -0.11039342943E+00 -0.11592876365E+01  0.19193845304E+00  0.90007756422E+02  0.90000018007E+02 0.  0.
        -12    1    1    2    0    0  0.11039342943E+00  0.11592876365E+01 -0.19193845304E+00  0.11802435779E+01  0.00000000000E+00 0.  1.
         11    1    3    3    0    0 -0.21521329736E+02 -0.12526553867E+02  0.35629995840E+02  0.43469285584E+02  0.51100000000E-03 0. -1.
        -11    1    3    3    0    0  0.96809553889E+01  0.36846518892E+00 -0.26882702445E+01  0.10054027104E+02  0.51100000000E-03 0.  1.
        -12    1    3    3    0    0  0.11729980918E+02  0.10998801042E+02 -0.32749787142E+02  0.36484443734E+02  0.00000000000E+00 0.  1.
</event>
<event>
 7    1  0.2497665E-015  0.9000772E+02  0.7816164E-02  0.1186339E+00
        -11   -1    0    0    0    0  0.00000000000E+00  0.00000000000E+00  0.45593999997E+02  0.45594000000E+02  0.51100000000E-03 0.  1.
         11   -1    0    0    0    0 -0.00000000000E+00 -0.00000000000E+00 -0.45593999997E+02  0.45594000000E+02  0.51100000000E-03 0. -1.
    9900012    2    1    2    0    0  0.10622047485E+01 -0.51449187629E+00  0.88096819366E-02  0.90007721038E+02  0.89999982155E+02 0.  0.
        -12    1    1    2    0    0 -0.10622047485E+01  0.51449187629E+00 -0.88096819366E-02  0.11802789624E+01  0.00000000000E+00 0.  1.
         11    1    3    3    0    0 -0.15938508422E+02 -0.54859926309E+01 -0.33316682621E+02  0.37338097260E+02  0.51100000000E-03 0. -1.
        -11    1    3    3    0    0  0.11561551476E+01 -0.94655116932E+01 -0.34186321874E+01  0.10130135865E+02  0.51100000000E-03 0.  1.
        -12    1    3    3    0    0  0.15844558023E+02  0.14437012448E+02  0.36744124490E+02  0.42539487913E+02  0.00000000000E+00 0.  1.
</event>
<event>
 7    1  0.2497665E-015  0.9000773E+02  0.7816164E-02  0.1186339E+00
        -11   -1    0    0    0    0  0.00000000000E+00  0.00000000000E+00  0.45593999997E+02  0.45594000000E+02  0.51100000000E-03 0.  1.
         11   -1    0    0    0    0 -0.00000000000E+00 -0.00000000000E+00 -0.45593999997E+02  0.45594000000E+02  0.51100000000E-03 0. -1.
    9900012    2    1    2    0    0  0.28070775490E+00 -0.11401256827E+01  0.11976249476E+00  0.90007734576E+02  0.89999995872E+02 0.  0.
        -12    1    1    2    0    0 -0.28070775490E+00  0.11401256827E+01 -0.11976249476E+00  0.11802654241E+01  0.00000000000E+00 0.  1.
         11    1    3    3    0    0  0.13029176226E+02 -0.27051495458E+02 -0.26138851346E+02  0.39809325410E+02  0.51100000000E-03 0. -1.
        -11    1    3    3    0    0 -0.89091979868E+01 -0.11070628289E+01 -0.36672831377E+01  0.96978535125E+01  0.51100000000E-03 0.  1.
        -12    1    3    3    0    0 -0.38392704847E+01  0.27018432605E+02  0.29925896978E+02  0.40500555653E+02  0.00000000000E+00 0.  1.
</event>
<event>
 7    1  0.2497665E-015  0.9000666E+02  0.7816164E-02  0.1186341E+00
        -11   -1    0    0    0    0  0.00000000000E+00  0.00000000000E+00  0.45593999997E+02  0.45594000000E+02  0.51100000000E-03 0.  1.
         11   -1    0    0    0    0 -0.00000000000E+00 -0.00000000000E+00 -0.45593999997E+02  0.45594000000E+02  0.51100000000E-03 0. -1.
    9900012    2    1    2    0    0  0.11611697678E+01 -0.19649267724E+00  0.92985461246E-01  0.90006657163E+02  0.89998904231E+02 0.  0.
        -12    1    1    2    0    0 -0.11611697678E+01  0.19649267724E+00 -0.92985461246E-01  0.11813428367E+01  0.00000000000E+00 0.  1.
         11    1    3    3    0    0  0.37187464867E+02  0.21967215910E+01 -0.61718767906E+00  0.37257402619E+02  0.51100000000E-03 0. -1.
        -11    1    3    3    0    0  0.53498126051E+01 -0.43569729083E+01 -0.78501955752E+01  0.10451281197E+02  0.51100000000E-03 0.  1.
        -12    1    3    3    0    0 -0.41376107704E+02  0.19637586400E+01  0.85603687155E+01  0.42297973347E+02  0.00000000000E+00 0.  1.
</event>
<event>
 7    1  0.2497665E-015  0.9000741E+02  0.7816164E-02  0.1186340E+00
        -11   -1    0    0    0    0  0.00000000000E+00  0.00000000000E+00  0.45593999997E+02  0.45594000000E+02  0.51100000000E-03 0. -1.
         11   -1    0    0    0    0 -0.00000000000E+00 -0.00000000000E+00 -0.45593999997E+02  0.45594000000E+02  0.51100000000E-03 0.  1.
    9900012    2    1    2    0    0 -0.64656239614E+00 -0.50636237059E+00  0.84813878519E+00  0.90007413205E+02  0.89999670258E+02 0.  0.
        -12    1    1    2    0    0  0.64656239614E+00  0.50636237059E+00 -0.84813878519E+00  0.11805867954E+01  0.00000000000E+00 0.  1.
         11    1    3    3    0    0 -0.25402623832E+02 -0.29598160033E+02  0.41449834653E+01  0.39224039352E+02  0.51100000000E-03 0. -1.
        -11    1    3    3    0    0  0.34518100597E+01 -0.38088949054E+01  0.84274887758E+01  0.98714355803E+01  0.51100000000E-03 0.  1.
        -12    1    3    3    0    0  0.21304251376E+02  0.32900692568E+02 -0.11724333456E+02  0.40911938272E+02  0.00000000000E+00 0.  1.
</event>
<event>
 7    1  0.2497665E-015  0.9000777E+02  0.7816164E-02  0.1186339E+00
        -11   -1    0    0    0    0  0.00000000000E+00  0.00000000000E+00  0.45593999997E+02  0.45594000000E+02  0.51100000000E-03 0. -1.
         11   -1    0    0    0    0 -0.00000000000E+00 -0.00000000000E+00 -0.45593999997E+02  0.45594000000E+02  0.51100000000E-03 0.  1.
    9900012    2    1    2    0    0  0.12405029688E+00  0.10866915980E+01  0.44344745041E+00  0.90007774282E+02  0.90000036102E+02 0.  0.
        -12    1    1    2    0    0 -0.12405029688E+00 -0.10866915980E+01 -0.44344745041E+00  0.11802257185E+01  0.00000000000E+00 0.  1.
         11    1    3    3    0    0 -0.17989931252E+01  0.12863053491E+02  0.37731266876E+02  0.39904172986E+02  0.51100000000E-03 0. -1.
        -11    1    3    3    0    0 -0.86542602151E+01 -0.34508969044E+01  0.11400050261E+01  0.93864008563E+01  0.51100000000E-03 0.  1.
        -12    1    3    3    0    0  0.10577303637E+02 -0.83254649885E+01 -0.38427824452E+02  0.40717200439E+02  0.00000000000E+00 0.  1.
</event>
<event>
 7    1  0.2497665E-015  0.9000765E+02  0.7816164E-02  0.1186339E+00
        -11   -1    0    0    0    0  0.00000000000E+00  0.00000000000E+00  0.45593999997E+02  0.45594000000E+02  0.51100000000E-03 0.  1.
         11   -1    0    0    0    0 -0.00000000000E+00 -0.00000000000E+00 -0.45593999997E+02  0.45594000000E+02  0.51100000000E-03 0. -1.
    9900012    2    1    2    0    0 -0.27290545996E+00 -0.11319321724E+01  0.19357751019E+00  0.90007652557E+02  0.89999912771E+02 0.  0.
        -12    1    1    2    0    0  0.27290545996E+00  0.11319321724E+01 -0.19357751019E+00  0.11803474427E+01  0.00000000000E+00 0.  1.
         11    1    3    3    0    0  0.25957217347E+02  0.25516349303E+02 -0.16958796749E+01  0.36438128688E+02  0.51100000000E-03 0. -1.
        -11    1    3    3    0    0  0.76204967583E+01  0.10012994034E+01  0.58839846586E+01  0.96796615159E+01  0.51100000000E-03 0.  1.
        -12    1    3    3    0    0 -0.33850619565E+02 -0.27649580879E+02 -0.39945274735E+01  0.43889862354E+02  0.00000000000E+00 0.  1.
</event>
<event>
 7    1  0.2497665E-015  0.9000782E+02  0.7816164E-02  0.1186339E+00
        -11   -1    0    0    0    0  0.00000000000E+00  0.00000000000E+00  0.45593999997E+02  0.45594000000E+02  0.51100000000E-03 0. -1.
         11   -1    0    0    0    0 -0.00000000000E+00 -0.00000000000E+00 -0.45593999997E+02  0.45594000000E+02  0.51100000000E-03 0.  1.
    9900012    2    1    2    0    0  0.10359886559E+01 -0.51205401893E+00  0.23948855282E+00  0.90007819259E+02  0.90000081674E+02 0.  0.
        -12    1    1    2    0    0 -0.10359886559E+01  0.51205401893E+00 -0.23948855282E+00  0.11801807406E+01  0.00000000000E+00 0.  1.
         11    1    3    3    0    0  0.57354880921E+01  0.40784751591E+01  0.57194635422E+01  0.90687400861E+01  0.51100000000E-03 0. -1.
        -11    1    3    3    0    0  0.29929047128E+02 -0.26330196714E+02 -0.30936658542E+01  0.39982469780E+02  0.51100000000E-03 0.  1.
         12    1    3    3    0    0 -0.34628546564E+02  0.21739667536E+02 -0.23863091352E+01  0.40956609394E+02  0.00000000000E+00 0. -1.
</event>
<event>
 7    1  0.2497665E-015  0.9000774E+02  0.7816164E-02  0.1186339E+00
        -11   -1    0    0    0    0  0.00000000000E+00  0.00000000000E+00  0.45593999997E+02  0.45594000000E+02  0.51100000000E-03 0. -1.
         11   -1    0    0    0    0 -0.00000000000E+00 -0.00000000000E+00 -0.45593999997E+02  0.45594000000E+02  0.51100000000E-03 0.  1.
    9900012    2    1    2    0    0 -0.78689114531E-01 -0.11543421615E+01  0.23308277398E+00  0.90007735037E+02  0.89999996340E+02 0.  0.
        -12    1    1    2    0    0  0.78689114531E-01  0.11543421615E+01 -0.23308277398E+00  0.11802649627E+01  0.00000000000E+00 0.  1.
         11    1    3    3    0    0  0.50680087932E+01  0.66469374269E+01  0.62953515280E+01  0.10464126404E+02  0.51100000000E-03 0. -1.
        -11    1    3    3    0    0  0.14516677247E+01  0.89486815219E+01  0.34231175959E+02  0.35411292661E+02  0.51100000000E-03 0.  1.
         12    1    3    3    0    0 -0.65983656324E+01 -0.16749961110E+02 -0.40293444713E+02  0.44132315972E+02  0.00000000000E+00 0. -1.
</event>
<event>
 7    1  0.2497665E-015  0.9000765E+02  0.7816164E-02  0.1186339E+00
        -11   -1    0    0    0    0  0.00000000000E+00  0.00000000000E+00  0.45593999997E+02  0.45594000000E+02  0.51100000000E-03 0.  1.
         11   -1    0    0    0    0 -0.00000000000E+00 -0.00000000000E+00 -0.45593999997E+02  0.45594000000E+02  0.51100000000E-03 0. -1.
    9900012    2    1    2    0    0  0.89737109886E+00 -0.71047949448E+00 -0.28840638598E+00  0.90007646559E+02  0.89999906694E+02 0.  0.
        -12    1    1    2    0    0 -0.89737109886E+00  0.71047949448E+00  0.28840638598E+00  0.11803534405E+01  0.00000000000E+00 0.  1.
         11    1    3    3    0    0 -0.22251754371E+02  0.11749392874E+02 -0.27366908733E+02  0.37177096435E+02  0.51100000000E-03 0. -1.
        -11    1    3    3    0    0  0.73095309814E+01  0.11911762516E+02  0.17131565157E+02  0.22109044629E+02  0.51100000000E-03 0.  1.
        -12    1    3    3    0    0  0.15839594488E+02 -0.24371634884E+02  0.99469371897E+01  0.30721505495E+02  0.00000000000E+00 0.  1.
</event>
<event>
 7    1  0.2497665E-015  0.9000776E+02  0.7816164E-02  0.1186339E+00
        -11   -1    0    0    0    0  0.00000000000E+00  0.00000000000E+00  0.45593999997E+02  0.45594000000E+02  0.51100000000E-03 0.  1.
         11   -1    0    0    0    0 -0.00000000000E+00 -0.00000000000E+00 -0.45593999997E+02  0.45594000000E+02  0.51100000000E-03 0. -1.
    9900012    2    1    2    0    0  0.76281823771E+00  0.89026640444E+00 -0.13600230457E+00  0.90007761651E+02  0.90000023304E+02 0.  0.
        -12    1    1    2    0    0 -0.76281823771E+00 -0.89026640444E+00  0.13600230457E+00  0.11802383494E+01  0.00000000000E+00 0.  1.
         11    1    3    3    0    0  0.67347227504E+01 -0.80182441982E+01  0.28693309696E+01  0.10857338118E+02  0.51100000000E-03 0. -1.
        -11    1    3    3    0    0  0.15213226801E+02  0.33311641326E+02  0.17798325700E+02  0.40717172244E+02  0.51100000000E-03 0.  1.
         12    1    3    3    0    0 -0.21185131313E+02 -0.24403130724E+02 -0.20803658974E+02  0.38433251288E+02  0.00000000000E+00 0. -1.
</event>
<event>
 7    1  0.2497665E-015  0.9000769E+02  0.7816164E-02  0.1186339E+00
        -11   -1    0    0    0    0  0.00000000000E+00  0.00000000000E+00  0.45593999997E+02  0.45594000000E+02  0.51100000000E-03 0.  1.
         11   -1    0    0    0    0 -0.00000000000E+00 -0.00000000000E+00 -0.45593999997E+02  0.45594000000E+02  0.51100000000E-03 0. -1.
    9900012    2    1    2    0    0  0.69037740519E-01 -0.11721763964E+01 -0.11983801648E+00  0.90007692894E+02  0.89999953640E+02 0.  0.
        -12    1    1    2    0    0 -0.69037740519E-01  0.11721763964E+01  0.11983801648E+00  0.11803071059E+01  0.00000000000E+00 0.  1.
         11    1    3    3    0    0 -0.88463763365E+00 -0.25361546335E+02 -0.27704935278E+02  0.37570654176E+02  0.51100000000E-03 0. -1.
        -11    1    3    3    0    0 -0.75368056490E+01 -0.30680397363E+01 -0.46539273426E+01  0.93741851478E+01  0.51100000000E-03 0.  1.
        -12    1    3    3    0    0  0.84904810232E+01  0.27257409674E+02  0.32239024604E+02  0.43062853570E+02  0.00000000000E+00 0.  1.
</event>
<event>
 7    1  0.2497665E-015  0.9000785E+02  0.7816164E-02  0.1186339E+00
        -11   -1    0    0    0    0  0.00000000000E+00  0.00000000000E+00  0.45593999997E+02  0.45594000000E+02  0.51100000000E-03 0.  1.
         11   -1    0    0    0    0 -0.00000000000E+00 -0.00000000000E+00 -0.45593999997E+02  0.45594000000E+02  0.51100000000E-03 0. -1.
    9900012    2    1    2    0    0  0.24793062902E+00  0.65588945515E+00 -0.94925508294E+00  0.90007853489E+02  0.90000116355E+02 0.  0.
        -12    1    1    2    0    0 -0.24793062902E+00 -0.65588945515E+00  0.94925508294E+00  0.11801465107E+01  0.00000000000E+00 0.  1.
         11    1    3    3    0    0  0.14245685487E+01  0.18205605659E+01  0.10509677533E+02  0.10760908811E+02  0.51100000000E-03 0. -1.
        -11    1    3    3    0    0 -0.20082281739E+02 -0.34598883398E+02 -0.57833631420E+01  0.40420639056E+02  0.51100000000E-03 0.  1.
         12    1    3    3    0    0  0.18905643819E+02  0.33434212287E+02 -0.56755694738E+01  0.38826305623E+02  0.00000000000E+00 0. -1.
</event>
<event>
 7    1  0.2497665E-015  0.9000781E+02  0.7816164E-02  0.1186339E+00
        -11   -1    0    0    0    0  0.00000000000E+00  0.00000000000E+00  0.45593999997E+02  0.45594000000E+02  0.51100000000E-03 0.  1.
         11   -1    0    0    0    0 -0.00000000000E+00 -0.00000000000E+00 -0.45593999997E+02  0.45594000000E+02  0.51100000000E-03 0. -1.
    9900012    2    1    2    0    0 -0.52514881548E+00  0.55481607677E+00 -0.89958517825E+00  0.90007806944E+02  0.90000069195E+02 0.  0.
        -12    1    1    2    0    0  0.52514881548E+00 -0.55481607677E+00  0.89958517825E+00  0.11801930564E+01  0.00000000000E+00 0.  1.
         11    1    3    3    0    0  0.17760635518E+02 -0.14302074154E+01  0.11796058931E+02  0.21368965202E+02  0.51100000000E-03 0. -1.
        -11    1    3    3    0    0 -0.56157623706E+01 -0.31315641892E+02 -0.65726383416E+01  0.32487009544E+02  0.51100000000E-03 0.  1.
         12    1    3    3    0    0 -0.12670021963E+02  0.33300665384E+02 -0.61230057678E+01  0.36151832197E+02  0.00000000000E+00 0. -1.
</event>
<event>
 7    1  0.2497665E-015  0.9000772E+02  0.7816164E-02  0.1186339E+00
        -11   -1    0    0    0    0  0.00000000000E+00  0.00000000000E+00  0.45593999997E+02  0.45594000000E+02  0.51100000000E-03 0.  1.
         11   -1    0    0    0    0 -0.00000000000E+00 -0.00000000000E+00 -0.45593999997E+02  0.45594000000E+02  0.51100000000E-03 0. -1.
    9900012    2    1    2    0    0  0.76788948770E+00  0.18091160833E+00 -0.87788398675E+00  0.90007718860E+02  0.89999979949E+02 0.  0.
        -12    1    1    2    0    0 -0.76788948770E+00 -0.18091160833E+00  0.87788398675E+00  0.11802811400E+01  0.00000000000E+00 0.  1.
         11    1    3    3    0    0  0.22395027551E+02  0.22155674305E+02 -0.18547059492E+02  0.36556867740E+02  0.51100000000E-03 0. -1.
        -11    1    3    3    0    0  0.33891982006E+01  0.95776632687E+01  0.41684363348E+01  0.10981537227E+02  0.51100000000E-03 0.  1.
        -12    1    3    3    0    0 -0.25016336264E+02 -0.31552425965E+02  0.13500739171E+02  0.42469313893E+02  0.00000000000E+00 0.  1.
</event>
<event>
 7    1  0.2497665E-015  0.9000780E+02  0.7816164E-02  0.1186339E+00
        -11   -1    0    0    0    0  0.00000000000E+00  0.00000000000E+00  0.45593999997E+02  0.45594000000E+02  0.51100000000E-03 0. -1.
         11   -1    0    0    0    0 -0.00000000000E+00 -0.00000000000E+00 -0.45593999997E+02  0.45594000000E+02  0.51100000000E-03 0.  1.
    9900012    2    1    2    0    0  0.61548074784E+00  0.56120323853E+00  0.83612756392E+00  0.90007798776E+02  0.90000060920E+02 0.  0.
        -12    1    1    2    0    0 -0.61548074784E+00 -0.56120323853E+00 -0.83612756392E+00  0.11802012240E+01  0.00000000000E+00 0.  1.
         11    1    3    3    0    0 -0.52073513751E+01  0.10153304877E+02 -0.21414134822E+02  0.24264609593E+02  0.51100000000E-03 0. -1.
        -11    1    3    3    0    0  0.20644073723E+02  0.18413073672E+02  0.11722523868E+01  0.27687420209E+02  0.51100000000E-03 0.  1.
         12    1    3    3    0    0 -0.14821241600E+02 -0.28005175310E+02  0.21078009999E+02  0.38055768974E+02  0.00000000000E+00 0. -1.
</event>
<event>
 7    1  0.2497665E-015  0.9000779E+02  0.7816164E-02  0.1186339E+00
        -11   -1    0    0    0    0  0.00000000000E+00  0.00000000000E+00  0.45593999997E+02  0.45594000000E+02  0.51100000000E-03 0.  1.
         11   -1    0    0    0    0 -0.00000000000E+00 -0.00000000000E+00 -0.45593999997E+02  0.45594000000E+02  0.51100000000E-03 0. -1.
    9900012    2    1    2    0    0 -0.30172435562E+00 -0.11086488732E+01 -0.26971113499E+00  0.90007794930E+02  0.90000057023E+02 0.  0.
        -12    1    1    2    0    0  0.30172435562E+00  0.11086488732E+01  0.26971113499E+00  0.11802050699E+01  0.00000000000E+00 0.  1.
         11    1    3    3    0    0  0.48948672387E+01 -0.66607573121E+01  0.24148402645E+01  0.86114381505E+01  0.51100000000E-03 0. -1.
        -11    1    3    3    0    0  0.34903794033E+02 -0.12749004855E+02 -0.33709072350E+01  0.37311861097E+02  0.51100000000E-03 0.  1.
         12    1    3    3    0    0 -0.40100385627E+02  0.18301113294E+02  0.68635583549E+00  0.44084495683E+02  0.00000000000E+00 0. -1.
</event>
<event>
 7    1  0.2497665E-015  0.9000758E+02  0.7816164E-02  0.1186339E+00
        -11   -1    0    0    0    0  0.00000000000E+00  0.00000000000E+00  0.45593999997E+02  0.45594000000E+02  0.51100000000E-03 0.  1.
         11   -1    0    0    0    0 -0.00000000000E+00 -0.00000000000E+00 -0.45593999997E+02  0.45594000000E+02  0.51100000000E-03 0. -1.
    9900012    2    1    2    0    0 -0.66667853582E+00 -0.79926256202E+00 -0.55688183199E+00  0.90007577072E+02  0.89999836290E+02 0.  0.
        -12    1    1    2    0    0  0.66667853582E+00  0.79926256202E+00  0.55688183199E+00  0.11804229276E+01  0.00000000000E+00 0.  1.
         11    1    3    3    0    0  0.27655613715E+02 -0.63595281273E-02 -0.85036117075E+01  0.28933448165E+02  0.51100000000E-03 0. -1.
        -11    1    3    3    0    0  0.95765488981E+01  0.70444255115E+01  0.17552014970E+02  0.21199232282E+02  0.51100000000E-03 0.  1.
        -12    1    3    3    0    0 -0.37898841149E+02 -0.78373285454E+01 -0.96052850944E+01  0.39874896625E+02  0.00000000000E+00 0.  1.
</event>
<event>
 7    1  0.2497665E-015  0.9000780E+02  0.7816164E-02  0.1186339E+00
        -11   -1    0    0    0    0  0.00000000000E+00  0.00000000000E+00  0.45593999997E+02  0.45594000000E+02  0.51100000000E-03 0.  1.
         11   -1    0    0    0    0 -0.00000000000E+00 -0.00000000000E+00 -0.45593999997E+02  0.45594000000E+02  0.51100000000E-03 0. -1.
    9900012    2    1    2    0    0 -0.11484022362E+01  0.24729839179E+00 -0.11348771716E+00  0.90007803553E+02  0.90000065760E+02 0.  0.
        -12    1    1    2    0    0  0.11484022362E+01 -0.24729839179E+00  0.11348771716E+00  0.11801964466E+01  0.00000000000E+00 0.  1.
         11    1    3    3    0    0  0.13010714001E+02 -0.34260495417E+02  0.12387083865E+01  0.36668714510E+02  0.51100000000E-03 0. -1.
        -11    1    3    3    0    0 -0.14545039233E+01 -0.65038636757E+01  0.69283927328E+01  0.96134515392E+01  0.51100000000E-03 0.  1.
        -12    1    3    3    0    0 -0.12704612314E+02  0.41011657485E+02 -0.82805888365E+01  0.43725637505E+02  0.00000000000E+00 0.  1.
</event>
<event>
 7    1  0.2497665E-015  0.9000776E+02  0.7816164E-02  0.1186339E+00
        -11   -1    0    0    0    0  0.00000000000E+00  0.00000000000E+00  0.45593999997E+02  0.45594000000E+02  0.51100000000E-03 0.  1.
         11   -1    0    0    0    0 -0.00000000000E+00 -0.00000000000E+00 -0.45593999997E+02  0.45594000000E+02  0.51100000000E-03 0. -1.
    9900012    2    1    2    0    0  0.15431426921E+00  0.65618340769E+00  0.96879713742E+00  0.90007763815E+02  0.90000025498E+02 0.  0.
        -12    1    1    2    0    0 -0.15431426921E+00 -0.65618340769E+00 -0.96879713742E+00  0.11802361847E+01  0.00000000000E+00 0.  1.
         11    1    3    3    0    0  0.29414262579E+02 -0.11821817886E+02 -0.21852349590E+02  0.38502979158E+02  0.51100000000E-03 0. -1.
        -11    1    3    3    0    0 -0.30441986703E+01  0.10413318955E+01 -0.85004284754E+01  0.90889384522E+01  0.51100000000E-03 0.  1.
        -12    1    3    3    0    0 -0.26215749640E+02  0.11436669398E+02  0.31321575202E+02  0.42415846205E+02  0.00000000000E+00 0.  1.
</event>
<event>
 7    1  0.2497665E-015  0.9000778E+02  0.7816164E-02  0.1186339E+00
        -11   -1    0    0    0    0  0.00000000000E+00  0.00000000000E+00  0.45593999997E+02  0.45594000000E+02  0.51100000000E-03 0. -1.
         11   -1    0    0    0    0 -0.00000000000E+00 -0.00000000000E+00 -0.45593999997E+02  0.45594000000E+02  0.51100000000E-03 0.  1.
    9900012    2    1    2    0    0 -0.58907824110E+00 -0.95226248202E+00  0.37296953748E+00  0.90007778290E+02  0.90000040163E+02 0.  0.
        -12    1    1    2    0    0  0.58907824110E+00  0.95226248202E+00 -0.37296953748E+00  0.11802217100E+01  0.00000000000E+00 0.  1.
         11    1    3    3    0    0  0.50828239252E+01  0.17384617911E+02 -0.31657292475E+02  0.36472513021E+02  0.51100000000E-03 0. -1.
        -11    1    3    3    0    0  0.40182871461E+01  0.79509868629E+01 -0.23222732363E+01  0.92063986948E+01  0.51100000000E-03 0.  1.
        -12    1    3    3    0    0 -0.96901893124E+01 -0.26287867256E+02  0.34352535248E+02  0.44328866574E+02  0.00000000000E+00 0.  1.
</event>
<event>
 7    1  0.2497665E-015  0.9000773E+02  0.7816164E-02  0.1186339E+00
        -11   -1    0    0    0    0  0.00000000000E+00  0.00000000000E+00  0.45593999997E+02  0.45594000000E+02  0.51100000000E-03 0.  1.
         11   -1    0    0    0    0 -0.00000000000E+00 -0.00000000000E+00 -0.45593999997E+02  0.45594000000E+02  0.51100000000E-03 0. -1.
    9900012    2    1    2    0    0 -0.55843384651E+00  0.66492012069E+00 -0.79941978353E+00  0.90007729218E+02  0.89999990444E+02 0.  0.
        -12    1    1    2    0    0  0.55843384651E+00 -0.66492012069E+00  0.79941978353E+00  0.11802707817E+01  0.00000000000E+00 0.  1.
         11    1    3    3    0    0  0.38359746298E+00 -0.82141235139E+00  0.11409930922E+02  0.11445889619E+02  0.51100000000E-03 0. -1.
        -11    1    3    3    0    0  0.13255239207E+02 -0.35269425324E+02 -0.14015885666E+01  0.37704087045E+02  0.51100000000E-03 0.  1.
         12    1    3    3    0    0 -0.14197270517E+02  0.36755757796E+02 -0.10807762139E+02  0.40857752554E+02  0.00000000000E+00 0. -1.
</event>
<event>
 7    1  0.2497665E-015  0.9000776E+02  0.7816164E-02  0.1186339E+00
        -11   -1    0    0    0    0  0.00000000000E+00  0.00000000000E+00  0.45593999997E+02  0.45594000000E+02  0.51100000000E-03 0.  1.
         11   -1    0    0    0    0 -0.00000000000E+00 -0.00000000000E+00 -0.45593999997E+02  0.45594000000E+02  0.51100000000E-03 0. -1.
    9900012    2    1    2    0    0 -0.55321774773E+00 -0.37925610454E+00 -0.97112014020E+00  0.90007762992E+02  0.90000024663E+02 0.  0.
        -12    1    1    2    0    0  0.55321774773E+00  0.37925610454E+00  0.97112014020E+00  0.11802370084E+01  0.00000000000E+00 0.  1.
         11    1    3    3    0    0  0.26826643738E+02  0.27034742095E+02 -0.67427204337E+01  0.38678293312E+02  0.51100000000E-03 0. -1.
        -11    1    3    3    0    0 -0.14952821405E+01  0.56371080230E+01  0.72721614878E+01  0.93218661495E+01  0.51100000000E-03 0.  1.
        -12    1    3    3    0    0 -0.25884579345E+02 -0.33051106223E+02 -0.15005611943E+01  0.42007603530E+02  0.00000000000E+00 0.  1.
</event>
<event>
 7    1  0.2497665E-015  0.9000774E+02  0.7816164E-02  0.1186339E+00
        -11   -1    0    0    0    0  0.00000000000E+00  0.00000000000E+00  0.45593999997E+02  0.45594000000E+02  0.51100000000E-03 0.  1.
         11   -1    0    0    0    0 -0.00000000000E+00 -0.00000000000E+00 -0.45593999997E+02  0.45594000000E+02  0.51100000000E-03 0. -1.
    9900012    2    1    2    0    0 -0.99745416955E+00 -0.59866936976E+00 -0.19924531061E+00  0.90007737941E+02  0.89999999282E+02 0.  0.
        -12    1    1    2    0    0  0.99745416955E+00  0.59866936976E+00  0.19924531061E+00  0.11802620592E+01  0.00000000000E+00 0.  1.
         11    1    3    3    0    0  0.84195744454E+01 -0.55127830081E+01  0.37131897455E+01  0.10726965493E+02  0.51100000000E-03 0. -1.
        -11    1    3    3    0    0  0.59283352151E+01  0.28531324833E-01  0.35872999644E+02  0.36359566502E+02  0.51100000000E-03 0.  1.
         12    1    3    3    0    0 -0.15345363830E+02  0.48855823135E+01 -0.39785434700E+02  0.42921205946E+02  0.00000000000E+00 0. -1.
</event>
<event>
 7    1  0.2497665E-015  0.9000765E+02  0.7816164E-02  0.1186339E+00
        -11   -1    0    0    0    0  0.00000000000E+00  0.00000000000E+00  0.45593999997E+02  0.45594000000E+02  0.51100000000E-03 0.  1.
         11   -1    0    0    0    0 -0.00000000000E+00 -0.00000000000E+00 -0.45593999997E+02  0.45594000000E+02  0.51100000000E-03 0. -1.
    9900012    2    1    2    0    0  0.83868071026E+00 -0.60867089475E+00 -0.56511354246E+00  0.90007653056E+02  0.89999913276E+02 0.  0.
        -12    1    1    2    0    0 -0.83868071026E+00  0.60867089475E+00  0.56511354246E+00  0.11803469438E+01  0.00000000000E+00 0.  1.
         11    1    3    3    0    0 -0.14888189102E+02  0.22597582053E+02 -0.11249585171E+02  0.29306348393E+02  0.51100000000E-03 0. -1.
        -11    1    3    3    0    0  0.43248438476E+01 -0.29287209919E+01  0.30008028084E+02  0.30459209292E+02  0.51100000000E-03 0.  1.
        -12    1    3    3    0    0  0.11402025965E+02 -0.20277531956E+02 -0.19323556456E+02  0.30242095371E+02  0.00000000000E+00 0.  1.
</event>
<event>
 7    1  0.2497665E-015  0.9000792E+02  0.7816164E-02  0.1186339E+00
        -11   -1    0    0    0    0  0.00000000000E+00  0.00000000000E+00  0.45593999997E+02  0.45594000000E+02  0.51100000000E-03 0.  1.
         11   -1    0    0    0    0 -0.00000000000E+00 -0.00000000000E+00 -0.45593999997E+02  0.45594000000E+02  0.51100000000E-03 0. -1.
    9900012    2    1    2    0    0  0.60935531093E+00  0.90877178411E+00 -0.44203771275E+00  0.90007924837E+02  0.90000188645E+02 0.  0.
        -12    1    1    2    0    0 -0.60935531093E+00 -0.90877178411E+00  0.44203771275E+00  0.11800751629E+01  0.00000000000E+00 0.  1.
         11    1    3    3    0    0  0.18286151577E+02  0.33342656413E+02 -0.32085981358E+01  0.38162955577E+02  0.51100000000E-03 0. -1.
        -11    1    3    3    0    0 -0.42560225961E+01  0.70911709216E+01 -0.45923589791E+01  0.94598200106E+01  0.51100000000E-03 0.  1.
        -12    1    3    3    0    0 -0.13420773669E+02 -0.39525055550E+02  0.73589194021E+01  0.42385149249E+02  0.00000000000E+00 0.  1.
</event>
<event>
 7    1  0.2587727E-015  0.9000775E+02  0.7816164E-02  0.1186339E+00
        -11   -1    0    0    0    0  0.00000000000E+00  0.00000000000E+00  0.45593999997E+02  0.45594000000E+02  0.51100000000E-03 0. -1.
         11   -1    0    0    0    0 -0.00000000000E+00 -0.00000000000E+00 -0.45593999997E+02  0.45594000000E+02  0.51100000000E-03 0.  1.
    9900012    2    1    2    0    0  0.95386525595E+00  0.26858351682E+00  0.64109027013E+00  0.90007748854E+02  0.90000010339E+02 0.  0.
        -12    1    1    2    0    0 -0.95386525595E+00 -0.26858351682E+00 -0.64109027013E+00  0.11802511455E+01  0.00000000000E+00 0.  1.
         11    1    3    3    0    0  0.58477335977E+01  0.14669797322E+02  0.32587675677E+02  0.36212643483E+02  0.51100000000E-03 0. -1.
        -11    1    3    3    0    0 -0.50816776499E+01  0.19793618996E+01  0.85327397696E+01  0.10126646508E+02  0.51100000000E-03 0.  1.
        -12    1    3    3    0    0  0.18780930817E+00 -0.16380575705E+02 -0.40479325176E+02  0.43668458864E+02  0.00000000000E+00 0.  1.
</event>
<event>
 7    1  0.2497665E-015  0.9000776E+02  0.7816164E-02  0.1186339E+00
        -11   -1    0    0    0    0  0.00000000000E+00  0.00000000000E+00  0.45593999997E+02  0.45594000000E+02  0.51100000000E-03 0. -1.
         11   -1    0    0    0    0 -0.00000000000E+00 -0.00000000000E+00 -0.45593999997E+02  0.45594000000E+02  0.51100000000E-03 0.  1.
    9900012    2    1    2    0    0 -0.11198389758E+01 -0.26086634335E+00  0.26622597288E+00  0.90007759834E+02  0.90000021464E+02 0.  0.
        -12    1    1    2    0    0  0.11198389758E+01  0.26086634335E+00 -0.26622597288E+00  0.11802401660E+01  0.00000000000E+00 0.  1.
         11    1    3    3    0    0 -0.74132906533E+01 -0.57107782470E+01  0.34694977921E+01  0.99803447680E+01  0.51100000000E-03 0. -1.
        -11    1    3    3    0    0  0.17110991273E+02 -0.23151087830E+02 -0.28374758790E+02  0.40421353598E+02  0.51100000000E-03 0.  1.
         12    1    3    3    0    0 -0.10817539595E+02  0.28600999734E+02  0.25171486971E+02  0.39606061468E+02  0.00000000000E+00 0. -1.
</event>
<event>
 7    1  0.2497665E-015  0.9000791E+02  0.7816164E-02  0.1186339E+00
        -11   -1    0    0    0    0  0.00000000000E+00  0.00000000000E+00  0.45593999997E+02  0.45594000000E+02  0.51100000000E-03 0.  1.
         11   -1    0    0    0    0 -0.00000000000E+00 -0.00000000000E+00 -0.45593999997E+02  0.45594000000E+02  0.51100000000E-03 0. -1.
    9900012    2    1    2    0    0 -0.49949606989E+00 -0.10418079023E+01  0.24030658246E+00  0.90007912172E+02  0.90000175812E+02 0.  0.
        -12    1    1    2    0    0  0.49949606989E+00  0.10418079023E+01 -0.24030658246E+00  0.11800878284E+01  0.00000000000E+00 0.  1.
         11    1    3    3    0    0 -0.89435243582E+00  0.11268844755E+02 -0.39472491390E+02  0.41059277943E+02  0.51100000000E-03 0. -1.
        -11    1    3    3    0    0 -0.90880740212E+01 -0.34819130047E+01  0.32632749462E+01  0.10264783058E+02  0.51100000000E-03 0.  1.
        -12    1    3    3    0    0  0.94829303871E+01 -0.88287396527E+01  0.36449523026E+02  0.38683851171E+02  0.00000000000E+00 0.  1.
</event>
<event>
 7    1  0.2497665E-015  0.9000774E+02  0.7816164E-02  0.1186339E+00
        -11   -1    0    0    0    0  0.00000000000E+00  0.00000000000E+00  0.45593999997E+02  0.45594000000E+02  0.51100000000E-03 0. -1.
         11   -1    0    0    0    0 -0.00000000000E+00 -0.00000000000E+00 -0.45593999997E+02  0.45594000000E+02  0.51100000000E-03 0.  1.
    9900012    2    1    2    0    0 -0.68845772415E+00 -0.65060629032E+00  0.70408930361E+00  0.90007743956E+02  0.90000005376E+02 0.  0.
        -12    1    1    2    0    0  0.68845772415E+00  0.65060629032E+00 -0.70408930361E+00  0.11802560444E+01  0.00000000000E+00 0.  1.
         11    1    3    3    0    0  0.25886333647E+01 -0.67276000067E+01 -0.57987831860E+01  0.92513518605E+01  0.51100000000E-03 0. -1.
        -11    1    3    3    0    0 -0.23214953979E+02 -0.16547852158E+02 -0.24438652238E+02  0.37550142779E+02  0.51100000000E-03 0.  1.
         12    1    3    3    0    0  0.19937862890E+02  0.22624845874E+02  0.30941524728E+02  0.43206249316E+02  0.00000000000E+00 0. -1.
</event>
<event>
 7    1  0.2497665E-015  0.9000773E+02  0.7816164E-02  0.1186339E+00
        -11   -1    0    0    0    0  0.00000000000E+00  0.00000000000E+00  0.45593999997E+02  0.45594000000E+02  0.51100000000E-03 0. -1.
         11   -1    0    0    0    0 -0.00000000000E+00 -0.00000000000E+00 -0.45593999997E+02  0.45594000000E+02  0.51100000000E-03 0.  1.
    9900012    2    1    2    0    0  0.10433607129E+01 -0.23114930371E+00  0.50101459163E+00  0.90007725795E+02  0.89999986976E+02 0.  0.
        -12    1    1    2    0    0 -0.10433607129E+01  0.23114930371E+00 -0.50101459163E+00  0.11802742050E+01  0.00000000000E+00 0.  1.
         11    1    3    3    0    0 -0.10213000770E+02  0.22765839803E+02  0.35123635728E+02  0.43084320044E+02  0.51100000000E-03 0. -1.
        -11    1    3    3    0    0  0.90313051837E+01 -0.39682216872E+01 -0.36777099643E+01  0.10527906132E+02  0.51100000000E-03 0.  1.
        -12    1    3    3    0    0  0.22250562993E+01 -0.19028767420E+02 -0.30944911172E+02  0.36395499619E+02  0.00000000000E+00 0.  1.
</event>
<event>
 7    1  0.2497665E-015  0.9000754E+02  0.7816164E-02  0.1186339E+00
        -11   -1    0    0    0    0  0.00000000000E+00  0.00000000000E+00  0.45593999997E+02  0.45594000000E+02  0.51100000000E-03 0. -1.
         11   -1    0    0    0    0 -0.00000000000E+00 -0.00000000000E+00 -0.45593999997E+02  0.45594000000E+02  0.51100000000E-03 0.  1.
    9900012    2    1    2    0    0  0.99957247593E-01  0.11401308561E+01 -0.28914412745E+00  0.90007536469E+02  0.89999795151E+02 0.  0.
        -12    1    1    2    0    0 -0.99957247593E-01 -0.11401308561E+01  0.28914412745E+00  0.11804635305E+01  0.00000000000E+00 0.  1.
         11    1    3    3    0    0  0.16538310375E+01  0.33579285726E+02 -0.28900830228E+02  0.44334654336E+02  0.51100000000E-03 0. -1.
        -11    1    3    3    0    0 -0.58742165153E+01 -0.47054734058E+01  0.57195128615E+01  0.94530803062E+01  0.51100000000E-03 0.  1.
        -12    1    3    3    0    0  0.43203427254E+01 -0.27733681464E+02  0.22892173239E+02  0.36219801827E+02  0.00000000000E+00 0.  1.
</event>
<event>
 7    1  0.2497665E-015  0.9000781E+02  0.7816164E-02  0.1186339E+00
        -11   -1    0    0    0    0  0.00000000000E+00  0.00000000000E+00  0.45593999997E+02  0.45594000000E+02  0.51100000000E-03 0.  1.
         11   -1    0    0    0    0 -0.00000000000E+00 -0.00000000000E+00 -0.45593999997E+02  0.45594000000E+02  0.51100000000E-03 0. -1.
    9900012    2    1    2    0    0  0.10515968528E+01  0.17337341015E+00 -0.50687928640E+00  0.90007813197E+02  0.90000075531E+02 0.  0.
        -12    1    1    2    0    0 -0.10515968528E+01 -0.17337341015E+00  0.50687928640E+00  0.11801868035E+01  0.00000000000E+00 0.  1.
         11    1    3    3    0    0 -0.10328963700E+02 -0.12333257805E+01  0.35721323657E+00  0.10408466994E+02  0.51100000000E-03 0. -1.
        -11    1    3    3    0    0 -0.14144642394E+02  0.25368410890E+02  0.23152232640E+02  0.37143681240E+02  0.51100000000E-03 0.  1.
         12    1    3    3    0    0  0.25525202948E+02 -0.23961711700E+02 -0.24016325163E+02  0.42455664963E+02  0.00000000000E+00 0. -1.
</event>
<event>
 7    1  0.2497665E-015  0.9000771E+02  0.7816164E-02  0.1186339E+00
        -11   -1    0    0    0    0  0.00000000000E+00  0.00000000000E+00  0.45593999997E+02  0.45594000000E+02  0.51100000000E-03 0. -1.
         11   -1    0    0    0    0 -0.00000000000E+00 -0.00000000000E+00 -0.45593999997E+02  0.45594000000E+02  0.51100000000E-03 0.  1.
    9900012    2    1    2    0    0  0.48365207232E+00  0.98074801469E+00  0.44417927133E+00  0.90007711383E+02  0.89999972373E+02 0.  0.
        -12    1    1    2    0    0 -0.48365207232E+00 -0.98074801469E+00 -0.44417927133E+00  0.11802886174E+01  0.00000000000E+00 0.  1.
         11    1    3    3    0    0  0.32313151787E+02 -0.27521025511E+01 -0.17394925822E+02  0.36800778409E+02  0.51100000000E-03 0. -1.
        -11    1    3    3    0    0  0.82867452034E+00  0.10916203854E+02 -0.56722155439E+01  0.12329810926E+02  0.51100000000E-03 0.  1.
        -12    1    3    3    0    0 -0.32658174235E+02 -0.71833532878E+01  0.23511320637E+02  0.40877122048E+02  0.00000000000E+00 0.  1.
</event>
<event>
 7    1  0.2497665E-015  0.9000779E+02  0.7816164E-02  0.1186339E+00
        -11   -1    0    0    0    0  0.00000000000E+00  0.00000000000E+00  0.45593999997E+02  0.45594000000E+02  0.51100000000E-03 0. -1.
         11   -1    0    0    0    0 -0.00000000000E+00 -0.00000000000E+00 -0.45593999997E+02  0.45594000000E+02  0.51100000000E-03 0.  1.
    9900012    2    1    2    0    0 -0.17712361798E+00  0.11488659706E+01  0.20402476386E+00  0.90007791587E+02  0.90000053636E+02 0.  0.
        -12    1    1    2    0    0  0.17712361798E+00 -0.11488659706E+01 -0.20402476386E+00  0.11802084132E+01  0.00000000000E+00 0.  1.
         11    1    3    3    0    0 -0.98340853771E+01  0.20819515694E+01  0.62542721934E-01  0.10052246982E+02  0.51100000000E-03 0. -1.
        -11    1    3    3    0    0 -0.16474384283E+02 -0.44774746334E+01  0.33400496606E+02  0.37510615703E+02  0.51100000000E-03 0.  1.
         12    1    3    3    0    0  0.26131346043E+02  0.35443890347E+01 -0.33259014565E+02  0.42444928901E+02  0.00000000000E+00 0. -1.
</event>
<event>
 7    1  0.2497665E-015  0.9000723E+02  0.7816164E-02  0.1186340E+00
        -11   -1    0    0    0    0  0.00000000000E+00  0.00000000000E+00  0.45593999997E+02  0.45594000000E+02  0.51100000000E-03 0.  1.
         11   -1    0    0    0    0 -0.00000000000E+00 -0.00000000000E+00 -0.45593999997E+02  0.45594000000E+02  0.51100000000E-03 0. -1.
    9900012    2    1    2    0    0  0.10746102552E+01 -0.15916518287E+00  0.46271504342E+00  0.90007226539E+02  0.89999481127E+02 0.  0.
        -12    1    1    2    0    0 -0.10746102552E+01  0.15916518287E+00 -0.46271504342E+00  0.11807734615E+01  0.00000000000E+00 0.  1.
         11    1    3    3    0    0 -0.59786308572E+01  0.42057216045E+01  0.65463769846E+01  0.98126027652E+01  0.51100000000E-03 0. -1.
        -11    1    3    3    0    0 -0.29898948446E+00  0.15377594409E+02  0.32656265124E+02  0.36096972957E+02  0.51100000000E-03 0.  1.
         12    1    3    3    0    0  0.73522305968E+01 -0.19742481197E+02 -0.38739927065E+02  0.44097650817E+02  0.00000000000E+00 0. -1.
</event>
<event>
 7    1  0.2497665E-015  0.9000774E+02  0.7816164E-02  0.1186339E+00
        -11   -1    0    0    0    0  0.00000000000E+00  0.00000000000E+00  0.45593999997E+02  0.45594000000E+02  0.51100000000E-03 0.  1.
         11   -1    0    0    0    0 -0.00000000000E+00 -0.00000000000E+00 -0.45593999997E+02  0.45594000000E+02  0.51100000000E-03 0. -1.
    9900012    2    1    2    0    0  0.36006128304E+00  0.10743581928E+01  0.33032536803E+00  0.90007743883E+02  0.90000005302E+02 0.  0.
        -12    1    1    2    0    0 -0.36006128304E+00 -0.10743581928E+01 -0.33032536803E+00  0.11802561174E+01  0.00000000000E+00 0.  1.
         11    1    3    3    0    0  0.70630708873E+01 -0.16523160515E+01 -0.14185261987E+01  0.73911660467E+01  0.51100000000E-03 0. -1.
        -11    1    3    3    0    0  0.14428510588E+01  0.31217322104E+02  0.28797220659E+02  0.42495681386E+02  0.51100000000E-03 0.  1.
         12    1    3    3    0    0 -0.81458606630E+01 -0.28490647859E+02 -0.27048369092E+02  0.40120896450E+02  0.00000000000E+00 0. -1.
</event>
<event>
 7    1  0.2497665E-015  0.9000767E+02  0.7816164E-02  0.1186339E+00
        -11   -1    0    0    0    0  0.00000000000E+00  0.00000000000E+00  0.45593999997E+02  0.45594000000E+02  0.51100000000E-03 0. -1.
         11   -1    0    0    0    0 -0.00000000000E+00 -0.00000000000E+00 -0.45593999997E+02  0.45594000000E+02  0.51100000000E-03 0.  1.
    9900012    2    1    2    0    0  0.91749981769E+00 -0.49804188269E+00 -0.55075642633E+00  0.90007667727E+02  0.89999928141E+02 0.  0.
        -12    1    1    2    0    0 -0.91749981769E+00  0.49804188269E+00  0.55075642633E+00  0.11803322725E+01  0.00000000000E+00 0.  1.
         11    1    3    3    0    0  0.18084114733E+02 -0.17271226669E+02  0.29289386345E+02  0.38512317887E+02  0.51100000000E-03 0. -1.
        -11    1    3    3    0    0  0.19518917226E+01 -0.92304236520E+01 -0.92426762461E+01  0.13207485247E+02  0.51100000000E-03 0.  1.
        -12    1    3    3    0    0 -0.19118506638E+02  0.26003608439E+02 -0.20597466525E+02  0.38287864594E+02  0.00000000000E+00 0.  1.
</event>
<event>
 7    1  0.2497665E-015  0.9000753E+02  0.7816164E-02  0.1186339E+00
        -11   -1    0    0    0    0  0.00000000000E+00  0.00000000000E+00  0.45593999997E+02  0.45594000000E+02  0.51100000000E-03 0. -1.
         11   -1    0    0    0    0 -0.00000000000E+00 -0.00000000000E+00 -0.45593999997E+02  0.45594000000E+02  0.51100000000E-03 0.  1.
    9900012    2    1    2    0    0 -0.83911602550E+00 -0.72044841368E+00 -0.41274073139E+00  0.90007526988E+02  0.89999785544E+02 0.  0.
        -12    1    1    2    0    0  0.83911602550E+00  0.72044841368E+00  0.41274073139E+00  0.11804730121E+01  0.00000000000E+00 0.  1.
         11    1    3    3    0    0  0.83595970100E+01 -0.91778952788E+01  0.10113700404E+01  0.12455500533E+02  0.51100000000E-03 0. -1.
        -11    1    3    3    0    0  0.83853796144E+01 -0.18372043634E+02 -0.28939594014E+02  0.35289469825E+02  0.51100000000E-03 0.  1.
         12    1    3    3    0    0 -0.17584092650E+02  0.26829490499E+02  0.27515483242E+02  0.42262556629E+02  0.00000000000E+00 0. -1.
</event>
<event>
 7    1  0.2497665E-015  0.9000778E+02  0.7816164E-02  0.1186339E+00
        -11   -1    0    0    0    0  0.00000000000E+00  0.00000000000E+00  0.45593999997E+02  0.45594000000E+02  0.51100000000E-03 0. -1.
         11   -1    0    0    0    0 -0.00000000000E+00 -0.00000000000E+00 -0.45593999997E+02  0.45594000000E+02  0.51100000000E-03 0.  1.
    9900012    2    1    2    0    0 -0.64446569794E+00 -0.97725095216E+00  0.15017950650E+00  0.90007784196E+02  0.90000046148E+02 0.  0.
        -12    1    1    2    0    0  0.64446569794E+00  0.97725095216E+00 -0.15017950650E+00  0.11802158038E+01  0.00000000000E+00 0.  1.
         11    1    3    3    0    0 -0.11200340042E+02  0.12198171164E+02  0.33831460616E+02  0.37667104010E+02  0.51100000000E-03 0. -1.
        -11    1    3    3    0    0 -0.47703645514E+01 -0.44475040458E+01  0.60340701391E+01  0.88851940269E+01  0.51100000000E-03 0.  1.
        -12    1    3    3    0    0  0.15326238895E+02 -0.87279180706E+01 -0.39715351249E+02  0.43455486159E+02  0.00000000000E+00 0.  1.
</event>
<event>
 7    1  0.2497665E-015  0.9000831E+02  0.7816164E-02  0.1186338E+00
        -11   -1    0    0    0    0  0.00000000000E+00  0.00000000000E+00  0.45593999997E+02  0.45594000000E+02  0.51100000000E-03 0.  1.
         11   -1    0    0    0    0 -0.00000000000E+00 -0.00000000000E+00 -0.45593999997E+02  0.45594000000E+02  0.51100000000E-03 0. -1.
    9900012    2    1    2    0    0  0.48552539556E+00 -0.10351292865E+01  0.29058648539E+00  0.90008310187E+02  0.90000579080E+02 0.  0.
        -12    1    1    2    0    0 -0.48552539556E+00  0.10351292865E+01 -0.29058648539E+00  0.11796898130E+01  0.00000000000E+00 0.  1.
         11    1    3    3    0    0  0.86132245866E+00 -0.52035480581E+00  0.10534340911E+02  0.10582295790E+02  0.51100000000E-03 0. -1.
        -11    1    3    3    0    0  0.15293912624E+02  0.33941983754E+02  0.69162928870E+01  0.37865513757E+02  0.51100000000E-03 0.  1.
         12    1    3    3    0    0 -0.15669709687E+02 -0.34456758235E+02 -0.17160047312E+02  0.41560500640E+02  0.00000000000E+00 0. -1.
</event>
<event>
 7    1  0.2497665E-015  0.9000779E+02  0.7816164E-02  0.1186339E+00
        -11   -1    0    0    0    0  0.00000000000E+00  0.00000000000E+00  0.45593999997E+02  0.45594000000E+02  0.51100000000E-03 0.  1.
         11   -1    0    0    0    0 -0.00000000000E+00 -0.00000000000E+00 -0.45593999997E+02  0.45594000000E+02  0.51100000000E-03 0. -1.
    9900012    2    1    2    0    0  0.10040134837E+01  0.54928728323E+00 -0.28832841363E+00  0.90007791176E+02  0.90000053219E+02 0.  0.
        -12    1    1    2    0    0 -0.10040134837E+01 -0.54928728323E+00  0.28832841363E+00  0.11802088243E+01  0.00000000000E+00 0.  1.
         11    1    3    3    0    0  0.36002978875E+02  0.23136136653E+02  0.26573036904E+00  0.42796798011E+02  0.51100000000E-03 0. -1.
        -11    1    3    3    0    0  0.12568853979E+00 -0.94868769707E+01 -0.19954794170E+01  0.96952860004E+01  0.51100000000E-03 0.  1.
        -12    1    3    3    0    0 -0.35124653931E+02 -0.13099972399E+02  0.14414206343E+01  0.37515707165E+02  0.00000000000E+00 0.  1.
</event>
<event>
 7    1  0.2497665E-015  0.9000754E+02  0.7816164E-02  0.1186339E+00
        -11   -1    0    0    0    0  0.00000000000E+00  0.00000000000E+00  0.45593999997E+02  0.45594000000E+02  0.51100000000E-03 0.  1.
         11   -1    0    0    0    0 -0.00000000000E+00 -0.00000000000E+00 -0.45593999997E+02  0.45594000000E+02  0.51100000000E-03 0. -1.
    9900012    2    1    2    0    0  0.71314440379E+00  0.67525473615E+00 -0.65493398609E+00  0.90007541434E+02  0.89999800181E+02 0.  0.
        -12    1    1    2    0    0 -0.71314440379E+00 -0.67525473615E+00  0.65493398609E+00  0.11804585658E+01  0.00000000000E+00 0.  1.
         11    1    3    3    0    0  0.79028780737E+01  0.27060649437E+01  0.93463450948E+00  0.84054631791E+01  0.51100000000E-03 0. -1.
        -11    1    3    3    0    0  0.14930637764E+02  0.18139368125E+02  0.29984678224E+02  0.38092539275E+02  0.51100000000E-03 0.  1.
         12    1    3    3    0    0 -0.22120371433E+02 -0.20170178333E+02 -0.31574246719E+02  0.43509538980E+02  0.00000000000E+00 0. -1.
</event>
<event>
 7    1  0.2497665E-015  0.9000773E+02  0.7816164E-02  0.1186339E+00
        -11   -1    0    0    0    0  0.00000000000E+00  0.00000000000E+00  0.45593999997E+02  0.45594000000E+02  0.51100000000E-03 0.  1.
         11   -1    0    0    0    0 -0.00000000000E+00 -0.00000000000E+00 -0.45593999997E+02  0.45594000000E+02  0.51100000000E-03 0. -1.
    9900012    2    1    2    0    0 -0.85128720915E+00 -0.34838239029E+00  0.73958267773E+00  0.90007727684E+02  0.89999988890E+02 0.  0.
        -12    1    1    2    0    0  0.85128720915E+00  0.34838239029E+00 -0.73958267773E+00  0.11802723158E+01  0.00000000000E+00 0.  1.
         11    1    3    3    0    0 -0.37917831483E+01 -0.31753968098E+02 -0.27488553138E+02  0.42170044620E+02  0.51100000000E-03 0. -1.
        -11    1    3    3    0    0  0.46727013958E+00  0.72052285770E+01 -0.33634731445E+01  0.79653381651E+01  0.51100000000E-03 0.  1.
        -12    1    3    3    0    0  0.24732257996E+01  0.24200357130E+02  0.31591608960E+02  0.39872344899E+02  0.00000000000E+00 0.  1.
</event>
<event>
 7    1  0.2497665E-015  0.9000780E+02  0.7816164E-02  0.1186339E+00
        -11   -1    0    0    0    0  0.00000000000E+00  0.00000000000E+00  0.45593999997E+02  0.45594000000E+02  0.51100000000E-03 0. -1.
         11   -1    0    0    0    0 -0.00000000000E+00 -0.00000000000E+00 -0.45593999997E+02  0.45594000000E+02  0.51100000000E-03 0.  1.
    9900012    2    1    2    0    0  0.10285366325E+01  0.43590998591E+00 -0.38075546236E+00  0.90007796694E+02  0.90000058811E+02 0.  0.
        -12    1    1    2    0    0 -0.10285366325E+01 -0.43590998591E+00  0.38075546236E+00  0.11802033055E+01  0.00000000000E+00 0.  1.
         11    1    3    3    0    0 -0.11654631902E+02  0.35519473361E+00  0.37874274110E+02  0.39628490353E+02  0.51100000000E-03 0. -1.
        -11    1    3    3    0    0  0.19040111178E+01  0.53489012593E+01  0.36771975157E+01  0.67644500774E+01  0.51100000000E-03 0.  1.
        -12    1    3    3    0    0  0.10779157416E+02 -0.52681860070E+01 -0.41932227088E+02  0.43614856264E+02  0.00000000000E+00 0.  1.
</event>
<event>
 7    1  0.2497665E-015  0.9000778E+02  0.7816164E-02  0.1186339E+00
        -11   -1    0    0    0    0  0.00000000000E+00  0.00000000000E+00  0.45593999997E+02  0.45594000000E+02  0.51100000000E-03 0.  1.
         11   -1    0    0    0    0 -0.00000000000E+00 -0.00000000000E+00 -0.45593999997E+02  0.45594000000E+02  0.51100000000E-03 0. -1.
    9900012    2    1    2    0    0  0.27218821536E+00 -0.18832750609E+00 -0.11328546975E+01  0.90007782461E+02  0.90000044389E+02 0.  0.
        -12    1    1    2    0    0 -0.27218821536E+00  0.18832750609E+00  0.11328546975E+01  0.11802175391E+01  0.00000000000E+00 0.  1.
         11    1    3    3    0    0  0.17871355770E+02 -0.91399973487E+01 -0.31514752930E+02  0.37364482615E+02  0.51100000000E-03 0. -1.
        -11    1    3    3    0    0  0.69490595504E-01 -0.12693613156E+02  0.20624687265E+01  0.12860265215E+02  0.51100000000E-03 0.  1.
        -12    1    3    3    0    0 -0.17668658150E+02  0.21645282999E+02  0.28319429506E+02  0.39783034631E+02  0.00000000000E+00 0.  1.
</event>
<event>
 7    1  0.2497665E-015  0.9000775E+02  0.7816164E-02  0.1186339E+00
        -11   -1    0    0    0    0  0.00000000000E+00  0.00000000000E+00  0.45593999997E+02  0.45594000000E+02  0.51100000000E-03 0.  1.
         11   -1    0    0    0    0 -0.00000000000E+00 -0.00000000000E+00 -0.45593999997E+02  0.45594000000E+02  0.51100000000E-03 0. -1.
    9900012    2    1    2    0    0  0.59146325667E+00 -0.18707727634E+00 -0.10040716074E+01  0.90007751516E+02  0.90000013036E+02 0.  0.
        -12    1    1    2    0    0 -0.59146325667E+00  0.18707727634E+00  0.10040716074E+01  0.11802484840E+01  0.00000000000E+00 0.  1.
         11    1    3    3    0    0  0.14939488111E+02 -0.28205216573E+01 -0.59196707781E+01  0.16315212221E+02  0.51100000000E-03 0. -1.
        -11    1    3    3    0    0 -0.42210781260E+02  0.65177047801E+00 -0.79186118823E+01  0.42952057852E+02  0.51100000000E-03 0.  1.
         12    1    3    3    0    0  0.27862756406E+02  0.19816739029E+01  0.12834211053E+02  0.30740481443E+02  0.00000000000E+00 0. -1.
</event>
<event>
 7    1  0.2497665E-015  0.9000795E+02  0.7816164E-02  0.1186339E+00
        -11   -1    0    0    0    0  0.00000000000E+00  0.00000000000E+00  0.45593999997E+02  0.45594000000E+02  0.51100000000E-03 0.  1.
         11   -1    0    0    0    0 -0.00000000000E+00 -0.00000000000E+00 -0.45593999997E+02  0.45594000000E+02  0.51100000000E-03 0. -1.
    9900012    2    1    2    0    0 -0.40755799025E+00  0.10108625259E+01 -0.45230181384E+00  0.90007947674E+02  0.90000211783E+02 0.  0.
        -12    1    1    2    0    0  0.40755799025E+00 -0.10108625259E+01  0.45230181384E+00  0.11800523262E+01  0.00000000000E+00 0.  1.
         11    1    3    3    0    0 -0.19035819464E+01 -0.20808558627E+01  0.99063609876E+01  0.10299979302E+02  0.51100000000E-03 0. -1.
        -11    1    3    3    0    0 -0.20358504954E+02  0.32171795175E+02  0.80872272187E+01  0.38921669711E+02  0.51100000000E-03 0.  1.
         12    1    3    3    0    0  0.21854528911E+02 -0.29080076786E+02 -0.18445890020E+02  0.40786298661E+02  0.00000000000E+00 0. -1.
</event>
<event>
 7    1  0.2497665E-015  0.9000770E+02  0.7816164E-02  0.1186339E+00
        -11   -1    0    0    0    0  0.00000000000E+00  0.00000000000E+00  0.45593999997E+02  0.45594000000E+02  0.51100000000E-03 0. -1.
         11   -1    0    0    0    0 -0.00000000000E+00 -0.00000000000E+00 -0.45593999997E+02  0.45594000000E+02  0.51100000000E-03 0.  1.
    9900012    2    1    2    0    0  0.41026327920E+00  0.10909743822E+01  0.18590101894E+00  0.90007703321E+02  0.89999964205E+02 0.  0.
        -12    1    1    2    0    0 -0.41026327920E+00 -0.10909743822E+01 -0.18590101894E+00  0.11802966787E+01  0.00000000000E+00 0.  1.
         11    1    3    3    0    0 -0.37524874819E+02  0.31679426557E+01 -0.53800376174E+01  0.38040726805E+02  0.51100000000E-03 0. -1.
        -11    1    3    3    0    0 -0.32508987743E+01  0.85208765290E+01  0.42730307982E+00  0.91299653803E+01  0.51100000000E-03 0.  1.
        -12    1    3    3    0    0  0.41186036872E+02 -0.10597844803E+02  0.51386355565E+01  0.42837011136E+02  0.00000000000E+00 0.  1.
</event>
<event>
 7    1  0.2497665E-015  0.9000776E+02  0.7816164E-02  0.1186339E+00
        -11   -1    0    0    0    0  0.00000000000E+00  0.00000000000E+00  0.45593999997E+02  0.45594000000E+02  0.51100000000E-03 0.  1.
         11   -1    0    0    0    0 -0.00000000000E+00 -0.00000000000E+00 -0.45593999997E+02  0.45594000000E+02  0.51100000000E-03 0. -1.
    9900012    2    1    2    0    0  0.10655635400E+01  0.21718246279E+00 -0.45865382368E+00  0.90007763918E+02  0.90000025601E+02 0.  0.
        -12    1    1    2    0    0 -0.10655635400E+01 -0.21718246279E+00  0.45865382368E+00  0.11802360823E+01  0.00000000000E+00 0.  1.
         11    1    3    3    0    0  0.13896008166E+02  0.13961115900E+02 -0.31911976176E+02  0.37501813608E+02  0.51100000000E-03 0. -1.
        -11    1    3    3    0    0  0.48948668336E+01  0.64359627199E+01 -0.31708025553E+01  0.86853512627E+01  0.51100000000E-03 0.  1.
        -12    1    3    3    0    0 -0.17725311460E+02 -0.20179896157E+02  0.34624124908E+02  0.43820599047E+02  0.00000000000E+00 0.  1.
</event>
<event>
 7    1  0.2497665E-015  0.9000768E+02  0.7816164E-02  0.1186339E+00
        -11   -1    0    0    0    0  0.00000000000E+00  0.00000000000E+00  0.45593999997E+02  0.45594000000E+02  0.51100000000E-03 0.  1.
         11   -1    0    0    0    0 -0.00000000000E+00 -0.00000000000E+00 -0.45593999997E+02  0.45594000000E+02  0.51100000000E-03 0. -1.
    9900012    2    1    2    0    0  0.57124237211E+00 -0.89843201880E+00  0.50956626382E+00  0.90007679824E+02  0.89999940398E+02 0.  0.
        -12    1    1    2    0    0 -0.57124237211E+00  0.89843201880E+00 -0.50956626382E+00  0.11803201758E+01  0.00000000000E+00 0.  1.
         11    1    3    3    0    0 -0.67002342241E+01 -0.73402807752E+01  0.24478139628E+01  0.10235460614E+02  0.51100000000E-03 0. -1.
        -11    1    3    3    0    0  0.42266619695E+02 -0.38704921145E+01  0.46561480777E+01  0.42698097907E+02  0.51100000000E-03 0.  1.
         12    1    3    3    0    0 -0.34995143099E+02  0.10312340871E+02 -0.65943957766E+01  0.37074121304E+02  0.00000000000E+00 0. -1.
</event>
<event>
 7    1  0.2497665E-015  0.9000774E+02  0.7816164E-02  0.1186339E+00
        -11   -1    0    0    0    0  0.00000000000E+00  0.00000000000E+00  0.45593999997E+02  0.45594000000E+02  0.51100000000E-03 0.  1.
         11   -1    0    0    0    0 -0.00000000000E+00 -0.00000000000E+00 -0.45593999997E+02  0.45594000000E+02  0.51100000000E-03 0. -1.
    9900012    2    1    2    0    0 -0.64610176795E-01  0.51547544995E+00 -0.10597726197E+01  0.90007742647E+02  0.90000004050E+02 0.  0.
        -12    1    1    2    0    0  0.64610176795E-01 -0.51547544995E+00  0.10597726197E+01  0.11802573533E+01  0.00000000000E+00 0.  1.
         11    1    3    3    0    0 -0.37624010672E+01  0.33111614727E+02  0.25394711819E+01  0.33421304669E+02  0.51100000000E-03 0. -1.
        -11    1    3    3    0    0  0.34564344031E+01  0.10440689169E+02  0.59470558648E+01  0.12502895777E+02  0.51100000000E-03 0.  1.
        -12    1    3    3    0    0  0.24135648728E+00 -0.43036828446E+02 -0.95462996664E+01  0.44083542201E+02  0.00000000000E+00 0.  1.
</event>
<event>
 7    1  0.2497665E-015  0.9000777E+02  0.7816164E-02  0.1186339E+00
        -11   -1    0    0    0    0  0.00000000000E+00  0.00000000000E+00  0.45593999997E+02  0.45594000000E+02  0.51100000000E-03 0.  1.
         11   -1    0    0    0    0 -0.00000000000E+00 -0.00000000000E+00 -0.45593999997E+02  0.45594000000E+02  0.51100000000E-03 0. -1.
    9900012    2    1    2    0    0 -0.68240201900E+00  0.93758010386E+00  0.21957018231E+00  0.90007771195E+02  0.90000032975E+02 0.  0.
        -12    1    1    2    0    0  0.68240201900E+00 -0.93758010386E+00 -0.21957018231E+00  0.11802288048E+01  0.00000000000E+00 0.  1.
         11    1    3    3    0    0 -0.52995912103E+01  0.89345333777E+01 -0.27714069293E+02  0.29596979419E+02  0.51100000000E-03 0. -1.
        -11    1    3    3    0    0  0.18250847269E+02 -0.87738841107E+01 -0.81505940446E+01  0.21829032319E+02  0.51100000000E-03 0.  1.
        -12    1    3    3    0    0 -0.13633658078E+02  0.77693083693E+00  0.36084233520E+02  0.38581759458E+02  0.00000000000E+00 0.  1.
</event>
<event>
 7    1  0.2497665E-015  0.9000780E+02  0.7816164E-02  0.1186339E+00
        -11   -1    0    0    0    0  0.00000000000E+00  0.00000000000E+00  0.45593999997E+02  0.45594000000E+02  0.51100000000E-03 0. -1.
         11   -1    0    0    0    0 -0.00000000000E+00 -0.00000000000E+00 -0.45593999997E+02  0.45594000000E+02  0.51100000000E-03 0.  1.
    9900012    2    1    2    0    0  0.88125982358E+00 -0.76724275660E+00  0.16612455290E+00  0.90007797606E+02  0.90000059734E+02 0.  0.
        -12    1    1    2    0    0 -0.88125982358E+00  0.76724275660E+00 -0.16612455290E+00  0.11802023942E+01  0.00000000000E+00 0.  1.
         11    1    3    3    0    0  0.10510130638E+02 -0.20739069910E+01  0.32806670732E+02  0.34511470282E+02  0.51100000000E-03 0. -1.
        -11    1    3    3    0    0  0.32263492414E+01  0.80531792812E+01  0.83314987533E+01  0.12028171004E+02  0.51100000000E-03 0.  1.
        -12    1    3    3    0    0 -0.12855220056E+02 -0.67465150468E+01 -0.40972044932E+02  0.43468156320E+02  0.00000000000E+00 0.  1.
</event>
<event>
 7    1  0.2497665E-015  0.9000775E+02  0.7816164E-02  0.1186339E+00
        -11   -1    0    0    0    0  0.00000000000E+00  0.00000000000E+00  0.45593999997E+02  0.45594000000E+02  0.51100000000E-03 0.  1.
         11   -1    0    0    0    0 -0.00000000000E+00 -0.00000000000E+00 -0.45593999997E+02  0.45594000000E+02  0.51100000000E-03 0. -1.
    9900012    2    1    2    0    0 -0.75792922638E+00 -0.19236731497E+00 -0.88403689083E+00  0.90007752941E+02  0.90000014480E+02 0.  0.
        -12    1    1    2    0    0  0.75792922638E+00  0.19236731497E+00  0.88403689083E+00  0.11802470591E+01  0.00000000000E+00 0.  1.
         11    1    3    3    0    0 -0.91256744874E+01  0.12392589941E+02 -0.97849955439E+01  0.18237334190E+02  0.51100000000E-03 0. -1.
        -11    1    3    3    0    0  0.17097836880E+02  0.26278777401E+02  0.28406226835E+01  0.31479823779E+02  0.51100000000E-03 0.  1.
        -12    1    3    3    0    0 -0.87300916188E+01 -0.38863734657E+02  0.60603359696E+01  0.40290594972E+02  0.00000000000E+00 0.  1.
</event>
<event>
 7    1  0.2497665E-015  0.9000782E+02  0.7816164E-02  0.1186339E+00
        -11   -1    0    0    0    0  0.00000000000E+00  0.00000000000E+00  0.45593999997E+02  0.45594000000E+02  0.51100000000E-03 0. -1.
         11   -1    0    0    0    0 -0.00000000000E+00 -0.00000000000E+00 -0.45593999997E+02  0.45594000000E+02  0.51100000000E-03 0.  1.
    9900012    2    1    2    0    0 -0.15103663373E+00  0.78677592117E+00  0.86659819764E+00  0.90007821687E+02  0.90000084133E+02 0.  0.
        -12    1    1    2    0    0  0.15103663373E+00 -0.78677592117E+00 -0.86659819764E+00  0.11801783132E+01  0.00000000000E+00 0.  1.
         11    1    3    3    0    0  0.16920322007E+02 -0.30447488919E+02 -0.10692991755E+02  0.36437438867E+02  0.51100000000E-03 0. -1.
        -11    1    3    3    0    0  0.86494555341E+01 -0.11168474426E+01 -0.37538203795E+01  0.94948194796E+01  0.51100000000E-03 0.  1.
        -12    1    3    3    0    0 -0.25720814174E+02  0.32351112283E+02  0.15313410332E+02  0.44075563340E+02  0.00000000000E+00 0.  1.
</event>
<event>
 7    1  0.2497665E-015  0.9000822E+02  0.7816164E-02  0.1186338E+00
        -11   -1    0    0    0    0  0.00000000000E+00  0.00000000000E+00  0.45593999997E+02  0.45594000000E+02  0.51100000000E-03 0.  1.
         11   -1    0    0    0    0 -0.00000000000E+00 -0.00000000000E+00 -0.45593999997E+02  0.45594000000E+02  0.51100000000E-03 0. -1.
    9900012    2    1    2    0    0  0.33442642942E+00 -0.11311066726E+01 -0.25410469468E-01  0.90008216531E+02  0.90000484188E+02 0.  0.
        -12    1    1    2    0    0 -0.33442642942E+00  0.11311066726E+01  0.25410469468E-01  0.11797834688E+01  0.00000000000E+00 0.  1.
         11    1    3    3    0    0 -0.11609045010E+02 -0.57828015166E-01 -0.44539243336E+01  0.12434255601E+02  0.51100000000E-03 0. -1.
        -11    1    3    3    0    0 -0.23301851741E+02  0.19871577694E+02 -0.12683637641E+02  0.33147104832E+02  0.51100000000E-03 0.  1.
         12    1    3    3    0    0  0.35245323180E+02 -0.20944856352E+02  0.17112151505E+02  0.44426856099E+02  0.00000000000E+00 0. -1.
</event>
<event>
 7    1  0.2497665E-015  0.9000759E+02  0.7816164E-02  0.1186339E+00
        -11   -1    0    0    0    0  0.00000000000E+00  0.00000000000E+00  0.45593999997E+02  0.45594000000E+02  0.51100000000E-03 0.  1.
         11   -1    0    0    0    0 -0.00000000000E+00 -0.00000000000E+00 -0.45593999997E+02  0.45594000000E+02  0.51100000000E-03 0. -1.
    9900012    2    1    2    0    0  0.76454367912E+00 -0.86996629728E+00  0.22804126115E+00  0.90007588541E+02  0.89999847910E+02 0.  0.
        -12    1    1    2    0    0 -0.76454367912E+00  0.86996629728E+00 -0.22804126115E+00  0.11804114590E+01  0.00000000000E+00 0.  1.
         11    1    3    3    0    0  0.23944537171E+01 -0.35861294356E+02 -0.13542458194E+02  0.38407863983E+02  0.51100000000E-03 0. -1.
        -11    1    3    3    0    0 -0.62929725511E+01 -0.57447041533E+01  0.41807976028E+01  0.94911642171E+01  0.51100000000E-03 0.  1.
        -12    1    3    3    0    0  0.46630625131E+01  0.40736032212E+02  0.95897018527E+01  0.42108560341E+02  0.00000000000E+00 0.  1.
</event>
<event>
 7    1  0.2497665E-015  0.9000782E+02  0.7816164E-02  0.1186339E+00
        -11   -1    0    0    0    0  0.00000000000E+00  0.00000000000E+00  0.45593999997E+02  0.45594000000E+02  0.51100000000E-03 0.  1.
         11   -1    0    0    0    0 -0.00000000000E+00 -0.00000000000E+00 -0.45593999997E+02  0.45594000000E+02  0.51100000000E-03 0. -1.
    9900012    2    1    2    0    0 -0.23553048506E-01 -0.38409614482E-01 -0.11793180467E+01  0.90007821581E+02  0.90000084026E+02 0.  0.
        -12    1    1    2    0    0  0.23553048506E-01  0.38409614482E-01  0.11793180467E+01  0.11801784187E+01  0.00000000000E+00 0.  1.
         11    1    3    3    0    0  0.38063429857E+01  0.30760026041E+01  0.92490610087E+01  0.10463993920E+02  0.51100000000E-03 0. -1.
        -11    1    3    3    0    0 -0.77655460020E+01  0.16628682565E+02  0.29548545212E+02  0.34784095690E+02  0.51100000000E-03 0.  1.
         12    1    3    3    0    0  0.39356499678E+01 -0.19743094784E+02 -0.39976924267E+02  0.44759731972E+02  0.00000000000E+00 0. -1.
</event>
<event>
 7    1  0.2497665E-015  0.9000774E+02  0.7816164E-02  0.1186339E+00
        -11   -1    0    0    0    0  0.00000000000E+00  0.00000000000E+00  0.45593999997E+02  0.45594000000E+02  0.51100000000E-03 0.  1.
         11   -1    0    0    0    0 -0.00000000000E+00 -0.00000000000E+00 -0.45593999997E+02  0.45594000000E+02  0.51100000000E-03 0. -1.
    9900012    2    1    2    0    0 -0.35783422401E-01 -0.11750103266E+01  0.10523648012E+00  0.90007743910E+02  0.90000005330E+02 0.  0.
        -12    1    1    2    0    0  0.35783422401E-01  0.11750103266E+01 -0.10523648012E+00  0.11802560899E+01  0.00000000000E+00 0.  1.
         11    1    3    3    0    0  0.12092031283E+02 -0.29223605260E+02 -0.12871300133E+02  0.34145375855E+02  0.51100000000E-03 0. -1.
        -11    1    3    3    0    0 -0.12897732288E+02 -0.35469184542E+01 -0.10073133345E+02  0.16745152861E+02  0.51100000000E-03 0.  1.
        -12    1    3    3    0    0  0.76991758265E+00  0.31595513387E+02  0.23049669958E+02  0.39117215193E+02  0.00000000000E+00 0.  1.
</event>
<event>
 7    1  0.2497665E-015  0.9000772E+02  0.7816164E-02  0.1186339E+00
        -11   -1    0    0    0    0  0.00000000000E+00  0.00000000000E+00  0.45593999997E+02  0.45594000000E+02  0.51100000000E-03 0.  1.
         11   -1    0    0    0    0 -0.00000000000E+00 -0.00000000000E+00 -0.45593999997E+02  0.45594000000E+02  0.51100000000E-03 0. -1.
    9900012    2    1    2    0    0 -0.12015835227E+00  0.58873291118E+00 -0.10158849864E+01  0.90007717502E+02  0.89999978573E+02 0.  0.
        -12    1    1    2    0    0  0.12015835227E+00 -0.58873291118E+00  0.10158849864E+01  0.11802824984E+01  0.00000000000E+00 0.  1.
         11    1    3    3    0    0 -0.79551910950E+01  0.98200729780E+00  0.47596805691E+01  0.93222295118E+01  0.51100000000E-03 0. -1.
        -11    1    3    3    0    0 -0.21302452363E+02  0.24738701696E+02  0.16124064800E+02  0.36411307367E+02  0.51100000000E-03 0.  1.
         12    1    3    3    0    0  0.29137485105E+02 -0.25131976083E+02 -0.21899630355E+02  0.44274180622E+02  0.00000000000E+00 0. -1.
</event>
<event>
 7    1  0.2497665E-015  0.9000739E+02  0.7816164E-02  0.1186340E+00
        -11   -1    0    0    0    0  0.00000000000E+00  0.00000000000E+00  0.45593999997E+02  0.45594000000E+02  0.51100000000E-03 0.  1.
         11   -1    0    0    0    0 -0.00000000000E+00 -0.00000000000E+00 -0.45593999997E+02  0.45594000000E+02  0.51100000000E-03 0. -1.
    9900012    2    1    2    0    0  0.21481780966E+00 -0.85298092668E+00 -0.78746795876E+00  0.90007394673E+02  0.89999651482E+02 0.  0.
        -12    1    1    2    0    0 -0.21481780966E+00  0.85298092668E+00  0.78746795876E+00  0.11806053272E+01  0.00000000000E+00 0.  1.
         11    1    3    3    0    0 -0.16163621125E+02 -0.30925055038E+02 -0.27202747956E+02  0.44244899973E+02  0.51100000000E-03 0. -1.
        -11    1    3    3    0    0  0.24046097449E+01  0.12962903141E+02  0.29012449792E+01  0.13499489937E+02  0.51100000000E-03 0.  1.
        -12    1    3    3    0    0  0.13973829190E+02  0.17109170970E+02  0.23514035018E+02  0.32263004763E+02  0.00000000000E+00 0.  1.
</event>
<event>
 7    1  0.2497665E-015  0.9000751E+02  0.7816164E-02  0.1186339E+00
        -11   -1    0    0    0    0  0.00000000000E+00  0.00000000000E+00  0.45593999997E+02  0.45594000000E+02  0.51100000000E-03 0.  1.
         11   -1    0    0    0    0 -0.00000000000E+00 -0.00000000000E+00 -0.45593999997E+02  0.45594000000E+02  0.51100000000E-03 0. -1.
    9900012    2    1    2    0    0 -0.91279945822E+00 -0.46738474833E+00 -0.58472132192E+00  0.90007512652E+02  0.89999771019E+02 0.  0.
        -12    1    1    2    0    0  0.91279945822E+00  0.46738474833E+00  0.58472132192E+00  0.11804873478E+01  0.00000000000E+00 0.  1.
         11    1    3    3    0    0  0.23545378618E+02  0.12043566821E+02  0.29089095437E+02  0.39314219179E+02  0.51100000000E-03 0. -1.
        -11    1    3    3    0    0 -0.32972177450E+01  0.21974969226E+01  0.56912231727E+01  0.69347428968E+01  0.51100000000E-03 0.  1.
        -12    1    3    3    0    0 -0.21160960332E+02 -0.14708448492E+02 -0.35365039931E+02  0.43758550576E+02  0.00000000000E+00 0.  1.
</event>
<event>
 7    1  0.2531456E-015  0.9000773E+02  0.7816164E-02  0.1186339E+00
        -11   -1    0    0    0    0  0.00000000000E+00  0.00000000000E+00  0.45593999997E+02  0.45594000000E+02  0.51100000000E-03 0.  1.
         11   -1    0    0    0    0 -0.00000000000E+00 -0.00000000000E+00 -0.45593999997E+02  0.45594000000E+02  0.51100000000E-03 0. -1.
    9900012    2    1    2    0    0 -0.77614679973E+00 -0.88784853191E+00 -0.48448701508E-01  0.90007734713E+02  0.89999996011E+02 0.  0.
        -12    1    1    2    0    0  0.77614679973E+00  0.88784853191E+00  0.48448701508E-01  0.11802652867E+01  0.00000000000E+00 0.  1.
         11    1    3    3    0    0  0.13897997664E+02  0.33620481548E+02 -0.54664892142E+01  0.36788226692E+02  0.51100000000E-03 0. -1.
        -11    1    3    3    0    0  0.57388603588E+01  0.86555099242E+00 -0.83071640576E+01  0.10133739274E+02  0.51100000000E-03 0.  1.
        -12    1    3    3    0    0 -0.20413004823E+02 -0.35373881072E+02  0.13725204570E+02  0.43085768747E+02  0.00000000000E+00 0.  1.
</event>
<event>
 7    1  0.2497665E-015  0.9000777E+02  0.7816164E-02  0.1186339E+00
        -11   -1    0    0    0    0  0.00000000000E+00  0.00000000000E+00  0.45593999997E+02  0.45594000000E+02  0.51100000000E-03 0. -1.
         11   -1    0    0    0    0 -0.00000000000E+00 -0.00000000000E+00 -0.45593999997E+02  0.45594000000E+02  0.51100000000E-03 0.  1.
    9900012    2    1    2    0    0 -0.10228468840E+00  0.66439549125E+00  0.97008049010E+00  0.90007771343E+02  0.90000033124E+02 0.  0.
        -12    1    1    2    0    0  0.10228468840E+00 -0.66439549125E+00 -0.97008049010E+00  0.11802286573E+01  0.00000000000E+00 0.  1.
         11    1    3    3    0    0  0.72052579994E+01  0.27921064762E+01 -0.75314082667E+01  0.10790445410E+02  0.51100000000E-03 0. -1.
        -11    1    3    3    0    0  0.26764569587E+02 -0.24497758984E+02 -0.41978517124E+01  0.36525393080E+02  0.51100000000E-03 0.  1.
         12    1    3    3    0    0 -0.34072112275E+02  0.22370047999E+02  0.12699340469E+02  0.42691932852E+02  0.00000000000E+00 0. -1.
</event>
<event>
 7    1  0.2497665E-015  0.9000774E+02  0.7816164E-02  0.1186339E+00
        -11   -1    0    0    0    0  0.00000000000E+00  0.00000000000E+00  0.45593999997E+02  0.45594000000E+02  0.51100000000E-03 0.  1.
         11   -1    0    0    0    0 -0.00000000000E+00 -0.00000000000E+00 -0.45593999997E+02  0.45594000000E+02  0.51100000000E-03 0. -1.
    9900012    2    1    2    0    0  0.45218965114E+00  0.86356639784E-01  0.10867733656E+01  0.90007741851E+02  0.90000003244E+02 0.  0.
        -12    1    1    2    0    0 -0.45218965114E+00 -0.86356639784E-01 -0.10867733656E+01  0.11802581489E+01  0.00000000000E+00 0.  1.
         11    1    3    3    0    0  0.56931730341E+01 -0.20611292197E+01  0.78168069229E+01  0.98875145303E+01  0.51100000000E-03 0. -1.
        -11    1    3    3    0    0  0.21274395391E+02  0.32435726773E+02  0.23245085744E+01  0.38859742806E+02  0.51100000000E-03 0.  1.
         12    1    3    3    0    0 -0.26515378774E+02 -0.30288240914E+02 -0.90545421317E+01  0.41260484515E+02  0.00000000000E+00 0. -1.
</event>
<event>
 7    1  0.2497665E-015  0.9000774E+02  0.7816164E-02  0.1186339E+00
        -11   -1    0    0    0    0  0.00000000000E+00  0.00000000000E+00  0.45593999997E+02  0.45594000000E+02  0.51100000000E-03 0.  1.
         11   -1    0    0    0    0 -0.00000000000E+00 -0.00000000000E+00 -0.45593999997E+02  0.45594000000E+02  0.51100000000E-03 0. -1.
    9900012    2    1    2    0    0 -0.61039880899E+00 -0.10095437884E+01  0.35360917621E-01  0.90007739113E+02  0.90000000469E+02 0.  0.
        -12    1    1    2    0    0  0.61039880899E+00  0.10095437884E+01 -0.35360917621E-01  0.11802608869E+01  0.00000000000E+00 0.  1.
         11    1    3    3    0    0  0.21132684790E+01 -0.25859600261E+02 -0.26976311944E+02  0.37428681992E+02  0.51100000000E-03 0. -1.
        -11    1    3    3    0    0 -0.47955080089E+01 -0.65611295187E+01 -0.33995661489E+01  0.88092206174E+01  0.51100000000E-03 0.  1.
        -12    1    3    3    0    0  0.20718407208E+01  0.31411185992E+02  0.30411239010E+02  0.43769836503E+02  0.00000000000E+00 0.  1.
</event>
<event>
 7    1  0.2497665E-015  0.9000774E+02  0.7816164E-02  0.1186339E+00
        -11   -1    0    0    0    0  0.00000000000E+00  0.00000000000E+00  0.45593999997E+02  0.45594000000E+02  0.51100000000E-03 0.  1.
         11   -1    0    0    0    0 -0.00000000000E+00 -0.00000000000E+00 -0.45593999997E+02  0.45594000000E+02  0.51100000000E-03 0. -1.
    9900012    2    1    2    0    0 -0.27227890521E+00  0.11053416339E+01  0.31162163386E+00  0.90007735635E+02  0.89999996945E+02 0.  0.
        -12    1    1    2    0    0  0.27227890521E+00 -0.11053416339E+01 -0.31162163386E+00  0.11802643655E+01  0.00000000000E+00 0.  1.
         11    1    3    3    0    0  0.60678750584E+01  0.38905137369E+01  0.13185510364E+01  0.73276041077E+01  0.51100000000E-03 0. -1.
        -11    1    3    3    0    0  0.28902296316E+02 -0.20666476234E+02  0.16837951071E+02  0.39318730509E+02  0.51100000000E-03 0.  1.
         12    1    3    3    0    0 -0.35242450280E+02  0.17881304131E+02 -0.17844880473E+02  0.43361401018E+02  0.00000000000E+00 0. -1.
</event>
<event>
 7    1  0.2497665E-015  0.9000674E+02  0.7816164E-02  0.1186341E+00
        -11   -1    0    0    0    0  0.00000000000E+00  0.00000000000E+00  0.45593999997E+02  0.45594000000E+02  0.51100000000E-03 0.  1.
         11   -1    0    0    0    0 -0.00000000000E+00 -0.00000000000E+00 -0.45593999997E+02  0.45594000000E+02  0.51100000000E-03 0. -1.
    9900012    2    1    2    0    0  0.26304639670E+00 -0.79605503734E+00 -0.83215843782E+00  0.90006735976E+02  0.89998984085E+02 0.  0.
        -12    1    1    2    0    0 -0.26304639670E+00  0.79605503734E+00  0.83215843782E+00  0.11812640242E+01  0.00000000000E+00 0.  1.
         11    1    3    3    0    0  0.38218168009E+01 -0.34176212913E+02 -0.79024422309E+01  0.35285526866E+02  0.51100000000E-03 0. -1.
        -11    1    3    3    0    0 -0.23640882883E+01 -0.60177978890E+01 -0.98861251358E+01  0.11812632024E+02  0.51100000000E-03 0.  1.
        -12    1    3    3    0    0 -0.11946821158E+01  0.39397955765E+02  0.16956408929E+02  0.42908577086E+02  0.00000000000E+00 0.  1.
</event>
<event>
 7    1  0.2497665E-015  0.9000819E+02  0.7816164E-02  0.1186338E+00
        -11   -1    0    0    0    0  0.00000000000E+00  0.00000000000E+00  0.45593999997E+02  0.45594000000E+02  0.51100000000E-03 0. -1.
         11   -1    0    0    0    0 -0.00000000000E+00 -0.00000000000E+00 -0.45593999997E+02  0.45594000000E+02  0.51100000000E-03 0.  1.
    9900012    2    1    2    0    0  0.45116937310E+00 -0.10084854478E+01  0.41396085112E+00  0.90008186333E+02  0.90000453592E+02 0.  0.
        -12    1    1    2    0    0 -0.45116937310E+00  0.10084854478E+01 -0.41396085112E+00  0.11798136666E+01  0.00000000000E+00 0.  1.
         11    1    3    3    0    0  0.12718363222E+02  0.20375130260E+02  0.31795640856E+02  0.39848029737E+02  0.51100000000E-03 0. -1.
        -11    1    3    3    0    0  0.83470178900E+01 -0.10516032066E+01 -0.14162398077E+02  0.16472768332E+02  0.51100000000E-03 0.  1.
        -12    1    3    3    0    0 -0.20614211739E+02 -0.20332012501E+02 -0.17219281928E+02  0.33687388265E+02  0.00000000000E+00 0.  1.
</event>
<event>
 7    1  0.2497665E-015  0.9000772E+02  0.7816164E-02  0.1186339E+00
        -11   -1    0    0    0    0  0.00000000000E+00  0.00000000000E+00  0.45593999997E+02  0.45594000000E+02  0.51100000000E-03 0.  1.
         11   -1    0    0    0    0 -0.00000000000E+00 -0.00000000000E+00 -0.45593999997E+02  0.45594000000E+02  0.51100000000E-03 0. -1.
    9900012    2    1    2    0    0  0.40227649247E+00  0.10294968050E+01 -0.41397612658E+00  0.90007717711E+02  0.89999978785E+02 0.  0.
        -12    1    1    2    0    0 -0.40227649247E+00 -0.10294968050E+01  0.41397612658E+00  0.11802822888E+01  0.00000000000E+00 0.  1.
         11    1    3    3    0    0 -0.31718763702E+01  0.56924964581E+01 -0.74724827808E+01  0.99148028121E+01  0.51100000000E-03 0. -1.
        -11    1    3    3    0    0 -0.29538390289E+02 -0.24120933303E+02 -0.77772330214E+01  0.38920705004E+02  0.51100000000E-03 0.  1.
         12    1    3    3    0    0  0.33112543152E+02  0.19457933650E+02  0.14835739676E+02  0.41172209895E+02  0.00000000000E+00 0. -1.
</event>
<event>
 7    1  0.2497665E-015  0.9000765E+02  0.7816164E-02  0.1186339E+00
        -11   -1    0    0    0    0  0.00000000000E+00  0.00000000000E+00  0.45593999997E+02  0.45594000000E+02  0.51100000000E-03 0.  1.
         11   -1    0    0    0    0 -0.00000000000E+00 -0.00000000000E+00 -0.45593999997E+02  0.45594000000E+02  0.51100000000E-03 0. -1.
    9900012    2    1    2    0    0  0.88482057678E+00 -0.71579038299E+00 -0.31297873711E+00  0.90007653011E+02  0.89999913230E+02 0.  0.
        -12    1    1    2    0    0 -0.88482057678E+00  0.71579038299E+00  0.31297873711E+00  0.11803469894E+01  0.00000000000E+00 0.  1.
         11    1    3    3    0    0  0.17597040160E+02 -0.34400376892E+02 -0.68100137286E+01  0.39235418183E+02  0.51100000000E-03 0. -1.
        -11    1    3    3    0    0 -0.74450601012E+01  0.10829663052E+02  0.19015316339E+02  0.23114774008E+02  0.51100000000E-03 0.  1.
        -12    1    3    3    0    0 -0.92671594816E+01  0.22854923458E+02 -0.12518281347E+02  0.27657460820E+02  0.00000000000E+00 0.  1.
</event>
<event>
 7    1  0.2497665E-015  0.9000759E+02  0.7816164E-02  0.1186339E+00
        -11   -1    0    0    0    0  0.00000000000E+00  0.00000000000E+00  0.45593999997E+02  0.45594000000E+02  0.51100000000E-03 0. -1.
         11   -1    0    0    0    0 -0.00000000000E+00 -0.00000000000E+00 -0.45593999997E+02  0.45594000000E+02  0.51100000000E-03 0.  1.
    9900012    2    1    2    0    0  0.92870552920E+00 -0.23792592065E+00  0.68867442566E+00  0.90007586865E+02  0.89999846212E+02 0.  0.
        -12    1    1    2    0    0 -0.92870552920E+00  0.23792592065E+00 -0.68867442566E+00  0.11804131346E+01  0.00000000000E+00 0.  1.
         11    1    3    3    0    0 -0.50125772525E+01 -0.22544587830E+01 -0.98750505201E+01  0.11301554679E+02  0.51100000000E-03 0. -1.
        -11    1    3    3    0    0 -0.34510975541E+02  0.39843324241E+00 -0.58777536473E+01  0.35010200943E+02  0.51100000000E-03 0.  1.
         12    1    3    3    0    0  0.40452258323E+02  0.16180996199E+01  0.16441478593E+02  0.43695831244E+02  0.00000000000E+00 0. -1.
</event>
<event>
 7    1  0.2497665E-015  0.9000770E+02  0.7816164E-02  0.1186339E+00
        -11   -1    0    0    0    0  0.00000000000E+00  0.00000000000E+00  0.45593999997E+02  0.45594000000E+02  0.51100000000E-03 0.  1.
         11   -1    0    0    0    0 -0.00000000000E+00 -0.00000000000E+00 -0.45593999997E+02  0.45594000000E+02  0.51100000000E-03 0. -1.
    9900012    2    1    2    0    0 -0.40368992481E+00  0.11071624618E+01  0.65824540338E-01  0.90007700401E+02  0.89999961247E+02 0.  0.
        -12    1    1    2    0    0  0.40368992481E+00 -0.11071624618E+01 -0.65824540338E-01  0.11802995986E+01  0.00000000000E+00 0.  1.
         11    1    3    3    0    0  0.31270543442E+01  0.69875344402E+01  0.83612369799E+01  0.11336418770E+02  0.51100000000E-03 0. -1.
        -11    1    3    3    0    0  0.23470115927E+02  0.22521615246E+02 -0.19484171529E+02  0.37917046765E+02  0.51100000000E-03 0.  1.
         12    1    3    3    0    0 -0.27000860196E+02 -0.28401987225E+02  0.11188759089E+02  0.40754234867E+02  0.00000000000E+00 0. -1.
</event>
<event>
 7    1  0.2497665E-015  0.9000716E+02  0.7816164E-02  0.1186340E+00
        -11   -1    0    0    0    0  0.00000000000E+00  0.00000000000E+00  0.45593999997E+02  0.45594000000E+02  0.51100000000E-03 0.  1.
         11   -1    0    0    0    0 -0.00000000000E+00 -0.00000000000E+00 -0.45593999997E+02  0.45594000000E+02  0.51100000000E-03 0. -1.
    9900012    2    1    2    0    0  0.51971119500E+00  0.88600862313E+00 -0.58247506413E+00  0.90007157840E+02  0.89999411522E+02 0.  0.
        -12    1    1    2    0    0 -0.51971119500E+00 -0.88600862313E+00  0.58247506413E+00  0.11808421600E+01  0.00000000000E+00 0.  1.
         11    1    3    3    0    0  0.29728420191E+02 -0.19111502941E+02  0.34001420610E+01  0.35504781058E+02  0.51100000000E-03 0. -1.
        -11    1    3    3    0    0  0.99459437399E+01  0.12256299923E+01  0.31367063364E+01  0.10500613918E+02  0.51100000000E-03 0.  1.
        -12    1    3    3    0    0 -0.39154652736E+02  0.18771881571E+02 -0.71193234615E+01  0.44001762864E+02  0.00000000000E+00 0.  1.
</event>
<event>
 7    1  0.2497665E-015  0.9000768E+02  0.7816164E-02  0.1186339E+00
        -11   -1    0    0    0    0  0.00000000000E+00  0.00000000000E+00  0.45593999997E+02  0.45594000000E+02  0.51100000000E-03 0. -1.
         11   -1    0    0    0    0 -0.00000000000E+00 -0.00000000000E+00 -0.45593999997E+02  0.45594000000E+02  0.51100000000E-03 0.  1.
    9900012    2    1    2    0    0  0.12089786843E+00  0.22476077119E+00  0.11524018269E+01  0.90007676456E+02  0.89999936985E+02 0.  0.
        -12    1    1    2    0    0 -0.12089786843E+00 -0.22476077119E+00 -0.11524018269E+01  0.11803235445E+01  0.00000000000E+00 0.  1.
         11    1    3    3    0    0  0.10449830935E+02 -0.10781673144E+01  0.72749411070E+00  0.10530463393E+02  0.51100000000E-03 0. -1.
        -11    1    3    3    0    0  0.27308714113E+02  0.15655048343E+02  0.17167783068E+02  0.35854974283E+02  0.51100000000E-03 0.  1.
         12    1    3    3    0    0 -0.37637647179E+02 -0.14352120257E+02 -0.16742875352E+02  0.43622238779E+02  0.00000000000E+00 0. -1.
</event>
<event>
 7    1  0.2497665E-015  0.9000782E+02  0.7816164E-02  0.1186339E+00
        -11   -1    0    0    0    0  0.00000000000E+00  0.00000000000E+00  0.45593999997E+02  0.45594000000E+02  0.51100000000E-03 0.  1.
         11   -1    0    0    0    0 -0.00000000000E+00 -0.00000000000E+00 -0.45593999997E+02  0.45594000000E+02  0.51100000000E-03 0. -1.
    9900012    2    1    2    0    0  0.74981278500E+00 -0.75800623836E+00 -0.50600246312E+00  0.90007817318E+02  0.90000079707E+02 0.  0.
        -12    1    1    2    0    0 -0.74981278500E+00  0.75800623836E+00  0.50600246312E+00  0.11801826819E+01  0.00000000000E+00 0.  1.
         11    1    3    3    0    0 -0.11178747346E+02 -0.30142588481E+02 -0.27693347810E+02  0.42431845891E+02  0.51100000000E-03 0. -1.
        -11    1    3    3    0    0 -0.60356525382E+01  0.26499625622E+01  0.67219262127E+01  0.94146532285E+01  0.51100000000E-03 0.  1.
        -12    1    3    3    0    0  0.17964212669E+02  0.26734619680E+02  0.20465419135E+02  0.38161318198E+02  0.00000000000E+00 0.  1.
</event>
<event>
 7    1  0.2497665E-015  0.9000779E+02  0.7816164E-02  0.1186339E+00
        -11   -1    0    0    0    0  0.00000000000E+00  0.00000000000E+00  0.45593999997E+02  0.45594000000E+02  0.51100000000E-03 0.  1.
         11   -1    0    0    0    0 -0.00000000000E+00 -0.00000000000E+00 -0.45593999997E+02  0.45594000000E+02  0.51100000000E-03 0. -1.
    9900012    2    1    2    0    0 -0.75125110838E+00 -0.69705805581E+00 -0.58534411904E+00  0.90007789892E+02  0.90000051919E+02 0.  0.
        -12    1    1    2    0    0  0.75125110838E+00  0.69705805581E+00  0.58534411904E+00  0.11802101079E+01  0.00000000000E+00 0.  1.
         11    1    3    3    0    0 -0.19931081785E+02  0.12362604321E+02 -0.32226268730E+02  0.39857425948E+02  0.51100000000E-03 0. -1.
        -11    1    3    3    0    0  0.52269736427E+01  0.81508268984E+01  0.12927215655E+00  0.96836947566E+01  0.51100000000E-03 0.  1.
        -12    1    3    3    0    0  0.13952857034E+02 -0.21210489276E+02  0.31511652454E+02  0.40466669187E+02  0.00000000000E+00 0.  1.
</event>
<event>
 7    1  0.2497665E-015  0.9000774E+02  0.7816164E-02  0.1186339E+00
        -11   -1    0    0    0    0  0.00000000000E+00  0.00000000000E+00  0.45593999997E+02  0.45594000000E+02  0.51100000000E-03 0. -1.
         11   -1    0    0    0    0 -0.00000000000E+00 -0.00000000000E+00 -0.45593999997E+02  0.45594000000E+02  0.51100000000E-03 0.  1.
    9900012    2    1    2    0    0 -0.72432000284E-01  0.10469013457E+01  0.54015810113E+00  0.90007737488E+02  0.89999998823E+02 0.  0.
        -12    1    1    2    0    0  0.72432000284E-01 -0.10469013457E+01 -0.54015810113E+00  0.11802625117E+01  0.00000000000E+00 0.  1.
         11    1    3    3    0    0 -0.21495366405E+02 -0.13525981140E+02  0.15976036759E+02  0.30003944632E+02  0.51100000000E-03 0. -1.
        -11    1    3    3    0    0 -0.10784478288E+02 -0.85131946089E+01  0.59520173531E+01  0.14973508782E+02  0.51100000000E-03 0.  1.
        -12    1    3    3    0    0  0.32207412693E+02  0.23086077095E+02 -0.21387896011E+02  0.45030284074E+02  0.00000000000E+00 0.  1.
</event>
<event>
 7    1  0.2497665E-015  0.9000771E+02  0.7816164E-02  0.1186339E+00
        -11   -1    0    0    0    0  0.00000000000E+00  0.00000000000E+00  0.45593999997E+02  0.45594000000E+02  0.51100000000E-03 0. -1.
         11   -1    0    0    0    0 -0.00000000000E+00 -0.00000000000E+00 -0.45593999997E+02  0.45594000000E+02  0.51100000000E-03 0.  1.
    9900012    2    1    2    0    0 -0.82982313448E+00 -0.32017594933E+00  0.77586900590E+00  0.90007706906E+02  0.89999967837E+02 0.  0.
        -12    1    1    2    0    0  0.82982313448E+00  0.32017594933E+00 -0.77586900590E+00  0.11802930938E+01  0.00000000000E+00 0.  1.
         11    1    3    3    0    0 -0.25555586516E+02  0.33658476030E+02 -0.37495425897E+00  0.42262531891E+02  0.51100000000E-03 0. -1.
        -11    1    3    3    0    0 -0.14836306921E+01 -0.62754526979E+01 -0.61558001845E+01  0.89149505196E+01  0.51100000000E-03 0.  1.
        -12    1    3    3    0    0  0.26209394074E+02 -0.27703199282E+02  0.73066234493E+01  0.38830224496E+02  0.00000000000E+00 0.  1.
</event>
<event>
 7    1  0.2497665E-015  0.9000774E+02  0.7816164E-02  0.1186339E+00
        -11   -1    0    0    0    0  0.00000000000E+00  0.00000000000E+00  0.45593999997E+02  0.45594000000E+02  0.51100000000E-03 0. -1.
         11   -1    0    0    0    0 -0.00000000000E+00 -0.00000000000E+00 -0.45593999997E+02  0.45594000000E+02  0.51100000000E-03 0.  1.
    9900012    2    1    2    0    0  0.62867137622E+00  0.43833202507E+00  0.89758681559E+00  0.90007735303E+02  0.89999996609E+02 0.  0.
        -12    1    1    2    0    0 -0.62867137622E+00 -0.43833202507E+00 -0.89758681559E+00  0.11802646970E+01  0.00000000000E+00 0.  1.
         11    1    3    3    0    0  0.28668466664E+02  0.21462781489E+02 -0.12743068209E+02  0.38012073842E+02  0.51100000000E-03 0. -1.
        -11    1    3    3    0    0  0.85980745969E+01 -0.18162667670E+01  0.29371007037E+01  0.92656501416E+01  0.51100000000E-03 0.  1.
        -12    1    3    3    0    0 -0.36637869885E+02 -0.19208182697E+02  0.10703554321E+02  0.42730011319E+02  0.00000000000E+00 0.  1.
</event>
<event>
 7    1  0.2497665E-015  0.9000773E+02  0.7816164E-02  0.1186339E+00
        -11   -1    0    0    0    0  0.00000000000E+00  0.00000000000E+00  0.45593999997E+02  0.45594000000E+02  0.51100000000E-03 0.  1.
         11   -1    0    0    0    0 -0.00000000000E+00 -0.00000000000E+00 -0.45593999997E+02  0.45594000000E+02  0.51100000000E-03 0. -1.
    9900012    2    1    2    0    0  0.37166106973E-02  0.60640549253E+00 -0.10125690416E+01  0.90007729904E+02  0.89999991139E+02 0.  0.
        -12    1    1    2    0    0 -0.37166106973E-02 -0.60640549253E+00  0.10125690416E+01  0.11802700956E+01  0.00000000000E+00 0.  1.
         11    1    3    3    0    0 -0.27137584559E+02 -0.33434389805E+01 -0.26963412074E+02  0.38401206632E+02  0.51100000000E-03 0. -1.
        -11    1    3    3    0    0 -0.65817631192E+01 -0.24966914956E+01  0.13240857186E+02  0.14995778521E+02  0.51100000000E-03 0.  1.
        -12    1    3    3    0    0  0.33723064289E+02  0.64465359687E+01  0.12709985846E+02  0.36610744751E+02  0.00000000000E+00 0.  1.
</event>
<event>
 7    1  0.2497665E-015  0.9000777E+02  0.7816164E-02  0.1186339E+00
        -11   -1    0    0    0    0  0.00000000000E+00  0.00000000000E+00  0.45593999997E+02  0.45594000000E+02  0.51100000000E-03 0. -1.
         11   -1    0    0    0    0 -0.00000000000E+00 -0.00000000000E+00 -0.45593999997E+02  0.45594000000E+02  0.51100000000E-03 0.  1.
    9900012    2    1    2    0    0  0.76113675463E+00 -0.57368244102E-01  0.90018369016E+00  0.90007766569E+02  0.90000028288E+02 0.  0.
        -12    1    1    2    0    0 -0.76113675463E+00  0.57368244102E-01 -0.90018369016E+00  0.11802334306E+01  0.00000000000E+00 0.  1.
         11    1    3    3    0    0  0.64067869330E+01 -0.60953060564E+01  0.25849026986E+01  0.92131100584E+01  0.51100000000E-03 0. -1.
        -11    1    3    3    0    0  0.65921544181E+01 -0.36177025131E+02 -0.22020580148E+01  0.36838603489E+02  0.51100000000E-03 0.  1.
         12    1    3    3    0    0 -0.12237804596E+02  0.42214962944E+02  0.51733900638E+00  0.43956053022E+02  0.00000000000E+00 0. -1.
</event>
<event>
 7    1  0.5935188E-015  0.9000771E+02  0.7816164E-02  0.1186339E+00
        -11   -1    0    0    0    0  0.00000000000E+00  0.00000000000E+00  0.45593999997E+02  0.45594000000E+02  0.51100000000E-03 0. -1.
         11   -1    0    0    0    0 -0.00000000000E+00 -0.00000000000E+00 -0.45593999997E+02  0.45594000000E+02  0.51100000000E-03 0.  1.
    9900012    2    1    2    0    0  0.62834014206E+00 -0.37557096899E+00  0.92586082158E+00  0.90007710566E+02  0.89999971546E+02 0.  0.
        -12    1    1    2    0    0 -0.62834014206E+00  0.37557096899E+00 -0.92586082158E+00  0.11802894339E+01  0.00000000000E+00 0.  1.
         11    1    3    3    0    0  0.14553580709E+02 -0.24946293937E+02  0.28562648144E+02  0.40619566245E+02  0.51100000000E-03 0. -1.
        -11    1    3    3    0    0  0.55673191584E+01  0.78321339301E+01  0.23571727305E+01  0.98941208833E+01  0.51100000000E-03 0.  1.
        -12    1    3    3    0    0 -0.19492559725E+02  0.16738589038E+02 -0.29993960053E+02  0.39494023438E+02  0.00000000000E+00 0.  1.
</event>
<event>
 7    1  0.2497665E-015  0.9000776E+02  0.7816164E-02  0.1186339E+00
        -11   -1    0    0    0    0  0.00000000000E+00  0.00000000000E+00  0.45593999997E+02  0.45594000000E+02  0.51100000000E-03 0. -1.
         11   -1    0    0    0    0 -0.00000000000E+00 -0.00000000000E+00 -0.45593999997E+02  0.45594000000E+02  0.51100000000E-03 0.  1.
    9900012    2    1    2    0    0  0.91283037773E+00  0.36167059090E+00  0.65490607100E+00  0.90007759822E+02  0.90000021452E+02 0.  0.
        -12    1    1    2    0    0 -0.91283037773E+00 -0.36167059090E+00 -0.65490607100E+00  0.11802401775E+01  0.00000000000E+00 0.  1.
         11    1    3    3    0    0  0.22561039679E+01  0.87634354026E+01 -0.61469510370E+01  0.10939506958E+02  0.51100000000E-03 0. -1.
        -11    1    3    3    0    0 -0.30248748856E+02 -0.27967436324E-01 -0.22007463310E+02  0.37407432832E+02  0.51100000000E-03 0.  1.
         12    1    3    3    0    0  0.28905475266E+02 -0.83737973754E+01  0.28809320418E+02  0.41660820032E+02  0.00000000000E+00 0. -1.
</event>
<event>
 7    1  0.2497665E-015  0.9000787E+02  0.7816164E-02  0.1186339E+00
        -11   -1    0    0    0    0  0.00000000000E+00  0.00000000000E+00  0.45593999997E+02  0.45594000000E+02  0.51100000000E-03 0. -1.
         11   -1    0    0    0    0 -0.00000000000E+00 -0.00000000000E+00 -0.45593999997E+02  0.45594000000E+02  0.51100000000E-03 0.  1.
    9900012    2    1    2    0    0  0.94622828120E+00 -0.58102393927E+00 -0.39971458345E+00  0.90007869276E+02  0.90000132350E+02 0.  0.
        -12    1    1    2    0    0 -0.94622828120E+00  0.58102393927E+00  0.39971458345E+00  0.11801307243E+01  0.00000000000E+00 0.  1.
         11    1    3    3    0    0 -0.37371520894E+02 -0.36842333014E+01  0.74847442099E+00  0.37560143279E+02  0.51100000000E-03 0. -1.
        -11    1    3    3    0    0 -0.28249221435E+01 -0.12912656468E+01  0.92725734383E+01  0.97789657182E+01  0.51100000000E-03 0.  1.
        -12    1    3    3    0    0  0.41142671318E+02  0.43944750089E+01 -0.10420762443E+02  0.42668760279E+02  0.00000000000E+00 0.  1.
</event>
<event>
 7    1  0.2497665E-015  0.9000781E+02  0.7816164E-02  0.1186339E+00
        -11   -1    0    0    0    0  0.00000000000E+00  0.00000000000E+00  0.45593999997E+02  0.45594000000E+02  0.51100000000E-03 0.  1.
         11   -1    0    0    0    0 -0.00000000000E+00 -0.00000000000E+00 -0.45593999997E+02  0.45594000000E+02  0.51100000000E-03 0. -1.
    9900012    2    1    2    0    0 -0.10074924095E+00 -0.27515418550E+00 -0.11432402791E+01  0.90007805706E+02  0.90000067942E+02 0.  0.
        -12    1    1    2    0    0  0.10074924095E+00  0.27515418550E+00  0.11432402791E+01  0.11801942938E+01  0.00000000000E+00 0.  1.
         11    1    3    3    0    0 -0.10953955342E+02  0.10280228225E+02  0.54326049307E+00  0.15032210822E+02  0.51100000000E-03 0. -1.
        -11    1    3    3    0    0  0.93518850726E+01  0.55024747249E+00  0.35199490043E+02  0.36424780387E+02  0.51100000000E-03 0.  1.
         12    1    3    3    0    0  0.15013210284E+01 -0.11105629883E+02 -0.36885990815E+02  0.38550814497E+02  0.00000000000E+00 0. -1.
</event>
<event>
 7    1  0.2497665E-015  0.9000777E+02  0.7816164E-02  0.1186339E+00
        -11   -1    0    0    0    0  0.00000000000E+00  0.00000000000E+00  0.45593999997E+02  0.45594000000E+02  0.51100000000E-03 0. -1.
         11   -1    0    0    0    0 -0.00000000000E+00 -0.00000000000E+00 -0.45593999997E+02  0.45594000000E+02  0.51100000000E-03 0.  1.
    9900012    2    1    2    0    0  0.80172174335E+00 -0.63913721709E+00  0.58454056616E+00  0.90007770442E+02  0.90000032212E+02 0.  0.
        -12    1    1    2    0    0 -0.80172174335E+00  0.63913721709E+00 -0.58454056616E+00  0.11802295580E+01  0.00000000000E+00 0.  1.
         11    1    3    3    0    0  0.99189093182E+01  0.90380126923E+01  0.14702210992E+02  0.19905412424E+02  0.51100000000E-03 0. -1.
        -11    1    3    3    0    0 -0.69741150803E+01 -0.38788300006E+02 -0.65905394169E+01  0.39957548831E+02  0.51100000000E-03 0.  1.
         12    1    3    3    0    0 -0.21430724945E+01  0.29111150097E+02 -0.75271310085E+01  0.30144809186E+02  0.00000000000E+00 0. -1.
</event>
<event>
 7    1  0.2497665E-015  0.9000779E+02  0.7816164E-02  0.1186339E+00
        -11   -1    0    0    0    0  0.00000000000E+00  0.00000000000E+00  0.45593999997E+02  0.45594000000E+02  0.51100000000E-03 0. -1.
         11   -1    0    0    0    0 -0.00000000000E+00 -0.00000000000E+00 -0.45593999997E+02  0.45594000000E+02  0.51100000000E-03 0.  1.
    9900012    2    1    2    0    0 -0.11392897921E+01  0.26733001870E+00  0.15312885490E+00  0.90007790266E+02  0.90000052298E+02 0.  0.
        -12    1    1    2    0    0  0.11392897921E+01 -0.26733001870E+00 -0.15312885490E+00  0.11802097337E+01  0.00000000000E+00 0.  1.
         11    1    3    3    0    0 -0.71661320897E+01  0.33031218855E+01 -0.99825537078E+01  0.12724599880E+02  0.51100000000E-03 0. -1.
        -11    1    3    3    0    0  0.11815269839E+02  0.23342960124E+02 -0.22791171331E+02  0.34697721534E+02  0.51100000000E-03 0.  1.
         12    1    3    3    0    0 -0.57884275416E+01 -0.26378751991E+02  0.32926853894E+02  0.42585468852E+02  0.00000000000E+00 0. -1.
</event>
<event>
 7    1  0.2497665E-015  0.9000770E+02  0.7816164E-02  0.1186339E+00
        -11   -1    0    0    0    0  0.00000000000E+00  0.00000000000E+00  0.45593999997E+02  0.45594000000E+02  0.51100000000E-03 0.  1.
         11   -1    0    0    0    0 -0.00000000000E+00 -0.00000000000E+00 -0.45593999997E+02  0.45594000000E+02  0.51100000000E-03 0. -1.
    9900012    2    1    2    0    0  0.94000132434E+00  0.70749877626E+00  0.94632942244E-01  0.90007698173E+02  0.89999958989E+02 0.  0.
        -12    1    1    2    0    0 -0.94000132434E+00 -0.70749877626E+00 -0.94632942244E-01  0.11803018266E+01  0.00000000000E+00 0.  1.
         11    1    3    3    0    0 -0.85078565107E+01 -0.33632439583E+02 -0.18847178562E+02  0.39480891007E+02  0.51100000000E-03 0. -1.
        -11    1    3    3    0    0 -0.97864456690E+01  0.15439249158E+02  0.14198880616E+02  0.23146341923E+02  0.51100000000E-03 0.  1.
        -12    1    3    3    0    0  0.19234303504E+02  0.18900689201E+02  0.47429308876E+01  0.27380465243E+02  0.00000000000E+00 0.  1.
</event>
<event>
 7    1  0.2497665E-015  0.9000780E+02  0.7816164E-02  0.1186339E+00
        -11   -1    0    0    0    0  0.00000000000E+00  0.00000000000E+00  0.45593999997E+02  0.45594000000E+02  0.51100000000E-03 0.  1.
         11   -1    0    0    0    0 -0.00000000000E+00 -0.00000000000E+00 -0.45593999997E+02  0.45594000000E+02  0.51100000000E-03 0. -1.
    9900012    2    1    2    0    0 -0.15818541143E+00 -0.10379369564E+01 -0.53901873067E+00  0.90007797923E+02  0.90000060056E+02 0.  0.
        -12    1    1    2    0    0  0.15818541143E+00  0.10379369564E+01  0.53901873067E+00  0.11802020767E+01  0.00000000000E+00 0.  1.
         11    1    3    3    0    0  0.31406356912E+02  0.48201289937E+01 -0.17791190676E+02  0.36415921847E+02  0.51100000000E-03 0. -1.
        -11    1    3    3    0    0  0.91641384092E+01 -0.78186063356E+00  0.61800564361E+01  0.11080877070E+02  0.51100000000E-03 0.  1.
        -12    1    3    3    0    0 -0.40728680733E+02 -0.50762053165E+01  0.11072115509E+02  0.42510999006E+02  0.00000000000E+00 0.  1.
</event>
<event>
 7    1  0.2497665E-015  0.9000778E+02  0.7816164E-02  0.1186339E+00
        -11   -1    0    0    0    0  0.00000000000E+00  0.00000000000E+00  0.45593999997E+02  0.45594000000E+02  0.51100000000E-03 0. -1.
         11   -1    0    0    0    0 -0.00000000000E+00 -0.00000000000E+00 -0.45593999997E+02  0.45594000000E+02  0.51100000000E-03 0.  1.
    9900012    2    1    2    0    0 -0.32234368717E-01 -0.87830612553E+00  0.78768832419E+00  0.90007782393E+02  0.90000044320E+02 0.  0.
        -12    1    1    2    0    0  0.32234368717E-01  0.87830612553E+00 -0.78768832419E+00  0.11802176074E+01  0.00000000000E+00 0.  1.
         11    1    3    3    0    0  0.56934848869E+01  0.79285312398E+01  0.31430959859E+01  0.10254580948E+02  0.51100000000E-03 0. -1.
        -11    1    3    3    0    0 -0.40502146086E+02  0.42774487168E+01 -0.97264687599E+01  0.41872719042E+02  0.51100000000E-03 0.  1.
         12    1    3    3    0    0  0.34776426831E+02 -0.13084286082E+02  0.73710610982E+01  0.37880482403E+02  0.00000000000E+00 0. -1.
</event>
<event>
 7    1  0.2497665E-015  0.9000776E+02  0.7816164E-02  0.1186339E+00
        -11   -1    0    0    0    0  0.00000000000E+00  0.00000000000E+00  0.45593999997E+02  0.45594000000E+02  0.51100000000E-03 0.  1.
         11   -1    0    0    0    0 -0.00000000000E+00 -0.00000000000E+00 -0.45593999997E+02  0.45594000000E+02  0.51100000000E-03 0. -1.
    9900012    2    1    2    0    0  0.37620499028E+00 -0.10869343545E+01  0.26460522417E+00  0.90007757478E+02  0.90000019077E+02 0.  0.
        -12    1    1    2    0    0 -0.37620499028E+00  0.10869343545E+01 -0.26460522417E+00  0.11802425218E+01  0.00000000000E+00 0.  1.
         11    1    3    3    0    0  0.60328311359E+01  0.83022062743E+00 -0.76325496699E+01  0.97642271855E+01  0.51100000000E-03 0. -1.
        -11    1    3    3    0    0 -0.34526392076E+02 -0.20717412955E+02 -0.99031861767E+01  0.41465118425E+02  0.51100000000E-03 0.  1.
         12    1    3    3    0    0  0.28869765930E+02  0.18800257973E+02  0.17800341071E+02  0.38778411867E+02  0.00000000000E+00 0. -1.
</event>
<event>
 7    1  0.2497665E-015  0.9000740E+02  0.7816164E-02  0.1186340E+00
        -11   -1    0    0    0    0  0.00000000000E+00  0.00000000000E+00  0.45593999997E+02  0.45594000000E+02  0.51100000000E-03 0.  1.
         11   -1    0    0    0    0 -0.00000000000E+00 -0.00000000000E+00 -0.45593999997E+02  0.45594000000E+02  0.51100000000E-03 0. -1.
    9900012    2    1    2    0    0  0.93751946200E+00 -0.39364683655E+00 -0.59992704707E+00  0.90007401408E+02  0.89999658306E+02 0.  0.
        -12    1    1    2    0    0 -0.93751946200E+00  0.39364683655E+00  0.59992704707E+00  0.11805985920E+01  0.00000000000E+00 0.  1.
         11    1    3    3    0    0 -0.18284184049E+02  0.19032692863E+02  0.26957292733E+02  0.37725991249E+02  0.51100000000E-03 0. -1.
        -11    1    3    3    0    0 -0.90266501009E+01 -0.33182943033E+01  0.61168870255E-01  0.96174441001E+01  0.51100000000E-03 0.  1.
        -12    1    3    3    0    0  0.28248353612E+02 -0.16108045396E+02 -0.27618388650E+02  0.42663966059E+02  0.00000000000E+00 0.  1.
</event>
<event>
 7    1  0.2497665E-015  0.9000778E+02  0.7816164E-02  0.1186339E+00
        -11   -1    0    0    0    0  0.00000000000E+00  0.00000000000E+00  0.45593999997E+02  0.45594000000E+02  0.51100000000E-03 0.  1.
         11   -1    0    0    0    0 -0.00000000000E+00 -0.00000000000E+00 -0.45593999997E+02  0.45594000000E+02  0.51100000000E-03 0. -1.
    9900012    2    1    2    0    0  0.86308753262E+00  0.28821833778E+00  0.75161152989E+00  0.90007784007E+02  0.90000045955E+02 0.  0.
        -12    1    1    2    0    0 -0.86308753262E+00 -0.28821833778E+00 -0.75161152989E+00  0.11802159934E+01  0.00000000000E+00 0.  1.
         11    1    3    3    0    0  0.80463861391E+01  0.24166538861E+02 -0.27199986172E+02  0.37263993055E+02  0.51100000000E-03 0. -1.
        -11    1    3    3    0    0 -0.33240694995E+01 -0.12360421267E+01 -0.87534146402E+01  0.94445490258E+01  0.51100000000E-03 0.  1.
        -12    1    3    3    0    0 -0.38592291070E+01 -0.22642278397E+02  0.36705012342E+02  0.43299241925E+02  0.00000000000E+00 0.  1.
</event>
<event>
 7    1  0.2497665E-015  0.9000785E+02  0.7816164E-02  0.1186339E+00
        -11   -1    0    0    0    0  0.00000000000E+00  0.00000000000E+00  0.45593999997E+02  0.45594000000E+02  0.51100000000E-03 0.  1.
         11   -1    0    0    0    0 -0.00000000000E+00 -0.00000000000E+00 -0.45593999997E+02  0.45594000000E+02  0.51100000000E-03 0. -1.
    9900012    2    1    2    0    0  0.15441199369E+00  0.63825846419E+00 -0.98057571536E+00  0.90007853541E+02  0.90000116408E+02 0.  0.
        -12    1    1    2    0    0 -0.15441199369E+00 -0.63825846419E+00  0.98057571536E+00  0.11801464589E+01  0.00000000000E+00 0.  1.
         11    1    3    3    0    0 -0.51512181049E+01 -0.18762460119E+01 -0.72041648158E+01  0.90529187567E+01  0.51100000000E-03 0. -1.
        -11    1    3    3    0    0 -0.23829851871E+02 -0.26705906366E+02  0.14932479621E+02  0.38782034796E+02  0.51100000000E-03 0.  1.
         12    1    3    3    0    0  0.29135481969E+02  0.29220410842E+02 -0.87088905209E+01  0.42172899989E+02  0.00000000000E+00 0. -1.
</event>
<event>
 7    1  0.2497665E-015  0.9000704E+02  0.7816164E-02  0.1186340E+00
        -11   -1    0    0    0    0  0.00000000000E+00  0.00000000000E+00  0.45593999997E+02  0.45594000000E+02  0.51100000000E-03 0. -1.
         11   -1    0    0    0    0 -0.00000000000E+00 -0.00000000000E+00 -0.45593999997E+02  0.45594000000E+02  0.51100000000E-03 0.  1.
    9900012    2    1    2    0    0  0.40278047085E+00 -0.10815579952E+01  0.25034415582E+00  0.90007037680E+02  0.89999289775E+02 0.  0.
        -12    1    1    2    0    0 -0.40278047085E+00  0.10815579952E+01 -0.25034415582E+00  0.11809623199E+01  0.00000000000E+00 0.  1.
         11    1    3    3    0    0 -0.39631826416E+01  0.19522132950E+01  0.97506017789E+01  0.10704774108E+02  0.51100000000E-03 0. -1.
        -11    1    3    3    0    0  0.72258493721E+01  0.29300787839E+02  0.19370268571E+02  0.35860233852E+02  0.51100000000E-03 0.  1.
         12    1    3    3    0    0 -0.28598862596E+01 -0.32334559129E+02 -0.28870526194E+02  0.43442029720E+02  0.00000000000E+00 0. -1.
</event>
<event>
 7    1  0.2497665E-015  0.9000772E+02  0.7816164E-02  0.1186339E+00
        -11   -1    0    0    0    0  0.00000000000E+00  0.00000000000E+00  0.45593999997E+02  0.45594000000E+02  0.51100000000E-03 0.  1.
         11   -1    0    0    0    0 -0.00000000000E+00 -0.00000000000E+00 -0.45593999997E+02  0.45594000000E+02  0.51100000000E-03 0. -1.
    9900012    2    1    2    0    0 -0.79477529821E+00 -0.83377755086E+00 -0.25730034762E+00  0.90007721962E+02  0.89999983092E+02 0.  0.
        -12    1    1    2    0    0  0.79477529821E+00  0.83377755086E+00  0.25730034762E+00  0.11802780384E+01  0.00000000000E+00 0.  1.
         11    1    3    3    0    0 -0.20060423488E+02  0.26787725576E+02 -0.12843949000E+02  0.35846476232E+02  0.51100000000E-03 0. -1.
        -11    1    3    3    0    0 -0.39054477109E+01  0.10172728601E+01 -0.10114387369E+02  0.10889820843E+02  0.51100000000E-03 0.  1.
        -12    1    3    3    0    0  0.23171095900E+02 -0.28638775987E+02  0.22701036021E+02  0.43271424886E+02  0.00000000000E+00 0.  1.
</event>
<event>
 7    1  0.2497665E-015  0.9000780E+02  0.7816164E-02  0.1186339E+00
        -11   -1    0    0    0    0  0.00000000000E+00  0.00000000000E+00  0.45593999997E+02  0.45594000000E+02  0.51100000000E-03 0.  1.
         11   -1    0    0    0    0 -0.00000000000E+00 -0.00000000000E+00 -0.45593999997E+02  0.45594000000E+02  0.51100000000E-03 0. -1.
    9900012    2    1    2    0    0  0.51195723242E+00  0.10632949671E+01  0.13507718855E-01  0.90007797113E+02  0.90000059235E+02 0.  0.
        -12    1    1    2    0    0 -0.51195723242E+00 -0.10632949671E+01 -0.13507718855E-01  0.11802028865E+01  0.00000000000E+00 0.  1.
         11    1    3    3    0    0 -0.21358066472E+01 -0.97822975117E+01 -0.30970234325E+01  0.10480771395E+02  0.51100000000E-03 0. -1.
        -11    1    3    3    0    0 -0.26344230300E+02  0.68528985033E+01  0.29485952489E+02  0.40129815380E+02  0.51100000000E-03 0.  1.
         12    1    3    3    0    0  0.28991994179E+02  0.39926939755E+01 -0.26375421338E+02  0.39397210338E+02  0.00000000000E+00 0. -1.
</event>
<event>
 7    1  0.2497665E-015  0.9000772E+02  0.7816164E-02  0.1186339E+00
        -11   -1    0    0    0    0  0.00000000000E+00  0.00000000000E+00  0.45593999997E+02  0.45594000000E+02  0.51100000000E-03 0.  1.
         11   -1    0    0    0    0 -0.00000000000E+00 -0.00000000000E+00 -0.45593999997E+02  0.45594000000E+02  0.51100000000E-03 0. -1.
    9900012    2    1    2    0    0  0.25774379915E+00  0.10408139357E+01 -0.49329170277E+00  0.90007719432E+02  0.89999980529E+02 0.  0.
        -12    1    1    2    0    0 -0.25774379915E+00 -0.10408139357E+01  0.49329170277E+00  0.11802805679E+01  0.00000000000E+00 0.  1.
         11    1    3    3    0    0 -0.14670250545E+02  0.20958494166E+02 -0.25339229598E+02  0.36007655930E+02  0.51100000000E-03 0. -1.
        -11    1    3    3    0    0  0.30310842422E+01 -0.11293089335E+01 -0.11193637544E+02  0.11651623581E+02  0.51100000000E-03 0.  1.
        -12    1    3    3    0    0  0.11896910102E+02 -0.18788371297E+02  0.36039575438E+02  0.42348439921E+02  0.00000000000E+00 0.  1.
</event>
<event>
 7    1  0.2497665E-015  0.9000774E+02  0.7816164E-02  0.1186339E+00
        -11   -1    0    0    0    0  0.00000000000E+00  0.00000000000E+00  0.45593999997E+02  0.45594000000E+02  0.51100000000E-03 0.  1.
         11   -1    0    0    0    0 -0.00000000000E+00 -0.00000000000E+00 -0.45593999997E+02  0.45594000000E+02  0.51100000000E-03 0. -1.
    9900012    2    1    2    0    0  0.31460076373E+00  0.82841461109E+00  0.77959244055E+00  0.90007742070E+02  0.90000003465E+02 0.  0.
        -12    1    1    2    0    0 -0.31460076373E+00 -0.82841461109E+00 -0.77959244055E+00  0.11802579302E+01  0.00000000000E+00 0.  1.
         11    1    3    3    0    0  0.28737274595E+02  0.46230146452E+01 -0.25786439110E+02  0.38886291386E+02  0.51100000000E-03 0. -1.
        -11    1    3    3    0    0 -0.12348365756E+01 -0.62522885822E+01 -0.59131001278E+01  0.86937153891E+01  0.51100000000E-03 0.  1.
        -12    1    3    3    0    0 -0.27187837256E+02  0.24576885481E+01  0.32479131678E+02  0.42427735294E+02  0.00000000000E+00 0.  1.
</event>
<event>
 7    1  0.2497665E-015  0.9000775E+02  0.7816164E-02  0.1186339E+00
        -11   -1    0    0    0    0  0.00000000000E+00  0.00000000000E+00  0.45593999997E+02  0.45594000000E+02  0.51100000000E-03 0.  1.
         11   -1    0    0    0    0 -0.00000000000E+00 -0.00000000000E+00 -0.45593999997E+02  0.45594000000E+02  0.51100000000E-03 0. -1.
    9900012    2    1    2    0    0  0.27055618508E+00  0.11045648352E+01  0.31577892704E+00  0.90007754070E+02  0.90000015624E+02 0.  0.
        -12    1    1    2    0    0 -0.27055618508E+00 -0.11045648352E+01 -0.31577892704E+00  0.11802459299E+01  0.00000000000E+00 0.  1.
         11    1    3    3    0    0 -0.68036111378E+01 -0.70845464977E+01 -0.36712060666E+02  0.38003359354E+02  0.51100000000E-03 0. -1.
        -11    1    3    3    0    0  0.45637432363E+01 -0.30467150146E+01 -0.56053179100E+01  0.78440942014E+01  0.51100000000E-03 0.  1.
        -12    1    3    3    0    0  0.25104240865E+01  0.11235826347E+02  0.42633157503E+02  0.44160300514E+02  0.00000000000E+00 0.  1.
</event>
<event>
 7    1  0.2497665E-015  0.9000773E+02  0.7816164E-02  0.1186339E+00
        -11   -1    0    0    0    0  0.00000000000E+00  0.00000000000E+00  0.45593999997E+02  0.45594000000E+02  0.51100000000E-03 0.  1.
         11   -1    0    0    0    0 -0.00000000000E+00 -0.00000000000E+00 -0.45593999997E+02  0.45594000000E+02  0.51100000000E-03 0. -1.
    9900012    2    1    2    0    0  0.82934348706E+00 -0.28729181411E+00 -0.78910133572E+00  0.90007733876E+02  0.89999995163E+02 0.  0.
        -12    1    1    2    0    0 -0.82934348706E+00  0.28729181411E+00  0.78910133572E+00  0.11802661242E+01  0.00000000000E+00 0.  1.
         11    1    3    3    0    0 -0.24928357002E+02 -0.22102166998E+02 -0.11085159452E+02  0.35111387457E+02  0.51100000000E-03 0. -1.
        -11    1    3    3    0    0 -0.99926608786E+01  0.31348113896E+01  0.10114193753E+02  0.14559437813E+02  0.51100000000E-03 0.  1.
        -12    1    3    3    0    0  0.35750361367E+02  0.18680063794E+02  0.18186436319E+00  0.40336908606E+02  0.00000000000E+00 0.  1.
</event>
<event>
 7    1  0.2497665E-015  0.9000780E+02  0.7816164E-02  0.1186339E+00
        -11   -1    0    0    0    0  0.00000000000E+00  0.00000000000E+00  0.45593999997E+02  0.45594000000E+02  0.51100000000E-03 0.  1.
         11   -1    0    0    0    0 -0.00000000000E+00 -0.00000000000E+00 -0.45593999997E+02  0.45594000000E+02  0.51100000000E-03 0. -1.
    9900012    2    1    2    0    0  0.83195374721E+00 -0.54424843870E+00 -0.63601910238E+00  0.90007799297E+02  0.90000061448E+02 0.  0.
        -12    1    1    2    0    0 -0.83195374721E+00  0.54424843870E+00  0.63601910238E+00  0.11802007029E+01  0.00000000000E+00 0.  1.
         11    1    3    3    0    0  0.49202772014E+01  0.43194806563E+01 -0.65439267970E+01  0.92568903561E+01  0.51100000000E-03 0. -1.
        -11    1    3    3    0    0 -0.23440783205E+02  0.28787111495E+02  0.16331249340E+02  0.40557093224E+02  0.51100000000E-03 0.  1.
         12    1    3    3    0    0  0.19352459751E+02 -0.33650840590E+02 -0.10423341646E+02  0.40193815717E+02  0.00000000000E+00 0. -1.
</event>
<event>
 7    1  0.2497665E-015  0.9000774E+02  0.7816164E-02  0.1186339E+00
        -11   -1    0    0    0    0  0.00000000000E+00  0.00000000000E+00  0.45593999997E+02  0.45594000000E+02  0.51100000000E-03 0. -1.
         11   -1    0    0    0    0 -0.00000000000E+00 -0.00000000000E+00 -0.45593999997E+02  0.45594000000E+02  0.51100000000E-03 0.  1.
    9900012    2    1    2    0    0 -0.17739233174E+00  0.90137763185E+00  0.74098608835E+00  0.90007741529E+02  0.90000002917E+02 0.  0.
        -12    1    1    2    0    0  0.17739233174E+00 -0.90137763185E+00 -0.74098608835E+00  0.11802584707E+01  0.00000000000E+00 0.  1.
         11    1    3    3    0    0  0.19824504130E+02 -0.33208334740E+02 -0.29295892634E+01  0.38786427442E+02  0.51100000000E-03 0. -1.
        -11    1    3    3    0    0  0.74171676446E+00  0.17889976260E+01 -0.10204741399E+02  0.10386886133E+02  0.51100000000E-03 0.  1.
        -12    1    3    3    0    0 -0.20743613226E+02  0.32320714746E+02  0.13875316751E+02  0.40834427954E+02  0.00000000000E+00 0.  1.
</event>
<event>
 7    1  0.2497665E-015  0.9000884E+02  0.7816164E-02  0.1186337E+00
        -11   -1    0    0    0    0  0.00000000000E+00  0.00000000000E+00  0.45593999997E+02  0.45594000000E+02  0.51100000000E-03 0. -1.
         11   -1    0    0    0    0 -0.00000000000E+00 -0.00000000000E+00 -0.45593999997E+02  0.45594000000E+02  0.51100000000E-03 0.  1.
    9900012    2    1    2    0    0  0.14472996789E+00 -0.11387012551E+01  0.26986678263E+00  0.90008841235E+02  0.90001117133E+02 0.  0.
        -12    1    1    2    0    0 -0.14472996789E+00  0.11387012551E+01 -0.26986678263E+00  0.11791587647E+01  0.00000000000E+00 0.  1.
         11    1    3    3    0    0  0.71632559346E+01 -0.30315877477E+02  0.14674737172E+02  0.34434177414E+02  0.51100000000E-03 0. -1.
        -11    1    3    3    0    0  0.55055926260E+01 -0.57836093999E+01  0.87224945253E+01  0.11825548565E+02  0.51100000000E-03 0.  1.
        -12    1    3    3    0    0 -0.12524118593E+02  0.34960785622E+02 -0.23127364915E+02  0.43749115257E+02  0.00000000000E+00 0.  1.
</event>
<event>
 7    1  0.2497665E-015  0.9000763E+02  0.7816164E-02  0.1186339E+00
        -11   -1    0    0    0    0  0.00000000000E+00  0.00000000000E+00  0.45593999997E+02  0.45594000000E+02  0.51100000000E-03 0.  1.
         11   -1    0    0    0    0 -0.00000000000E+00 -0.00000000000E+00 -0.45593999997E+02  0.45594000000E+02  0.51100000000E-03 0. -1.
    9900012    2    1    2    0    0  0.11017606035E+01 -0.22771756263E+00 -0.35712569280E+00  0.90007631212E+02  0.89999891144E+02 0.  0.
        -12    1    1    2    0    0 -0.11017606035E+01  0.22771756263E+00  0.35712569280E+00  0.11803687882E+01  0.00000000000E+00 0.  1.
         11    1    3    3    0    0  0.23154471589E+02  0.28268678345E+02 -0.11371412933E+02  0.38269527855E+02  0.51100000000E-03 0. -1.
        -11    1    3    3    0    0  0.87302411520E+01 -0.20109380278E+01  0.60879910980E+01  0.10831648914E+02  0.51100000000E-03 0.  1.
        -12    1    3    3    0    0 -0.30782952137E+02 -0.26485457880E+02  0.49262961424E+01  0.40906454443E+02  0.00000000000E+00 0.  1.
</event>
<event>
 7    1  0.2497665E-015  0.9000775E+02  0.7816164E-02  0.1186339E+00
        -11   -1    0    0    0    0  0.00000000000E+00  0.00000000000E+00  0.45593999997E+02  0.45594000000E+02  0.51100000000E-03 0.  1.
         11   -1    0    0    0    0 -0.00000000000E+00 -0.00000000000E+00 -0.45593999997E+02  0.45594000000E+02  0.51100000000E-03 0. -1.
    9900012    2    1    2    0    0  0.88648662303E+00  0.73203893767E+00 -0.26694693262E+00  0.90007745704E+02  0.90000007147E+02 0.  0.
        -12    1    1    2    0    0 -0.88648662303E+00 -0.73203893767E+00  0.26694693262E+00  0.11802542963E+01  0.00000000000E+00 0.  1.
         11    1    3    3    0    0  0.78417962089E+01  0.26399847620E+01  0.36535512523E+01  0.90449833797E+01  0.51100000000E-03 0. -1.
        -11    1    3    3    0    0  0.32970355483E+01  0.37040935552E+02  0.97256765495E+01  0.38438133859E+02  0.51100000000E-03 0.  1.
         12    1    3    3    0    0 -0.10252345134E+02 -0.38948881376E+02 -0.13646174734E+02  0.42524628465E+02  0.00000000000E+00 0. -1.
</event>
<event>
 7    1  0.2497665E-015  0.9000769E+02  0.7816164E-02  0.1186339E+00
        -11   -1    0    0    0    0  0.00000000000E+00  0.00000000000E+00  0.45593999997E+02  0.45594000000E+02  0.51100000000E-03 0.  1.
         11   -1    0    0    0    0 -0.00000000000E+00 -0.00000000000E+00 -0.45593999997E+02  0.45594000000E+02  0.51100000000E-03 0. -1.
    9900012    2    1    2    0    0  0.27726548695E-02  0.95967445235E+00 -0.68712659706E+00  0.90007692539E+02  0.89999953281E+02 0.  0.
        -12    1    1    2    0    0 -0.27726548695E-02 -0.95967445235E+00  0.68712659706E+00  0.11803074610E+01  0.00000000000E+00 0.  1.
         11    1    3    3    0    0 -0.29000042121E+02 -0.57028493940E+01 -0.76938355326E+01  0.30540465610E+02  0.51100000000E-03 0. -1.
        -11    1    3    3    0    0 -0.12512703416E+01 -0.12371108516E+02  0.18173488726E+02  0.22020120257E+02  0.51100000000E-03 0.  1.
        -12    1    3    3    0    0  0.30254085117E+02  0.19033632363E+02 -0.11166779791E+02  0.37447106672E+02  0.00000000000E+00 0.  1.
</event>
<event>
 7    1  0.2497665E-015  0.9000777E+02  0.7816164E-02  0.1186339E+00
        -11   -1    0    0    0    0  0.00000000000E+00  0.00000000000E+00  0.45593999997E+02  0.45594000000E+02  0.51100000000E-03 0. -1.
         11   -1    0    0    0    0 -0.00000000000E+00 -0.00000000000E+00 -0.45593999997E+02  0.45594000000E+02  0.51100000000E-03 0.  1.
    9900012    2    1    2    0    0  0.81662462343E+00 -0.41615847368E+00  0.74356553164E+00  0.90007765553E+02  0.90000027258E+02 0.  0.
        -12    1    1    2    0    0 -0.81662462343E+00  0.41615847368E+00 -0.74356553164E+00  0.11802344473E+01  0.00000000000E+00 0.  1.
         11    1    3    3    0    0  0.48198951130E+01 -0.79985009923E+01  0.15018652078E+01  0.94584885890E+01  0.51100000000E-03 0. -1.
        -11    1    3    3    0    0 -0.71445907733E+01 -0.23216714352E+02 -0.29562971601E+02  0.38262648794E+02  0.51100000000E-03 0.  1.
         12    1    3    3    0    0  0.31413202837E+01  0.30799056871E+02  0.28804671925E+02  0.42286628169E+02  0.00000000000E+00 0. -1.
</event>
<event>
 7    1  0.2497665E-015  0.9000780E+02  0.7816164E-02  0.1186339E+00
        -11   -1    0    0    0    0  0.00000000000E+00  0.00000000000E+00  0.45593999997E+02  0.45594000000E+02  0.51100000000E-03 0.  1.
         11   -1    0    0    0    0 -0.00000000000E+00 -0.00000000000E+00 -0.45593999997E+02  0.45594000000E+02  0.51100000000E-03 0. -1.
    9900012    2    1    2    0    0  0.81148718792E-01  0.11240957382E+01  0.35027298946E+00  0.90007801919E+02  0.90000064104E+02 0.  0.
        -12    1    1    2    0    0 -0.81148718792E-01 -0.11240957382E+01 -0.35027298946E+00  0.11801980809E+01  0.00000000000E+00 0.  1.
         11    1    3    3    0    0  0.13578261687E+01  0.22235889359E+02 -0.29046103933E+02  0.36605390606E+02  0.51100000000E-03 0. -1.
        -11    1    3    3    0    0  0.64549028696E+01  0.46675063068E+01 -0.52430198058E+01  0.95362803610E+01  0.51100000000E-03 0.  1.
        -12    1    3    3    0    0 -0.77315803195E+01 -0.25779299928E+02  0.34639396728E+02  0.43866130952E+02  0.00000000000E+00 0.  1.
</event>
<event>
 7    1  0.2497665E-015  0.9000700E+02  0.7816164E-02  0.1186341E+00
        -11   -1    0    0    0    0  0.00000000000E+00  0.00000000000E+00  0.45593999997E+02  0.45594000000E+02  0.51100000000E-03 0.  1.
         11   -1    0    0    0    0 -0.00000000000E+00 -0.00000000000E+00 -0.45593999997E+02  0.45594000000E+02  0.51100000000E-03 0. -1.
    9900012    2    1    2    0    0 -0.84371644176E+00 -0.28551375842E+00 -0.77548478177E+00  0.90007003731E+02  0.89999255377E+02 0.  0.
        -12    1    1    2    0    0  0.84371644176E+00  0.28551375842E+00  0.77548478177E+00  0.11809962689E+01  0.00000000000E+00 0.  1.
         11    1    3    3    0    0  0.39719035203E+02 -0.64179220016E+01 -0.67751104923E+01  0.40800656891E+02  0.51100000000E-03 0. -1.
        -11    1    3    3    0    0 -0.15014381341E+01 -0.26426941400E+01  0.85660789194E+01  0.90893265484E+01  0.51100000000E-03 0.  1.
        -12    1    3    3    0    0 -0.39061313511E+02  0.87751023832E+01 -0.25664532089E+01  0.40117020292E+02  0.00000000000E+00 0.  1.
</event>
<event>
 7    1  0.2497665E-015  0.9000742E+02  0.7816164E-02  0.1186340E+00
        -11   -1    0    0    0    0  0.00000000000E+00  0.00000000000E+00  0.45593999997E+02  0.45594000000E+02  0.51100000000E-03 0.  1.
         11   -1    0    0    0    0 -0.00000000000E+00 -0.00000000000E+00 -0.45593999997E+02  0.45594000000E+02  0.51100000000E-03 0. -1.
    9900012    2    1    2    0    0  0.47126194634E+00  0.70953593267E+00 -0.81745602414E+00  0.90007422424E+02  0.89999679599E+02 0.  0.
        -12    1    1    2    0    0 -0.47126194634E+00 -0.70953593267E+00  0.81745602414E+00  0.11805775761E+01  0.00000000000E+00 0.  1.
         11    1    3    3    0    0 -0.37368931808E+01  0.29844702753E+01 -0.33924272678E+01  0.58634457870E+01  0.51100000000E-03 0. -1.
        -11    1    3    3    0    0 -0.15530403243E+02  0.37003283687E+02  0.20325201529E+01  0.40181681982E+02  0.51100000000E-03 0.  1.
         12    1    3    3    0    0  0.19738558370E+02 -0.39278218030E+02  0.54245109078E+00  0.43962294654E+02  0.00000000000E+00 0. -1.
</event>
<event>
 7    1  0.2497665E-015  0.9000770E+02  0.7816164E-02  0.1186339E+00
        -11   -1    0    0    0    0  0.00000000000E+00  0.00000000000E+00  0.45593999997E+02  0.45594000000E+02  0.51100000000E-03 0. -1.
         11   -1    0    0    0    0 -0.00000000000E+00 -0.00000000000E+00 -0.45593999997E+02  0.45594000000E+02  0.51100000000E-03 0.  1.
    9900012    2    1    2    0    0  0.20095874858E+00  0.11630602215E+01  0.39896667122E-02  0.90007699439E+02  0.89999960271E+02 0.  0.
        -12    1    1    2    0    0 -0.20095874858E+00 -0.11630602215E+01 -0.39896667122E-02  0.11803005613E+01  0.00000000000E+00 0.  1.
         11    1    3    3    0    0 -0.59930614682E+01 -0.67898605720E+01 -0.26609477673E+01  0.94392603327E+01  0.51100000000E-03 0. -1.
        -11    1    3    3    0    0  0.23400626595E+02 -0.52437402553E+01 -0.31812496494E+02  0.39838688110E+02  0.51100000000E-03 0.  1.
         12    1    3    3    0    0 -0.17206606379E+02  0.13196661049E+02  0.34477433928E+02  0.40729750996E+02  0.00000000000E+00 0. -1.
</event>
<event>
 7    1  0.2497665E-015  0.9000770E+02  0.7816164E-02  0.1186339E+00
        -11   -1    0    0    0    0  0.00000000000E+00  0.00000000000E+00  0.45593999997E+02  0.45594000000E+02  0.51100000000E-03 0.  1.
         11   -1    0    0    0    0 -0.00000000000E+00 -0.00000000000E+00 -0.45593999997E+02  0.45594000000E+02  0.51100000000E-03 0. -1.
    9900012    2    1    2    0    0  0.86267937747E-01  0.11630825894E+01 -0.18140084795E+00  0.90007699388E+02  0.89999960220E+02 0.  0.
        -12    1    1    2    0    0 -0.86267937747E-01 -0.11630825894E+01  0.18140084795E+00  0.11803006119E+01  0.00000000000E+00 0.  1.
         11    1    3    3    0    0  0.43825519542E+01 -0.80455738095E+01 -0.95105215453E+01  0.13205606381E+02  0.51100000000E-03 0. -1.
        -11    1    3    3    0    0 -0.29453612648E+02  0.22629169861E+02 -0.14269872288E+02  0.39789745941E+02  0.51100000000E-03 0.  1.
         12    1    3    3    0    0  0.25157328632E+02 -0.13420513462E+02  0.23598992985E+02  0.37012347067E+02  0.00000000000E+00 0. -1.
</event>
<event>
 7    1  0.2497665E-015  0.9000774E+02  0.7816164E-02  0.1186339E+00
        -11   -1    0    0    0    0  0.00000000000E+00  0.00000000000E+00  0.45593999997E+02  0.45594000000E+02  0.51100000000E-03 0.  1.
         11   -1    0    0    0    0 -0.00000000000E+00 -0.00000000000E+00 -0.45593999997E+02  0.45594000000E+02  0.51100000000E-03 0. -1.
    9900012    2    1    2    0    0  0.47218584228E-01  0.44351136528E+00 -0.10927391156E+01  0.90007741257E+02  0.90000002642E+02 0.  0.
        -12    1    1    2    0    0 -0.47218584228E-01 -0.44351136528E+00  0.10927391156E+01  0.11802587430E+01  0.00000000000E+00 0.  1.
         11    1    3    3    0    0  0.35081955476E+02  0.95862964079E+01 -0.89217193140E+01  0.37446465182E+02  0.51100000000E-03 0. -1.
        -11    1    3    3    0    0  0.63126655070E+01 -0.33632324622E+00  0.81134685667E+01  0.10285486453E+02  0.51100000000E-03 0.  1.
        -12    1    3    3    0    0 -0.41347402399E+02 -0.88064617964E+01 -0.28448836821E+00  0.42275789622E+02  0.00000000000E+00 0.  1.
</event>
<event>
 7    1  0.2497665E-015  0.9000803E+02  0.7816164E-02  0.1186338E+00
        -11   -1    0    0    0    0  0.00000000000E+00  0.00000000000E+00  0.45593999997E+02  0.45594000000E+02  0.51100000000E-03 0. -1.
         11   -1    0    0    0    0 -0.00000000000E+00 -0.00000000000E+00 -0.45593999997E+02  0.45594000000E+02  0.51100000000E-03 0.  1.
    9900012    2    1    2    0    0 -0.34278025463E+00 -0.11100251555E+01  0.20656076668E+00  0.90008033264E+02  0.90000298502E+02 0.  0.
        -12    1    1    2    0    0  0.34278025463E+00  0.11100251555E+01 -0.20656076668E+00  0.11799667364E+01  0.00000000000E+00 0.  1.
         11    1    3    3    0    0 -0.12281534396E+02  0.34397813960E+02  0.15752930624E+02  0.39776884190E+02  0.51100000000E-03 0. -1.
        -11    1    3    3    0    0 -0.83345467841E+01 -0.65380850932E+01  0.19647858790E+01  0.10773653540E+02  0.51100000000E-03 0.  1.
        -12    1    3    3    0    0  0.20273300925E+02 -0.28969754023E+02 -0.17511155737E+02  0.39457495534E+02  0.00000000000E+00 0.  1.
</event>
<event>
 7    1  0.2497665E-015  0.9000777E+02  0.7816164E-02  0.1186339E+00
        -11   -1    0    0    0    0  0.00000000000E+00  0.00000000000E+00  0.45593999997E+02  0.45594000000E+02  0.51100000000E-03 0. -1.
         11   -1    0    0    0    0 -0.00000000000E+00 -0.00000000000E+00 -0.45593999997E+02  0.45594000000E+02  0.51100000000E-03 0.  1.
    9900012    2    1    2    0    0 -0.49687031059E+00 -0.12520842941E+00  0.10631972779E+01  0.90007768790E+02  0.90000030538E+02 0.  0.
        -12    1    1    2    0    0  0.49687031059E+00  0.12520842941E+00 -0.10631972779E+01  0.11802312096E+01  0.00000000000E+00 0.  1.
         11    1    3    3    0    0 -0.25922995899E+02  0.22671003919E+02  0.16635122260E+02  0.38245305959E+02  0.51100000000E-03 0. -1.
        -11    1    3    3    0    0 -0.33034487939E+00  0.12039908337E+01  0.88360114678E+01  0.89237783807E+01  0.51100000000E-03 0.  1.
        -12    1    3    3    0    0  0.25756470467E+02 -0.24000203182E+02 -0.24407936450E+02  0.42838684451E+02  0.00000000000E+00 0.  1.
</event>
<event>
 7    1  0.2497665E-015  0.9000780E+02  0.7816164E-02  0.1186339E+00
        -11   -1    0    0    0    0  0.00000000000E+00  0.00000000000E+00  0.45593999997E+02  0.45594000000E+02  0.51100000000E-03 0. -1.
         11   -1    0    0    0    0 -0.00000000000E+00 -0.00000000000E+00 -0.45593999997E+02  0.45594000000E+02  0.51100000000E-03 0.  1.
    9900012    2    1    2    0    0  0.86199137137E+00 -0.38965233142E+00 -0.70569587676E+00  0.90007803095E+02  0.90000065296E+02 0.  0.
        -12    1    1    2    0    0 -0.86199137137E+00  0.38965233142E+00  0.70569587676E+00  0.11801969048E+01  0.00000000000E+00 0.  1.
         11    1    3    3    0    0 -0.20284275920E+02  0.32079260884E+02  0.16450574690E+02  0.41366075912E+02  0.51100000000E-03 0. -1.
        -11    1    3    3    0    0  0.14149748350E+01 -0.47692164142E+01  0.57764799994E+01  0.76233391918E+01  0.51100000000E-03 0.  1.
        -12    1    3    3    0    0  0.19731292456E+02 -0.27699696801E+02 -0.22932750566E+02  0.41018387991E+02  0.00000000000E+00 0.  1.
</event>
<event>
 7    1  0.2497665E-015  0.9000776E+02  0.7816164E-02  0.1186339E+00
        -11   -1    0    0    0    0  0.00000000000E+00  0.00000000000E+00  0.45593999997E+02  0.45594000000E+02  0.51100000000E-03 0.  1.
         11   -1    0    0    0    0 -0.00000000000E+00 -0.00000000000E+00 -0.45593999997E+02  0.45594000000E+02  0.51100000000E-03 0. -1.
    9900012    2    1    2    0    0 -0.11468215228E+01  0.18880340937E+00 -0.20523880532E+00  0.90007758796E+02  0.90000020412E+02 0.  0.
        -12    1    1    2    0    0  0.11468215228E+01 -0.18880340937E+00  0.20523880532E+00  0.11802412041E+01  0.00000000000E+00 0.  1.
         11    1    3    3    0    0 -0.12167675634E+02  0.64292470769E+01  0.19026245043E+02  0.23481600223E+02  0.51100000000E-03 0. -1.
        -11    1    3    3    0    0 -0.48960146613E+01 -0.84305657303E+01  0.21028557840E+02  0.23178559990E+02  0.51100000000E-03 0.  1.
         12    1    3    3    0    0  0.15916868773E+02  0.21901220628E+01 -0.40260041689E+02  0.43347598583E+02  0.00000000000E+00 0. -1.
</event>
<event>
 7    1  0.2497665E-015  0.9000756E+02  0.7816164E-02  0.1186339E+00
        -11   -1    0    0    0    0  0.00000000000E+00  0.00000000000E+00  0.45593999997E+02  0.45594000000E+02  0.51100000000E-03 0.  1.
         11   -1    0    0    0    0 -0.00000000000E+00 -0.00000000000E+00 -0.45593999997E+02  0.45594000000E+02  0.51100000000E-03 0. -1.
    9900012    2    1    2    0    0  0.33065684213E+00 -0.11319403761E+01 -0.53113102460E-01  0.90007557725E+02  0.89999816687E+02 0.  0.
        -12    1    1    2    0    0 -0.33065684213E+00  0.11319403761E+01  0.53113102460E-01  0.11804422748E+01  0.00000000000E+00 0.  1.
         11    1    3    3    0    0  0.61612368143E+01  0.59150720377E+01 -0.86851857382E+00  0.85850591767E+01  0.51100000000E-03 0. -1.
        -11    1    3    3    0    0  0.29695168963E+02 -0.21652579619E+02 -0.15247074295E+02  0.39788321638E+02  0.51100000000E-03 0.  1.
         12    1    3    3    0    0 -0.35525748936E+02  0.14605567205E+02  0.16062479767E+02  0.41634176911E+02  0.00000000000E+00 0. -1.
</event>
<event>
 7    1  0.2497665E-015  0.9000771E+02  0.7816164E-02  0.1186339E+00
        -11   -1    0    0    0    0  0.00000000000E+00  0.00000000000E+00  0.45593999997E+02  0.45594000000E+02  0.51100000000E-03 0. -1.
         11   -1    0    0    0    0 -0.00000000000E+00 -0.00000000000E+00 -0.45593999997E+02  0.45594000000E+02  0.51100000000E-03 0.  1.
    9900012    2    1    2    0    0 -0.11300480381E+01  0.31191639796E+00 -0.13703981320E+00  0.90007711765E+02  0.89999972760E+02 0.  0.
        -12    1    1    2    0    0  0.11300480381E+01 -0.31191639796E+00  0.13703981320E+00  0.11802882352E+01  0.00000000000E+00 0.  1.
         11    1    3    3    0    0 -0.22219788141E+02  0.96319547290E+01 -0.71779962721E+01  0.25259001716E+02  0.51100000000E-03 0. -1.
        -11    1    3    3    0    0  0.30689371807E+01  0.24671368948E+02  0.84268557792E+01  0.26250842268E+02  0.51100000000E-03 0.  1.
         12    1    3    3    0    0  0.18020802922E+02 -0.33991407279E+02 -0.13858993203E+01  0.38497867781E+02  0.00000000000E+00 0. -1.
</event>
<event>
 7    1  0.2497665E-015  0.9000771E+02  0.7816164E-02  0.1186339E+00
        -11   -1    0    0    0    0  0.00000000000E+00  0.00000000000E+00  0.45593999997E+02  0.45594000000E+02  0.51100000000E-03 0.  1.
         11   -1    0    0    0    0 -0.00000000000E+00 -0.00000000000E+00 -0.45593999997E+02  0.45594000000E+02  0.51100000000E-03 0. -1.
    9900012    2    1    2    0    0 -0.86550332478E+00 -0.62309925083E+00 -0.50571035182E+00  0.90007706968E+02  0.89999967900E+02 0.  0.
        -12    1    1    2    0    0  0.86550332478E+00  0.62309925083E+00  0.50571035182E+00  0.11802930321E+01  0.00000000000E+00 0.  1.
         11    1    3    3    0    0 -0.30761930472E+02 -0.27289557953E+02 -0.21427708311E+01  0.41177758641E+02  0.51100000000E-03 0. -1.
        -11    1    3    3    0    0  0.36726006697E+01 -0.18566892130E+01 -0.79175685060E+01  0.89231822698E+01  0.51100000000E-03 0.  1.
        -12    1    3    3    0    0  0.26223826477E+02  0.28523147915E+02  0.95546289853E+01  0.39906766057E+02  0.00000000000E+00 0.  1.
</event>
<event>
 7    1  0.2497665E-015  0.9000780E+02  0.7816164E-02  0.1186339E+00
        -11   -1    0    0    0    0  0.00000000000E+00  0.00000000000E+00  0.45593999997E+02  0.45594000000E+02  0.51100000000E-03 0.  1.
         11   -1    0    0    0    0 -0.00000000000E+00 -0.00000000000E+00 -0.45593999997E+02  0.45594000000E+02  0.51100000000E-03 0. -1.
    9900012    2    1    2    0    0 -0.11599894337E+01 -0.17146709017E+00 -0.13379336478E+00  0.90007797850E+02  0.90000059982E+02 0.  0.
        -12    1    1    2    0    0  0.11599894337E+01  0.17146709017E+00  0.13379336478E+00  0.11802021495E+01  0.00000000000E+00 0.  1.
         11    1    3    3    0    0 -0.65487505775E+01  0.83122387588E+01  0.44681448369E+00  0.10591463107E+02  0.51100000000E-03 0. -1.
        -11    1    3    3    0    0 -0.27411268480E+01  0.75395509283E+01  0.36947628805E+02  0.37808542410E+02  0.51100000000E-03 0.  1.
         12    1    3    3    0    0  0.81298879918E+01 -0.16023256777E+02 -0.37528236654E+02  0.41607792333E+02  0.00000000000E+00 0. -1.
</event>
<event>
 7    1  0.2497665E-015  0.9000763E+02  0.7816164E-02  0.1186339E+00
        -11   -1    0    0    0    0  0.00000000000E+00  0.00000000000E+00  0.45593999997E+02  0.45594000000E+02  0.51100000000E-03 0.  1.
         11   -1    0    0    0    0 -0.00000000000E+00 -0.00000000000E+00 -0.45593999997E+02  0.45594000000E+02  0.51100000000E-03 0. -1.
    9900012    2    1    2    0    0  0.25017971461E+00  0.10948534620E+01 -0.36328526481E+00  0.90007631339E+02  0.89999891272E+02 0.  0.
        -12    1    1    2    0    0 -0.25017971461E+00 -0.10948534620E+01  0.36328526481E+00  0.11803686613E+01  0.00000000000E+00 0.  1.
         11    1    3    3    0    0  0.75431729790E+01 -0.13852691376E+02  0.19706243383E+01  0.15895907570E+02  0.51100000000E-03 0. -1.
        -11    1    3    3    0    0 -0.60705964510E+01 -0.84536816614E+01  0.31376099552E+02  0.33057170149E+02  0.51100000000E-03 0.  1.
         12    1    3    3    0    0 -0.12223968134E+01  0.23401226499E+02 -0.33710009155E+02  0.41054553619E+02  0.00000000000E+00 0. -1.
</event>
<event>
 7    1  0.2497665E-015  0.9000792E+02  0.7816164E-02  0.1186339E+00
        -11   -1    0    0    0    0  0.00000000000E+00  0.00000000000E+00  0.45593999997E+02  0.45594000000E+02  0.51100000000E-03 0.  1.
         11   -1    0    0    0    0 -0.00000000000E+00 -0.00000000000E+00 -0.45593999997E+02  0.45594000000E+02  0.51100000000E-03 0. -1.
    9900012    2    1    2    0    0 -0.56782942933E+00 -0.26198064297E+00 -0.10007631283E+01  0.90007919089E+02  0.90000182821E+02 0.  0.
        -12    1    1    2    0    0  0.56782942933E+00  0.26198064297E+00  0.10007631283E+01  0.11800809112E+01  0.00000000000E+00 0.  1.
         11    1    3    3    0    0  0.37757518766E+02  0.59928017145E+01  0.14375126690E+02  0.40843459249E+02  0.51100000000E-03 0. -1.
        -11    1    3    3    0    0 -0.36043742705E+01  0.78290927682E+01  0.11522927752E+00  0.86197149316E+01  0.51100000000E-03 0.  1.
        -12    1    3    3    0    0 -0.34720973925E+02 -0.14083875126E+02 -0.15491119096E+02  0.40544744909E+02  0.00000000000E+00 0.  1.
</event>
<event>
 7    1  0.2497665E-015  0.9000754E+02  0.7816164E-02  0.1186339E+00
        -11   -1    0    0    0    0  0.00000000000E+00  0.00000000000E+00  0.45593999997E+02  0.45594000000E+02  0.51100000000E-03 0. -1.
         11   -1    0    0    0    0 -0.00000000000E+00 -0.00000000000E+00 -0.45593999997E+02  0.45594000000E+02  0.51100000000E-03 0.  1.
    9900012    2    1    2    0    0  0.30914838265E+00  0.60641807200E+00  0.96444975679E+00  0.90007542913E+02  0.89999801679E+02 0.  0.
        -12    1    1    2    0    0 -0.30914838265E+00 -0.60641807200E+00 -0.96444975679E+00  0.11804570869E+01  0.00000000000E+00 0.  1.
         11    1    3    3    0    0 -0.31941445915E+02  0.24403079709E+01  0.23806916520E+02  0.39912157854E+02  0.51100000000E-03 0. -1.
        -11    1    3    3    0    0  0.65013427212E+01 -0.36162965544E-01  0.77189906456E+01  0.10092154467E+02  0.51100000000E-03 0.  1.
        -12    1    3    3    0    0  0.25749251576E+02 -0.17977269334E+01 -0.30561457409E+02  0.40003230592E+02  0.00000000000E+00 0.  1.
</event>
<event>
 7    1  0.2497665E-015  0.9000731E+02  0.7816164E-02  0.1186340E+00
        -11   -1    0    0    0    0  0.00000000000E+00  0.00000000000E+00  0.45593999997E+02  0.45594000000E+02  0.51100000000E-03 0. -1.
         11   -1    0    0    0    0 -0.00000000000E+00 -0.00000000000E+00 -0.45593999997E+02  0.45594000000E+02  0.51100000000E-03 0.  1.
    9900012    2    1    2    0    0 -0.46932155371E+00  0.73720331501E+00  0.79390682839E+00  0.90007313970E+02  0.89999569714E+02 0.  0.
        -12    1    1    2    0    0  0.46932155371E+00 -0.73720331501E+00 -0.79390682839E+00  0.11806860296E+01  0.00000000000E+00 0.  1.
         11    1    3    3    0    0 -0.62128287271E+01 -0.30344556175E+01  0.13320652088E+02  0.15008228876E+02  0.51100000000E-03 0. -1.
        -11    1    3    3    0    0 -0.21194107490E+02 -0.21880658302E+02 -0.20807845015E+02  0.36890646706E+02  0.51100000000E-03 0.  1.
         12    1    3    3    0    0  0.26937614663E+02  0.25652317234E+02  0.82810997554E+01  0.38108438388E+02  0.00000000000E+00 0. -1.
</event>
<event>
 7    1  0.2497665E-015  0.9000783E+02  0.7816164E-02  0.1186339E+00
        -11   -1    0    0    0    0  0.00000000000E+00  0.00000000000E+00  0.45593999997E+02  0.45594000000E+02  0.51100000000E-03 0.  1.
         11   -1    0    0    0    0 -0.00000000000E+00 -0.00000000000E+00 -0.45593999997E+02  0.45594000000E+02  0.51100000000E-03 0. -1.
    9900012    2    1    2    0    0 -0.24449536496E+00 -0.20078604401E+00 -0.11369748137E+01  0.90007828510E+02  0.90000091046E+02 0.  0.
        -12    1    1    2    0    0  0.24449536496E+00  0.20078604401E+00  0.11369748137E+01  0.11801714901E+01  0.00000000000E+00 0.  1.
         11    1    3    3    0    0  0.33129949193E+02 -0.81831627431E+01 -0.20343345583E+02  0.39729200795E+02  0.51100000000E-03 0. -1.
        -11    1    3    3    0    0  0.29378255801E+01  0.52715650052E+01 -0.38697441170E+01  0.71690401405E+01  0.51100000000E-03 0.  1.
        -12    1    3    3    0    0 -0.36312270138E+02  0.27108116938E+01  0.23076114887E+02  0.43109587575E+02  0.00000000000E+00 0.  1.
</event>
<event>
 7    1  0.2501950E-015  0.9000803E+02  0.7816164E-02  0.1186338E+00
        -11   -1    0    0    0    0  0.00000000000E+00  0.00000000000E+00  0.45593999997E+02  0.45594000000E+02  0.51100000000E-03 0. -1.
         11   -1    0    0    0    0 -0.00000000000E+00 -0.00000000000E+00 -0.45593999997E+02  0.45594000000E+02  0.51100000000E-03 0.  1.
    9900012    2    1    2    0    0 -0.85000256123E+00 -0.76749322387E+00  0.28422195160E+00  0.90008028678E+02  0.90000293856E+02 0.  0.
        -12    1    1    2    0    0  0.85000256123E+00  0.76749322387E+00 -0.28422195160E+00  0.11799713219E+01  0.00000000000E+00 0.  1.
         11    1    3    3    0    0  0.80346839694E+01  0.74108839545E+01  0.34447685714E+02  0.36140287752E+02  0.51100000000E-03 0. -1.
        -11    1    3    3    0    0  0.44751111491E+01  0.77879200069E+01  0.44316165043E+01  0.10015864562E+02  0.51100000000E-03 0.  1.
        -12    1    3    3    0    0 -0.13359797680E+02 -0.15966297185E+02 -0.38595080267E+02  0.43851876364E+02  0.00000000000E+00 0.  1.
</event>
<event>
 7    1  0.2497665E-015  0.9000806E+02  0.7816164E-02  0.1186338E+00
        -11   -1    0    0    0    0  0.00000000000E+00  0.00000000000E+00  0.45593999997E+02  0.45594000000E+02  0.51100000000E-03 0. -1.
         11   -1    0    0    0    0 -0.00000000000E+00 -0.00000000000E+00 -0.45593999997E+02  0.45594000000E+02  0.51100000000E-03 0.  1.
    9900012    2    1    2    0    0  0.10387607288E+01  0.87569691790E-01  0.55278590112E+00  0.90008057393E+02  0.90000322950E+02 0.  0.
        -12    1    1    2    0    0 -0.10387607288E+01 -0.87569691790E-01 -0.55278590112E+00  0.11799426067E+01  0.00000000000E+00 0.  1.
         11    1    3    3    0    0  0.37626986698E+01 -0.10120740830E+02 -0.95253044581E+01  0.14398566648E+02  0.51100000000E-03 0. -1.
        -11    1    3    3    0    0 -0.15372501622E+02  0.32525830791E+01 -0.29531555655E+02  0.33451545293E+02  0.51100000000E-03 0.  1.
         12    1    3    3    0    0  0.12648563681E+02  0.69557274424E+01  0.39609646014E+02  0.42157945453E+02  0.00000000000E+00 0. -1.
</event>
<event>
 7    1  0.2497665E-015  0.9000725E+02  0.7816164E-02  0.1186340E+00
        -11   -1    0    0    0    0  0.00000000000E+00  0.00000000000E+00  0.45593999997E+02  0.45594000000E+02  0.51100000000E-03 0.  1.
         11   -1    0    0    0    0 -0.00000000000E+00 -0.00000000000E+00 -0.45593999997E+02  0.45594000000E+02  0.51100000000E-03 0. -1.
    9900012    2    1    2    0    0  0.83219933864E+00  0.70372130964E+00  0.45430503337E+00  0.90007249186E+02  0.89999504074E+02 0.  0.
        -12    1    1    2    0    0 -0.83219933864E+00 -0.70372130964E+00 -0.45430503337E+00  0.11807508138E+01  0.00000000000E+00 0.  1.
         11    1    3    3    0    0  0.45096819178E+01  0.27261169678E+02 -0.25535120368E+02  0.37623808628E+02  0.51100000000E-03 0. -1.
        -11    1    3    3    0    0  0.76535133502E+01  0.24395592095E+01 -0.41591278822E+01  0.90457758506E+01  0.51100000000E-03 0.  1.
        -12    1    3    3    0    0 -0.11330995929E+02 -0.28997007578E+02  0.30148553283E+02  0.43337664708E+02  0.00000000000E+00 0.  1.
</event>
<event>
 7    1  0.2497665E-015  0.9000779E+02  0.7816164E-02  0.1186339E+00
        -11   -1    0    0    0    0  0.00000000000E+00  0.00000000000E+00  0.45593999997E+02  0.45594000000E+02  0.51100000000E-03 0.  1.
         11   -1    0    0    0    0 -0.00000000000E+00 -0.00000000000E+00 -0.45593999997E+02  0.45594000000E+02  0.51100000000E-03 0. -1.
    9900012    2    1    2    0    0 -0.50333196719E+00  0.24824848681E+00 -0.10382360983E+01  0.90007786216E+02  0.90000048194E+02 0.  0.
        -12    1    1    2    0    0  0.50333196719E+00 -0.24824848681E+00  0.10382360983E+01  0.11802137842E+01  0.00000000000E+00 0.  1.
         11    1    3    3    0    0  0.95158596597E+01  0.36144388978E+01 -0.72796885205E+01  0.12514376486E+02  0.51100000000E-03 0. -1.
        -11    1    3    3    0    0  0.24197372439E+01  0.25572461748E+02  0.28919629412E+02  0.38680109795E+02  0.51100000000E-03 0.  1.
         12    1    3    3    0    0 -0.12438928871E+02 -0.28938652159E+02 -0.22678176990E+02  0.38813299935E+02  0.00000000000E+00 0. -1.
</event>
<event>
 7    1  0.2497665E-015  0.9000756E+02  0.7816164E-02  0.1186339E+00
        -11   -1    0    0    0    0  0.00000000000E+00  0.00000000000E+00  0.45593999997E+02  0.45594000000E+02  0.51100000000E-03 0. -1.
         11   -1    0    0    0    0 -0.00000000000E+00 -0.00000000000E+00 -0.45593999997E+02  0.45594000000E+02  0.51100000000E-03 0.  1.
    9900012    2    1    2    0    0 -0.30428775321E+00 -0.66726538810E+00  0.92498375103E+00  0.90007564032E+02  0.89999823077E+02 0.  0.
        -12    1    1    2    0    0  0.30428775321E+00  0.66726538810E+00 -0.92498375103E+00  0.11804359680E+01  0.00000000000E+00 0.  1.
         11    1    3    3    0    0 -0.98583600052E+01  0.23333415573E+02  0.13341539307E+01  0.25365636425E+02  0.51100000000E-03 0.  1.
        -11    1    3    3    0    0 -0.24065124052E+02 -0.10047792156E+02  0.80107538459E+01  0.27281138178E+02  0.51100000000E-03 0. -1.
         12    1    3    3    0    0  0.33619196304E+02 -0.13952888805E+02 -0.84199240255E+01  0.37360789429E+02  0.00000000000E+00 0. -1.
</event>
<event>
 7    1  0.2497665E-015  0.9000775E+02  0.7816164E-02  0.1186339E+00
        -11   -1    0    0    0    0  0.00000000000E+00  0.00000000000E+00  0.45593999997E+02  0.45594000000E+02  0.51100000000E-03 0. -1.
         11   -1    0    0    0    0 -0.00000000000E+00 -0.00000000000E+00 -0.45593999997E+02  0.45594000000E+02  0.51100000000E-03 0.  1.
    9900012    2    1    2    0    0 -0.77489779208E+00 -0.22463639476E+00  0.86142414989E+00  0.90007754405E+02  0.90000015963E+02 0.  0.
        -12    1    1    2    0    0  0.77489779208E+00  0.22463639476E+00 -0.86142414989E+00  0.11802455948E+01  0.00000000000E+00 0.  1.
         11    1    3    3    0    0 -0.53257244390E+01 -0.33936311050E+01 -0.49564053689E+01  0.80278283065E+01  0.51100000000E-03 0. -1.
        -11    1    3    3    0    0  0.13647653594E+02 -0.36115752513E+02  0.13557642686E+02  0.40919624921E+02  0.51100000000E-03 0.  1.
         12    1    3    3    0    0 -0.90968269471E+01  0.39284747224E+02 -0.77398131673E+01  0.41060301178E+02  0.00000000000E+00 0. -1.
</event>
<event>
 7    1  0.2497665E-015  0.9000763E+02  0.7816164E-02  0.1186339E+00
        -11   -1    0    0    0    0  0.00000000000E+00  0.00000000000E+00  0.45593999997E+02  0.45594000000E+02  0.51100000000E-03 0. -1.
         11   -1    0    0    0    0 -0.00000000000E+00 -0.00000000000E+00 -0.45593999997E+02  0.45594000000E+02  0.51100000000E-03 0.  1.
    9900012    2    1    2    0    0 -0.37370286492E-01 -0.11708122164E+01 -0.14513433032E+00  0.90007634905E+02  0.89999894885E+02 0.  0.
        -12    1    1    2    0    0  0.37370286492E-01  0.11708122164E+01  0.14513433032E+00  0.11803650953E+01  0.00000000000E+00 0.  1.
         11    1    3    3    0    0 -0.26055763708E+01  0.56102601519E+01  0.33955523412E+02  0.34514368278E+02  0.51100000000E-03 0. -1.
        -11    1    3    3    0    0  0.22506558904E+01 -0.31685963069E+01  0.10266814154E+02  0.10977838021E+02  0.51100000000E-03 0.  1.
        -12    1    3    3    0    0  0.31755019391E+00 -0.36124760615E+01 -0.44367471896E+02  0.44515428605E+02  0.00000000000E+00 0.  1.
</event>
<event>
 7    1  0.2497665E-015  0.9000785E+02  0.7816164E-02  0.1186339E+00
        -11   -1    0    0    0    0  0.00000000000E+00  0.00000000000E+00  0.45593999997E+02  0.45594000000E+02  0.51100000000E-03 0. -1.
         11   -1    0    0    0    0 -0.00000000000E+00 -0.00000000000E+00 -0.45593999997E+02  0.45594000000E+02  0.51100000000E-03 0.  1.
    9900012    2    1    2    0    0 -0.42459355330E+00 -0.38722348704E+00  0.10307919706E+01  0.90007850094E+02  0.90000112915E+02 0.  0.
        -12    1    1    2    0    0  0.42459355330E+00  0.38722348704E+00 -0.10307919706E+01  0.11801499062E+01  0.00000000000E+00 0.  1.
         11    1    3    3    0    0 -0.11959935569E+01  0.33478820437E+02 -0.27037832607E+01  0.33609109816E+02  0.51100000000E-03 0. -1.
        -11    1    3    3    0    0 -0.14906995571E+02  0.28730702059E+01  0.61532192334E+01  0.16380938818E+02  0.51100000000E-03 0.  1.
        -12    1    3    3    0    0  0.15678395574E+02 -0.36739114130E+02 -0.24186440021E+01  0.40017801460E+02  0.00000000000E+00 0.  1.
</event>
<event>
 7    1  0.2497665E-015  0.9000786E+02  0.7816164E-02  0.1186339E+00
        -11   -1    0    0    0    0  0.00000000000E+00  0.00000000000E+00  0.45593999997E+02  0.45594000000E+02  0.51100000000E-03 0. -1.
         11   -1    0    0    0    0 -0.00000000000E+00 -0.00000000000E+00 -0.45593999997E+02  0.45594000000E+02  0.51100000000E-03 0.  1.
    9900012    2    1    2    0    0 -0.10333207097E+01  0.56848540323E+00 -0.42507305593E-01  0.90007858392E+02  0.90000121323E+02 0.  0.
        -12    1    1    2    0    0  0.10333207097E+01 -0.56848540323E+00  0.42507305593E-01  0.11801416075E+01  0.00000000000E+00 0.  1.
         11    1    3    3    0    0 -0.66005124247E+01 -0.55658349301E+01  0.44214713662E+01  0.97002418548E+01  0.51100000000E-03 0. -1.
        -11    1    3    3    0    0  0.30696647046E+02 -0.23223930307E+02  0.87360161409E+01  0.39470914064E+02  0.51100000000E-03 0.  1.
         12    1    3    3    0    0 -0.25129455331E+02  0.29358250640E+02 -0.13199994813E+02  0.40836702474E+02  0.00000000000E+00 0. -1.
</event>
<event>
 7    1  0.2497665E-015  0.9000780E+02  0.7816164E-02  0.1186339E+00
        -11   -1    0    0    0    0  0.00000000000E+00  0.00000000000E+00  0.45593999997E+02  0.45594000000E+02  0.51100000000E-03 0.  1.
         11   -1    0    0    0    0 -0.00000000000E+00 -0.00000000000E+00 -0.45593999997E+02  0.45594000000E+02  0.51100000000E-03 0. -1.
    9900012    2    1    2    0    0 -0.94252256570E+00 -0.37881967966E+00  0.60084128018E+00  0.90007803669E+02  0.90000065877E+02 0.  0.
        -12    1    1    2    0    0  0.94252256570E+00  0.37881967966E+00 -0.60084128018E+00  0.11801963313E+01  0.00000000000E+00 0.  1.
         11    1    3    3    0    0 -0.37132767010E+02  0.26474889143E+01 -0.44600941608E+01  0.37493253040E+02  0.51100000000E-03 0. -1.
        -11    1    3    3    0    0 -0.54065881358E+01  0.24003024395E+01 -0.67098661766E+01  0.89451076819E+01  0.51100000000E-03 0.  1.
        -12    1    3    3    0    0  0.41596832580E+02 -0.54266110335E+01  0.11770801618E+02  0.43569442947E+02  0.00000000000E+00 0.  1.
</event>
<event>
 7    1  0.2497665E-015  0.9000762E+02  0.7816164E-02  0.1186339E+00
        -11   -1    0    0    0    0  0.00000000000E+00  0.00000000000E+00  0.45593999997E+02  0.45594000000E+02  0.51100000000E-03 0. -1.
         11   -1    0    0    0    0 -0.00000000000E+00 -0.00000000000E+00 -0.45593999997E+02  0.45594000000E+02  0.51100000000E-03 0.  1.
    9900012    2    1    2    0    0 -0.79123195837E+00  0.66483637781E+00 -0.57030209731E+00  0.90007618747E+02  0.89999878514E+02 0.  0.
        -12    1    1    2    0    0  0.79123195837E+00 -0.66483637781E+00  0.57030209731E+00  0.11803812534E+01  0.00000000000E+00 0.  1.
         11    1    3    3    0    0  0.91762084668E+01 -0.31035627242E+00 -0.51350332353E-01  0.91815989871E+01  0.51100000000E-03 0. -1.
        -11    1    3    3    0    0  0.28946666839E+02 -0.10403004005E+02 -0.19121791548E+02  0.36218433507E+02  0.51100000000E-03 0.  1.
         12    1    3    3    0    0 -0.38914107264E+02  0.11378196655E+02  0.18602839783E+02  0.44607586253E+02  0.00000000000E+00 0. -1.
</event>
<event>
 7    1  0.2497665E-015  0.9000779E+02  0.7816164E-02  0.1186339E+00
        -11   -1    0    0    0    0  0.00000000000E+00  0.00000000000E+00  0.45593999997E+02  0.45594000000E+02  0.51100000000E-03 0.  1.
         11   -1    0    0    0    0 -0.00000000000E+00 -0.00000000000E+00 -0.45593999997E+02  0.45594000000E+02  0.51100000000E-03 0. -1.
    9900012    2    1    2    0    0 -0.22909858132E+00 -0.11226169829E+01 -0.28308907688E+00  0.90007790495E+02  0.90000052530E+02 0.  0.
        -12    1    1    2    0    0  0.22909858132E+00  0.11226169829E+01  0.28308907688E+00  0.11802095050E+01  0.00000000000E+00 0.  1.
         11    1    3    3    0    0 -0.67379430729E+01 -0.17292180193E+01  0.62205817926E+01  0.93319724555E+01  0.51100000000E-03 0. -1.
        -11    1    3    3    0    0  0.17351542005E+02 -0.35328900022E+02  0.84747359664E+01  0.40261996183E+02  0.51100000000E-03 0.  1.
         12    1    3    3    0    0 -0.10842697514E+02  0.35935501058E+02 -0.14978406836E+02  0.40413821856E+02  0.00000000000E+00 0. -1.
</event>
<event>
 7    1  0.2497665E-015  0.9000770E+02  0.7816164E-02  0.1186339E+00
        -11   -1    0    0    0    0  0.00000000000E+00  0.00000000000E+00  0.45593999997E+02  0.45594000000E+02  0.51100000000E-03 0.  1.
         11   -1    0    0    0    0 -0.00000000000E+00 -0.00000000000E+00 -0.45593999997E+02  0.45594000000E+02  0.51100000000E-03 0. -1.
    9900012    2    1    2    0    0 -0.23834320456E-01 -0.11466982007E+01 -0.27861184821E+00  0.90007699445E+02  0.89999960278E+02 0.  0.
        -12    1    1    2    0    0  0.23834320456E-01  0.11466982007E+01  0.27861184821E+00  0.11803005550E+01  0.00000000000E+00 0.  1.
         11    1    3    3    0    0  0.86324953979E+00 -0.40715109917E+02 -0.51957808793E+01  0.41054372660E+02  0.51100000000E-03 0. -1.
        -11    1    3    3    0    0 -0.84965780123E+01  0.79029549413E+01  0.10808422284E+02  0.15857822273E+02  0.51100000000E-03 0.  1.
        -12    1    3    3    0    0  0.76094941520E+01  0.31665456775E+02 -0.58912532530E+01  0.33095504512E+02  0.00000000000E+00 0.  1.
</event>
<event>
 7    1  0.2497665E-015  0.9000791E+02  0.7816164E-02  0.1186339E+00
        -11   -1    0    0    0    0  0.00000000000E+00  0.00000000000E+00  0.45593999997E+02  0.45594000000E+02  0.51100000000E-03 0.  1.
         11   -1    0    0    0    0 -0.00000000000E+00 -0.00000000000E+00 -0.45593999997E+02  0.45594000000E+02  0.51100000000E-03 0. -1.
    9900012    2    1    2    0    0 -0.37111234758E+00  0.74654715049E+00 -0.83520352545E+00  0.90007905957E+02  0.90000169515E+02 0.  0.
        -12    1    1    2    0    0  0.37111234758E+00 -0.74654715049E+00  0.83520352545E+00  0.11800940434E+01  0.00000000000E+00 0.  1.
         11    1    3    3    0    0  0.53282877514E+01  0.16010311508E+02  0.13552322057E+02  0.21642230900E+02  0.51100000000E-03 0. -1.
        -11    1    3    3    0    0  0.29358980574E+02 -0.10527542384E+02 -0.97989416623E+01  0.32692478446E+02  0.51100000000E-03 0.  1.
         12    1    3    3    0    0 -0.35058380673E+02 -0.47362219742E+01 -0.45885839200E+01  0.35673196610E+02  0.00000000000E+00 0. -1.
</event>
<event>
 7    1  0.2497665E-015  0.9000770E+02  0.7816164E-02  0.1186339E+00
        -11   -1    0    0    0    0  0.00000000000E+00  0.00000000000E+00  0.45593999997E+02  0.45594000000E+02  0.51100000000E-03 0.  1.
         11   -1    0    0    0    0 -0.00000000000E+00 -0.00000000000E+00 -0.45593999997E+02  0.45594000000E+02  0.51100000000E-03 0. -1.
    9900012    2    1    2    0    0  0.65710190811E+00 -0.97540721011E+00  0.99475434213E-01  0.90007704484E+02  0.89999965383E+02 0.  0.
        -12    1    1    2    0    0 -0.65710190811E+00  0.97540721011E+00 -0.99475434213E-01  0.11802955160E+01  0.00000000000E+00 0.  1.
         11    1    3    3    0    0 -0.32171117033E+02 -0.15239793306E+02  0.75598967471E+01  0.36392088567E+02  0.51100000000E-03 0. -1.
        -11    1    3    3    0    0 -0.99362022655E+00 -0.10795607855E+02  0.13284673829E+00  0.10842051404E+02  0.51100000000E-03 0.  1.
        -12    1    3    3    0    0  0.33821839167E+02  0.25059993952E+02 -0.75932680511E+01  0.42773564514E+02  0.00000000000E+00 0.  1.
</event>
<event>
 7    1  0.2497665E-015  0.9000773E+02  0.7816164E-02  0.1186339E+00
        -11   -1    0    0    0    0  0.00000000000E+00  0.00000000000E+00  0.45593999997E+02  0.45594000000E+02  0.51100000000E-03 0. -1.
         11   -1    0    0    0    0 -0.00000000000E+00 -0.00000000000E+00 -0.45593999997E+02  0.45594000000E+02  0.51100000000E-03 0.  1.
    9900012    2    1    2    0    0 -0.10282914437E+01  0.15024254775E+00  0.55952912962E+00  0.90007733520E+02  0.89999994803E+02 0.  0.
        -12    1    1    2    0    0  0.10282914437E+01 -0.15024254775E+00 -0.55952912962E+00  0.11802664798E+01  0.00000000000E+00 0.  1.
         11    1    3    3    0    0 -0.10533102225E+02 -0.30900448211E+02  0.12132097490E+02  0.34827743709E+02  0.51100000000E-03 0. -1.
        -11    1    3    3    0    0  0.11633512090E+02 -0.78660986515E+01  0.13755866453E+01  0.14110504967E+02  0.51100000000E-03 0.  1.
        -12    1    3    3    0    0 -0.21287013093E+01  0.38916789410E+02 -0.12948155006E+02  0.41069484844E+02  0.00000000000E+00 0.  1.
</event>
<event>
 7    1  0.2497665E-015  0.9000770E+02  0.7816164E-02  0.1186339E+00
        -11   -1    0    0    0    0  0.00000000000E+00  0.00000000000E+00  0.45593999997E+02  0.45594000000E+02  0.51100000000E-03 0.  1.
         11   -1    0    0    0    0 -0.00000000000E+00 -0.00000000000E+00 -0.45593999997E+02  0.45594000000E+02  0.51100000000E-03 0. -1.
    9900012    2    1    2    0    0 -0.64895803191E+00 -0.12848050726E+00 -0.97747007291E+00  0.90007702787E+02  0.89999963664E+02 0.  0.
        -12    1    1    2    0    0  0.64895803191E+00  0.12848050726E+00  0.97747007291E+00  0.11802972131E+01  0.00000000000E+00 0.  1.
         11    1    3    3    0    0 -0.81210840129E+00 -0.51475723629E+01  0.82378809638E+01  0.97478051028E+01  0.51100000000E-03 0. -1.
        -11    1    3    3    0    0 -0.13979448782E+02 -0.29664586227E+02  0.14575526238E+02  0.35886747271E+02  0.51100000000E-03 0.  1.
         12    1    3    3    0    0  0.14142599151E+02  0.34683678083E+02 -0.23790877275E+02  0.44373150414E+02  0.00000000000E+00 0. -1.
</event>
<event>
 7    1  0.2497665E-015  0.9000779E+02  0.7816164E-02  0.1186339E+00
        -11   -1    0    0    0    0  0.00000000000E+00  0.00000000000E+00  0.45593999997E+02  0.45594000000E+02  0.51100000000E-03 0.  1.
         11   -1    0    0    0    0 -0.00000000000E+00 -0.00000000000E+00 -0.45593999997E+02  0.45594000000E+02  0.51100000000E-03 0. -1.
    9900012    2    1    2    0    0 -0.81649191307E+00 -0.62136470239E+00 -0.58321812717E+00  0.90007789628E+02  0.90000051651E+02 0.  0.
        -12    1    1    2    0    0  0.81649191307E+00  0.62136470239E+00  0.58321812717E+00  0.11802103716E+01  0.00000000000E+00 0.  1.
         11    1    3    3    0    0  0.67730432863E+00 -0.78965759578E+01  0.37789919350E+01  0.87804005214E+01  0.51100000000E-03 0. -1.
        -11    1    3    3    0    0  0.30091685913E+00 -0.22820375566E+01  0.37844754959E+02  0.37914690089E+02  0.51100000000E-03 0.  1.
         12    1    3    3    0    0 -0.17947131008E+01  0.95572488120E+01 -0.42206965021E+02  0.43312699018E+02  0.00000000000E+00 0. -1.
</event>
<event>
 7    1  0.2497665E-015  0.9000820E+02  0.7816164E-02  0.1186338E+00
        -11   -1    0    0    0    0  0.00000000000E+00  0.00000000000E+00  0.45593999997E+02  0.45594000000E+02  0.51100000000E-03 0.  1.
         11   -1    0    0    0    0 -0.00000000000E+00 -0.00000000000E+00 -0.45593999997E+02  0.45594000000E+02  0.51100000000E-03 0. -1.
    9900012    2    1    2    0    0 -0.49360883767E+00  0.48435026668E+00 -0.95586646021E+00  0.90008201053E+02  0.90000468506E+02 0.  0.
        -12    1    1    2    0    0  0.49360883767E+00 -0.48435026668E+00  0.95586646021E+00  0.11797989469E+01  0.00000000000E+00 0.  1.
         11    1    3    3    0    0 -0.29747698731E+01 -0.13545165075E+02 -0.41104300825E+02  0.43380690396E+02  0.51100000000E-03 0. -1.
        -11    1    3    3    0    0  0.70631656989E+01  0.20820495106E+01  0.42171023959E+01  0.84857051995E+01  0.51100000000E-03 0.  1.
        -12    1    3    3    0    0 -0.45820046634E+01  0.11947465831E+02  0.35931331969E+02  0.38141805457E+02  0.00000000000E+00 0.  1.
</event>
<event>
 7    1  0.2497665E-015  0.9000771E+02  0.7816164E-02  0.1186339E+00
        -11   -1    0    0    0    0  0.00000000000E+00  0.00000000000E+00  0.45593999997E+02  0.45594000000E+02  0.51100000000E-03 0.  1.
         11   -1    0    0    0    0 -0.00000000000E+00 -0.00000000000E+00 -0.45593999997E+02  0.45594000000E+02  0.51100000000E-03 0. -1.
    9900012    2    1    2    0    0  0.26169787161E+00  0.11066386033E+01  0.31613024622E+00  0.90007714820E+02  0.89999975855E+02 0.  0.
        -12    1    1    2    0    0 -0.26169787161E+00 -0.11066386033E+01 -0.31613024622E+00  0.11802851803E+01  0.00000000000E+00 0.  1.
         11    1    3    3    0    0  0.31558118470E+02 -0.10215954828E+02 -0.13195474182E+02  0.35698755070E+02  0.51100000000E-03 0. -1.
        -11    1    3    3    0    0  0.39124780021E+01  0.35441968831E+01 -0.99685057560E+01  0.11280067506E+02  0.51100000000E-03 0.  1.
        -12    1    3    3    0    0 -0.35208898600E+02  0.77783965480E+01  0.23480110185E+02  0.43028892244E+02  0.00000000000E+00 0.  1.
</event>
<event>
 7    1  0.2497665E-015  0.9000771E+02  0.7816164E-02  0.1186339E+00
        -11   -1    0    0    0    0  0.00000000000E+00  0.00000000000E+00  0.45593999997E+02  0.45594000000E+02  0.51100000000E-03 0.  1.
         11   -1    0    0    0    0 -0.00000000000E+00 -0.00000000000E+00 -0.45593999997E+02  0.45594000000E+02  0.51100000000E-03 0. -1.
    9900012    2    1    2    0    0 -0.50403504014E+00  0.76466327620E+00  0.74452667684E+00  0.90007711383E+02  0.89999972373E+02 0.  0.
        -12    1    1    2    0    0  0.50403504014E+00 -0.76466327620E+00 -0.74452667684E+00  0.11802886173E+01  0.00000000000E+00 0.  1.
         11    1    3    3    0    0  0.83351002326E+01 -0.62093426677E+01  0.33643960150E+01  0.10924696475E+02  0.51100000000E-03 0. -1.
        -11    1    3    3    0    0  0.16747869409E+02 -0.11533689206E+02  0.28325714543E+02  0.34869230291E+02  0.51100000000E-03 0.  1.
         12    1    3    3    0    0 -0.25587004682E+02  0.18507695150E+02 -0.30945583882E+02  0.44213784617E+02  0.00000000000E+00 0. -1.
</event>
<event>
 7    1  0.2497665E-015  0.9000776E+02  0.7816164E-02  0.1186339E+00
        -11   -1    0    0    0    0  0.00000000000E+00  0.00000000000E+00  0.45593999997E+02  0.45594000000E+02  0.51100000000E-03 0.  1.
         11   -1    0    0    0    0 -0.00000000000E+00 -0.00000000000E+00 -0.45593999997E+02  0.45594000000E+02  0.51100000000E-03 0. -1.
    9900012    2    1    2    0    0  0.17534695290E+00 -0.66387111054E+00 -0.95994659047E+00  0.90007758981E+02  0.90000020600E+02 0.  0.
        -12    1    1    2    0    0 -0.17534695290E+00  0.66387111054E+00  0.95994659047E+00  0.11802410185E+01  0.00000000000E+00 0.  1.
         11    1    3    3    0    0  0.13476206766E+01 -0.90331280808E+01 -0.50033277837E+01  0.10413778065E+02  0.51100000000E-03 0. -1.
        -11    1    3    3    0    0 -0.20629429627E+02  0.24943612896E+01  0.36090498690E+02  0.41645159394E+02  0.51100000000E-03 0.  1.
         12    1    3    3    0    0  0.19457155904E+02  0.58748956807E+01 -0.32047117497E+02  0.37948821523E+02  0.00000000000E+00 0. -1.
</event>
<event>
 7    1  0.2497665E-015  0.9000733E+02  0.7816164E-02  0.1186340E+00
        -11   -1    0    0    0    0  0.00000000000E+00  0.00000000000E+00  0.45593999997E+02  0.45594000000E+02  0.51100000000E-03 0.  1.
         11   -1    0    0    0    0 -0.00000000000E+00 -0.00000000000E+00 -0.45593999997E+02  0.45594000000E+02  0.51100000000E-03 0. -1.
    9900012    2    1    2    0    0  0.31770936447E+00 -0.11105035653E+01 -0.24456655943E+00  0.90007334844E+02  0.89999590863E+02 0.  0.
        -12    1    1    2    0    0 -0.31770936447E+00  0.11105035653E+01  0.24456655943E+00  0.11806651561E+01  0.00000000000E+00 0.  1.
         11    1    3    3    0    0 -0.46801728338E+01  0.19866846731E+02 -0.12911448466E+02  0.24151627659E+02  0.51100000000E-03 0. -1.
        -11    1    3    3    0    0  0.26434712285E+02 -0.12855187666E+02 -0.12385903004E+02  0.31897655979E+02  0.51100000000E-03 0.  1.
         12    1    3    3    0    0 -0.21436830086E+02 -0.81221626303E+01  0.25052784911E+02  0.33958051206E+02  0.00000000000E+00 0. -1.
</event>
<event>
 7    1  0.2497665E-015  0.9000775E+02  0.7816164E-02  0.1186339E+00
        -11   -1    0    0    0    0  0.00000000000E+00  0.00000000000E+00  0.45593999997E+02  0.45594000000E+02  0.51100000000E-03 0.  1.
         11   -1    0    0    0    0 -0.00000000000E+00 -0.00000000000E+00 -0.45593999997E+02  0.45594000000E+02  0.51100000000E-03 0. -1.
    9900012    2    1    2    0    0 -0.82663766941E+00 -0.64703394779E+00  0.53946094479E+00  0.90007745419E+02  0.90000006858E+02 0.  0.
        -12    1    1    2    0    0  0.82663766941E+00  0.64703394779E+00 -0.53946094479E+00  0.11802545815E+01  0.00000000000E+00 0.  1.
         11    1    3    3    0    0  0.16864331114E+02  0.26183467745E+02  0.17212178300E+02  0.35584248329E+02  0.51100000000E-03 0. -1.
        -11    1    3    3    0    0  0.51881166863E+01  0.57958608403E+01 -0.12001320496E+02  0.14301756939E+02  0.51100000000E-03 0.  1.
        -12    1    3    3    0    0 -0.22879085469E+02 -0.32626362533E+02 -0.46713968590E+01  0.40121740150E+02  0.00000000000E+00 0.  1.
</event>
<event>
 7    1  0.2497665E-015  0.9000777E+02  0.7816164E-02  0.1186339E+00
        -11   -1    0    0    0    0  0.00000000000E+00  0.00000000000E+00  0.45593999997E+02  0.45594000000E+02  0.51100000000E-03 0. -1.
         11   -1    0    0    0    0 -0.00000000000E+00 -0.00000000000E+00 -0.45593999997E+02  0.45594000000E+02  0.51100000000E-03 0.  1.
    9900012    2    1    2    0    0 -0.77714159916E+00 -0.66670538194E+00  0.58693859143E+00  0.90007770344E+02  0.90000032112E+02 0.  0.
        -12    1    1    2    0    0  0.77714159916E+00  0.66670538194E+00 -0.58693859143E+00  0.11802296563E+01  0.00000000000E+00 0.  1.
         11    1    3    3    0    0  0.28284671329E+02 -0.26392230399E+02  0.14870862476E+02  0.41445325534E+02  0.51100000000E-03 0. -1.
        -11    1    3    3    0    0 -0.68343988356E+01 -0.45974935917E+01  0.28368060030E+00  0.82417491902E+01  0.51100000000E-03 0.  1.
        -12    1    3    3    0    0 -0.22227414093E+02  0.30323018609E+02 -0.14567604484E+02  0.40320695619E+02  0.00000000000E+00 0.  1.
</event>
<event>
 7    1  0.2497665E-015  0.9000770E+02  0.7816164E-02  0.1186339E+00
        -11   -1    0    0    0    0  0.00000000000E+00  0.00000000000E+00  0.45593999997E+02  0.45594000000E+02  0.51100000000E-03 0. -1.
         11   -1    0    0    0    0 -0.00000000000E+00 -0.00000000000E+00 -0.45593999997E+02  0.45594000000E+02  0.51100000000E-03 0.  1.
    9900012    2    1    2    0    0  0.43484605011E+00 -0.92406476879E+00  0.59170477577E+00  0.90007702865E+02  0.89999963743E+02 0.  0.
        -12    1    1    2    0    0 -0.43484605011E+00  0.92406476879E+00 -0.59170477577E+00  0.11802971346E+01  0.00000000000E+00 0.  1.
         11    1    3    3    0    0 -0.10716878502E+02 -0.20583685102E+02  0.24823313393E+02  0.33981413527E+02  0.51100000000E-03 0. -1.
        -11    1    3    3    0    0 -0.16217789836E+01 -0.67241480652E+01  0.92343666182E+01  0.11537671402E+02  0.51100000000E-03 0.  1.
        -12    1    3    3    0    0  0.12773503536E+02  0.26383768398E+02 -0.33465975235E+02  0.44488617937E+02  0.00000000000E+00 0.  1.
</event>
<event>
 7    1  0.2497665E-015  0.9000840E+02  0.7816164E-02  0.1186338E+00
        -11   -1    0    0    0    0  0.00000000000E+00  0.00000000000E+00  0.45593999997E+02  0.45594000000E+02  0.51100000000E-03 0.  1.
         11   -1    0    0    0    0 -0.00000000000E+00 -0.00000000000E+00 -0.45593999997E+02  0.45594000000E+02  0.51100000000E-03 0. -1.
    9900012    2    1    2    0    0  0.65139812791E+00 -0.14139826538E+00 -0.97321576792E+00  0.90008397558E+02  0.90000667603E+02 0.  0.
        -12    1    1    2    0    0 -0.65139812791E+00  0.14139826538E+00  0.97321576792E+00  0.11796024421E+01  0.00000000000E+00 0.  1.
         11    1    3    3    0    0  0.32237537249E+02 -0.19352522838E+02 -0.19084224171E+02  0.42166177922E+02  0.51100000000E-03 0. -1.
        -11    1    3    3    0    0 -0.70240460699E+01 -0.57420588558E+01  0.19537451673E+01  0.92803870358E+01  0.51100000000E-03 0.  1.
        -12    1    3    3    0    0 -0.24562093051E+02  0.24953183428E+02  0.16157263235E+02  0.38561832600E+02  0.00000000000E+00 0.  1.
</event>
<event>
 7    1  0.2497665E-015  0.9000771E+02  0.7816164E-02  0.1186339E+00
        -11   -1    0    0    0    0  0.00000000000E+00  0.00000000000E+00  0.45593999997E+02  0.45594000000E+02  0.51100000000E-03 0.  1.
         11   -1    0    0    0    0 -0.00000000000E+00 -0.00000000000E+00 -0.45593999997E+02  0.45594000000E+02  0.51100000000E-03 0. -1.
    9900012    2    1    2    0    0  0.35546631662E+00 -0.11168779289E+01  0.13900633586E+00  0.90007705388E+02  0.89999966299E+02 0.  0.
        -12    1    1    2    0    0 -0.35546631662E+00  0.11168779289E+01 -0.13900633586E+00  0.11802946122E+01  0.00000000000E+00 0.  1.
         11    1    3    3    0    0 -0.27512369524E+01 -0.42571345705E+00  0.88251785222E+01  0.92538809656E+01  0.51100000000E-03 0. -1.
        -11    1    3    3    0    0  0.13145446715E+02 -0.22369863322E+02  0.27233542843E+02  0.37614882831E+02  0.51100000000E-03 0.  1.
         12    1    3    3    0    0 -0.10038743446E+02  0.21678698850E+02 -0.35919715029E+02  0.43138941591E+02  0.00000000000E+00 0. -1.
</event>
<event>
 7    1  0.2497665E-015  0.9000773E+02  0.7816164E-02  0.1186339E+00
        -11   -1    0    0    0    0  0.00000000000E+00  0.00000000000E+00  0.45593999997E+02  0.45594000000E+02  0.51100000000E-03 0. -1.
         11   -1    0    0    0    0 -0.00000000000E+00 -0.00000000000E+00 -0.45593999997E+02  0.45594000000E+02  0.51100000000E-03 0.  1.
    9900012    2    1    2    0    0  0.75818233339E+00 -0.86719350019E+00 -0.25721896798E+00  0.90007734515E+02  0.89999995811E+02 0.  0.
        -12    1    1    2    0    0 -0.75818233339E+00  0.86719350019E+00  0.25721896798E+00  0.11802654849E+01  0.00000000000E+00 0.  1.
         11    1    3    3    0    0  0.95301627940E+01  0.10962063242E+01  0.18892377219E+01  0.97772639637E+01  0.51100000000E-03 0. -1.
        -11    1    3    3    0    0 -0.11763754096E+02  0.36837415528E+02 -0.11231285424E+02  0.40268137103E+02  0.51100000000E-03 0.  1.
         12    1    3    3    0    0  0.29917736350E+01 -0.38800815352E+02  0.90848287342E+01  0.39962333448E+02  0.00000000000E+00 0. -1.
</event>
<event>
 7    1  0.2497665E-015  0.9000774E+02  0.7816164E-02  0.1186339E+00
        -11   -1    0    0    0    0  0.00000000000E+00  0.00000000000E+00  0.45593999997E+02  0.45594000000E+02  0.51100000000E-03 0.  1.
         11   -1    0    0    0    0 -0.00000000000E+00 -0.00000000000E+00 -0.45593999997E+02  0.45594000000E+02  0.51100000000E-03 0. -1.
    9900012    2    1    2    0    0  0.66618152491E+00  0.12340251730E+00 -0.96643344168E+00  0.90007737486E+02  0.89999998821E+02 0.  0.
        -12    1    1    2    0    0 -0.66618152491E+00 -0.12340251730E+00  0.96643344168E+00  0.11802625143E+01  0.00000000000E+00 0.  1.
         11    1    3    3    0    0 -0.41595442453E+00 -0.30085777448E+02 -0.16905922038E+02  0.34512855909E+02  0.51100000000E-03 0. -1.
        -11    1    3    3    0    0  0.14149105698E+01 -0.71898740304E+01 -0.81872390265E+01  0.10987590438E+02  0.51100000000E-03 0.  1.
        -12    1    3    3    0    0 -0.33277462038E+00  0.37399053996E+02  0.24126727623E+02  0.44507291139E+02  0.00000000000E+00 0.  1.
</event>
<event>
 7    1  0.2497665E-015  0.9000776E+02  0.7816164E-02  0.1186339E+00
        -11   -1    0    0    0    0  0.00000000000E+00  0.00000000000E+00  0.45593999997E+02  0.45594000000E+02  0.51100000000E-03 0.  1.
         11   -1    0    0    0    0 -0.00000000000E+00 -0.00000000000E+00 -0.45593999997E+02  0.45594000000E+02  0.51100000000E-03 0. -1.
    9900012    2    1    2    0    0  0.42295347370E+00 -0.91771733135E+00 -0.60981232218E+00  0.90007760275E+02  0.90000021910E+02 0.  0.
        -12    1    1    2    0    0 -0.42295347370E+00  0.91771733135E+00  0.60981232218E+00  0.11802397254E+01  0.00000000000E+00 0.  1.
         11    1    3    3    0    0  0.19245284606E+01 -0.19481904901E+02  0.97431627883E+01  0.21867273487E+02  0.51100000000E-03 0. -1.
        -11    1    3    3    0    0  0.93019860880E+01 -0.10278646491E+02  0.20368440009E+02  0.24638402292E+02  0.51100000000E-03 0.  1.
         12    1    3    3    0    0 -0.10803561075E+02  0.28842834060E+02 -0.30721415119E+02  0.43502084496E+02  0.00000000000E+00 0. -1.
</event>
<event>
 7    1  0.2497665E-015  0.9000842E+02  0.7816164E-02  0.1186338E+00
        -11   -1    0    0    0    0  0.00000000000E+00  0.00000000000E+00  0.45593999997E+02  0.45594000000E+02  0.51100000000E-03 0.  1.
         11   -1    0    0    0    0 -0.00000000000E+00 -0.00000000000E+00 -0.45593999997E+02  0.45594000000E+02  0.51100000000E-03 0. -1.
    9900012    2    1    2    0    0  0.69084174788E+00  0.33141565591E+00 -0.89683410812E+00  0.90008419534E+02  0.90000689870E+02 0.  0.
        -12    1    1    2    0    0 -0.69084174788E+00 -0.33141565591E+00  0.89683410812E+00  0.11795804657E+01  0.00000000000E+00 0.  1.
         11    1    3    3    0    0 -0.36866206119E+02 -0.57329461627E+00 -0.98318474803E+01  0.38159023119E+02  0.51100000000E-03 0. -1.
        -11    1    3    3    0    0 -0.38392220252E+01 -0.66615667671E+01  0.58372480285E+01  0.96534741083E+01  0.51100000000E-03 0.  1.
        -12    1    3    3    0    0  0.41396269892E+02  0.75662770393E+01  0.30977653437E+01  0.42195922307E+02  0.00000000000E+00 0.  1.
</event>
<event>
 7    1  0.2497665E-015  0.9000776E+02  0.7816164E-02  0.1186339E+00
        -11   -1    0    0    0    0  0.00000000000E+00  0.00000000000E+00  0.45593999997E+02  0.45594000000E+02  0.51100000000E-03 0.  1.
         11   -1    0    0    0    0 -0.00000000000E+00 -0.00000000000E+00 -0.45593999997E+02  0.45594000000E+02  0.51100000000E-03 0. -1.
    9900012    2    1    2    0    0 -0.32373180377E+00  0.47290465337E+00 -0.10317605398E+01  0.90007758117E+02  0.90000019724E+02 0.  0.
        -12    1    1    2    0    0  0.32373180377E+00 -0.47290465337E+00  0.10317605398E+01  0.11802418835E+01  0.00000000000E+00 0.  1.
         11    1    3    3    0    0 -0.35641595232E+02  0.14427925284E+02  0.71140128379E+01  0.39103676522E+02  0.51100000000E-03 0. -1.
        -11    1    3    3    0    0 -0.49552277890E+01  0.22988995856E+01 -0.49258538764E+01  0.73554917184E+01  0.51100000000E-03 0.  1.
        -12    1    3    3    0    0  0.40273091217E+02 -0.16253920216E+02 -0.32199195013E+01  0.43548589876E+02  0.00000000000E+00 0.  1.
</event>
<event>
 7    1  0.2497665E-015  0.9000767E+02  0.7816164E-02  0.1186339E+00
        -11   -1    0    0    0    0  0.00000000000E+00  0.00000000000E+00  0.45593999997E+02  0.45594000000E+02  0.51100000000E-03 0. -1.
         11   -1    0    0    0    0 -0.00000000000E+00 -0.00000000000E+00 -0.45593999997E+02  0.45594000000E+02  0.51100000000E-03 0.  1.
    9900012    2    1    2    0    0 -0.63019672269E+00  0.90649435754E+00 -0.41750462131E+00  0.90007665285E+02  0.89999925667E+02 0.  0.
        -12    1    1    2    0    0  0.63019672269E+00 -0.90649435754E+00  0.41750462131E+00  0.11803347145E+01  0.00000000000E+00 0.  1.
         11    1    3    3    0    0 -0.26801032350E+02  0.13902958026E+02  0.87069994157E+01  0.31422912277E+02  0.51100000000E-03 0. -1.
        -11    1    3    3    0    0 -0.55576183181E+01 -0.17410707118E+02  0.10440868692E+02  0.21048315444E+02  0.51100000000E-03 0.  1.
        -12    1    3    3    0    0  0.31728453945E+02  0.44142434501E+01 -0.19565372729E+02  0.37536437564E+02  0.00000000000E+00 0.  1.
</event>
<event>
 7    1  0.2497665E-015  0.9000775E+02  0.7816164E-02  0.1186339E+00
        -11   -1    0    0    0    0  0.00000000000E+00  0.00000000000E+00  0.45593999997E+02  0.45594000000E+02  0.51100000000E-03 0. -1.
         11   -1    0    0    0    0 -0.00000000000E+00 -0.00000000000E+00 -0.45593999997E+02  0.45594000000E+02  0.51100000000E-03 0.  1.
    9900012    2    1    2    0    0 -0.49281153927E+00 -0.10260981795E+01  0.31184715472E+00  0.90007750308E+02  0.90000011812E+02 0.  0.
        -12    1    1    2    0    0  0.49281153927E+00  0.10260981795E+01 -0.31184715472E+00  0.11802496918E+01  0.00000000000E+00 0.  1.
         11    1    3    3    0    0 -0.14137868481E+02  0.10824999941E+02  0.31037720128E+02  0.35782677651E+02  0.51100000000E-03 0. -1.
        -11    1    3    3    0    0 -0.25161035819E+01  0.79355340180E+01  0.54407205432E+01  0.99450951567E+01  0.51100000000E-03 0.  1.
        -12    1    3    3    0    0  0.16161160523E+02 -0.19786632139E+02 -0.36166593516E+02  0.44279977500E+02  0.00000000000E+00 0.  1.
</event>
<event>
 7    1  0.2497665E-015  0.9000774E+02  0.7816164E-02  0.1186339E+00
        -11   -1    0    0    0    0  0.00000000000E+00  0.00000000000E+00  0.45593999997E+02  0.45594000000E+02  0.51100000000E-03 0.  1.
         11   -1    0    0    0    0 -0.00000000000E+00 -0.00000000000E+00 -0.45593999997E+02  0.45594000000E+02  0.51100000000E-03 0. -1.
    9900012    2    1    2    0    0  0.55404519453E+00 -0.10303753586E+01  0.15615707273E+00  0.90007735416E+02  0.89999996723E+02 0.  0.
        -12    1    1    2    0    0 -0.55404519453E+00  0.10303753586E+01 -0.15615707273E+00  0.11802645841E+01  0.00000000000E+00 0.  1.
         11    1    3    3    0    0 -0.18044711498E+02  0.19598530721E+02  0.18655760531E+02  0.32523090578E+02  0.51100000000E-03 0. -1.
        -11    1    3    3    0    0 -0.28801686125E+01 -0.28617127143E+02 -0.12267900666E+01  0.28787850758E+02  0.51100000000E-03 0.  1.
        -12    1    3    3    0    0  0.21478925305E+02  0.79882210631E+01 -0.17272813391E+02  0.28696794080E+02  0.00000000000E+00 0.  1.
</event>
<event>
 7    1  0.2497665E-015  0.9000754E+02  0.7816164E-02  0.1186339E+00
        -11   -1    0    0    0    0  0.00000000000E+00  0.00000000000E+00  0.45593999997E+02  0.45594000000E+02  0.51100000000E-03 0. -1.
         11   -1    0    0    0    0 -0.00000000000E+00 -0.00000000000E+00 -0.45593999997E+02  0.45594000000E+02  0.51100000000E-03 0.  1.
    9900012    2    1    2    0    0  0.79057085130E+00 -0.82377674628E+00 -0.29980965249E+00  0.90007535589E+02  0.89999794258E+02 0.  0.
        -12    1    1    2    0    0 -0.79057085130E+00  0.82377674628E+00  0.29980965249E+00  0.11804644113E+01  0.00000000000E+00 0.  1.
         11    1    3    3    0    0 -0.17938188733E+02 -0.25803450850E+02  0.96839261248E+01  0.32884268522E+02  0.51100000000E-03 0. -1.
        -11    1    3    3    0    0 -0.13308934381E+02 -0.22002398276E+01  0.14880840741E+01  0.13571410543E+02  0.51100000000E-03 0.  1.
        -12    1    3    3    0    0  0.32037693965E+02  0.27179913931E+02 -0.11471819851E+02  0.43551856523E+02  0.00000000000E+00 0.  1.
</event>
<event>
 7    1  0.2497665E-015  0.9000758E+02  0.7816164E-02  0.1186339E+00
        -11   -1    0    0    0    0  0.00000000000E+00  0.00000000000E+00  0.45593999997E+02  0.45594000000E+02  0.51100000000E-03 0.  1.
         11   -1    0    0    0    0 -0.00000000000E+00 -0.00000000000E+00 -0.45593999997E+02  0.45594000000E+02  0.51100000000E-03 0. -1.
    9900012    2    1    2    0    0  0.87272728025E+00 -0.12183488617E+00 -0.78543003217E+00  0.90007577626E+02  0.89999836851E+02 0.  0.
        -12    1    1    2    0    0 -0.87272728025E+00  0.12183488617E+00  0.78543003217E+00  0.11804223738E+01  0.00000000000E+00 0.  1.
         11    1    3    3    0    0 -0.48790537115E+01  0.68491878004E+01 -0.74363748778E+01  0.11225694198E+02  0.51100000000E-03 0. -1.
        -11    1    3    3    0    0 -0.59508103974E+01  0.33704490325E+02 -0.56863771574E+01  0.34694952052E+02  0.51100000000E-03 0.  1.
         12    1    3    3    0    0  0.11702591389E+02 -0.40675513011E+02  0.12337322003E+02  0.44086931376E+02  0.00000000000E+00 0. -1.
</event>
<event>
 7    1  0.2497665E-015  0.9000775E+02  0.7816164E-02  0.1186339E+00
        -11   -1    0    0    0    0  0.00000000000E+00  0.00000000000E+00  0.45593999997E+02  0.45594000000E+02  0.51100000000E-03 0.  1.
         11   -1    0    0    0    0 -0.00000000000E+00 -0.00000000000E+00 -0.45593999997E+02  0.45594000000E+02  0.51100000000E-03 0. -1.
    9900012    2    1    2    0    0  0.44027612151E+00  0.98746604014E+00  0.47335951328E+00  0.90007745166E+02  0.90000006603E+02 0.  0.
        -12    1    1    2    0    0 -0.44027612151E+00 -0.98746604014E+00 -0.47335951328E+00  0.11802548337E+01  0.00000000000E+00 0.  1.
         11    1    3    3    0    0  0.78484895772E+01 -0.23661938177E+01  0.51959403835E+01  0.97054344857E+01  0.51100000000E-03 0. -1.
        -11    1    3    3    0    0 -0.11960354625E+02  0.58415309118E+01  0.36449934195E+02  0.38804268698E+02  0.51100000000E-03 0.  1.
         12    1    3    3    0    0  0.45521411698E+01 -0.24878710539E+01 -0.41172515065E+02  0.41498041982E+02  0.00000000000E+00 0. -1.
</event>
<event>
 7    1  0.2497665E-015  0.9000776E+02  0.7816164E-02  0.1186339E+00
        -11   -1    0    0    0    0  0.00000000000E+00  0.00000000000E+00  0.45593999997E+02  0.45594000000E+02  0.51100000000E-03 0. -1.
         11   -1    0    0    0    0 -0.00000000000E+00 -0.00000000000E+00 -0.45593999997E+02  0.45594000000E+02  0.51100000000E-03 0.  1.
    9900012    2    1    2    0    0 -0.99897068000E+00  0.40411695751E+00  0.48137337028E+00  0.90007757120E+02  0.90000018714E+02 0.  0.
        -12    1    1    2    0    0  0.99897068000E+00 -0.40411695751E+00 -0.48137337028E+00  0.11802428803E+01  0.00000000000E+00 0.  1.
         11    1    3    3    0    0  0.85339896279E+01 -0.27191133969E+02  0.20688042806E+02  0.35216215880E+02  0.51100000000E-03 0. -1.
        -11    1    3    3    0    0 -0.12067177718E+01 -0.65019900321E+00  0.11464290459E+02  0.11545946584E+02  0.51100000000E-03 0.  1.
        -12    1    3    3    0    0 -0.83262425361E+01  0.28245449929E+02 -0.31670959895E+02  0.43245594656E+02  0.00000000000E+00 0.  1.
</event>
<event>
 7    1  0.2497665E-015  0.9000725E+02  0.7816164E-02  0.1186340E+00
        -11   -1    0    0    0    0  0.00000000000E+00  0.00000000000E+00  0.45593999997E+02  0.45594000000E+02  0.51100000000E-03 0.  1.
         11   -1    0    0    0    0 -0.00000000000E+00 -0.00000000000E+00 -0.45593999997E+02  0.45594000000E+02  0.51100000000E-03 0. -1.
    9900012    2    1    2    0    0  0.63344412391E+00 -0.53484838129E+00 -0.84074443745E+00  0.90007252161E+02  0.89999507089E+02 0.  0.
        -12    1    1    2    0    0 -0.63344412391E+00  0.53484838129E+00  0.84074443745E+00  0.11807478385E+01  0.00000000000E+00 0.  1.
         11    1    3    3    0    0  0.36972172257E+02 -0.24851735637E+01 -0.92130479404E+01  0.38183738183E+02  0.51100000000E-03 0. -1.
        -11    1    3    3    0    0  0.32273791197E+01 -0.46005829494E+01 -0.69090966047E+01  0.89060067151E+01  0.51100000000E-03 0.  1.
        -12    1    3    3    0    0 -0.39566107252E+02  0.65509081318E+01  0.15281400108E+02  0.42917507263E+02  0.00000000000E+00 0.  1.
</event>
<event>
 7    1  0.2497665E-015  0.9000770E+02  0.7816164E-02  0.1186339E+00
        -11   -1    0    0    0    0  0.00000000000E+00  0.00000000000E+00  0.45593999997E+02  0.45594000000E+02  0.51100000000E-03 0. -1.
         11   -1    0    0    0    0 -0.00000000000E+00 -0.00000000000E+00 -0.45593999997E+02  0.45594000000E+02  0.51100000000E-03 0.  1.
    9900012    2    1    2    0    0  0.29965896393E+00 -0.10819371128E+01 -0.36431402212E+00  0.90007699988E+02  0.89999960828E+02 0.  0.
        -12    1    1    2    0    0 -0.29965896393E+00  0.10819371128E+01  0.36431402212E+00  0.11803000116E+01  0.00000000000E+00 0.  1.
         11    1    3    3    0    0 -0.32824500582E+02 -0.59969453924E+01 -0.16457440783E+02  0.37205625245E+02  0.51100000000E-03 0. -1.
        -11    1    3    3    0    0  0.24362610355E+01 -0.10376006147E+02 -0.57880336641E+01  0.12128404898E+02  0.51100000000E-03 0.  1.
        -12    1    3    3    0    0  0.30687898510E+02  0.15291014427E+02  0.21881160425E+02  0.40673669846E+02  0.00000000000E+00 0.  1.
</event>
<event>
 7    1  0.2497665E-015  0.9000704E+02  0.7816164E-02  0.1186340E+00
        -11   -1    0    0    0    0  0.00000000000E+00  0.00000000000E+00  0.45593999997E+02  0.45594000000E+02  0.51100000000E-03 0.  1.
         11   -1    0    0    0    0 -0.00000000000E+00 -0.00000000000E+00 -0.45593999997E+02  0.45594000000E+02  0.51100000000E-03 0. -1.
    9900012    2    1    2    0    0  0.37450740659E+00  0.10498951839E+01  0.39003249702E+00  0.90007042319E+02  0.89999294475E+02 0.  0.
        -12    1    1    2    0    0 -0.37450740659E+00 -0.10498951839E+01 -0.39003249702E+00  0.11809576806E+01  0.00000000000E+00 0.  1.
         11    1    3    3    0    0  0.11231276213E+02 -0.14378167056E+02  0.70412220561E+01  0.19556381607E+02  0.51100000000E-03 0. -1.
        -11    1    3    3    0    0  0.30132121472E+01  0.15693815260E+02  0.28492529229E+02  0.32668019637E+02  0.51100000000E-03 0.  1.
         12    1    3    3    0    0 -0.13869980953E+02 -0.26575301968E+00 -0.35143718789E+02  0.37782641075E+02  0.00000000000E+00 0. -1.
</event>
<event>
 7    1  0.2497665E-015  0.9000777E+02  0.7816164E-02  0.1186339E+00
        -11   -1    0    0    0    0  0.00000000000E+00  0.00000000000E+00  0.45593999997E+02  0.45594000000E+02  0.51100000000E-03 0. -1.
         11   -1    0    0    0    0 -0.00000000000E+00 -0.00000000000E+00 -0.45593999997E+02  0.45594000000E+02  0.51100000000E-03 0.  1.
    9900012    2    1    2    0    0  0.10523181609E+01 -0.49790305891E+00  0.19407906544E+00  0.90007767967E+02  0.90000029704E+02 0.  0.
        -12    1    1    2    0    0 -0.10523181609E+01  0.49790305891E+00 -0.19407906544E+00  0.11802320329E+01  0.00000000000E+00 0.  1.
         11    1    3    3    0    0 -0.15129251625E+02 -0.23816000713E+02  0.28746923621E+02  0.40280041740E+02  0.51100000000E-03 0. -1.
        -11    1    3    3    0    0 -0.56586060070E+01 -0.22741731678E+01 -0.87399356294E+00  0.61608076215E+01  0.51100000000E-03 0.  1.
        -12    1    3    3    0    0  0.21840175793E+02  0.25592270821E+02 -0.27678850993E+02  0.43566918605E+02  0.00000000000E+00 0.  1.
</event>
<event>
 7    1  0.2497665E-015  0.9000749E+02  0.7816164E-02  0.1186340E+00
        -11   -1    0    0    0    0  0.00000000000E+00  0.00000000000E+00  0.45593999997E+02  0.45594000000E+02  0.51100000000E-03 0.  1.
         11   -1    0    0    0    0 -0.00000000000E+00 -0.00000000000E+00 -0.45593999997E+02  0.45594000000E+02  0.51100000000E-03 0. -1.
    9900012    2    1    2    0    0 -0.10838412445E+00 -0.39281773680E+00 -0.11079510355E+01  0.90007488081E+02  0.89999746124E+02 0.  0.
        -12    1    1    2    0    0  0.10838412445E+00  0.39281773680E+00  0.11079510355E+01  0.11805119185E+01  0.00000000000E+00 0.  1.
         11    1    3    3    0    0 -0.31548797762E+02  0.16190501230E+02 -0.10079122224E+02  0.36865263804E+02  0.51100000000E-03 0. -1.
        -11    1    3    3    0    0 -0.89975762422E+01 -0.10776196743E+01  0.19213268240E+01  0.92633222670E+01  0.51100000000E-03 0.  1.
        -12    1    3    3    0    0  0.40437989880E+02 -0.15505699293E+02  0.70498443642E+01  0.43878902010E+02  0.00000000000E+00 0.  1.
</event>
<event>
 7    1  0.2497665E-015  0.9000764E+02  0.7816164E-02  0.1186339E+00
        -11   -1    0    0    0    0  0.00000000000E+00  0.00000000000E+00  0.45593999997E+02  0.45594000000E+02  0.51100000000E-03 0. -1.
         11   -1    0    0    0    0 -0.00000000000E+00 -0.00000000000E+00 -0.45593999997E+02  0.45594000000E+02  0.51100000000E-03 0.  1.
    9900012    2    1    2    0    0  0.76235091502E+00  0.61293301751E+00  0.66059007238E+00  0.90007641984E+02  0.89999902058E+02 0.  0.
        -12    1    1    2    0    0 -0.76235091502E+00 -0.61293301751E+00 -0.66059007238E+00  0.11803580157E+01  0.00000000000E+00 0.  1.
         11    1    3    3    0    0 -0.61534124630E+01 -0.43782692778E+01  0.56956317505E+01  0.94590669787E+01  0.51100000000E-03 0. -1.
        -11    1    3    3    0    0  0.11010862550E+02  0.36650443982E+02  0.16881040636E+02  0.41826590482E+02  0.51100000000E-03 0.  1.
         12    1    3    3    0    0 -0.40950991721E+01 -0.31659241687E+02 -0.21916082314E+02  0.38721984523E+02  0.00000000000E+00 0. -1.
</event>
<event>
 7    1  0.2497665E-015  0.9000771E+02  0.7816164E-02  0.1186339E+00
        -11   -1    0    0    0    0  0.00000000000E+00  0.00000000000E+00  0.45593999997E+02  0.45594000000E+02  0.51100000000E-03 0. -1.
         11   -1    0    0    0    0 -0.00000000000E+00 -0.00000000000E+00 -0.45593999997E+02  0.45594000000E+02  0.51100000000E-03 0.  1.
    9900012    2    1    2    0    0  0.51309941565E+00 -0.90048109362E+00  0.56475376836E+00  0.90007710193E+02  0.89999971167E+02 0.  0.
        -12    1    1    2    0    0 -0.51309941565E+00  0.90048109362E+00 -0.56475376836E+00  0.11802898073E+01  0.00000000000E+00 0.  1.
         11    1    3    3    0    0  0.91645738454E+01  0.35566472983E+02  0.14136158499E+02  0.39354725150E+02  0.51100000000E-03 0. -1.
        -11    1    3    3    0    0  0.14050127570E+01 -0.50027135735E+01  0.91765436127E+01  0.10545622641E+02  0.51100000000E-03 0.  1.
        -12    1    3    3    0    0 -0.10056487187E+02 -0.31464240503E+02 -0.22747948344E+02  0.40107362402E+02  0.00000000000E+00 0.  1.
</event>
<event>
 7    1  0.2497665E-015  0.9000776E+02  0.7816164E-02  0.1186339E+00
        -11   -1    0    0    0    0  0.00000000000E+00  0.00000000000E+00  0.45593999997E+02  0.45594000000E+02  0.51100000000E-03 0. -1.
         11   -1    0    0    0    0 -0.00000000000E+00 -0.00000000000E+00 -0.45593999997E+02  0.45594000000E+02  0.51100000000E-03 0.  1.
    9900012    2    1    2    0    0 -0.83043403523E+00 -0.83716666251E+00  0.50069394686E-01  0.90007756105E+02  0.90000017685E+02 0.  0.
        -12    1    1    2    0    0  0.83043403523E+00  0.83716666251E+00 -0.50069394686E-01  0.11802438951E+01  0.00000000000E+00 0.  1.
         11    1    3    3    0    0  0.46217637517E+01  0.14481179127E+02  0.37979960237E+01  0.15668121238E+02  0.51100000000E-03 0. -1.
        -11    1    3    3    0    0 -0.80179893871E+00  0.15373951727E+02 -0.29977437145E+02  0.33699377016E+02  0.51100000000E-03 0.  1.
         12    1    3    3    0    0 -0.46503988482E+01 -0.30692297516E+02  0.26229510516E+02  0.40640257851E+02  0.00000000000E+00 0. -1.
</event>
<event>
 7    1  0.2497665E-015  0.9000781E+02  0.7816164E-02  0.1186339E+00
        -11   -1    0    0    0    0  0.00000000000E+00  0.00000000000E+00  0.45593999997E+02  0.45594000000E+02  0.51100000000E-03 0. -1.
         11   -1    0    0    0    0 -0.00000000000E+00 -0.00000000000E+00 -0.45593999997E+02  0.45594000000E+02  0.51100000000E-03 0.  1.
    9900012    2    1    2    0    0 -0.77218781145E+00  0.68121955142E+00  0.57663555014E+00  0.90007812451E+02  0.90000074775E+02 0.  0.
        -12    1    1    2    0    0  0.77218781145E+00 -0.68121955142E+00 -0.57663555014E+00  0.11801875491E+01  0.00000000000E+00 0.  1.
         11    1    3    3    0    0  0.44583300302E+01 -0.82884769020E+01  0.28510963672E+01  0.98338347947E+01  0.51100000000E-03 0. -1.
        -11    1    3    3    0    0  0.23606321792E+02 -0.25356924452E+02  0.41202731124E+01  0.34888518126E+02  0.51100000000E-03 0.  1.
         12    1    3    3    0    0 -0.28836839634E+02  0.34326620906E+02 -0.63947339295E+01  0.45285459530E+02  0.00000000000E+00 0. -1.
</event>
<event>
 7    1  0.2497665E-015  0.9000792E+02  0.7816164E-02  0.1186339E+00
        -11   -1    0    0    0    0  0.00000000000E+00  0.00000000000E+00  0.45593999997E+02  0.45594000000E+02  0.51100000000E-03 0.  1.
         11   -1    0    0    0    0 -0.00000000000E+00 -0.00000000000E+00 -0.45593999997E+02  0.45594000000E+02  0.51100000000E-03 0. -1.
    9900012    2    1    2    0    0 -0.26770512361E+00  0.10356397693E+01 -0.49838072876E+00  0.90007915632E+02  0.90000179318E+02 0.  0.
        -12    1    1    2    0    0  0.26770512361E+00 -0.10356397693E+01  0.49838072876E+00  0.11800843681E+01  0.00000000000E+00 0.  1.
         11    1    3    3    0    0  0.68520431316E+01 -0.34804182044E+02  0.24053092595E+01  0.35553721264E+02  0.51100000000E-03 0. -1.
        -11    1    3    3    0    0 -0.10969658040E+02 -0.49584651238E+01 -0.58194170997E+01  0.13371065386E+02  0.51100000000E-03 0.  1.
        -12    1    3    3    0    0  0.38499097852E+01  0.40798286937E+02  0.29157271115E+01  0.41083128982E+02  0.00000000000E+00 0.  1.
</event>
<event>
 7    1  0.2497665E-015  0.9000776E+02  0.7816164E-02  0.1186339E+00
        -11   -1    0    0    0    0  0.00000000000E+00  0.00000000000E+00  0.45593999997E+02  0.45594000000E+02  0.51100000000E-03 0.  1.
         11   -1    0    0    0    0 -0.00000000000E+00 -0.00000000000E+00 -0.45593999997E+02  0.45594000000E+02  0.51100000000E-03 0. -1.
    9900012    2    1    2    0    0 -0.21505919908E+00  0.11538643198E+01  0.12379067178E+00  0.90007755340E+02  0.90000016910E+02 0.  0.
        -12    1    1    2    0    0  0.21505919908E+00 -0.11538643198E+01 -0.12379067178E+00  0.11802446602E+01  0.00000000000E+00 0.  1.
         11    1    3    3    0    0 -0.34089306629E+01 -0.10390306866E+02  0.18738763222E+01  0.11094624724E+02  0.51100000000E-03 0. -1.
        -11    1    3    3    0    0  0.39980260333E+02 -0.28533955958E+00  0.23761100331E+01  0.40051823106E+02  0.51100000000E-03 0.  1.
         12    1    3    3    0    0 -0.36786388869E+02  0.11829510745E+02 -0.41261956835E+01  0.38861307509E+02  0.00000000000E+00 0. -1.
</event>
<event>
 7    1  0.2497665E-015  0.9000779E+02  0.7816164E-02  0.1186339E+00
        -11   -1    0    0    0    0  0.00000000000E+00  0.00000000000E+00  0.45593999997E+02  0.45594000000E+02  0.51100000000E-03 0. -1.
         11   -1    0    0    0    0 -0.00000000000E+00 -0.00000000000E+00 -0.45593999997E+02  0.45594000000E+02  0.51100000000E-03 0.  1.
    9900012    2    1    2    0    0  0.68797474821E+00  0.88359872591E+00  0.37261060683E+00  0.90007790431E+02  0.90000052465E+02 0.  0.
        -12    1    1    2    0    0 -0.68797474821E+00 -0.88359872591E+00 -0.37261060683E+00  0.11802095691E+01  0.00000000000E+00 0.  1.
         11    1    3    3    0    0  0.73223423706E+01 -0.12619818181E+02 -0.34790705018E+02  0.37726246363E+02  0.51100000000E-03 0. -1.
        -11    1    3    3    0    0 -0.55030366192E+01  0.17014678190E+01 -0.66628424042E+01  0.88074896500E+01  0.51100000000E-03 0.  1.
        -12    1    3    3    0    0 -0.11313310032E+01  0.11801949087E+02  0.41826158029E+02  0.43474054418E+02  0.00000000000E+00 0.  1.
</event>
<event>
 7    1  0.2497665E-015  0.9000775E+02  0.7816164E-02  0.1186339E+00
        -11   -1    0    0    0    0  0.00000000000E+00  0.00000000000E+00  0.45593999997E+02  0.45594000000E+02  0.51100000000E-03 0. -1.
         11   -1    0    0    0    0 -0.00000000000E+00 -0.00000000000E+00 -0.45593999997E+02  0.45594000000E+02  0.51100000000E-03 0.  1.
    9900012    2    1    2    0    0  0.62129499094E+00 -0.34605243325E-01  0.10028915176E+01  0.90007747322E+02  0.90000008786E+02 0.  0.
        -12    1    1    2    0    0 -0.62129499094E+00  0.34605243325E-01 -0.10028915176E+01  0.11802526783E+01  0.00000000000E+00 0.  1.
         11    1    3    3    0    0 -0.80222426461E+01  0.76052652328E+01  0.35316546702E+01  0.11604698243E+02  0.51100000000E-03 0. -1.
        -11    1    3    3    0    0 -0.28259177737E+02  0.11505408333E+02 -0.16319741097E+02  0.34601871294E+02  0.51100000000E-03 0.  1.
         12    1    3    3    0    0  0.36902715375E+02 -0.19145278809E+02  0.13790977945E+02  0.43801177785E+02  0.00000000000E+00 0. -1.
</event>
<event>
 7    1  0.2497665E-015  0.9000799E+02  0.7816164E-02  0.1186339E+00
        -11   -1    0    0    0    0  0.00000000000E+00  0.00000000000E+00  0.45593999997E+02  0.45594000000E+02  0.51100000000E-03 0.  1.
         11   -1    0    0    0    0 -0.00000000000E+00 -0.00000000000E+00 -0.45593999997E+02  0.45594000000E+02  0.51100000000E-03 0. -1.
    9900012    2    1    2    0    0  0.19065327995E+00 -0.11523642967E+01 -0.16771128842E+00  0.90007991855E+02  0.90000256547E+02 0.  0.
        -12    1    1    2    0    0 -0.19065327995E+00  0.11523642967E+01  0.16771128842E+00  0.11800081448E+01  0.00000000000E+00 0.  1.
         11    1    3    3    0    0 -0.17076599287E+02  0.16485013984E+02 -0.16956757483E+02  0.29170148335E+02  0.51100000000E-03 0. -1.
        -11    1    3    3    0    0 -0.10883201154E+02 -0.15865411573E+01 -0.12855973425E+02  0.16918547017E+02  0.51100000000E-03 0.  1.
        -12    1    3    3    0    0  0.28150453721E+02 -0.16050837123E+02  0.29645019620E+02  0.43919296503E+02  0.00000000000E+00 0.  1.
</event>
<event>
 7    1  0.2497665E-015  0.9000780E+02  0.7816164E-02  0.1186339E+00
        -11   -1    0    0    0    0  0.00000000000E+00  0.00000000000E+00  0.45593999997E+02  0.45594000000E+02  0.51100000000E-03 0.  1.
         11   -1    0    0    0    0 -0.00000000000E+00 -0.00000000000E+00 -0.45593999997E+02  0.45594000000E+02  0.51100000000E-03 0. -1.
    9900012    2    1    2    0    0 -0.81198327919E+00 -0.84792877936E+00  0.12071674748E+00  0.90007799765E+02  0.90000061922E+02 0.  0.
        -12    1    1    2    0    0  0.81198327919E+00  0.84792877936E+00 -0.12071674748E+00  0.11802002346E+01  0.00000000000E+00 0.  1.
         11    1    3    3    0    0  0.31194212525E+02  0.21858609429E+02  0.58205830742E+00  0.38094835521E+02  0.51100000000E-03 0. -1.
        -11    1    3    3    0    0 -0.18856421629E+01  0.40594359222E+01 -0.96024199501E+01  0.10594391702E+02  0.51100000000E-03 0.  1.
        -12    1    3    3    0    0 -0.30120553642E+02 -0.26765974130E+02  0.91410783902E+01  0.41318572543E+02  0.00000000000E+00 0.  1.
</event>
<event>
 7    1  0.2497665E-015  0.9000771E+02  0.7816164E-02  0.1186339E+00
        -11   -1    0    0    0    0  0.00000000000E+00  0.00000000000E+00  0.45593999997E+02  0.45594000000E+02  0.51100000000E-03 0.  1.
         11   -1    0    0    0    0 -0.00000000000E+00 -0.00000000000E+00 -0.45593999997E+02  0.45594000000E+02  0.51100000000E-03 0. -1.
    9900012    2    1    2    0    0  0.79399133210E+00  0.87252146480E-02 -0.87325777977E+00  0.90007712952E+02  0.89999973963E+02 0.  0.
        -12    1    1    2    0    0 -0.79399133210E+00 -0.87252146480E-02  0.87325777977E+00  0.11802870476E+01  0.00000000000E+00 0.  1.
         11    1    3    3    0    0  0.11440673518E+01  0.39765154795E+01  0.89319319314E+01  0.98438292220E+01  0.51100000000E-03 0. -1.
        -11    1    3    3    0    0  0.15349397036E+02  0.16879152725E+02  0.26807855987E+02  0.35201859737E+02  0.51100000000E-03 0.  1.
         12    1    3    3    0    0 -0.15699473056E+02 -0.20846942990E+02 -0.36613045698E+02  0.44962023993E+02  0.00000000000E+00 0. -1.
</event>
<event>
 7    1  0.2497665E-015  0.9000784E+02  0.7816164E-02  0.1186339E+00
        -11   -1    0    0    0    0  0.00000000000E+00  0.00000000000E+00  0.45593999997E+02  0.45594000000E+02  0.51100000000E-03 0.  1.
         11   -1    0    0    0    0 -0.00000000000E+00 -0.00000000000E+00 -0.45593999997E+02  0.45594000000E+02  0.51100000000E-03 0. -1.
    9900012    2    1    2    0    0  0.68947078122E-01 -0.93124359877E+00 -0.72167328546E+00  0.90007838710E+02  0.90000101381E+02 0.  0.
        -12    1    1    2    0    0 -0.68947078122E-01  0.93124359877E+00  0.72167328546E+00  0.11801612902E+01  0.00000000000E+00 0.  1.
         11    1    3    3    0    0  0.86059226917E+01  0.24388756224E+02 -0.28782191256E+02  0.38694804165E+02  0.51100000000E-03 0. -1.
        -11    1    3    3    0    0 -0.58191076193E+01 -0.74742076672E+01 -0.70673878932E+01  0.11818365607E+02  0.51100000000E-03 0.  1.
        -12    1    3    3    0    0 -0.27178679943E+01 -0.17845792156E+02  0.35127905864E+02  0.39494668938E+02  0.00000000000E+00 0.  1.
</event>
<event>
 7    1  0.2497665E-015  0.9000779E+02  0.7816164E-02  0.1186339E+00
        -11   -1    0    0    0    0  0.00000000000E+00  0.00000000000E+00  0.45593999997E+02  0.45594000000E+02  0.51100000000E-03 0.  1.
         11   -1    0    0    0    0 -0.00000000000E+00 -0.00000000000E+00 -0.45593999997E+02  0.45594000000E+02  0.51100000000E-03 0. -1.
    9900012    2    1    2    0    0  0.32747708942E-01  0.11797144796E+01  0.10185350990E-01  0.90007787135E+02  0.90000049125E+02 0.  0.
        -12    1    1    2    0    0 -0.32747708942E-01 -0.11797144796E+01 -0.10185350990E-01  0.11802128652E+01  0.00000000000E+00 0.  1.
         11    1    3    3    0    0  0.12183941146E+02 -0.34491846119E+01 -0.38923286859E+02  0.40931254030E+02  0.51100000000E-03 0. -1.
        -11    1    3    3    0    0  0.70069461489E+00  0.92913748706E+01  0.17783185822E+01  0.94859389187E+01  0.51100000000E-03 0.  1.
        -12    1    3    3    0    0 -0.12851888052E+02 -0.46624757791E+01  0.37155153628E+02  0.39590594186E+02  0.00000000000E+00 0.  1.
</event>
<event>
 7    1  0.2497665E-015  0.9000770E+02  0.7816164E-02  0.1186339E+00
        -11   -1    0    0    0    0  0.00000000000E+00  0.00000000000E+00  0.45593999997E+02  0.45594000000E+02  0.51100000000E-03 0.  1.
         11   -1    0    0    0    0 -0.00000000000E+00 -0.00000000000E+00 -0.45593999997E+02  0.45594000000E+02  0.51100000000E-03 0. -1.
    9900012    2    1    2    0    0 -0.36940969125E+00 -0.25144258506E+00 -0.10924329710E+01  0.90007704829E+02  0.89999965733E+02 0.  0.
        -12    1    1    2    0    0  0.36940969125E+00  0.25144258506E+00  0.10924329710E+01  0.11802951706E+01  0.00000000000E+00 0.  1.
         11    1    3    3    0    0  0.28377663984E+02  0.84934602918E+01  0.20003308060E+02  0.35743013507E+02  0.51100000000E-03 0. -1.
        -11    1    3    3    0    0  0.80427826128E+01  0.33390942378E+01  0.23197403653E+01  0.90120529354E+01  0.51100000000E-03 0.  1.
        -12    1    3    3    0    0 -0.36789856289E+02 -0.12083997115E+02 -0.23415481396E+02  0.45252638387E+02  0.00000000000E+00 0.  1.
</event>
<event>
 7    1  0.2497665E-015  0.9000759E+02  0.7816164E-02  0.1186339E+00
        -11   -1    0    0    0    0  0.00000000000E+00  0.00000000000E+00  0.45593999997E+02  0.45594000000E+02  0.51100000000E-03 0. -1.
         11   -1    0    0    0    0 -0.00000000000E+00 -0.00000000000E+00 -0.45593999997E+02  0.45594000000E+02  0.51100000000E-03 0.  1.
    9900012    2    1    2    0    0 -0.10641055217E+01 -0.28242054823E+00  0.42579000060E+00  0.90007585220E+02  0.89999844545E+02 0.  0.
        -12    1    1    2    0    0  0.10641055217E+01  0.28242054823E+00 -0.42579000060E+00  0.11804147796E+01  0.00000000000E+00 0.  1.
         11    1    3    3    0    0  0.21486940425E+01  0.11200061703E+02  0.96411363005E+01  0.14933511900E+02  0.51100000000E-03 0. -1.
        -11    1    3    3    0    0  0.13504780293E+02  0.28216144920E+02 -0.15303693604E+01  0.31318875388E+02  0.51100000000E-03 0.  1.
         12    1    3    3    0    0 -0.16717579857E+02 -0.39698627171E+02 -0.76849769395E+01  0.43755197933E+02  0.00000000000E+00 0. -1.
</event>
<event>
 7    1  0.2497665E-015  0.9000791E+02  0.7816164E-02  0.1186339E+00
        -11   -1    0    0    0    0  0.00000000000E+00  0.00000000000E+00  0.45593999997E+02  0.45594000000E+02  0.51100000000E-03 0.  1.
         11   -1    0    0    0    0 -0.00000000000E+00 -0.00000000000E+00 -0.45593999997E+02  0.45594000000E+02  0.51100000000E-03 0. -1.
    9900012    2    1    2    0    0 -0.10560814861E+01 -0.30731674085E+00  0.42762292132E+00  0.90007909729E+02  0.90000173337E+02 0.  0.
        -12    1    1    2    0    0  0.10560814861E+01  0.30731674085E+00 -0.42762292132E+00  0.11800902709E+01  0.00000000000E+00 0.  1.
         11    1    3    3    0    0 -0.21772412538E+02  0.68279262860E+01 -0.36156439916E+02  0.42754493012E+02  0.51100000000E-03 0. -1.
        -11    1    3    3    0    0 -0.20205318400E+01 -0.43669791742E+01  0.15105876648E+02  0.15853724029E+02  0.51100000000E-03 0.  1.
        -12    1    3    3    0    0  0.22736862892E+02 -0.27682638526E+01  0.21478186190E+02  0.31399692688E+02  0.00000000000E+00 0.  1.
</event>
<event>
 7    1  0.2497665E-015  0.9000773E+02  0.7816164E-02  0.1186339E+00
        -11   -1    0    0    0    0  0.00000000000E+00  0.00000000000E+00  0.45593999997E+02  0.45594000000E+02  0.51100000000E-03 0. -1.
         11   -1    0    0    0    0 -0.00000000000E+00 -0.00000000000E+00 -0.45593999997E+02  0.45594000000E+02  0.51100000000E-03 0.  1.
    9900012    2    1    2    0    0  0.28414615335E+00 -0.54847939333E+00  0.10057130831E+01  0.90007734146E+02  0.89999995436E+02 0.  0.
        -12    1    1    2    0    0 -0.28414615335E+00  0.54847939333E+00 -0.10057130831E+01  0.11802658543E+01  0.00000000000E+00 0.  1.
         11    1    3    3    0    0 -0.96415942258E+00  0.25014561425E+01 -0.10007711382E+02  0.10360558556E+02  0.51100000000E-03 0. -1.
        -11    1    3    3    0    0 -0.26913762589E+00 -0.30754730806E+02 -0.21031525039E+02  0.37259239763E+02  0.51100000000E-03 0.  1.
         12    1    3    3    0    0  0.15174432018E+01  0.27704795270E+02  0.32044949504E+02  0.42387935826E+02  0.00000000000E+00 0. -1.
</event>
<event>
 7    1  0.2497665E-015  0.9000777E+02  0.7816164E-02  0.1186339E+00
        -11   -1    0    0    0    0  0.00000000000E+00  0.00000000000E+00  0.45593999997E+02  0.45594000000E+02  0.51100000000E-03 0. -1.
         11   -1    0    0    0    0 -0.00000000000E+00 -0.00000000000E+00 -0.45593999997E+02  0.45594000000E+02  0.51100000000E-03 0.  1.
    9900012    2    1    2    0    0  0.80647336247E+00  0.75976756150E+00  0.40657367180E+00  0.90007767742E+02  0.90000029476E+02 0.  0.
        -12    1    1    2    0    0 -0.80647336247E+00 -0.75976756150E+00 -0.40657367180E+00  0.11802322579E+01  0.00000000000E+00 0.  1.
         11    1    3    3    0    0  0.12880258450E+02 -0.37238751364E+02  0.88062177479E+01  0.40375427331E+02  0.51100000000E-03 0. -1.
        -11    1    3    3    0    0  0.54321059231E+01  0.50856627731E+01  0.61110337456E+01  0.96289394173E+01  0.51100000000E-03 0.  1.
        -12    1    3    3    0    0 -0.17505891011E+02  0.32912856152E+02 -0.14510677822E+02  0.40003400994E+02  0.00000000000E+00 0.  1.
</event>
<event>
 7    1  0.2497665E-015  0.9000765E+02  0.7816164E-02  0.1186339E+00
        -11   -1    0    0    0    0  0.00000000000E+00  0.00000000000E+00  0.45593999997E+02  0.45594000000E+02  0.51100000000E-03 0. -1.
         11   -1    0    0    0    0 -0.00000000000E+00 -0.00000000000E+00 -0.45593999997E+02  0.45594000000E+02  0.51100000000E-03 0.  1.
    9900012    2    1    2    0    0 -0.46731240171E+00  0.74715246672E+00  0.78525157326E+00  0.90007645086E+02  0.89999905201E+02 0.  0.
        -12    1    1    2    0    0  0.46731240171E+00 -0.74715246672E+00 -0.78525157326E+00  0.11803549138E+01  0.00000000000E+00 0.  1.
         11    1    3    3    0    0 -0.25253905518E+01  0.58556902748E+01 -0.61641635991E+01  0.88692513310E+01  0.51100000000E-03 0. -1.
        -11    1    3    3    0    0 -0.32290978358E+02 -0.10164206129E+02 -0.18041503914E+02  0.38360321079E+02  0.51100000000E-03 0.  1.
         12    1    3    3    0    0  0.34349056508E+02  0.50556683212E+01  0.24990919086E+02  0.42778072676E+02  0.00000000000E+00 0. -1.
</event>
<event>
 7    1  0.2497665E-015  0.9000767E+02  0.7816164E-02  0.1186339E+00
        -11   -1    0    0    0    0  0.00000000000E+00  0.00000000000E+00  0.45593999997E+02  0.45594000000E+02  0.51100000000E-03 0. -1.
         11   -1    0    0    0    0 -0.00000000000E+00 -0.00000000000E+00 -0.45593999997E+02  0.45594000000E+02  0.51100000000E-03 0.  1.
    9900012    2    1    2    0    0  0.23771402833E-01  0.11950245707E+00  0.11740280091E+01  0.90007666283E+02  0.89999926678E+02 0.  0.
        -12    1    1    2    0    0 -0.23771402833E-01 -0.11950245707E+00 -0.11740280091E+01  0.11803337168E+01  0.00000000000E+00 0.  1.
         11    1    3    3    0    0  0.36549166466E+02 -0.53444733656E+01  0.21775286831E+02  0.42878527048E+02  0.51100000000E-03 0. -1.
        -11    1    3    3    0    0 -0.64761035386E+01  0.48793487502E+01  0.32746210944E+01  0.87447758600E+01  0.51100000000E-03 0.  1.
        -12    1    3    3    0    0 -0.30049291525E+02  0.58462707248E+00 -0.23875879916E+02  0.38384363376E+02  0.00000000000E+00 0.  1.
</event>
<event>
 7    1  0.2497665E-015  0.9000778E+02  0.7816164E-02  0.1186339E+00
        -11   -1    0    0    0    0  0.00000000000E+00  0.00000000000E+00  0.45593999997E+02  0.45594000000E+02  0.51100000000E-03 0.  1.
         11   -1    0    0    0    0 -0.00000000000E+00 -0.00000000000E+00 -0.45593999997E+02  0.45594000000E+02  0.51100000000E-03 0. -1.
    9900012    2    1    2    0    0 -0.76797521369E+00 -0.10956070413E+00  0.88945932455E+00  0.90007776561E+02  0.90000038411E+02 0.  0.
        -12    1    1    2    0    0  0.76797521369E+00  0.10956070413E+00 -0.88945932455E+00  0.11802234393E+01  0.00000000000E+00 0.  1.
         11    1    3    3    0    0  0.12222921779E+02 -0.50652545339E+01  0.51568976398E+01  0.14200359638E+02  0.51100000000E-03 0. -1.
        -11    1    3    3    0    0 -0.13044603349E+02  0.12690338753E+02  0.33032420021E+02  0.37714017910E+02  0.51100000000E-03 0.  1.
         12    1    3    3    0    0  0.53706356030E-01 -0.77346449229E+01 -0.37299858336E+02  0.38093399013E+02  0.00000000000E+00 0. -1.
</event>
<event>
 7    1  0.2779826E-015  0.9000783E+02  0.7816164E-02  0.1186339E+00
        -11   -1    0    0    0    0  0.00000000000E+00  0.00000000000E+00  0.45593999997E+02  0.45594000000E+02  0.51100000000E-03 0.  1.
         11   -1    0    0    0    0 -0.00000000000E+00 -0.00000000000E+00 -0.45593999997E+02  0.45594000000E+02  0.51100000000E-03 0. -1.
    9900012    2    1    2    0    0  0.13537659584E+00  0.90587730801E+00 -0.74422481671E+00  0.90007825819E+02  0.90000088320E+02 0.  0.
        -12    1    1    2    0    0 -0.13537659584E+00 -0.90587730801E+00  0.74422481671E+00  0.11801741811E+01  0.00000000000E+00 0.  1.
         11    1    3    3    0    0  0.35119561330E+01 -0.75290758159E+01 -0.35820954891E+02  0.36771750408E+02  0.51100000000E-03 0. -1.
        -11    1    3    3    0    0 -0.11987267990E+01 -0.65803774489E+01 -0.62856961606E+01  0.91786867140E+01  0.51100000000E-03 0.  1.
        -12    1    3    3    0    0 -0.21778527382E+01  0.15015330573E+02  0.41362426235E+02  0.44057388697E+02  0.00000000000E+00 0.  1.
</event>
<event>
 7    1  0.2497665E-015  0.9000782E+02  0.7816164E-02  0.1186339E+00
        -11   -1    0    0    0    0  0.00000000000E+00  0.00000000000E+00  0.45593999997E+02  0.45594000000E+02  0.51100000000E-03 0.  1.
         11   -1    0    0    0    0 -0.00000000000E+00 -0.00000000000E+00 -0.45593999997E+02  0.45594000000E+02  0.51100000000E-03 0. -1.
    9900012    2    1    2    0    0 -0.34379332218E+00  0.50563633365E+00 -0.10094327967E+01  0.90007823521E+02  0.90000085992E+02 0.  0.
        -12    1    1    2    0    0  0.34379332218E+00 -0.50563633365E+00  0.10094327967E+01  0.11801764789E+01  0.00000000000E+00 0.  1.
         11    1    3    3    0    0 -0.19091219332E+02 -0.11192882319E+02  0.23305142306E+02  0.32138527165E+02  0.51100000000E-03 0. -1.
        -11    1    3    3    0    0 -0.14951254035E+02  0.36107813040E+01  0.26275149964E+00  0.15383327906E+02  0.51100000000E-03 0.  1.
        -12    1    3    3    0    0  0.33698680045E+02  0.80877373489E+01 -0.24577326602E+02  0.42485968450E+02  0.00000000000E+00 0.  1.
</event>
<event>
 7    1  0.2497665E-015  0.9000787E+02  0.7816164E-02  0.1186339E+00
        -11   -1    0    0    0    0  0.00000000000E+00  0.00000000000E+00  0.45593999997E+02  0.45594000000E+02  0.51100000000E-03 0.  1.
         11   -1    0    0    0    0 -0.00000000000E+00 -0.00000000000E+00 -0.45593999997E+02  0.45594000000E+02  0.51100000000E-03 0. -1.
    9900012    2    1    2    0    0  0.44397647940E+00  0.97886028355E+00 -0.48727227980E+00  0.90007865752E+02  0.90000128780E+02 0.  0.
        -12    1    1    2    0    0 -0.44397647940E+00 -0.97886028355E+00  0.48727227980E+00  0.11801342481E+01  0.00000000000E+00 0.  1.
         11    1    3    3    0    0  0.84027454140E+01 -0.24619915330E+01 -0.36927378845E+01  0.95028335851E+01  0.51100000000E-03 0. -1.
        -11    1    3    3    0    0  0.31559580243E+02  0.48847607202E+01  0.19848314765E+02  0.37600845625E+02  0.51100000000E-03 0.  1.
         12    1    3    3    0    0 -0.39518349178E+02 -0.14439089037E+01 -0.16642849161E+02  0.42904186542E+02  0.00000000000E+00 0. -1.
</event>
<event>
 7    1  0.2497665E-015  0.9000779E+02  0.7816164E-02  0.1186339E+00
        -11   -1    0    0    0    0  0.00000000000E+00  0.00000000000E+00  0.45593999997E+02  0.45594000000E+02  0.51100000000E-03 0.  1.
         11   -1    0    0    0    0 -0.00000000000E+00 -0.00000000000E+00 -0.45593999997E+02  0.45594000000E+02  0.51100000000E-03 0. -1.
    9900012    2    1    2    0    0 -0.41371380916E-01  0.62903890936E+00 -0.99774051126E+00  0.90007793379E+02  0.90000055452E+02 0.  0.
        -12    1    1    2    0    0  0.41371380916E-01 -0.62903890936E+00  0.99774051126E+00  0.11802066211E+01  0.00000000000E+00 0.  1.
         11    1    3    3    0    0 -0.20381640838E+02  0.35800735942E+02 -0.25161033615E+01  0.41272687745E+02  0.51100000000E-03 0. -1.
        -11    1    3    3    0    0  0.33364960973E+01 -0.42506449256E+00  0.87560097310E+01  0.93797970501E+01  0.51100000000E-03 0.  1.
        -12    1    3    3    0    0  0.17003773360E+02 -0.34746632540E+02 -0.72376468807E+01  0.39355308584E+02  0.00000000000E+00 0.  1.
</event>
<event>
 7    1  0.2497665E-015  0.9000777E+02  0.7816164E-02  0.1186339E+00
        -11   -1    0    0    0    0  0.00000000000E+00  0.00000000000E+00  0.45593999997E+02  0.45594000000E+02  0.51100000000E-03 0.  1.
         11   -1    0    0    0    0 -0.00000000000E+00 -0.00000000000E+00 -0.45593999997E+02  0.45594000000E+02  0.51100000000E-03 0. -1.
    9900012    2    1    2    0    0  0.55889819644E-01 -0.64719478101E+00 -0.98537526481E+00  0.90007767324E+02  0.90000029053E+02 0.  0.
        -12    1    1    2    0    0 -0.55889819644E-01  0.64719478101E+00  0.98537526481E+00  0.11802326758E+01  0.00000000000E+00 0.  1.
         11    1    3    3    0    0  0.56042979743E+01 -0.31577826367E+02 -0.22123433255E+02  0.38961693663E+02  0.51100000000E-03 0. -1.
        -11    1    3    3    0    0 -0.85210863647E+01 -0.37848031104E+00 -0.52297625109E+01  0.10005127504E+02  0.51100000000E-03 0.  1.
        -12    1    3    3    0    0  0.29726782100E+01  0.31309111897E+02  0.26367820501E+02  0.41040946157E+02  0.00000000000E+00 0.  1.
</event>
<event>
 7    1  0.2497665E-015  0.9000770E+02  0.7816164E-02  0.1186339E+00
        -11   -1    0    0    0    0  0.00000000000E+00  0.00000000000E+00  0.45593999997E+02  0.45594000000E+02  0.51100000000E-03 0. -1.
         11   -1    0    0    0    0 -0.00000000000E+00 -0.00000000000E+00 -0.45593999997E+02  0.45594000000E+02  0.51100000000E-03 0.  1.
    9900012    2    1    2    0    0 -0.57975650096E+00  0.59963508907E+00  0.83512148892E+00  0.90007700148E+02  0.89999960989E+02 0.  0.
        -12    1    1    2    0    0  0.57975650096E+00 -0.59963508907E+00 -0.83512148892E+00  0.11802998525E+01  0.00000000000E+00 0.  1.
         11    1    3    3    0    0  0.30845494400E+02  0.46610836443E+01  0.57350474213E+00  0.31200947638E+02  0.51100000000E-03 0. -1.
        -11    1    3    3    0    0  0.84081905458E+01 -0.98716257409E+01 -0.11002071690E+02  0.17005653318E+02  0.51100000000E-03 0.  1.
        -12    1    3    3    0    0 -0.39833441447E+02  0.58101771857E+01  0.11263688437E+02  0.41801099192E+02  0.00000000000E+00 0.  1.
</event>
<event>
 7    1  0.2497665E-015  0.9000776E+02  0.7816164E-02  0.1186339E+00
        -11   -1    0    0    0    0  0.00000000000E+00  0.00000000000E+00  0.45593999997E+02  0.45594000000E+02  0.51100000000E-03 0. -1.
         11   -1    0    0    0    0 -0.00000000000E+00 -0.00000000000E+00 -0.45593999997E+02  0.45594000000E+02  0.51100000000E-03 0.  1.
    9900012    2    1    2    0    0  0.26257979433E+00  0.10383640317E+00  0.11459656424E+01  0.90007759601E+02  0.90000021227E+02 0.  0.
        -12    1    1    2    0    0 -0.26257979433E+00 -0.10383640317E+00 -0.11459656424E+01  0.11802403995E+01  0.00000000000E+00 0.  1.
         11    1    3    3    0    0 -0.34566607473E+02 -0.66550799032E+01  0.17520477257E+02  0.39320574313E+02  0.51100000000E-03 0. -1.
        -11    1    3    3    0    0  0.84211776388E+00 -0.98915087961E+01 -0.15821579603E+01  0.10052578409E+02  0.51100000000E-03 0.  1.
        -12    1    3    3    0    0  0.33987069504E+02  0.16650425103E+02 -0.14792353655E+02  0.40634606879E+02  0.00000000000E+00 0.  1.
</event>
<event>
 7    1  0.2497665E-015  0.9000756E+02  0.7816164E-02  0.1186339E+00
        -11   -1    0    0    0    0  0.00000000000E+00  0.00000000000E+00  0.45593999997E+02  0.45594000000E+02  0.51100000000E-03 0.  1.
         11   -1    0    0    0    0 -0.00000000000E+00 -0.00000000000E+00 -0.45593999997E+02  0.45594000000E+02  0.51100000000E-03 0. -1.
    9900012    2    1    2    0    0 -0.64960669285E+00 -0.61605529321E+00  0.76936510390E+00  0.90007561250E+02  0.89999820258E+02 0.  0.
        -12    1    1    2    0    0  0.64960669285E+00  0.61605529321E+00 -0.76936510390E+00  0.11804387501E+01  0.00000000000E+00 0.  1.
         11    1    3    3    0    0 -0.35202655901E+02 -0.12011400254E+02 -0.11137282545E+02  0.38827049608E+02  0.51100000000E-03 0. -1.
        -11    1    3    3    0    0  0.36298589911E+01  0.11782616695E+01 -0.10816092719E+02  0.11469613717E+02  0.51100000000E-03 0.  1.
        -12    1    3    3    0    0  0.30923190217E+02  0.10217083292E+02  0.22722740368E+02  0.39710897925E+02  0.00000000000E+00 0.  1.
</event>
<event>
 7    1  0.2497665E-015  0.9000776E+02  0.7816164E-02  0.1186339E+00
        -11   -1    0    0    0    0  0.00000000000E+00  0.00000000000E+00  0.45593999997E+02  0.45594000000E+02  0.51100000000E-03 0. -1.
         11   -1    0    0    0    0 -0.00000000000E+00 -0.00000000000E+00 -0.45593999997E+02  0.45594000000E+02  0.51100000000E-03 0.  1.
    9900012    2    1    2    0    0  0.10595833540E+01 -0.37081054902E+00 -0.36434289491E+00  0.90007761426E+02  0.90000023076E+02 0.  0.
        -12    1    1    2    0    0 -0.10595833540E+01  0.37081054902E+00  0.36434289491E+00  0.11802385743E+01  0.00000000000E+00 0.  1.
         11    1    3    3    0    0  0.27308930009E+01 -0.85099772027E+01  0.29365422398E+01  0.94074847414E+01  0.51100000000E-03 0. -1.
        -11    1    3    3    0    0  0.10704169541E+01 -0.18500063221E+02 -0.34696275990E+02  0.39334840784E+02  0.51100000000E-03 0.  1.
         12    1    3    3    0    0 -0.27417266010E+01  0.26639229875E+02  0.31395390856E+02  0.41265435900E+02  0.00000000000E+00 0. -1.
</event>
<event>
 7    1  0.2497665E-015  0.9000770E+02  0.7816164E-02  0.1186339E+00
        -11   -1    0    0    0    0  0.00000000000E+00  0.00000000000E+00  0.45593999997E+02  0.45594000000E+02  0.51100000000E-03 0.  1.
         11   -1    0    0    0    0 -0.00000000000E+00 -0.00000000000E+00 -0.45593999997E+02  0.45594000000E+02  0.51100000000E-03 0. -1.
    9900012    2    1    2    0    0 -0.36754468864E+00 -0.50677760732E-01 -0.11204637591E+01  0.90007704965E+02  0.89999965871E+02 0.  0.
        -12    1    1    2    0    0  0.36754468864E+00  0.50677760732E-01  0.11204637591E+01  0.11802950347E+01  0.00000000000E+00 0.  1.
         11    1    3    3    0    0  0.23756302796E+01  0.94889080055E+01  0.26139491540E+01  0.10125004929E+02  0.51100000000E-03 0. -1.
        -11    1    3    3    0    0  0.14222214073E+02  0.36361781295E+01  0.33680128246E+02  0.36740225958E+02  0.51100000000E-03 0.  1.
         12    1    3    3    0    0 -0.16965389041E+02 -0.13175763896E+02 -0.37414541159E+02  0.43142474079E+02  0.00000000000E+00 0. -1.
</event>
<event>
 7    1  0.2497665E-015  0.9000776E+02  0.7816164E-02  0.1186339E+00
        -11   -1    0    0    0    0  0.00000000000E+00  0.00000000000E+00  0.45593999997E+02  0.45594000000E+02  0.51100000000E-03 0.  1.
         11   -1    0    0    0    0 -0.00000000000E+00 -0.00000000000E+00 -0.45593999997E+02  0.45594000000E+02  0.51100000000E-03 0. -1.
    9900012    2    1    2    0    0  0.28351536205E+00  0.11146266399E+01  0.26494499500E+00  0.90007758772E+02  0.90000020387E+02 0.  0.
        -12    1    1    2    0    0 -0.28351536205E+00 -0.11146266399E+01 -0.26494499500E+00  0.11802412284E+01  0.00000000000E+00 0.  1.
         11    1    3    3    0    0  0.67661624037E+01  0.25359140302E+02 -0.28694985282E+02  0.38887904689E+02  0.51100000000E-03 0. -1.
        -11    1    3    3    0    0  0.17149886878E+01  0.83370308570E+01  0.64432758191E+01  0.10675348859E+02  0.51100000000E-03 0.  1.
        -12    1    3    3    0    0 -0.81976357294E+01 -0.32581544519E+02  0.22516654458E+02  0.40444505224E+02  0.00000000000E+00 0.  1.
</event>
<event>
 7    1  0.2497665E-015  0.9000674E+02  0.7816164E-02  0.1186341E+00
        -11   -1    0    0    0    0  0.00000000000E+00  0.00000000000E+00  0.45593999997E+02  0.45594000000E+02  0.51100000000E-03 0. -1.
         11   -1    0    0    0    0 -0.00000000000E+00 -0.00000000000E+00 -0.45593999997E+02  0.45594000000E+02  0.51100000000E-03 0.  1.
    9900012    2    1    2    0    0 -0.49869590768E+00  0.84321636314E+00  0.66005096258E+00  0.90006738506E+02  0.89998986649E+02 0.  0.
        -12    1    1    2    0    0  0.49869590768E+00 -0.84321636314E+00 -0.66005096258E+00  0.11812614937E+01  0.00000000000E+00 0.  1.
         11    1    3    3    0    0 -0.15253596684E+02 -0.22060628274E+01  0.34786845963E+02  0.38048174428E+02  0.51100000000E-03 0. -1.
        -11    1    3    3    0    0 -0.77643928013E+01  0.67501098720E+01  0.70937015065E+00  0.10312758367E+02  0.51100000000E-03 0.  1.
        -12    1    3    3    0    0  0.22519293577E+02 -0.37008306815E+01 -0.34836165151E+02  0.41645805712E+02  0.00000000000E+00 0.  1.
</event>
<event>
 7    1  0.2497665E-015  0.9000775E+02  0.7816164E-02  0.1186339E+00
        -11   -1    0    0    0    0  0.00000000000E+00  0.00000000000E+00  0.45593999997E+02  0.45594000000E+02  0.51100000000E-03 0.  1.
         11   -1    0    0    0    0 -0.00000000000E+00 -0.00000000000E+00 -0.45593999997E+02  0.45594000000E+02  0.51100000000E-03 0. -1.
    9900012    2    1    2    0    0 -0.56640308653E+00  0.99769654141E+00 -0.27710510673E+00  0.90007746601E+02  0.90000008056E+02 0.  0.
        -12    1    1    2    0    0  0.56640308653E+00 -0.99769654141E+00  0.27710510673E+00  0.11802533988E+01  0.00000000000E+00 0.  1.
         11    1    3    3    0    0  0.13573810335E+02 -0.33288691086E+02  0.92029894385E+01  0.37109032541E+02  0.51100000000E-03 0. -1.
        -11    1    3    3    0    0 -0.39821385858E+01 -0.72636838063E+01 -0.54932840522E+01  0.99395523085E+01  0.51100000000E-03 0.  1.
        -12    1    3    3    0    0 -0.10158074836E+02  0.41550071434E+02 -0.39868104930E+01  0.42959161752E+02  0.00000000000E+00 0.  1.
</event>
<event>
 7    1  0.2497665E-015  0.9000780E+02  0.7816164E-02  0.1186339E+00
        -11   -1    0    0    0    0  0.00000000000E+00  0.00000000000E+00  0.45593999997E+02  0.45594000000E+02  0.51100000000E-03 0.  1.
         11   -1    0    0    0    0 -0.00000000000E+00 -0.00000000000E+00 -0.45593999997E+02  0.45594000000E+02  0.51100000000E-03 0. -1.
    9900012    2    1    2    0    0  0.31268396189E+00 -0.10515772627E+01 -0.43507681207E+00  0.90007797546E+02  0.90000059674E+02 0.  0.
        -12    1    1    2    0    0 -0.31268396189E+00  0.10515772627E+01  0.43507681207E+00  0.11802024538E+01  0.00000000000E+00 0.  1.
         11    1    3    3    0    0  0.44295232031E+00  0.16506074884E+01  0.55783543655E+01  0.58342736932E+01  0.51100000000E-03 0. -1.
        -11    1    3    3    0    0  0.27784678818E+00 -0.35885363812E+02  0.20826989529E+02  0.41492168272E+02  0.51100000000E-03 0.  1.
         12    1    3    3    0    0 -0.40811514660E+00  0.33183179061E+02 -0.26840420706E+02  0.42681355581E+02  0.00000000000E+00 0. -1.
</event>
<event>
 7    1  0.2497665E-015  0.9000773E+02  0.7816164E-02  0.1186339E+00
        -11   -1    0    0    0    0  0.00000000000E+00  0.00000000000E+00  0.45593999997E+02  0.45594000000E+02  0.51100000000E-03 0. -1.
         11   -1    0    0    0    0 -0.00000000000E+00 -0.00000000000E+00 -0.45593999997E+02  0.45594000000E+02  0.51100000000E-03 0.  1.
    9900012    2    1    2    0    0 -0.72466464131E+00 -0.43469026171E+00  0.82397804842E+00  0.90007731264E+02  0.89999992516E+02 0.  0.
        -12    1    1    2    0    0  0.72466464131E+00  0.43469026171E+00 -0.82397804842E+00  0.11802687365E+01  0.00000000000E+00 0.  1.
         11    1    3    3    0    0 -0.19798508786E+02 -0.15964950856E+02  0.28429969624E+02  0.38146084715E+02  0.51100000000E-03 0. -1.
        -11    1    3    3    0    0 -0.29597826998E+01  0.15616367020E+01  0.74479154710E+01  0.81651985857E+01  0.51100000000E-03 0.  1.
        -12    1    3    3    0    0  0.22033626845E+02  0.13968623892E+02 -0.35053907046E+02  0.43696447963E+02  0.00000000000E+00 0.  1.
</event>
<event>
 7    1  0.2497665E-015  0.9000758E+02  0.7816164E-02  0.1186339E+00
        -11   -1    0    0    0    0  0.00000000000E+00  0.00000000000E+00  0.45593999997E+02  0.45594000000E+02  0.51100000000E-03 0. -1.
         11   -1    0    0    0    0 -0.00000000000E+00 -0.00000000000E+00 -0.45593999997E+02  0.45594000000E+02  0.51100000000E-03 0.  1.
    9900012    2    1    2    0    0 -0.86447853079E+00 -0.52636113080E+00  0.60746477216E+00  0.90007579473E+02  0.89999838722E+02 0.  0.
        -12    1    1    2    0    0  0.86447853079E+00  0.52636113080E+00 -0.60746477216E+00  0.11804205266E+01  0.00000000000E+00 0.  1.
         11    1    3    3    0    0 -0.90249644257E+01  0.53135445481E+01 -0.27672876282E+01  0.10832433689E+02  0.51100000000E-03 0. -1.
        -11    1    3    3    0    0  0.37568229798E+02 -0.12078617374E+02 -0.16885535027E+02  0.42923026236E+02  0.51100000000E-03 0.  1.
         12    1    3    3    0    0 -0.29407743903E+02  0.62387116955E+01  0.20260287427E+02  0.36252119548E+02  0.00000000000E+00 0. -1.
</event>
<event>
 7    1  0.2497665E-015  0.9000774E+02  0.7816164E-02  0.1186339E+00
        -11   -1    0    0    0    0  0.00000000000E+00  0.00000000000E+00  0.45593999997E+02  0.45594000000E+02  0.51100000000E-03 0.  1.
         11   -1    0    0    0    0 -0.00000000000E+00 -0.00000000000E+00 -0.45593999997E+02  0.45594000000E+02  0.51100000000E-03 0. -1.
    9900012    2    1    2    0    0  0.29905053594E+00  0.19271253672E+00 -0.11253669717E+01  0.90007737247E+02  0.89999998579E+02 0.  0.
        -12    1    1    2    0    0 -0.29905053594E+00 -0.19271253672E+00  0.11253669717E+01  0.11802627529E+01  0.00000000000E+00 0.  1.
         11    1    3    3    0    0  0.34338233640E+01 -0.27501420429E+02 -0.30499299494E+02  0.41210757557E+02  0.51100000000E-03 0. -1.
        -11    1    3    3    0    0 -0.52903988591E+01  0.52314008453E+00 -0.32922050250E+01  0.62530480427E+01  0.51100000000E-03 0.  1.
        -12    1    3    3    0    0  0.21556260310E+01  0.27170992881E+02  0.32666137547E+02  0.42543931647E+02  0.00000000000E+00 0.  1.
</event>
<event>
 7    1  0.2497665E-015  0.9000759E+02  0.7816164E-02  0.1186339E+00
        -11   -1    0    0    0    0  0.00000000000E+00  0.00000000000E+00  0.45593999997E+02  0.45594000000E+02  0.51100000000E-03 0.  1.
         11   -1    0    0    0    0 -0.00000000000E+00 -0.00000000000E+00 -0.45593999997E+02  0.45594000000E+02  0.51100000000E-03 0. -1.
    9900012    2    1    2    0    0 -0.17713478264E+00  0.99395790990E-01 -0.11628021960E+01  0.90007591087E+02  0.89999850489E+02 0.  0.
        -12    1    1    2    0    0  0.17713478264E+00 -0.99395790990E-01  0.11628021960E+01  0.11804089128E+01  0.00000000000E+00 0.  1.
         11    1    3    3    0    0 -0.94676569282E+01  0.41586135479E+00 -0.40190261772E+01  0.10293786478E+02  0.51100000000E-03 0. -1.
        -11    1    3    3    0    0  0.27043545257E+02 -0.25130483753E+02  0.22680923493E+02  0.43328037625E+02  0.51100000000E-03 0.  1.
         12    1    3    3    0    0 -0.17753023111E+02  0.24814018189E+02 -0.19824699512E+02  0.36385766984E+02  0.00000000000E+00 0. -1.
</event>
<event>
 7    1  0.2497665E-015  0.9000773E+02  0.7816164E-02  0.1186339E+00
        -11   -1    0    0    0    0  0.00000000000E+00  0.00000000000E+00  0.45593999997E+02  0.45594000000E+02  0.51100000000E-03 0.  1.
         11   -1    0    0    0    0 -0.00000000000E+00 -0.00000000000E+00 -0.45593999997E+02  0.45594000000E+02  0.51100000000E-03 0. -1.
    9900012    2    1    2    0    0 -0.44448914359E+00  0.96089552850E+00 -0.52167093731E+00  0.90007732495E+02  0.89999993764E+02 0.  0.
        -12    1    1    2    0    0  0.44448914359E+00 -0.96089552850E+00  0.52167093731E+00  0.11802675046E+01  0.00000000000E+00 0.  1.
         11    1    3    3    0    0 -0.17530983445E+02 -0.12184986676E+02 -0.99847708061E+01  0.23569152067E+02  0.51100000000E-03 0. -1.
        -11    1    3    3    0    0  0.39758531590E+02  0.78057946247E+00  0.80660011101E+01  0.40575984433E+02  0.51100000000E-03 0.  1.
         12    1    3    3    0    0 -0.22672037288E+02  0.12365302742E+02  0.13970987586E+01  0.25862595996E+02  0.00000000000E+00 0. -1.
</event>
<event>
 7    1  0.2497665E-015  0.9000759E+02  0.7816164E-02  0.1186339E+00
        -11   -1    0    0    0    0  0.00000000000E+00  0.00000000000E+00  0.45593999997E+02  0.45594000000E+02  0.51100000000E-03 0.  1.
         11   -1    0    0    0    0 -0.00000000000E+00 -0.00000000000E+00 -0.45593999997E+02  0.45594000000E+02  0.51100000000E-03 0. -1.
    9900012    2    1    2    0    0 -0.29162056705E+00  0.10769034227E+01 -0.38547775511E+00  0.90007594715E+02  0.89999854165E+02 0.  0.
        -12    1    1    2    0    0  0.29162056705E+00 -0.10769034227E+01  0.38547775511E+00  0.11804052849E+01  0.00000000000E+00 0.  1.
         11    1    3    3    0    0  0.13316988189E+02  0.37050753823E+02 -0.55054199417E+01  0.39754373122E+02  0.51100000000E-03 0. -1.
        -11    1    3    3    0    0 -0.68624344184E+01  0.37387980767E+00 -0.84329376411E+01  0.10878751297E+02  0.51100000000E-03 0.  1.
        -12    1    3    3    0    0 -0.67461743378E+01 -0.36347730208E+02  0.13552879828E+02  0.39374470296E+02  0.00000000000E+00 0.  1.
</event>
<event>
 7    1  0.2497665E-015  0.9000777E+02  0.7816164E-02  0.1186339E+00
        -11   -1    0    0    0    0  0.00000000000E+00  0.00000000000E+00  0.45593999997E+02  0.45594000000E+02  0.51100000000E-03 0. -1.
         11   -1    0    0    0    0 -0.00000000000E+00 -0.00000000000E+00 -0.45593999997E+02  0.45594000000E+02  0.51100000000E-03 0.  1.
    9900012    2    1    2    0    0  0.52971384412E+00  0.25897958418E+00  0.10223876096E+01  0.90007769681E+02  0.90000031441E+02 0.  0.
        -12    1    1    2    0    0 -0.52971384412E+00 -0.25897958418E+00 -0.10223876096E+01  0.11802303190E+01  0.00000000000E+00 0.  1.
         11    1    3    3    0    0  0.31755432261E+01  0.81249406352E+01  0.38424833677E+01  0.95322302636E+01  0.51100000000E-03 0. -1.
        -11    1    3    3    0    0  0.33668483785E+02  0.72732226349E+01 -0.17308035722E+02  0.38549120206E+02  0.51100000000E-03 0.  1.
         12    1    3    3    0    0 -0.36314313167E+02 -0.15139183686E+02  0.14487939964E+02  0.41926419211E+02  0.00000000000E+00 0. -1.
</event>
<event>
 7    1  0.2497665E-015  0.9000774E+02  0.7816164E-02  0.1186339E+00
        -11   -1    0    0    0    0  0.00000000000E+00  0.00000000000E+00  0.45593999997E+02  0.45594000000E+02  0.51100000000E-03 0.  1.
         11   -1    0    0    0    0 -0.00000000000E+00 -0.00000000000E+00 -0.45593999997E+02  0.45594000000E+02  0.51100000000E-03 0. -1.
    9900012    2    1    2    0    0  0.67769422815E+00 -0.22228999284E+00 -0.94039041637E+00  0.90007738824E+02  0.90000000177E+02 0.  0.
        -12    1    1    2    0    0 -0.67769422815E+00  0.22228999284E+00  0.94039041637E+00  0.11802611758E+01  0.00000000000E+00 0.  1.
         11    1    3    3    0    0  0.46554132332E+01 -0.57493158673E+01 -0.12593454904E+02  0.14605567842E+02  0.51100000000E-03 0. -1.
        -11    1    3    3    0    0  0.30554525647E+02 -0.36279682643E+01  0.22441409497E+02  0.38083566688E+02  0.51100000000E-03 0.  1.
         12    1    3    3    0    0 -0.34532244652E+02  0.91549941388E+01 -0.10788345010E+02  0.37318604294E+02  0.00000000000E+00 0. -1.
</event>
<event>
 7    1  0.2497665E-015  0.9000777E+02  0.7816164E-02  0.1186339E+00
        -11   -1    0    0    0    0  0.00000000000E+00  0.00000000000E+00  0.45593999997E+02  0.45594000000E+02  0.51100000000E-03 0.  1.
         11   -1    0    0    0    0 -0.00000000000E+00 -0.00000000000E+00 -0.45593999997E+02  0.45594000000E+02  0.51100000000E-03 0. -1.
    9900012    2    1    2    0    0 -0.61210368784E+00  0.96749078672E+00 -0.28674878912E+00  0.90007773659E+02  0.90000035472E+02 0.  0.
        -12    1    1    2    0    0  0.61210368784E+00 -0.96749078672E+00  0.28674878912E+00  0.11802263406E+01  0.00000000000E+00 0.  1.
         11    1    3    3    0    0  0.12016126302E+02 -0.32879963150E+02 -0.10386126422E+02  0.36515077576E+02  0.51100000000E-03 0. -1.
        -11    1    3    3    0    0  0.81713827680E+01 -0.96330370267E+00 -0.56599649545E+01  0.99867238829E+01  0.51100000000E-03 0.  1.
        -12    1    3    3    0    0 -0.20799612758E+02  0.34810757640E+02  0.15759342587E+02  0.43505972200E+02  0.00000000000E+00 0.  1.
</event>
<event>
 7    1  0.2497665E-015  0.9000772E+02  0.7816164E-02  0.1186339E+00
        -11   -1    0    0    0    0  0.00000000000E+00  0.00000000000E+00  0.45593999997E+02  0.45594000000E+02  0.51100000000E-03 0.  1.
         11   -1    0    0    0    0 -0.00000000000E+00 -0.00000000000E+00 -0.45593999997E+02  0.45594000000E+02  0.51100000000E-03 0. -1.
    9900012    2    1    2    0    0  0.38833726294E+00  0.96166329552E+00  0.56343169740E+00  0.90007721473E+02  0.89999982596E+02 0.  0.
        -12    1    1    2    0    0 -0.38833726294E+00 -0.96166329552E+00 -0.56343169740E+00  0.11802785270E+01  0.00000000000E+00 0.  1.
         11    1    3    3    0    0 -0.27932666549E+02 -0.21442137359E+02 -0.12518759180E+02  0.37372696541E+02  0.51100000000E-03 0. -1.
        -11    1    3    3    0    0 -0.80588964795E+01  0.93092599908E+01  0.34962584745E+01  0.12799685841E+02  0.51100000000E-03 0.  1.
        -12    1    3    3    0    0  0.36379900292E+02  0.13094540664E+02  0.95859324033E+01  0.39835339091E+02  0.00000000000E+00 0.  1.
</event>
<event>
 7    1  0.2497665E-015  0.9000789E+02  0.7816164E-02  0.1186339E+00
        -11   -1    0    0    0    0  0.00000000000E+00  0.00000000000E+00  0.45593999997E+02  0.45594000000E+02  0.51100000000E-03 0.  1.
         11   -1    0    0    0    0 -0.00000000000E+00 -0.00000000000E+00 -0.45593999997E+02  0.45594000000E+02  0.51100000000E-03 0. -1.
    9900012    2    1    2    0    0 -0.34279042379E+00  0.98675739773E+00 -0.54906605326E+00  0.90007886036E+02  0.90000149332E+02 0.  0.
        -12    1    1    2    0    0  0.34279042379E+00 -0.98675739773E+00  0.54906605326E+00  0.11801139638E+01  0.00000000000E+00 0.  1.
         11    1    3    3    0    0  0.42105055114E+01 -0.34212976144E+02 -0.20470130096E+02  0.40090925653E+02  0.51100000000E-03 0. -1.
        -11    1    3    3    0    0 -0.88533031081E+01  0.76824606841E+00 -0.16796086047E+01  0.90439075222E+01  0.51100000000E-03 0.  1.
        -12    1    3    3    0    0  0.43000071728E+01  0.34431487474E+02  0.21600672648E+02  0.40873052861E+02  0.00000000000E+00 0.  1.
</event>
<event>
 7    1  0.2497665E-015  0.9000771E+02  0.7816164E-02  0.1186339E+00
        -11   -1    0    0    0    0  0.00000000000E+00  0.00000000000E+00  0.45593999997E+02  0.45594000000E+02  0.51100000000E-03 0.  1.
         11   -1    0    0    0    0 -0.00000000000E+00 -0.00000000000E+00 -0.45593999997E+02  0.45594000000E+02  0.51100000000E-03 0. -1.
    9900012    2    1    2    0    0  0.18624705261E+00 -0.79404062477E+00 -0.85317038337E+00  0.90007708434E+02  0.89999969385E+02 0.  0.
        -12    1    1    2    0    0 -0.18624705261E+00  0.79404062477E+00  0.85317038337E+00  0.11802915663E+01  0.00000000000E+00 0.  1.
         11    1    3    3    0    0 -0.23003778326E+02  0.19235877262E+02 -0.83007253472E+01  0.31114222357E+02  0.51100000000E-03 0. -1.
        -11    1    3    3    0    0 -0.62710022034E+01  0.11056468723E+02  0.97242217662E+01  0.16004107550E+02  0.51100000000E-03 0.  1.
        -12    1    3    3    0    0  0.29461027582E+02 -0.31086386610E+02 -0.22766668023E+01  0.42889378527E+02  0.00000000000E+00 0.  1.
</event>
<event>
 7    1  0.2497665E-015  0.9000854E+02  0.7816164E-02  0.1186337E+00
        -11   -1    0    0    0    0  0.00000000000E+00  0.00000000000E+00  0.45593999997E+02  0.45594000000E+02  0.51100000000E-03 0. -1.
         11   -1    0    0    0    0 -0.00000000000E+00 -0.00000000000E+00 -0.45593999997E+02  0.45594000000E+02  0.51100000000E-03 0.  1.
    9900012    2    1    2    0    0  0.10362105368E+01  0.55635451213E+00  0.88697609766E-01  0.90008538307E+02  0.90000810209E+02 0.  0.
        -12    1    1    2    0    0 -0.10362105368E+01 -0.55635451213E+00 -0.88697609766E-01  0.11794616932E+01  0.00000000000E+00 0.  1.
         11    1    3    3    0    0 -0.74213848697E+01  0.45042086156E+01 -0.26037352690E+01  0.90633485119E+01  0.51100000000E-03 0. -1.
        -11    1    3    3    0    0 -0.31891163470E+01  0.29017788187E+02 -0.23323239932E+02  0.37365438785E+02  0.51100000000E-03 0.  1.
         12    1    3    3    0    0  0.11646711754E+02 -0.32965642291E+02  0.26015672811E+02  0.43579751010E+02  0.00000000000E+00 0. -1.
</event>
<event>
 7    1  0.2497665E-015  0.9000756E+02  0.7816164E-02  0.1186339E+00
        -11   -1    0    0    0    0  0.00000000000E+00  0.00000000000E+00  0.45593999997E+02  0.45594000000E+02  0.51100000000E-03 0. -1.
         11   -1    0    0    0    0 -0.00000000000E+00 -0.00000000000E+00 -0.45593999997E+02  0.45594000000E+02  0.51100000000E-03 0.  1.
    9900012    2    1    2    0    0  0.18864287695E+00 -0.25815567897E+00  0.11363180182E+01  0.90007555538E+02  0.89999814471E+02 0.  0.
        -12    1    1    2    0    0 -0.18864287695E+00  0.25815567897E+00 -0.11363180182E+01  0.11804444621E+01  0.00000000000E+00 0.  1.
         11    1    3    3    0    0  0.83855002966E+01  0.24773545457E+01  0.39616178840E+01  0.95993915062E+01  0.51100000000E-03 0. -1.
        -11    1    3    3    0    0 -0.10868835522E+02  0.32551870509E+02 -0.21397198771E+02  0.40442502083E+02  0.51100000000E-03 0.  1.
         12    1    3    3    0    0  0.26719781024E+01 -0.35287380734E+02  0.18571898905E+02  0.39965661948E+02  0.00000000000E+00 0. -1.
</event>
<event>
 7    1  0.2497665E-015  0.9000783E+02  0.7816164E-02  0.1186339E+00
        -11   -1    0    0    0    0  0.00000000000E+00  0.00000000000E+00  0.45593999997E+02  0.45594000000E+02  0.51100000000E-03 0.  1.
         11   -1    0    0    0    0 -0.00000000000E+00 -0.00000000000E+00 -0.45593999997E+02  0.45594000000E+02  0.51100000000E-03 0. -1.
    9900012    2    1    2    0    0  0.88061287950E+00  0.69054279688E+00 -0.37478560129E+00  0.90007833637E+02  0.90000096241E+02 0.  0.
        -12    1    1    2    0    0 -0.88061287950E+00 -0.69054279688E+00  0.37478560129E+00  0.11801663632E+01  0.00000000000E+00 0.  1.
         11    1    3    3    0    0  0.17413735068E+01 -0.12405064111E+02 -0.38328301149E+02  0.40323400979E+02  0.51100000000E-03 0. -1.
        -11    1    3    3    0    0  0.21335734924E+01  0.32228434682E+01 -0.45365558001E+01  0.59597982060E+01  0.51100000000E-03 0.  1.
        -12    1    3    3    0    0 -0.29943341197E+01  0.98727634397E+01  0.42490071348E+02  0.43724634451E+02  0.00000000000E+00 0.  1.
</event>
<event>
 7    1  0.2497665E-015  0.9000785E+02  0.7816164E-02  0.1186339E+00
        -11   -1    0    0    0    0  0.00000000000E+00  0.00000000000E+00  0.45593999997E+02  0.45594000000E+02  0.51100000000E-03 0.  1.
         11   -1    0    0    0    0 -0.00000000000E+00 -0.00000000000E+00 -0.45593999997E+02  0.45594000000E+02  0.51100000000E-03 0. -1.
    9900012    2    1    2    0    0  0.39515320356E+00  0.10683281284E+01 -0.30867219774E+00  0.90007851887E+02  0.90000114731E+02 0.  0.
        -12    1    1    2    0    0 -0.39515320356E+00 -0.10683281284E+01  0.30867219774E+00  0.11801481135E+01  0.00000000000E+00 0.  1.
         11    1    3    3    0    0 -0.19175424491E+02  0.17779861089E+02 -0.13051365967E+02  0.29225990464E+02  0.51100000000E-03 0. -1.
        -11    1    3    3    0    0 -0.40280698632E+01  0.17406966174E+02  0.23996857095E+01  0.18027376680E+02  0.51100000000E-03 0.  1.
        -12    1    3    3    0    0  0.23598647558E+02 -0.34118499135E+02  0.10343008060E+02  0.42754484742E+02  0.00000000000E+00 0.  1.
</event>
<event>
 7    1  0.2497665E-015  0.9000774E+02  0.7816164E-02  0.1186339E+00
        -11   -1    0    0    0    0  0.00000000000E+00  0.00000000000E+00  0.45593999997E+02  0.45594000000E+02  0.51100000000E-03 0. -1.
         11   -1    0    0    0    0 -0.00000000000E+00 -0.00000000000E+00 -0.45593999997E+02  0.45594000000E+02  0.51100000000E-03 0.  1.
    9900012    2    1    2    0    0  0.63277690216E+00 -0.92335291906E+00  0.37421296146E+00  0.90007736232E+02  0.89999997550E+02 0.  0.
        -12    1    1    2    0    0 -0.63277690216E+00  0.92335291906E+00 -0.37421296146E+00  0.11802637678E+01  0.00000000000E+00 0.  1.
         11    1    3    3    0    0  0.20792379625E+02  0.14275730117E+02  0.29728752118E+02  0.38986128605E+02  0.51100000000E-03 0. -1.
        -11    1    3    3    0    0  0.66705192977E+00 -0.94312463174E+01  0.48007303921E+01  0.10603790734E+02  0.51100000000E-03 0.  1.
        -12    1    3    3    0    0 -0.20826654653E+02 -0.57678367191E+01 -0.34155269549E+02  0.40417816893E+02  0.00000000000E+00 0.  1.
</event>
<event>
 7    1  0.2497665E-015  0.9000768E+02  0.7816164E-02  0.1186339E+00
        -11   -1    0    0    0    0  0.00000000000E+00  0.00000000000E+00  0.45593999997E+02  0.45594000000E+02  0.51100000000E-03 0.  1.
         11   -1    0    0    0    0 -0.00000000000E+00 -0.00000000000E+00 -0.45593999997E+02  0.45594000000E+02  0.51100000000E-03 0. -1.
    9900012    2    1    2    0    0  0.44174371948E+00 -0.10865517879E+01 -0.13199756984E+00  0.90007679849E+02  0.89999940423E+02 0.  0.
        -12    1    1    2    0    0 -0.44174371948E+00  0.10865517879E+01  0.13199756984E+00  0.11803201514E+01  0.00000000000E+00 0.  1.
         11    1    3    3    0    0 -0.20773355334E+02  0.28896622249E+02  0.51227033452E+01  0.35955377331E+02  0.51100000000E-03 0. -1.
        -11    1    3    3    0    0 -0.21532056928E+01  0.76006654644E+01 -0.57872212551E+01  0.97927698009E+01  0.51100000000E-03 0.  1.
        -12    1    3    3    0    0  0.23368304746E+02 -0.37583839501E+02  0.53252034001E+00  0.44259532716E+02  0.00000000000E+00 0.  1.
</event>
<event>
 7    1  0.2497665E-015  0.9000794E+02  0.7816164E-02  0.1186339E+00
        -11   -1    0    0    0    0  0.00000000000E+00  0.00000000000E+00  0.45593999997E+02  0.45594000000E+02  0.51100000000E-03 0.  1.
         11   -1    0    0    0    0 -0.00000000000E+00 -0.00000000000E+00 -0.45593999997E+02  0.45594000000E+02  0.51100000000E-03 0. -1.
    9900012    2    1    2    0    0  0.22310667556E+00  0.10310106604E+01 -0.52894395041E+00  0.90007940140E+02  0.90000204150E+02 0.  0.
        -12    1    1    2    0    0 -0.22310667556E+00 -0.10310106604E+01  0.52894395041E+00  0.11800598600E+01  0.00000000000E+00 0.  1.
         11    1    3    3    0    0 -0.27291332963E+02 -0.28063622569E+02 -0.39611261005E+01  0.39345575188E+02  0.51100000000E-03 0. -1.
        -11    1    3    3    0    0  0.61845382984E+01 -0.45134062959E+01 -0.60324283195E+01  0.97472838292E+01  0.51100000000E-03 0.  1.
        -12    1    3    3    0    0  0.21329901340E+02  0.33608039526E+02  0.94646104696E+01  0.40915081123E+02  0.00000000000E+00 0.  1.
</event>
<event>
 7    1  0.2497665E-015  0.9000780E+02  0.7816164E-02  0.1186339E+00
        -11   -1    0    0    0    0  0.00000000000E+00  0.00000000000E+00  0.45593999997E+02  0.45594000000E+02  0.51100000000E-03 0.  1.
         11   -1    0    0    0    0 -0.00000000000E+00 -0.00000000000E+00 -0.45593999997E+02  0.45594000000E+02  0.51100000000E-03 0. -1.
    9900012    2    1    2    0    0  0.59268020332E+00  0.26458544898E+00 -0.98569293152E+00  0.90007802627E+02  0.90000064822E+02 0.  0.
        -12    1    1    2    0    0 -0.59268020332E+00 -0.26458544898E+00  0.98569293152E+00  0.11801973727E+01  0.00000000000E+00 0.  1.
         11    1    3    3    0    0 -0.50456084115E+01  0.11615143991E+02 -0.34078135349E+02  0.36355041511E+02  0.51100000000E-03 0. -1.
        -11    1    3    3    0    0 -0.23313121843E+01 -0.23261425173E+01 -0.91518068583E+01  0.97263315050E+01  0.51100000000E-03 0.  1.
        -12    1    3    3    0    0  0.79696007991E+01 -0.90244160251E+01  0.42244249276E+02  0.43926429611E+02  0.00000000000E+00 0.  1.
</event>
<event>
 7    1  0.2497665E-015  0.9000747E+02  0.7816164E-02  0.1186340E+00
        -11   -1    0    0    0    0  0.00000000000E+00  0.00000000000E+00  0.45593999997E+02  0.45594000000E+02  0.51100000000E-03 0.  1.
         11   -1    0    0    0    0 -0.00000000000E+00 -0.00000000000E+00 -0.45593999997E+02  0.45594000000E+02  0.51100000000E-03 0. -1.
    9900012    2    1    2    0    0  0.11592342866E+01  0.17901325352E+00 -0.13336257861E+00  0.90007468148E+02  0.89999725927E+02 0.  0.
        -12    1    1    2    0    0 -0.11592342866E+01 -0.17901325352E+00  0.13336257861E+00  0.11805318520E+01  0.00000000000E+00 0.  1.
         11    1    3    3    0    0 -0.58878041510E+01  0.37627114469E+02  0.57745081544E+01  0.38520266428E+02  0.51100000000E-03 0. -1.
        -11    1    3    3    0    0 -0.76644640298E+01  0.15486265184E+01 -0.59203480742E+01  0.98077915220E+01  0.51100000000E-03 0.  1.
        -12    1    3    3    0    0  0.14711502467E+02 -0.38996727734E+02  0.12477341262E-01  0.41679410198E+02  0.00000000000E+00 0.  1.
</event>
<event>
 7    1  0.2497665E-015  0.9000764E+02  0.7816164E-02  0.1186339E+00
        -11   -1    0    0    0    0  0.00000000000E+00  0.00000000000E+00  0.45593999997E+02  0.45594000000E+02  0.51100000000E-03 0. -1.
         11   -1    0    0    0    0 -0.00000000000E+00 -0.00000000000E+00 -0.45593999997E+02  0.45594000000E+02  0.51100000000E-03 0.  1.
    9900012    2    1    2    0    0  0.57250549515E+00  0.59978835386E+00  0.84008413706E+00  0.90007639899E+02  0.89999899945E+02 0.  0.
        -12    1    1    2    0    0 -0.57250549515E+00 -0.59978835386E+00 -0.84008413706E+00  0.11803601013E+01  0.00000000000E+00 0.  1.
         11    1    3    3    0    0 -0.24058259000E+02  0.27679775302E+02  0.61291081417E+01  0.37182465676E+02  0.51100000000E-03 0. -1.
        -11    1    3    3    0    0 -0.19076541701E+01  0.43321437970E+01  0.82671889007E+01  0.95264383109E+01  0.51100000000E-03 0.  1.
        -12    1    3    3    0    0  0.26538418665E+02 -0.31412130745E+02 -0.13556212905E+02  0.43298735912E+02  0.00000000000E+00 0.  1.
</event>
<event>
 7    1  0.2497665E-015  0.9000746E+02  0.7816164E-02  0.1186340E+00
        -11   -1    0    0    0    0  0.00000000000E+00  0.00000000000E+00  0.45593999997E+02  0.45594000000E+02  0.51100000000E-03 0.  1.
         11   -1    0    0    0    0 -0.00000000000E+00 -0.00000000000E+00 -0.45593999997E+02  0.45594000000E+02  0.51100000000E-03 0. -1.
    9900012    2    1    2    0    0 -0.23215343038E+00 -0.38350131218E+00 -0.10921099577E+01  0.90007460873E+02  0.89999718556E+02 0.  0.
        -12    1    1    2    0    0  0.23215343038E+00  0.38350131218E+00  0.10921099577E+01  0.11805391274E+01  0.00000000000E+00 0.  1.
         11    1    3    3    0    0 -0.31525609625E+02  0.18683004854E+02  0.12523615059E+02  0.38726730653E+02  0.51100000000E-03 0. -1.
        -11    1    3    3    0    0 -0.65562044974E+01 -0.72068003335E+01 -0.19433664039E+01  0.99347099454E+01  0.51100000000E-03 0.  1.
        -12    1    3    3    0    0  0.37849660692E+02 -0.11859705833E+02 -0.11672358613E+02  0.41346020275E+02  0.00000000000E+00 0.  1.
</event>
<event>
 7    1  0.2497665E-015  0.9000773E+02  0.7816164E-02  0.1186339E+00
        -11   -1    0    0    0    0  0.00000000000E+00  0.00000000000E+00  0.45593999997E+02  0.45594000000E+02  0.51100000000E-03 0.  1.
         11   -1    0    0    0    0 -0.00000000000E+00 -0.00000000000E+00 -0.45593999997E+02  0.45594000000E+02  0.51100000000E-03 0. -1.
    9900012    2    1    2    0    0 -0.81774060333E+00  0.16124530891E-01 -0.85092509578E+00  0.90007731720E+02  0.89999992978E+02 0.  0.
        -12    1    1    2    0    0  0.81774060333E+00 -0.16124530891E-01  0.85092509578E+00  0.11802682803E+01  0.00000000000E+00 0.  1.
         11    1    3    3    0    0 -0.27622122503E+01  0.37040794835E+01  0.84801889254E+01  0.96573094497E+01  0.51100000000E-03 0. -1.
        -11    1    3    3    0    0  0.14640976457E+02 -0.34587487753E+02  0.13473825466E+02  0.39902336694E+02  0.51100000000E-03 0.  1.
         12    1    3    3    0    0 -0.12696504810E+02  0.30899532801E+02 -0.22804939488E+02  0.40448085576E+02  0.00000000000E+00 0. -1.
</event>
<event>
 7    1  0.2497665E-015  0.9000771E+02  0.7816164E-02  0.1186339E+00
        -11   -1    0    0    0    0  0.00000000000E+00  0.00000000000E+00  0.45593999997E+02  0.45594000000E+02  0.51100000000E-03 0.  1.
         11   -1    0    0    0    0 -0.00000000000E+00 -0.00000000000E+00 -0.45593999997E+02  0.45594000000E+02  0.51100000000E-03 0. -1.
    9900012    2    1    2    0    0  0.70478935868E+00 -0.89959806961E+00 -0.29510621902E+00  0.90007706643E+02  0.89999967571E+02 0.  0.
        -12    1    1    2    0    0 -0.70478935868E+00  0.89959806961E+00  0.29510621902E+00  0.11802933565E+01  0.00000000000E+00 0.  1.
         11    1    3    3    0    0 -0.44430502760E+01 -0.86782388085E+01  0.15776908585E+01  0.98763167871E+01  0.51100000000E-03 0. -1.
        -11    1    3    3    0    0 -0.30286570597E+02 -0.52610547561E+01  0.19829744333E+02  0.36581058162E+02  0.51100000000E-03 0.  1.
         12    1    3    3    0    0  0.35434410232E+02  0.13039695495E+02 -0.21702541410E+02  0.43550331695E+02  0.00000000000E+00 0. -1.
</event>
<event>
 7    1  0.2497665E-015  0.9000784E+02  0.7816164E-02  0.1186339E+00
        -11   -1    0    0    0    0  0.00000000000E+00  0.00000000000E+00  0.45593999997E+02  0.45594000000E+02  0.51100000000E-03 0. -1.
         11   -1    0    0    0    0 -0.00000000000E+00 -0.00000000000E+00 -0.45593999997E+02  0.45594000000E+02  0.51100000000E-03 0.  1.
    9900012    2    1    2    0    0 -0.57795653935E+00 -0.72794234477E+00 -0.72720965775E+00  0.90007844203E+02  0.90000106946E+02 0.  0.
        -12    1    1    2    0    0  0.57795653935E+00  0.72794234477E+00  0.72720965775E+00  0.11801557969E+01  0.00000000000E+00 0.  1.
         11    1    3    3    0    0  0.80257236554E+01  0.17239413581E+01  0.19569954355E+01  0.84388414723E+01  0.51100000000E-03 0. -1.
        -11    1    3    3    0    0  0.34045803638E+02 -0.14673717917E+02 -0.30804016211E+01  0.37201123871E+02  0.51100000000E-03 0.  1.
         12    1    3    3    0    0 -0.42649483833E+02  0.12221834214E+02  0.39619652777E+00  0.44367878859E+02  0.00000000000E+00 0. -1.
</event>
<event>
 7    1  0.2497665E-015  0.9000777E+02  0.7816164E-02  0.1186339E+00
        -11   -1    0    0    0    0  0.00000000000E+00  0.00000000000E+00  0.45593999997E+02  0.45594000000E+02  0.51100000000E-03 0. -1.
         11   -1    0    0    0    0 -0.00000000000E+00 -0.00000000000E+00 -0.45593999997E+02  0.45594000000E+02  0.51100000000E-03 0.  1.
    9900012    2    1    2    0    0  0.84002049213E+00 -0.49132199577E+00  0.66776388328E+00  0.90007771067E+02  0.90000032845E+02 0.  0.
        -12    1    1    2    0    0 -0.84002049213E+00  0.49132199577E+00 -0.66776388328E+00  0.11802289331E+01  0.00000000000E+00 0.  1.
         11    1    3    3    0    0 -0.29415552106E+02  0.43143756739E+01  0.21317248374E+02  0.36582969011E+02  0.51100000000E-03 0. -1.
        -11    1    3    3    0    0 -0.41725858689E+01 -0.29521517377E+01  0.73893207453E+01  0.89848613820E+01  0.51100000000E-03 0.  1.
        -12    1    3    3    0    0  0.34428158467E+02 -0.18535459320E+01 -0.28038805236E+02  0.44439940673E+02  0.00000000000E+00 0.  1.
</event>
<event>
 7    1  0.2497665E-015  0.9000785E+02  0.7816164E-02  0.1186339E+00
        -11   -1    0    0    0    0  0.00000000000E+00  0.00000000000E+00  0.45593999997E+02  0.45594000000E+02  0.51100000000E-03 0.  1.
         11   -1    0    0    0    0 -0.00000000000E+00 -0.00000000000E+00 -0.45593999997E+02  0.45594000000E+02  0.51100000000E-03 0. -1.
    9900012    2    1    2    0    0  0.30984244292E+00 -0.91855263904E+00 -0.67306724182E+00  0.90007847128E+02  0.90000109910E+02 0.  0.
        -12    1    1    2    0    0 -0.30984244292E+00  0.91855263904E+00  0.67306724182E+00  0.11801528724E+01  0.00000000000E+00 0.  1.
         11    1    3    3    0    0 -0.23444481303E+02 -0.34049352826E+01 -0.31219334560E+02  0.39190357723E+02  0.51100000000E-03 0. -1.
        -11    1    3    3    0    0  0.20320176171E+01 -0.26527934004E+01 -0.66471610043E+01  0.74398358919E+01  0.51100000000E-03 0.  1.
        -12    1    3    3    0    0  0.21722306128E+02  0.51391760439E+01  0.37193428322E+02  0.43377653513E+02  0.00000000000E+00 0.  1.
</event>
<event>
 7    1  0.2497665E-015  0.9000772E+02  0.7816164E-02  0.1186339E+00
        -11   -1    0    0    0    0  0.00000000000E+00  0.00000000000E+00  0.45593999997E+02  0.45594000000E+02  0.51100000000E-03 0. -1.
         11   -1    0    0    0    0 -0.00000000000E+00 -0.00000000000E+00 -0.45593999997E+02  0.45594000000E+02  0.51100000000E-03 0.  1.
    9900012    2    1    2    0    0  0.10554766943E+01 -0.33478568823E+00  0.40859477081E+00  0.90007719442E+02  0.89999980538E+02 0.  0.
        -12    1    1    2    0    0 -0.10554766943E+01  0.33478568823E+00 -0.40859477081E+00  0.11802805582E+01  0.00000000000E+00 0.  1.
         11    1    3    3    0    0 -0.49777711071E+01  0.47357651235E+01  0.26745053537E+01  0.73728322677E+01  0.51100000000E-03 0. -1.
        -11    1    3    3    0    0 -0.84607053602E+01  0.24873489302E+02 -0.29600046623E+02  0.39578236009E+02  0.51100000000E-03 0.  1.
         12    1    3    3    0    0  0.14493953162E+02 -0.29944040113E+02  0.27334136040E+02  0.43056651166E+02  0.00000000000E+00 0. -1.
</event>
<event>
 7    1  0.2497665E-015  0.9000769E+02  0.7816164E-02  0.1186339E+00
        -11   -1    0    0    0    0  0.00000000000E+00  0.00000000000E+00  0.45593999997E+02  0.45594000000E+02  0.51100000000E-03 0. -1.
         11   -1    0    0    0    0 -0.00000000000E+00 -0.00000000000E+00 -0.45593999997E+02  0.45594000000E+02  0.51100000000E-03 0.  1.
    9900012    2    1    2    0    0  0.75145455851E+00 -0.27535361336E+00  0.86754165020E+00  0.90007689837E+02  0.89999950543E+02 0.  0.
        -12    1    1    2    0    0 -0.75145455851E+00  0.27535361336E+00 -0.86754165020E+00  0.11803101629E+01  0.00000000000E+00 0.  1.
         11    1    3    3    0    0 -0.87100455801E+01  0.23128692069E+01  0.13875251498E+01  0.91180855599E+01  0.51100000000E-03 0. -1.
        -11    1    3    3    0    0 -0.14742697377E+02  0.11790771076E+02 -0.32931274511E+02  0.37958375225E+02  0.51100000000E-03 0.  1.
         12    1    3    3    0    0  0.24204197516E+02 -0.14378993897E+02  0.32411291012E+02  0.42931229052E+02  0.00000000000E+00 0. -1.
</event>
<event>
 7    1  0.2497665E-015  0.9000776E+02  0.7816164E-02  0.1186339E+00
        -11   -1    0    0    0    0  0.00000000000E+00  0.00000000000E+00  0.45593999997E+02  0.45594000000E+02  0.51100000000E-03 0.  1.
         11   -1    0    0    0    0 -0.00000000000E+00 -0.00000000000E+00 -0.45593999997E+02  0.45594000000E+02  0.51100000000E-03 0. -1.
    9900012    2    1    2    0    0 -0.75820087967E+00 -0.31926173508E+00 -0.84626543217E+00  0.90007761968E+02  0.90000023626E+02 0.  0.
        -12    1    1    2    0    0  0.75820087967E+00  0.31926173508E+00  0.84626543217E+00  0.11802380315E+01  0.00000000000E+00 0.  1.
         11    1    3    3    0    0  0.26160316843E+02  0.10368123914E+02  0.23291466995E+01  0.28236237275E+02  0.51100000000E-03 0. -1.
        -11    1    3    3    0    0  0.16769037317E+02 -0.55903773678E+01 -0.17767442484E+01  0.17765408862E+02  0.51100000000E-03 0.  1.
        -12    1    3    3    0    0 -0.43687555040E+02 -0.50970082811E+01 -0.13986678833E+01  0.44006115832E+02  0.00000000000E+00 0.  1.
</event>
<event>
 7    1  0.3273632E-015  0.9000787E+02  0.7816164E-02  0.1186339E+00
        -11   -1    0    0    0    0  0.00000000000E+00  0.00000000000E+00  0.45593999997E+02  0.45594000000E+02  0.51100000000E-03 0. -1.
         11   -1    0    0    0    0 -0.00000000000E+00 -0.00000000000E+00 -0.45593999997E+02  0.45594000000E+02  0.51100000000E-03 0.  1.
    9900012    2    1    2    0    0  0.58509479363E+00 -0.37222458000E+00  0.95489865264E+00  0.90007865053E+02  0.90000128072E+02 0.  0.
        -12    1    1    2    0    0 -0.58509479363E+00  0.37222458000E+00 -0.95489865264E+00  0.11801349467E+01  0.00000000000E+00 0.  1.
         11    1    3    3    0    0  0.26129691456E+02  0.58742360195E+01  0.28211302121E+02  0.38899164413E+02  0.51100000000E-03 0. -1.
        -11    1    3    3    0    0 -0.46042977636E+01  0.24342355094E+01  0.77897384664E+01  0.93704368120E+01  0.51100000000E-03 0.  1.
        -12    1    3    3    0    0 -0.20940298899E+02 -0.86806961088E+01 -0.35046141935E+02  0.41738263828E+02  0.00000000000E+00 0.  1.
</event>
<event>
 7    1  0.2497665E-015  0.9000773E+02  0.7816164E-02  0.1186339E+00
        -11   -1    0    0    0    0  0.00000000000E+00  0.00000000000E+00  0.45593999997E+02  0.45594000000E+02  0.51100000000E-03 0.  1.
         11   -1    0    0    0    0 -0.00000000000E+00 -0.00000000000E+00 -0.45593999997E+02  0.45594000000E+02  0.51100000000E-03 0. -1.
    9900012    2    1    2    0    0 -0.17856739713E+00  0.19735267214E+00 -0.11498756136E+01  0.90007725320E+02  0.89999986495E+02 0.  0.
        -12    1    1    2    0    0  0.17856739713E+00 -0.19735267214E+00  0.11498756136E+01  0.11802746796E+01  0.00000000000E+00 0.  1.
         11    1    3    3    0    0 -0.20247448789E+02  0.13654105499E+02 -0.29875143673E+02  0.38586500090E+02  0.51100000000E-03 0. -1.
        -11    1    3    3    0    0  0.25064368869E+00 -0.87143069271E+01 -0.63986155198E+01  0.10814076397E+02  0.51100000000E-03 0.  1.
        -12    1    3    3    0    0  0.19818237704E+02 -0.47424458999E+01  0.35123883579E+02  0.40607148834E+02  0.00000000000E+00 0.  1.
</event>
<event>
 7    1  0.2497665E-015  0.9000775E+02  0.7816164E-02  0.1186339E+00
        -11   -1    0    0    0    0  0.00000000000E+00  0.00000000000E+00  0.45593999997E+02  0.45594000000E+02  0.51100000000E-03 0.  1.
         11   -1    0    0    0    0 -0.00000000000E+00 -0.00000000000E+00 -0.45593999997E+02  0.45594000000E+02  0.51100000000E-03 0. -1.
    9900012    2    1    2    0    0 -0.37071962539E-01 -0.11753493331E+01  0.10087134868E+00  0.90007747733E+02  0.90000009203E+02 0.  0.
        -12    1    1    2    0    0  0.37071962539E-01  0.11753493331E+01 -0.10087134868E+00  0.11802522672E+01  0.00000000000E+00 0.  1.
         11    1    3    3    0    0 -0.24604267603E+02 -0.23203034739E+01  0.29203583441E+02  0.38257065734E+02  0.51100000000E-03 0. -1.
        -11    1    3    3    0    0  0.61442047348E+01  0.13577216696E+01  0.80874041017E+01  0.10246988110E+02  0.51100000000E-03 0.  1.
        -12    1    3    3    0    0  0.18422990906E+02 -0.21276752877E+00 -0.37190116194E+02  0.41503693889E+02  0.00000000000E+00 0.  1.
</event>
<event>
 7    1  0.2497665E-015  0.9000769E+02  0.7816164E-02  0.1186339E+00
        -11   -1    0    0    0    0  0.00000000000E+00  0.00000000000E+00  0.45593999997E+02  0.45594000000E+02  0.51100000000E-03 0. -1.
         11   -1    0    0    0    0 -0.00000000000E+00 -0.00000000000E+00 -0.45593999997E+02  0.45594000000E+02  0.51100000000E-03 0.  1.
    9900012    2    1    2    0    0 -0.13122492525E+00 -0.89766531468E+00  0.75505084853E+00  0.90007692929E+02  0.89999953676E+02 0.  0.
        -12    1    1    2    0    0  0.13122492525E+00  0.89766531468E+00 -0.75505084853E+00  0.11803070711E+01  0.00000000000E+00 0.  1.
         11    1    3    3    0    0  0.34600356409E+02  0.43413603005E+01  0.33969543393E+01  0.35036714628E+02  0.51100000000E-03 0. -1.
        -11    1    3    3    0    0  0.68963676145E+01  0.43329164841E+01  0.74971690416E+01  0.11069850741E+02  0.51100000000E-03 0.  1.
        -12    1    3    3    0    0 -0.41627948948E+02 -0.95719420993E+01 -0.10139072532E+02  0.43901127560E+02  0.00000000000E+00 0.  1.
</event>
<event>
 7    1  0.2497665E-015  0.9000775E+02  0.7816164E-02  0.1186339E+00
        -11   -1    0    0    0    0  0.00000000000E+00  0.00000000000E+00  0.45593999997E+02  0.45594000000E+02  0.51100000000E-03 0.  1.
         11   -1    0    0    0    0 -0.00000000000E+00 -0.00000000000E+00 -0.45593999997E+02  0.45594000000E+02  0.51100000000E-03 0. -1.
    9900012    2    1    2    0    0  0.11047162821E+01  0.27805792171E+00  0.30865497226E+00  0.90007753346E+02  0.90000014890E+02 0.  0.
        -12    1    1    2    0    0 -0.11047162821E+01 -0.27805792171E+00 -0.30865497226E+00  0.11802466537E+01  0.00000000000E+00 0.  1.
         11    1    3    3    0    0 -0.35058208914E+01 -0.72402072648E+01  0.78993351932E+01  0.11274346017E+02  0.51100000000E-03 0. -1.
        -11    1    3    3    0    0 -0.14583479500E+02  0.14985870730E+02  0.29588021994E+02  0.36231274359E+02  0.51100000000E-03 0.  1.
         12    1    3    3    0    0  0.19194016674E+02 -0.74676055435E+01 -0.37178702215E+02  0.42502132970E+02  0.00000000000E+00 0. -1.
</event>
<event>
 7    1  0.2497665E-015  0.9000774E+02  0.7816164E-02  0.1186339E+00
        -11   -1    0    0    0    0  0.00000000000E+00  0.00000000000E+00  0.45593999997E+02  0.45594000000E+02  0.51100000000E-03 0. -1.
         11   -1    0    0    0    0 -0.00000000000E+00 -0.00000000000E+00 -0.45593999997E+02  0.45594000000E+02  0.51100000000E-03 0.  1.
    9900012    2    1    2    0    0 -0.83367710815E+00  0.79554254454E+00 -0.25515932277E+00  0.90007740816E+02  0.90000002195E+02 0.  0.
        -12    1    1    2    0    0  0.83367710815E+00 -0.79554254454E+00  0.25515932277E+00  0.11802591837E+01  0.00000000000E+00 0.  1.
         11    1    3    3    0    0 -0.48050855769E+01  0.49595287533E+01 -0.64949431526E+01  0.94799820502E+01  0.51100000000E-03 0. -1.
        -11    1    3    3    0    0 -0.24565180602E+02  0.77480378638E+01 -0.25478362303E+02  0.36230196448E+02  0.51100000000E-03 0.  1.
         12    1    3    3    0    0  0.28536589071E+02 -0.11912024073E+02  0.31718146132E+02  0.44297562319E+02  0.00000000000E+00 0. -1.
</event>
<event>
 7    1  0.2497665E-015  0.9000770E+02  0.7816164E-02  0.1186339E+00
        -11   -1    0    0    0    0  0.00000000000E+00  0.00000000000E+00  0.45593999997E+02  0.45594000000E+02  0.51100000000E-03 0.  1.
         11   -1    0    0    0    0 -0.00000000000E+00 -0.00000000000E+00 -0.45593999997E+02  0.45594000000E+02  0.51100000000E-03 0. -1.
    9900012    2    1    2    0    0  0.82609913120E+00  0.18482208165E+00  0.82249807976E+00  0.90007702551E+02  0.89999963425E+02 0.  0.
        -12    1    1    2    0    0 -0.82609913120E+00 -0.18482208165E+00 -0.82249807976E+00  0.11802974488E+01  0.00000000000E+00 0.  1.
         11    1    3    3    0    0  0.91541601371E+01 -0.14512733606E+01 -0.27153076287E+01  0.96580400684E+01  0.51100000000E-03 0. -1.
        -11    1    3    3    0    0  0.26577638494E+02 -0.23863147555E+02 -0.56328845404E+01  0.36160061776E+02  0.51100000000E-03 0.  1.
         12    1    3    3    0    0 -0.34905699500E+02  0.25499242997E+02  0.91706902489E+01  0.44189600707E+02  0.00000000000E+00 0. -1.
</event>
<event>
 7    1  0.2497665E-015  0.9000775E+02  0.7816164E-02  0.1186339E+00
        -11   -1    0    0    0    0  0.00000000000E+00  0.00000000000E+00  0.45593999997E+02  0.45594000000E+02  0.51100000000E-03 0.  1.
         11   -1    0    0    0    0 -0.00000000000E+00 -0.00000000000E+00 -0.45593999997E+02  0.45594000000E+02  0.51100000000E-03 0. -1.
    9900012    2    1    2    0    0  0.29147211972E+00 -0.84670277807E+00 -0.76885051085E+00  0.90007748883E+02  0.90000010368E+02 0.  0.
        -12    1    1    2    0    0 -0.29147211972E+00  0.84670277807E+00  0.76885051085E+00  0.11802511169E+01  0.00000000000E+00 0.  1.
         11    1    3    3    0    0 -0.12222888753E+02 -0.10085995335E+02 -0.71421611320E+01  0.17382082076E+02  0.51100000000E-03 0. -1.
        -11    1    3    3    0    0  0.20520264686E+02 -0.15754737547E+02  0.28360604485E+02  0.38387718152E+02  0.51100000000E-03 0.  1.
         12    1    3    3    0    0 -0.80059038125E+01  0.24994030104E+02 -0.21987293863E+02  0.34237948655E+02  0.00000000000E+00 0. -1.
</event>
<event>
 7    1  0.2497665E-015  0.9000771E+02  0.7816164E-02  0.1186339E+00
        -11   -1    0    0    0    0  0.00000000000E+00  0.00000000000E+00  0.45593999997E+02  0.45594000000E+02  0.51100000000E-03 0.  1.
         11   -1    0    0    0    0 -0.00000000000E+00 -0.00000000000E+00 -0.45593999997E+02  0.45594000000E+02  0.51100000000E-03 0. -1.
    9900012    2    1    2    0    0 -0.46996102752E-01 -0.11429158233E+01 -0.29091310272E+00  0.90007705271E+02  0.89999966181E+02 0.  0.
        -12    1    1    2    0    0  0.46996102752E-01  0.11429158233E+01  0.29091310272E+00  0.11802947285E+01  0.00000000000E+00 0.  1.
         11    1    3    3    0    0  0.60283727343E+01  0.28260789908E+02  0.22480860828E+02  0.36611509500E+02  0.51100000000E-03 0. -1.
        -11    1    3    3    0    0 -0.55951276666E+01  0.59571829923E+01  0.39445105698E+01  0.90748359052E+01  0.51100000000E-03 0.  1.
        -12    1    3    3    0    0 -0.48024117048E+00 -0.35360888724E+02 -0.26716284500E+02  0.44321359866E+02  0.00000000000E+00 0.  1.
</event>
<event>
 7    1  0.2497665E-015  0.9000781E+02  0.7816164E-02  0.1186339E+00
        -11   -1    0    0    0    0  0.00000000000E+00  0.00000000000E+00  0.45593999997E+02  0.45594000000E+02  0.51100000000E-03 0. -1.
         11   -1    0    0    0    0 -0.00000000000E+00 -0.00000000000E+00 -0.45593999997E+02  0.45594000000E+02  0.51100000000E-03 0.  1.
    9900012    2    1    2    0    0 -0.64739546450E+00 -0.96005066243E+00  0.22808181253E+00  0.90007813796E+02  0.90000076139E+02 0.  0.
        -12    1    1    2    0    0  0.64739546450E+00  0.96005066243E+00 -0.22808181253E+00  0.11801862036E+01  0.00000000000E+00 0.  1.
         11    1    3    3    0    0 -0.61690509398E+01  0.39080521865E+02  0.55878850452E+01  0.39957087460E+02  0.51100000000E-03 0. -1.
        -11    1    3    3    0    0 -0.76305227376E+01 -0.21052151067E+01  0.39328424763E+01  0.88387814827E+01  0.51100000000E-03 0.  1.
        -12    1    3    3    0    0  0.13152178213E+02 -0.37935357421E+02 -0.92926457090E+01  0.41211944854E+02  0.00000000000E+00 0.  1.
</event>
<event>
 7    1  0.2497665E-015  0.9000778E+02  0.7816164E-02  0.1186339E+00
        -11   -1    0    0    0    0  0.00000000000E+00  0.00000000000E+00  0.45593999997E+02  0.45594000000E+02  0.51100000000E-03 0.  1.
         11   -1    0    0    0    0 -0.00000000000E+00 -0.00000000000E+00 -0.45593999997E+02  0.45594000000E+02  0.51100000000E-03 0. -1.
    9900012    2    1    2    0    0 -0.33264329060E+00  0.85560719485E+00 -0.74175017237E+00  0.90007784533E+02  0.90000046489E+02 0.  0.
        -12    1    1    2    0    0  0.33264329060E+00 -0.85560719485E+00  0.74175017237E+00  0.11802154671E+01  0.00000000000E+00 0.  1.
         11    1    3    3    0    0  0.16084445598E+02 -0.23285798270E+02 -0.24089196942E+02  0.37164865139E+02  0.51100000000E-03 0. -1.
        -11    1    3    3    0    0  0.14128038571E+00  0.43452281042E+00 -0.92537441269E+01  0.92650175848E+01  0.51100000000E-03 0.  1.
        -12    1    3    3    0    0 -0.16558369274E+02  0.23706882654E+02  0.32601190896E+02  0.43577901809E+02  0.00000000000E+00 0.  1.
</event>
<event>
 7    1  0.2497665E-015  0.9000772E+02  0.7816164E-02  0.1186339E+00
        -11   -1    0    0    0    0  0.00000000000E+00  0.00000000000E+00  0.45593999997E+02  0.45594000000E+02  0.51100000000E-03 0.  1.
         11   -1    0    0    0    0 -0.00000000000E+00 -0.00000000000E+00 -0.45593999997E+02  0.45594000000E+02  0.51100000000E-03 0. -1.
    9900012    2    1    2    0    0 -0.84269807400E+00 -0.66084147679E+00 -0.49619357487E+00  0.90007720556E+02  0.89999981668E+02 0.  0.
        -12    1    1    2    0    0  0.84269807400E+00  0.66084147679E+00  0.49619357487E+00  0.11802794437E+01  0.00000000000E+00 0.  1.
         11    1    3    3    0    0  0.34208095888E+02 -0.52864031232E+01 -0.21744368701E+02  0.40877346449E+02  0.51100000000E-03 0. -1.
        -11    1    3    3    0    0  0.38222533295E+01  0.35186678238E+01  0.41476270926E+01  0.66478157713E+01  0.51100000000E-03 0.  1.
        -12    1    3    3    0    0 -0.38873047292E+02  0.11068938226E+01  0.17100548033E+02  0.42482558336E+02  0.00000000000E+00 0.  1.
</event>
<event>
 7    1  0.2497665E-015  0.9000774E+02  0.7816164E-02  0.1186339E+00
        -11   -1    0    0    0    0  0.00000000000E+00  0.00000000000E+00  0.45593999997E+02  0.45594000000E+02  0.51100000000E-03 0. -1.
         11   -1    0    0    0    0 -0.00000000000E+00 -0.00000000000E+00 -0.45593999997E+02  0.45594000000E+02  0.51100000000E-03 0.  1.
    9900012    2    1    2    0    0 -0.10139150596E+01 -0.59273272217E+00 -0.11689852023E+00  0.90007736855E+02  0.89999998181E+02 0.  0.
        -12    1    1    2    0    0  0.10139150596E+01  0.59273272217E+00  0.11689852023E+00  0.11802631453E+01  0.00000000000E+00 0.  1.
         11    1    3    3    0    0 -0.11294324097E+02 -0.76884757325E+01  0.11688930635E+02  0.17980698417E+02  0.51100000000E-03 0. -1.
        -11    1    3    3    0    0 -0.70444320525E+01  0.17018499135E+02  0.24465585207E+02  0.30623817455E+02  0.51100000000E-03 0.  1.
        -12    1    3    3    0    0  0.17324841089E+02 -0.99227561244E+01 -0.36271414363E+02  0.41403220983E+02  0.00000000000E+00 0.  1.
</event>
<event>
 7    1  0.2497665E-015  0.9000786E+02  0.7816164E-02  0.1186339E+00
        -11   -1    0    0    0    0  0.00000000000E+00  0.00000000000E+00  0.45593999997E+02  0.45594000000E+02  0.51100000000E-03 0.  1.
         11   -1    0    0    0    0 -0.00000000000E+00 -0.00000000000E+00 -0.45593999997E+02  0.45594000000E+02  0.51100000000E-03 0. -1.
    9900012    2    1    2    0    0 -0.61996991174E-01 -0.11691851010E+01 -0.14795059524E+00  0.90007861531E+02  0.90000124503E+02 0.  0.
        -12    1    1    2    0    0  0.61996991174E-01  0.11691851010E+01  0.14795059524E+00  0.11801384690E+01  0.00000000000E+00 0.  1.
         11    1    3    3    0    0 -0.77498542308E+00 -0.96993873790E+01  0.10464023337E+02  0.14288964364E+02  0.51100000000E-03 0. -1.
        -11    1    3    3    0    0 -0.20601262115E+02  0.16866494386E+02  0.22912988887E+02  0.35126851462E+02  0.51100000000E-03 0.  1.
         12    1    3    3    0    0  0.21314250547E+02 -0.83362921080E+01 -0.33524962820E+02  0.40592045705E+02  0.00000000000E+00 0. -1.
</event>
<event>
 7    1  0.2497665E-015  0.9000771E+02  0.7816164E-02  0.1186339E+00
        -11   -1    0    0    0    0  0.00000000000E+00  0.00000000000E+00  0.45593999997E+02  0.45594000000E+02  0.51100000000E-03 0. -1.
         11   -1    0    0    0    0 -0.00000000000E+00 -0.00000000000E+00 -0.45593999997E+02  0.45594000000E+02  0.51100000000E-03 0.  1.
    9900012    2    1    2    0    0  0.31645411182E+00 -0.94976076788E+00  0.62522519274E+00  0.90007705434E+02  0.89999966346E+02 0.  0.
        -12    1    1    2    0    0 -0.31645411182E+00  0.94976076788E+00 -0.62522519274E+00  0.11802945661E+01  0.00000000000E+00 0.  1.
         11    1    3    3    0    0  0.19839824168E+01  0.83340737498E+01 -0.64005730165E+01  0.10693937848E+02  0.51100000000E-03 0. -1.
        -11    1    3    3    0    0 -0.16190100645E+02  0.21680445258E+02 -0.21672286617E+02  0.34667694947E+02  0.51100000000E-03 0.  1.
         12    1    3    3    0    0  0.14522572340E+02 -0.30964279776E+02  0.28698084826E+02  0.44646072639E+02  0.00000000000E+00 0. -1.
</event>
<event>
 7    1  0.2497665E-015  0.9000769E+02  0.7816164E-02  0.1186339E+00
        -11   -1    0    0    0    0  0.00000000000E+00  0.00000000000E+00  0.45593999997E+02  0.45594000000E+02  0.51100000000E-03 0.  1.
         11   -1    0    0    0    0 -0.00000000000E+00 -0.00000000000E+00 -0.45593999997E+02  0.45594000000E+02  0.51100000000E-03 0. -1.
    9900012    2    1    2    0    0  0.14168666568E+00 -0.67850971673E+00 -0.95533985809E+00  0.90007692925E+02  0.89999953672E+02 0.  0.
        -12    1    1    2    0    0 -0.14168666568E+00  0.67850971673E+00  0.95533985809E+00  0.11803070750E+01  0.00000000000E+00 0.  1.
         11    1    3    3    0    0 -0.81456114231E-01 -0.27063668940E+01 -0.94503361332E+01  0.98305600123E+01  0.51100000000E-03 0. -1.
        -11    1    3    3    0    0  0.33995859898E+02 -0.91687349331E+01 -0.14209729002E+02  0.37969732539E+02  0.51100000000E-03 0.  1.
         12    1    3    3    0    0 -0.33772717118E+02  0.11196592110E+02  0.22704725277E+02  0.42207400374E+02  0.00000000000E+00 0. -1.
</event>
<event>
 7    1  0.2497665E-015  0.9000772E+02  0.7816164E-02  0.1186339E+00
        -11   -1    0    0    0    0  0.00000000000E+00  0.00000000000E+00  0.45593999997E+02  0.45594000000E+02  0.51100000000E-03 0.  1.
         11   -1    0    0    0    0 -0.00000000000E+00 -0.00000000000E+00 -0.45593999997E+02  0.45594000000E+02  0.51100000000E-03 0. -1.
    9900012    2    1    2    0    0 -0.18467317148E-01 -0.76800320490E+00 -0.89604227139E+00  0.90007719645E+02  0.89999980744E+02 0.  0.
        -12    1    1    2    0    0  0.18467317148E-01  0.76800320490E+00  0.89604227139E+00  0.11802803551E+01  0.00000000000E+00 0.  1.
         11    1    3    3    0    0 -0.25771822355E+02  0.66531536816E+01 -0.24245222480E+02  0.36003917770E+02  0.51100000000E-03 0. -1.
        -11    1    3    3    0    0  0.80711625215E+01  0.15009519488E+02 -0.11044652118E+00  0.17042345449E+02  0.51100000000E-03 0.  1.
        -12    1    3    3    0    0  0.17682192517E+02 -0.22430676375E+02  0.23459626730E+02  0.36961456426E+02  0.00000000000E+00 0.  1.
</event>
<event>
 7    1  0.2497665E-015  0.9000774E+02  0.7816164E-02  0.1186339E+00
        -11   -1    0    0    0    0  0.00000000000E+00  0.00000000000E+00  0.45593999997E+02  0.45594000000E+02  0.51100000000E-03 0. -1.
         11   -1    0    0    0    0 -0.00000000000E+00 -0.00000000000E+00 -0.45593999997E+02  0.45594000000E+02  0.51100000000E-03 0.  1.
    9900012    2    1    2    0    0 -0.11694625182E+01 -0.68161027884E-01 -0.14392872412E+00  0.90007744102E+02  0.90000005524E+02 0.  0.
        -12    1    1    2    0    0  0.11694625182E+01  0.68161027884E-01  0.14392872412E+00  0.11802558980E+01  0.00000000000E+00 0.  1.
         11    1    3    3    0    0  0.70761372740E+01 -0.15118287072E+01  0.61112014411E+01  0.94712263237E+01  0.51100000000E-03 0. -1.
        -11    1    3    3    0    0 -0.10485078418E+02 -0.29636415549E+02  0.22082674527E+02  0.38417424569E+02  0.51100000000E-03 0.  1.
         12    1    3    3    0    0  0.22394786259E+01  0.31080083228E+02 -0.28337804692E+02  0.42119093209E+02  0.00000000000E+00 0. -1.
</event>
<event>
 7    1  0.2497665E-015  0.9000774E+02  0.7816164E-02  0.1186339E+00
        -11   -1    0    0    0    0  0.00000000000E+00  0.00000000000E+00  0.45593999997E+02  0.45594000000E+02  0.51100000000E-03 0. -1.
         11   -1    0    0    0    0 -0.00000000000E+00 -0.00000000000E+00 -0.45593999997E+02  0.45594000000E+02  0.51100000000E-03 0.  1.
    9900012    2    1    2    0    0 -0.50736107204E+00 -0.72251393585E+00 -0.78330115301E+00  0.90007744798E+02  0.90000006230E+02 0.  0.
        -12    1    1    2    0    0  0.50736107204E+00  0.72251393585E+00  0.78330115301E+00  0.11802552017E+01  0.00000000000E+00 0.  1.
         11    1    3    3    0    0  0.84786252134E+01 -0.74847937241E+01 -0.62921250825E+00  0.11327185495E+02  0.51100000000E-03 0. -1.
        -11    1    3    3    0    0 -0.54013573031E+01 -0.12653971773E+02 -0.35566964615E+02  0.38135372485E+02  0.51100000000E-03 0.  1.
         12    1    3    3    0    0 -0.35846289823E+01  0.19416251561E+02  0.35412875970E+02  0.40545186818E+02  0.00000000000E+00 0. -1.
</event>
<event>
 7    1  0.2497665E-015  0.9000766E+02  0.7816164E-02  0.1186339E+00
        -11   -1    0    0    0    0  0.00000000000E+00  0.00000000000E+00  0.45593999997E+02  0.45594000000E+02  0.51100000000E-03 0.  1.
         11   -1    0    0    0    0 -0.00000000000E+00 -0.00000000000E+00 -0.45593999997E+02  0.45594000000E+02  0.51100000000E-03 0. -1.
    9900012    2    1    2    0    0  0.19798559407E-01 -0.11539583344E+01 -0.24735073555E+00  0.90007663520E+02  0.89999923878E+02 0.  0.
        -12    1    1    2    0    0 -0.19798559407E-01  0.11539583344E+01  0.24735073555E+00  0.11803364804E+01  0.00000000000E+00 0.  1.
         11    1    3    3    0    0  0.65101223843E+01  0.29027716098E+01 -0.45653651782E+01  0.84646521458E+01  0.51100000000E-03 0. -1.
        -11    1    3    3    0    0  0.31034926471E+02 -0.21590505376E+02  0.11475641919E+02  0.39509580372E+02  0.51100000000E-03 0.  1.
         12    1    3    3    0    0 -0.37525250296E+02  0.17533775432E+02 -0.71576274763E+01  0.42033431002E+02  0.00000000000E+00 0. -1.
</event>
<event>
 7    1  0.2497665E-015  0.9000774E+02  0.7816164E-02  0.1186339E+00
        -11   -1    0    0    0    0  0.00000000000E+00  0.00000000000E+00  0.45593999997E+02  0.45594000000E+02  0.51100000000E-03 0. -1.
         11   -1    0    0    0    0 -0.00000000000E+00 -0.00000000000E+00 -0.45593999997E+02  0.45594000000E+02  0.51100000000E-03 0.  1.
    9900012    2    1    2    0    0  0.82801099634E+00  0.63091835133E+00  0.55618595518E+00  0.90007744522E+02  0.90000005950E+02 0.  0.
        -12    1    1    2    0    0 -0.82801099634E+00 -0.63091835133E+00 -0.55618595518E+00  0.11802554778E+01  0.00000000000E+00 0.  1.
         11    1    3    3    0    0  0.15010483989E+02  0.20925699762E+02  0.11898311236E+02  0.28368456966E+02  0.51100000000E-03 0. -1.
        -11    1    3    3    0    0  0.22140722327E+01  0.17092472989E+02  0.45576274322E+01  0.17827695219E+02  0.51100000000E-03 0.  1.
        -12    1    3    3    0    0 -0.16396545225E+02 -0.37387254399E+02 -0.15899752713E+02  0.43811592338E+02  0.00000000000E+00 0.  1.
</event>
<event>
 7    1  0.2497665E-015  0.9000776E+02  0.7816164E-02  0.1186339E+00
        -11   -1    0    0    0    0  0.00000000000E+00  0.00000000000E+00  0.45593999997E+02  0.45594000000E+02  0.51100000000E-03 0.  1.
         11   -1    0    0    0    0 -0.00000000000E+00 -0.00000000000E+00 -0.45593999997E+02  0.45594000000E+02  0.51100000000E-03 0. -1.
    9900012    2    1    2    0    0  0.75220668004E+00  0.82688840933E+00 -0.37868898561E+00  0.90007760754E+02  0.90000022396E+02 0.  0.
        -12    1    1    2    0    0 -0.75220668004E+00 -0.82688840933E+00  0.37868898561E+00  0.11802392464E+01  0.00000000000E+00 0.  1.
         11    1    3    3    0    0  0.71157186592E+01 -0.21229589542E+01 -0.99628936759E+01  0.12425765868E+02  0.51100000000E-03 0. -1.
        -11    1    3    3    0    0 -0.20688354771E+02 -0.32266630659E+02  0.98021585527E+01  0.39562934544E+02  0.51100000000E-03 0.  1.
         12    1    3    3    0    0  0.14324842792E+02  0.35216478023E+02 -0.21795386245E+00  0.38019060341E+02  0.00000000000E+00 0. -1.
</event>
<event>
 7    1  0.3177904E-015  0.9000768E+02  0.7816164E-02  0.1186339E+00
        -11   -1    0    0    0    0  0.00000000000E+00  0.00000000000E+00  0.45593999997E+02  0.45594000000E+02  0.51100000000E-03 0. -1.
         11   -1    0    0    0    0 -0.00000000000E+00 -0.00000000000E+00 -0.45593999997E+02  0.45594000000E+02  0.51100000000E-03 0.  1.
    9900012    2    1    2    0    0  0.75968639600E+00  0.27432207436E+00  0.86068008957E+00  0.90007683840E+02  0.89999944467E+02 0.  0.
        -12    1    1    2    0    0 -0.75968639600E+00 -0.27432207436E+00 -0.86068008957E+00  0.11803161599E+01  0.00000000000E+00 0.  1.
         11    1    3    3    0    0  0.97262496053E+01  0.19988691919E+02  0.30995187809E+02  0.38142488167E+02  0.51100000000E-03 0. -1.
        -11    1    3    3    0    0  0.29834496031E+01 -0.40808187410E+01  0.77048480084E+01  0.92151362564E+01  0.51100000000E-03 0.  1.
        -12    1    3    3    0    0 -0.11950012812E+02 -0.15633551103E+02 -0.37839355728E+02  0.42650059416E+02  0.00000000000E+00 0.  1.
</event>
<event>
 7    1  0.2497665E-015  0.9000780E+02  0.7816164E-02  0.1186339E+00
        -11   -1    0    0    0    0  0.00000000000E+00  0.00000000000E+00  0.45593999997E+02  0.45594000000E+02  0.51100000000E-03 0. -1.
         11   -1    0    0    0    0 -0.00000000000E+00 -0.00000000000E+00 -0.45593999997E+02  0.45594000000E+02  0.51100000000E-03 0.  1.
    9900012    2    1    2    0    0 -0.11698083819E+00  0.10531663660E+01  0.51965131862E+00  0.90007796033E+02  0.90000058141E+02 0.  0.
        -12    1    1    2    0    0  0.11698083819E+00 -0.10531663660E+01 -0.51965131862E+00  0.11802039671E+01  0.00000000000E+00 0.  1.
         11    1    3    3    0    0  0.18817040783E+02 -0.21465282420E+01  0.35517172185E+02  0.40251187903E+02  0.51100000000E-03 0. -1.
        -11    1    3    3    0    0  0.50684011706E+01  0.83480170220E+01 -0.15877999493E+02  0.18641055409E+02  0.51100000000E-03 0.  1.
        -12    1    3    3    0    0 -0.24002422791E+02 -0.51483224141E+01 -0.19119521374E+02  0.31115552721E+02  0.00000000000E+00 0.  1.
</event>
<event>
 7    1  0.2497665E-015  0.9000772E+02  0.7816164E-02  0.1186339E+00
        -11   -1    0    0    0    0  0.00000000000E+00  0.00000000000E+00  0.45593999997E+02  0.45594000000E+02  0.51100000000E-03 0.  1.
         11   -1    0    0    0    0 -0.00000000000E+00 -0.00000000000E+00 -0.45593999997E+02  0.45594000000E+02  0.51100000000E-03 0. -1.
    9900012    2    1    2    0    0 -0.82118331842E+00  0.28574466723E-01 -0.84728917018E+00  0.90007721439E+02  0.89999982562E+02 0.  0.
        -12    1    1    2    0    0  0.82118331842E+00 -0.28574466723E-01  0.84728917018E+00  0.11802785606E+01  0.00000000000E+00 0.  1.
         11    1    3    3    0    0 -0.69343973955E+01 -0.71969876732E+01 -0.66004051740E+00  0.10015894995E+02  0.51100000000E-03 0. -1.
        -11    1    3    3    0    0 -0.54832507250E+01  0.28510807620E+02  0.29684875761E+02  0.41522572643E+02  0.51100000000E-03 0.  1.
         12    1    3    3    0    0  0.11596464802E+02 -0.21285245480E+02 -0.29872124414E+02  0.38469253802E+02  0.00000000000E+00 0. -1.
</event>
<event>
 7    1  0.2497665E-015  0.9000850E+02  0.7816164E-02  0.1186338E+00
        -11   -1    0    0    0    0  0.00000000000E+00  0.00000000000E+00  0.45593999997E+02  0.45594000000E+02  0.51100000000E-03 0. -1.
         11   -1    0    0    0    0 -0.00000000000E+00 -0.00000000000E+00 -0.45593999997E+02  0.45594000000E+02  0.51100000000E-03 0.  1.
    9900012    2    1    2    0    0  0.87659303341E+00  0.48684776612E+00  0.62110830220E+00  0.90008503660E+02  0.90000775105E+02 0.  0.
        -12    1    1    2    0    0 -0.87659303341E+00 -0.48684776612E+00 -0.62110830220E+00  0.11794963402E+01  0.00000000000E+00 0.  1.
         11    1    3    3    0    0 -0.72645112298E+01  0.22732317933E+02  0.31898812895E+02  0.39837992750E+02  0.51100000000E-03 0. -1.
        -11    1    3    3    0    0  0.79522310394E+01 -0.10009617936E+02  0.35398590403E+01  0.13265030419E+02  0.51100000000E-03 0.  1.
        -12    1    3    3    0    0  0.18887322380E+00 -0.12235852231E+02 -0.34817563633E+02  0.36905480490E+02  0.00000000000E+00 0.  1.
</event>
<event>
 7    1  0.2821387E-015  0.9000709E+02  0.7816164E-02  0.1186340E+00
        -11   -1    0    0    0    0  0.00000000000E+00  0.00000000000E+00  0.45593999997E+02  0.45594000000E+02  0.51100000000E-03 0. -1.
         11   -1    0    0    0    0 -0.00000000000E+00 -0.00000000000E+00 -0.45593999997E+02  0.45594000000E+02  0.51100000000E-03 0.  1.
    9900012    2    1    2    0    0 -0.35988795118E+00 -0.10223095511E+01  0.46895560787E+00  0.90007086998E+02  0.89999339744E+02 0.  0.
        -12    1    1    2    0    0  0.35988795118E+00  0.10223095511E+01 -0.46895560787E+00  0.11809130018E+01  0.00000000000E+00 0.  1.
         11    1    3    3    0    0 -0.22829071977E+02  0.27697678902E+02  0.69596470005E+01  0.36561791949E+02  0.51100000000E-03 0. -1.
        -11    1    3    3    0    0 -0.85521885615E+01  0.11288848726E+01  0.34029279089E+01  0.92733073313E+01  0.51100000000E-03 0.  1.
        -12    1    3    3    0    0  0.31021372588E+02 -0.29848873326E+02 -0.98936193015E+01  0.44171987718E+02  0.00000000000E+00 0.  1.
</event>
<event>
 7    1  0.2497665E-015  0.9000784E+02  0.7816164E-02  0.1186339E+00
        -11   -1    0    0    0    0  0.00000000000E+00  0.00000000000E+00  0.45593999997E+02  0.45594000000E+02  0.51100000000E-03 0. -1.
         11   -1    0    0    0    0 -0.00000000000E+00 -0.00000000000E+00 -0.45593999997E+02  0.45594000000E+02  0.51100000000E-03 0.  1.
    9900012    2    1    2    0    0 -0.84089237280E+00 -0.76916023618E+00  0.30671387192E+00  0.90007838634E+02  0.90000101303E+02 0.  0.
        -12    1    1    2    0    0  0.84089237280E+00  0.76916023618E+00 -0.30671387192E+00  0.11801613664E+01  0.00000000000E+00 0.  1.
         11    1    3    3    0    0  0.11427272140E+02 -0.40768189139E+01  0.46008217941E+00  0.12141444597E+02  0.51100000000E-03 0. -1.
        -11    1    3    3    0    0  0.14529444595E+02  0.10611127364E+02 -0.31319724918E+02  0.36119606219E+02  0.51100000000E-03 0.  1.
         12    1    3    3    0    0 -0.26797609108E+02 -0.73034686866E+01  0.31166356611E+02  0.41746787818E+02  0.00000000000E+00 0. -1.
</event>
<event>
 7    1  0.4087279E-015  0.9000751E+02  0.7816164E-02  0.1186339E+00
        -11   -1    0    0    0    0  0.00000000000E+00  0.00000000000E+00  0.45593999997E+02  0.45594000000E+02  0.51100000000E-03 0.  1.
         11   -1    0    0    0    0 -0.00000000000E+00 -0.00000000000E+00 -0.45593999997E+02  0.45594000000E+02  0.51100000000E-03 0. -1.
    9900012    2    1    2    0    0  0.69153125736E+00  0.23814725992E+00 -0.92661523905E+00  0.90007514761E+02  0.89999773156E+02 0.  0.
        -12    1    1    2    0    0 -0.69153125736E+00 -0.23814725992E+00  0.92661523905E+00  0.11804852386E+01  0.00000000000E+00 0.  1.
         11    1    3    3    0    0  0.85461255026E+01 -0.22199391711E+01 -0.35983096070E+02  0.37050608552E+02  0.51100000000E-03 0. -1.
        -11    1    3    3    0    0 -0.40479053414E+01  0.31653985135E+01 -0.81188134072E+01  0.96083514093E+01  0.51100000000E-03 0.  1.
        -12    1    3    3    0    0 -0.38066889038E+01 -0.70731208245E+00  0.43175294238E+02  0.43348554801E+02  0.00000000000E+00 0.  1.
</event>
<event>
 7    1  0.2497665E-015  0.9000789E+02  0.7816164E-02  0.1186339E+00
        -11   -1    0    0    0    0  0.00000000000E+00  0.00000000000E+00  0.45593999997E+02  0.45594000000E+02  0.51100000000E-03 0. -1.
         11   -1    0    0    0    0 -0.00000000000E+00 -0.00000000000E+00 -0.45593999997E+02  0.45594000000E+02  0.51100000000E-03 0.  1.
    9900012    2    1    2    0    0  0.18275570666E-01 -0.72362954559E+00  0.93203640967E+00  0.90007887469E+02  0.90000150784E+02 0.  0.
        -12    1    1    2    0    0 -0.18275570666E-01  0.72362954559E+00 -0.93203640967E+00  0.11801125305E+01  0.00000000000E+00 0.  1.
         11    1    3    3    0    0  0.18979773561E+01 -0.92155962203E+00 -0.96567790274E+01  0.98845825216E+01  0.51100000000E-03 0. -1.
        -11    1    3    3    0    0  0.34140965418E+02 -0.14301788513E+02 -0.67031129225E+01  0.37617527795E+02  0.51100000000E-03 0.  1.
         12    1    3    3    0    0 -0.36020667203E+02  0.14499718589E+02  0.17291928360E+02  0.42505777152E+02  0.00000000000E+00 0. -1.
</event>
<event>
 7    1  0.2497665E-015  0.9000776E+02  0.7816164E-02  0.1186339E+00
        -11   -1    0    0    0    0  0.00000000000E+00  0.00000000000E+00  0.45593999997E+02  0.45594000000E+02  0.51100000000E-03 0.  1.
         11   -1    0    0    0    0 -0.00000000000E+00 -0.00000000000E+00 -0.45593999997E+02  0.45594000000E+02  0.51100000000E-03 0. -1.
    9900012    2    1    2    0    0  0.53674192741E+00  0.79708569559E+00 -0.68522975772E+00  0.90007755397E+02  0.90000016968E+02 0.  0.
        -12    1    1    2    0    0 -0.53674192741E+00 -0.79708569559E+00  0.68522975772E+00  0.11802446033E+01  0.00000000000E+00 0.  1.
         11    1    3    3    0    0 -0.75417316718E+01  0.63525187506E+01  0.52631615834E+00  0.98746756932E+01  0.51100000000E-03 0. -1.
        -11    1    3    3    0    0 -0.89270845692E+01  0.27660372975E+02  0.21764547452E+02  0.36310943228E+02  0.51100000000E-03 0.  1.
         12    1    3    3    0    0  0.17005558168E+02 -0.33215806030E+02 -0.22976093368E+02  0.43822136476E+02  0.00000000000E+00 0. -1.
</event>
<event>
 7    1  0.2497665E-015  0.9000779E+02  0.7816164E-02  0.1186339E+00
        -11   -1    0    0    0    0  0.00000000000E+00  0.00000000000E+00  0.45593999997E+02  0.45594000000E+02  0.51100000000E-03 0. -1.
         11   -1    0    0    0    0 -0.00000000000E+00 -0.00000000000E+00 -0.45593999997E+02  0.45594000000E+02  0.51100000000E-03 0.  1.
    9900012    2    1    2    0    0  0.62169926113E+00 -0.99803196068E+00  0.10159459899E+00  0.90007788482E+02  0.90000050489E+02 0.  0.
        -12    1    1    2    0    0 -0.62169926113E+00  0.99803196068E+00 -0.10159459899E+00  0.11802115185E+01  0.00000000000E+00 0.  1.
         11    1    3    3    0    0 -0.29670206718E+02 -0.81092063743E+01  0.28012185606E+02  0.41602439080E+02  0.51100000000E-03 0. -1.
        -11    1    3    3    0    0  0.46388107705E+01 -0.80009468167E+01 -0.34445597791E+01  0.98690783593E+01  0.51100000000E-03 0.  1.
        -12    1    3    3    0    0  0.25653095208E+02  0.15112121230E+02 -0.24466031228E+02  0.38536271043E+02  0.00000000000E+00 0.  1.
</event>
<event>
 7    1  0.2497665E-015  0.9000788E+02  0.7816164E-02  0.1186339E+00
        -11   -1    0    0    0    0  0.00000000000E+00  0.00000000000E+00  0.45593999997E+02  0.45594000000E+02  0.51100000000E-03 0. -1.
         11   -1    0    0    0    0 -0.00000000000E+00 -0.00000000000E+00 -0.45593999997E+02  0.45594000000E+02  0.51100000000E-03 0.  1.
    9900012    2    1    2    0    0 -0.70897162072E+00 -0.89033098554E+00  0.31201278676E+00  0.90007880514E+02  0.90000143736E+02 0.  0.
        -12    1    1    2    0    0  0.70897162072E+00  0.89033098554E+00 -0.31201278676E+00  0.11801194863E+01  0.00000000000E+00 0.  1.
         11    1    3    3    0    0 -0.35236510924E+02 -0.11532419791E+02  0.18220670836E+02  0.41311030662E+02  0.51100000000E-03 0. -1.
        -11    1    3    3    0    0 -0.19633752323E+01  0.84644389079E+01 -0.42477683653E+01  0.96718718289E+01  0.51100000000E-03 0.  1.
        -12    1    3    3    0    0  0.36490914536E+02  0.21776498977E+01 -0.13660889684E+02  0.39024978023E+02  0.00000000000E+00 0.  1.
</event>
<event>
 7    1  0.2497665E-015  0.9000771E+02  0.7816164E-02  0.1186339E+00
        -11   -1    0    0    0    0  0.00000000000E+00  0.00000000000E+00  0.45593999997E+02  0.45594000000E+02  0.51100000000E-03 0.  1.
         11   -1    0    0    0    0 -0.00000000000E+00 -0.00000000000E+00 -0.45593999997E+02  0.45594000000E+02  0.51100000000E-03 0. -1.
    9900012    2    1    2    0    0 -0.66107079117E+00 -0.10040578977E+00 -0.97261859644E+00  0.90007710693E+02  0.89999971674E+02 0.  0.
        -12    1    1    2    0    0  0.66107079117E+00  0.10040578977E+00  0.97261859644E+00  0.11802893068E+01  0.00000000000E+00 0.  1.
         11    1    3    3    0    0  0.72220750334E+01  0.55596311936E+00  0.52787690049E+01  0.89628603273E+01  0.51100000000E-03 0. -1.
        -11    1    3    3    0    0  0.99194754837E+01 -0.33817402428E+02  0.14450288573E+02  0.38089677617E+02  0.51100000000E-03 0.  1.
         12    1    3    3    0    0 -0.17802621308E+02  0.33161033519E+02 -0.20701676174E+02  0.42955172749E+02  0.00000000000E+00 0. -1.
</event>
<event>
 7    1  0.2497665E-015  0.9000771E+02  0.7816164E-02  0.1186339E+00
        -11   -1    0    0    0    0  0.00000000000E+00  0.00000000000E+00  0.45593999997E+02  0.45594000000E+02  0.51100000000E-03 0.  1.
         11   -1    0    0    0    0 -0.00000000000E+00 -0.00000000000E+00 -0.45593999997E+02  0.45594000000E+02  0.51100000000E-03 0. -1.
    9900012    2    1    2    0    0 -0.47546400324E+00 -0.10651402781E+01  0.18024808821E+00  0.90007712237E+02  0.89999973238E+02 0.  0.
        -12    1    1    2    0    0  0.47546400324E+00  0.10651402781E+01 -0.18024808821E+00  0.11802877631E+01  0.00000000000E+00 0.  1.
         11    1    3    3    0    0 -0.26371047729E+00 -0.48632057604E+01  0.76544024509E+01  0.90724963833E+01  0.51100000000E-03 0. -1.
        -11    1    3    3    0    0 -0.29723415022E+02 -0.24815206480E+02 -0.91820930025E+01  0.39794304937E+02  0.51100000000E-03 0.  1.
         12    1    3    3    0    0  0.29511661496E+02  0.28613271962E+02  0.17079386398E+01  0.41140910917E+02  0.00000000000E+00 0. -1.
</event>
<event>
 7    1  0.2497665E-015  0.9000772E+02  0.7816164E-02  0.1186339E+00
        -11   -1    0    0    0    0  0.00000000000E+00  0.00000000000E+00  0.45593999997E+02  0.45594000000E+02  0.51100000000E-03 0. -1.
         11   -1    0    0    0    0 -0.00000000000E+00 -0.00000000000E+00 -0.45593999997E+02  0.45594000000E+02  0.51100000000E-03 0.  1.
    9900012    2    1    2    0    0 -0.91703709145E+00 -0.24896084892E+00  0.70007916257E+00  0.90007724877E+02  0.89999986046E+02 0.  0.
        -12    1    1    2    0    0  0.91703709145E+00  0.24896084892E+00 -0.70007916257E+00  0.11802751227E+01  0.00000000000E+00 0.  1.
         11    1    3    3    0    0 -0.37004363591E+02  0.64417356267E+01  0.99818325872E+01  0.38864583682E+02  0.51100000000E-03 0. -1.
        -11    1    3    3    0    0 -0.41897956278E+01  0.11609040673E+01  0.59525754128E+01  0.73712441258E+01  0.51100000000E-03 0.  1.
        -12    1    3    3    0    0  0.40277122128E+02 -0.78516005429E+01 -0.15234328837E+02  0.43771897070E+02  0.00000000000E+00 0.  1.
</event>
<event>
 7    1  0.2497665E-015  0.9000776E+02  0.7816164E-02  0.1186339E+00
        -11   -1    0    0    0    0  0.00000000000E+00  0.00000000000E+00  0.45593999997E+02  0.45594000000E+02  0.51100000000E-03 0.  1.
         11   -1    0    0    0    0 -0.00000000000E+00 -0.00000000000E+00 -0.45593999997E+02  0.45594000000E+02  0.51100000000E-03 0. -1.
    9900012    2    1    2    0    0  0.82330098612E+00  0.48552629218E+00 -0.69238470156E+00  0.90007764062E+02  0.90000025748E+02 0.  0.
        -12    1    1    2    0    0 -0.82330098612E+00 -0.48552629218E+00  0.69238470156E+00  0.11802359379E+01  0.00000000000E+00 0.  1.
         11    1    3    3    0    0 -0.11582960812E+02  0.35092330064E+02 -0.59331773646E+01  0.37427786529E+02  0.51100000000E-03 0. -1.
        -11    1    3    3    0    0 -0.59931327443E+01  0.50905179473E+01  0.39673204813E+01  0.88074198903E+01  0.51100000000E-03 0.  1.
        -12    1    3    3    0    0  0.18399394543E+02 -0.39697321719E+02  0.12734721818E+01  0.43772557643E+02  0.00000000000E+00 0.  1.
</event>
<event>
 7    1  0.2497665E-015  0.9000797E+02  0.7816164E-02  0.1186339E+00
        -11   -1    0    0    0    0  0.00000000000E+00  0.00000000000E+00  0.45593999997E+02  0.45594000000E+02  0.51100000000E-03 0.  1.
         11   -1    0    0    0    0 -0.00000000000E+00 -0.00000000000E+00 -0.45593999997E+02  0.45594000000E+02  0.51100000000E-03 0. -1.
    9900012    2    1    2    0    0  0.11512040576E+01  0.24371959541E+00 -0.88383271606E-01  0.90007965413E+02  0.90000229756E+02 0.  0.
        -12    1    1    2    0    0 -0.11512040576E+01 -0.24371959541E+00  0.88383271606E-01  0.11800345868E+01  0.00000000000E+00 0.  1.
         11    1    3    3    0    0 -0.14455567622E+02 -0.14862573514E+01 -0.38541862473E+02  0.41190381879E+02  0.51100000000E-03 0. -1.
        -11    1    3    3    0    0  0.71725411684E+01  0.57525961564E+01 -0.51900427578E-01  0.91945855408E+01  0.51100000000E-03 0.  1.
        -12    1    3    3    0    0  0.84342305111E+01 -0.40226192096E+01  0.38505379629E+02  0.39622997993E+02  0.00000000000E+00 0.  1.
</event>
<event>
 7    1  0.2497665E-015  0.9000747E+02  0.7816164E-02  0.1186340E+00
        -11   -1    0    0    0    0  0.00000000000E+00  0.00000000000E+00  0.45593999997E+02  0.45594000000E+02  0.51100000000E-03 0.  1.
         11   -1    0    0    0    0 -0.00000000000E+00 -0.00000000000E+00 -0.45593999997E+02  0.45594000000E+02  0.51100000000E-03 0. -1.
    9900012    2    1    2    0    0  0.11749388650E+01 -0.80324575487E-01 -0.82010260906E-01  0.90007466622E+02  0.89999724381E+02 0.  0.
        -12    1    1    2    0    0 -0.11749388650E+01  0.80324575487E-01  0.82010260906E-01  0.11805333781E+01  0.00000000000E+00 0.  1.
         11    1    3    3    0    0 -0.22417178571E+02 -0.12101385879E+02 -0.28690096711E+02  0.38367891326E+02  0.51100000000E-03 0. -1.
        -11    1    3    3    0    0 -0.75723122033E+01  0.35117363322E+01 -0.20844588438E+00  0.83495900569E+01  0.51100000000E-03 0.  1.
        -12    1    3    3    0    0  0.31164429639E+02  0.85093249709E+01  0.28816532334E+02  0.43289985239E+02  0.00000000000E+00 0.  1.
</event>
<event>
 7    1  0.2497665E-015  0.9000767E+02  0.7816164E-02  0.1186339E+00
        -11   -1    0    0    0    0  0.00000000000E+00  0.00000000000E+00  0.45593999997E+02  0.45594000000E+02  0.51100000000E-03 0.  1.
         11   -1    0    0    0    0 -0.00000000000E+00 -0.00000000000E+00 -0.45593999997E+02  0.45594000000E+02  0.51100000000E-03 0. -1.
    9900012    2    1    2    0    0  0.86158716255E+00 -0.74926147371E+00 -0.29909065534E+00  0.90007669362E+02  0.89999929798E+02 0.  0.
        -12    1    1    2    0    0 -0.86158716255E+00  0.74926147371E+00  0.29909065534E+00  0.11803306379E+01  0.00000000000E+00 0.  1.
         11    1    3    3    0    0  0.28920982888E+02  0.24282265884E+02 -0.62403358009E+01  0.38275233230E+02  0.51100000000E-03 0. -1.
        -11    1    3    3    0    0 -0.52491626372E+01  0.77205591085E+01 -0.46623566564E+01  0.10435435362E+02  0.51100000000E-03 0.  1.
        -12    1    3    3    0    0 -0.22810233088E+02 -0.32752086466E+02  0.10603601802E+02  0.41297000770E+02  0.00000000000E+00 0.  1.
</event>
<event>
 7    1  0.2497665E-015  0.9000780E+02  0.7816164E-02  0.1186339E+00
        -11   -1    0    0    0    0  0.00000000000E+00  0.00000000000E+00  0.45593999997E+02  0.45594000000E+02  0.51100000000E-03 0. -1.
         11   -1    0    0    0    0 -0.00000000000E+00 -0.00000000000E+00 -0.45593999997E+02  0.45594000000E+02  0.51100000000E-03 0.  1.
    9900012    2    1    2    0    0 -0.49882369292E+00 -0.40772145405E+00  0.98884203217E+00  0.90007800684E+02  0.90000062853E+02 0.  0.
        -12    1    1    2    0    0  0.49882369292E+00  0.40772145405E+00 -0.98884203217E+00  0.11801993159E+01  0.00000000000E+00 0.  1.
         11    1    3    3    0    0 -0.52134674921E+01  0.52548610790E+01  0.13105469257E+02  0.15051482749E+02  0.51100000000E-03 0. -1.
        -11    1    3    3    0    0 -0.25580365735E+01 -0.49785051020E+01  0.30859907397E+02  0.31363401425E+02  0.51100000000E-03 0.  1.
        -12    1    3    3    0    0  0.72726803726E+01 -0.68407743101E+00 -0.42976534621E+02  0.43592916509E+02  0.00000000000E+00 0.  1.
</event>
<event>
 7    1  0.2497665E-015  0.9000774E+02  0.7816164E-02  0.1186339E+00
        -11   -1    0    0    0    0  0.00000000000E+00  0.00000000000E+00  0.45593999997E+02  0.45594000000E+02  0.51100000000E-03 0. -1.
         11   -1    0    0    0    0 -0.00000000000E+00 -0.00000000000E+00 -0.45593999997E+02  0.45594000000E+02  0.51100000000E-03 0.  1.
    9900012    2    1    2    0    0  0.63290318836E+00 -0.11173032004E+00  0.98992962668E+00  0.90007741225E+02  0.90000002609E+02 0.  0.
        -12    1    1    2    0    0 -0.63290318836E+00  0.11173032004E+00 -0.98992962668E+00  0.11802587750E+01  0.00000000000E+00 0.  1.
         11    1    3    3    0    0  0.15772581267E+02  0.19593153872E+02  0.10561471812E+02  0.27280225175E+02  0.51100000000E-03 0. -1.
        -11    1    3    3    0    0  0.15725236754E+02  0.10082478003E+02  0.42063532968E+00  0.18684655951E+02  0.51100000000E-03 0.  1.
         12    1    3    3    0    0 -0.30864914833E+02 -0.29787362196E+02 -0.99921775153E+01  0.44042860099E+02  0.00000000000E+00 0. -1.
</event>
<event>
 7    1  0.2497665E-015  0.9000770E+02  0.7816164E-02  0.1186339E+00
        -11   -1    0    0    0    0  0.00000000000E+00  0.00000000000E+00  0.45593999997E+02  0.45594000000E+02  0.51100000000E-03 0.  1.
         11   -1    0    0    0    0 -0.00000000000E+00 -0.00000000000E+00 -0.45593999997E+02  0.45594000000E+02  0.51100000000E-03 0. -1.
    9900012    2    1    2    0    0  0.99340940605E+00 -0.61241100369E+00 -0.17663032102E+00  0.90007700142E+02  0.89999960983E+02 0.  0.
        -12    1    1    2    0    0 -0.99340940605E+00  0.61241100369E+00  0.17663032102E+00  0.11802998584E+01  0.00000000000E+00 0.  1.
         11    1    3    3    0    0  0.36364149533E+02  0.12601233340E+02 -0.16032837994E+02  0.41691658007E+02  0.51100000000E-03 0. -1.
        -11    1    3    3    0    0 -0.42594933101E+01 -0.80502084371E+01 -0.51124885871E+01  0.10444456853E+02  0.51100000000E-03 0.  1.
        -12    1    3    3    0    0 -0.31111246817E+02 -0.51634359066E+01  0.20968696260E+02  0.37871585281E+02  0.00000000000E+00 0.  1.
</event>
<event>
 7    1  0.2497665E-015  0.9000779E+02  0.7816164E-02  0.1186339E+00
        -11   -1    0    0    0    0  0.00000000000E+00  0.00000000000E+00  0.45593999997E+02  0.45594000000E+02  0.51100000000E-03 0.  1.
         11   -1    0    0    0    0 -0.00000000000E+00 -0.00000000000E+00 -0.45593999997E+02  0.45594000000E+02  0.51100000000E-03 0. -1.
    9900012    2    1    2    0    0  0.87634241967E+00 -0.95778621569E-01 -0.78469046800E+00  0.90007792937E+02  0.90000055004E+02 0.  0.
        -12    1    1    2    0    0 -0.87634241967E+00  0.95778621569E-01  0.78469046800E+00  0.11802070630E+01  0.00000000000E+00 0.  1.
         11    1    3    3    0    0 -0.31475489669E+01 -0.10905180666E+02 -0.10702701118E+02  0.15600571828E+02  0.51100000000E-03 0. -1.
        -11    1    3    3    0    0  0.30880730424E+02  0.22803914833E+02 -0.90080600212E+01  0.39430739136E+02  0.51100000000E-03 0.  1.
         12    1    3    3    0    0 -0.26856839038E+02 -0.11994512788E+02  0.18926070672E+02  0.34976481973E+02  0.00000000000E+00 0. -1.
</event>
<event>
 7    1  0.2497665E-015  0.9000752E+02  0.7816164E-02  0.1186339E+00
        -11   -1    0    0    0    0  0.00000000000E+00  0.00000000000E+00  0.45593999997E+02  0.45594000000E+02  0.51100000000E-03 0.  1.
         11   -1    0    0    0    0 -0.00000000000E+00 -0.00000000000E+00 -0.45593999997E+02  0.45594000000E+02  0.51100000000E-03 0. -1.
    9900012    2    1    2    0    0  0.98751554152E+00  0.34776751302E+00 -0.54534384772E+00  0.90007521665E+02  0.89999780150E+02 0.  0.
        -12    1    1    2    0    0 -0.98751554152E+00 -0.34776751302E+00  0.54534384772E+00  0.11804783353E+01  0.00000000000E+00 0.  1.
         11    1    3    3    0    0  0.62678056382E+00  0.80981073742E+01  0.43085787183E+01  0.91943486856E+01  0.51100000000E-03 0. -1.
        -11    1    3    3    0    0  0.10149192593E+02  0.34949114495E+02 -0.65296590463E+01  0.36974087707E+02  0.51100000000E-03 0.  1.
         12    1    3    3    0    0 -0.97884576149E+01 -0.42699454356E+02  0.16757364802E+01  0.43839085272E+02  0.00000000000E+00 0. -1.
</event>
<event>
 7    1  0.2497665E-015  0.9000768E+02  0.7816164E-02  0.1186339E+00
        -11   -1    0    0    0    0  0.00000000000E+00  0.00000000000E+00  0.45593999997E+02  0.45594000000E+02  0.51100000000E-03 0. -1.
         11   -1    0    0    0    0 -0.00000000000E+00 -0.00000000000E+00 -0.45593999997E+02  0.45594000000E+02  0.51100000000E-03 0.  1.
    9900012    2    1    2    0    0 -0.39748421492E-02  0.78138250505E-01  0.11777218452E+01  0.90007682191E+02  0.89999942796E+02 0.  0.
        -12    1    1    2    0    0  0.39748421492E-02 -0.78138250505E-01 -0.11777218452E+01  0.11803178090E+01  0.00000000000E+00 0.  1.
         11    1    3    3    0    0  0.91654770868E+01 -0.83232126827E+01 -0.26237475113E+01  0.12655666354E+02  0.51100000000E-03 0. -1.
        -11    1    3    3    0    0  0.21538598112E+02  0.12772223322E+02 -0.24740052261E+02  0.35201009693E+02  0.51100000000E-03 0.  1.
         12    1    3    3    0    0 -0.30708050041E+02 -0.43708723887E+01  0.28541521618E+02  0.42151006145E+02  0.00000000000E+00 0. -1.
</event>
<event>
 7    1  0.2497665E-015  0.9000772E+02  0.7816164E-02  0.1186339E+00
        -11   -1    0    0    0    0  0.00000000000E+00  0.00000000000E+00  0.45593999997E+02  0.45594000000E+02  0.51100000000E-03 0. -1.
         11   -1    0    0    0    0 -0.00000000000E+00 -0.00000000000E+00 -0.45593999997E+02  0.45594000000E+02  0.51100000000E-03 0.  1.
    9900012    2    1    2    0    0  0.29568517154E+00  0.62778967131E+00  0.95472491638E+00  0.90007724923E+02  0.89999986092E+02 0.  0.
        -12    1    1    2    0    0 -0.29568517154E+00 -0.62778967131E+00 -0.95472491638E+00  0.11802750773E+01  0.00000000000E+00 0.  1.
         11    1    3    3    0    0 -0.53831572377E+01  0.17615345587E+01  0.79495192169E+01  0.97609549681E+01  0.51100000000E-03 0. -1.
        -11    1    3    3    0    0 -0.26978374184E+02 -0.22968975594E+02  0.10911468132E+02  0.37073800055E+02  0.51100000000E-03 0.  1.
         12    1    3    3    0    0  0.32657216594E+02  0.21835230707E+02 -0.17906262433E+02  0.43172969900E+02  0.00000000000E+00 0. -1.
</event>
<event>
 7    1  0.2497665E-015  0.9000733E+02  0.7816164E-02  0.1186340E+00
        -11   -1    0    0    0    0  0.00000000000E+00  0.00000000000E+00  0.45593999997E+02  0.45594000000E+02  0.51100000000E-03 0.  1.
         11   -1    0    0    0    0 -0.00000000000E+00 -0.00000000000E+00 -0.45593999997E+02  0.45594000000E+02  0.51100000000E-03 0. -1.
    9900012    2    1    2    0    0  0.46280245734E+00  0.93895909147E+00  0.54604187058E+00  0.90007325610E+02  0.89999581507E+02 0.  0.
        -12    1    1    2    0    0 -0.46280245734E+00 -0.93895909147E+00 -0.54604187058E+00  0.11806743897E+01  0.00000000000E+00 0.  1.
         11    1    3    3    0    0  0.16674220737E+02 -0.52576556254E+01 -0.32767403479E+02  0.37139942257E+02  0.51100000000E-03 0. -1.
        -11    1    3    3    0    0  0.86737699347E+01 -0.75811922492E+00 -0.21698418737E+01  0.89731401225E+01  0.51100000000E-03 0.  1.
        -12    1    3    3    0    0 -0.24885188215E+02  0.69547339418E+01  0.35483287223E+02  0.43894243231E+02  0.00000000000E+00 0.  1.
</event>
<event>
 7    1  0.2497665E-015  0.9000769E+02  0.7816164E-02  0.1186339E+00
        -11   -1    0    0    0    0  0.00000000000E+00  0.00000000000E+00  0.45593999997E+02  0.45594000000E+02  0.51100000000E-03 0. -1.
         11   -1    0    0    0    0 -0.00000000000E+00 -0.00000000000E+00 -0.45593999997E+02  0.45594000000E+02  0.51100000000E-03 0.  1.
    9900012    2    1    2    0    0  0.63566421219E-01  0.78222286380E+00  0.88159559673E+00  0.90007693220E+02  0.89999953971E+02 0.  0.
        -12    1    1    2    0    0 -0.63566421219E-01 -0.78222286380E+00 -0.88159559673E+00  0.11803067799E+01  0.00000000000E+00 0.  1.
         11    1    3    3    0    0 -0.77413493078E+01 -0.18898174433E+01 -0.11319198916E+01  0.80486733054E+01  0.51100000000E-03 0. -1.
        -11    1    3    3    0    0  0.25721106196E+01  0.15461481911E+02 -0.37207900174E+02  0.40374509428E+02  0.51100000000E-03 0.  1.
         12    1    3    3    0    0  0.52328051094E+01 -0.12789441604E+02  0.39221415662E+02  0.41584510487E+02  0.00000000000E+00 0. -1.
</event>
<event>
 7    1  0.2497665E-015  0.9000770E+02  0.7816164E-02  0.1186339E+00
        -11   -1    0    0    0    0  0.00000000000E+00  0.00000000000E+00  0.45593999997E+02  0.45594000000E+02  0.51100000000E-03 0. -1.
         11   -1    0    0    0    0 -0.00000000000E+00 -0.00000000000E+00 -0.45593999997E+02  0.45594000000E+02  0.51100000000E-03 0.  1.
    9900012    2    1    2    0    0  0.19366682314E+00 -0.33668006764E+00  0.11145636674E+01  0.90007698142E+02  0.89999958958E+02 0.  0.
        -12    1    1    2    0    0 -0.19366682314E+00  0.33668006764E+00 -0.11145636674E+01  0.11803018576E+01  0.00000000000E+00 0.  1.
         11    1    3    3    0    0 -0.87078178328E+01 -0.11907596019E+02  0.31513132270E+01  0.15084684606E+02  0.51100000000E-03 0. -1.
        -11    1    3    3    0    0  0.39929821609E+02  0.75690351220E+01  0.92209675273E+01  0.41673818985E+02  0.51100000000E-03 0.  1.
         12    1    3    3    0    0 -0.31028336953E+02  0.40018808291E+01 -0.11257717087E+02  0.33249194551E+02  0.00000000000E+00 0. -1.
</event>
<event>
 7    1  0.2497665E-015  0.9000781E+02  0.7816164E-02  0.1186339E+00
        -11   -1    0    0    0    0  0.00000000000E+00  0.00000000000E+00  0.45593999997E+02  0.45594000000E+02  0.51100000000E-03 0. -1.
         11   -1    0    0    0    0 -0.00000000000E+00 -0.00000000000E+00 -0.45593999997E+02  0.45594000000E+02  0.51100000000E-03 0.  1.
    9900012    2    1    2    0    0 -0.27747424849E+00  0.11384016725E+01  0.14104085177E+00  0.90007812367E+02  0.90000074691E+02 0.  0.
        -12    1    1    2    0    0  0.27747424849E+00 -0.11384016725E+01 -0.14104085177E+00  0.11801876327E+01  0.00000000000E+00 0.  1.
         11    1    3    3    0    0 -0.26147731090E+02 -0.24642869708E+02  0.10887649243E+02  0.37543518414E+02  0.51100000000E-03 0. -1.
        -11    1    3    3    0    0 -0.31090021937E+00 -0.34690928932E+00  0.10029600631E+02  0.10040413044E+02  0.51100000000E-03 0.  1.
        -12    1    3    3    0    0  0.26181157061E+02  0.26128180669E+02 -0.20776209023E+02  0.42423880910E+02  0.00000000000E+00 0.  1.
</event>
<event>
 7    1  0.2497665E-015  0.9000792E+02  0.7816164E-02  0.1186339E+00
        -11   -1    0    0    0    0  0.00000000000E+00  0.00000000000E+00  0.45593999997E+02  0.45594000000E+02  0.51100000000E-03 0. -1.
         11   -1    0    0    0    0 -0.00000000000E+00 -0.00000000000E+00 -0.45593999997E+02  0.45594000000E+02  0.51100000000E-03 0.  1.
    9900012    2    1    2    0    0 -0.17199038204E-01 -0.32760507289E+00  0.11335671425E+01  0.90007917224E+02  0.90000180932E+02 0.  0.
        -12    1    1    2    0    0  0.17199038204E-01  0.32760507289E+00 -0.11335671425E+01  0.11800827756E+01  0.00000000000E+00 0.  1.
         11    1    3    3    0    0  0.35814743264E+02 -0.31041179039E+01  0.15953730194E+02  0.39330050730E+02  0.51100000000E-03 0. -1.
        -11    1    3    3    0    0  0.60695216935E+01  0.24596457152E+01 -0.23718052616E+01  0.69652287178E+01  0.51100000000E-03 0.  1.
        -12    1    3    3    0    0 -0.41901463996E+02  0.31686711581E+00 -0.12448357790E+02  0.43712637777E+02  0.00000000000E+00 0.  1.
</event>
<event>
 7    1  0.2497665E-015  0.9000777E+02  0.7816164E-02  0.1186339E+00
        -11   -1    0    0    0    0  0.00000000000E+00  0.00000000000E+00  0.45593999997E+02  0.45594000000E+02  0.51100000000E-03 0.  1.
         11   -1    0    0    0    0 -0.00000000000E+00 -0.00000000000E+00 -0.45593999997E+02  0.45594000000E+02  0.51100000000E-03 0. -1.
    9900012    2    1    2    0    0  0.40437577545E+00 -0.31021795712E-01 -0.11083594242E+01  0.90007770051E+02  0.90000031816E+02 0.  0.
        -12    1    1    2    0    0 -0.40437577545E+00  0.31021795712E-01  0.11083594242E+01  0.11802299491E+01  0.00000000000E+00 0.  1.
         11    1    3    3    0    0  0.39139449165E+01  0.12652460563E+01  0.74994048185E+01  0.85534136627E+01  0.51100000000E-03 0. -1.
        -11    1    3    3    0    0 -0.15017596847E+02  0.30576542231E+02 -0.26476904671E+02  0.43144867957E+02  0.51100000000E-03 0.  1.
         12    1    3    3    0    0  0.11508027706E+02 -0.31872810083E+02  0.17869140428E+02  0.38309488431E+02  0.00000000000E+00 0. -1.
</event>
<event>
 7    1  0.2497665E-015  0.9000754E+02  0.7816164E-02  0.1186339E+00
        -11   -1    0    0    0    0  0.00000000000E+00  0.00000000000E+00  0.45593999997E+02  0.45594000000E+02  0.51100000000E-03 0.  1.
         11   -1    0    0    0    0 -0.00000000000E+00 -0.00000000000E+00 -0.45593999997E+02  0.45594000000E+02  0.51100000000E-03 0. -1.
    9900012    2    1    2    0    0 -0.85910999164E+00 -0.45000399421E+00 -0.67298156102E+00  0.90007543413E+02  0.89999802186E+02 0.  0.
        -12    1    1    2    0    0  0.85910999164E+00  0.45000399421E+00  0.67298156102E+00  0.11804565871E+01  0.00000000000E+00 0.  1.
         11    1    3    3    0    0 -0.23804642646E+01  0.45020370313E+01 -0.21648934864E+01  0.55336887891E+01  0.51100000000E-03 0. -1.
        -11    1    3    3    0    0 -0.20093830842E+02  0.18019370762E+02  0.31123636485E+02  0.41196365239E+02  0.51100000000E-03 0.  1.
         12    1    3    3    0    0  0.21615185115E+02 -0.22971411788E+02 -0.29631724560E+02  0.43277489385E+02  0.00000000000E+00 0. -1.
</event>
<event>
 7    1  0.2497665E-015  0.9000776E+02  0.7816164E-02  0.1186339E+00
        -11   -1    0    0    0    0  0.00000000000E+00  0.00000000000E+00  0.45593999997E+02  0.45594000000E+02  0.51100000000E-03 0. -1.
         11   -1    0    0    0    0 -0.00000000000E+00 -0.00000000000E+00 -0.45593999997E+02  0.45594000000E+02  0.51100000000E-03 0.  1.
    9900012    2    1    2    0    0 -0.89824486305E+00 -0.63390740612E+00 -0.42928457718E+00  0.90007759481E+02  0.90000021107E+02 0.  0.
        -12    1    1    2    0    0  0.89824486305E+00  0.63390740612E+00  0.42928457718E+00  0.11802405186E+01  0.00000000000E+00 0.  1.
         11    1    3    3    0    0 -0.18825205475E+02  0.30775138685E+01  0.35570767225E+02  0.40362593252E+02  0.51100000000E-03 0. -1.
        -11    1    3    3    0    0  0.71971147987E+01 -0.36328417941E+01  0.34446322197E+01  0.87670686273E+01  0.51100000000E-03 0.  1.
        -12    1    3    3    0    0  0.10729845813E+02 -0.78579480524E-01 -0.39444684022E+02  0.40878097602E+02  0.00000000000E+00 0.  1.
</event>
<event>
 7    1  0.2497665E-015  0.9000780E+02  0.7816164E-02  0.1186339E+00
        -11   -1    0    0    0    0  0.00000000000E+00  0.00000000000E+00  0.45593999997E+02  0.45594000000E+02  0.51100000000E-03 0.  1.
         11   -1    0    0    0    0 -0.00000000000E+00 -0.00000000000E+00 -0.45593999997E+02  0.45594000000E+02  0.51100000000E-03 0. -1.
    9900012    2    1    2    0    0  0.91516406357E+00  0.48752007491E-01 -0.74362607489E+00  0.90007795882E+02  0.90000057987E+02 0.  0.
        -12    1    1    2    0    0 -0.91516406357E+00 -0.48752007491E-01  0.74362607489E+00  0.11802041183E+01  0.00000000000E+00 0.  1.
         11    1    3    3    0    0  0.43462436723E+02 -0.11183843303E+00  0.11966214850E+01  0.43479050323E+02  0.51100000000E-03 0. -1.
        -11    1    3    3    0    0 -0.63470720192E+01  0.71127774317E+01  0.79269453547E+00  0.95658397905E+01  0.51100000000E-03 0.  1.
        -12    1    3    3    0    0 -0.36200200640E+02 -0.69521869912E+01 -0.27329420954E+01  0.36962905768E+02  0.00000000000E+00 0.  1.
</event>
<event>
 7    1  0.2497665E-015  0.9000775E+02  0.7816164E-02  0.1186339E+00
        -11   -1    0    0    0    0  0.00000000000E+00  0.00000000000E+00  0.45593999997E+02  0.45594000000E+02  0.51100000000E-03 0.  1.
         11   -1    0    0    0    0 -0.00000000000E+00 -0.00000000000E+00 -0.45593999997E+02  0.45594000000E+02  0.51100000000E-03 0. -1.
    9900012    2    1    2    0    0  0.98786091005E+00 -0.64538816297E+00 -0.24546095413E-01  0.90007746820E+02  0.90000008278E+02 0.  0.
        -12    1    1    2    0    0 -0.98786091005E+00  0.64538816297E+00  0.24546095413E-01  0.11802531802E+01  0.00000000000E+00 0.  1.
         11    1    3    3    0    0  0.36427596952E+02  0.13234633639E+02 -0.15651704855E+02  0.41798339828E+02  0.51100000000E-03 0. -1.
        -11    1    3    3    0    0 -0.19359791248E+01 -0.77647189603E+01 -0.39522119599E+01  0.89251809696E+01  0.51100000000E-03 0.  1.
        -12    1    3    3    0    0 -0.33503756917E+02 -0.61153028419E+01  0.19579370720E+02  0.39284226022E+02  0.00000000000E+00 0.  1.
</event>
<event>
 7    1  0.2497665E-015  0.9000779E+02  0.7816164E-02  0.1186339E+00
        -11   -1    0    0    0    0  0.00000000000E+00  0.00000000000E+00  0.45593999997E+02  0.45594000000E+02  0.51100000000E-03 0. -1.
         11   -1    0    0    0    0 -0.00000000000E+00 -0.00000000000E+00 -0.45593999997E+02  0.45594000000E+02  0.51100000000E-03 0.  1.
    9900012    2    1    2    0    0 -0.10830592298E+01 -0.42891617442E+00  0.18949048121E+00  0.90007791111E+02  0.90000053153E+02 0.  0.
        -12    1    1    2    0    0  0.10830592298E+01  0.42891617442E+00 -0.18949048121E+00  0.11802088893E+01  0.00000000000E+00 0.  1.
         11    1    3    3    0    0  0.26252305899E+02  0.33145704294E+02 -0.35083483024E+01  0.42427936389E+02  0.51100000000E-03 0. -1.
        -11    1    3    3    0    0 -0.33070843674E+01 -0.92553841699E+01  0.85785954252E+01  0.13045736579E+02  0.51100000000E-03 0.  1.
        -12    1    3    3    0    0 -0.24028280762E+02 -0.24319236298E+02 -0.48807566416E+01  0.34534118143E+02  0.00000000000E+00 0.  1.
</event>
<event>
 7    1  0.2497665E-015  0.9000767E+02  0.7816164E-02  0.1186339E+00
        -11   -1    0    0    0    0  0.00000000000E+00  0.00000000000E+00  0.45593999997E+02  0.45594000000E+02  0.51100000000E-03 0.  1.
         11   -1    0    0    0    0 -0.00000000000E+00 -0.00000000000E+00 -0.45593999997E+02  0.45594000000E+02  0.51100000000E-03 0. -1.
    9900012    2    1    2    0    0 -0.20108491006E+00 -0.10309233109E+01  0.53846237706E+00  0.90007669646E+02  0.89999930085E+02 0.  0.
        -12    1    1    2    0    0  0.20108491006E+00  0.10309233109E+01 -0.53846237706E+00  0.11803303544E+01  0.00000000000E+00 0.  1.
         11    1    3    3    0    0  0.73197820807E+01 -0.32601618018E+02 -0.22670222344E+02  0.40378009962E+02  0.51100000000E-03 0. -1.
        -11    1    3    3    0    0 -0.11509213129E+02 -0.52340951595E+00  0.57192676209E+01  0.12862580097E+02  0.51100000000E-03 0.  1.
        -12    1    3    3    0    0  0.39883461386E+01  0.32094104223E+02  0.17489417100E+02  0.36767079586E+02  0.00000000000E+00 0.  1.
</event>
<event>
 7    1  0.2497665E-015  0.9000775E+02  0.7816164E-02  0.1186339E+00
        -11   -1    0    0    0    0  0.00000000000E+00  0.00000000000E+00  0.45593999997E+02  0.45594000000E+02  0.51100000000E-03 0. -1.
         11   -1    0    0    0    0 -0.00000000000E+00 -0.00000000000E+00 -0.45593999997E+02  0.45594000000E+02  0.51100000000E-03 0.  1.
    9900012    2    1    2    0    0  0.30846792241E-01  0.11683221799E+01  0.16452463010E+00  0.90007747233E+02  0.90000008696E+02 0.  0.
        -12    1    1    2    0    0 -0.30846792241E-01 -0.11683221799E+01 -0.16452463010E+00  0.11802527673E+01  0.00000000000E+00 0.  1.
         11    1    3    3    0    0  0.13195515127E+02 -0.42308580019E+01 -0.80879701894E+01  0.16044844684E+02  0.51100000000E-03 0. -1.
        -11    1    3    3    0    0 -0.58308583728E+01  0.23474621483E+02 -0.25394461383E+02  0.35070435303E+02  0.51100000000E-03 0.  1.
         12    1    3    3    0    0 -0.73338099617E+01 -0.18075441301E+02  0.33646956202E+02  0.38892467246E+02  0.00000000000E+00 0. -1.
</event>
<event>
 7    1  0.2497665E-015  0.9000756E+02  0.7816164E-02  0.1186339E+00
        -11   -1    0    0    0    0  0.00000000000E+00  0.00000000000E+00  0.45593999997E+02  0.45594000000E+02  0.51100000000E-03 0. -1.
         11   -1    0    0    0    0 -0.00000000000E+00 -0.00000000000E+00 -0.45593999997E+02  0.45594000000E+02  0.51100000000E-03 0.  1.
    9900012    2    1    2    0    0  0.37414411145E-01 -0.11257060391E+01 -0.35329090958E+00  0.90007564321E+02  0.89999823370E+02 0.  0.
        -12    1    1    2    0    0 -0.37414411145E-01  0.11257060391E+01  0.35329090958E+00  0.11804356786E+01  0.00000000000E+00 0.  1.
         11    1    3    3    0    0 -0.10334961159E+01 -0.75109360143E+01 -0.11115817374E+02  0.13455246939E+02  0.51100000000E-03 0. -1.
        -11    1    3    3    0    0 -0.21740651983E+02  0.11013469367E+02 -0.24333341782E+02  0.34439279591E+02  0.51100000000E-03 0.  1.
         12    1    3    3    0    0  0.22811562510E+02 -0.46282393923E+01  0.35095868247E+02  0.42113037792E+02  0.00000000000E+00 0. -1.
</event>
<event>
 7    1  0.2497665E-015  0.9000805E+02  0.7816164E-02  0.1186338E+00
        -11   -1    0    0    0    0  0.00000000000E+00  0.00000000000E+00  0.45593999997E+02  0.45594000000E+02  0.51100000000E-03 0.  1.
         11   -1    0    0    0    0 -0.00000000000E+00 -0.00000000000E+00 -0.45593999997E+02  0.45594000000E+02  0.51100000000E-03 0. -1.
    9900012    2    1    2    0    0 -0.78493184554E+00  0.57827064888E+00 -0.66464859605E+00  0.90008053941E+02  0.90000319453E+02 0.  0.
        -12    1    1    2    0    0  0.78493184554E+00 -0.57827064888E+00  0.66464859605E+00  0.11799460588E+01  0.00000000000E+00 0.  1.
         11    1    3    3    0    0 -0.22426562264E+02 -0.33761691159E+01 -0.34641662478E+02  0.41405241122E+02  0.51100000000E-03 0. -1.
        -11    1    3    3    0    0  0.72464175031E+01  0.16734764297E+00 -0.36667104764E+01  0.81230128550E+01  0.51100000000E-03 0.  1.
        -12    1    3    3    0    0  0.14395212915E+02  0.37870921218E+01  0.37643724358E+02  0.40479799964E+02  0.00000000000E+00 0.  1.
</event>
<event>
 7    1  0.2497665E-015  0.9000766E+02  0.7816164E-02  0.1186339E+00
        -11   -1    0    0    0    0  0.00000000000E+00  0.00000000000E+00  0.45593999997E+02  0.45594000000E+02  0.51100000000E-03 0.  1.
         11   -1    0    0    0    0 -0.00000000000E+00 -0.00000000000E+00 -0.45593999997E+02  0.45594000000E+02  0.51100000000E-03 0. -1.
    9900012    2    1    2    0    0 -0.18181818019E+00 -0.10947331938E+01  0.40211293485E+00  0.90007663849E+02  0.89999924212E+02 0.  0.
        -12    1    1    2    0    0  0.18181818019E+00  0.10947331938E+01 -0.40211293485E+00  0.11803361507E+01  0.00000000000E+00 0.  1.
         11    1    3    3    0    0  0.25322421763E+02  0.87350884489E+01 -0.29690288534E+02  0.39987998795E+02  0.51100000000E-03 0. -1.
        -11    1    3    3    0    0  0.16994393026E+01  0.72219370946E+01  0.29729345948E+01  0.79926722507E+01  0.51100000000E-03 0.  1.
        -12    1    3    3    0    0 -0.27203679246E+02 -0.17051758737E+02  0.27119466874E+02  0.42026992803E+02  0.00000000000E+00 0.  1.
</event>
<event>
 7    1  0.2497665E-015  0.9000785E+02  0.7816164E-02  0.1186339E+00
        -11   -1    0    0    0    0  0.00000000000E+00  0.00000000000E+00  0.45593999997E+02  0.45594000000E+02  0.51100000000E-03 0.  1.
         11   -1    0    0    0    0 -0.00000000000E+00 -0.00000000000E+00 -0.45593999997E+02  0.45594000000E+02  0.51100000000E-03 0. -1.
    9900012    2    1    2    0    0  0.75265143651E+00  0.50045048103E+00 -0.75882659779E+00  0.90007850571E+02  0.90000113399E+02 0.  0.
        -12    1    1    2    0    0 -0.75265143651E+00 -0.50045048103E+00  0.75882659779E+00  0.11801494288E+01  0.00000000000E+00 0.  1.
         11    1    3    3    0    0 -0.30609266957E+02  0.23095029004E+02  0.12742267529E+01  0.38365756117E+02  0.51100000000E-03 0. -1.
        -11    1    3    3    0    0 -0.13643165303E+01  0.69861585617E+00  0.96793911256E+01  0.98000018639E+01  0.51100000000E-03 0.  1.
        -12    1    3    3    0    0  0.32726234924E+02 -0.23293194379E+02 -0.11712444476E+02  0.41842092590E+02  0.00000000000E+00 0.  1.
</event>
<event>
 7    1  0.2497665E-015  0.9000756E+02  0.7816164E-02  0.1186339E+00
        -11   -1    0    0    0    0  0.00000000000E+00  0.00000000000E+00  0.45593999997E+02  0.45594000000E+02  0.51100000000E-03 0. -1.
         11   -1    0    0    0    0 -0.00000000000E+00 -0.00000000000E+00 -0.45593999997E+02  0.45594000000E+02  0.51100000000E-03 0.  1.
    9900012    2    1    2    0    0 -0.30955034828E+00  0.95929120518E+00  0.61430272419E+00  0.90007564118E+02  0.89999823164E+02 0.  0.
        -12    1    1    2    0    0  0.30955034828E+00 -0.95929120518E+00 -0.61430272419E+00  0.11804358820E+01  0.00000000000E+00 0.  1.
         11    1    3    3    0    0  0.84480028178E+01 -0.30153082642E+02  0.19545713607E+02  0.36913575621E+02  0.51100000000E-03 0. -1.
        -11    1    3    3    0    0 -0.10451526151E+02 -0.16231022767E+01  0.57712074820E+01  0.12048887747E+02  0.51100000000E-03 0.  1.
        -12    1    3    3    0    0  0.16939729847E+01  0.32735476124E+02 -0.24702618365E+02  0.41045100750E+02  0.00000000000E+00 0.  1.
</event>
<event>
 7    1  0.2497665E-015  0.9000765E+02  0.7816164E-02  0.1186339E+00
        -11   -1    0    0    0    0  0.00000000000E+00  0.00000000000E+00  0.45593999997E+02  0.45594000000E+02  0.51100000000E-03 0. -1.
         11   -1    0    0    0    0 -0.00000000000E+00 -0.00000000000E+00 -0.45593999997E+02  0.45594000000E+02  0.51100000000E-03 0.  1.
    9900012    2    1    2    0    0  0.49527169150E+00  0.79824864667E+00  0.71464796168E+00  0.90007654009E+02  0.89999914241E+02 0.  0.
        -12    1    1    2    0    0 -0.49527169150E+00 -0.79824864667E+00 -0.71464796168E+00  0.11803459914E+01  0.00000000000E+00 0.  1.
         11    1    3    3    0    0 -0.20857036085E-01 -0.96778970269E+00 -0.98929451211E+01  0.99401919174E+01  0.51100000000E-03 0. -1.
        -11    1    3    3    0    0 -0.30668717360E+02  0.50130087341E+01 -0.19427909294E+02  0.36648930965E+02  0.51100000000E-03 0.  1.
         12    1    3    3    0    0  0.31184846087E+02 -0.32469703847E+01  0.30035502377E+02  0.43418531127E+02  0.00000000000E+00 0. -1.
</event>
<event>
 7    1  0.2497665E-015  0.9000768E+02  0.7816164E-02  0.1186339E+00
        -11   -1    0    0    0    0  0.00000000000E+00  0.00000000000E+00  0.45593999997E+02  0.45594000000E+02  0.51100000000E-03 0.  1.
         11   -1    0    0    0    0 -0.00000000000E+00 -0.00000000000E+00 -0.45593999997E+02  0.45594000000E+02  0.51100000000E-03 0. -1.
    9900012    2    1    2    0    0  0.67327601791E+00 -0.36617379023E+00 -0.89764328093E+00  0.90007683390E+02  0.89999944010E+02 0.  0.
        -12    1    1    2    0    0 -0.67327601791E+00  0.36617379023E+00  0.89764328093E+00  0.11803166104E+01  0.00000000000E+00 0.  1.
         11    1    3    3    0    0 -0.15311399054E+02 -0.89418116008E-01 -0.57230220712E+01  0.16346250900E+02  0.51100000000E-03 0. -1.
        -11    1    3    3    0    0 -0.17814429047E+02  0.20663274930E+02  0.16919235076E+02  0.32102730864E+02  0.51100000000E-03 0.  1.
         12    1    3    3    0    0  0.33799104119E+02 -0.20940030604E+02 -0.12093856286E+02  0.41558701626E+02  0.00000000000E+00 0. -1.
</event>
<event>
 7    1  0.2497665E-015  0.9000773E+02  0.7816164E-02  0.1186339E+00
        -11   -1    0    0    0    0  0.00000000000E+00  0.00000000000E+00  0.45593999997E+02  0.45594000000E+02  0.51100000000E-03 0.  1.
         11   -1    0    0    0    0 -0.00000000000E+00 -0.00000000000E+00 -0.45593999997E+02  0.45594000000E+02  0.51100000000E-03 0. -1.
    9900012    2    1    2    0    0  0.77212880011E+00 -0.89182478981E+00  0.38891900052E-01  0.90007725913E+02  0.89999987095E+02 0.  0.
        -12    1    1    2    0    0 -0.77212880011E+00  0.89182478981E+00 -0.38891900052E-01  0.11802740866E+01  0.00000000000E+00 0.  1.
         11    1    3    3    0    0  0.23719016581E+02  0.22471426601E+02 -0.24455528337E+02  0.40812125987E+02  0.51100000000E-03 0. -1.
        -11    1    3    3    0    0  0.63569884709E+01 -0.44679074942E+01  0.51428786453E+01  0.93178699722E+01  0.51100000000E-03 0.  1.
        -12    1    3    3    0    0 -0.29303876252E+02 -0.18895343897E+02  0.19351541591E+02  0.39877729955E+02  0.00000000000E+00 0.  1.
</event>
<event>
 7    1  0.2497665E-015  0.9000772E+02  0.7816164E-02  0.1186339E+00
        -11   -1    0    0    0    0  0.00000000000E+00  0.00000000000E+00  0.45593999997E+02  0.45594000000E+02  0.51100000000E-03 0.  1.
         11   -1    0    0    0    0 -0.00000000000E+00 -0.00000000000E+00 -0.45593999997E+02  0.45594000000E+02  0.51100000000E-03 0. -1.
    9900012    2    1    2    0    0  0.53409115649E+00 -0.10486734034E+01  0.89922218073E-01  0.90007722373E+02  0.89999983509E+02 0.  0.
        -12    1    1    2    0    0 -0.53409115649E+00  0.10486734034E+01 -0.89922218073E-01  0.11802776266E+01  0.00000000000E+00 0.  1.
         11    1    3    3    0    0  0.65288039493E+01  0.30397863880E+02  0.19413186104E+02  0.36654156714E+02  0.51100000000E-03 0. -1.
        -11    1    3    3    0    0  0.91243150435E+01 -0.46904058069E+00 -0.16382876648E+02  0.18758245430E+02  0.51100000000E-03 0.  1.
        -12    1    3    3    0    0 -0.15119027836E+02 -0.30977496702E+02 -0.29403872381E+01  0.34595320229E+02  0.00000000000E+00 0.  1.
</event>
<event>
 7    1  0.2497665E-015  0.9000802E+02  0.7816164E-02  0.1186338E+00
        -11   -1    0    0    0    0  0.00000000000E+00  0.00000000000E+00  0.45593999997E+02  0.45594000000E+02  0.51100000000E-03 0.  1.
         11   -1    0    0    0    0 -0.00000000000E+00 -0.00000000000E+00 -0.45593999997E+02  0.45594000000E+02  0.51100000000E-03 0. -1.
    9900012    2    1    2    0    0 -0.65013617438E+00 -0.80332449061E+00 -0.56951833298E+00  0.90008017621E+02  0.90000282653E+02 0.  0.
        -12    1    1    2    0    0  0.65013617438E+00  0.80332449061E+00  0.56951833298E+00  0.11799823787E+01  0.00000000000E+00 0.  1.
         11    1    3    3    0    0 -0.37041051746E+02 -0.50242165923E+01 -0.81536742569E+01  0.38259177604E+02  0.51100000000E-03 0. -1.
        -11    1    3    3    0    0 -0.48292020579E+01  0.71498620986E+01  0.57806543457E+01  0.10385455477E+02  0.51100000000E-03 0.  1.
        -12    1    3    3    0    0  0.41220117629E+02 -0.29289699969E+01  0.18035015782E+01  0.41363384540E+02  0.00000000000E+00 0.  1.
</event>
<event>
 7    1  0.2497665E-015  0.9000770E+02  0.7816164E-02  0.1186339E+00
        -11   -1    0    0    0    0  0.00000000000E+00  0.00000000000E+00  0.45593999997E+02  0.45594000000E+02  0.51100000000E-03 0.  1.
         11   -1    0    0    0    0 -0.00000000000E+00 -0.00000000000E+00 -0.45593999997E+02  0.45594000000E+02  0.51100000000E-03 0. -1.
    9900012    2    1    2    0    0 -0.77418400438E+00 -0.42730584359E-01 -0.88990344246E+00  0.90007697110E+02  0.89999957912E+02 0.  0.
        -12    1    1    2    0    0  0.77418400438E+00  0.42730584359E-01  0.88990344246E+00  0.11803028901E+01  0.00000000000E+00 0.  1.
         11    1    3    3    0    0 -0.20261217915E+01  0.44462593970E+01  0.79163592741E+01  0.93028563655E+01  0.51100000000E-03 0. -1.
        -11    1    3    3    0    0 -0.85305192504E-01  0.11209492376E+02  0.33624244991E+02  0.35443615049E+02  0.51100000000E-03 0.  1.
         12    1    3    3    0    0  0.13372429796E+01 -0.15698482358E+02 -0.42430507707E+02  0.45261225695E+02  0.00000000000E+00 0. -1.
</event>
<event>
 7    1  0.2497665E-015  0.9000775E+02  0.7816164E-02  0.1186339E+00
        -11   -1    0    0    0    0  0.00000000000E+00  0.00000000000E+00  0.45593999997E+02  0.45594000000E+02  0.51100000000E-03 0. -1.
         11   -1    0    0    0    0 -0.00000000000E+00 -0.00000000000E+00 -0.45593999997E+02  0.45594000000E+02  0.51100000000E-03 0.  1.
    9900012    2    1    2    0    0 -0.10884530353E+01 -0.27914989130E+00 -0.36102412347E+00  0.90007748718E+02  0.90000010201E+02 0.  0.
        -12    1    1    2    0    0  0.10884530353E+01  0.27914989130E+00  0.36102412347E+00  0.11802512824E+01  0.00000000000E+00 0.  1.
         11    1    3    3    0    0  0.11773307214E+02 -0.29901616516E+02  0.15548116633E+02  0.35699598936E+02  0.51100000000E-03 0. -1.
        -11    1    3    3    0    0  0.80107603639E+01 -0.60509359267E+01 -0.51270787808E-01  0.10039359350E+02  0.51100000000E-03 0.  1.
        -12    1    3    3    0    0 -0.20872520614E+02  0.35673402552E+02 -0.15857869969E+02  0.44268790432E+02  0.00000000000E+00 0.  1.
</event>
<event>
 7    1  0.2497665E-015  0.9000770E+02  0.7816164E-02  0.1186339E+00
        -11   -1    0    0    0    0  0.00000000000E+00  0.00000000000E+00  0.45593999997E+02  0.45594000000E+02  0.51100000000E-03 0.  1.
         11   -1    0    0    0    0 -0.00000000000E+00 -0.00000000000E+00 -0.45593999997E+02  0.45594000000E+02  0.51100000000E-03 0. -1.
    9900012    2    1    2    0    0  0.39825673152E+00 -0.96908463920E+00 -0.54349251389E+00  0.90007695982E+02  0.89999956769E+02 0.  0.
        -12    1    1    2    0    0 -0.39825673152E+00  0.96908463920E+00  0.54349251389E+00  0.11803040179E+01  0.00000000000E+00 0.  1.
         11    1    3    3    0    0 -0.24265179419E+01  0.75556545998E+01  0.40429346566E+01  0.89062464963E+01  0.51100000000E-03 0. -1.
        -11    1    3    3    0    0  0.23987738858E+02  0.13004838409E+02  0.26309923711E+02  0.37904478937E+02  0.51100000000E-03 0.  1.
         12    1    3    3    0    0 -0.21162964184E+02 -0.21529577648E+02 -0.30896350882E+02  0.43196970549E+02  0.00000000000E+00 0. -1.
</event>
<event>
 7    1  0.2497665E-015  0.9000774E+02  0.7816164E-02  0.1186339E+00
        -11   -1    0    0    0    0  0.00000000000E+00  0.00000000000E+00  0.45593999997E+02  0.45594000000E+02  0.51100000000E-03 0.  1.
         11   -1    0    0    0    0 -0.00000000000E+00 -0.00000000000E+00 -0.45593999997E+02  0.45594000000E+02  0.51100000000E-03 0. -1.
    9900012    2    1    2    0    0 -0.55863002454E+00  0.97470532229E+00 -0.36178839176E+00  0.90007742058E+02  0.90000003453E+02 0.  0.
        -12    1    1    2    0    0  0.55863002454E+00 -0.97470532229E+00  0.36178839176E+00  0.11802579422E+01  0.00000000000E+00 0.  1.
         11    1    3    3    0    0 -0.35986177817E+02 -0.92067587520E+01  0.95990372913E+01  0.38365491236E+02  0.51100000000E-03 0. -1.
        -11    1    3    3    0    0 -0.59369319360E+01  0.10847999790E+01 -0.69174291774E+01  0.91801295466E+01  0.51100000000E-03 0.  1.
        -12    1    3    3    0    0  0.41364479729E+02  0.90966640953E+01 -0.30433965057E+01  0.42462121275E+02  0.00000000000E+00 0.  1.
</event>
<event>
 7    1  0.2497665E-015  0.9000774E+02  0.7816164E-02  0.1186339E+00
        -11   -1    0    0    0    0  0.00000000000E+00  0.00000000000E+00  0.45593999997E+02  0.45594000000E+02  0.51100000000E-03 0. -1.
         11   -1    0    0    0    0 -0.00000000000E+00 -0.00000000000E+00 -0.45593999997E+02  0.45594000000E+02  0.51100000000E-03 0.  1.
    9900012    2    1    2    0    0  0.25303213027E+00 -0.77898288561E+00  0.84980237089E+00  0.90007744238E+02  0.90000005662E+02 0.  0.
        -12    1    1    2    0    0 -0.25303213027E+00  0.77898288561E+00 -0.84980237089E+00  0.11802557624E+01  0.00000000000E+00 0.  1.
         11    1    3    3    0    0 -0.21078156054E+02  0.11155794207E+02  0.44478331640E+01  0.24259505913E+02  0.51100000000E-03 0. -1.
        -11    1    3    3    0    0 -0.24794930004E+01  0.63381802395E+01 -0.26901793405E+02  0.27749358604E+02  0.51100000000E-03 0.  1.
         12    1    3    3    0    0  0.23810681185E+02 -0.18272957332E+02  0.23303762612E+02  0.37998879720E+02  0.00000000000E+00 0. -1.
</event>
<event>
 7    1  0.2497665E-015  0.9000770E+02  0.7816164E-02  0.1186339E+00
        -11   -1    0    0    0    0  0.00000000000E+00  0.00000000000E+00  0.45593999997E+02  0.45594000000E+02  0.51100000000E-03 0.  1.
         11   -1    0    0    0    0 -0.00000000000E+00 -0.00000000000E+00 -0.45593999997E+02  0.45594000000E+02  0.51100000000E-03 0. -1.
    9900012    2    1    2    0    0  0.11086539111E+01 -0.27215111208E+00 -0.29989510723E+00  0.90007696311E+02  0.89999957103E+02 0.  0.
        -12    1    1    2    0    0 -0.11086539111E+01  0.27215111208E+00  0.29989510723E+00  0.11803036888E+01  0.00000000000E+00 0.  1.
         11    1    3    3    0    0 -0.39041364551E+02 -0.61037591402E+01 -0.11334728229E+02  0.41109124120E+02  0.51100000000E-03 0. -1.
        -11    1    3    3    0    0  0.53879305305E+01 -0.35505488089E+01 -0.62282371134E+01  0.89681174194E+01  0.51100000000E-03 0.  1.
        -12    1    3    3    0    0  0.34762087932E+02  0.93821568371E+01  0.17263070235E+02  0.39930454771E+02  0.00000000000E+00 0.  1.
</event>
<event>
 7    1  0.2497665E-015  0.9000782E+02  0.7816164E-02  0.1186339E+00
        -11   -1    0    0    0    0  0.00000000000E+00  0.00000000000E+00  0.45593999997E+02  0.45594000000E+02  0.51100000000E-03 0.  1.
         11   -1    0    0    0    0 -0.00000000000E+00 -0.00000000000E+00 -0.45593999997E+02  0.45594000000E+02  0.51100000000E-03 0. -1.
    9900012    2    1    2    0    0  0.20643152104E+00  0.85651585109E+00 -0.78522793246E+00  0.90007823623E+02  0.90000086094E+02 0.  0.
        -12    1    1    2    0    0 -0.20643152104E+00 -0.85651585109E+00  0.78522793246E+00  0.11801763775E+01  0.00000000000E+00 0.  1.
         11    1    3    3    0    0  0.38470338489E+01 -0.10135129362E+02 -0.31958428839E+02  0.33747024916E+02  0.51100000000E-03 0. -1.
        -11    1    3    3    0    0  0.10973755628E+01  0.10417333247E+02 -0.10195578143E+02  0.14617622209E+02  0.51100000000E-03 0.  1.
        -12    1    3    3    0    0 -0.47379778907E+01  0.57431196608E+00  0.41368779050E+02  0.41643176497E+02  0.00000000000E+00 0.  1.
</event>
<event>
 7    1  0.2497665E-015  0.9000774E+02  0.7816164E-02  0.1186339E+00
        -11   -1    0    0    0    0  0.00000000000E+00  0.00000000000E+00  0.45593999997E+02  0.45594000000E+02  0.51100000000E-03 0.  1.
         11   -1    0    0    0    0 -0.00000000000E+00 -0.00000000000E+00 -0.45593999997E+02  0.45594000000E+02  0.51100000000E-03 0. -1.
    9900012    2    1    2    0    0 -0.11068750734E+01 -0.16299581836E-01  0.40935759868E+00  0.90007740813E+02  0.90000002192E+02 0.  0.
        -12    1    1    2    0    0  0.11068750734E+01  0.16299581836E-01 -0.40935759868E+00  0.11802591869E+01  0.00000000000E+00 0.  1.
         11    1    3    3    0    0  0.59827124056E+01 -0.67708560352E+01 -0.15683206670E+01  0.91704399651E+01  0.51100000000E-03 0. -1.
        -11    1    3    3    0    0 -0.33970149801E+02 -0.30846744420E+01  0.26460982059E+02  0.43170242827E+02  0.51100000000E-03 0.  1.
         12    1    3    3    0    0  0.26880562322E+02  0.98392308954E+01 -0.24483303793E+02  0.37667058021E+02  0.00000000000E+00 0. -1.
</event>
<event>
 7    1  0.2497665E-015  0.9000773E+02  0.7816164E-02  0.1186339E+00
        -11   -1    0    0    0    0  0.00000000000E+00  0.00000000000E+00  0.45593999997E+02  0.45594000000E+02  0.51100000000E-03 0.  1.
         11   -1    0    0    0    0 -0.00000000000E+00 -0.00000000000E+00 -0.45593999997E+02  0.45594000000E+02  0.51100000000E-03 0. -1.
    9900012    2    1    2    0    0  0.63137423968E+00 -0.99570468941E+00 -0.54455650589E-01  0.90007734489E+02  0.89999995784E+02 0.  0.
        -12    1    1    2    0    0 -0.63137423968E+00  0.99570468941E+00  0.54455650589E-01  0.11802655112E+01  0.00000000000E+00 0.  1.
         11    1    3    3    0    0 -0.39304688091E+02 -0.39899042989E+01 -0.57418498927E+01  0.39921757009E+02  0.51100000000E-03 0. -1.
        -11    1    3    3    0    0  0.86472096715E+00  0.24504053371E+01 -0.82112819212E+01  0.86126290828E+01  0.51100000000E-03 0.  1.
        -12    1    3    3    0    0  0.39071341364E+02  0.54379427247E+00  0.13898676163E+02  0.41473348397E+02  0.00000000000E+00 0.  1.
</event>
<event>
 7    1  0.2497665E-015  0.9000768E+02  0.7816164E-02  0.1186339E+00
        -11   -1    0    0    0    0  0.00000000000E+00  0.00000000000E+00  0.45593999997E+02  0.45594000000E+02  0.51100000000E-03 0. -1.
         11   -1    0    0    0    0 -0.00000000000E+00 -0.00000000000E+00 -0.45593999997E+02  0.45594000000E+02  0.51100000000E-03 0.  1.
    9900012    2    1    2    0    0  0.10577971567E+01  0.16019026507E+00  0.49856911982E+00  0.90007675082E+02  0.89999935593E+02 0.  0.
        -12    1    1    2    0    0 -0.10577971567E+01 -0.16019026507E+00 -0.49856911982E+00  0.11803249184E+01  0.00000000000E+00 0.  1.
         11    1    3    3    0    0 -0.25185372951E+01  0.20954412716E+01  0.96940636419E+01  0.10232730544E+02  0.51100000000E-03 0. -1.
        -11    1    3    3    0    0  0.23916821515E+02  0.17937204584E+02 -0.31653337664E+02  0.43539538872E+02  0.51100000000E-03 0.  1.
         12    1    3    3    0    0 -0.20340487063E+02 -0.19872455591E+02  0.22457843142E+02  0.36235405666E+02  0.00000000000E+00 0. -1.
</event>
<event>
 7    1  0.2497665E-015  0.9000807E+02  0.7816164E-02  0.1186338E+00
        -11   -1    0    0    0    0  0.00000000000E+00  0.00000000000E+00  0.45593999997E+02  0.45594000000E+02  0.51100000000E-03 0. -1.
         11   -1    0    0    0    0 -0.00000000000E+00 -0.00000000000E+00 -0.45593999997E+02  0.45594000000E+02  0.51100000000E-03 0.  1.
    9900012    2    1    2    0    0  0.34150829114E+00  0.11164867386E+01  0.17047606404E+00  0.90008070918E+02  0.90000336653E+02 0.  0.
        -12    1    1    2    0    0 -0.34150829114E+00 -0.11164867386E+01 -0.17047606404E+00  0.11799290821E+01  0.00000000000E+00 0.  1.
         11    1    3    3    0    0  0.18621652775E+02  0.37634488061E+02  0.93018151571E+01  0.43007492477E+02  0.51100000000E-03 0. -1.
        -11    1    3    3    0    0 -0.53562648992E+01  0.17109685713E+01 -0.22852444835E+01  0.60695411468E+01  0.51100000000E-03 0.  1.
        -12    1    3    3    0    0 -0.12923879584E+02 -0.38228969893E+02 -0.68460946096E+01  0.40931037295E+02  0.00000000000E+00 0.  1.
</event>
<event>
 7    1  0.2698756E-015  0.9000778E+02  0.7816164E-02  0.1186339E+00
        -11   -1    0    0    0    0  0.00000000000E+00  0.00000000000E+00  0.45593999997E+02  0.45594000000E+02  0.51100000000E-03 0. -1.
         11   -1    0    0    0    0 -0.00000000000E+00 -0.00000000000E+00 -0.45593999997E+02  0.45594000000E+02  0.51100000000E-03 0.  1.
    9900012    2    1    2    0    0 -0.10362034203E+01  0.22964500500E+00  0.51620385008E+00  0.90007779355E+02  0.90000041242E+02 0.  0.
        -12    1    1    2    0    0  0.10362034203E+01 -0.22964500500E+00 -0.51620385008E+00  0.11802206452E+01  0.00000000000E+00 0.  1.
         11    1    3    3    0    0  0.24335895863E+02 -0.23175528390E+02  0.11605615815E+02  0.35553217327E+02  0.51100000000E-03 0. -1.
        -11    1    3    3    0    0  0.42338603326E+01 -0.39714942892E+01  0.79647426143E+01  0.98557326150E+01  0.51100000000E-03 0.  1.
        -12    1    3    3    0    0 -0.29605959616E+02  0.27376667684E+02 -0.19054154580E+02  0.44598829413E+02  0.00000000000E+00 0.  1.
</event>
<event>
 7    1  0.2497665E-015  0.9000741E+02  0.7816164E-02  0.1186340E+00
        -11   -1    0    0    0    0  0.00000000000E+00  0.00000000000E+00  0.45593999997E+02  0.45594000000E+02  0.51100000000E-03 0.  1.
         11   -1    0    0    0    0 -0.00000000000E+00 -0.00000000000E+00 -0.45593999997E+02  0.45594000000E+02  0.51100000000E-03 0. -1.
    9900012    2    1    2    0    0  0.11805353120E+01  0.11078010787E-01 -0.38161047188E-02  0.90007406544E+02  0.89999663510E+02 0.  0.
        -12    1    1    2    0    0 -0.11805353120E+01 -0.11078010787E-01  0.38161047188E-02  0.11805934558E+01  0.00000000000E+00 0.  1.
         11    1    3    3    0    0  0.10103014321E+02  0.16747101982E+02 -0.38520928108E+02  0.43201831277E+02  0.51100000000E-03 0. -1.
        -11    1    3    3    0    0  0.29053391919E+01  0.21752621440E+01  0.97520337808E+01  0.10405523742E+02  0.51100000000E-03 0.  1.
        -12    1    3    3    0    0 -0.11827818201E+02 -0.18911286115E+02  0.28765078222E+02  0.36400051525E+02  0.00000000000E+00 0.  1.
</event>
<event>
 7    1  0.2497665E-015  0.9000759E+02  0.7816164E-02  0.1186339E+00
        -11   -1    0    0    0    0  0.00000000000E+00  0.00000000000E+00  0.45593999997E+02  0.45594000000E+02  0.51100000000E-03 0.  1.
         11   -1    0    0    0    0 -0.00000000000E+00 -0.00000000000E+00 -0.45593999997E+02  0.45594000000E+02  0.51100000000E-03 0. -1.
    9900012    2    1    2    0    0  0.47316450262E+00  0.10283772279E+01 -0.33454071197E+00  0.90007592504E+02  0.89999851925E+02 0.  0.
        -12    1    1    2    0    0 -0.47316450262E+00 -0.10283772279E+01  0.33454071197E+00  0.11804074963E+01  0.00000000000E+00 0.  1.
         11    1    3    3    0    0 -0.26734909199E+02 -0.34023427881E+01 -0.28804240985E+00  0.26952073668E+02  0.51100000000E-03 0. -1.
        -11    1    3    3    0    0 -0.13953476363E+02  0.52342602027E+00  0.13622960847E+02  0.19507909676E+02  0.51100000000E-03 0.  1.
         12    1    3    3    0    0  0.41161550065E+02  0.39072939957E+01 -0.13669459149E+02  0.43547609160E+02  0.00000000000E+00 0. -1.
</event>
<event>
 7    1  0.2497665E-015  0.9000786E+02  0.7816164E-02  0.1186339E+00
        -11   -1    0    0    0    0  0.00000000000E+00  0.00000000000E+00  0.45593999997E+02  0.45594000000E+02  0.51100000000E-03 0. -1.
         11   -1    0    0    0    0 -0.00000000000E+00 -0.00000000000E+00 -0.45593999997E+02  0.45594000000E+02  0.51100000000E-03 0.  1.
    9900012    2    1    2    0    0 -0.58189281547E+00 -0.76353755414E+00  0.68640213733E+00  0.90007857322E+02  0.90000120239E+02 0.  0.
        -12    1    1    2    0    0  0.58189281547E+00  0.76353755414E+00 -0.68640213733E+00  0.11801426776E+01  0.00000000000E+00 0.  1.
         11    1    3    3    0    0 -0.12407174269E+02 -0.23248807152E+02  0.20784002332E+02  0.33562177530E+02  0.51100000000E-03 0. -1.
        -11    1    3    3    0    0  0.39738050954E+01 -0.43357852417E+01  0.12315761280E+02  0.13648008527E+02  0.51100000000E-03 0.  1.
        -12    1    3    3    0    0  0.78514763583E+01  0.26821054840E+02 -0.32413361474E+02  0.42797671266E+02  0.00000000000E+00 0.  1.
</event>
<event>
 7    1  0.2497665E-015  0.9000774E+02  0.7816164E-02  0.1186339E+00
        -11   -1    0    0    0    0  0.00000000000E+00  0.00000000000E+00  0.45593999997E+02  0.45594000000E+02  0.51100000000E-03 0. -1.
         11   -1    0    0    0    0 -0.00000000000E+00 -0.00000000000E+00 -0.45593999997E+02  0.45594000000E+02  0.51100000000E-03 0.  1.
    9900012    2    1    2    0    0 -0.10010469327E+01  0.57030807748E+00 -0.25626993019E+00  0.90007737088E+02  0.89999998417E+02 0.  0.
        -12    1    1    2    0    0  0.10010469327E+01 -0.57030807748E+00  0.25626993019E+00  0.11802629121E+01  0.00000000000E+00 0.  1.
         11    1    3    3    0    0 -0.74202607840E+01 -0.21903062429E+01 -0.31279521752E+01  0.83451660626E+01  0.51100000000E-03 0. -1.
        -11    1    3    3    0    0  0.20863202039E+02 -0.21469335411E+01 -0.35017344546E+02  0.40817850780E+02  0.51100000000E-03 0.  1.
         12    1    3    3    0    0 -0.14443988187E+02  0.49075478615E+01  0.37889026791E+02  0.40844720246E+02  0.00000000000E+00 0. -1.
</event>
<event>
 7    1  0.2497665E-015  0.9000782E+02  0.7816164E-02  0.1186339E+00
        -11   -1    0    0    0    0  0.00000000000E+00  0.00000000000E+00  0.45593999997E+02  0.45594000000E+02  0.51100000000E-03 0.  1.
         11   -1    0    0    0    0 -0.00000000000E+00 -0.00000000000E+00 -0.45593999997E+02  0.45594000000E+02  0.51100000000E-03 0. -1.
    9900012    2    1    2    0    0  0.10931453646E+01  0.19807618901E+00  0.39826401873E+00  0.90007824084E+02  0.90000086562E+02 0.  0.
        -12    1    1    2    0    0 -0.10931453646E+01 -0.19807618901E+00 -0.39826401873E+00  0.11801759163E+01  0.00000000000E+00 0.  1.
         11    1    3    3    0    0 -0.14892147915E+02  0.32801944573E+02 -0.93149878662E+01  0.37209039715E+02  0.51100000000E-03 0. -1.
        -11    1    3    3    0    0  0.94861509695E+01  0.62483963246E+01 -0.23526650204E+01  0.11600196111E+02  0.51100000000E-03 0.  1.
        -12    1    3    3    0    0  0.64991423103E+01 -0.38852264708E+02  0.12065916905E+02  0.41198588258E+02  0.00000000000E+00 0.  1.
</event>
<event>
 7    1  0.2497665E-015  0.9000775E+02  0.7816164E-02  0.1186339E+00
        -11   -1    0    0    0    0  0.00000000000E+00  0.00000000000E+00  0.45593999997E+02  0.45594000000E+02  0.51100000000E-03 0. -1.
         11   -1    0    0    0    0 -0.00000000000E+00 -0.00000000000E+00 -0.45593999997E+02  0.45594000000E+02  0.51100000000E-03 0.  1.
    9900012    2    1    2    0    0 -0.63700364546E-01  0.40153392215E+00  0.11080210283E+01  0.90007746711E+02  0.90000008168E+02 0.  0.
        -12    1    1    2    0    0  0.63700364546E-01 -0.40153392215E+00 -0.11080210283E+01  0.11802532890E+01  0.00000000000E+00 0.  1.
         11    1    3    3    0    0  0.10243250458E+01  0.17731739268E+01  0.34236183323E+02  0.34297370692E+02  0.51100000000E-03 0. -1.
        -11    1    3    3    0    0  0.93178516169E+01  0.69696493798E+00  0.85729300911E+01  0.12680822114E+02  0.51100000000E-03 0.  1.
        -12    1    3    3    0    0 -0.10405877027E+02 -0.20686049426E+01 -0.41701092386E+02  0.43029553905E+02  0.00000000000E+00 0.  1.
</event>
<event>
 7    1  0.2497665E-015  0.9000774E+02  0.7816164E-02  0.1186339E+00
        -11   -1    0    0    0    0  0.00000000000E+00  0.00000000000E+00  0.45593999997E+02  0.45594000000E+02  0.51100000000E-03 0. -1.
         11   -1    0    0    0    0 -0.00000000000E+00 -0.00000000000E+00 -0.45593999997E+02  0.45594000000E+02  0.51100000000E-03 0.  1.
    9900012    2    1    2    0    0 -0.55453453323E+00 -0.98359033327E+00 -0.34360620253E+00  0.90007735744E+02  0.89999997056E+02 0.  0.
        -12    1    1    2    0    0  0.55453453323E+00  0.98359033327E+00  0.34360620253E+00  0.11802642563E+01  0.00000000000E+00 0.  1.
         11    1    3    3    0    0 -0.82126173794E+01  0.22363927889E+02  0.32183568929E+02  0.40042158585E+02  0.51100000000E-03 0. -1.
        -11    1    3    3    0    0 -0.68283802422E+01 -0.78135838234E+01  0.84071636707E+00  0.10410844018E+02  0.51100000000E-03 0.  1.
        -12    1    3    3    0    0  0.14486463088E+02 -0.15533934399E+02 -0.33367891499E+02  0.39554733141E+02  0.00000000000E+00 0.  1.
</event>
<event>
 7    1  0.2497665E-015  0.9000764E+02  0.7816164E-02  0.1186339E+00
        -11   -1    0    0    0    0  0.00000000000E+00  0.00000000000E+00  0.45593999997E+02  0.45594000000E+02  0.51100000000E-03 0.  1.
         11   -1    0    0    0    0 -0.00000000000E+00 -0.00000000000E+00 -0.45593999997E+02  0.45594000000E+02  0.51100000000E-03 0. -1.
    9900012    2    1    2    0    0 -0.10711078207E+01 -0.49565233276E+00 -0.17470013758E-01  0.90007640563E+02  0.89999900619E+02 0.  0.
        -12    1    1    2    0    0  0.10711078207E+01  0.49565233276E+00  0.17470013758E-01  0.11803594368E+01  0.00000000000E+00 0.  1.
         11    1    3    3    0    0  0.55998727340E+01 -0.46049005487E+01  0.24180569747E+01  0.76426882374E+01  0.51100000000E-03 0. -1.
        -11    1    3    3    0    0  0.20917400773E+02  0.17823175173E+02  0.27876387364E+02  0.39144555190E+02  0.51100000000E-03 0.  1.
         12    1    3    3    0    0 -0.27588381328E+02 -0.13713926957E+02 -0.30311914352E+02  0.43220397136E+02  0.00000000000E+00 0. -1.
</event>
<event>
 7    1  0.2497665E-015  0.9000763E+02  0.7816164E-02  0.1186339E+00
        -11   -1    0    0    0    0  0.00000000000E+00  0.00000000000E+00  0.45593999997E+02  0.45594000000E+02  0.51100000000E-03 0.  1.
         11   -1    0    0    0    0 -0.00000000000E+00 -0.00000000000E+00 -0.45593999997E+02  0.45594000000E+02  0.51100000000E-03 0. -1.
    9900012    2    1    2    0    0  0.92558648126E+00  0.68077340202E+00 -0.27039327275E+00  0.90007629176E+02  0.89999889081E+02 0.  0.
        -12    1    1    2    0    0 -0.92558648126E+00 -0.68077340202E+00  0.27039327275E+00  0.11803708236E+01  0.00000000000E+00 0.  1.
         11    1    3    3    0    0  0.51375726786E+00 -0.80456349048E+01 -0.64456191335E+01  0.10321927815E+02  0.51100000000E-03 0. -1.
        -11    1    3    3    0    0  0.19836335958E+02  0.10079199153E+02  0.37030035552E+02  0.43200625146E+02  0.51100000000E-03 0.  1.
         12    1    3    3    0    0 -0.19424506744E+02 -0.13527908462E+01 -0.30854809691E+02  0.36485076215E+02  0.00000000000E+00 0. -1.
</event>
<event>
 7    1  0.2497665E-015  0.9000771E+02  0.7816164E-02  0.1186339E+00
        -11   -1    0    0    0    0  0.00000000000E+00  0.00000000000E+00  0.45593999997E+02  0.45594000000E+02  0.51100000000E-03 0.  1.
         11   -1    0    0    0    0 -0.00000000000E+00 -0.00000000000E+00 -0.45593999997E+02  0.45594000000E+02  0.51100000000E-03 0. -1.
    9900012    2    1    2    0    0  0.77964267234E-02 -0.74298923055E+00 -0.91706064660E+00  0.90007705964E+02  0.89999966883E+02 0.  0.
        -12    1    1    2    0    0 -0.77964267234E-02  0.74298923055E+00  0.91706064660E+00  0.11802940356E+01  0.00000000000E+00 0.  1.
         11    1    3    3    0    0 -0.32687387315E+02  0.17801188089E+02  0.68599479052E+01  0.37847146159E+02  0.51100000000E-03 0. -1.
        -11    1    3    3    0    0 -0.75520031351E+01 -0.51006800396E+01 -0.20717262604E+01  0.93456801881E+01  0.51100000000E-03 0.  1.
        -12    1    3    3    0    0  0.40247186877E+02 -0.13443497280E+02 -0.57052822914E+01  0.42814879617E+02  0.00000000000E+00 0.  1.
</event>
<event>
 7    1  0.2497665E-015  0.9000778E+02  0.7816164E-02  0.1186339E+00
        -11   -1    0    0    0    0  0.00000000000E+00  0.00000000000E+00  0.45593999997E+02  0.45594000000E+02  0.51100000000E-03 0.  1.
         11   -1    0    0    0    0 -0.00000000000E+00 -0.00000000000E+00 -0.45593999997E+02  0.45594000000E+02  0.51100000000E-03 0. -1.
    9900012    2    1    2    0    0 -0.11136681856E+01 -0.32511077804E+00 -0.21673223546E+00  0.90007776840E+02  0.90000038694E+02 0.  0.
        -12    1    1    2    0    0  0.11136681856E+01  0.32511077804E+00  0.21673223546E+00  0.11802231600E+01  0.00000000000E+00 0.  1.
         11    1    3    3    0    0  0.19065744450E+02 -0.35542095798E+02  0.66511122320E+00  0.40338388148E+02  0.51100000000E-03 0. -1.
        -11    1    3    3    0    0  0.48045164510E+01  0.48519325731E+01 -0.71091054758E+01  0.98571805781E+01  0.51100000000E-03 0.  1.
        -12    1    3    3    0    0 -0.24983929087E+02  0.30365052447E+02  0.62272620171E+01  0.39812208114E+02  0.00000000000E+00 0.  1.
</event>
<event>
 7    1  0.2497665E-015  0.9000774E+02  0.7816164E-02  0.1186339E+00
        -11   -1    0    0    0    0  0.00000000000E+00  0.00000000000E+00  0.45593999997E+02  0.45594000000E+02  0.51100000000E-03 0.  1.
         11   -1    0    0    0    0 -0.00000000000E+00 -0.00000000000E+00 -0.45593999997E+02  0.45594000000E+02  0.51100000000E-03 0. -1.
    9900012    2    1    2    0    0 -0.55859885596E+00 -0.86002819252E+00 -0.58422803393E+00  0.90007744278E+02  0.90000005702E+02 0.  0.
        -12    1    1    2    0    0  0.55859885596E+00  0.86002819252E+00  0.58422803393E+00  0.11802557221E+01  0.00000000000E+00 0.  1.
         11    1    3    3    0    0 -0.36679438677E+01  0.11185402710E+02  0.46298287826E+01  0.12649203960E+02  0.51100000000E-03 0. -1.
        -11    1    3    3    0    0  0.39552198025E+02 -0.92027095114E+01 -0.36313038563E+01  0.40770732136E+02  0.51100000000E-03 0.  1.
         12    1    3    3    0    0 -0.36442853013E+02 -0.28427213912E+01 -0.15827529603E+01  0.36587808182E+02  0.00000000000E+00 0. -1.
</event>
<event>
 7    1  0.2665578E-015  0.9000764E+02  0.7816164E-02  0.1186339E+00
        -11   -1    0    0    0    0  0.00000000000E+00  0.00000000000E+00  0.45593999997E+02  0.45594000000E+02  0.51100000000E-03 0. -1.
         11   -1    0    0    0    0 -0.00000000000E+00 -0.00000000000E+00 -0.45593999997E+02  0.45594000000E+02  0.51100000000E-03 0.  1.
    9900012    2    1    2    0    0  0.26975036608E+00  0.54311998175E-01  0.11478359459E+01  0.90007643100E+02  0.89999903189E+02 0.  0.
        -12    1    1    2    0    0 -0.26975036608E+00 -0.54311998175E-01 -0.11478359459E+01  0.11803569002E+01  0.00000000000E+00 0.  1.
         11    1    3    3    0    0 -0.23238087877E+02  0.36573549028E+01  0.28081188914E+02  0.36632473902E+02  0.51100000000E-03 0. -1.
        -11    1    3    3    0    0 -0.57204430350E+01  0.66651125797E+01  0.39507452510E+01  0.96309699675E+01  0.51100000000E-03 0.  1.
        -12    1    3    3    0    0  0.29228281278E+02 -0.10268155484E+02 -0.30884098219E+02  0.43744199231E+02  0.00000000000E+00 0.  1.
</event>
<event>
 7    1  0.2497665E-015  0.9000774E+02  0.7816164E-02  0.1186339E+00
        -11   -1    0    0    0    0  0.00000000000E+00  0.00000000000E+00  0.45593999997E+02  0.45594000000E+02  0.51100000000E-03 0. -1.
         11   -1    0    0    0    0 -0.00000000000E+00 -0.00000000000E+00 -0.45593999997E+02  0.45594000000E+02  0.51100000000E-03 0.  1.
    9900012    2    1    2    0    0  0.52387327627E+00 -0.68270690053E+00  0.80775969883E+00  0.90007742548E+02  0.90000003950E+02 0.  0.
        -12    1    1    2    0    0 -0.52387327627E+00  0.68270690053E+00 -0.80775969883E+00  0.11802574519E+01  0.00000000000E+00 0.  1.
         11    1    3    3    0    0  0.48467098263E+01  0.98125866082E+01 -0.87522211474E+00  0.10979228848E+02  0.51100000000E-03 0. -1.
        -11    1    3    3    0    0  0.68944978713E+01  0.33121911731E+02  0.30680036265E+01  0.33970690075E+02  0.51100000000E-03 0.  1.
         12    1    3    3    0    0 -0.11217334421E+02 -0.43617205240E+02 -0.13850218130E+01  0.45057823626E+02  0.00000000000E+00 0. -1.
</event>
<event>
 7    1  0.4858685E-015  0.9000773E+02  0.7816164E-02  0.1186339E+00
        -11   -1    0    0    0    0  0.00000000000E+00  0.00000000000E+00  0.45593999997E+02  0.45594000000E+02  0.51100000000E-03 0. -1.
         11   -1    0    0    0    0 -0.00000000000E+00 -0.00000000000E+00 -0.45593999997E+02  0.45594000000E+02  0.51100000000E-03 0.  1.
    9900012    2    1    2    0    0 -0.36632095234E+00 -0.73801866003E+00  0.84509045046E+00  0.90007728653E+02  0.89999989871E+02 0.  0.
        -12    1    1    2    0    0  0.36632095234E+00  0.73801866003E+00 -0.84509045046E+00  0.11802713468E+01  0.00000000000E+00 0.  1.
         11    1    3    3    0    0  0.29009046249E+02  0.20991431732E+01  0.21903443471E+02  0.36410053591E+02  0.51100000000E-03 0. -1.
        -11    1    3    3    0    0  0.64084045440E+01 -0.58675823124E+01  0.42414786607E+01  0.96688320123E+01  0.51100000000E-03 0.  1.
        -12    1    3    3    0    0 -0.35783771745E+02  0.30304204791E+01 -0.25299831681E+02  0.43928843050E+02  0.00000000000E+00 0.  1.
</event>
<event>
 7    1  0.2497665E-015  0.9000778E+02  0.7816164E-02  0.1186339E+00
        -11   -1    0    0    0    0  0.00000000000E+00  0.00000000000E+00  0.45593999997E+02  0.45594000000E+02  0.51100000000E-03 0. -1.
         11   -1    0    0    0    0 -0.00000000000E+00 -0.00000000000E+00 -0.45593999997E+02  0.45594000000E+02  0.51100000000E-03 0.  1.
    9900012    2    1    2    0    0  0.88820621826E+00 -0.22510614601E-02  0.77717875317E+00  0.90007778763E+02  0.90000040643E+02 0.  0.
        -12    1    1    2    0    0 -0.88820621826E+00  0.22510614601E-02 -0.77717875317E+00  0.11802212368E+01  0.00000000000E+00 0.  1.
         11    1    3    3    0    0 -0.25977702950E+01  0.57879492283E+01 -0.65953914286E+01  0.91513908851E+01  0.51100000000E-03 0. -1.
        -11    1    3    3    0    0  0.79184432837E+01  0.28796622845E+01 -0.35708244924E+02  0.36688866905E+02  0.51100000000E-03 0.  1.
         12    1    3    3    0    0 -0.44324667704E+01 -0.86698625742E+01  0.43080815106E+02  0.44167520973E+02  0.00000000000E+00 0. -1.
</event>
<event>
 7    1  0.2497665E-015  0.9000773E+02  0.7816164E-02  0.1186339E+00
        -11   -1    0    0    0    0  0.00000000000E+00  0.00000000000E+00  0.45593999997E+02  0.45594000000E+02  0.51100000000E-03 0. -1.
         11   -1    0    0    0    0 -0.00000000000E+00 -0.00000000000E+00 -0.45593999997E+02  0.45594000000E+02  0.51100000000E-03 0.  1.
    9900012    2    1    2    0    0  0.11468537553E+01  0.25158595098E+00  0.12028266284E+00  0.90007730139E+02  0.89999991376E+02 0.  0.
        -12    1    1    2    0    0 -0.11468537553E+01 -0.25158595098E+00 -0.12028266284E+00  0.11802698615E+01  0.00000000000E+00 0.  1.
         11    1    3    3    0    0  0.19360705728E+01  0.86640875573E+01  0.33548163167E+01  0.94904992094E+01  0.51100000000E-03 0. -1.
        -11    1    3    3    0    0 -0.29382170648E+02  0.15282689443E+02  0.18046318191E+02  0.37716603096E+02  0.51100000000E-03 0.  1.
         12    1    3    3    0    0  0.28592953830E+02 -0.23695191050E+02 -0.21280851845E+02  0.42800627833E+02  0.00000000000E+00 0. -1.
</event>
<event>
 7    1  0.2497665E-015  0.9000699E+02  0.7816164E-02  0.1186341E+00
        -11   -1    0    0    0    0  0.00000000000E+00  0.00000000000E+00  0.45593999997E+02  0.45594000000E+02  0.51100000000E-03 0.  1.
         11   -1    0    0    0    0 -0.00000000000E+00 -0.00000000000E+00 -0.45593999997E+02  0.45594000000E+02  0.51100000000E-03 0. -1.
    9900012    2    1    2    0    0  0.27366376320E+00  0.13676785915E+00 -0.11406957850E+01  0.90006990188E+02  0.89999241655E+02 0.  0.
        -12    1    1    2    0    0 -0.27366376320E+00 -0.13676785915E+00  0.11406957850E+01  0.11810098122E+01  0.00000000000E+00 0.  1.
         11    1    3    3    0    0 -0.53506010891E+01  0.21481034700E+01  0.75936145437E+01  0.95344775752E+01  0.51100000000E-03 0. -1.
        -11    1    3    3    0    0 -0.15275128132E+02 -0.36498810390E+02 -0.22650408086E+01  0.39631087664E+02  0.51100000000E-03 0.  1.
         12    1    3    3    0    0  0.20899392984E+02  0.34487474779E+02 -0.64692695201E+01  0.40841424949E+02  0.00000000000E+00 0. -1.
</event>
<event>
 7    1  0.2497665E-015  0.9000774E+02  0.7816164E-02  0.1186339E+00
        -11   -1    0    0    0    0  0.00000000000E+00  0.00000000000E+00  0.45593999997E+02  0.45594000000E+02  0.51100000000E-03 0.  1.
         11   -1    0    0    0    0 -0.00000000000E+00 -0.00000000000E+00 -0.45593999997E+02  0.45594000000E+02  0.51100000000E-03 0. -1.
    9900012    2    1    2    0    0 -0.29730579240E+00 -0.90812147690E+00 -0.69278003437E+00  0.90007737518E+02  0.89999998853E+02 0.  0.
        -12    1    1    2    0    0  0.29730579240E+00  0.90812147690E+00  0.69278003437E+00  0.11802624823E+01  0.00000000000E+00 0.  1.
         11    1    3    3    0    0  0.39247049107E+01  0.12074226362E+02 -0.10522038794E+00  0.12696508278E+02  0.51100000000E-03 0. -1.
        -11    1    3    3    0    0 -0.33451518269E+00  0.31900836024E+02  0.34032001835E+01  0.32083594113E+02  0.51100000000E-03 0.  1.
         12    1    3    3    0    0 -0.38874955204E+01 -0.44883183863E+02 -0.39907598299E+01  0.45227635126E+02  0.00000000000E+00 0. -1.
</event>
<event>
 7    1  0.2497665E-015  0.9000783E+02  0.7816164E-02  0.1186339E+00
        -11   -1    0    0    0    0  0.00000000000E+00  0.00000000000E+00  0.45593999997E+02  0.45594000000E+02  0.51100000000E-03 0. -1.
         11   -1    0    0    0    0 -0.00000000000E+00 -0.00000000000E+00 -0.45593999997E+02  0.45594000000E+02  0.51100000000E-03 0.  1.
    9900012    2    1    2    0    0  0.39509439857E+00  0.11402115851E+00 -0.11062142672E+01  0.90007826109E+02  0.90000088613E+02 0.  0.
        -12    1    1    2    0    0 -0.39509439857E+00 -0.11402115851E+00  0.11062142672E+01  0.11801738911E+01  0.00000000000E+00 0.  1.
         11    1    3    3    0    0  0.19711424675E+02 -0.19502825902E+01  0.33720052499E+02  0.39107362551E+02  0.51100000000E-03 0. -1.
        -11    1    3    3    0    0  0.85414131685E+01  0.30040321718E+01 -0.63948403060E+01  0.11084851420E+02  0.51100000000E-03 0.  1.
        -12    1    3    3    0    0 -0.27857743445E+02 -0.93972842313E+00 -0.28431426460E+02  0.39815612138E+02  0.00000000000E+00 0.  1.
</event>
<event>
 7    1  0.2497665E-015  0.9000776E+02  0.7816164E-02  0.1186339E+00
        -11   -1    0    0    0    0  0.00000000000E+00  0.00000000000E+00  0.45593999997E+02  0.45594000000E+02  0.51100000000E-03 0.  1.
         11   -1    0    0    0    0 -0.00000000000E+00 -0.00000000000E+00 -0.45593999997E+02  0.45594000000E+02  0.51100000000E-03 0. -1.
    9900012    2    1    2    0    0 -0.76211554171E+00 -0.88233151642E+00 -0.18342099710E+00  0.90007757539E+02  0.90000019139E+02 0.  0.
        -12    1    1    2    0    0  0.76211554171E+00  0.88233151642E+00  0.18342099710E+00  0.11802424607E+01  0.00000000000E+00 0.  1.
         11    1    3    3    0    0 -0.52361490771E+01  0.47643805655E+01  0.75789059811E+01  0.10370939951E+02  0.51100000000E-03 0. -1.
        -11    1    3    3    0    0  0.15570090302E+02 -0.85702156109E+01  0.32896078631E+02  0.37390216597E+02  0.51100000000E-03 0.  1.
         12    1    3    3    0    0 -0.11096056767E+02  0.29235035290E+01 -0.40658405609E+02  0.42246600991E+02  0.00000000000E+00 0. -1.
</event>
<event>
 7    1  0.2497665E-015  0.9000778E+02  0.7816164E-02  0.1186339E+00
        -11   -1    0    0    0    0  0.00000000000E+00  0.00000000000E+00  0.45593999997E+02  0.45594000000E+02  0.51100000000E-03 0.  1.
         11   -1    0    0    0    0 -0.00000000000E+00 -0.00000000000E+00 -0.45593999997E+02  0.45594000000E+02  0.51100000000E-03 0. -1.
    9900012    2    1    2    0    0  0.11189869376E+01 -0.24513480697E-02 -0.37520559341E+00  0.90007780947E+02  0.90000042856E+02 0.  0.
        -12    1    1    2    0    0 -0.11189869376E+01  0.24513480697E-02  0.37520559341E+00  0.11802190529E+01  0.00000000000E+00 0.  1.
         11    1    3    3    0    0  0.11662981546E+02 -0.37530568048E+02  0.20323406740E+01  0.39353514270E+02  0.51100000000E-03 0. -1.
        -11    1    3    3    0    0 -0.56517126215E+01  0.84988114451E+00 -0.11241845996E+02  0.12611235276E+02  0.51100000000E-03 0.  1.
        -12    1    3    3    0    0 -0.48922819874E+01  0.36678235555E+02  0.88342997289E+01  0.38043031401E+02  0.00000000000E+00 0.  1.
</event>
<event>
 7    1  0.2497665E-015  0.9000769E+02  0.7816164E-02  0.1186339E+00
        -11   -1    0    0    0    0  0.00000000000E+00  0.00000000000E+00  0.45593999997E+02  0.45594000000E+02  0.51100000000E-03 0. -1.
         11   -1    0    0    0    0 -0.00000000000E+00 -0.00000000000E+00 -0.45593999997E+02  0.45594000000E+02  0.51100000000E-03 0.  1.
    9900012    2    1    2    0    0  0.86771936480E+00  0.55530658690E+00 -0.57603984072E+00  0.90007693176E+02  0.89999953926E+02 0.  0.
        -12    1    1    2    0    0 -0.86771936480E+00 -0.55530658690E+00  0.57603984072E+00  0.11803068243E+01  0.00000000000E+00 0.  1.
         11    1    3    3    0    0  0.36248805810E-02 -0.82483755603E+01  0.63831523556E+01  0.10429781722E+02  0.51100000000E-03 0. -1.
        -11    1    3    3    0    0  0.39269398533E+02  0.33155638132E+01 -0.10016658801E+02  0.40662170114E+02  0.51100000000E-03 0.  1.
         12    1    3    3    0    0 -0.38405304049E+02  0.54881183339E+01  0.30574666046E+01  0.38915741339E+02  0.00000000000E+00 0. -1.
</event>
<event>
 7    1  0.2497665E-015  0.9000763E+02  0.7816164E-02  0.1186339E+00
        -11   -1    0    0    0    0  0.00000000000E+00  0.00000000000E+00  0.45593999997E+02  0.45594000000E+02  0.51100000000E-03 0.  1.
         11   -1    0    0    0    0 -0.00000000000E+00 -0.00000000000E+00 -0.45593999997E+02  0.45594000000E+02  0.51100000000E-03 0. -1.
    9900012    2    1    2    0    0 -0.93285234677E+00  0.61551056246E+00 -0.37975053707E+00  0.90007628354E+02  0.89999888248E+02 0.  0.
        -12    1    1    2    0    0  0.93285234677E+00 -0.61551056246E+00  0.37975053707E+00  0.11803716465E+01  0.00000000000E+00 0.  1.
         11    1    3    3    0    0  0.74567468161E+01  0.17043081396E+01 -0.75360431896E+01  0.10737769160E+02  0.51100000000E-03 0. -1.
        -11    1    3    3    0    0 -0.24470049234E+02  0.32244596019E+02 -0.38434090230E+01  0.40660411644E+02  0.51100000000E-03 0.  1.
         12    1    3    3    0    0  0.16080450071E+02 -0.33333393596E+02  0.10999701675E+02  0.38609447549E+02  0.00000000000E+00 0. -1.
</event>
<event>
 7    1  0.2497665E-015  0.9000754E+02  0.7816164E-02  0.1186339E+00
        -11   -1    0    0    0    0  0.00000000000E+00  0.00000000000E+00  0.45593999997E+02  0.45594000000E+02  0.51100000000E-03 0. -1.
         11   -1    0    0    0    0 -0.00000000000E+00 -0.00000000000E+00 -0.45593999997E+02  0.45594000000E+02  0.51100000000E-03 0.  1.
    9900012    2    1    2    0    0 -0.10617691296E+01  0.40742634264E+00 -0.31642465055E+00  0.90007544804E+02  0.89999803596E+02 0.  0.
        -12    1    1    2    0    0  0.10617691296E+01 -0.40742634264E+00  0.31642465055E+00  0.11804551956E+01  0.00000000000E+00 0.  1.
         11    1    3    3    0    0  0.72124557222E+00  0.48216823551E+01 -0.33523420056E+01  0.59166724679E+01  0.51100000000E-03 0. -1.
        -11    1    3    3    0    0  0.32024085484E+02 -0.26961326351E+02 -0.64657663272E+01  0.42358721701E+02  0.51100000000E-03 0.  1.
         12    1    3    3    0    0 -0.33807100186E+02  0.22547070339E+02  0.95016836822E+01  0.41732150635E+02  0.00000000000E+00 0. -1.
</event>
<event>
 7    1  0.2497665E-015  0.9000781E+02  0.7816164E-02  0.1186339E+00
        -11   -1    0    0    0    0  0.00000000000E+00  0.00000000000E+00  0.45593999997E+02  0.45594000000E+02  0.51100000000E-03 0. -1.
         11   -1    0    0    0    0 -0.00000000000E+00 -0.00000000000E+00 -0.45593999997E+02  0.45594000000E+02  0.51100000000E-03 0.  1.
    9900012    2    1    2    0    0 -0.97232886906E+00  0.65327817716E+00  0.14369493701E+00  0.90007811862E+02  0.90000074178E+02 0.  0.
        -12    1    1    2    0    0  0.97232886906E+00 -0.65327817716E+00 -0.14369493701E+00  0.11801881381E+01  0.00000000000E+00 0.  1.
         11    1    3    3    0    0  0.38340966142E+01  0.65360271297E+01  0.35960396573E+01  0.83875770617E+01  0.51100000000E-03 0. -1.
        -11    1    3    3    0    0  0.32559324724E+02 -0.16292216254E+02 -0.17462139563E+02  0.40379106668E+02  0.51100000000E-03 0.  1.
         12    1    3    3    0    0 -0.37365750207E+02  0.10409467302E+02  0.14009794843E+02  0.41241128132E+02  0.00000000000E+00 0. -1.
</event>
<event>
 7    1  0.2497665E-015  0.9000763E+02  0.7816164E-02  0.1186339E+00
        -11   -1    0    0    0    0  0.00000000000E+00  0.00000000000E+00  0.45593999997E+02  0.45594000000E+02  0.51100000000E-03 0.  1.
         11   -1    0    0    0    0 -0.00000000000E+00 -0.00000000000E+00 -0.45593999997E+02  0.45594000000E+02  0.51100000000E-03 0. -1.
    9900012    2    1    2    0    0 -0.25219794361E+00  0.44890919390E+00 -0.10621423364E+01  0.90007631579E+02  0.89999891515E+02 0.  0.
        -12    1    1    2    0    0  0.25219794361E+00 -0.44890919390E+00  0.10621423364E+01  0.11803684213E+01  0.00000000000E+00 0.  1.
         11    1    3    3    0    0  0.10351069529E+02  0.52789561608E+01  0.17940303960E+02  0.21374436249E+02  0.51100000000E-03 0. -1.
        -11    1    3    3    0    0 -0.12598585686E+02  0.50246212807E+01  0.22312888402E+02  0.26111992827E+02  0.51100000000E-03 0.  1.
         12    1    3    3    0    0  0.19953182134E+01 -0.98546682476E+01 -0.41315334698E+02  0.42521202503E+02  0.00000000000E+00 0. -1.
</event>
<event>
 7    1  0.2497665E-015  0.9000765E+02  0.7816164E-02  0.1186339E+00
        -11   -1    0    0    0    0  0.00000000000E+00  0.00000000000E+00  0.45593999997E+02  0.45594000000E+02  0.51100000000E-03 0.  1.
         11   -1    0    0    0    0 -0.00000000000E+00 -0.00000000000E+00 -0.45593999997E+02  0.45594000000E+02  0.51100000000E-03 0. -1.
    9900012    2    1    2    0    0 -0.61510720215E+00  0.88167461397E+00 -0.48735557860E+00  0.90007651554E+02  0.89999911754E+02 0.  0.
        -12    1    1    2    0    0  0.61510720215E+00 -0.88167461397E+00  0.48735557860E+00  0.11803484465E+01  0.00000000000E+00 0.  1.
         11    1    3    3    0    0  0.45018537515E+01  0.54074909851E+00 -0.69651436838E+01  0.83109760909E+01  0.51100000000E-03 0. -1.
        -11    1    3    3    0    0  0.18104865808E+02  0.30799350223E+02  0.20163715495E+02  0.41023914524E+02  0.51100000000E-03 0.  1.
         12    1    3    3    0    0 -0.23221826762E+02 -0.30458424707E+02 -0.13685927390E+02  0.40672760938E+02  0.00000000000E+00 0. -1.
</event>
<event>
 7    1  0.2497665E-015  0.9000768E+02  0.7816164E-02  0.1186339E+00
        -11   -1    0    0    0    0  0.00000000000E+00  0.00000000000E+00  0.45593999997E+02  0.45594000000E+02  0.51100000000E-03 0.  1.
         11   -1    0    0    0    0 -0.00000000000E+00 -0.00000000000E+00 -0.45593999997E+02  0.45594000000E+02  0.51100000000E-03 0. -1.
    9900012    2    1    2    0    0  0.26157028484E+00 -0.46038611203E+00 -0.10548844297E+01  0.90007679897E+02  0.89999940471E+02 0.  0.
        -12    1    1    2    0    0 -0.26157028484E+00  0.46038611203E+00  0.10548844297E+01  0.11803201032E+01  0.00000000000E+00 0.  1.
         11    1    3    3    0    0 -0.72505881253E+01 -0.43596100857E+01  0.52162640221E+01  0.99391467880E+01  0.51100000000E-03 0. -1.
        -11    1    3    3    0    0 -0.33947326095E+02  0.26128145558E+01  0.10040152165E+02  0.35497216857E+02  0.51100000000E-03 0.  1.
         12    1    3    3    0    0  0.41459484505E+02  0.12864094179E+01 -0.16311300616E+02  0.44571316251E+02  0.00000000000E+00 0. -1.
</event>
<event>
 7    1  0.2497665E-015  0.9000766E+02  0.7816164E-02  0.1186339E+00
        -11   -1    0    0    0    0  0.00000000000E+00  0.00000000000E+00  0.45593999997E+02  0.45594000000E+02  0.51100000000E-03 0.  1.
         11   -1    0    0    0    0 -0.00000000000E+00 -0.00000000000E+00 -0.45593999997E+02  0.45594000000E+02  0.51100000000E-03 0. -1.
    9900012    2    1    2    0    0  0.70122816002E-02 -0.88075420617E+00 -0.78576944579E+00  0.90007656505E+02  0.89999916771E+02 0.  0.
        -12    1    1    2    0    0 -0.70122816002E-02  0.88075420617E+00  0.78576944579E+00  0.11803434948E+01  0.00000000000E+00 0.  1.
         11    1    3    3    0    0 -0.18543896301E+01  0.82556272773E+01 -0.56968350430E+01  0.10200395699E+02  0.51100000000E-03 0. -1.
        -11    1    3    3    0    0 -0.94575964001E+01  0.28609498159E+02  0.21536297742E+02  0.37037300594E+02  0.51100000000E-03 0.  1.
         12    1    3    3    0    0  0.11318998312E+02 -0.37745879642E+02 -0.16625232145E+02  0.42769960213E+02  0.00000000000E+00 0. -1.
</event>
<event>
 7    1  0.2497665E-015  0.9000780E+02  0.7816164E-02  0.1186339E+00
        -11   -1    0    0    0    0  0.00000000000E+00  0.00000000000E+00  0.45593999997E+02  0.45594000000E+02  0.51100000000E-03 0.  1.
         11   -1    0    0    0    0 -0.00000000000E+00 -0.00000000000E+00 -0.45593999997E+02  0.45594000000E+02  0.51100000000E-03 0. -1.
    9900012    2    1    2    0    0  0.67351147268E+00 -0.66500050930E+00 -0.70500260802E+00  0.90007799992E+02  0.90000062152E+02 0.  0.
        -12    1    1    2    0    0 -0.67351147268E+00  0.66500050930E+00  0.70500260802E+00  0.11802000078E+01  0.00000000000E+00 0.  1.
         11    1    3    3    0    0 -0.22274490740E+02  0.22508513086E+02  0.92639403303E+01  0.32994040216E+02  0.51100000000E-03 0. -1.
        -11    1    3    3    0    0 -0.31916459300E+01  0.11661362602E+02  0.90823402074E+00  0.12124309085E+02  0.51100000000E-03 0.  1.
        -12    1    3    3    0    0  0.26139648143E+02 -0.34834876198E+02 -0.10877176959E+02  0.44889450691E+02  0.00000000000E+00 0.  1.
</event>
<event>
 7    1  0.2497665E-015  0.9000775E+02  0.7816164E-02  0.1186339E+00
        -11   -1    0    0    0    0  0.00000000000E+00  0.00000000000E+00  0.45593999997E+02  0.45594000000E+02  0.51100000000E-03 0.  1.
         11   -1    0    0    0    0 -0.00000000000E+00 -0.00000000000E+00 -0.45593999997E+02  0.45594000000E+02  0.51100000000E-03 0. -1.
    9900012    2    1    2    0    0  0.11585653173E+01 -0.24856351035E-03 -0.22519603991E+00  0.90007751334E+02  0.90000012852E+02 0.  0.
        -12    1    1    2    0    0 -0.11585653173E+01  0.24856351035E-03  0.22519603991E+00  0.11802486656E+01  0.00000000000E+00 0.  1.
         11    1    3    3    0    0  0.19667760144E+02 -0.34749707591E+02  0.11585079147E+01  0.39946277769E+02  0.51100000000E-03 0. -1.
        -11    1    3    3    0    0 -0.68464298255E+01 -0.17195227492E+01 -0.85715811859E+01  0.11104159767E+02  0.51100000000E-03 0.  1.
        -12    1    3    3    0    0 -0.11662765001E+02  0.36468981777E+02  0.71878772313E+01  0.38957313799E+02  0.00000000000E+00 0.  1.
</event>
<event>
 7    1  0.2497665E-015  0.9000766E+02  0.7816164E-02  0.1186339E+00
        -11   -1    0    0    0    0  0.00000000000E+00  0.00000000000E+00  0.45593999997E+02  0.45594000000E+02  0.51100000000E-03 0. -1.
         11   -1    0    0    0    0 -0.00000000000E+00 -0.00000000000E+00 -0.45593999997E+02  0.45594000000E+02  0.51100000000E-03 0.  1.
    9900012    2    1    2    0    0 -0.94011624374E+00  0.39938722091E+00 -0.59150642080E+00  0.90007657444E+02  0.89999917722E+02 0.  0.
        -12    1    1    2    0    0  0.94011624374E+00 -0.39938722091E+00  0.59150642080E+00  0.11803425561E+01  0.00000000000E+00 0.  1.
         11    1    3    3    0    0 -0.15108275770E+02 -0.28724593074E+02  0.28691096594E+02  0.43319063564E+02  0.51100000000E-03 0. -1.
        -11    1    3    3    0    0  0.86586416515E+01  0.43416322411E+01 -0.29839763925E+01  0.10135381647E+02  0.51100000000E-03 0.  1.
        -12    1    3    3    0    0  0.55095178745E+01  0.24782348054E+02 -0.26298626622E+02  0.36553212232E+02  0.00000000000E+00 0.  1.
</event>
<event>
 7    1  0.2497665E-015  0.9000779E+02  0.7816164E-02  0.1186339E+00
        -11   -1    0    0    0    0  0.00000000000E+00  0.00000000000E+00  0.45593999997E+02  0.45594000000E+02  0.51100000000E-03 0.  1.
         11   -1    0    0    0    0 -0.00000000000E+00 -0.00000000000E+00 -0.45593999997E+02  0.45594000000E+02  0.51100000000E-03 0. -1.
    9900012    2    1    2    0    0  0.80592510965E+00 -0.21330656458E+00 -0.83538930043E+00  0.90007792283E+02  0.90000054341E+02 0.  0.
        -12    1    1    2    0    0 -0.80592510965E+00  0.21330656458E+00  0.83538930043E+00  0.11802077174E+01  0.00000000000E+00 0.  1.
         11    1    3    3    0    0 -0.44102957840E+01  0.39003009545E+02 -0.64064261210E+01  0.39770941130E+02  0.51100000000E-03 0. -1.
        -11    1    3    3    0    0  0.95456453031E+01  0.84279226426E+00  0.19761668630E+01  0.97844202068E+01  0.51100000000E-03 0.  1.
        -12    1    3    3    0    0 -0.43294244094E+01 -0.40059108374E+02  0.35948699576E+01  0.40452430946E+02  0.00000000000E+00 0.  1.
</event>
<event>
 7    1  0.2497665E-015  0.9000762E+02  0.7816164E-02  0.1186339E+00
        -11   -1    0    0    0    0  0.00000000000E+00  0.00000000000E+00  0.45593999997E+02  0.45594000000E+02  0.51100000000E-03 0.  1.
         11   -1    0    0    0    0 -0.00000000000E+00 -0.00000000000E+00 -0.45593999997E+02  0.45594000000E+02  0.51100000000E-03 0. -1.
    9900012    2    1    2    0    0 -0.54099345794E+00 -0.10039692484E+01 -0.30442797228E+00  0.90007616773E+02  0.89999876514E+02 0.  0.
        -12    1    1    2    0    0  0.54099345794E+00  0.10039692484E+01  0.30442797228E+00  0.11803832274E+01  0.00000000000E+00 0.  1.
         11    1    3    3    0    0 -0.27443968745E+02  0.21500949375E+02 -0.15964751928E+02  0.38344954673E+02  0.51100000000E-03 0. -1.
        -11    1    3    3    0    0  0.53756882119E+01  0.92485391549E+01  0.16621057101E+01  0.10825714568E+02  0.51100000000E-03 0.  1.
        -12    1    3    3    0    0  0.21527287075E+02 -0.31753457778E+02  0.13998218245E+02  0.40836947532E+02  0.00000000000E+00 0.  1.
</event>
<event>
 7    1  0.2497665E-015  0.9000780E+02  0.7816164E-02  0.1186339E+00
        -11   -1    0    0    0    0  0.00000000000E+00  0.00000000000E+00  0.45593999997E+02  0.45594000000E+02  0.51100000000E-03 0.  1.
         11   -1    0    0    0    0 -0.00000000000E+00 -0.00000000000E+00 -0.45593999997E+02  0.45594000000E+02  0.51100000000E-03 0. -1.
    9900012    2    1    2    0    0 -0.10826530560E+01  0.16843215980E+00 -0.43859479536E+00  0.90007799836E+02  0.90000061994E+02 0.  0.
        -12    1    1    2    0    0  0.10826530560E+01 -0.16843215980E+00  0.43859479536E+00  0.11802001638E+01  0.00000000000E+00 0.  1.
         11    1    3    3    0    0 -0.42682844741E+01  0.14018023448E+02  0.22083705965E+01  0.14818911387E+02  0.51100000000E-03 0. -1.
        -11    1    3    3    0    0 -0.29505269908E+02 -0.16228247605E+02  0.16212325602E+02  0.37373205299E+02  0.51100000000E-03 0.  1.
         12    1    3    3    0    0  0.32690901326E+02  0.23786563169E+01 -0.18859290993E+02  0.37815683150E+02  0.00000000000E+00 0. -1.
</event>
<event>
 7    1  0.2497665E-015  0.9000776E+02  0.7816164E-02  0.1186339E+00
        -11   -1    0    0    0    0  0.00000000000E+00  0.00000000000E+00  0.45593999997E+02  0.45594000000E+02  0.51100000000E-03 0.  1.
         11   -1    0    0    0    0 -0.00000000000E+00 -0.00000000000E+00 -0.45593999997E+02  0.45594000000E+02  0.51100000000E-03 0. -1.
    9900012    2    1    2    0    0 -0.58755686803E+00  0.73443047089E+00 -0.71298573578E+00  0.90007762800E+02  0.90000024469E+02 0.  0.
        -12    1    1    2    0    0  0.58755686803E+00 -0.73443047089E+00  0.71298573578E+00  0.11802372004E+01  0.00000000000E+00 0.  1.
         11    1    3    3    0    0 -0.39192844007E+01 -0.64656480608E+01 -0.47000548536E+01  0.89025788931E+01  0.51100000000E-03 0. -1.
        -11    1    3    3    0    0 -0.33245376594E+02 -0.10420442763E+02  0.16597626292E+02  0.38591733455E+02  0.51100000000E-03 0.  1.
         12    1    3    3    0    0  0.36577104127E+02  0.17620521295E+02 -0.12610557174E+02  0.42513450451E+02  0.00000000000E+00 0. -1.
</event>
<event>
 7    1  0.2497665E-015  0.9000767E+02  0.7816164E-02  0.1186339E+00
        -11   -1    0    0    0    0  0.00000000000E+00  0.00000000000E+00  0.45593999997E+02  0.45594000000E+02  0.51100000000E-03 0. -1.
         11   -1    0    0    0    0 -0.00000000000E+00 -0.00000000000E+00 -0.45593999997E+02  0.45594000000E+02  0.51100000000E-03 0.  1.
    9900012    2    1    2    0    0 -0.54949166877E+00 -0.14926398464E+00  0.10339041229E+01  0.90007670145E+02  0.89999930591E+02 0.  0.
        -12    1    1    2    0    0  0.54949166877E+00  0.14926398464E+00 -0.10339041229E+01  0.11803298549E+01  0.00000000000E+00 0.  1.
         11    1    3    3    0    0  0.17416272715E+02  0.22634751863E+02  0.19270838211E+02  0.34453211067E+02  0.51100000000E-03 0. -1.
        -11    1    3    3    0    0 -0.16139278735E+01  0.83872763326E+01  0.79606122842E+01  0.11675723346E+02  0.51100000000E-03 0.  1.
        -12    1    3    3    0    0 -0.16351836511E+02 -0.31171292180E+02 -0.26197546373E+02  0.43878735732E+02  0.00000000000E+00 0.  1.
</event>
<event>
 7    1  0.2497665E-015  0.9000751E+02  0.7816164E-02  0.1186340E+00
        -11   -1    0    0    0    0  0.00000000000E+00  0.00000000000E+00  0.45593999997E+02  0.45594000000E+02  0.51100000000E-03 0.  1.
         11   -1    0    0    0    0 -0.00000000000E+00 -0.00000000000E+00 -0.45593999997E+02  0.45594000000E+02  0.51100000000E-03 0. -1.
    9900012    2    1    2    0    0  0.52052700269E+00  0.89255631289E+00 -0.57092075672E+00  0.90007510422E+02  0.89999768760E+02 0.  0.
        -12    1    1    2    0    0 -0.52052700269E+00 -0.89255631289E+00  0.57092075672E+00  0.11804895775E+01  0.00000000000E+00 0.  1.
         11    1    3    3    0    0  0.78102427307E+01  0.29659124582E+01  0.48565418317E+01  0.96634635120E+01  0.51100000000E-03 0. -1.
        -11    1    3    3    0    0 -0.11443197452E+02 -0.34694321276E+02  0.17247937502E+02  0.40399678775E+02  0.51100000000E-03 0.  1.
         12    1    3    3    0    0  0.41534817244E+01  0.32620965131E+02 -0.22675400091E+02  0.39944368136E+02  0.00000000000E+00 0. -1.
</event>
<event>
 7    1  0.2497665E-015  0.9000789E+02  0.7816164E-02  0.1186339E+00
        -11   -1    0    0    0    0  0.00000000000E+00  0.00000000000E+00  0.45593999997E+02  0.45594000000E+02  0.51100000000E-03 0.  1.
         11   -1    0    0    0    0 -0.00000000000E+00 -0.00000000000E+00 -0.45593999997E+02  0.45594000000E+02  0.51100000000E-03 0. -1.
    9900012    2    1    2    0    0  0.42926126224E+00 -0.21906758105E+00 -0.10772203289E+01  0.90007890059E+02  0.90000153407E+02 0.  0.
        -12    1    1    2    0    0 -0.42926126224E+00  0.21906758105E+00  0.10772203289E+01  0.11801099412E+01  0.00000000000E+00 0.  1.
         11    1    3    3    0    0 -0.42139120175E+01 -0.19967927253E+02 -0.31553104146E+02  0.37577567175E+02  0.51100000000E-03 0. -1.
        -11    1    3    3    0    0 -0.71849531690E+01  0.52736360186E+01 -0.64775366938E+01  0.11017861443E+02  0.51100000000E-03 0.  1.
        -12    1    3    3    0    0  0.11828126449E+02  0.14475223653E+02  0.36953420511E+02  0.41412461441E+02  0.00000000000E+00 0.  1.
</event>
<event>
 7    1  0.2497665E-015  0.9000773E+02  0.7816164E-02  0.1186339E+00
        -11   -1    0    0    0    0  0.00000000000E+00  0.00000000000E+00  0.45593999997E+02  0.45594000000E+02  0.51100000000E-03 0.  1.
         11   -1    0    0    0    0 -0.00000000000E+00 -0.00000000000E+00 -0.45593999997E+02  0.45594000000E+02  0.51100000000E-03 0. -1.
    9900012    2    1    2    0    0  0.10975558073E+01  0.42023832074E+00 -0.10871651790E+00  0.90007725338E+02  0.89999986512E+02 0.  0.
        -12    1    1    2    0    0 -0.10975558073E+01 -0.42023832074E+00  0.10871651790E+00  0.11802746620E+01  0.00000000000E+00 0.  1.
         11    1    3    3    0    0  0.12167394232E+02 -0.71785667681E+01 -0.33234056657E+02  0.36112045434E+02  0.51100000000E-03 0. -1.
        -11    1    3    3    0    0  0.83679606548E+01  0.63358313993E+01 -0.45834175728E+01  0.11453088751E+02  0.51100000000E-03 0.  1.
        -12    1    3    3    0    0 -0.19437799079E+02  0.12629736896E+01  0.37708757712E+02  0.42442591153E+02  0.00000000000E+00 0.  1.
</event>
<event>
 7    1  0.2497665E-015  0.9000780E+02  0.7816164E-02  0.1186339E+00
        -11   -1    0    0    0    0  0.00000000000E+00  0.00000000000E+00  0.45593999997E+02  0.45594000000E+02  0.51100000000E-03 0.  1.
         11   -1    0    0    0    0 -0.00000000000E+00 -0.00000000000E+00 -0.45593999997E+02  0.45594000000E+02  0.51100000000E-03 0. -1.
    9900012    2    1    2    0    0 -0.84479678619E+00 -0.80284848594E+00 -0.18605231540E+00  0.90007803929E+02  0.90000066141E+02 0.  0.
        -12    1    1    2    0    0  0.84479678619E+00  0.80284848594E+00  0.18605231540E+00  0.11801960707E+01  0.00000000000E+00 0.  1.
         11    1    3    3    0    0  0.25589777467E+00 -0.36926458264E+02  0.52615372183E+01  0.37300302649E+02  0.51100000000E-03 0. -1.
        -11    1    3    3    0    0  0.67686185983E+01 -0.59283675660E+01 -0.41427514147E+01  0.99056614758E+01  0.51100000000E-03 0.  1.
        -12    1    3    3    0    0 -0.78693131592E+01  0.42051977344E+02 -0.13048381190E+01  0.42801839804E+02  0.00000000000E+00 0.  1.
</event>
<event>
 7    1  0.2497665E-015  0.9000774E+02  0.7816164E-02  0.1186339E+00
        -11   -1    0    0    0    0  0.00000000000E+00  0.00000000000E+00  0.45593999997E+02  0.45594000000E+02  0.51100000000E-03 0.  1.
         11   -1    0    0    0    0 -0.00000000000E+00 -0.00000000000E+00 -0.45593999997E+02  0.45594000000E+02  0.51100000000E-03 0. -1.
    9900012    2    1    2    0    0  0.69384739301E+00  0.43223960802E-01 -0.95379257188E+00  0.90007740374E+02  0.90000001747E+02 0.  0.
        -12    1    1    2    0    0 -0.69384739301E+00 -0.43223960802E-01  0.95379257188E+00  0.11802596264E+01  0.00000000000E+00 0.  1.
         11    1    3    3    0    0 -0.14143779025E+02 -0.10688733221E+02 -0.20795050680E+02  0.27326354239E+02  0.51100000000E-03 0. -1.
        -11    1    3    3    0    0 -0.35505213087E+01  0.25167529459E+02 -0.76987453997E+01  0.26557135042E+02  0.51100000000E-03 0.  1.
        -12    1    3    3    0    0  0.18388147726E+02 -0.14435572278E+02  0.27540003508E+02  0.36124251092E+02  0.00000000000E+00 0.  1.
</event>
<event>
 7    1  0.2497665E-015  0.9000773E+02  0.7816164E-02  0.1186339E+00
        -11   -1    0    0    0    0  0.00000000000E+00  0.00000000000E+00  0.45593999997E+02  0.45594000000E+02  0.51100000000E-03 0.  1.
         11   -1    0    0    0    0 -0.00000000000E+00 -0.00000000000E+00 -0.45593999997E+02  0.45594000000E+02  0.51100000000E-03 0. -1.
    9900012    2    1    2    0    0 -0.95014978266E+00  0.65313113433E+00 -0.25235685520E+00  0.90007725087E+02  0.89999986258E+02 0.  0.
        -12    1    1    2    0    0  0.95014978266E+00 -0.65313113433E+00  0.25235685520E+00  0.11802749131E+01  0.00000000000E+00 0.  1.
         11    1    3    3    0    0  0.17221510878E+02  0.10815891180E+01 -0.32954984107E+02  0.37199210337E+02  0.51100000000E-03 0. -1.
        -11    1    3    3    0    0 -0.26675459953E+01 -0.39903650807E+01 -0.78758509830E+01  0.92232230853E+01  0.51100000000E-03 0.  1.
        -12    1    3    3    0    0 -0.15504114665E+02  0.35619070970E+01  0.40578478234E+02  0.43585291665E+02  0.00000000000E+00 0.  1.
</event>
<event>
 7    1  0.2497665E-015  0.9000771E+02  0.7816164E-02  0.1186339E+00
        -11   -1    0    0    0    0  0.00000000000E+00  0.00000000000E+00  0.45593999997E+02  0.45594000000E+02  0.51100000000E-03 0.  1.
         11   -1    0    0    0    0 -0.00000000000E+00 -0.00000000000E+00 -0.45593999997E+02  0.45594000000E+02  0.51100000000E-03 0. -1.
    9900012    2    1    2    0    0 -0.59973776262E+00 -0.68846016985E+00 -0.74794682340E+00  0.90007708833E+02  0.89999969789E+02 0.  0.
        -12    1    1    2    0    0  0.59973776262E+00  0.68846016985E+00  0.74794682340E+00  0.11802911675E+01  0.00000000000E+00 0.  1.
         11    1    3    3    0    0  0.53365237330E+01 -0.78746226001E+01 -0.53487031831E+00  0.95275523176E+01  0.51100000000E-03 0. -1.
        -11    1    3    3    0    0  0.68409469580E+01  0.13885694574E+02  0.37248326951E+02  0.40336694585E+02  0.51100000000E-03 0.  1.
         12    1    3    3    0    0 -0.12777208454E+02 -0.66995321434E+01 -0.37461403457E+02  0.40143461930E+02  0.00000000000E+00 0. -1.
</event>
<event>
 7    1  0.2497665E-015  0.9000775E+02  0.7816164E-02  0.1186339E+00
        -11   -1    0    0    0    0  0.00000000000E+00  0.00000000000E+00  0.45593999997E+02  0.45594000000E+02  0.51100000000E-03 0. -1.
         11   -1    0    0    0    0 -0.00000000000E+00 -0.00000000000E+00 -0.45593999997E+02  0.45594000000E+02  0.51100000000E-03 0.  1.
    9900012    2    1    2    0    0 -0.33187202977E+00 -0.76339066067E+00  0.83671039106E+00  0.90007750610E+02  0.90000012118E+02 0.  0.
        -12    1    1    2    0    0  0.33187202977E+00  0.76339066067E+00 -0.83671039106E+00  0.11802493904E+01  0.00000000000E+00 0.  1.
         11    1    3    3    0    0 -0.28205116481E+01 -0.87608414013E+01 -0.16102540131E+01  0.93434761338E+01  0.51100000000E-03 0. -1.
        -11    1    3    3    0    0 -0.22296382506E+01 -0.81490568505E+01 -0.36909205935E+02  0.37863807221E+02  0.51100000000E-03 0.  1.
         12    1    3    3    0    0  0.47182778689E+01  0.16146507591E+02  0.39356170339E+02  0.42800467254E+02  0.00000000000E+00 0. -1.
</event>
<event>
 7    1  0.3370534E-015  0.9000796E+02  0.7816164E-02  0.1186339E+00
        -11   -1    0    0    0    0  0.00000000000E+00  0.00000000000E+00  0.45593999997E+02  0.45594000000E+02  0.51100000000E-03 0.  1.
         11   -1    0    0    0    0 -0.00000000000E+00 -0.00000000000E+00 -0.45593999997E+02  0.45594000000E+02  0.51100000000E-03 0. -1.
    9900012    2    1    2    0    0 -0.65403719691E+00  0.87076533954E+00 -0.45441757443E+00  0.90007960906E+02  0.90000225190E+02 0.  0.
        -12    1    1    2    0    0  0.65403719691E+00 -0.87076533954E+00  0.45441757443E+00  0.11800390940E+01  0.00000000000E+00 0.  1.
         11    1    3    3    0    0  0.49662136171E+01  0.26710320168E+02 -0.25039649800E+02  0.36947104671E+02  0.51100000000E-03 0. -1.
        -11    1    3    3    0    0 -0.45229558034E+01  0.73451543882E+01 -0.37548193916E+01  0.94078207418E+01  0.51100000000E-03 0.  1.
        -12    1    3    3    0    0 -0.10972950107E+01 -0.33184709216E+02  0.28340051618E+02  0.43653035494E+02  0.00000000000E+00 0.  1.
</event>
<event>
 7    1  0.2497665E-015  0.9000773E+02  0.7816164E-02  0.1186339E+00
        -11   -1    0    0    0    0  0.00000000000E+00  0.00000000000E+00  0.45593999997E+02  0.45594000000E+02  0.51100000000E-03 0.  1.
         11   -1    0    0    0    0 -0.00000000000E+00 -0.00000000000E+00 -0.45593999997E+02  0.45594000000E+02  0.51100000000E-03 0. -1.
    9900012    2    1    2    0    0  0.34623834056E+00  0.47793567932E+00 -0.10221220986E+01  0.90007730079E+02  0.89999991316E+02 0.  0.
        -12    1    1    2    0    0 -0.34623834056E+00 -0.47793567932E+00  0.10221220986E+01  0.11802699211E+01  0.00000000000E+00 0.  1.
         11    1    3    3    0    0 -0.64871478803E+01 -0.40321751561E+02 -0.10087297197E+02  0.42067568287E+02  0.51100000000E-03 0. -1.
        -11    1    3    3    0    0 -0.14792338900E+01  0.25115443248E+01  0.82519467274E+01  0.87516063011E+01  0.51100000000E-03 0.  1.
        -12    1    3    3    0    0  0.83126201109E+01  0.38288142916E+02  0.81322837134E+00  0.39188555491E+02  0.00000000000E+00 0.  1.
</event>
<event>
 7    1  0.2497665E-015  0.9000755E+02  0.7816164E-02  0.1186339E+00
        -11   -1    0    0    0    0  0.00000000000E+00  0.00000000000E+00  0.45593999997E+02  0.45594000000E+02  0.51100000000E-03 0.  1.
         11   -1    0    0    0    0 -0.00000000000E+00 -0.00000000000E+00 -0.45593999997E+02  0.45594000000E+02  0.51100000000E-03 0. -1.
    9900012    2    1    2    0    0  0.31059086632E+00  0.26415565330E+00 -0.11078033107E+01  0.90007545397E+02  0.89999804196E+02 0.  0.
        -12    1    1    2    0    0 -0.31059086632E+00 -0.26415565330E+00  0.11078033107E+01  0.11804546034E+01  0.00000000000E+00 0.  1.
         11    1    3    3    0    0 -0.28129179741E+00 -0.15058645696E+00 -0.95001804499E+01  0.95055368180E+01  0.51100000000E-03 0. -1.
        -11    1    3    3    0    0 -0.25588022507E+02 -0.21527003685E+02  0.25732599363E+02  0.42193903039E+02  0.51100000000E-03 0.  1.
         12    1    3    3    0    0  0.26179905171E+02  0.21941745795E+02 -0.17340222223E+02  0.38308105540E+02  0.00000000000E+00 0. -1.
</event>
<event>
 7    1  0.2497665E-015  0.9000773E+02  0.7816164E-02  0.1186339E+00
        -11   -1    0    0    0    0  0.00000000000E+00  0.00000000000E+00  0.45593999997E+02  0.45594000000E+02  0.51100000000E-03 0. -1.
         11   -1    0    0    0    0 -0.00000000000E+00 -0.00000000000E+00 -0.45593999997E+02  0.45594000000E+02  0.51100000000E-03 0.  1.
    9900012    2    1    2    0    0  0.64941080185E+00 -0.77919112533E+00  0.60345677980E+00  0.90007731690E+02  0.89999992948E+02 0.  0.
        -12    1    1    2    0    0 -0.64941080185E+00  0.77919112533E+00 -0.60345677980E+00  0.11802683104E+01  0.00000000000E+00 0.  1.
         11    1    3    3    0    0  0.25112362248E+02  0.18969286421E+02  0.27629213956E+02  0.41878849424E+02  0.51100000000E-03 0. -1.
        -11    1    3    3    0    0 -0.67915588439E+01 -0.59441283590E+01  0.39800720541E+01  0.98640208482E+01  0.51100000000E-03 0.  1.
        -12    1    3    3    0    0 -0.17671392603E+02 -0.13804349188E+02 -0.31005829230E+02  0.38264861417E+02  0.00000000000E+00 0.  1.
</event>
<event>
 7    1  0.2497665E-015  0.9000773E+02  0.7816164E-02  0.1186339E+00
        -11   -1    0    0    0    0  0.00000000000E+00  0.00000000000E+00  0.45593999997E+02  0.45594000000E+02  0.51100000000E-03 0.  1.
         11   -1    0    0    0    0 -0.00000000000E+00 -0.00000000000E+00 -0.45593999997E+02  0.45594000000E+02  0.51100000000E-03 0. -1.
    9900012    2    1    2    0    0  0.46279293159E+00  0.90909567989E+00 -0.59363216649E+00  0.90007732487E+02  0.89999993756E+02 0.  0.
        -12    1    1    2    0    0 -0.46279293159E+00 -0.90909567989E+00  0.59363216649E+00  0.11802675128E+01  0.00000000000E+00 0.  1.
         11    1    3    3    0    0 -0.81923501820E+00  0.94131788812E+01 -0.47831376127E+01  0.10590443255E+02  0.51100000000E-03 0. -1.
        -11    1    3    3    0    0 -0.49030453028E+01  0.22638621641E+02  0.30418390141E+02  0.38233826673E+02  0.51100000000E-03 0.  1.
         12    1    3    3    0    0  0.61850732526E+01 -0.31142704842E+02 -0.26228884694E+02  0.41183462559E+02  0.00000000000E+00 0. -1.
</event>
<event>
 7    1  0.2497665E-015  0.9000832E+02  0.7816164E-02  0.1186338E+00
        -11   -1    0    0    0    0  0.00000000000E+00  0.00000000000E+00  0.45593999997E+02  0.45594000000E+02  0.51100000000E-03 0.  1.
         11   -1    0    0    0    0 -0.00000000000E+00 -0.00000000000E+00 -0.45593999997E+02  0.45594000000E+02  0.51100000000E-03 0. -1.
    9900012    2    1    2    0    0 -0.21149082434E-01  0.11206515886E+01 -0.36788713924E+00  0.90008318596E+02  0.90000587600E+02 0.  0.
        -12    1    1    2    0    0  0.21149082434E-01 -0.11206515886E+01  0.36788713924E+00  0.11796814036E+01  0.00000000000E+00 0.  1.
         11    1    3    3    0    0  0.59714809798E+01 -0.55332023883E+01  0.31423820857E+01  0.87263668955E+01  0.51100000000E-03 0. -1.
        -11    1    3    3    0    0 -0.21705034746E+02 -0.18173377577E+02  0.26861224818E+02  0.39024422928E+02  0.51100000000E-03 0.  1.
         12    1    3    3    0    0  0.15712404684E+02  0.24827231554E+02 -0.30371494043E+02  0.42257528773E+02  0.00000000000E+00 0. -1.
</event>
<event>
 7    1  0.2497665E-015  0.9000777E+02  0.7816164E-02  0.1186339E+00
        -11   -1    0    0    0    0  0.00000000000E+00  0.00000000000E+00  0.45593999997E+02  0.45594000000E+02  0.51100000000E-03 0. -1.
         11   -1    0    0    0    0 -0.00000000000E+00 -0.00000000000E+00 -0.45593999997E+02  0.45594000000E+02  0.51100000000E-03 0.  1.
    9900012    2    1    2    0    0 -0.51649591690E+00 -0.29858922141E+00  0.10183405895E+01  0.90007770738E+02  0.90000032511E+02 0.  0.
        -12    1    1    2    0    0  0.51649591690E+00  0.29858922141E+00 -0.10183405895E+01  0.11802292622E+01  0.00000000000E+00 0.  1.
         11    1    3    3    0    0  0.37450561002E+01 -0.87831533723E+01  0.72096653666E+00  0.95754384423E+01  0.51100000000E-03 0. -1.
        -11    1    3    3    0    0 -0.30796321525E+02 -0.23262860285E+02  0.44384999433E+01  0.38849380563E+02  0.51100000000E-03 0.  1.
         12    1    3    3    0    0  0.26534769508E+02  0.31747424436E+02 -0.41411258905E+01  0.41582951733E+02  0.00000000000E+00 0. -1.
</event>
<event>
 7    1  0.2497665E-015  0.9000768E+02  0.7816164E-02  0.1186339E+00
        -11   -1    0    0    0    0  0.00000000000E+00  0.00000000000E+00  0.45593999997E+02  0.45594000000E+02  0.51100000000E-03 0. -1.
         11   -1    0    0    0    0 -0.00000000000E+00 -0.00000000000E+00 -0.45593999997E+02  0.45594000000E+02  0.51100000000E-03 0.  1.
    9900012    2    1    2    0    0  0.10679070755E+01 -0.49840177332E+00 -0.65836275263E-01  0.90007676203E+02  0.89999936729E+02 0.  0.
        -12    1    1    2    0    0 -0.10679070755E+01  0.49840177332E+00  0.65836275263E-01  0.11803237966E+01  0.00000000000E+00 0.  1.
         11    1    3    3    0    0 -0.17929652053E+02  0.24768932742E+02  0.26127650090E+02  0.40219728385E+02  0.51100000000E-03 0. -1.
        -11    1    3    3    0    0  0.13078785629E+02 -0.29183390890E+01  0.17566800255E+01  0.13515075344E+02  0.51100000000E-03 0.  1.
        -12    1    3    3    0    0  0.59187734999E+01 -0.22348995426E+02 -0.27950166390E+02  0.36272872475E+02  0.00000000000E+00 0.  1.
</event>
<event>
 7    1  0.2497665E-015  0.9000764E+02  0.7816164E-02  0.1186339E+00
        -11   -1    0    0    0    0  0.00000000000E+00  0.00000000000E+00  0.45593999997E+02  0.45594000000E+02  0.51100000000E-03 0.  1.
         11   -1    0    0    0    0 -0.00000000000E+00 -0.00000000000E+00 -0.45593999997E+02  0.45594000000E+02  0.51100000000E-03 0. -1.
    9900012    2    1    2    0    0 -0.41468510380E+00 -0.67316374333E+00 -0.87643025265E+00  0.90007642788E+02  0.89999902873E+02 0.  0.
        -12    1    1    2    0    0  0.41468510380E+00  0.67316374333E+00  0.87643025265E+00  0.11803572122E+01  0.00000000000E+00 0.  1.
         11    1    3    3    0    0 -0.13690809524E+02  0.56805700858E+01  0.83140130514E+01  0.16994997946E+02  0.51100000000E-03 0. -1.
        -11    1    3    3    0    0 -0.83673023989E+01 -0.13633197879E+02  0.26316627054E+02  0.30796764337E+02  0.51100000000E-03 0.  1.
         12    1    3    3    0    0  0.21643426819E+02  0.72794640502E+01 -0.35507070358E+02  0.42215880504E+02  0.00000000000E+00 0. -1.
</event>
<event>
 7    1  0.2497665E-015  0.9000778E+02  0.7816164E-02  0.1186339E+00
        -11   -1    0    0    0    0  0.00000000000E+00  0.00000000000E+00  0.45593999997E+02  0.45594000000E+02  0.51100000000E-03 0.  1.
         11   -1    0    0    0    0 -0.00000000000E+00 -0.00000000000E+00 -0.45593999997E+02  0.45594000000E+02  0.51100000000E-03 0. -1.
    9900012    2    1    2    0    0 -0.78979711036E+00  0.99691828006E-01 -0.87131594071E+00  0.90007784170E+02  0.90000046121E+02 0.  0.
        -12    1    1    2    0    0  0.78979711036E+00 -0.99691828006E-01  0.87131594071E+00  0.11802158297E+01  0.00000000000E+00 0.  1.
         11    1    3    3    0    0  0.57577618828E+01 -0.31654407194E+01 -0.66881489485E+01  0.93756692276E+01  0.51100000000E-03 0. -1.
        -11    1    3    3    0    0  0.14345454382E+01  0.36165377225E+02  0.22779492682E+02  0.42765613728E+02  0.51100000000E-03 0.  1.
         12    1    3    3    0    0 -0.79821044313E+01 -0.32900244678E+02 -0.16962659674E+02  0.37866501214E+02  0.00000000000E+00 0. -1.
</event>
<event>
 7    1  0.2497665E-015  0.9000739E+02  0.7816164E-02  0.1186340E+00
        -11   -1    0    0    0    0  0.00000000000E+00  0.00000000000E+00  0.45593999997E+02  0.45594000000E+02  0.51100000000E-03 0. -1.
         11   -1    0    0    0    0 -0.00000000000E+00 -0.00000000000E+00 -0.45593999997E+02  0.45594000000E+02  0.51100000000E-03 0.  1.
    9900012    2    1    2    0    0  0.47600132831E-01  0.13939531469E+00  0.11713807729E+01  0.90007394333E+02  0.89999651137E+02 0.  0.
        -12    1    1    2    0    0 -0.47600132831E-01 -0.13939531469E+00 -0.11713807729E+01  0.11806056672E+01  0.00000000000E+00 0.  1.
         11    1    3    3    0    0 -0.28607201630E+02  0.57926634757E+01  0.27188296558E+01  0.29314142836E+02  0.51100000000E-03 0. -1.
        -11    1    3    3    0    0 -0.12708369871E+02  0.64487967620E+01  0.82910171577E+01  0.16487286321E+02  0.51100000000E-03 0.  1.
        -12    1    3    3    0    0  0.41363171634E+02 -0.12102064923E+02 -0.98384660406E+01  0.44205965175E+02  0.00000000000E+00 0.  1.
</event>
<event>
 7    1  0.2497665E-015  0.9000776E+02  0.7816164E-02  0.1186339E+00
        -11   -1    0    0    0    0  0.00000000000E+00  0.00000000000E+00  0.45593999997E+02  0.45594000000E+02  0.51100000000E-03 0. -1.
         11   -1    0    0    0    0 -0.00000000000E+00 -0.00000000000E+00 -0.45593999997E+02  0.45594000000E+02  0.51100000000E-03 0.  1.
    9900012    2    1    2    0    0  0.11457542219E+01  0.56043411905E-01  0.27762836568E+00  0.90007758029E+02  0.90000019635E+02 0.  0.
        -12    1    1    2    0    0 -0.11457542219E+01 -0.56043411905E-01 -0.27762836568E+00  0.11802419711E+01  0.00000000000E+00 0.  1.
         11    1    3    3    0    0 -0.28234026733E+01  0.11298446057E+02 -0.40399955018E+01  0.12326720970E+02  0.51100000000E-03 0. -1.
        -11    1    3    3    0    0  0.26653784545E+02 -0.10056876934E+02 -0.26827889733E+02  0.39131837064E+02  0.51100000000E-03 0.  1.
         12    1    3    3    0    0 -0.22684627650E+02 -0.11855257119E+01  0.31145513600E+02  0.38549199995E+02  0.00000000000E+00 0. -1.
</event>
<event>
 7    1  0.2497665E-015  0.9000782E+02  0.7816164E-02  0.1186339E+00
        -11   -1    0    0    0    0  0.00000000000E+00  0.00000000000E+00  0.45593999997E+02  0.45594000000E+02  0.51100000000E-03 0.  1.
         11   -1    0    0    0    0 -0.00000000000E+00 -0.00000000000E+00 -0.45593999997E+02  0.45594000000E+02  0.51100000000E-03 0. -1.
    9900012    2    1    2    0    0 -0.38119184785E+00 -0.26643951023E+00 -0.10846827890E+01  0.90007816120E+02  0.90000078493E+02 0.  0.
        -12    1    1    2    0    0  0.38119184785E+00  0.26643951023E+00  0.10846827890E+01  0.11801838798E+01  0.00000000000E+00 0.  1.
         11    1    3    3    0    0  0.44306047139E+01  0.90518478972E+01  0.27343330284E+01  0.10442355379E+02  0.51100000000E-03 0. -1.
        -11    1    3    3    0    0  0.31390366159E+02 -0.99458650164E+01  0.17762768071E+02  0.37413784202E+02  0.51100000000E-03 0.  1.
         12    1    3    3    0    0 -0.36202162720E+02  0.62757760897E+00 -0.21581783888E+02  0.42151676540E+02  0.00000000000E+00 0. -1.
</event>
<event>
 7    1  0.2497665E-015  0.9000780E+02  0.7816164E-02  0.1186339E+00
        -11   -1    0    0    0    0  0.00000000000E+00  0.00000000000E+00  0.45593999997E+02  0.45594000000E+02  0.51100000000E-03 0.  1.
         11   -1    0    0    0    0 -0.00000000000E+00 -0.00000000000E+00 -0.45593999997E+02  0.45594000000E+02  0.51100000000E-03 0. -1.
    9900012    2    1    2    0    0  0.11133955213E+01 -0.14155884693E+00  0.36495360021E+00  0.90007796787E+02  0.90000058904E+02 0.  0.
        -12    1    1    2    0    0 -0.11133955213E+01  0.14155884693E+00 -0.36495360021E+00  0.11802032131E+01  0.00000000000E+00 0.  1.
         11    1    3    3    0    0 -0.63546978930E+00  0.41652064009E+00 -0.43457610706E+02  0.43464252437E+02  0.51100000000E-03 0. -1.
        -11    1    3    3    0    0 -0.49744273279E+01 -0.30052463092E+01  0.73210467285E+01  0.93474145132E+01  0.51100000000E-03 0.  1.
        -12    1    3    3    0    0  0.67232926385E+01  0.24471668221E+01  0.36501517578E+02  0.37196129837E+02  0.00000000000E+00 0.  1.
</event>
<event>
 7    1  0.2497665E-015  0.9000767E+02  0.7816164E-02  0.1186339E+00
        -11   -1    0    0    0    0  0.00000000000E+00  0.00000000000E+00  0.45593999997E+02  0.45594000000E+02  0.51100000000E-03 0.  1.
         11   -1    0    0    0    0 -0.00000000000E+00 -0.00000000000E+00 -0.45593999997E+02  0.45594000000E+02  0.51100000000E-03 0. -1.
    9900012    2    1    2    0    0  0.37625380227E+00  0.10164407670E+01 -0.46738748651E+00  0.90007673851E+02  0.89999934345E+02 0.  0.
        -12    1    1    2    0    0 -0.37625380227E+00 -0.10164407670E+01  0.46738748651E+00  0.11803261495E+01  0.00000000000E+00 0.  1.
         11    1    3    3    0    0 -0.52952922198E+01  0.72629326372E+01  0.14788573591E+02  0.17305843501E+02  0.51100000000E-03 0. -1.
        -11    1    3    3    0    0 -0.57753387009E+01  0.15804275623E+02  0.22137888821E+02  0.27806757934E+02  0.51100000000E-03 0.  1.
         12    1    3    3    0    0  0.11446884723E+02 -0.22050767494E+02 -0.37393849898E+02  0.44895072415E+02  0.00000000000E+00 0. -1.
</event>
<event>
 7    1  0.2497665E-015  0.9000769E+02  0.7816164E-02  0.1186339E+00
        -11   -1    0    0    0    0  0.00000000000E+00  0.00000000000E+00  0.45593999997E+02  0.45594000000E+02  0.51100000000E-03 0. -1.
         11   -1    0    0    0    0 -0.00000000000E+00 -0.00000000000E+00 -0.45593999997E+02  0.45594000000E+02  0.51100000000E-03 0.  1.
    9900012    2    1    2    0    0  0.54812215645E+00 -0.93671946490E+00 -0.46396085190E+00  0.90007686090E+02  0.89999946746E+02 0.  0.
        -12    1    1    2    0    0 -0.54812215645E+00  0.93671946490E+00  0.46396085190E+00  0.11803139101E+01  0.00000000000E+00 0.  1.
         11    1    3    3    0    0 -0.49924612334E+01  0.82199443878E+01 -0.24747082593E+01  0.99305758209E+01  0.51100000000E-03 0. -1.
        -11    1    3    3    0    0 -0.26437766383E+02  0.17993744890E+02 -0.14347325763E+02  0.35051049960E+02  0.51100000000E-03 0.  1.
         12    1    3    3    0    0  0.31978349773E+02 -0.27150408743E+02  0.16358073171E+02  0.45026060309E+02  0.00000000000E+00 0. -1.
</event>
<event>
 7    1  0.2497665E-015  0.9000775E+02  0.7816164E-02  0.1186339E+00
        -11   -1    0    0    0    0  0.00000000000E+00  0.00000000000E+00  0.45593999997E+02  0.45594000000E+02  0.51100000000E-03 0.  1.
         11   -1    0    0    0    0 -0.00000000000E+00 -0.00000000000E+00 -0.45593999997E+02  0.45594000000E+02  0.51100000000E-03 0. -1.
    9900012    2    1    2    0    0  0.38696826828E+00  0.10022343497E+01  0.48865278872E+00  0.90007745925E+02  0.90000007372E+02 0.  0.
        -12    1    1    2    0    0 -0.38696826828E+00 -0.10022343497E+01 -0.48865278872E+00  0.11802540745E+01  0.00000000000E+00 0.  1.
         11    1    3    3    0    0  0.41384120972E+01  0.79321540951E+01  0.10660926417E+02  0.13917646195E+02  0.51100000000E-03 0. -1.
        -11    1    3    3    0    0 -0.32147747074E+02 -0.16086616377E+02  0.13090111672E+02  0.38257128646E+02  0.51100000000E-03 0.  1.
         12    1    3    3    0    0  0.28396303245E+02  0.91566966315E+01 -0.23262385300E+02  0.37832971084E+02  0.00000000000E+00 0. -1.
</event>
<event>
 7    1  0.2497665E-015  0.9000778E+02  0.7816164E-02  0.1186339E+00
        -11   -1    0    0    0    0  0.00000000000E+00  0.00000000000E+00  0.45593999997E+02  0.45594000000E+02  0.51100000000E-03 0. -1.
         11   -1    0    0    0    0 -0.00000000000E+00 -0.00000000000E+00 -0.45593999997E+02  0.45594000000E+02  0.51100000000E-03 0.  1.
    9900012    2    1    2    0    0 -0.90305371292E+00  0.75975417782E+00  0.13423505662E-01  0.90007782813E+02  0.90000044746E+02 0.  0.
        -12    1    1    2    0    0  0.90305371292E+00 -0.75975417782E+00 -0.13423505662E-01  0.11802171875E+01  0.00000000000E+00 0.  1.
         11    1    3    3    0    0  0.10251704680E+01 -0.33856643690E+02  0.12092845757E+02  0.35966098137E+02  0.51100000000E-03 0. -1.
        -11    1    3    3    0    0  0.37307268954E+01 -0.51500297783E+01  0.70991034261E+01  0.95309180880E+01  0.51100000000E-03 0.  1.
        -12    1    3    3    0    0 -0.56589510764E+01  0.39766427646E+02 -0.19178525678E+02  0.44510766587E+02  0.00000000000E+00 0.  1.
</event>
<event>
 7    1  0.2497665E-015  0.9000789E+02  0.7816164E-02  0.1186339E+00
        -11   -1    0    0    0    0  0.00000000000E+00  0.00000000000E+00  0.45593999997E+02  0.45594000000E+02  0.51100000000E-03 0.  1.
         11   -1    0    0    0    0 -0.00000000000E+00 -0.00000000000E+00 -0.45593999997E+02  0.45594000000E+02  0.51100000000E-03 0. -1.
    9900012    2    1    2    0    0  0.86831746647E-01 -0.93009164777E+00  0.72114951927E+00  0.90007886931E+02  0.90000150239E+02 0.  0.
        -12    1    1    2    0    0 -0.86831746647E-01  0.93009164777E+00 -0.72114951927E+00  0.11801130686E+01  0.00000000000E+00 0.  1.
         11    1    3    3    0    0  0.57771777996E+01 -0.77629756920E+01 -0.13339046522E+01  0.97682586373E+01  0.51100000000E-03 0. -1.
        -11    1    3    3    0    0 -0.38333015819E+02 -0.13543977666E+02  0.76057916740E+01  0.41360699947E+02  0.51100000000E-03 0.  1.
         12    1    3    3    0    0  0.32642669766E+02  0.20376861710E+02 -0.55507375025E+01  0.38878928347E+02  0.00000000000E+00 0. -1.
</event>
<event>
 7    1  0.2497665E-015  0.9000833E+02  0.7816164E-02  0.1186338E+00
        -11   -1    0    0    0    0  0.00000000000E+00  0.00000000000E+00  0.45593999997E+02  0.45594000000E+02  0.51100000000E-03 0.  1.
         11   -1    0    0    0    0 -0.00000000000E+00 -0.00000000000E+00 -0.45593999997E+02  0.45594000000E+02  0.51100000000E-03 0. -1.
    9900012    2    1    2    0    0  0.11135308485E+01 -0.16434221030E+00  0.35307338264E+00  0.90008330501E+02  0.90000599662E+02 0.  0.
        -12    1    1    2    0    0 -0.11135308485E+01  0.16434221030E+00 -0.35307338264E+00  0.11796694987E+01  0.00000000000E+00 0.  1.
         11    1    3    3    0    0  0.35001429516E+01  0.25747966318E+00  0.10036787552E+02  0.10632704317E+02  0.51100000000E-03 0. -1.
        -11    1    3    3    0    0 -0.31414174055E+02  0.16155516661E+02  0.14429591423E+02  0.38158408759E+02  0.51100000000E-03 0.  1.
         12    1    3    3    0    0  0.29027561952E+02 -0.16577338534E+02 -0.24113305592E+02  0.41217217426E+02  0.00000000000E+00 0. -1.
</event>
<event>
 7    1  0.2497665E-015  0.9000749E+02  0.7816164E-02  0.1186340E+00
        -11   -1    0    0    0    0  0.00000000000E+00  0.00000000000E+00  0.45593999997E+02  0.45594000000E+02  0.51100000000E-03 0.  1.
         11   -1    0    0    0    0 -0.00000000000E+00 -0.00000000000E+00 -0.45593999997E+02  0.45594000000E+02  0.51100000000E-03 0. -1.
    9900012    2    1    2    0    0  0.19702606823E+00 -0.50770840661E+00 -0.10473899908E+01  0.90007486175E+02  0.89999744192E+02 0.  0.
        -12    1    1    2    0    0 -0.19702606823E+00  0.50770840661E+00  0.10473899908E+01  0.11805138248E+01  0.00000000000E+00 0.  1.
         11    1    3    3    0    0  0.32287921360E+02  0.91839480793E+01  0.19523616890E+02  0.38833315398E+02  0.51100000000E-03 0. -1.
        -11    1    3    3    0    0 -0.99956356447E+00  0.96702211789E+01 -0.13656295578E+01  0.98171915189E+01  0.51100000000E-03 0.  1.
        -12    1    3    3    0    0 -0.31091331727E+02 -0.19361877665E+02 -0.19205377323E+02  0.41356979259E+02  0.00000000000E+00 0.  1.
</event>
<event>
 7    1  0.2497665E-015  0.9000763E+02  0.7816164E-02  0.1186339E+00
        -11   -1    0    0    0    0  0.00000000000E+00  0.00000000000E+00  0.45593999997E+02  0.45594000000E+02  0.51100000000E-03 0.  1.
         11   -1    0    0    0    0 -0.00000000000E+00 -0.00000000000E+00 -0.45593999997E+02  0.45594000000E+02  0.51100000000E-03 0. -1.
    9900012    2    1    2    0    0  0.16113829494E+00 -0.76898407350E+00 -0.88089201917E+00  0.90007630225E+02  0.89999890144E+02 0.  0.
        -12    1    1    2    0    0 -0.16113829494E+00  0.76898407350E+00  0.88089201917E+00  0.11803697746E+01  0.00000000000E+00 0.  1.
         11    1    3    3    0    0  0.16383520748E+01  0.35925736842E+02 -0.18468979523E+02  0.40428281809E+02  0.51100000000E-03 0. -1.
        -11    1    3    3    0    0 -0.50926483748E+01  0.33515168564E+01  0.31024387331E+01  0.68405306126E+01  0.51100000000E-03 0.  1.
        -12    1    3    3    0    0  0.36154345950E+01 -0.40046237772E+02  0.14485648771E+02  0.42738817804E+02  0.00000000000E+00 0.  1.
</event>
<event>
 7    1  0.2497665E-015  0.9000772E+02  0.7816164E-02  0.1186339E+00
        -11   -1    0    0    0    0  0.00000000000E+00  0.00000000000E+00  0.45593999997E+02  0.45594000000E+02  0.51100000000E-03 0.  1.
         11   -1    0    0    0    0 -0.00000000000E+00 -0.00000000000E+00 -0.45593999997E+02  0.45594000000E+02  0.51100000000E-03 0. -1.
    9900012    2    1    2    0    0 -0.11545508508E+01 -0.15414175982E+00 -0.19056908464E+00  0.90007718709E+02  0.89999979796E+02 0.  0.
        -12    1    1    2    0    0  0.11545508508E+01  0.15414175982E+00  0.19056908464E+00  0.11802812907E+01  0.00000000000E+00 0.  1.
         11    1    3    3    0    0  0.15380715914E+02 -0.20443299077E+02  0.31947651421E+02  0.40928563751E+02  0.51100000000E-03 0. -1.
        -11    1    3    3    0    0 -0.10637717939E+02 -0.14115211675E-01 -0.33151901947E-01  0.10637778974E+02  0.51100000000E-03 0.  1.
        -12    1    3    3    0    0 -0.58975488267E+01  0.20303272529E+02 -0.32105068603E+02  0.38441375984E+02  0.00000000000E+00 0.  1.
</event>
<event>
 7    1  0.2497665E-015  0.9000775E+02  0.7816164E-02  0.1186339E+00
        -11   -1    0    0    0    0  0.00000000000E+00  0.00000000000E+00  0.45593999997E+02  0.45594000000E+02  0.51100000000E-03 0.  1.
         11   -1    0    0    0    0 -0.00000000000E+00 -0.00000000000E+00 -0.45593999997E+02  0.45594000000E+02  0.51100000000E-03 0. -1.
    9900012    2    1    2    0    0 -0.10189275480E+01 -0.59377829836E+00 -0.46835439339E-01  0.90007754443E+02  0.90000016002E+02 0.  0.
        -12    1    1    2    0    0  0.10189275480E+01  0.59377829836E+00  0.46835439339E-01  0.11802455567E+01  0.00000000000E+00 0.  1.
         11    1    3    3    0    0 -0.25847856750E+02 -0.23858351158E+02 -0.15018587467E+02  0.38247752722E+02  0.51100000000E-03 0. -1.
        -11    1    3    3    0    0 -0.30809919650E+01 -0.74353928392E+01  0.27892055579E+01  0.85180541244E+01  0.51100000000E-03 0.  1.
        -12    1    3    3    0    0  0.27909921167E+02  0.30699965699E+02  0.12182546470E+02  0.43241947597E+02  0.00000000000E+00 0.  1.
</event>
<event>
 7    1  0.2497665E-015  0.9000774E+02  0.7816164E-02  0.1186339E+00
        -11   -1    0    0    0    0  0.00000000000E+00  0.00000000000E+00  0.45593999997E+02  0.45594000000E+02  0.51100000000E-03 0.  1.
         11   -1    0    0    0    0 -0.00000000000E+00 -0.00000000000E+00 -0.45593999997E+02  0.45594000000E+02  0.51100000000E-03 0. -1.
    9900012    2    1    2    0    0  0.10298452570E+01 -0.34783310559E+00 -0.45983836887E+00  0.90007737128E+02  0.89999998458E+02 0.  0.
        -12    1    1    2    0    0 -0.10298452570E+01  0.34783310559E+00  0.45983836887E+00  0.11802628725E+01  0.00000000000E+00 0.  1.
         11    1    3    3    0    0 -0.37214958344E+01 -0.67399157105E+01  0.15334804182E+01  0.78503221262E+01  0.51100000000E-03 0. -1.
        -11    1    3    3    0    0 -0.32584832408E+02  0.13133198385E+02  0.17779095620E+02  0.39374464367E+02  0.51100000000E-03 0.  1.
         12    1    3    3    0    0  0.37336173499E+02 -0.67411157801E+01 -0.19772414407E+02  0.42782950634E+02  0.00000000000E+00 0. -1.
</event>
<event>
 7    1  0.2497665E-015  0.9000787E+02  0.7816164E-02  0.1186339E+00
        -11   -1    0    0    0    0  0.00000000000E+00  0.00000000000E+00  0.45593999997E+02  0.45594000000E+02  0.51100000000E-03 0. -1.
         11   -1    0    0    0    0 -0.00000000000E+00 -0.00000000000E+00 -0.45593999997E+02  0.45594000000E+02  0.51100000000E-03 0.  1.
    9900012    2    1    2    0    0  0.79047854506E+00  0.17863459445E-01  0.87608995962E+00  0.90007869054E+02  0.90000132125E+02 0.  0.
        -12    1    1    2    0    0 -0.79047854506E+00 -0.17863459445E-01 -0.87608995962E+00  0.11801309464E+01  0.00000000000E+00 0.  1.
         11    1    3    3    0    0  0.49341757903E+01  0.83293857125E+01 -0.88010046858E-01  0.96815547876E+01  0.51100000000E-03 0. -1.
        -11    1    3    3    0    0 -0.55778911685E+01  0.30943481571E+02 -0.18506592720E+02  0.36484323975E+02  0.51100000000E-03 0.  1.
         12    1    3    3    0    0  0.14341939233E+01 -0.39255003824E+02  0.19470692726E+02  0.43841990290E+02  0.00000000000E+00 0. -1.
</event>
<event>
 7    1  0.2497665E-015  0.9000787E+02  0.7816164E-02  0.1186339E+00
        -11   -1    0    0    0    0  0.00000000000E+00  0.00000000000E+00  0.45593999997E+02  0.45594000000E+02  0.51100000000E-03 0. -1.
         11   -1    0    0    0    0 -0.00000000000E+00 -0.00000000000E+00 -0.45593999997E+02  0.45594000000E+02  0.51100000000E-03 0.  1.
    9900012    2    1    2    0    0  0.69998799732E+00 -0.81372366181E+00  0.49049598218E+00  0.90007866235E+02  0.90000129269E+02 0.  0.
        -12    1    1    2    0    0 -0.69998799732E+00  0.81372366181E+00 -0.49049598218E+00  0.11801337648E+01  0.00000000000E+00 0.  1.
         11    1    3    3    0    0  0.50946945553E+01  0.41287639629E+01 -0.56372073111E+01  0.86475841136E+01  0.51100000000E-03 0. -1.
        -11    1    3    3    0    0  0.16677002945E+02  0.32390419285E+02 -0.57346742479E+01  0.36880186790E+02  0.51100000000E-03 0.  1.
         12    1    3    3    0    0 -0.21071709503E+02 -0.37332906910E+02  0.11862377541E+02  0.44480095331E+02  0.00000000000E+00 0. -1.
</event>
<event>
 7    1  0.2497665E-015  0.9000771E+02  0.7816164E-02  0.1186339E+00
        -11   -1    0    0    0    0  0.00000000000E+00  0.00000000000E+00  0.45593999997E+02  0.45594000000E+02  0.51100000000E-03 0.  1.
         11   -1    0    0    0    0 -0.00000000000E+00 -0.00000000000E+00 -0.45593999997E+02  0.45594000000E+02  0.51100000000E-03 0. -1.
    9900012    2    1    2    0    0 -0.69622721081E+00 -0.83768279607E+00 -0.45456367867E+00  0.90007714893E+02  0.89999975930E+02 0.  0.
        -12    1    1    2    0    0  0.69622721081E+00  0.83768279607E+00  0.45456367867E+00  0.11802851070E+01  0.00000000000E+00 0.  1.
         11    1    3    3    0    0  0.65167920384E+01  0.26249358266E-01  0.78050345879E+01  0.10167980757E+02  0.51100000000E-03 0. -1.
        -11    1    3    3    0    0  0.81211349576E+01  0.13735399479E+02  0.31208550066E+02  0.35051214377E+02  0.51100000000E-03 0.  1.
         12    1    3    3    0    0 -0.15334154207E+02 -0.14599331634E+02 -0.39468148332E+02  0.44788519759E+02  0.00000000000E+00 0. -1.
</event>
<event>
 7    1  0.2497665E-015  0.9000773E+02  0.7816164E-02  0.1186339E+00
        -11   -1    0    0    0    0  0.00000000000E+00  0.00000000000E+00  0.45593999997E+02  0.45594000000E+02  0.51100000000E-03 0.  1.
         11   -1    0    0    0    0 -0.00000000000E+00 -0.00000000000E+00 -0.45593999997E+02  0.45594000000E+02  0.51100000000E-03 0. -1.
    9900012    2    1    2    0    0  0.58985501075E+00  0.20436550921E-02 -0.10222998618E+01  0.90007733031E+02  0.89999994307E+02 0.  0.
        -12    1    1    2    0    0 -0.58985501075E+00 -0.20436550921E-02  0.10222998618E+01  0.11802669688E+01  0.00000000000E+00 0.  1.
         11    1    3    3    0    0 -0.13823002847E+02 -0.57873498148E+01 -0.35320799271E+02  0.38368316186E+02  0.51100000000E-03 0. -1.
        -11    1    3    3    0    0 -0.78950574213E+01 -0.26788075319E+01 -0.16439109423E+01  0.84976693820E+01  0.51100000000E-03 0.  1.
        -12    1    3    3    0    0  0.22307915279E+02  0.84682010018E+01  0.35942410351E+02  0.43141747463E+02  0.00000000000E+00 0.  1.
</event>
<event>
 7    1  0.2497665E-015  0.9000788E+02  0.7816164E-02  0.1186339E+00
        -11   -1    0    0    0    0  0.00000000000E+00  0.00000000000E+00  0.45593999997E+02  0.45594000000E+02  0.51100000000E-03 0.  1.
         11   -1    0    0    0    0 -0.00000000000E+00 -0.00000000000E+00 -0.45593999997E+02  0.45594000000E+02  0.51100000000E-03 0. -1.
    9900012    2    1    2    0    0 -0.11354156059E+01 -0.20838271551E+00 -0.24511544005E+00  0.90007884102E+02  0.90000147372E+02 0.  0.
        -12    1    1    2    0    0  0.11354156059E+01  0.20838271551E+00  0.24511544005E+00  0.11801158982E+01  0.00000000000E+00 0.  1.
         11    1    3    3    0    0  0.67039018381E+01  0.37046288067E+01  0.59230274103E+01  0.96823978649E+01  0.51100000000E-03 0. -1.
        -11    1    3    3    0    0 -0.43367554826E+02 -0.75821663678E+01  0.30508231947E+00  0.44026436761E+02  0.51100000000E-03 0.  1.
         12    1    3    3    0    0  0.35528237382E+02  0.36691548455E+01 -0.64732251698E+01  0.36299049476E+02  0.00000000000E+00 0. -1.
</event>
<event>
 7    1  0.2497665E-015  0.9000802E+02  0.7816164E-02  0.1186338E+00
        -11   -1    0    0    0    0  0.00000000000E+00  0.00000000000E+00  0.45593999997E+02  0.45594000000E+02  0.51100000000E-03 0.  1.
         11   -1    0    0    0    0 -0.00000000000E+00 -0.00000000000E+00 -0.45593999997E+02  0.45594000000E+02  0.51100000000E-03 0. -1.
    9900012    2    1    2    0    0  0.83479124954E+00  0.77583382873E+00 -0.30588649197E+00  0.90008016481E+02  0.90000281498E+02 0.  0.
        -12    1    1    2    0    0 -0.83479124954E+00 -0.77583382873E+00  0.30588649197E+00  0.11799835194E+01  0.00000000000E+00 0.  1.
         11    1    3    3    0    0 -0.16836198968E+01  0.91971489884E+01  0.27246525781E-01  0.93500196848E+01  0.51100000000E-03 0. -1.
        -11    1    3    3    0    0 -0.37602533473E-01  0.10320123459E+02  0.37212448475E+02  0.38616999935E+02  0.51100000000E-03 0.  1.
         12    1    3    3    0    0  0.25560136798E+01 -0.18741438619E+02 -0.37545581493E+02  0.42040996861E+02  0.00000000000E+00 0. -1.
</event>
<event>
 7    1  0.2497665E-015  0.9000766E+02  0.7816164E-02  0.1186339E+00
        -11   -1    0    0    0    0  0.00000000000E+00  0.00000000000E+00  0.45593999997E+02  0.45594000000E+02  0.51100000000E-03 0.  1.
         11   -1    0    0    0    0 -0.00000000000E+00 -0.00000000000E+00 -0.45593999997E+02  0.45594000000E+02  0.51100000000E-03 0. -1.
    9900012    2    1    2    0    0 -0.16227929754E+00  0.10849460025E+01 -0.43562088501E+00  0.90007657696E+02  0.89999917978E+02 0.  0.
        -12    1    1    2    0    0  0.16227929754E+00 -0.10849460025E+01  0.43562088501E+00  0.11803423038E+01  0.00000000000E+00 0.  1.
         11    1    3    3    0    0  0.60653838605E+01 -0.16524278494E+01 -0.60102347421E+01  0.86972594010E+01  0.51100000000E-03 0. -1.
        -11    1    3    3    0    0  0.35731155499E+02  0.12511931882E+02  0.52967133163E+01  0.38227203468E+02  0.51100000000E-03 0.  1.
         12    1    3    3    0    0 -0.41958818657E+02 -0.97745580303E+01  0.27790054076E+00  0.43083194827E+02  0.00000000000E+00 0. -1.
</event>
<event>
 7    1  0.2497665E-015  0.9000769E+02  0.7816164E-02  0.1186339E+00
        -11   -1    0    0    0    0  0.00000000000E+00  0.00000000000E+00  0.45593999997E+02  0.45594000000E+02  0.51100000000E-03 0. -1.
         11   -1    0    0    0    0 -0.00000000000E+00 -0.00000000000E+00 -0.45593999997E+02  0.45594000000E+02  0.51100000000E-03 0.  1.
    9900012    2    1    2    0    0  0.81692515200E+00 -0.83675626801E+00  0.16004323718E+00  0.90007685807E+02  0.89999946460E+02 0.  0.
        -12    1    1    2    0    0 -0.81692515200E+00  0.83675626801E+00 -0.16004323718E+00  0.11803141928E+01  0.00000000000E+00 0.  1.
         11    1    3    3    0    0 -0.19741661081E+02 -0.10513232595E+02  0.31910736054E+02  0.38968658145E+02  0.51100000000E-03 0. -1.
        -11    1    3    3    0    0 -0.55062795678E+01  0.78447006727E+01  0.42069700114E+00  0.95935097618E+01  0.51100000000E-03 0.  1.
        -12    1    3    3    0    0  0.26064865801E+02  0.18317756547E+01 -0.32171389818E+02  0.41445517901E+02  0.00000000000E+00 0.  1.
</event>
<event>
 7    1  0.2497665E-015  0.9000771E+02  0.7816164E-02  0.1186339E+00
        -11   -1    0    0    0    0  0.00000000000E+00  0.00000000000E+00  0.45593999997E+02  0.45594000000E+02  0.51100000000E-03 0. -1.
         11   -1    0    0    0    0 -0.00000000000E+00 -0.00000000000E+00 -0.45593999997E+02  0.45594000000E+02  0.51100000000E-03 0.  1.
    9900012    2    1    2    0    0 -0.72261350581E+00 -0.81755977782E+00  0.45000602067E+00  0.90007712032E+02  0.89999973031E+02 0.  0.
        -12    1    1    2    0    0  0.72261350581E+00  0.81755977782E+00 -0.45000602067E+00  0.11802879681E+01  0.00000000000E+00 0.  1.
         11    1    3    3    0    0 -0.72771091630E+00 -0.28971120443E+02  0.20276027986E+02  0.35369092356E+02  0.51100000000E-03 0. -1.
        -11    1    3    3    0    0 -0.41826249678E+01 -0.77806303220E+01  0.55647572263E+01  0.10440262596E+02  0.51100000000E-03 0.  1.
        -12    1    3    3    0    0  0.41877223783E+01  0.35934190987E+02 -0.25390779191E+02  0.44198357080E+02  0.00000000000E+00 0.  1.
</event>
<event>
 7    1  0.2497665E-015  0.9000777E+02  0.7816164E-02  0.1186339E+00
        -11   -1    0    0    0    0  0.00000000000E+00  0.00000000000E+00  0.45593999997E+02  0.45594000000E+02  0.51100000000E-03 0.  1.
         11   -1    0    0    0    0 -0.00000000000E+00 -0.00000000000E+00 -0.45593999997E+02  0.45594000000E+02  0.51100000000E-03 0. -1.
    9900012    2    1    2    0    0  0.22491836898E+00 -0.42190567410E+00 -0.10790547858E+01  0.90007766167E+02  0.90000027880E+02 0.  0.
        -12    1    1    2    0    0 -0.22491836898E+00  0.42190567410E+00  0.10790547858E+01  0.11802338333E+01  0.00000000000E+00 0.  1.
         11    1    3    3    0    0  0.34259828783E+02  0.14177887617E+02 -0.55490898153E+01  0.37490542321E+02  0.51100000000E-03 0. -1.
        -11    1    3    3    0    0  0.80646309576E+01 -0.23160811349E+01 -0.35146765175E+00  0.83979779755E+01  0.51100000000E-03 0.  1.
        -12    1    3    3    0    0 -0.42099541371E+02 -0.12283712156E+02  0.48215026812E+01  0.44119245870E+02  0.00000000000E+00 0.  1.
</event>
<event>
 7    1  0.2497665E-015  0.9000784E+02  0.7816164E-02  0.1186339E+00
        -11   -1    0    0    0    0  0.00000000000E+00  0.00000000000E+00  0.45593999997E+02  0.45594000000E+02  0.51100000000E-03 0. -1.
         11   -1    0    0    0    0 -0.00000000000E+00 -0.00000000000E+00 -0.45593999997E+02  0.45594000000E+02  0.51100000000E-03 0.  1.
    9900012    2    1    2    0    0 -0.80434444472E+00 -0.34966483605E+00  0.78964380376E+00  0.90007842036E+02  0.90000104751E+02 0.  0.
        -12    1    1    2    0    0  0.80434444472E+00  0.34966483605E+00 -0.78964380376E+00  0.11801579641E+01  0.00000000000E+00 0.  1.
         11    1    3    3    0    0  0.19299700846E+02  0.22292229243E+02  0.99356104006E+01  0.31114920724E+02  0.51100000000E-03 0. -1.
        -11    1    3    3    0    0  0.14623009091E+02  0.29101313946E+01 -0.48934511584E+00  0.14917798715E+02  0.51100000000E-03 0.  1.
        -12    1    3    3    0    0 -0.34727054382E+02 -0.25552025474E+02 -0.86566214810E+01  0.43975122596E+02  0.00000000000E+00 0.  1.
</event>
<event>
 7    1  0.2497665E-015  0.9000774E+02  0.7816164E-02  0.1186339E+00
        -11   -1    0    0    0    0  0.00000000000E+00  0.00000000000E+00  0.45593999997E+02  0.45594000000E+02  0.51100000000E-03 0.  1.
         11   -1    0    0    0    0 -0.00000000000E+00 -0.00000000000E+00 -0.45593999997E+02  0.45594000000E+02  0.51100000000E-03 0. -1.
    9900012    2    1    2    0    0 -0.11317891344E+01  0.32444211629E+00 -0.82559688586E-01  0.90007735015E+02  0.89999996318E+02 0.  0.
        -12    1    1    2    0    0  0.11317891344E+01 -0.32444211629E+00  0.82559688586E-01  0.11802649846E+01  0.00000000000E+00 0.  1.
         11    1    3    3    0    0  0.68874949745E+01  0.75285367903E+01 -0.24481315580E+01  0.10493321763E+02  0.51100000000E-03 0. -1.
        -11    1    3    3    0    0  0.35373215202E+02 -0.44218298416E+01 -0.26373278738E+01  0.35745942867E+02  0.51100000000E-03 0.  1.
         12    1    3    3    0    0 -0.43392499311E+02 -0.27822648324E+01  0.50028997433E+01  0.43768470386E+02  0.00000000000E+00 0. -1.
</event>
<event>
 7    1  0.2497665E-015  0.9000775E+02  0.7816164E-02  0.1186339E+00
        -11   -1    0    0    0    0  0.00000000000E+00  0.00000000000E+00  0.45593999997E+02  0.45594000000E+02  0.51100000000E-03 0.  1.
         11   -1    0    0    0    0 -0.00000000000E+00 -0.00000000000E+00 -0.45593999997E+02  0.45594000000E+02  0.51100000000E-03 0. -1.
    9900012    2    1    2    0    0 -0.45625927587E-01 -0.99799164685E-01 -0.11751408987E+01  0.90007746752E+02  0.90000008209E+02 0.  0.
        -12    1    1    2    0    0  0.45625927587E-01  0.99799164685E-01  0.11751408987E+01  0.11802532484E+01  0.00000000000E+00 0.  1.
         11    1    3    3    0    0 -0.19878288089E+02 -0.36350316065E+01 -0.27707553045E+02  0.34293852046E+02  0.51100000000E-03 0. -1.
        -11    1    3    3    0    0 -0.12554129077E+02 -0.63084793909E+01  0.26770880835E+01  0.14302792384E+02  0.51100000000E-03 0.  1.
        -12    1    3    3    0    0  0.32386791238E+02  0.98437118327E+01  0.23855324063E+02  0.41411102322E+02  0.00000000000E+00 0.  1.
</event>
<event>
 7    1  0.2497665E-015  0.9000776E+02  0.7816164E-02  0.1186339E+00
        -11   -1    0    0    0    0  0.00000000000E+00  0.00000000000E+00  0.45593999997E+02  0.45594000000E+02  0.51100000000E-03 0.  1.
         11   -1    0    0    0    0 -0.00000000000E+00 -0.00000000000E+00 -0.45593999997E+02  0.45594000000E+02  0.51100000000E-03 0. -1.
    9900012    2    1    2    0    0 -0.58863869754E+00  0.85232025473E+00 -0.56570881993E+00  0.90007757736E+02  0.90000019338E+02 0.  0.
        -12    1    1    2    0    0  0.58863869754E+00 -0.85232025473E+00  0.56570881993E+00  0.11802422640E+01  0.00000000000E+00 0.  1.
         11    1    3    3    0    0 -0.13499221594E+02  0.77311727835E+01 -0.37217498856E+02  0.40337851178E+02  0.51100000000E-03 0. -1.
        -11    1    3    3    0    0  0.56992295590E+01  0.75137415424E+01 -0.22410388234E+00  0.94333319852E+01  0.51100000000E-03 0.  1.
        -12    1    3    3    0    0  0.72113533374E+01 -0.14392594071E+02  0.36875893919E+02  0.40236574573E+02  0.00000000000E+00 0.  1.
</event>
<event>
 7    1  0.2497665E-015  0.9000776E+02  0.7816164E-02  0.1186339E+00
        -11   -1    0    0    0    0  0.00000000000E+00  0.00000000000E+00  0.45593999997E+02  0.45594000000E+02  0.51100000000E-03 0.  1.
         11   -1    0    0    0    0 -0.00000000000E+00 -0.00000000000E+00 -0.45593999997E+02  0.45594000000E+02  0.51100000000E-03 0. -1.
    9900012    2    1    2    0    0 -0.81401479347E+00 -0.70003603567E+00 -0.49019306176E+00  0.90007762832E+02  0.90000024501E+02 0.  0.
        -12    1    1    2    0    0  0.81401479347E+00  0.70003603567E+00  0.49019306176E+00  0.11802371681E+01  0.00000000000E+00 0.  1.
         11    1    3    3    0    0  0.84669068907E+01 -0.46975842889E+01 -0.35327523175E+02  0.36630447777E+02  0.51100000000E-03 0. -1.
        -11    1    3    3    0    0 -0.45644090190E+01 -0.43550909818E+01 -0.75954813789E+01  0.98738029549E+01  0.51100000000E-03 0.  1.
        -12    1    3    3    0    0 -0.47165126651E+01  0.83526392351E+01  0.42432811492E+02  0.43503512100E+02  0.00000000000E+00 0.  1.
</event>
<event>
 7    1  0.2497665E-015  0.9000778E+02  0.7816164E-02  0.1186339E+00
        -11   -1    0    0    0    0  0.00000000000E+00  0.00000000000E+00  0.45593999997E+02  0.45594000000E+02  0.51100000000E-03 0. -1.
         11   -1    0    0    0    0 -0.00000000000E+00 -0.00000000000E+00 -0.45593999997E+02  0.45594000000E+02  0.51100000000E-03 0.  1.
    9900012    2    1    2    0    0  0.25980372630E+00 -0.10165907505E+01  0.54034259114E+00  0.90007777629E+02  0.90000039493E+02 0.  0.
        -12    1    1    2    0    0 -0.25980372630E+00  0.10165907505E+01 -0.54034259114E+00  0.11802223714E+01  0.00000000000E+00 0.  1.
         11    1    3    3    0    0  0.40775369721E+02  0.89408540153E+01  0.12848872987E+01  0.41763866943E+02  0.51100000000E-03 0. -1.
        -11    1    3    3    0    0 -0.70014713957E+01  0.65536725552E+01  0.43627360508E+01  0.10535876412E+02  0.51100000000E-03 0.  1.
        -12    1    3    3    0    0 -0.33514094599E+02 -0.16511117321E+02 -0.51072807584E+01  0.37708034273E+02  0.00000000000E+00 0.  1.
</event>
<event>
 7    1  0.2497665E-015  0.9000773E+02  0.7816164E-02  0.1186339E+00
        -11   -1    0    0    0    0  0.00000000000E+00  0.00000000000E+00  0.45593999997E+02  0.45594000000E+02  0.51100000000E-03 0.  1.
         11   -1    0    0    0    0 -0.00000000000E+00 -0.00000000000E+00 -0.45593999997E+02  0.45594000000E+02  0.51100000000E-03 0. -1.
    9900012    2    1    2    0    0 -0.89689648759E+00  0.49026108829E+00 -0.59013693608E+00  0.90007728486E+02  0.89999989702E+02 0.  0.
        -12    1    1    2    0    0  0.89689648759E+00 -0.49026108829E+00  0.59013693608E+00  0.11802715143E+01  0.00000000000E+00 0.  1.
         11    1    3    3    0    0  0.23180163233E+02 -0.13227283456E+02 -0.18855693081E+02  0.32677487004E+02  0.51100000000E-03 0. -1.
        -11    1    3    3    0    0  0.57951391532E+01 -0.11300227803E+02 -0.28451159472E+01  0.13014356351E+02  0.51100000000E-03 0.  1.
        -12    1    3    3    0    0 -0.29872198873E+02  0.25017772347E+02  0.21110672092E+02  0.44315885131E+02  0.00000000000E+00 0.  1.
</event>
<event>
 7    1  0.2497665E-015  0.9000774E+02  0.7816164E-02  0.1186339E+00
        -11   -1    0    0    0    0  0.00000000000E+00  0.00000000000E+00  0.45593999997E+02  0.45594000000E+02  0.51100000000E-03 0.  1.
         11   -1    0    0    0    0 -0.00000000000E+00 -0.00000000000E+00 -0.45593999997E+02  0.45594000000E+02  0.51100000000E-03 0. -1.
    9900012    2    1    2    0    0  0.73365570212E+00 -0.91355492092E+00  0.14201852785E+00  0.90007744712E+02  0.90000006142E+02 0.  0.
        -12    1    1    2    0    0 -0.73365570212E+00  0.91355492092E+00 -0.14201852785E+00  0.11802552881E+01  0.00000000000E+00 0.  1.
         11    1    3    3    0    0  0.72030655580E+01  0.61892255082E+01  0.93474491001E+00  0.95427676348E+01  0.51100000000E-03 0. -1.
        -11    1    3    3    0    0  0.29227443194E+02 -0.13769987218E+02  0.20600685793E+02  0.38317675283E+02  0.51100000000E-03 0.  1.
         12    1    3    3    0    0 -0.35696853050E+02  0.66672067886E+01 -0.21393412175E+02  0.42147301794E+02  0.00000000000E+00 0. -1.
</event>
<event>
 7    1  0.2497665E-015  0.9000772E+02  0.7816164E-02  0.1186339E+00
        -11   -1    0    0    0    0  0.00000000000E+00  0.00000000000E+00  0.45593999997E+02  0.45594000000E+02  0.51100000000E-03 0.  1.
         11   -1    0    0    0    0 -0.00000000000E+00 -0.00000000000E+00 -0.45593999997E+02  0.45594000000E+02  0.51100000000E-03 0. -1.
    9900012    2    1    2    0    0  0.26452423126E+00 -0.95656674332E+00 -0.63879525055E+00  0.90007723602E+02  0.89999984754E+02 0.  0.
        -12    1    1    2    0    0 -0.26452423126E+00  0.95656674332E+00  0.63879525055E+00  0.11802763979E+01  0.00000000000E+00 0.  1.
         11    1    3    3    0    0 -0.64517997910E+01 -0.48428920076E+01 -0.75006104985E-01  0.80675243859E+01  0.51100000000E-03 0. -1.
        -11    1    3    3    0    0  0.68651580014E+01 -0.34096779636E+02  0.18550179189E+02  0.39418649446E+02  0.51100000000E-03 0.  1.
         12    1    3    3    0    0 -0.14883397910E+00  0.37983104900E+02 -0.19113968335E+02  0.42521549771E+02  0.00000000000E+00 0. -1.
</event>
<event>
 7    1  0.2497665E-015  0.9000775E+02  0.7816164E-02  0.1186339E+00
        -11   -1    0    0    0    0  0.00000000000E+00  0.00000000000E+00  0.45593999997E+02  0.45594000000E+02  0.51100000000E-03 0.  1.
         11   -1    0    0    0    0 -0.00000000000E+00 -0.00000000000E+00 -0.45593999997E+02  0.45594000000E+02  0.51100000000E-03 0. -1.
    9900012    2    1    2    0    0  0.80248691615E+00 -0.79114839474E+00  0.35085392563E+00  0.90007745998E+02  0.90000007445E+02 0.  0.
        -12    1    1    2    0    0 -0.80248691615E+00  0.79114839474E+00 -0.35085392563E+00  0.11802540024E+01  0.00000000000E+00 0.  1.
         11    1    3    3    0    0 -0.30690142212E+02 -0.89226005977E+01 -0.74401257543E+01  0.32815439992E+02  0.51100000000E-03 0. -1.
        -11    1    3    3    0    0 -0.57920526489E+01 -0.51675145013E+01 -0.10927899301E+02  0.13404106215E+02  0.51100000000E-03 0.  1.
        -12    1    3    3    0    0  0.37284681777E+02  0.13298966704E+02  0.18718878981E+02  0.43788199791E+02  0.00000000000E+00 0.  1.
</event>
<event>
 7    1  0.2497665E-015  0.9000772E+02  0.7816164E-02  0.1186339E+00
        -11   -1    0    0    0    0  0.00000000000E+00  0.00000000000E+00  0.45593999997E+02  0.45594000000E+02  0.51100000000E-03 0.  1.
         11   -1    0    0    0    0 -0.00000000000E+00 -0.00000000000E+00 -0.45593999997E+02  0.45594000000E+02  0.51100000000E-03 0. -1.
    9900012    2    1    2    0    0 -0.18083297565E+00  0.97436171978E+00 -0.64108461182E+00  0.90007715795E+02  0.89999976843E+02 0.  0.
        -12    1    1    2    0    0  0.18083297565E+00 -0.97436171978E+00  0.64108461182E+00  0.11802842054E+01  0.00000000000E+00 0.  1.
         11    1    3    3    0    0 -0.51297315029E+01 -0.26791723455E+01  0.73957751675E+01  0.93909318141E+01  0.51100000000E-03 0. -1.
        -11    1    3    3    0    0  0.44897617523E+01 -0.20942489634E+02  0.29062522176E+02  0.36102299486E+02  0.51100000000E-03 0.  1.
         12    1    3    3    0    0  0.45913677492E+00  0.24596023699E+02 -0.37099381955E+02  0.44514484495E+02  0.00000000000E+00 0. -1.
</event>
<event>
 7    1  0.2497665E-015  0.9000781E+02  0.7816164E-02  0.1186339E+00
        -11   -1    0    0    0    0  0.00000000000E+00  0.00000000000E+00  0.45593999997E+02  0.45594000000E+02  0.51100000000E-03 0. -1.
         11   -1    0    0    0    0 -0.00000000000E+00 -0.00000000000E+00 -0.45593999997E+02  0.45594000000E+02  0.51100000000E-03 0.  1.
    9900012    2    1    2    0    0  0.45555944460E+00 -0.28078003590E+00  0.10518959316E+01  0.90007806420E+02  0.90000068664E+02 0.  0.
        -12    1    1    2    0    0 -0.45555944460E+00  0.28078003590E+00 -0.10518959316E+01  0.11801935803E+01  0.00000000000E+00 0.  1.
         11    1    3    3    0    0  0.91089397916E+01 -0.28298835215E+01 -0.17844509821E+02  0.20233822078E+02  0.51100000000E-03 0. -1.
        -11    1    3    3    0    0  0.66429027187E+01  0.10096112698E+02 -0.22201129350E+02  0.25277456217E+02  0.51100000000E-03 0.  1.
         12    1    3    3    0    0 -0.15296283066E+02 -0.75470092127E+01  0.41097535102E+02  0.44496528125E+02  0.00000000000E+00 0. -1.
</event>
<event>
 7    1  0.2497665E-015  0.9000776E+02  0.7816164E-02  0.1186339E+00
        -11   -1    0    0    0    0  0.00000000000E+00  0.00000000000E+00  0.45593999997E+02  0.45594000000E+02  0.51100000000E-03 0. -1.
         11   -1    0    0    0    0 -0.00000000000E+00 -0.00000000000E+00 -0.45593999997E+02  0.45594000000E+02  0.51100000000E-03 0.  1.
    9900012    2    1    2    0    0 -0.58666943871E+00 -0.10145679914E+01  0.13940761461E+00  0.90007761159E+02  0.90000022806E+02 0.  0.
        -12    1    1    2    0    0  0.58666943871E+00  0.10145679914E+01 -0.13940761461E+00  0.11802388413E+01  0.00000000000E+00 0.  1.
         11    1    3    3    0    0 -0.19609871855E+01 -0.61616597265E+01  0.18021984720E+01  0.67126329350E+01  0.51100000000E-03 0. -1.
        -11    1    3    3    0    0  0.40996174624E+02 -0.71681182836E+01  0.18174506718E+01  0.41657788956E+02  0.51100000000E-03 0.  1.
         12    1    3    3    0    0 -0.39621856877E+02  0.12315210019E+02 -0.34802415291E+01  0.41637339268E+02  0.00000000000E+00 0. -1.
</event>
<event>
 7    1  0.2497665E-015  0.9000771E+02  0.7816164E-02  0.1186339E+00
        -11   -1    0    0    0    0  0.00000000000E+00  0.00000000000E+00  0.45593999997E+02  0.45594000000E+02  0.51100000000E-03 0. -1.
         11   -1    0    0    0    0 -0.00000000000E+00 -0.00000000000E+00 -0.45593999997E+02  0.45594000000E+02  0.51100000000E-03 0.  1.
    9900012    2    1    2    0    0 -0.78387653171E+00  0.45128661429E+00  0.75826261866E+00  0.90007710110E+02  0.89999971084E+02 0.  0.
        -12    1    1    2    0    0  0.78387653171E+00 -0.45128661429E+00 -0.75826261866E+00  0.11802898898E+01  0.00000000000E+00 0.  1.
         11    1    3    3    0    0 -0.40715044545E+01  0.66690960339E+00  0.92125847075E+01  0.10094237673E+02  0.51100000000E-03 0. -1.
        -11    1    3    3    0    0 -0.37687549520E+02  0.54431803064E+01 -0.31060895506E+01  0.38205070256E+02  0.51100000000E-03 0.  1.
         12    1    3    3    0    0  0.40975177443E+02 -0.56588032955E+01 -0.53482325383E+01  0.41708402181E+02  0.00000000000E+00 0. -1.
</event>
<event>
 7    1  0.2497665E-015  0.9000772E+02  0.7816164E-02  0.1186339E+00
        -11   -1    0    0    0    0  0.00000000000E+00  0.00000000000E+00  0.45593999997E+02  0.45594000000E+02  0.51100000000E-03 0. -1.
         11   -1    0    0    0    0 -0.00000000000E+00 -0.00000000000E+00 -0.45593999997E+02  0.45594000000E+02  0.51100000000E-03 0.  1.
    9900012    2    1    2    0    0  0.96612271819E+00  0.15207946574E+00 -0.66071629246E+00  0.90007717284E+02  0.89999978352E+02 0.  0.
        -12    1    1    2    0    0 -0.96612271819E+00 -0.15207946574E+00  0.66071629246E+00  0.11802827160E+01  0.00000000000E+00 0.  1.
         11    1    3    3    0    0  0.28912245628E+02  0.10674819319E+02  0.80547574456E+01  0.31855122548E+02  0.51100000000E-03 0. -1.
        -11    1    3    3    0    0  0.13652062997E+02 -0.91200936430E+00  0.27275628671E+01  0.13951709021E+02  0.51100000000E-03 0.  1.
        -12    1    3    3    0    0 -0.41598185907E+02 -0.96107304892E+01 -0.11443036605E+02  0.44200885715E+02  0.00000000000E+00 0.  1.
</event>
<event>
 7    1  0.2497665E-015  0.9000769E+02  0.7816164E-02  0.1186339E+00
        -11   -1    0    0    0    0  0.00000000000E+00  0.00000000000E+00  0.45593999997E+02  0.45594000000E+02  0.51100000000E-03 0.  1.
         11   -1    0    0    0    0 -0.00000000000E+00 -0.00000000000E+00 -0.45593999997E+02  0.45594000000E+02  0.51100000000E-03 0. -1.
    9900012    2    1    2    0    0 -0.10946402904E+01  0.43291221044E+00  0.86513370598E-01  0.90007688638E+02  0.89999949328E+02 0.  0.
        -12    1    1    2    0    0  0.10946402904E+01 -0.43291221044E+00 -0.86513370598E-01  0.11803113617E+01  0.00000000000E+00 0.  1.
         11    1    3    3    0    0  0.13157067511E+02  0.36255070989E+02 -0.25655442114E+01  0.38653856408E+02  0.51100000000E-03 0. -1.
        -11    1    3    3    0    0 -0.97524982510E+01  0.42623088380E+01 -0.17202898522E+01  0.10781368012E+02  0.51100000000E-03 0.  1.
        -12    1    3    3    0    0 -0.44992095505E+01 -0.40084467616E+02  0.43723474343E+01  0.40572464218E+02  0.00000000000E+00 0.  1.
</event>
<event>
 7    1  0.2497665E-015  0.9000687E+02  0.7816164E-02  0.1186341E+00
        -11   -1    0    0    0    0  0.00000000000E+00  0.00000000000E+00  0.45593999997E+02  0.45594000000E+02  0.51100000000E-03 0.  1.
         11   -1    0    0    0    0 -0.00000000000E+00 -0.00000000000E+00 -0.45593999997E+02  0.45594000000E+02  0.51100000000E-03 0. -1.
    9900012    2    1    2    0    0 -0.22672146100E+00  0.38111309543E+00 -0.10947276176E+01  0.90006865643E+02  0.89999115465E+02 0.  0.
        -12    1    1    2    0    0  0.22672146100E+00 -0.38111309543E+00  0.10947276176E+01  0.11811343569E+01  0.00000000000E+00 0.  1.
         11    1    3    3    0    0  0.75912605694E+01 -0.70332623772E+01 -0.15751026765E+01  0.10467806141E+02  0.51100000000E-03 0. -1.
        -11    1    3    3    0    0 -0.33705099012E+02 -0.68529819108E+01 -0.23349126731E+02  0.41571369713E+02  0.51100000000E-03 0.  1.
         12    1    3    3    0    0  0.25887116982E+02  0.14267357383E+02  0.23829501790E+02  0.37967689789E+02  0.00000000000E+00 0. -1.
</event>
<event>
 7    1  0.2497665E-015  0.9000771E+02  0.7816164E-02  0.1186339E+00
        -11   -1    0    0    0    0  0.00000000000E+00  0.00000000000E+00  0.45593999997E+02  0.45594000000E+02  0.51100000000E-03 0. -1.
         11   -1    0    0    0    0 -0.00000000000E+00 -0.00000000000E+00 -0.45593999997E+02  0.45594000000E+02  0.51100000000E-03 0.  1.
    9900012    2    1    2    0    0 -0.92185351538E+00 -0.55161436698E+00  0.48886267558E+00  0.90007712311E+02  0.89999973313E+02 0.  0.
        -12    1    1    2    0    0  0.92185351538E+00  0.55161436698E+00 -0.48886267558E+00  0.11802876892E+01  0.00000000000E+00 0.  1.
         11    1    3    3    0    0  0.41634188544E+01  0.92338661100E+00 -0.86964607168E+01  0.96858210107E+01  0.51100000000E-03 0. -1.
        -11    1    3    3    0    0 -0.12213418031E+02 -0.10380105139E+02 -0.32965103168E+02  0.36655315983E+02  0.51100000000E-03 0.  1.
         12    1    3    3    0    0  0.71281456615E+01  0.89051041612E+01  0.42150426560E+02  0.43666575317E+02  0.00000000000E+00 0. -1.
</event>
<event>
 7    1  0.2497665E-015  0.9000774E+02  0.7816164E-02  0.1186339E+00
        -11   -1    0    0    0    0  0.00000000000E+00  0.00000000000E+00  0.45593999997E+02  0.45594000000E+02  0.51100000000E-03 0. -1.
         11   -1    0    0    0    0 -0.00000000000E+00 -0.00000000000E+00 -0.45593999997E+02  0.45594000000E+02  0.51100000000E-03 0.  1.
    9900012    2    1    2    0    0  0.90275688828E+00  0.13910121939E+00  0.74745548613E+00  0.90007742040E+02  0.90000003435E+02 0.  0.
        -12    1    1    2    0    0 -0.90275688828E+00 -0.13910121939E+00 -0.74745548613E+00  0.11802579601E+01  0.00000000000E+00 0.  1.
         11    1    3    3    0    0 -0.23847011877E+01  0.66405908228E+01  0.60566202695E+01  0.92987577439E+01  0.51100000000E-03 0. -1.
        -11    1    3    3    0    0  0.39224365446E+02  0.91909578028E+01 -0.91338056722E+01  0.41309211519E+02  0.51100000000E-03 0.  1.
         12    1    3    3    0    0 -0.35936907370E+02 -0.15692447406E+02  0.38246408889E+01  0.39399772777E+02  0.00000000000E+00 0. -1.
</event>
<event>
 7    1  0.2497665E-015  0.9000778E+02  0.7816164E-02  0.1186339E+00
        -11   -1    0    0    0    0  0.00000000000E+00  0.00000000000E+00  0.45593999997E+02  0.45594000000E+02  0.51100000000E-03 0. -1.
         11   -1    0    0    0    0 -0.00000000000E+00 -0.00000000000E+00 -0.45593999997E+02  0.45594000000E+02  0.51100000000E-03 0.  1.
    9900012    2    1    2    0    0  0.32666642828E+00 -0.72558062616E+00  0.87162882636E+00  0.90007781795E+02  0.90000043715E+02 0.  0.
        -12    1    1    2    0    0 -0.32666642828E+00  0.72558062616E+00 -0.87162882636E+00  0.11802182050E+01  0.00000000000E+00 0.  1.
         11    1    3    3    0    0 -0.12800139601E+01  0.20329878532E+01 -0.82461159233E+01  0.85889407631E+01  0.51100000000E-03 0. -1.
        -11    1    3    3    0    0  0.30452991284E+02 -0.28881076943E+02  0.38276800378E+01  0.42144423336E+02  0.51100000000E-03 0.  1.
         12    1    3    3    0    0 -0.28846310896E+02  0.26122508464E+02  0.52900647119E+01  0.39274417696E+02  0.00000000000E+00 0. -1.
</event>
<event>
 7    1  0.2497665E-015  0.9000767E+02  0.7816164E-02  0.1186339E+00
        -11   -1    0    0    0    0  0.00000000000E+00  0.00000000000E+00  0.45593999997E+02  0.45594000000E+02  0.51100000000E-03 0. -1.
         11   -1    0    0    0    0 -0.00000000000E+00 -0.00000000000E+00 -0.45593999997E+02  0.45594000000E+02  0.51100000000E-03 0.  1.
    9900012    2    1    2    0    0 -0.11007248144E+01  0.34508216090E+00  0.25001183610E+00  0.90007668380E+02  0.89999928803E+02 0.  0.
        -12    1    1    2    0    0  0.11007248144E+01 -0.34508216090E+00 -0.25001183610E+00  0.11803316199E+01  0.00000000000E+00 0.  1.
         11    1    3    3    0    0 -0.60189370809E+00 -0.93153320943E+01 -0.18902711812E+01  0.95242224597E+01  0.51100000000E-03 0. -1.
        -11    1    3    3    0    0 -0.33250773063E+01 -0.45673367799E+01 -0.37681136992E+02  0.38102293758E+02  0.51100000000E-03 0.  1.
         12    1    3    3    0    0  0.28262462000E+01  0.14227751035E+02  0.39821420009E+02  0.42381152163E+02  0.00000000000E+00 0. -1.
</event>
<event>
 7    1  0.2497665E-015  0.9000758E+02  0.7816164E-02  0.1186339E+00
        -11   -1    0    0    0    0  0.00000000000E+00  0.00000000000E+00  0.45593999997E+02  0.45594000000E+02  0.51100000000E-03 0.  1.
         11   -1    0    0    0    0 -0.00000000000E+00 -0.00000000000E+00 -0.45593999997E+02  0.45594000000E+02  0.51100000000E-03 0. -1.
    9900012    2    1    2    0    0  0.89262136137E+00  0.72231007583E+00  0.27366077976E+00  0.90007578481E+02  0.89999837717E+02 0.  0.
        -12    1    1    2    0    0 -0.89262136137E+00 -0.72231007583E+00 -0.27366077976E+00  0.11804215191E+01  0.00000000000E+00 0.  1.
         11    1    3    3    0    0 -0.14994333705E+02 -0.31066890080E+02 -0.20393437233E+02  0.40073357545E+02  0.51100000000E-03 0. -1.
        -11    1    3    3    0    0  0.42289740653E+01  0.66484243536E+01 -0.71710383091E+01  0.10654086480E+02  0.51100000000E-03 0.  1.
        -12    1    3    3    0    0  0.11657981002E+02  0.25140775802E+02  0.27838136322E+02  0.39280134456E+02  0.00000000000E+00 0.  1.
</event>
<event>
 7    1  0.2497665E-015  0.9000735E+02  0.7816164E-02  0.1186340E+00
        -11   -1    0    0    0    0  0.00000000000E+00  0.00000000000E+00  0.45593999997E+02  0.45594000000E+02  0.51100000000E-03 0.  1.
         11   -1    0    0    0    0 -0.00000000000E+00 -0.00000000000E+00 -0.45593999997E+02  0.45594000000E+02  0.51100000000E-03 0. -1.
    9900012    2    1    2    0    0  0.96398221723E+00 -0.46164060237E+00 -0.50155177496E+00  0.90007352744E+02  0.89999608999E+02 0.  0.
        -12    1    1    2    0    0 -0.96398221723E+00  0.46164060237E+00  0.50155177496E+00  0.11806472563E+01  0.00000000000E+00 0.  1.
         11    1    3    3    0    0  0.35684977768E+00  0.91040024455E+00  0.87903084244E+01  0.88445289771E+01  0.51100000000E-03 0. -1.
        -11    1    3    3    0    0 -0.14329816994E+02 -0.27961588355E+02  0.21305414098E+02  0.37962017183E+02  0.51100000000E-03 0.  1.
         12    1    3    3    0    0  0.14936949434E+02  0.26589547508E+02 -0.30597274297E+02  0.43200806584E+02  0.00000000000E+00 0. -1.
</event>
<event>
 7    1  0.2497665E-015  0.9000780E+02  0.7816164E-02  0.1186339E+00
        -11   -1    0    0    0    0  0.00000000000E+00  0.00000000000E+00  0.45593999997E+02  0.45594000000E+02  0.51100000000E-03 0.  1.
         11   -1    0    0    0    0 -0.00000000000E+00 -0.00000000000E+00 -0.45593999997E+02  0.45594000000E+02  0.51100000000E-03 0. -1.
    9900012    2    1    2    0    0 -0.86144393197E+00  0.71894053775E+00 -0.36592955352E+00  0.90007802736E+02  0.90000064932E+02 0.  0.
        -12    1    1    2    0    0  0.86144393197E+00 -0.71894053775E+00  0.36592955352E+00  0.11801972644E+01  0.00000000000E+00 0.  1.
         11    1    3    3    0    0  0.15803871157E+01 -0.71489336204E+01 -0.23189816696E+01  0.76800098691E+01  0.51100000000E-03 0. -1.
        -11    1    3    3    0    0 -0.41714260413E+02  0.57039806101E+01  0.69756845279E+01  0.42676399702E+02  0.51100000000E-03 0.  1.
         12    1    3    3    0    0  0.39272429366E+02  0.21638935481E+01 -0.50226324119E+01  0.39651393165E+02  0.00000000000E+00 0. -1.
</event>
<event>
 7    1  0.2497665E-015  0.9000764E+02  0.7816164E-02  0.1186339E+00
        -11   -1    0    0    0    0  0.00000000000E+00  0.00000000000E+00  0.45593999997E+02  0.45594000000E+02  0.51100000000E-03 0.  1.
         11   -1    0    0    0    0 -0.00000000000E+00 -0.00000000000E+00 -0.45593999997E+02  0.45594000000E+02  0.51100000000E-03 0. -1.
    9900012    2    1    2    0    0 -0.42812890219E+00 -0.10999278855E+01  0.10221380747E-01  0.90007644042E+02  0.89999904144E+02 0.  0.
        -12    1    1    2    0    0  0.42812890219E+00  0.10999278855E+01 -0.10221380747E-01  0.11803559577E+01  0.00000000000E+00 0.  1.
         11    1    3    3    0    0 -0.31191038024E+01  0.31565065514E+01 -0.86688411198E+01  0.97386420389E+01  0.51100000000E-03 0. -1.
        -11    1    3    3    0    0  0.48540399412E+01 -0.38943985042E+02  0.19561317549E+02  0.43850208884E+02  0.51100000000E-03 0.  1.
         12    1    3    3    0    0 -0.21630650410E+01  0.34687550605E+02 -0.10882255048E+02  0.36418793119E+02  0.00000000000E+00 0. -1.
</event>
<event>
 7    1  0.2497665E-015  0.9000774E+02  0.7816164E-02  0.1186339E+00
        -11   -1    0    0    0    0  0.00000000000E+00  0.00000000000E+00  0.45593999997E+02  0.45594000000E+02  0.51100000000E-03 0.  1.
         11   -1    0    0    0    0 -0.00000000000E+00 -0.00000000000E+00 -0.45593999997E+02  0.45594000000E+02  0.51100000000E-03 0. -1.
    9900012    2    1    2    0    0  0.72811761649E+00 -0.90377693527E+00  0.21460299180E+00  0.90007736277E+02  0.89999997596E+02 0.  0.
        -12    1    1    2    0    0 -0.72811761649E+00  0.90377693527E+00 -0.21460299180E+00  0.11802637232E+01  0.00000000000E+00 0.  1.
         11    1    3    3    0    0  0.12694517343E+02  0.22515390478E+02 -0.93476505219E+01  0.27485853625E+02  0.51100000000E-03 0. -1.
        -11    1    3    3    0    0 -0.33042900497E+00  0.17671118103E+02 -0.31743428215E+01  0.17957005623E+02  0.51100000000E-03 0.  1.
         12    1    3    3    0    0 -0.11635970721E+02 -0.41090285516E+02  0.12736596335E+02  0.44564877029E+02  0.00000000000E+00 0. -1.
</event>
<event>
 7    1  0.2497665E-015  0.9000775E+02  0.7816164E-02  0.1186339E+00
        -11   -1    0    0    0    0  0.00000000000E+00  0.00000000000E+00  0.45593999997E+02  0.45594000000E+02  0.51100000000E-03 0. -1.
         11   -1    0    0    0    0 -0.00000000000E+00 -0.00000000000E+00 -0.45593999997E+02  0.45594000000E+02  0.51100000000E-03 0.  1.
    9900012    2    1    2    0    0  0.66500803903E+00  0.14328096629E+00  0.96447876386E+00  0.90007752393E+02  0.90000013925E+02 0.  0.
        -12    1    1    2    0    0 -0.66500803903E+00 -0.14328096629E+00 -0.96447876386E+00  0.11802476067E+01  0.00000000000E+00 0.  1.
         11    1    3    3    0    0 -0.61453797587E+01 -0.30460967859E+02  0.16383446438E+02  0.35129098661E+02  0.51100000000E-03 0. -1.
        -11    1    3    3    0    0 -0.78628020627E+01  0.13051178091E+01  0.10441093389E+02  0.13135578411E+02  0.51100000000E-03 0.  1.
        -12    1    3    3    0    0  0.14673189860E+02  0.29299131017E+02 -0.25860061063E+02  0.41743075321E+02  0.00000000000E+00 0.  1.
</event>
<event>
 7    1  0.2497665E-015  0.9000775E+02  0.7816164E-02  0.1186339E+00
        -11   -1    0    0    0    0  0.00000000000E+00  0.00000000000E+00  0.45593999997E+02  0.45594000000E+02  0.51100000000E-03 0. -1.
         11   -1    0    0    0    0 -0.00000000000E+00 -0.00000000000E+00 -0.45593999997E+02  0.45594000000E+02  0.51100000000E-03 0.  1.
    9900012    2    1    2    0    0 -0.29397949612E+00  0.11153445588E+01  0.25014828085E+00  0.90007749352E+02  0.90000010844E+02 0.  0.
        -12    1    1    2    0    0  0.29397949612E+00 -0.11153445588E+01 -0.25014828085E+00  0.11802506477E+01  0.00000000000E+00 0.  1.
         11    1    3    3    0    0  0.15551148588E+01  0.66885726641E+01  0.74276966415E+01  0.10115634640E+02  0.51100000000E-03 0. -1.
        -11    1    3    3    0    0 -0.36991474418E+00 -0.18579298930E+02  0.32870148721E+02  0.37759420849E+02  0.51100000000E-03 0.  1.
         12    1    3    3    0    0 -0.14791796108E+01  0.13006070824E+02 -0.40047697082E+02  0.42132693863E+02  0.00000000000E+00 0. -1.
</event>
<event>
 7    1  0.2497665E-015  0.9000775E+02  0.7816164E-02  0.1186339E+00
        -11   -1    0    0    0    0  0.00000000000E+00  0.00000000000E+00  0.45593999997E+02  0.45594000000E+02  0.51100000000E-03 0. -1.
         11   -1    0    0    0    0 -0.00000000000E+00 -0.00000000000E+00 -0.45593999997E+02  0.45594000000E+02  0.51100000000E-03 0.  1.
    9900012    2    1    2    0    0 -0.56073443718E+00 -0.10335116564E+01  0.10204483369E+00  0.90007753161E+02  0.90000014703E+02 0.  0.
        -12    1    1    2    0    0  0.56073443718E+00  0.10335116564E+01 -0.10204483369E+00  0.11802468391E+01  0.00000000000E+00 0.  1.
         11    1    3    3    0    0  0.57188705518E+01 -0.21536742602E+01 -0.70539690196E+01  0.93328598188E+01  0.51100000000E-03 0. -1.
        -11    1    3    3    0    0 -0.23544273259E+02 -0.29824663266E+02  0.20054226170E+02  0.42965280515E+02  0.51100000000E-03 0.  1.
         12    1    3    3    0    0  0.17264668270E+02  0.30944825870E+02 -0.12898212317E+02  0.37709612827E+02  0.00000000000E+00 0. -1.
</event>
<event>
 7    1  0.2497665E-015  0.9000772E+02  0.7816164E-02  0.1186339E+00
        -11   -1    0    0    0    0  0.00000000000E+00  0.00000000000E+00  0.45593999997E+02  0.45594000000E+02  0.51100000000E-03 0. -1.
         11   -1    0    0    0    0 -0.00000000000E+00 -0.00000000000E+00 -0.45593999997E+02  0.45594000000E+02  0.51100000000E-03 0.  1.
    9900012    2    1    2    0    0 -0.54842396269E+00  0.80630586198E+00  0.66495120737E+00  0.90007721180E+02  0.89999982299E+02 0.  0.
        -12    1    1    2    0    0  0.54842396269E+00 -0.80630586198E+00 -0.66495120737E+00  0.11802788205E+01  0.00000000000E+00 0.  1.
         11    1    3    3    0    0 -0.13209076026E+01  0.70309617435E+01 -0.67744163960E+01  0.98525092084E+01  0.51100000000E-03 0. -1.
        -11    1    3    3    0    0 -0.27706354974E+02  0.54772605086E+00 -0.24386558331E+02  0.36914039839E+02  0.51100000000E-03 0.  1.
         12    1    3    3    0    0  0.28478838614E+02 -0.67723819324E+01  0.31825925934E+02  0.43241172132E+02  0.00000000000E+00 0. -1.
</event>
<event>
 7    1  0.2497665E-015  0.9000777E+02  0.7816164E-02  0.1186339E+00
        -11   -1    0    0    0    0  0.00000000000E+00  0.00000000000E+00  0.45593999997E+02  0.45594000000E+02  0.51100000000E-03 0.  1.
         11   -1    0    0    0    0 -0.00000000000E+00 -0.00000000000E+00 -0.45593999997E+02  0.45594000000E+02  0.51100000000E-03 0. -1.
    9900012    2    1    2    0    0 -0.76952827956E+00  0.11749020288E+00 -0.88710673958E+00  0.90007772866E+02  0.90000034668E+02 0.  0.
        -12    1    1    2    0    0  0.76952827956E+00 -0.11749020288E+00  0.88710673958E+00  0.11802271342E+01  0.00000000000E+00 0.  1.
         11    1    3    3    0    0  0.73773817706E+01 -0.67508355503E+01  0.27094767121E+01  0.10360540851E+02  0.51100000000E-03 0. -1.
        -11    1    3    3    0    0 -0.62915059576E+01  0.22566432538E+02  0.32602886464E+02  0.40146919318E+02  0.51100000000E-03 0.  1.
         12    1    3    3    0    0 -0.18554040925E+01 -0.15698106785E+02 -0.36199469915E+02  0.39500312697E+02  0.00000000000E+00 0. -1.
</event>
<event>
 7    1  0.3693692E-015  0.9000776E+02  0.7816164E-02  0.1186339E+00
        -11   -1    0    0    0    0  0.00000000000E+00  0.00000000000E+00  0.45593999997E+02  0.45594000000E+02  0.51100000000E-03 0.  1.
         11   -1    0    0    0    0 -0.00000000000E+00 -0.00000000000E+00 -0.45593999997E+02  0.45594000000E+02  0.51100000000E-03 0. -1.
    9900012    2    1    2    0    0  0.40424448649E+00  0.96351638899E+00  0.54881627095E+00  0.90007755646E+02  0.90000017220E+02 0.  0.
        -12    1    1    2    0    0 -0.40424448649E+00 -0.96351638899E+00 -0.54881627095E+00  0.11802443544E+01  0.00000000000E+00 0.  1.
         11    1    3    3    0    0 -0.55413123615E+01  0.32376316885E+02  0.25670340737E+02  0.41688108994E+02  0.51100000000E-03 0. -1.
        -11    1    3    3    0    0  0.97926466157E+01 -0.22442225414E+01 -0.67818327637E+00  0.10069379096E+02  0.51100000000E-03 0.  1.
        -12    1    3    3    0    0 -0.38470897677E+01 -0.29168577954E+02 -0.24443341190E+02  0.38250267556E+02  0.00000000000E+00 0.  1.
</event>
<event>
 7    1  0.2497665E-015  0.9000827E+02  0.7816164E-02  0.1186338E+00
        -11   -1    0    0    0    0  0.00000000000E+00  0.00000000000E+00  0.45593999997E+02  0.45594000000E+02  0.51100000000E-03 0. -1.
         11   -1    0    0    0    0 -0.00000000000E+00 -0.00000000000E+00 -0.45593999997E+02  0.45594000000E+02  0.51100000000E-03 0.  1.
    9900012    2    1    2    0    0 -0.94978069167E+00 -0.58816936155E+00 -0.37912780741E+00  0.90008269330E+02  0.90000537683E+02 0.  0.
        -12    1    1    2    0    0  0.94978069167E+00  0.58816936155E+00  0.37912780741E+00  0.11797306703E+01  0.00000000000E+00 0.  1.
         11    1    3    3    0    0 -0.67538509715E+01 -0.10769555596E+01  0.11198089728E+02  0.13121415703E+02  0.51100000000E-03 0. -1.
        -11    1    3    3    0    0 -0.63745515312E+01 -0.36273254563E+02 -0.98404938890E+01  0.38121112577E+02  0.51100000000E-03 0.  1.
         12    1    3    3    0    0  0.12178621811E+02  0.36762040761E+02 -0.17367236465E+01  0.38765741050E+02  0.00000000000E+00 0. -1.
</event>
<event>
 7    1  0.2497665E-015  0.9000767E+02  0.7816164E-02  0.1186339E+00
        -11   -1    0    0    0    0  0.00000000000E+00  0.00000000000E+00  0.45593999997E+02  0.45594000000E+02  0.51100000000E-03 0.  1.
         11   -1    0    0    0    0 -0.00000000000E+00 -0.00000000000E+00 -0.45593999997E+02  0.45594000000E+02  0.51100000000E-03 0. -1.
    9900012    2    1    2    0    0 -0.63343208912E+00 -0.11746481386E-01 -0.99588957442E+00  0.90007673674E+02  0.89999934167E+02 0.  0.
        -12    1    1    2    0    0  0.63343208912E+00  0.11746481386E-01  0.99588957442E+00  0.11803263260E+01  0.00000000000E+00 0.  1.
         11    1    3    3    0    0  0.88166502104E+01  0.35904122728E-01  0.58056171497E+01  0.10556505141E+02  0.51100000000E-03 0. -1.
        -11    1    3    3    0    0 -0.51793140635E+00 -0.25032303485E+02  0.26774114128E+02  0.36657027407E+02  0.51100000000E-03 0.  1.
         12    1    3    3    0    0 -0.89321508931E+01  0.24984652881E+02 -0.33575620852E+02  0.42794141126E+02  0.00000000000E+00 0. -1.
</event>
<event>
 7    1  0.2497665E-015  0.9000773E+02  0.7816164E-02  0.1186339E+00
        -11   -1    0    0    0    0  0.00000000000E+00  0.00000000000E+00  0.45593999997E+02  0.45594000000E+02  0.51100000000E-03 0.  1.
         11   -1    0    0    0    0 -0.00000000000E+00 -0.00000000000E+00 -0.45593999997E+02  0.45594000000E+02  0.51100000000E-03 0. -1.
    9900012    2    1    2    0    0  0.43062811418E+00 -0.10248142251E+01  0.39668802529E+00  0.90007726236E+02  0.89999987422E+02 0.  0.
        -12    1    1    2    0    0 -0.43062811418E+00  0.10248142251E+01 -0.39668802529E+00  0.11802737640E+01  0.00000000000E+00 0.  1.
         11    1    3    3    0    0 -0.33582505819E+02 -0.14464453901E+02  0.35640659447E+01  0.36738368092E+02  0.51100000000E-03 0. -1.
        -11    1    3    3    0    0 -0.83500552260E+01  0.44017285754E+01  0.19905122029E+01  0.96468013259E+01  0.51100000000E-03 0.  1.
        -12    1    3    3    0    0  0.42363189159E+02  0.90379111006E+01 -0.51578901224E+01  0.43622556818E+02  0.00000000000E+00 0.  1.
</event>
<event>
 7    1  0.2497665E-015  0.9000773E+02  0.7816164E-02  0.1186339E+00
        -11   -1    0    0    0    0  0.00000000000E+00  0.00000000000E+00  0.45593999997E+02  0.45594000000E+02  0.51100000000E-03 0. -1.
         11   -1    0    0    0    0 -0.00000000000E+00 -0.00000000000E+00 -0.45593999997E+02  0.45594000000E+02  0.51100000000E-03 0.  1.
    9900012    2    1    2    0    0  0.83687082553E+00  0.47595334959E+00  0.68274558809E+00  0.90007734815E+02  0.89999996114E+02 0.  0.
        -12    1    1    2    0    0 -0.83687082553E+00 -0.47595334959E+00 -0.68274558809E+00  0.11802651853E+01  0.00000000000E+00 0.  1.
         11    1    3    3    0    0 -0.22332614336E+02 -0.96981431802E+01 -0.19895518984E+02  0.31442508172E+02  0.51100000000E-03 0. -1.
        -11    1    3    3    0    0  0.17365649630E+01 -0.15287605058E+02 -0.54412271534E+01  0.16319726698E+02  0.51100000000E-03 0.  1.
        -12    1    3    3    0    0  0.21432920198E+02  0.25461701588E+02  0.26019491725E+02  0.42245499945E+02  0.00000000000E+00 0.  1.
</event>
<event>
 7    1  0.2497665E-015  0.9000778E+02  0.7816164E-02  0.1186339E+00
        -11   -1    0    0    0    0  0.00000000000E+00  0.00000000000E+00  0.45593999997E+02  0.45594000000E+02  0.51100000000E-03 0. -1.
         11   -1    0    0    0    0 -0.00000000000E+00 -0.00000000000E+00 -0.45593999997E+02  0.45594000000E+02  0.51100000000E-03 0.  1.
    9900012    2    1    2    0    0  0.11609741989E+01  0.74852498177E-01  0.19864409840E+00  0.90007778214E+02  0.90000040086E+02 0.  0.
        -12    1    1    2    0    0 -0.11609741989E+01 -0.74852498177E-01 -0.19864409840E+00  0.11802217863E+01  0.00000000000E+00 0.  1.
         11    1    3    3    0    0  0.14455021732E+02 -0.38140890593E+02 -0.80422430903E+01  0.41573463443E+02  0.51100000000E-03 0. -1.
        -11    1    3    3    0    0  0.10149503864E+00 -0.99420002458E+00  0.69058656435E+01  0.69778016223E+01  0.51100000000E-03 0.  1.
        -12    1    3    3    0    0 -0.13395542571E+02  0.39209943116E+02  0.13350215452E+01  0.41456513148E+02  0.00000000000E+00 0.  1.
</event>
<event>
 7    1  0.2497665E-015  0.9000780E+02  0.7816164E-02  0.1186339E+00
        -11   -1    0    0    0    0  0.00000000000E+00  0.00000000000E+00  0.45593999997E+02  0.45594000000E+02  0.51100000000E-03 0.  1.
         11   -1    0    0    0    0 -0.00000000000E+00 -0.00000000000E+00 -0.45593999997E+02  0.45594000000E+02  0.51100000000E-03 0. -1.
    9900012    2    1    2    0    0 -0.10735509424E+01  0.54060636074E-01 -0.48726691269E+00  0.90007803736E+02  0.90000065945E+02 0.  0.
        -12    1    1    2    0    0  0.10735509424E+01 -0.54060636074E-01  0.48726691269E+00  0.11801962644E+01  0.00000000000E+00 0.  1.
         11    1    3    3    0    0  0.89587245555E+01  0.13990124289E+02 -0.50052928683E+01  0.17350368303E+02  0.51100000000E-03 0. -1.
        -11    1    3    3    0    0 -0.44762973917E+01  0.91597590863E+01 -0.29474126513E+02  0.31187538518E+02  0.51100000000E-03 0.  1.
        -12    1    3    3    0    0 -0.55559781062E+01 -0.23095822739E+02  0.33992152468E+02  0.41469896915E+02  0.00000000000E+00 0.  1.
</event>
<event>
 7    1  0.2497665E-015  0.9000767E+02  0.7816164E-02  0.1186339E+00
        -11   -1    0    0    0    0  0.00000000000E+00  0.00000000000E+00  0.45593999997E+02  0.45594000000E+02  0.51100000000E-03 0.  1.
         11   -1    0    0    0    0 -0.00000000000E+00 -0.00000000000E+00 -0.45593999997E+02  0.45594000000E+02  0.51100000000E-03 0. -1.
    9900012    2    1    2    0    0 -0.11627238945E+01 -0.11585143954E+00 -0.16683085281E+00  0.90007669138E+02  0.89999929570E+02 0.  0.
        -12    1    1    2    0    0  0.11627238945E+01  0.11585143954E+00  0.16683085281E+00  0.11803308622E+01  0.00000000000E+00 0.  1.
         11    1    3    3    0    0  0.34555994643E+02 -0.59279443205E+01 -0.10602323172E+02  0.36628766653E+02  0.51100000000E-03 0. -1.
        -11    1    3    3    0    0  0.75275475054E+01 -0.15879439528E+01  0.49843369162E+01  0.91667416348E+01  0.51100000000E-03 0.  1.
        -12    1    3    3    0    0 -0.43246266043E+02  0.74000368337E+01  0.54511554027E+01  0.44212160850E+02  0.00000000000E+00 0.  1.
</event>
<event>
 7    1  0.2497665E-015  0.9000760E+02  0.7816164E-02  0.1186339E+00
        -11   -1    0    0    0    0  0.00000000000E+00  0.00000000000E+00  0.45593999997E+02  0.45594000000E+02  0.51100000000E-03 0.  1.
         11   -1    0    0    0    0 -0.00000000000E+00 -0.00000000000E+00 -0.45593999997E+02  0.45594000000E+02  0.51100000000E-03 0. -1.
    9900012    2    1    2    0    0  0.73988735256E+00 -0.81394138554E+00 -0.42826125324E+00  0.90007601095E+02  0.89999860629E+02 0.  0.
        -12    1    1    2    0    0 -0.73988735256E+00  0.81394138554E+00  0.42826125324E+00  0.11803989049E+01  0.00000000000E+00 0.  1.
         11    1    3    3    0    0  0.20596770281E+02  0.30058138017E+02 -0.79837170901E+01  0.37302256579E+02  0.51100000000E-03 0. -1.
        -11    1    3    3    0    0  0.10566327062E+02 -0.40133231015E+01 -0.56957346922E+00  0.11317174740E+02  0.51100000000E-03 0.  1.
        -12    1    3    3    0    0 -0.30423209991E+02 -0.26858756301E+02  0.81250293061E+01  0.41388169776E+02  0.00000000000E+00 0.  1.
</event>
<event>
 7    1  0.2497665E-015  0.9000773E+02  0.7816164E-02  0.1186339E+00
        -11   -1    0    0    0    0  0.00000000000E+00  0.00000000000E+00  0.45593999997E+02  0.45594000000E+02  0.51100000000E-03 0.  1.
         11   -1    0    0    0    0 -0.00000000000E+00 -0.00000000000E+00 -0.45593999997E+02  0.45594000000E+02  0.51100000000E-03 0. -1.
    9900012    2    1    2    0    0  0.11079757375E+01  0.35122403192E+00 -0.20510454813E+00  0.90007730357E+02  0.89999991597E+02 0.  0.
        -12    1    1    2    0    0 -0.11079757375E+01 -0.35122403192E+00  0.20510454813E+00  0.11802696434E+01  0.00000000000E+00 0.  1.
         11    1    3    3    0    0  0.36805687542E+01  0.26185648213E+02 -0.29408805181E+02  0.39548863209E+02  0.51100000000E-03 0. -1.
        -11    1    3    3    0    0 -0.36114111848E+01  0.95106018550E+00 -0.54753097378E+01  0.66276559362E+01  0.51100000000E-03 0.  1.
        -12    1    3    3    0    0  0.10388181681E+01 -0.26785484366E+02  0.34679010371E+02  0.43831211211E+02  0.00000000000E+00 0.  1.
</event>
<event>
 7    1  0.2497665E-015  0.9000764E+02  0.7816164E-02  0.1186339E+00
        -11   -1    0    0    0    0  0.00000000000E+00  0.00000000000E+00  0.45593999997E+02  0.45594000000E+02  0.51100000000E-03 0. -1.
         11   -1    0    0    0    0 -0.00000000000E+00 -0.00000000000E+00 -0.45593999997E+02  0.45594000000E+02  0.51100000000E-03 0.  1.
    9900012    2    1    2    0    0 -0.95525988158E+00  0.64267538420E+00 -0.26017132272E+00  0.90007643186E+02  0.89999903276E+02 0.  0.
        -12    1    1    2    0    0  0.95525988158E+00 -0.64267538420E+00  0.26017132272E+00  0.11803568138E+01  0.00000000000E+00 0.  1.
         11    1    3    3    0    0 -0.21103426477E+02  0.23263451773E+02 -0.65094313666E+01  0.32076712650E+02  0.51100000000E-03 0. -1.
        -11    1    3    3    0    0 -0.13225651491E+02 -0.72877116293E+01 -0.96382227370E+01  0.17914350001E+02  0.51100000000E-03 0.  1.
        -12    1    3    3    0    0  0.33373818087E+02 -0.15333064759E+02  0.15887482781E+02  0.40016580535E+02  0.00000000000E+00 0.  1.
</event>
<event>
 7    1  0.2497665E-015  0.9000700E+02  0.7816164E-02  0.1186341E+00
        -11   -1    0    0    0    0  0.00000000000E+00  0.00000000000E+00  0.45593999997E+02  0.45594000000E+02  0.51100000000E-03 0. -1.
         11   -1    0    0    0    0 -0.00000000000E+00 -0.00000000000E+00 -0.45593999997E+02  0.45594000000E+02  0.51100000000E-03 0.  1.
    9900012    2    1    2    0    0  0.10457623158E+01  0.46115607266E-01  0.54681336406E+00  0.90007004519E+02  0.89999256176E+02 0.  0.
        -12    1    1    2    0    0 -0.10457623158E+01 -0.46115607266E-01 -0.54681336406E+00  0.11809954807E+01  0.00000000000E+00 0.  1.
         11    1    3    3    0    0  0.23676234923E+02  0.23544551534E+02  0.19960363609E+02  0.38901492551E+02  0.51100000000E-03 0. -1.
        -11    1    3    3    0    0  0.50520421133E+01  0.52903705709E+01 -0.35563228940E+01  0.81337926627E+01  0.51100000000E-03 0.  1.
        -12    1    3    3    0    0 -0.27682514720E+02 -0.28788806498E+02 -0.15857227351E+02  0.42971719305E+02  0.00000000000E+00 0.  1.
</event>
<event>
 7    1  0.2497665E-015  0.9000775E+02  0.7816164E-02  0.1186339E+00
        -11   -1    0    0    0    0  0.00000000000E+00  0.00000000000E+00  0.45593999997E+02  0.45594000000E+02  0.51100000000E-03 0.  1.
         11   -1    0    0    0    0 -0.00000000000E+00 -0.00000000000E+00 -0.45593999997E+02  0.45594000000E+02  0.51100000000E-03 0. -1.
    9900012    2    1    2    0    0 -0.90557297225E+00  0.64667305569E+00 -0.39337879915E+00  0.90007747769E+02  0.90000009240E+02 0.  0.
        -12    1    1    2    0    0  0.90557297225E+00 -0.64667305569E+00  0.39337879915E+00  0.11802522309E+01  0.00000000000E+00 0.  1.
         11    1    3    3    0    0  0.16561220019E+02  0.12730178356E+01  0.33935657986E+02  0.37782581518E+02  0.51100000000E-03 0. -1.
        -11    1    3    3    0    0  0.91955397665E+01 -0.26353366604E+01 -0.11822732334E+01  0.96385020190E+01  0.51100000000E-03 0.  1.
        -12    1    3    3    0    0 -0.26662332758E+02  0.20089918805E+01 -0.33146763552E+02  0.42586664232E+02  0.00000000000E+00 0.  1.
</event>
<event>
 7    1  0.2497665E-015  0.9000670E+02  0.7816164E-02  0.1186341E+00
        -11   -1    0    0    0    0  0.00000000000E+00  0.00000000000E+00  0.45593999997E+02  0.45594000000E+02  0.51100000000E-03 0.  1.
         11   -1    0    0    0    0 -0.00000000000E+00 -0.00000000000E+00 -0.45593999997E+02  0.45594000000E+02  0.51100000000E-03 0. -1.
    9900012    2    1    2    0    0 -0.98881718811E+00 -0.24596813467E+00 -0.59767327960E+00  0.90006698555E+02  0.89998946170E+02 0.  0.
        -12    1    1    2    0    0  0.98881718811E+00  0.24596813467E+00  0.59767327960E+00  0.11813014450E+01  0.00000000000E+00 0.  1.
         11    1    3    3    0    0 -0.50188773379E+01 -0.55967393960E+01  0.54802010973E+01  0.93029686621E+01  0.51100000000E-03 0. -1.
        -11    1    3    3    0    0 -0.36733104896E+02 -0.78027366010E+01 -0.47333634369E+01  0.37849814048E+02  0.51100000000E-03 0.  1.
         12    1    3    3    0    0  0.40763165046E+02  0.13153507862E+02 -0.13445109400E+01  0.42853915845E+02  0.00000000000E+00 0. -1.
</event>
<event>
 7    1  0.2497665E-015  0.9000771E+02  0.7816164E-02  0.1186339E+00
        -11   -1    0    0    0    0  0.00000000000E+00  0.00000000000E+00  0.45593999997E+02  0.45594000000E+02  0.51100000000E-03 0.  1.
         11   -1    0    0    0    0 -0.00000000000E+00 -0.00000000000E+00 -0.45593999997E+02  0.45594000000E+02  0.51100000000E-03 0. -1.
    9900012    2    1    2    0    0 -0.79302469853E+00  0.14887388955E+00 -0.86141672946E+00  0.90007707498E+02  0.89999968437E+02 0.  0.
        -12    1    1    2    0    0  0.79302469853E+00 -0.14887388955E+00  0.86141672946E+00  0.11802925016E+01  0.00000000000E+00 0.  1.
         11    1    3    3    0    0  0.24291584812E+02  0.17935927726E+02 -0.31771734303E+02  0.43831743029E+02  0.51100000000E-03 0. -1.
        -11    1    3    3    0    0 -0.17844341542E+01 -0.74547441215E+01  0.26285663164E+01  0.81035039525E+01  0.51100000000E-03 0.  1.
        -12    1    3    3    0    0 -0.23300175357E+02 -0.10332309715E+02  0.28281751257E+02  0.38072460517E+02  0.00000000000E+00 0.  1.
</event>
<event>
 7    1  0.2497665E-015  0.9000786E+02  0.7816164E-02  0.1186339E+00
        -11   -1    0    0    0    0  0.00000000000E+00  0.00000000000E+00  0.45593999997E+02  0.45594000000E+02  0.51100000000E-03 0.  1.
         11   -1    0    0    0    0 -0.00000000000E+00 -0.00000000000E+00 -0.45593999997E+02  0.45594000000E+02  0.51100000000E-03 0. -1.
    9900012    2    1    2    0    0  0.74315028757E-01 -0.11382070262E+01 -0.30282247853E+00  0.90007856190E+02  0.90000119092E+02 0.  0.
        -12    1    1    2    0    0 -0.74315028757E-01  0.11382070262E+01  0.30282247853E+00  0.11801438097E+01  0.00000000000E+00 0.  1.
         11    1    3    3    0    0  0.63216007894E+01 -0.42186638083E+01  0.31515834116E+01  0.82275293454E+01  0.51100000000E-03 0. -1.
        -11    1    3    3    0    0 -0.82953926321E+01 -0.26577245400E+02  0.27309457193E+02  0.38999614926E+02  0.51100000000E-03 0.  1.
         12    1    3    3    0    0  0.20481068714E+01  0.29657702182E+02 -0.30763863083E+02  0.42780711919E+02  0.00000000000E+00 0. -1.
</event>
<event>
 7    1  0.2497665E-015  0.9000783E+02  0.7816164E-02  0.1186339E+00
        -11   -1    0    0    0    0  0.00000000000E+00  0.00000000000E+00  0.45593999997E+02  0.45594000000E+02  0.51100000000E-03 0. -1.
         11   -1    0    0    0    0 -0.00000000000E+00 -0.00000000000E+00 -0.45593999997E+02  0.45594000000E+02  0.51100000000E-03 0.  1.
    9900012    2    1    2    0    0  0.71107941471E+00  0.88398080792E+00 -0.32519010242E+00  0.90007828569E+02  0.90000091107E+02 0.  0.
        -12    1    1    2    0    0 -0.71107941471E+00 -0.88398080792E+00  0.32519010242E+00  0.11801714306E+01  0.00000000000E+00 0.  1.
         11    1    3    3    0    0 -0.16433065345E+02 -0.32738650454E+02 -0.17704653715E+01  0.36674233708E+02  0.51100000000E-03 0. -1.
        -11    1    3    3    0    0 -0.98564837100E+01  0.92825051577E-01  0.28508076843E+01  0.10260896273E+02  0.51100000000E-03 0.  1.
        -12    1    3    3    0    0  0.27000628470E+02  0.33529806211E+02 -0.14055324153E+01  0.43072698588E+02  0.00000000000E+00 0.  1.
</event>
<event>
 7    1  0.2497665E-015  0.9000773E+02  0.7816164E-02  0.1186339E+00
        -11   -1    0    0    0    0  0.00000000000E+00  0.00000000000E+00  0.45593999997E+02  0.45594000000E+02  0.51100000000E-03 0. -1.
         11   -1    0    0    0    0 -0.00000000000E+00 -0.00000000000E+00 -0.45593999997E+02  0.45594000000E+02  0.51100000000E-03 0.  1.
    9900012    2    1    2    0    0 -0.78375391072E+00  0.29068813688E+00 -0.83322766301E+00  0.90007729639E+02  0.89999990871E+02 0.  0.
        -12    1    1    2    0    0  0.78375391072E+00 -0.29068813688E+00  0.83322766301E+00  0.11802703605E+01  0.00000000000E+00 0.  1.
         11    1    3    3    0    0 -0.10274255673E+02  0.22456229424E+02  0.27832859939E+02  0.37209013185E+02  0.51100000000E-03 0. -1.
        -11    1    3    3    0    0 -0.56943356017E+01  0.70231104608E+01  0.17797736384E+00  0.90432966717E+01  0.51100000000E-03 0.  1.
        -12    1    3    3    0    0  0.15184837364E+02 -0.29188651748E+02 -0.28844064965E+02  0.43755419783E+02  0.00000000000E+00 0.  1.
</event>
<event>
 7    1  0.2497665E-015  0.9000782E+02  0.7816164E-02  0.1186339E+00
        -11   -1    0    0    0    0  0.00000000000E+00  0.00000000000E+00  0.45593999997E+02  0.45594000000E+02  0.51100000000E-03 0.  1.
         11   -1    0    0    0    0 -0.00000000000E+00 -0.00000000000E+00 -0.45593999997E+02  0.45594000000E+02  0.51100000000E-03 0. -1.
    9900012    2    1    2    0    0  0.12758069758E+00 -0.18742466797E+00 -0.11581933227E+01  0.90007823482E+02  0.90000085952E+02 0.  0.
        -12    1    1    2    0    0 -0.12758069758E+00  0.18742466797E+00  0.11581933227E+01  0.11801765179E+01  0.00000000000E+00 0.  1.
         11    1    3    3    0    0 -0.41560305348E+01 -0.32441181451E+02 -0.76688326803E+01  0.33593360039E+02  0.51100000000E-03 0. -1.
        -11    1    3    3    0    0  0.13470991489E+02 -0.73739275443E+01  0.19743637393E+01  0.15483556813E+02  0.51100000000E-03 0.  1.
        -12    1    3    3    0    0 -0.91873802569E+01  0.39627684327E+02  0.45362756183E+01  0.40930906631E+02  0.00000000000E+00 0.  1.
</event>
<event>
 7    1  0.2497665E-015  0.9000775E+02  0.7816164E-02  0.1186339E+00
        -11   -1    0    0    0    0  0.00000000000E+00  0.00000000000E+00  0.45593999997E+02  0.45594000000E+02  0.51100000000E-03 0. -1.
         11   -1    0    0    0    0 -0.00000000000E+00 -0.00000000000E+00 -0.45593999997E+02  0.45594000000E+02  0.51100000000E-03 0.  1.
    9900012    2    1    2    0    0  0.72732172759E+00  0.65571359621E+00 -0.65881006082E+00  0.90007750911E+02  0.90000012423E+02 0.  0.
        -12    1    1    2    0    0 -0.72732172759E+00 -0.65571359621E+00  0.65881006082E+00  0.11802490889E+01  0.00000000000E+00 0.  1.
         11    1    3    3    0    0  0.69436173377E+01 -0.37176389553E+02  0.94391382267E+00  0.37831055173E+02  0.51100000000E-03 0. -1.
        -11    1    3    3    0    0  0.91882720549E+01  0.44454997240E+00  0.60662785031E+01  0.11019151654E+02  0.51100000000E-03 0.  1.
        -12    1    3    3    0    0 -0.15404567665E+02  0.37387553177E+02 -0.76690023866E+01  0.41157544085E+02  0.00000000000E+00 0.  1.
</event>
<event>
 7    1  0.2497665E-015  0.9000754E+02  0.7816164E-02  0.1186339E+00
        -11   -1    0    0    0    0  0.00000000000E+00  0.00000000000E+00  0.45593999997E+02  0.45594000000E+02  0.51100000000E-03 0. -1.
         11   -1    0    0    0    0 -0.00000000000E+00 -0.00000000000E+00 -0.45593999997E+02  0.45594000000E+02  0.51100000000E-03 0.  1.
    9900012    2    1    2    0    0  0.92275756686E+00  0.36956153279E+00  0.63673298274E+00  0.90007539859E+02  0.89999798585E+02 0.  0.
        -12    1    1    2    0    0 -0.92275756686E+00 -0.36956153279E+00 -0.63673298274E+00  0.11804601412E+01  0.00000000000E+00 0.  1.
         11    1    3    3    0    0 -0.35309746442E+00 -0.10002275610E+02 -0.12825156901E+01  0.10090343996E+02  0.51100000000E-03 0. -1.
        -11    1    3    3    0    0 -0.30337472948E+02  0.21442161942E+02  0.19640811495E+02  0.42022494572E+02  0.51100000000E-03 0.  1.
         12    1    3    3    0    0  0.31613327979E+02 -0.11070324799E+02 -0.17721562822E+02  0.37894701291E+02  0.00000000000E+00 0. -1.
</event>
<event>
 7    1  0.2497665E-015  0.9000773E+02  0.7816164E-02  0.1186339E+00
        -11   -1    0    0    0    0  0.00000000000E+00  0.00000000000E+00  0.45593999997E+02  0.45594000000E+02  0.51100000000E-03 0. -1.
         11   -1    0    0    0    0 -0.00000000000E+00 -0.00000000000E+00 -0.45593999997E+02  0.45594000000E+02  0.51100000000E-03 0.  1.
    9900012    2    1    2    0    0 -0.59190381805E+00 -0.96139809009E+00 -0.34408360023E+00  0.90007733106E+02  0.89999994383E+02 0.  0.
        -12    1    1    2    0    0  0.59190381805E+00  0.96139809009E+00  0.34408360023E+00  0.11802668941E+01  0.00000000000E+00 0.  1.
         11    1    3    3    0    0 -0.76100924624E-02  0.42811792121E+01 -0.83786954910E+01  0.94090962240E+01  0.51100000000E-03 0. -1.
        -11    1    3    3    0    0 -0.24858407534E+02 -0.23805693901E+02 -0.19419170712E+02  0.39519054627E+02  0.51100000000E-03 0.  1.
         12    1    3    3    0    0  0.24274113808E+02  0.18563116599E+02  0.27453782603E+02  0.41079582255E+02  0.00000000000E+00 0. -1.
</event>
<event>
 7    1  0.2497665E-015  0.9000776E+02  0.7816164E-02  0.1186339E+00
        -11   -1    0    0    0    0  0.00000000000E+00  0.00000000000E+00  0.45593999997E+02  0.45594000000E+02  0.51100000000E-03 0.  1.
         11   -1    0    0    0    0 -0.00000000000E+00 -0.00000000000E+00 -0.45593999997E+02  0.45594000000E+02  0.51100000000E-03 0. -1.
    9900012    2    1    2    0    0 -0.29664137924E+00 -0.27262386560E+00 -0.11093424098E+01  0.90007762540E+02  0.90000024205E+02 0.  0.
        -12    1    1    2    0    0  0.29664137924E+00  0.27262386560E+00  0.11093424098E+01  0.11802374600E+01  0.00000000000E+00 0.  1.
         11    1    3    3    0    0 -0.41364362381E+02  0.71629163774E+01 -0.71689375622E+01  0.42587692027E+02  0.51100000000E-03 0. -1.
        -11    1    3    3    0    0  0.66605891855E+01  0.68557429026E+01 -0.57960159217E+00  0.95760428838E+01  0.51100000000E-03 0.  1.
        -12    1    3    3    0    0  0.34407131816E+02 -0.14291283146E+02  0.66391967445E+01  0.37844027629E+02  0.00000000000E+00 0.  1.
</event>
<event>
 7    1  0.2497665E-015  0.9000768E+02  0.7816164E-02  0.1186339E+00
        -11   -1    0    0    0    0  0.00000000000E+00  0.00000000000E+00  0.45593999997E+02  0.45594000000E+02  0.51100000000E-03 0. -1.
         11   -1    0    0    0    0 -0.00000000000E+00 -0.00000000000E+00 -0.45593999997E+02  0.45594000000E+02  0.51100000000E-03 0.  1.
    9900012    2    1    2    0    0 -0.99390566252E+00  0.45844599699E+00 -0.44174705266E+00  0.90007677308E+02  0.89999937849E+02 0.  0.
        -12    1    1    2    0    0  0.99390566252E+00 -0.45844599699E+00  0.44174705266E+00  0.11803226918E+01  0.00000000000E+00 0.  1.
         11    1    3    3    0    0 -0.33977233259E+01  0.43613049850E+02  0.23063684140E+01  0.43805958231E+02  0.51100000000E-03 0. -1.
        -11    1    3    3    0    0 -0.48500737663E+01 -0.62178764360E+01  0.23196230602E+01  0.82198451515E+01  0.51100000000E-03 0.  1.
        -12    1    3    3    0    0  0.72538914297E+01 -0.36936727417E+02 -0.50677385269E+01  0.37981873926E+02  0.00000000000E+00 0.  1.
</event>
<event>
 7    1  0.2497665E-015  0.9000775E+02  0.7816164E-02  0.1186339E+00
        -11   -1    0    0    0    0  0.00000000000E+00  0.00000000000E+00  0.45593999997E+02  0.45594000000E+02  0.51100000000E-03 0. -1.
         11   -1    0    0    0    0 -0.00000000000E+00 -0.00000000000E+00 -0.45593999997E+02  0.45594000000E+02  0.51100000000E-03 0.  1.
    9900012    2    1    2    0    0  0.87772777283E+00  0.26670228082E+00  0.74260179610E+00  0.90007748511E+02  0.90000009991E+02 0.  0.
        -12    1    1    2    0    0 -0.87772777283E+00 -0.26670228082E+00 -0.74260179610E+00  0.11802514890E+01  0.00000000000E+00 0.  1.
         11    1    3    3    0    0  0.31082128039E+02 -0.72278268395E+01  0.14168012206E+02  0.34915222101E+02  0.51100000000E-03 0. -1.
        -11    1    3    3    0    0  0.90968274356E+01 -0.68622444726E+01 -0.48359190248E+01  0.12378561373E+02  0.51100000000E-03 0.  1.
        -12    1    3    3    0    0 -0.39301227702E+02  0.14356773593E+02 -0.85894913851E+01  0.42713965036E+02  0.00000000000E+00 0.  1.
</event>
<event>
 7    1  0.2497665E-015  0.9000773E+02  0.7816164E-02  0.1186339E+00
        -11   -1    0    0    0    0  0.00000000000E+00  0.00000000000E+00  0.45593999997E+02  0.45594000000E+02  0.51100000000E-03 0. -1.
         11   -1    0    0    0    0 -0.00000000000E+00 -0.00000000000E+00 -0.45593999997E+02  0.45594000000E+02  0.51100000000E-03 0.  1.
    9900012    2    1    2    0    0  0.18502594235E+00 -0.44895148758E+00  0.10757520324E+01  0.90007731186E+02  0.89999992438E+02 0.  0.
        -12    1    1    2    0    0 -0.18502594235E+00  0.44895148758E+00 -0.10757520324E+01  0.11802688138E+01  0.00000000000E+00 0.  1.
         11    1    3    3    0    0  0.59411582104E+01  0.71790967783E+01 -0.34547260713E+01  0.99384065082E+01  0.51100000000E-03 0. -1.
        -11    1    3    3    0    0 -0.13797416065E+02  0.29165566813E+02  0.21488613730E+02  0.38765442057E+02  0.51100000000E-03 0.  1.
         12    1    3    3    0    0  0.80412837969E+01 -0.36793615078E+02 -0.16958135626E+02  0.41303882621E+02  0.00000000000E+00 0. -1.
</event>
<event>
 7    1  0.2497665E-015  0.9000774E+02  0.7816164E-02  0.1186339E+00
        -11   -1    0    0    0    0  0.00000000000E+00  0.00000000000E+00  0.45593999997E+02  0.45594000000E+02  0.51100000000E-03 0.  1.
         11   -1    0    0    0    0 -0.00000000000E+00 -0.00000000000E+00 -0.45593999997E+02  0.45594000000E+02  0.51100000000E-03 0. -1.
    9900012    2    1    2    0    0 -0.29943740287E-01 -0.10190211926E+01 -0.59473724544E+00  0.90007740194E+02  0.90000001565E+02 0.  0.
        -12    1    1    2    0    0  0.29943740287E-01  0.10190211926E+01  0.59473724544E+00  0.11802598060E+01  0.00000000000E+00 0.  1.
         11    1    3    3    0    0  0.25361291345E+02  0.29075295820E+02  0.53163665455E+01  0.38946523326E+02  0.51100000000E-03 0. -1.
        -11    1    3    3    0    0 -0.13378633003E+01  0.34014012589E+01 -0.89943639584E+01  0.97086555203E+01  0.51100000000E-03 0.  1.
        -12    1    3    3    0    0 -0.24053371785E+02 -0.33495718271E+02  0.30832601674E+01  0.41352561347E+02  0.00000000000E+00 0.  1.
</event>
<event>
 7    1  0.2497665E-015  0.9000813E+02  0.7816164E-02  0.1186338E+00
        -11   -1    0    0    0    0  0.00000000000E+00  0.00000000000E+00  0.45593999997E+02  0.45594000000E+02  0.51100000000E-03 0. -1.
         11   -1    0    0    0    0 -0.00000000000E+00 -0.00000000000E+00 -0.45593999997E+02  0.45594000000E+02  0.51100000000E-03 0.  1.
    9900012    2    1    2    0    0 -0.18530017684E+00  0.86616180038E+00 -0.77943687608E+00  0.90008129556E+02  0.90000396066E+02 0.  0.
        -12    1    1    2    0    0  0.18530017684E+00 -0.86616180038E+00  0.77943687608E+00  0.11798704436E+01  0.00000000000E+00 0.  1.
         11    1    3    3    0    0  0.54955881125E+01  0.21031615796E+01  0.41995981120E+01  0.72292047900E+01  0.51100000000E-03 0. -1.
        -11    1    3    3    0    0 -0.42882551148E+02 -0.41473751576E+01  0.68712059356E+01  0.43627140462E+02  0.51100000000E-03 0.  1.
         12    1    3    3    0    0  0.37201662858E+02  0.29103753784E+01 -0.11850240924E+02  0.39151784304E+02  0.00000000000E+00 0. -1.
</event>
<event>
 7    1  0.2497665E-015  0.9000770E+02  0.7816164E-02  0.1186339E+00
        -11   -1    0    0    0    0  0.00000000000E+00  0.00000000000E+00  0.45593999997E+02  0.45594000000E+02  0.51100000000E-03 0.  1.
         11   -1    0    0    0    0 -0.00000000000E+00 -0.00000000000E+00 -0.45593999997E+02  0.45594000000E+02  0.51100000000E-03 0. -1.
    9900012    2    1    2    0    0 -0.10448027926E+01  0.52845234465E+00 -0.14908568431E+00  0.90007702878E+02  0.89999963756E+02 0.  0.
        -12    1    1    2    0    0  0.10448027926E+01 -0.52845234465E+00  0.14908568431E+00  0.11802971224E+01  0.00000000000E+00 0.  1.
         11    1    3    3    0    0 -0.29512713946E+02 -0.49212694553E+01 -0.22759823426E+02  0.37592934710E+02  0.51100000000E-03 0. -1.
        -11    1    3    3    0    0 -0.64245473828E+01 -0.74362020905E+01  0.70540994091E+01  0.12096785909E+02  0.51100000000E-03 0.  1.
        -12    1    3    3    0    0  0.34892458536E+02  0.12885923890E+02  0.15556638332E+02  0.40317982258E+02  0.00000000000E+00 0.  1.
</event>
<event>
 7    1  0.2497665E-015  0.9000773E+02  0.7816164E-02  0.1186339E+00
        -11   -1    0    0    0    0  0.00000000000E+00  0.00000000000E+00  0.45593999997E+02  0.45594000000E+02  0.51100000000E-03 0.  1.
         11   -1    0    0    0    0 -0.00000000000E+00 -0.00000000000E+00 -0.45593999997E+02  0.45594000000E+02  0.51100000000E-03 0. -1.
    9900012    2    1    2    0    0  0.58028006520E+00  0.87709668111E+00 -0.53573713459E+00  0.90007729768E+02  0.89999991001E+02 0.  0.
        -12    1    1    2    0    0 -0.58028006520E+00 -0.87709668111E+00  0.53573713459E+00  0.11802702315E+01  0.00000000000E+00 0.  1.
         11    1    3    3    0    0  0.81085718120E+01  0.42488296648E+01 -0.27371775527E+00  0.91584066312E+01  0.51100000000E-03 0. -1.
        -11    1    3    3    0    0  0.16165067602E+02 -0.41721386028E+01  0.34758080759E+02  0.38559568585E+02  0.51100000000E-03 0.  1.
         12    1    3    3    0    0 -0.23693359349E+02  0.80040561910E+00 -0.35020100139E+02  0.42289754553E+02  0.00000000000E+00 0. -1.
</event>
<event>
 7    1  0.2497665E-015  0.9000769E+02  0.7816164E-02  0.1186339E+00
        -11   -1    0    0    0    0  0.00000000000E+00  0.00000000000E+00  0.45593999997E+02  0.45594000000E+02  0.51100000000E-03 0. -1.
         11   -1    0    0    0    0 -0.00000000000E+00 -0.00000000000E+00 -0.45593999997E+02  0.45594000000E+02  0.51100000000E-03 0.  1.
    9900012    2    1    2    0    0  0.48144332212E+00 -0.98692725424E+00  0.43281462707E+00  0.90007685813E+02  0.89999946466E+02 0.  0.
        -12    1    1    2    0    0 -0.48144332212E+00  0.98692725424E+00 -0.43281462707E+00  0.11803141866E+01  0.00000000000E+00 0.  1.
         11    1    3    3    0    0  0.23534669524E+01 -0.72496446990E+01  0.17348357437E+01  0.78170205498E+01  0.51100000000E-03 0. -1.
        -11    1    3    3    0    0 -0.20824451980E+01 -0.35186325056E+02 -0.15322197428E+02  0.38434148660E+02  0.51100000000E-03 0.  1.
         12    1    3    3    0    0  0.21042156774E+00  0.41449042501E+02  0.14020176312E+02  0.43756516603E+02  0.00000000000E+00 0. -1.
</event>
<event>
 7    1  0.2497665E-015  0.9000772E+02  0.7816164E-02  0.1186339E+00
        -11   -1    0    0    0    0  0.00000000000E+00  0.00000000000E+00  0.45593999997E+02  0.45594000000E+02  0.51100000000E-03 0.  1.
         11   -1    0    0    0    0 -0.00000000000E+00 -0.00000000000E+00 -0.45593999997E+02  0.45594000000E+02  0.51100000000E-03 0. -1.
    9900012    2    1    2    0    0 -0.16841400077E+00  0.76413185989E+00 -0.88362441413E+00  0.90007723388E+02  0.89999984537E+02 0.  0.
        -12    1    1    2    0    0  0.16841400077E+00 -0.76413185989E+00  0.88362441413E+00  0.11802766117E+01  0.00000000000E+00 0.  1.
         11    1    3    3    0    0 -0.50774728795E+01 -0.82111397362E+01  0.33271514355E+01  0.10211438858E+02  0.51100000000E-03 0. -1.
        -11    1    3    3    0    0  0.36439212255E+02 -0.10826491952E+02 -0.15255006341E+02  0.40960277544E+02  0.51100000000E-03 0.  1.
         12    1    3    3    0    0 -0.31530153376E+02  0.19801763548E+02  0.11044230491E+02  0.38836006987E+02  0.00000000000E+00 0. -1.
</event>
<event>
 7    1  0.2497665E-015  0.9000773E+02  0.7816164E-02  0.1186339E+00
        -11   -1    0    0    0    0  0.00000000000E+00  0.00000000000E+00  0.45593999997E+02  0.45594000000E+02  0.51100000000E-03 0.  1.
         11   -1    0    0    0    0 -0.00000000000E+00 -0.00000000000E+00 -0.45593999997E+02  0.45594000000E+02  0.51100000000E-03 0. -1.
    9900012    2    1    2    0    0 -0.17989136263E+00 -0.76709848378E+00 -0.87877425600E+00  0.90007726651E+02  0.89999987842E+02 0.  0.
        -12    1    1    2    0    0  0.17989136263E+00  0.76709848378E+00  0.87877425600E+00  0.11802733493E+01  0.00000000000E+00 0.  1.
         11    1    3    3    0    0  0.23156200636E+02 -0.18303879623E+02 -0.22645149642E+02  0.37202747744E+02  0.51100000000E-03 0. -1.
        -11    1    3    3    0    0  0.81199050440E+00  0.40345452513E+01 -0.99200900651E+01  0.10739882268E+02  0.51100000000E-03 0.  1.
        -12    1    3    3    0    0 -0.24148082503E+02  0.13502235888E+02  0.31686465451E+02  0.42065096639E+02  0.00000000000E+00 0.  1.
</event>
<event>
 7    1  0.2497665E-015  0.9000770E+02  0.7816164E-02  0.1186339E+00
        -11   -1    0    0    0    0  0.00000000000E+00  0.00000000000E+00  0.45593999997E+02  0.45594000000E+02  0.51100000000E-03 0. -1.
         11   -1    0    0    0    0 -0.00000000000E+00 -0.00000000000E+00 -0.45593999997E+02  0.45594000000E+02  0.51100000000E-03 0.  1.
    9900012    2    1    2    0    0  0.50639403285E+00 -0.89639465244E+00  0.57718611142E+00  0.90007702539E+02  0.89999963412E+02 0.  0.
        -12    1    1    2    0    0 -0.50639403285E+00  0.89639465244E+00 -0.57718611142E+00  0.11802974611E+01  0.00000000000E+00 0.  1.
         11    1    3    3    0    0  0.54609143226E+01 -0.63808190766E+01 -0.48874497842E+01  0.97171808145E+01  0.51100000000E-03 0. -1.
        -11    1    3    3    0    0 -0.21226892610E+02 -0.24180758088E+02 -0.20051666261E+02  0.37912522360E+02  0.51100000000E-03 0.  1.
         12    1    3    3    0    0  0.16272372321E+02  0.29665182512E+02  0.25516302157E+02  0.42377999365E+02  0.00000000000E+00 0. -1.
</event>
<event>
 7    1  0.2497665E-015  0.9000772E+02  0.7816164E-02  0.1186339E+00
        -11   -1    0    0    0    0  0.00000000000E+00  0.00000000000E+00  0.45593999997E+02  0.45594000000E+02  0.51100000000E-03 0. -1.
         11   -1    0    0    0    0 -0.00000000000E+00 -0.00000000000E+00 -0.45593999997E+02  0.45594000000E+02  0.51100000000E-03 0.  1.
    9900012    2    1    2    0    0  0.33000557834E+00  0.11261151940E+01  0.12662171022E+00  0.90007715217E+02  0.89999976258E+02 0.  0.
        -12    1    1    2    0    0 -0.33000557834E+00 -0.11261151940E+01 -0.12662171022E+00  0.11802847832E+01  0.00000000000E+00 0.  1.
         11    1    3    3    0    0  0.57533706746E+01  0.98756619880E+01 -0.24847055239E+01  0.11696312907E+02  0.51100000000E-03 0. -1.
        -11    1    3    3    0    0  0.68864647434E+01  0.14872963699E+02 -0.31214784375E+02  0.35256080464E+02  0.51100000000E-03 0.  1.
         12    1    3    3    0    0 -0.12309829840E+02 -0.23622510493E+02  0.33826111609E+02  0.43055321846E+02  0.00000000000E+00 0. -1.
</event>
<event>
 7    1  0.2497665E-015  0.9000771E+02  0.7816164E-02  0.1186339E+00
        -11   -1    0    0    0    0  0.00000000000E+00  0.00000000000E+00  0.45593999997E+02  0.45594000000E+02  0.51100000000E-03 0.  1.
         11   -1    0    0    0    0 -0.00000000000E+00 -0.00000000000E+00 -0.45593999997E+02  0.45594000000E+02  0.51100000000E-03 0. -1.
    9900012    2    1    2    0    0 -0.67931144892E+00 -0.40081910123E+00  0.87804875210E+00  0.90007707830E+02  0.89999968773E+02 0.  0.
        -12    1    1    2    0    0  0.67931144892E+00  0.40081910123E+00 -0.87804875210E+00  0.11802921704E+01  0.00000000000E+00 0.  1.
         11    1    3    3    0    0 -0.25115211049E+02  0.10385928736E+02 -0.31180111316E+02  0.41362309941E+02  0.51100000000E-03 0. -1.
        -11    1    3    3    0    0 -0.34967277345E+01  0.28066588039E+01  0.86696888631E+01  0.97605298901E+01  0.51100000000E-03 0.  1.
        -12    1    3    3    0    0  0.27932627334E+02 -0.13593406641E+02  0.23388471205E+02  0.38884867998E+02  0.00000000000E+00 0.  1.
</event>
<event>
 7    1  0.2497665E-015  0.9000739E+02  0.7816164E-02  0.1186340E+00
        -11   -1    0    0    0    0  0.00000000000E+00  0.00000000000E+00  0.45593999997E+02  0.45594000000E+02  0.51100000000E-03 0.  1.
         11   -1    0    0    0    0 -0.00000000000E+00 -0.00000000000E+00 -0.45593999997E+02  0.45594000000E+02  0.51100000000E-03 0. -1.
    9900012    2    1    2    0    0  0.85581506192E+00 -0.44383023873E+00 -0.68148775073E+00  0.90007394115E+02  0.89999650917E+02 0.  0.
        -12    1    1    2    0    0 -0.85581506192E+00  0.44383023873E+00  0.68148775073E+00  0.11806058849E+01  0.00000000000E+00 0.  1.
         11    1    3    3    0    0  0.24103275013E+02 -0.30119350482E+02  0.18044731119E+02  0.42588208007E+02  0.51100000000E-03 0. -1.
        -11    1    3    3    0    0 -0.51935350468E+01 -0.18897611466E+01 -0.75893222133E+01  0.93883872626E+01  0.51100000000E-03 0.  1.
        -12    1    3    3    0    0 -0.18053924905E+02  0.31565281390E+02 -0.11136896656E+02  0.38030798846E+02  0.00000000000E+00 0.  1.
</event>
<event>
 7    1  0.2497665E-015  0.9000773E+02  0.7816164E-02  0.1186339E+00
        -11   -1    0    0    0    0  0.00000000000E+00  0.00000000000E+00  0.45593999997E+02  0.45594000000E+02  0.51100000000E-03 0. -1.
         11   -1    0    0    0    0 -0.00000000000E+00 -0.00000000000E+00 -0.45593999997E+02  0.45594000000E+02  0.51100000000E-03 0.  1.
    9900012    2    1    2    0    0  0.71084443197E+00  0.93731677636E+00  0.95823605966E-01  0.90007726850E+02  0.89999988044E+02 0.  0.
        -12    1    1    2    0    0 -0.71084443197E+00 -0.93731677636E+00 -0.95823605966E-01  0.11802731502E+01  0.00000000000E+00 0.  1.
         11    1    3    3    0    0 -0.92015906719E-01 -0.19155917823E+01  0.14340161008E+02  0.14467832484E+02  0.51100000000E-03 0. -1.
        -11    1    3    3    0    0 -0.17756087013E+02 -0.17894983976E+02  0.19445256850E+02  0.31837510766E+02  0.51100000000E-03 0.  1.
         12    1    3    3    0    0  0.18558947352E+02  0.20747892535E+02 -0.33689594252E+02  0.43702383600E+02  0.00000000000E+00 0. -1.
</event>
<event>
 7    1  0.2497665E-015  0.9000773E+02  0.7816164E-02  0.1186339E+00
        -11   -1    0    0    0    0  0.00000000000E+00  0.00000000000E+00  0.45593999997E+02  0.45594000000E+02  0.51100000000E-03 0.  1.
         11   -1    0    0    0    0 -0.00000000000E+00 -0.00000000000E+00 -0.45593999997E+02  0.45594000000E+02  0.51100000000E-03 0. -1.
    9900012    2    1    2    0    0  0.77583215073E+00  0.82510117633E+00  0.33217332995E+00  0.90007726049E+02  0.89999987233E+02 0.  0.
        -12    1    1    2    0    0 -0.77583215073E+00 -0.82510117633E+00 -0.33217332995E+00  0.11802739506E+01  0.00000000000E+00 0.  1.
         11    1    3    3    0    0  0.34361565172E+01  0.88905208428E+01 -0.18724225200E+01  0.97136243916E+01  0.51100000000E-03 0. -1.
        -11    1    3    3    0    0  0.32418634610E+02  0.17263999539E+02  0.42737876483E+01  0.36976733376E+02  0.51100000000E-03 0.  1.
         12    1    3    3    0    0 -0.35078958976E+02 -0.25329419206E+02 -0.20691917984E+01  0.43317368282E+02  0.00000000000E+00 0. -1.
</event>
<event>
 7    1  0.2497665E-015  0.9000738E+02  0.7816164E-02  0.1186340E+00
        -11   -1    0    0    0    0  0.00000000000E+00  0.00000000000E+00  0.45593999997E+02  0.45594000000E+02  0.51100000000E-03 0.  1.
         11   -1    0    0    0    0 -0.00000000000E+00 -0.00000000000E+00 -0.45593999997E+02  0.45594000000E+02  0.51100000000E-03 0. -1.
    9900012    2    1    2    0    0 -0.88975506423E+00 -0.51507787134E+00  0.58042078021E+00  0.90007382547E+02  0.89999639196E+02 0.  0.
        -12    1    1    2    0    0  0.88975506423E+00  0.51507787134E+00 -0.58042078021E+00  0.11806174528E+01  0.00000000000E+00 0.  1.
         11    1    3    3    0    0 -0.31983143187E+01  0.96524745476E+00  0.92810092076E+01  0.98639773572E+01  0.51100000000E-03 0. -1.
        -11    1    3    3    0    0  0.49279087952E+01 -0.40113068900E+02  0.18710181968E+00  0.40415066362E+02  0.51100000000E-03 0.  1.
         12    1    3    3    0    0 -0.26193495407E+01  0.38632743574E+02 -0.88876902471E+01  0.39728338828E+02  0.00000000000E+00 0. -1.
</event>
<event>
 7    1  0.2497665E-015  0.9000767E+02  0.7816164E-02  0.1186339E+00
        -11   -1    0    0    0    0  0.00000000000E+00  0.00000000000E+00  0.45593999997E+02  0.45594000000E+02  0.51100000000E-03 0.  1.
         11   -1    0    0    0    0 -0.00000000000E+00 -0.00000000000E+00 -0.45593999997E+02  0.45594000000E+02  0.51100000000E-03 0. -1.
    9900012    2    1    2    0    0 -0.94308143924E+00 -0.64699002183E+00  0.29187605787E+00  0.90007665165E+02  0.89999925545E+02 0.  0.
        -12    1    1    2    0    0  0.94308143924E+00  0.64699002183E+00 -0.29187605787E+00  0.11803348349E+01  0.00000000000E+00 0.  1.
         11    1    3    3    0    0  0.16796800880E+02  0.10098046669E+02 -0.32268141353E+02  0.37753622515E+02  0.51100000000E-03 0. -1.
        -11    1    3    3    0    0 -0.57111778528E+01  0.86253305805E+01 -0.23018011486E+01  0.10597743575E+02  0.51100000000E-03 0.  1.
        -12    1    3    3    0    0 -0.12028704467E+02 -0.19370367271E+02  0.34861818560E+02  0.41656299075E+02  0.00000000000E+00 0.  1.
</event>
<event>
 7    1  0.2497665E-015  0.9000779E+02  0.7816164E-02  0.1186339E+00
        -11   -1    0    0    0    0  0.00000000000E+00  0.00000000000E+00  0.45593999997E+02  0.45594000000E+02  0.51100000000E-03 0. -1.
         11   -1    0    0    0    0 -0.00000000000E+00 -0.00000000000E+00 -0.45593999997E+02  0.45594000000E+02  0.51100000000E-03 0.  1.
    9900012    2    1    2    0    0 -0.49565394712E+00  0.81274040593E+00  0.69761419596E+00  0.90007794353E+02  0.90000056438E+02 0.  0.
        -12    1    1    2    0    0  0.49565394712E+00 -0.81274040593E+00 -0.69761419596E+00  0.11802056470E+01  0.00000000000E+00 0.  1.
         11    1    3    3    0    0  0.51984256973E+01 -0.33731226211E+02 -0.12355616646E+02  0.36297114409E+02  0.51100000000E-03 0. -1.
        -11    1    3    3    0    0 -0.20381116615E+01 -0.30096760282E+01 -0.92097329364E+01  0.99010721622E+01  0.51100000000E-03 0.  1.
        -12    1    3    3    0    0 -0.36559679829E+01  0.37553642645E+02  0.22262963779E+02  0.43809607782E+02  0.00000000000E+00 0.  1.
</event>
<event>
 7    1  0.2497665E-015  0.9000777E+02  0.7816164E-02  0.1186339E+00
        -11   -1    0    0    0    0  0.00000000000E+00  0.00000000000E+00  0.45593999997E+02  0.45594000000E+02  0.51100000000E-03 0.  1.
         11   -1    0    0    0    0 -0.00000000000E+00 -0.00000000000E+00 -0.45593999997E+02  0.45594000000E+02  0.51100000000E-03 0. -1.
    9900012    2    1    2    0    0  0.10689964626E+01  0.41069124960E-01 -0.49850829199E+00  0.90007766706E+02  0.90000028427E+02 0.  0.
        -12    1    1    2    0    0 -0.10689964626E+01 -0.41069124960E-01  0.49850829199E+00  0.11802332936E+01  0.00000000000E+00 0.  1.
         11    1    3    3    0    0  0.85756601418E+01 -0.10050966022E+01  0.55100075636E+01  0.10242672974E+02  0.51100000000E-03 0. -1.
        -11    1    3    3    0    0 -0.37631340525E+02 -0.19654347137E+02 -0.78190742962E+01  0.43168843791E+02  0.51100000000E-03 0.  1.
         12    1    3    3    0    0  0.30124676846E+02  0.20700512864E+02  0.18105584407E+01  0.36596249941E+02  0.00000000000E+00 0. -1.
</event>
<event>
 7    1  0.2497665E-015  0.9000773E+02  0.7816164E-02  0.1186339E+00
        -11   -1    0    0    0    0  0.00000000000E+00  0.00000000000E+00  0.45593999997E+02  0.45594000000E+02  0.51100000000E-03 0. -1.
         11   -1    0    0    0    0 -0.00000000000E+00 -0.00000000000E+00 -0.45593999997E+02  0.45594000000E+02  0.51100000000E-03 0.  1.
    9900012    2    1    2    0    0  0.10489151250E+01  0.54027918869E+00  0.30269805845E-01  0.90007728505E+02  0.89999989721E+02 0.  0.
        -12    1    1    2    0    0 -0.10489151250E+01 -0.54027918869E+00 -0.30269805845E-01  0.11802714952E+01  0.00000000000E+00 0.  1.
         11    1    3    3    0    0  0.57395290165E+01  0.75301549604E+01 -0.12318076489E+01  0.95479200564E+01  0.51100000000E-03 0. -1.
        -11    1    3    3    0    0  0.56710427826E+01 -0.15623699199E+01 -0.38533953853E+02  0.38980345378E+02  0.51100000000E-03 0.  1.
         12    1    3    3    0    0 -0.10361656674E+02 -0.54275058518E+01  0.39796031307E+02  0.41479463070E+02  0.00000000000E+00 0. -1.
</event>
<event>
 7    1  0.2497665E-015  0.9000775E+02  0.7816164E-02  0.1186339E+00
        -11   -1    0    0    0    0  0.00000000000E+00  0.00000000000E+00  0.45593999997E+02  0.45594000000E+02  0.51100000000E-03 0.  1.
         11   -1    0    0    0    0 -0.00000000000E+00 -0.00000000000E+00 -0.45593999997E+02  0.45594000000E+02  0.51100000000E-03 0. -1.
    9900012    2    1    2    0    0 -0.10295539530E+01  0.29907538740E+00 -0.49353236637E+00  0.90007745101E+02  0.90000006537E+02 0.  0.
        -12    1    1    2    0    0  0.10295539530E+01 -0.29907538740E+00  0.49353236637E+00  0.11802548988E+01  0.00000000000E+00 0.  1.
         11    1    3    3    0    0  0.20537289048E+02 -0.17389322677E+02  0.31314087478E+02  0.41288507595E+02  0.51100000000E-03 0. -1.
        -11    1    3    3    0    0  0.38596186259E+00 -0.43688711348E+01 -0.93957578240E+01  0.10369005107E+02  0.51100000000E-03 0.  1.
        -12    1    3    3    0    0 -0.21952804864E+02  0.22057269199E+02 -0.22411862020E+02  0.38350232400E+02  0.00000000000E+00 0.  1.
</event>
<event>
 7    1  0.2497665E-015  0.9000776E+02  0.7816164E-02  0.1186339E+00
        -11   -1    0    0    0    0  0.00000000000E+00  0.00000000000E+00  0.45593999997E+02  0.45594000000E+02  0.51100000000E-03 0.  1.
         11   -1    0    0    0    0 -0.00000000000E+00 -0.00000000000E+00 -0.45593999997E+02  0.45594000000E+02  0.51100000000E-03 0. -1.
    9900012    2    1    2    0    0  0.12029623091E+00 -0.11541735858E+01 -0.21537654555E+00  0.90007756421E+02  0.90000018006E+02 0.  0.
        -12    1    1    2    0    0 -0.12029623091E+00  0.11541735858E+01  0.21537654555E+00  0.11802435790E+01  0.00000000000E+00 0.  1.
         11    1    3    3    0    0 -0.13274503647E+02  0.28425406485E+01  0.97589148345E+01  0.16719117902E+02  0.51100000000E-03 0. -1.
        -11    1    3    3    0    0 -0.16358553113E+02 -0.13189225982E+02  0.20757520063E+02  0.29536969739E+02  0.51100000000E-03 0.  1.
        -12    1    3    3    0    0  0.29753352991E+02  0.91925117477E+01 -0.30731811443E+02  0.43751668780E+02  0.00000000000E+00 0.  1.
</event>
<event>
 7    1  0.2497665E-015  0.9000769E+02  0.7816164E-02  0.1186339E+00
        -11   -1    0    0    0    0  0.00000000000E+00  0.00000000000E+00  0.45593999997E+02  0.45594000000E+02  0.51100000000E-03 0.  1.
         11   -1    0    0    0    0 -0.00000000000E+00 -0.00000000000E+00 -0.45593999997E+02  0.45594000000E+02  0.51100000000E-03 0. -1.
    9900012    2    1    2    0    0  0.83578278384E+00  0.23572765843E+00 -0.79939320300E+00  0.90007690768E+02  0.89999951486E+02 0.  0.
        -12    1    1    2    0    0 -0.83578278384E+00 -0.23572765843E+00  0.79939320300E+00  0.11803092322E+01  0.00000000000E+00 0.  1.
         11    1    3    3    0    0  0.29315376116E+01 -0.27279057112E+01 -0.50092421888E+01  0.64131029857E+01  0.51100000000E-03 0. -1.
        -11    1    3    3    0    0 -0.97777995972E+01 -0.32838742211E+02 -0.20022852683E+02  0.39685047370E+02  0.51100000000E-03 0.  1.
         12    1    3    3    0    0  0.76820447694E+01  0.35802375580E+02  0.24232701669E+02  0.43909540412E+02  0.00000000000E+00 0. -1.
</event>
<event>
 7    1  0.2497665E-015  0.9000781E+02  0.7816164E-02  0.1186339E+00
        -11   -1    0    0    0    0  0.00000000000E+00  0.00000000000E+00  0.45593999997E+02  0.45594000000E+02  0.51100000000E-03 0.  1.
         11   -1    0    0    0    0 -0.00000000000E+00 -0.00000000000E+00 -0.45593999997E+02  0.45594000000E+02  0.51100000000E-03 0. -1.
    9900012    2    1    2    0    0 -0.61528618870E+00  0.89579101655E+00 -0.46024067999E+00  0.90007813522E+02  0.90000075860E+02 0.  0.
        -12    1    1    2    0    0  0.61528618870E+00 -0.89579101655E+00  0.46024067999E+00  0.11801864780E+01  0.00000000000E+00 0.  1.
         11    1    3    3    0    0 -0.44492358455E+01  0.18302875588E+01  0.95492936587E+01  0.10692738742E+02  0.51100000000E-03 0. -1.
        -11    1    3    3    0    0 -0.12512087695E+01 -0.31274347981E+02  0.19343976382E+02  0.36794561929E+02  0.51100000000E-03 0.  1.
         12    1    3    3    0    0  0.50851584263E+01  0.30339851438E+02 -0.29353510721E+02  0.42520512852E+02  0.00000000000E+00 0. -1.
</event>
<event>
 7    1  0.2497665E-015  0.9000771E+02  0.7816164E-02  0.1186339E+00
        -11   -1    0    0    0    0  0.00000000000E+00  0.00000000000E+00  0.45593999997E+02  0.45594000000E+02  0.51100000000E-03 0.  1.
         11   -1    0    0    0    0 -0.00000000000E+00 -0.00000000000E+00 -0.45593999997E+02  0.45594000000E+02  0.51100000000E-03 0. -1.
    9900012    2    1    2    0    0 -0.25580808483E-01 -0.11372149264E+01  0.31490154698E+00  0.90007713954E+02  0.89999974978E+02 0.  0.
        -12    1    1    2    0    0  0.25580808483E-01  0.11372149264E+01 -0.31490154698E+00  0.11802860462E+01  0.00000000000E+00 0.  1.
         11    1    3    3    0    0 -0.37115235232E+01 -0.19481082104E+01 -0.89293961325E+01  0.98643118369E+01  0.51100000000E-03 0. -1.
        -11    1    3    3    0    0  0.11765926896E+02 -0.36588498266E+02  0.15371410071E+02  0.41393664841E+02  0.51100000000E-03 0.  1.
         12    1    3    3    0    0 -0.80799841814E+01  0.37399391550E+02 -0.61271123916E+01  0.38749737276E+02  0.00000000000E+00 0. -1.
</event>
<event>
 7    1  0.2497665E-015  0.9000775E+02  0.7816164E-02  0.1186339E+00
        -11   -1    0    0    0    0  0.00000000000E+00  0.00000000000E+00  0.45593999997E+02  0.45594000000E+02  0.51100000000E-03 0. -1.
         11   -1    0    0    0    0 -0.00000000000E+00 -0.00000000000E+00 -0.45593999997E+02  0.45594000000E+02  0.51100000000E-03 0.  1.
    9900012    2    1    2    0    0 -0.48910698201E+00  0.14226363864E-02  0.10741340474E+01  0.90007749342E+02  0.90000010833E+02 0.  0.
        -12    1    1    2    0    0  0.48910698201E+00 -0.14226363864E-02 -0.10741340474E+01  0.11802506579E+01  0.00000000000E+00 0.  1.
         11    1    3    3    0    0  0.40137335138E+00  0.16620079063E+02  0.33351009955E+02  0.37264970064E+02  0.51100000000E-03 0. -1.
        -11    1    3    3    0    0 -0.36641350690E+01 -0.82083992910E+01  0.76758005857E+01  0.11820389994E+02  0.51100000000E-03 0.  1.
        -12    1    3    3    0    0  0.27736547356E+01 -0.84102571356E+01 -0.39952676493E+02  0.40922389283E+02  0.00000000000E+00 0.  1.
</event>
<event>
 7    1  0.2497665E-015  0.9000683E+02  0.7816164E-02  0.1186341E+00
        -11   -1    0    0    0    0  0.00000000000E+00  0.00000000000E+00  0.45593999997E+02  0.45594000000E+02  0.51100000000E-03 0.  1.
         11   -1    0    0    0    0 -0.00000000000E+00 -0.00000000000E+00 -0.45593999997E+02  0.45594000000E+02  0.51100000000E-03 0. -1.
    9900012    2    1    2    0    0 -0.26836087781E+00 -0.82871649108E+00  0.79773472436E+00  0.90006827162E+02  0.89999076476E+02 0.  0.
        -12    1    1    2    0    0  0.26836087781E+00  0.82871649108E+00 -0.79773472436E+00  0.11811728382E+01  0.00000000000E+00 0.  1.
         11    1    3    3    0    0 -0.73295256318E+01 -0.74738037130E+01 -0.45091430700E+01  0.11397897149E+02  0.51100000000E-03 0. -1.
        -11    1    3    3    0    0  0.14048825715E+02 -0.63880933438E+00  0.40040492439E+02  0.42438409682E+02  0.51100000000E-03 0.  1.
         12    1    3    3    0    0 -0.69876609607E+01  0.72838965563E+01 -0.34733614645E+02  0.36170520331E+02  0.00000000000E+00 0. -1.
</event>
<event>
 7    1  0.2497665E-015  0.9000775E+02  0.7816164E-02  0.1186339E+00
        -11   -1    0    0    0    0  0.00000000000E+00  0.00000000000E+00  0.45593999997E+02  0.45594000000E+02  0.51100000000E-03 0. -1.
         11   -1    0    0    0    0 -0.00000000000E+00 -0.00000000000E+00 -0.45593999997E+02  0.45594000000E+02  0.51100000000E-03 0.  1.
    9900012    2    1    2    0    0  0.71611453542E+00  0.81736780823E+00 -0.46053049097E+00  0.90007746428E+02  0.90000007881E+02 0.  0.
        -12    1    1    2    0    0 -0.71611453542E+00 -0.81736780823E+00  0.46053049097E+00  0.11802535723E+01  0.00000000000E+00 0.  1.
         11    1    3    3    0    0  0.14556990362E+02 -0.97772278495E+01 -0.78753146359E-01  0.17535859122E+02  0.51100000000E-03 0. -1.
        -11    1    3    3    0    0 -0.22994286195E+02  0.85952977275E+01 -0.31521769445E+02  0.39952950952E+02  0.51100000000E-03 0.  1.
         12    1    3    3    0    0  0.91534103681E+01  0.19992979301E+01  0.31139992100E+02  0.32518936354E+02  0.00000000000E+00 0. -1.
</event>
<event>
 7    1  0.2497665E-015  0.9000772E+02  0.7816164E-02  0.1186339E+00
        -11   -1    0    0    0    0  0.00000000000E+00  0.00000000000E+00  0.45593999997E+02  0.45594000000E+02  0.51100000000E-03 0.  1.
         11   -1    0    0    0    0 -0.00000000000E+00 -0.00000000000E+00 -0.45593999997E+02  0.45594000000E+02  0.51100000000E-03 0. -1.
    9900012    2    1    2    0    0  0.78792016661E+00 -0.25280171110E-01 -0.87840405110E+00  0.90007724205E+02  0.89999985364E+02 0.  0.
        -12    1    1    2    0    0 -0.78792016661E+00  0.25280171110E-01  0.87840405110E+00  0.11802757953E+01  0.00000000000E+00 0.  1.
         11    1    3    3    0    0  0.20234979606E+01  0.70902118901E+01  0.32271414836E+01  0.80486080199E+01  0.51100000000E-03 0. -1.
        -11    1    3    3    0    0 -0.18925856640E+02  0.24636937467E+02  0.21251639089E+02  0.37640389232E+02  0.51100000000E-03 0.  1.
         12    1    3    3    0    0  0.17690278846E+02 -0.31752429528E+02 -0.25357184624E+02  0.44318726952E+02  0.00000000000E+00 0. -1.
</event>
<event>
 7    1  0.2497665E-015  0.9000782E+02  0.7816164E-02  0.1186339E+00
        -11   -1    0    0    0    0  0.00000000000E+00  0.00000000000E+00  0.45593999997E+02  0.45594000000E+02  0.51100000000E-03 0.  1.
         11   -1    0    0    0    0 -0.00000000000E+00 -0.00000000000E+00 -0.45593999997E+02  0.45594000000E+02  0.51100000000E-03 0. -1.
    9900012    2    1    2    0    0  0.58090398538E+00 -0.82729507387E+00 -0.60907182555E+00  0.90007815663E+02  0.90000078030E+02 0.  0.
        -12    1    1    2    0    0 -0.58090398538E+00  0.82729507387E+00  0.60907182555E+00  0.11801843365E+01  0.00000000000E+00 0.  1.
         11    1    3    3    0    0 -0.12882468061E+02  0.17281064084E+02  0.11221702705E+02  0.24300612566E+02  0.51100000000E-03 0. -1.
        -11    1    3    3    0    0  0.31153747293E+02  0.29373186040E+01  0.74010747798E+01  0.32155244038E+02  0.51100000000E-03 0.  1.
         12    1    3    3    0    0 -0.17690375246E+02 -0.21045677762E+02 -0.19231849310E+02  0.33551959059E+02  0.00000000000E+00 0. -1.
</event>
<event>
 7    1  0.2497665E-015  0.9000867E+02  0.7816164E-02  0.1186337E+00
        -11   -1    0    0    0    0  0.00000000000E+00  0.00000000000E+00  0.45593999997E+02  0.45594000000E+02  0.51100000000E-03 0. -1.
         11   -1    0    0    0    0 -0.00000000000E+00 -0.00000000000E+00 -0.45593999997E+02  0.45594000000E+02  0.51100000000E-03 0.  1.
    9900012    2    1    2    0    0 -0.11808793930E+00  0.81985860118E+00  0.83946642224E+00  0.90008671055E+02  0.90000944708E+02 0.  0.
        -12    1    1    2    0    0  0.11808793930E+00 -0.81985860118E+00 -0.83946642224E+00  0.11793289454E+01  0.00000000000E+00 0.  1.
         11    1    3    3    0    0  0.36617701241E+02  0.70212657569E+01 -0.41754573285E+01  0.37517844570E+02  0.51100000000E-03 0. -1.
        -11    1    3    3    0    0  0.64227635675E+01  0.22475398261E-01  0.61201748436E+01  0.88718057556E+01  0.51100000000E-03 0.  1.
        -12    1    3    3    0    0 -0.43158552748E+02 -0.62238825540E+01 -0.11052510929E+01  0.43619020729E+02  0.00000000000E+00 0.  1.
</event>
<event>
 7    1  0.2497665E-015  0.9000775E+02  0.7816164E-02  0.1186339E+00
        -11   -1    0    0    0    0  0.00000000000E+00  0.00000000000E+00  0.45593999997E+02  0.45594000000E+02  0.51100000000E-03 0. -1.
         11   -1    0    0    0    0 -0.00000000000E+00 -0.00000000000E+00 -0.45593999997E+02  0.45594000000E+02  0.51100000000E-03 0.  1.
    9900012    2    1    2    0    0 -0.83203010900E+00 -0.81682276143E+00  0.18309685408E+00  0.90007746644E+02  0.90000008100E+02 0.  0.
        -12    1    1    2    0    0  0.83203010900E+00  0.81682276143E+00 -0.18309685408E+00  0.11802533558E+01  0.00000000000E+00 0.  1.
         11    1    3    3    0    0 -0.85766854611E+01  0.68739651973E+01 -0.16919671460E+01  0.11120867058E+02  0.51100000000E-03 0. -1.
        -11    1    3    3    0    0 -0.73062067859E+00  0.35124731739E+02  0.26668593271E+01  0.35233403543E+02  0.51100000000E-03 0.  1.
         12    1    3    3    0    0  0.84752760307E+01 -0.42815519698E+02 -0.79179532702E+00  0.43653476043E+02  0.00000000000E+00 0. -1.
</event>
<event>
 7    1  0.2497665E-015  0.9000780E+02  0.7816164E-02  0.1186339E+00
        -11   -1    0    0    0    0  0.00000000000E+00  0.00000000000E+00  0.45593999997E+02  0.45594000000E+02  0.51100000000E-03 0.  1.
         11   -1    0    0    0    0 -0.00000000000E+00 -0.00000000000E+00 -0.45593999997E+02  0.45594000000E+02  0.51100000000E-03 0. -1.
    9900012    2    1    2    0    0  0.58949414258E+00 -0.66735113874E-01 -0.10202580602E+01  0.90007795175E+02  0.90000057271E+02 0.  0.
        -12    1    1    2    0    0 -0.58949414258E+00  0.66735113874E-01  0.10202580602E+01  0.11802048250E+01  0.00000000000E+00 0.  1.
         11    1    3    3    0    0  0.87010022771E+01  0.17598654644E+02 -0.38077495513E+02  0.42840585322E+02  0.51100000000E-03 0. -1.
        -11    1    3    3    0    0 -0.51256240042E+00  0.25810487252E+01  0.18455072675E+02  0.18641733837E+02  0.51100000000E-03 0.  1.
        -12    1    3    3    0    0 -0.75989457341E+01 -0.20246438483E+02  0.18602164778E+02  0.28525476016E+02  0.00000000000E+00 0.  1.
</event>
<event>
 7    1  0.2497665E-015  0.9000772E+02  0.7816164E-02  0.1186339E+00
        -11   -1    0    0    0    0  0.00000000000E+00  0.00000000000E+00  0.45593999997E+02  0.45594000000E+02  0.51100000000E-03 0. -1.
         11   -1    0    0    0    0 -0.00000000000E+00 -0.00000000000E+00 -0.45593999997E+02  0.45594000000E+02  0.51100000000E-03 0.  1.
    9900012    2    1    2    0    0  0.10148122652E+01 -0.38901610898E+00 -0.46031742454E+00  0.90007716306E+02  0.89999977361E+02 0.  0.
        -12    1    1    2    0    0 -0.10148122652E+01  0.38901610898E+00  0.46031742454E+00  0.11802836938E+01  0.00000000000E+00 0.  1.
         11    1    3    3    0    0  0.38359060930E+00  0.54504970651E+01 -0.44517758073E+01  0.70479336058E+01  0.51100000000E-03 0. -1.
        -11    1    3    3    0    0 -0.33123128658E+02 -0.26383485016E+02  0.84919739166E+01  0.43189623232E+02  0.51100000000E-03 0.  1.
         12    1    3    3    0    0  0.33754350313E+02  0.20543971841E+02 -0.45005155338E+01  0.39770159469E+02  0.00000000000E+00 0. -1.
</event>
<event>
 7    1  0.2497665E-015  0.9000770E+02  0.7816164E-02  0.1186339E+00
        -11   -1    0    0    0    0  0.00000000000E+00  0.00000000000E+00  0.45593999997E+02  0.45594000000E+02  0.51100000000E-03 0.  1.
         11   -1    0    0    0    0 -0.00000000000E+00 -0.00000000000E+00 -0.45593999997E+02  0.45594000000E+02  0.51100000000E-03 0. -1.
    9900012    2    1    2    0    0  0.39530958352E+00 -0.34975633498E+00  0.10557032639E+01  0.90007699809E+02  0.89999960646E+02 0.  0.
        -12    1    1    2    0    0 -0.39530958352E+00  0.34975633498E+00 -0.10557032639E+01  0.11803001915E+01  0.00000000000E+00 0.  1.
         11    1    3    3    0    0 -0.21888277251E+01 -0.89726023954E+01  0.73783647715E+01  0.11821117862E+02  0.51100000000E-03 0. -1.
        -11    1    3    3    0    0  0.39068474784E+02 -0.40501550041E+01 -0.21036262872E+01  0.39334141930E+02  0.51100000000E-03 0.  1.
         12    1    3    3    0    0 -0.36484337476E+02  0.12673001065E+02 -0.42190352205E+01  0.38852440016E+02  0.00000000000E+00 0. -1.
</event>
<event>
 7    1  0.2497665E-015  0.9000771E+02  0.7816164E-02  0.1186339E+00
        -11   -1    0    0    0    0  0.00000000000E+00  0.00000000000E+00  0.45593999997E+02  0.45594000000E+02  0.51100000000E-03 0. -1.
         11   -1    0    0    0    0 -0.00000000000E+00 -0.00000000000E+00 -0.45593999997E+02  0.45594000000E+02  0.51100000000E-03 0.  1.
    9900012    2    1    2    0    0 -0.82717168750E+00 -0.84141541153E+00  0.29822296151E-01  0.90007710940E+02  0.89999971925E+02 0.  0.
        -12    1    1    2    0    0  0.82717168750E+00  0.84141541153E+00 -0.29822296151E-01  0.11802890598E+01  0.00000000000E+00 0.  1.
         11    1    3    3    0    0 -0.73950491697E+01 -0.20205111032E+02  0.31019245443E+02  0.37750852337E+02  0.51100000000E-03 0. -1.
        -11    1    3    3    0    0  0.37730528724E+00 -0.10234882211E+02 -0.21390939530E+01  0.10462834050E+02  0.51100000000E-03 0.  1.
        -12    1    3    3    0    0  0.61905721950E+01  0.29598577831E+02 -0.28850329194E+02  0.41794024553E+02  0.00000000000E+00 0.  1.
</event>
<event>
 7    1  0.2497665E-015  0.9000771E+02  0.7816164E-02  0.1186339E+00
        -11   -1    0    0    0    0  0.00000000000E+00  0.00000000000E+00  0.45593999997E+02  0.45594000000E+02  0.51100000000E-03 0.  1.
         11   -1    0    0    0    0 -0.00000000000E+00 -0.00000000000E+00 -0.45593999997E+02  0.45594000000E+02  0.51100000000E-03 0. -1.
    9900012    2    1    2    0    0 -0.36254938524E+00 -0.82285871258E+00 -0.76456028856E+00  0.90007707260E+02  0.89999968196E+02 0.  0.
        -12    1    1    2    0    0  0.36254938524E+00  0.82285871258E+00  0.76456028856E+00  0.11802927401E+01  0.00000000000E+00 0.  1.
         11    1    3    3    0    0 -0.14469609201E+01  0.59231308856E+01  0.87977409251E+01  0.10704084316E+02  0.51100000000E-03 0. -1.
        -11    1    3    3    0    0 -0.29023023309E+02 -0.28422989628E+01  0.21222752954E+02  0.36066879385E+02  0.51100000000E-03 0.  1.
         12    1    3    3    0    0  0.30107434844E+02 -0.39036906353E+01 -0.30785054167E+02  0.43236743559E+02  0.00000000000E+00 0. -1.
</event>
<event>
 7    1  0.2497665E-015  0.9000773E+02  0.7816164E-02  0.1186339E+00
        -11   -1    0    0    0    0  0.00000000000E+00  0.00000000000E+00  0.45593999997E+02  0.45594000000E+02  0.51100000000E-03 0. -1.
         11   -1    0    0    0    0 -0.00000000000E+00 -0.00000000000E+00 -0.45593999997E+02  0.45594000000E+02  0.51100000000E-03 0.  1.
    9900012    2    1    2    0    0 -0.10091136188E+01 -0.60543912616E+00 -0.90341554487E-01  0.90007733747E+02  0.89999995033E+02 0.  0.
        -12    1    1    2    0    0  0.10091136188E+01  0.60543912616E+00  0.90341554487E-01  0.11802662528E+01  0.00000000000E+00 0.  1.
         11    1    3    3    0    0 -0.11220668405E+01  0.11277834226E+02 -0.53996235685E+01  0.12554063636E+02  0.51100000000E-03 0. -1.
        -11    1    3    3    0    0  0.37822514253E+02 -0.11443693283E+02  0.14171379835E+01  0.39541231401E+02  0.51100000000E-03 0.  1.
         12    1    3    3    0    0 -0.37709561031E+02 -0.43958006919E+00  0.38921440305E+01  0.37912438711E+02  0.00000000000E+00 0. -1.
</event>
<event>
 7    1  0.2497665E-015  0.9000775E+02  0.7816164E-02  0.1186339E+00
        -11   -1    0    0    0    0  0.00000000000E+00  0.00000000000E+00  0.45593999997E+02  0.45594000000E+02  0.51100000000E-03 0. -1.
         11   -1    0    0    0    0 -0.00000000000E+00 -0.00000000000E+00 -0.45593999997E+02  0.45594000000E+02  0.51100000000E-03 0.  1.
    9900012    2    1    2    0    0  0.55709804362E+00  0.63272175801E+00  0.82600939380E+00  0.90007751479E+02  0.90000012998E+02 0.  0.
        -12    1    1    2    0    0 -0.55709804362E+00 -0.63272175801E+00 -0.82600939380E+00  0.11802485212E+01  0.00000000000E+00 0.  1.
         11    1    3    3    0    0 -0.62032753996E+01  0.27873034448E+02  0.34253326408E+02  0.44594585381E+02  0.51100000000E-03 0. -1.
        -11    1    3    3    0    0  0.42006233994E+01 -0.95228518296E+00 -0.52834216075E+01  0.68166434670E+01  0.51100000000E-03 0.  1.
        -12    1    3    3    0    0  0.25597500439E+01 -0.26288027508E+02 -0.28143895407E+02  0.38596522631E+02  0.00000000000E+00 0.  1.
</event>
<event>
 7    1  0.2497665E-015  0.9000771E+02  0.7816164E-02  0.1186339E+00
        -11   -1    0    0    0    0  0.00000000000E+00  0.00000000000E+00  0.45593999997E+02  0.45594000000E+02  0.51100000000E-03 0. -1.
         11   -1    0    0    0    0 -0.00000000000E+00 -0.00000000000E+00 -0.45593999997E+02  0.45594000000E+02  0.51100000000E-03 0.  1.
    9900012    2    1    2    0    0 -0.52321167998E+00  0.10547576978E+01 -0.82636367165E-01  0.90007706379E+02  0.89999967303E+02 0.  0.
        -12    1    1    2    0    0  0.52321167998E+00 -0.10547576978E+01  0.82636367165E-01  0.11802936212E+01  0.00000000000E+00 0.  1.
         11    1    3    3    0    0  0.15969057531E+02 -0.38997955076E+01  0.22929752920E+02  0.28213343876E+02  0.51100000000E-03 0. -1.
        -11    1    3    3    0    0 -0.21903693195E+01 -0.14188208957E+01  0.17847417575E+02  0.18037213889E+02  0.51100000000E-03 0.  1.
        -12    1    3    3    0    0 -0.14301899891E+02  0.63733741010E+01 -0.40859806863E+02  0.43757148614E+02  0.00000000000E+00 0.  1.
</event>
<event>
 7    1  0.2497665E-015  0.9000771E+02  0.7816164E-02  0.1186339E+00
        -11   -1    0    0    0    0  0.00000000000E+00  0.00000000000E+00  0.45593999997E+02  0.45594000000E+02  0.51100000000E-03 0.  1.
         11   -1    0    0    0    0 -0.00000000000E+00 -0.00000000000E+00 -0.45593999997E+02  0.45594000000E+02  0.51100000000E-03 0. -1.
    9900012    2    1    2    0    0 -0.56209090949E+00 -0.24055931873E-01 -0.10375693126E+01  0.90007714036E+02  0.89999975061E+02 0.  0.
        -12    1    1    2    0    0  0.56209090949E+00  0.24055931873E-01  0.10375693126E+01  0.11802859640E+01  0.00000000000E+00 0.  1.
         11    1    3    3    0    0 -0.17654764744E+02  0.24900510327E+02 -0.25625942536E+02  0.39854925214E+02  0.51100000000E-03 0. -1.
        -11    1    3    3    0    0 -0.27863383282E+01  0.55724725147E+01  0.80206113535E+01  0.10156098560E+02  0.51100000000E-03 0.  1.
        -12    1    3    3    0    0  0.19879012162E+02 -0.30497038774E+02  0.16567761870E+02  0.39996690262E+02  0.00000000000E+00 0.  1.
</event>
<event>
 7    1  0.2497665E-015  0.9000776E+02  0.7816164E-02  0.1186339E+00
        -11   -1    0    0    0    0  0.00000000000E+00  0.00000000000E+00  0.45593999997E+02  0.45594000000E+02  0.51100000000E-03 0.  1.
         11   -1    0    0    0    0 -0.00000000000E+00 -0.00000000000E+00 -0.45593999997E+02  0.45594000000E+02  0.51100000000E-03 0. -1.
    9900012    2    1    2    0    0  0.85877917735E-01  0.54463961902E+00 -0.10435311853E+01  0.90007760759E+02  0.90000022401E+02 0.  0.
        -12    1    1    2    0    0 -0.85877917735E-01 -0.54463961902E+00  0.10435311853E+01  0.11802392410E+01  0.00000000000E+00 0.  1.
         11    1    3    3    0    0  0.34069843164E+02 -0.13667813981E+02  0.20210969949E+02  0.41905210401E+02  0.51100000000E-03 0. -1.
        -11    1    3    3    0    0 -0.86069806284E+01  0.25526750820E+00  0.41671816856E+01  0.95661214973E+01  0.51100000000E-03 0.  1.
        -12    1    3    3    0    0 -0.25376984618E+02  0.13957186092E+02 -0.25421682820E+02  0.38536428860E+02  0.00000000000E+00 0.  1.
</event>
<event>
 7    1  0.2497665E-015  0.9000777E+02  0.7816164E-02  0.1186339E+00
        -11   -1    0    0    0    0  0.00000000000E+00  0.00000000000E+00  0.45593999997E+02  0.45594000000E+02  0.51100000000E-03 0. -1.
         11   -1    0    0    0    0 -0.00000000000E+00 -0.00000000000E+00 -0.45593999997E+02  0.45594000000E+02  0.51100000000E-03 0.  1.
    9900012    2    1    2    0    0  0.24763790116E+00 -0.91964968735E+00  0.69703320668E+00  0.90007773171E+02  0.90000034976E+02 0.  0.
        -12    1    1    2    0    0 -0.24763790116E+00  0.91964968735E+00 -0.69703320668E+00  0.11802268294E+01  0.00000000000E+00 0.  1.
         11    1    3    3    0    0  0.10355493365E+02 -0.40593065876E+01  0.37435795450E+01  0.11735782925E+02  0.51100000000E-03 0. -1.
        -11    1    3    3    0    0  0.33399100615E+02  0.12455955966E+01  0.55596385536E+01  0.33881573331E+02  0.51100000000E-03 0.  1.
         12    1    3    3    0    0 -0.43506956078E+02  0.18940613036E+01 -0.86061848919E+01  0.44390416914E+02  0.00000000000E+00 0. -1.
</event>
<event>
 7    1  0.2497665E-015  0.9000774E+02  0.7816164E-02  0.1186339E+00
        -11   -1    0    0    0    0  0.00000000000E+00  0.00000000000E+00  0.45593999997E+02  0.45594000000E+02  0.51100000000E-03 0.  1.
         11   -1    0    0    0    0 -0.00000000000E+00 -0.00000000000E+00 -0.45593999997E+02  0.45594000000E+02  0.51100000000E-03 0. -1.
    9900012    2    1    2    0    0  0.64848471803E+00 -0.72664589639E-01 -0.98346809086E+00  0.90007736446E+02  0.89999997767E+02 0.  0.
        -12    1    1    2    0    0 -0.64848471803E+00  0.72664589639E-01  0.98346809086E+00  0.11802635544E+01  0.00000000000E+00 0.  1.
         11    1    3    3    0    0  0.27700501881E+02  0.27551339864E+02 -0.19804298918E+02  0.43801876543E+02  0.51100000000E-03 0. -1.
        -11    1    3    3    0    0 -0.31010378469E+01 -0.37150861712E+01  0.10189762703E+02  0.11280494900E+02  0.51100000000E-03 0.  1.
        -12    1    3    3    0    0 -0.23950979316E+02 -0.23908918282E+02  0.86310681242E+01  0.34925365003E+02  0.00000000000E+00 0.  1.
</event>
<event>
 7    1  0.2497665E-015  0.9000775E+02  0.7816164E-02  0.1186339E+00
        -11   -1    0    0    0    0  0.00000000000E+00  0.00000000000E+00  0.45593999997E+02  0.45594000000E+02  0.51100000000E-03 0. -1.
         11   -1    0    0    0    0 -0.00000000000E+00 -0.00000000000E+00 -0.45593999997E+02  0.45594000000E+02  0.51100000000E-03 0.  1.
    9900012    2    1    2    0    0  0.65525335100E+00 -0.76947411011E-01  0.97862368547E+00  0.90007753341E+02  0.90000014885E+02 0.  0.
        -12    1    1    2    0    0 -0.65525335100E+00  0.76947411011E-01 -0.97862368547E+00  0.11802466589E+01  0.00000000000E+00 0.  1.
         11    1    3    3    0    0 -0.90306857607E+01 -0.60590829287E+00 -0.12889644857E+01  0.91423104232E+01  0.51100000000E-03 0. -1.
        -11    1    3    3    0    0 -0.97669432142E+01  0.14156113587E+02 -0.33658588292E+02  0.37798006531E+02  0.51100000000E-03 0.  1.
         12    1    3    3    0    0  0.19452882326E+02 -0.13627152705E+02  0.35926176463E+02  0.43067436387E+02  0.00000000000E+00 0. -1.
</event>
<event>
 7    1  0.2804169E-015  0.9000786E+02  0.7816164E-02  0.1186339E+00
        -11   -1    0    0    0    0  0.00000000000E+00  0.00000000000E+00  0.45593999997E+02  0.45594000000E+02  0.51100000000E-03 0. -1.
         11   -1    0    0    0    0 -0.00000000000E+00 -0.00000000000E+00 -0.45593999997E+02  0.45594000000E+02  0.51100000000E-03 0.  1.
    9900012    2    1    2    0    0  0.54225080086E+00  0.31707926159E+00  0.99907346395E+00  0.90007863154E+02  0.90000126147E+02 0.  0.
        -12    1    1    2    0    0 -0.54225080086E+00 -0.31707926159E+00 -0.99907346395E+00  0.11801368461E+01  0.00000000000E+00 0.  1.
         11    1    3    3    0    0 -0.22131269284E+01  0.17438500281E+02  0.36953207974E+02  0.40921129050E+02  0.51100000000E-03 0. -1.
        -11    1    3    3    0    0  0.41795272531E+00 -0.10504562917E+02  0.18174207657E+01  0.10668811792E+02  0.51100000000E-03 0.  1.
        -12    1    3    3    0    0  0.23374250039E+01 -0.66168581028E+01 -0.37771555276E+02  0.38417922312E+02  0.00000000000E+00 0.  1.
</event>
<event>
 7    1  0.2497665E-015  0.9000768E+02  0.7816164E-02  0.1186339E+00
        -11   -1    0    0    0    0  0.00000000000E+00  0.00000000000E+00  0.45593999997E+02  0.45594000000E+02  0.51100000000E-03 0. -1.
         11   -1    0    0    0    0 -0.00000000000E+00 -0.00000000000E+00 -0.45593999997E+02  0.45594000000E+02  0.51100000000E-03 0.  1.
    9900012    2    1    2    0    0  0.14398855158E+00 -0.89872966019E+00 -0.75146520554E+00  0.90007683237E+02  0.89999943856E+02 0.  0.
        -12    1    1    2    0    0 -0.14398855158E+00  0.89872966019E+00  0.75146520554E+00  0.11803167627E+01  0.00000000000E+00 0.  1.
         11    1    3    3    0    0 -0.33035381186E+02  0.13317386084E+02  0.11407181186E+02  0.37400708083E+02  0.51100000000E-03 0. -1.
        -11    1    3    3    0    0 -0.68127343357E+01  0.15138613364E+00 -0.70522219082E+01  0.98066355593E+01  0.51100000000E-03 0.  1.
        -12    1    3    3    0    0  0.39992104074E+02 -0.14367501878E+02 -0.51064244831E+01  0.42800339595E+02  0.00000000000E+00 0.  1.
</event>
<event>
 7    1  0.2497665E-015  0.9000774E+02  0.7816164E-02  0.1186339E+00
        -11   -1    0    0    0    0  0.00000000000E+00  0.00000000000E+00  0.45593999997E+02  0.45594000000E+02  0.51100000000E-03 0.  1.
         11   -1    0    0    0    0 -0.00000000000E+00 -0.00000000000E+00 -0.45593999997E+02  0.45594000000E+02  0.51100000000E-03 0. -1.
    9900012    2    1    2    0    0 -0.77188960703E+00  0.86663412524E+00 -0.21482363268E+00  0.90007738391E+02  0.89999999738E+02 0.  0.
        -12    1    1    2    0    0  0.77188960703E+00 -0.86663412524E+00  0.21482363268E+00  0.11802616090E+01  0.00000000000E+00 0.  1.
         11    1    3    3    0    0 -0.34386098496E+02 -0.93941107281E+01 -0.91446489725E+01  0.36800512106E+02  0.51100000000E-03 0. -1.
        -11    1    3    3    0    0 -0.81420755890E+01  0.29565312217E+01  0.63463129237E+01  0.10738256830E+02  0.51100000000E-03 0.  1.
        -12    1    3    3    0    0  0.41756284478E+02  0.73042136317E+01  0.25835124162E+01  0.42468969455E+02  0.00000000000E+00 0.  1.
</event>
<event>
 7    1  0.2497665E-015  0.9000773E+02  0.7816164E-02  0.1186339E+00
        -11   -1    0    0    0    0  0.00000000000E+00  0.00000000000E+00  0.45593999997E+02  0.45594000000E+02  0.51100000000E-03 0.  1.
         11   -1    0    0    0    0 -0.00000000000E+00 -0.00000000000E+00 -0.45593999997E+02  0.45594000000E+02  0.51100000000E-03 0. -1.
    9900012    2    1    2    0    0 -0.58682881317E+00 -0.62763645147E+00 -0.80915644352E+00  0.90007733199E+02  0.89999994477E+02 0.  0.
        -12    1    1    2    0    0  0.58682881317E+00  0.62763645147E+00  0.80915644352E+00  0.11802668009E+01  0.00000000000E+00 0.  1.
         11    1    3    3    0    0 -0.27957913367E+02 -0.23006312826E+02 -0.11511066568E+02  0.37992630910E+02  0.51100000000E-03 0. -1.
        -11    1    3    3    0    0 -0.90606581234E+01  0.39918569412E+01  0.31842776743E+00  0.99061518246E+01  0.51100000000E-03 0.  1.
        -12    1    3    3    0    0  0.36431742677E+02  0.18386819433E+02  0.10383482357E+02  0.42108950464E+02  0.00000000000E+00 0.  1.
</event>
<event>
 7    1  0.2497665E-015  0.9000783E+02  0.7816164E-02  0.1186339E+00
        -11   -1    0    0    0    0  0.00000000000E+00  0.00000000000E+00  0.45593999997E+02  0.45594000000E+02  0.51100000000E-03 0.  1.
         11   -1    0    0    0    0 -0.00000000000E+00 -0.00000000000E+00 -0.45593999997E+02  0.45594000000E+02  0.51100000000E-03 0. -1.
    9900012    2    1    2    0    0  0.19198269365E+00 -0.10410029810E+01 -0.52178518339E+00  0.90007828682E+02  0.90000091221E+02 0.  0.
        -12    1    1    2    0    0 -0.19198269365E+00  0.10410029810E+01  0.52178518339E+00  0.11801713176E+01  0.00000000000E+00 0.  1.
         11    1    3    3    0    0 -0.98875235876E+01 -0.10724200990E+02 -0.75037200516E+01  0.16403579623E+02  0.51100000000E-03 0. -1.
        -11    1    3    3    0    0 -0.16218663247E+02 -0.12245955434E+02  0.27112610111E+02  0.33883655194E+02  0.51100000000E-03 0.  1.
         12    1    3    3    0    0  0.26298169528E+02  0.21929153443E+02 -0.20130675243E+02  0.39720593865E+02  0.00000000000E+00 0. -1.
</event>
<event>
 7    1  0.2497665E-015  0.9000770E+02  0.7816164E-02  0.1186339E+00
        -11   -1    0    0    0    0  0.00000000000E+00  0.00000000000E+00  0.45593999997E+02  0.45594000000E+02  0.51100000000E-03 0. -1.
         11   -1    0    0    0    0 -0.00000000000E+00 -0.00000000000E+00 -0.45593999997E+02  0.45594000000E+02  0.51100000000E-03 0.  1.
    9900012    2    1    2    0    0 -0.29297771500E+00  0.10063345440E+01  0.54274363136E+00  0.90007696732E+02  0.89999957528E+02 0.  0.
        -12    1    1    2    0    0  0.29297771500E+00 -0.10063345440E+01 -0.54274363136E+00  0.11803032684E+01  0.00000000000E+00 0.  1.
         11    1    3    3    0    0 -0.70153163928E+01  0.81184827342E+01 -0.39085758217E+01  0.11419342854E+02  0.51100000000E-03 0. -1.
        -11    1    3    3    0    0  0.27982443451E+02  0.70415143821E+01 -0.26002408186E+02  0.38842313242E+02  0.51100000000E-03 0.  1.
         12    1    3    3    0    0 -0.21260104773E+02 -0.14153662572E+02  0.30453727639E+02  0.39746040636E+02  0.00000000000E+00 0. -1.
</event>
<event>
 7    1  0.2497665E-015  0.9000774E+02  0.7816164E-02  0.1186339E+00
        -11   -1    0    0    0    0  0.00000000000E+00  0.00000000000E+00  0.45593999997E+02  0.45594000000E+02  0.51100000000E-03 0.  1.
         11   -1    0    0    0    0 -0.00000000000E+00 -0.00000000000E+00 -0.45593999997E+02  0.45594000000E+02  0.51100000000E-03 0. -1.
    9900012    2    1    2    0    0 -0.36522439983E+00 -0.82825182351E+00 -0.75737194657E+00  0.90007744854E+02  0.90000006286E+02 0.  0.
        -12    1    1    2    0    0  0.36522439983E+00  0.82825182351E+00  0.75737194657E+00  0.11802551465E+01  0.00000000000E+00 0.  1.
         11    1    3    3    0    0  0.37216718207E+01 -0.23913774035E+01  0.97051094095E+01  0.10665771230E+02  0.51100000000E-03 0. -1.
        -11    1    3    3    0    0  0.18027309322E+02 -0.74198168147E+00  0.28937429040E+02  0.34101454777E+02  0.51100000000E-03 0.  1.
         12    1    3    3    0    0 -0.22114205542E+02  0.23051072615E+01 -0.39399910396E+02  0.45240518846E+02  0.00000000000E+00 0. -1.
</event>
<event>
 7    1  0.2497665E-015  0.9000776E+02  0.7816164E-02  0.1186339E+00
        -11   -1    0    0    0    0  0.00000000000E+00  0.00000000000E+00  0.45593999997E+02  0.45594000000E+02  0.51100000000E-03 0.  1.
         11   -1    0    0    0    0 -0.00000000000E+00 -0.00000000000E+00 -0.45593999997E+02  0.45594000000E+02  0.51100000000E-03 0. -1.
    9900012    2    1    2    0    0  0.10892117276E+01 -0.45318910001E+00  0.34608975473E-01  0.90007762596E+02  0.90000024263E+02 0.  0.
        -12    1    1    2    0    0 -0.10892117276E+01  0.45318910001E+00 -0.34608975473E-01  0.11802374037E+01  0.00000000000E+00 0.  1.
         11    1    3    3    0    0  0.30834157813E+01 -0.59216546064E+01 -0.59866252258E+01  0.89673367292E+01  0.51100000000E-03 0. -1.
        -11    1    3    3    0    0 -0.51703594198E+01 -0.35703567750E+02  0.14506374827E+02  0.38883316184E+02  0.51100000000E-03 0.  1.
         12    1    3    3    0    0  0.31761553661E+01  0.41172033256E+02 -0.84851406253E+01  0.42157109683E+02  0.00000000000E+00 0. -1.
</event>
<event>
 7    1  0.2497665E-015  0.9000767E+02  0.7816164E-02  0.1186339E+00
        -11   -1    0    0    0    0  0.00000000000E+00  0.00000000000E+00  0.45593999997E+02  0.45594000000E+02  0.51100000000E-03 0. -1.
         11   -1    0    0    0    0 -0.00000000000E+00 -0.00000000000E+00 -0.45593999997E+02  0.45594000000E+02  0.51100000000E-03 0.  1.
    9900012    2    1    2    0    0  0.40359471723E+00 -0.77027104021E-01  0.11065089528E+01  0.90007667872E+02  0.89999928288E+02 0.  0.
        -12    1    1    2    0    0 -0.40359471723E+00  0.77027104021E-01 -0.11065089528E+01  0.11803321283E+01  0.00000000000E+00 0.  1.
         11    1    3    3    0    0 -0.28542348627E+02  0.18806900411E+02  0.69141053510E+01  0.34873629311E+02  0.51100000000E-03 0. -1.
        -11    1    3    3    0    0  0.11201892477E+02  0.11340648369E+02  0.75356985608E+01  0.17631773977E+02  0.51100000000E-03 0.  1.
        -12    1    3    3    0    0  0.17744050867E+02 -0.30224575885E+02 -0.13343294959E+02  0.37502264584E+02  0.00000000000E+00 0.  1.
</event>
<event>
 7    1  0.2497665E-015  0.9000779E+02  0.7816164E-02  0.1186339E+00
        -11   -1    0    0    0    0  0.00000000000E+00  0.00000000000E+00  0.45593999997E+02  0.45594000000E+02  0.51100000000E-03 0.  1.
         11   -1    0    0    0    0 -0.00000000000E+00 -0.00000000000E+00 -0.45593999997E+02  0.45594000000E+02  0.51100000000E-03 0. -1.
    9900012    2    1    2    0    0 -0.53480388321E+00  0.54745539822E+00 -0.89842991329E+00  0.90007788614E+02  0.90000050624E+02 0.  0.
        -12    1    1    2    0    0  0.53480388321E+00 -0.54745539822E+00  0.89842991329E+00  0.11802113860E+01  0.00000000000E+00 0.  1.
         11    1    3    3    0    0  0.30588076591E+02 -0.21909385902E+02 -0.17240429791E+02  0.41387003271E+02  0.51100000000E-03 0. -1.
        -11    1    3    3    0    0 -0.17694772037E-01  0.48046353685E+01  0.11583779905E+02  0.12540685439E+02  0.51100000000E-03 0.  1.
        -12    1    3    3    0    0 -0.31105185702E+02  0.17652205932E+02  0.47582199728E+01  0.36080099904E+02  0.00000000000E+00 0.  1.
</event>
<event>
 7    1  0.2497665E-015  0.9000779E+02  0.7816164E-02  0.1186339E+00
        -11   -1    0    0    0    0  0.00000000000E+00  0.00000000000E+00  0.45593999997E+02  0.45594000000E+02  0.51100000000E-03 0.  1.
         11   -1    0    0    0    0 -0.00000000000E+00 -0.00000000000E+00 -0.45593999997E+02  0.45594000000E+02  0.51100000000E-03 0. -1.
    9900012    2    1    2    0    0  0.36414486288E+00 -0.71458119739E+00 -0.86583540474E+00  0.90007788698E+02  0.90000050709E+02 0.  0.
        -12    1    1    2    0    0 -0.36414486288E+00  0.71458119739E+00  0.86583540474E+00  0.11802113018E+01  0.00000000000E+00 0.  1.
         11    1    3    3    0    0 -0.38083484508E+01  0.18155263804E+01  0.36452967772E+01  0.55756473002E+01  0.51100000000E-03 0. -1.
        -11    1    3    3    0    0  0.33407443632E+02  0.13634866188E+00  0.25818888241E+02  0.42221924059E+02  0.51100000000E-03 0.  1.
         12    1    3    3    0    0 -0.29234950318E+02 -0.26664562397E+01 -0.30330020423E+02  0.42210217339E+02  0.00000000000E+00 0. -1.
</event>
<event>
 7    1  0.2497665E-015  0.9000791E+02  0.7816164E-02  0.1186339E+00
        -11   -1    0    0    0    0  0.00000000000E+00  0.00000000000E+00  0.45593999997E+02  0.45594000000E+02  0.51100000000E-03 0. -1.
         11   -1    0    0    0    0 -0.00000000000E+00 -0.00000000000E+00 -0.45593999997E+02  0.45594000000E+02  0.51100000000E-03 0.  1.
    9900012    2    1    2    0    0  0.89420021173E+00  0.42489137957E+00  0.64225882253E+00  0.90007905471E+02  0.90000169023E+02 0.  0.
        -12    1    1    2    0    0 -0.89420021173E+00 -0.42489137957E+00 -0.64225882253E+00  0.11800945294E+01  0.00000000000E+00 0.  1.
         11    1    3    3    0    0 -0.28555416817E+02 -0.22541804750E+01  0.90204658568E+01  0.30031016695E+02  0.51100000000E-03 0. -1.
        -11    1    3    3    0    0 -0.88391835079E+01  0.13267624590E+00  0.13249836947E+02  0.15928180921E+02  0.51100000000E-03 0.  1.
        -12    1    3    3    0    0  0.38288800537E+02  0.25463956087E+01 -0.21628043981E+02  0.44048707854E+02  0.00000000000E+00 0.  1.
</event>
<event>
 7    1  0.2497665E-015  0.9000783E+02  0.7816164E-02  0.1186339E+00
        -11   -1    0    0    0    0  0.00000000000E+00  0.00000000000E+00  0.45593999997E+02  0.45594000000E+02  0.51100000000E-03 0.  1.
         11   -1    0    0    0    0 -0.00000000000E+00 -0.00000000000E+00 -0.45593999997E+02  0.45594000000E+02  0.51100000000E-03 0. -1.
    9900012    2    1    2    0    0 -0.76774034183E+00  0.87766148351E+00  0.18189126108E+00  0.90007830799E+02  0.90000093366E+02 0.  0.
        -12    1    1    2    0    0  0.76774034183E+00 -0.87766148351E+00 -0.18189126108E+00  0.11801692010E+01  0.00000000000E+00 0.  1.
         11    1    3    3    0    0  0.44369082196E+01 -0.12360406656E+02 -0.37109298811E+02  0.39364525473E+02  0.51100000000E-03 0. -1.
        -11    1    3    3    0    0 -0.50575794619E+01 -0.89317555042E+01  0.48557952518E+01  0.11354915860E+02  0.51100000000E-03 0.  1.
        -12    1    3    3    0    0 -0.14706909951E+00  0.22169823643E+02  0.32435394820E+02  0.39288389466E+02  0.00000000000E+00 0.  1.
</event>
<event>
 7    1  0.2497665E-015  0.9000778E+02  0.7816164E-02  0.1186339E+00
        -11   -1    0    0    0    0  0.00000000000E+00  0.00000000000E+00  0.45593999997E+02  0.45594000000E+02  0.51100000000E-03 0.  1.
         11   -1    0    0    0    0 -0.00000000000E+00 -0.00000000000E+00 -0.45593999997E+02  0.45594000000E+02  0.51100000000E-03 0. -1.
    9900012    2    1    2    0    0 -0.10336772599E+01 -0.56934471638E+00 -0.16867605904E-01  0.90007776886E+02  0.90000038740E+02 0.  0.
        -12    1    1    2    0    0  0.10336772599E+01  0.56934471638E+00  0.16867605904E-01  0.11802231144E+01  0.00000000000E+00 0.  1.
         11    1    3    3    0    0  0.24131194168E+02  0.22099507192E+02 -0.22911031190E+02  0.39945188703E+02  0.51100000000E-03 0. -1.
        -11    1    3    3    0    0 -0.13323947248E+02  0.50651825437E+01  0.90168165109E+01  0.16866731300E+02  0.51100000000E-03 0.  1.
        -12    1    3    3    0    0 -0.11840924179E+02 -0.27734034452E+02  0.13877347073E+02  0.33195856883E+02  0.00000000000E+00 0.  1.
</event>
<event>
 7    1  0.2497665E-015  0.9000776E+02  0.7816164E-02  0.1186339E+00
        -11   -1    0    0    0    0  0.00000000000E+00  0.00000000000E+00  0.45593999997E+02  0.45594000000E+02  0.51100000000E-03 0. -1.
         11   -1    0    0    0    0 -0.00000000000E+00 -0.00000000000E+00 -0.45593999997E+02  0.45594000000E+02  0.51100000000E-03 0.  1.
    9900012    2    1    2    0    0  0.10277734152E+01  0.56626839304E+00  0.12646020314E+00  0.90007758385E+02  0.90000019996E+02 0.  0.
        -12    1    1    2    0    0 -0.10277734152E+01 -0.56626839304E+00 -0.12646020314E+00  0.11802416146E+01  0.00000000000E+00 0.  1.
         11    1    3    3    0    0  0.15889957583E+02  0.10536565935E+02  0.78191567508E+01  0.20607017888E+02  0.51100000000E-03 0. -1.
        -11    1    3    3    0    0  0.98619798098E+00  0.25197487672E+02 -0.16104172748E+02  0.29920400257E+02  0.51100000000E-03 0.  1.
         12    1    3    3    0    0 -0.15848382149E+02 -0.35167785213E+02  0.84114762002E+01  0.39480340239E+02  0.00000000000E+00 0. -1.
</event>
<event>
 7    1  0.2497665E-015  0.9000773E+02  0.7816164E-02  0.1186339E+00
        -11   -1    0    0    0    0  0.00000000000E+00  0.00000000000E+00  0.45593999997E+02  0.45594000000E+02  0.51100000000E-03 0. -1.
         11   -1    0    0    0    0 -0.00000000000E+00 -0.00000000000E+00 -0.45593999997E+02  0.45594000000E+02  0.51100000000E-03 0.  1.
    9900012    2    1    2    0    0  0.87505552435E+00  0.34631598413E-01  0.79127805250E+00  0.90007727796E+02  0.89999989003E+02 0.  0.
        -12    1    1    2    0    0 -0.87505552435E+00 -0.34631598413E-01 -0.79127805250E+00  0.11802722036E+01  0.00000000000E+00 0.  1.
         11    1    3    3    0    0 -0.19586298364E+02 -0.12182733023E+02 -0.16207820425E+02  0.28191053735E+02  0.51100000000E-03 0. -1.
        -11    1    3    3    0    0 -0.13775208574E+02  0.19306805936E+02  0.20949401271E+01  0.23809617828E+02  0.51100000000E-03 0.  1.
         12    1    3    3    0    0  0.34236562463E+02 -0.70894413143E+01  0.14904158350E+02  0.38007056233E+02  0.00000000000E+00 0. -1.
</event>
<event>
 7    1  0.2497665E-015  0.9000770E+02  0.7816164E-02  0.1186339E+00
        -11   -1    0    0    0    0  0.00000000000E+00  0.00000000000E+00  0.45593999997E+02  0.45594000000E+02  0.51100000000E-03 0. -1.
         11   -1    0    0    0    0 -0.00000000000E+00 -0.00000000000E+00 -0.45593999997E+02  0.45594000000E+02  0.51100000000E-03 0.  1.
    9900012    2    1    2    0    0 -0.65212749508E+00 -0.56100396192E+00  0.80815599763E+00  0.90007698415E+02  0.89999959234E+02 0.  0.
        -12    1    1    2    0    0  0.65212749508E+00  0.56100396192E+00 -0.80815599763E+00  0.11803015850E+01  0.00000000000E+00 0.  1.
         11    1    3    3    0    0 -0.56845202525E+01  0.23230669472E+01  0.72348862192E+01  0.94896780456E+01  0.51100000000E-03 0. -1.
        -11    1    3    3    0    0  0.18260731087E+00  0.38043019093E+02 -0.94317281604E+01  0.39195180105E+02  0.51100000000E-03 0.  1.
         12    1    3    3    0    0  0.48497854465E+01 -0.40927090002E+02  0.30049979387E+01  0.41322840264E+02  0.00000000000E+00 0. -1.
</event>
<event>
 7    1  0.2497665E-015  0.9000773E+02  0.7816164E-02  0.1186339E+00
        -11   -1    0    0    0    0  0.00000000000E+00  0.00000000000E+00  0.45593999997E+02  0.45594000000E+02  0.51100000000E-03 0.  1.
         11   -1    0    0    0    0 -0.00000000000E+00 -0.00000000000E+00 -0.45593999997E+02  0.45594000000E+02  0.51100000000E-03 0. -1.
    9900012    2    1    2    0    0  0.92303493938E+00 -0.56804803569E+00 -0.46728414278E+00  0.90007734547E+02  0.89999995843E+02 0.  0.
        -12    1    1    2    0    0 -0.92303493938E+00  0.56804803569E+00  0.46728414278E+00  0.11802654533E+01  0.00000000000E+00 0.  1.
         11    1    3    3    0    0 -0.12747338359E+02  0.35915198848E+02 -0.12383414332E+02  0.40071749329E+02  0.51100000000E-03 0. -1.
        -11    1    3    3    0    0  0.21898314423E+01  0.24049113894E+01  0.86686447344E+01  0.92587451811E+01  0.51100000000E-03 0.  1.
        -12    1    3    3    0    0  0.11480541856E+02 -0.38888158273E+02  0.32474854552E+01  0.40677240036E+02  0.00000000000E+00 0.  1.
</event>
<event>
 7    1  0.2497665E-015  0.9000766E+02  0.7816164E-02  0.1186339E+00
        -11   -1    0    0    0    0  0.00000000000E+00  0.00000000000E+00  0.45593999997E+02  0.45594000000E+02  0.51100000000E-03 0.  1.
         11   -1    0    0    0    0 -0.00000000000E+00 -0.00000000000E+00 -0.45593999997E+02  0.45594000000E+02  0.51100000000E-03 0. -1.
    9900012    2    1    2    0    0 -0.73870447341E+00 -0.47881015009E+00 -0.78630179938E+00  0.90007655144E+02  0.89999915392E+02 0.  0.
        -12    1    1    2    0    0  0.73870447341E+00  0.47881015009E+00  0.78630179938E+00  0.11803448558E+01  0.00000000000E+00 0.  1.
         11    1    3    3    0    0  0.82449616888E+01  0.34677240463E+01 -0.15055616925E+02  0.17512170185E+02  0.51100000000E-03 0. -1.
        -11    1    3    3    0    0  0.23525166561E+02  0.18513794742E+02 -0.14470093911E+01  0.29971451315E+02  0.51100000000E-03 0.  1.
         12    1    3    3    0    0 -0.32508832723E+02 -0.22460328939E+02  0.15716324517E+02  0.42524033645E+02  0.00000000000E+00 0. -1.
</event>
<event>
 7    1  0.2497665E-015  0.9000765E+02  0.7816164E-02  0.1186339E+00
        -11   -1    0    0    0    0  0.00000000000E+00  0.00000000000E+00  0.45593999997E+02  0.45594000000E+02  0.51100000000E-03 0.  1.
         11   -1    0    0    0    0 -0.00000000000E+00 -0.00000000000E+00 -0.45593999997E+02  0.45594000000E+02  0.51100000000E-03 0. -1.
    9900012    2    1    2    0    0 -0.10685095046E+01 -0.48007684139E+00 -0.14506258069E+00  0.90007648575E+02  0.89999908736E+02 0.  0.
        -12    1    1    2    0    0  0.10685095046E+01  0.48007684139E+00  0.14506258069E+00  0.11803514254E+01  0.00000000000E+00 0.  1.
         11    1    3    3    0    0  0.12272255312E+02 -0.39233551325E+01 -0.39346318746E+02  0.41402098559E+02  0.51100000000E-03 0. -1.
        -11    1    3    3    0    0 -0.92102396139E+01  0.73558397445E+00  0.14751019601E+00  0.92407443990E+01  0.51100000000E-03 0.  1.
        -12    1    3    3    0    0 -0.41305252027E+01  0.27076943166E+01  0.39053745970E+02  0.39364805617E+02  0.00000000000E+00 0.  1.
</event>
<event>
 7    1  0.2497665E-015  0.9000771E+02  0.7816164E-02  0.1186339E+00
        -11   -1    0    0    0    0  0.00000000000E+00  0.00000000000E+00  0.45593999997E+02  0.45594000000E+02  0.51100000000E-03 0.  1.
         11   -1    0    0    0    0 -0.00000000000E+00 -0.00000000000E+00 -0.45593999997E+02  0.45594000000E+02  0.51100000000E-03 0. -1.
    9900012    2    1    2    0    0 -0.98731592107E+00 -0.15245348522E+00 -0.62853047824E+00  0.90007709631E+02  0.89999970598E+02 0.  0.
        -12    1    1    2    0    0  0.98731592107E+00  0.15245348522E+00  0.62853047824E+00  0.11802903690E+01  0.00000000000E+00 0.  1.
         11    1    3    3    0    0  0.24246957369E+02 -0.48480757601E+01  0.30194909779E+02  0.39027571754E+02  0.51100000000E-03 0. -1.
        -11    1    3    3    0    0 -0.44613665608E+01 -0.11293497851E+02 -0.25185172683E+01  0.12401202151E+02  0.51100000000E-03 0.  1.
        -12    1    3    3    0    0 -0.20772906729E+02  0.15989120126E+02 -0.28304922988E+02  0.38578935726E+02  0.00000000000E+00 0.  1.
</event>
<event>
 7    1  0.2497665E-015  0.9000774E+02  0.7816164E-02  0.1186339E+00
        -11   -1    0    0    0    0  0.00000000000E+00  0.00000000000E+00  0.45593999997E+02  0.45594000000E+02  0.51100000000E-03 0.  1.
         11   -1    0    0    0    0 -0.00000000000E+00 -0.00000000000E+00 -0.45593999997E+02  0.45594000000E+02  0.51100000000E-03 0. -1.
    9900012    2    1    2    0    0 -0.67921945902E+00 -0.83399625179E+00  0.48592157411E+00  0.90007742148E+02  0.90000003544E+02 0.  0.
        -12    1    1    2    0    0  0.67921945902E+00  0.83399625179E+00 -0.48592157411E+00  0.11802578522E+01  0.00000000000E+00 0.  1.
         11    1    3    3    0    0 -0.51986632571E+01  0.79167809475E-01 -0.84282012611E+01  0.99028755400E+01  0.51100000000E-03 0. -1.
        -11    1    3    3    0    0 -0.55483026731E+01  0.10536012121E+02  0.42010619172E+02  0.43665585275E+02  0.51100000000E-03 0.  1.
         12    1    3    3    0    0  0.10067746471E+02 -0.11449176182E+02 -0.33096496337E+02  0.36439281332E+02  0.00000000000E+00 0. -1.
</event>
<event>
 7    1  0.2497665E-015  0.9000807E+02  0.7816164E-02  0.1186338E+00
        -11   -1    0    0    0    0  0.00000000000E+00  0.00000000000E+00  0.45593999997E+02  0.45594000000E+02  0.51100000000E-03 0.  1.
         11   -1    0    0    0    0 -0.00000000000E+00 -0.00000000000E+00 -0.45593999997E+02  0.45594000000E+02  0.51100000000E-03 0. -1.
    9900012    2    1    2    0    0  0.54855536303E+00 -0.95503214578E+00  0.42336688128E+00  0.90008068264E+02  0.90000333964E+02 0.  0.
        -12    1    1    2    0    0 -0.54855536303E+00  0.95503214578E+00 -0.42336688128E+00  0.11799317361E+01  0.00000000000E+00 0.  1.
         11    1    3    3    0    0  0.94607768086E+01 -0.13638107700E+01  0.16172383969E+01  0.96944178749E+01  0.51100000000E-03 0. -1.
        -11    1    3    3    0    0 -0.18114416543E+02 -0.26494212232E+02  0.25745565847E+02  0.41144981826E+02  0.51100000000E-03 0.  1.
         12    1    3    3    0    0  0.92021950969E+01  0.26902990856E+02 -0.26939437362E+02  0.39168668563E+02  0.00000000000E+00 0. -1.
</event>
<event>
 7    1  0.2497665E-015  0.9000782E+02  0.7816164E-02  0.1186339E+00
        -11   -1    0    0    0    0  0.00000000000E+00  0.00000000000E+00  0.45593999997E+02  0.45594000000E+02  0.51100000000E-03 0.  1.
         11   -1    0    0    0    0 -0.00000000000E+00 -0.00000000000E+00 -0.45593999997E+02  0.45594000000E+02  0.51100000000E-03 0. -1.
    9900012    2    1    2    0    0  0.10082873277E+01 -0.61272162794E+00 -0.27324830233E-01  0.90007822990E+02  0.90000085453E+02 0.  0.
        -12    1    1    2    0    0 -0.10082873277E+01  0.61272162794E+00  0.27324830233E-01  0.11801770100E+01  0.00000000000E+00 0.  1.
         11    1    3    3    0    0  0.24889459592E+02  0.35695657606E+02 -0.11559294993E+00  0.43516416818E+02  0.51100000000E-03 0. -1.
        -11    1    3    3    0    0 -0.57401881357E+01 -0.29482286215E+01 -0.50200579471E+01  0.81757442408E+01  0.51100000000E-03 0.  1.
        -12    1    3    3    0    0 -0.18140984128E+02 -0.33360150612E+02  0.51083260668E+01  0.38315661931E+02  0.00000000000E+00 0.  1.
</event>
<event>
 7    1  0.2497665E-015  0.9000773E+02  0.7816164E-02  0.1186339E+00
        -11   -1    0    0    0    0  0.00000000000E+00  0.00000000000E+00  0.45593999997E+02  0.45594000000E+02  0.51100000000E-03 0.  1.
         11   -1    0    0    0    0 -0.00000000000E+00 -0.00000000000E+00 -0.45593999997E+02  0.45594000000E+02  0.51100000000E-03 0. -1.
    9900012    2    1    2    0    0 -0.85445587916E+00 -0.45903110397E+00 -0.67247847707E+00  0.90007732358E+02  0.89999993625E+02 0.  0.
        -12    1    1    2    0    0  0.85445587916E+00  0.45903110397E+00  0.67247847707E+00  0.11802676417E+01  0.00000000000E+00 0.  1.
         11    1    3    3    0    0 -0.29512150366E+01  0.58987785284E+01 -0.39165228790E+01  0.76710110183E+01  0.51100000000E-03 0. -1.
        -11    1    3    3    0    0 -0.13857181176E+02  0.29097265323E+02 -0.19130906423E+02  0.37478846037E+02  0.51100000000E-03 0.  1.
         12    1    3    3    0    0  0.15953940333E+02 -0.35455074956E+02  0.22374950825E+02  0.44857875303E+02  0.00000000000E+00 0. -1.
</event>
<event>
 7    1  0.2497665E-015  0.9000775E+02  0.7816164E-02  0.1186339E+00
        -11   -1    0    0    0    0  0.00000000000E+00  0.00000000000E+00  0.45593999997E+02  0.45594000000E+02  0.51100000000E-03 0. -1.
         11   -1    0    0    0    0 -0.00000000000E+00 -0.00000000000E+00 -0.45593999997E+02  0.45594000000E+02  0.51100000000E-03 0.  1.
    9900012    2    1    2    0    0  0.24568973717E+00  0.11478421088E+01 -0.12282290258E+00  0.90007749849E+02  0.90000011347E+02 0.  0.
        -12    1    1    2    0    0 -0.24568973717E+00 -0.11478421088E+01  0.12282290258E+00  0.11802501511E+01  0.00000000000E+00 0.  1.
         11    1    3    3    0    0 -0.78607103114E+01  0.18600269688E+01  0.65030293141E+01  0.10370142595E+02  0.51100000000E-03 0. -1.
        -11    1    3    3    0    0  0.12762450701E+02  0.35175738411E+02 -0.18243568407E+02  0.41629803136E+02  0.51100000000E-03 0.  1.
         12    1    3    3    0    0 -0.46560506528E+01 -0.35887923271E+02  0.11617716190E+02  0.38007804118E+02  0.00000000000E+00 0. -1.
</event>
<event>
 7    1  0.2497665E-015  0.9000769E+02  0.7816164E-02  0.1186339E+00
        -11   -1    0    0    0    0  0.00000000000E+00  0.00000000000E+00  0.45593999997E+02  0.45594000000E+02  0.51100000000E-03 0. -1.
         11   -1    0    0    0    0 -0.00000000000E+00 -0.00000000000E+00 -0.45593999997E+02  0.45594000000E+02  0.51100000000E-03 0.  1.
    9900012    2    1    2    0    0 -0.66582929546E+00  0.71113714030E+00 -0.66640659347E+00  0.90007685453E+02  0.89999946101E+02 0.  0.
        -12    1    1    2    0    0  0.66582929546E+00 -0.71113714030E+00  0.66640659347E+00  0.11803145474E+01  0.00000000000E+00 0.  1.
         11    1    3    3    0    0  0.26426601747E+02 -0.30088965598E+02 -0.36304133512E+01  0.40210583582E+02  0.51100000000E-03 0. -1.
        -11    1    3    3    0    0  0.31943720528E+01  0.21321263559E+01  0.69122934594E+01  0.79075771725E+01  0.51100000000E-03 0.  1.
        -12    1    3    3    0    0 -0.30286803095E+02  0.28667976382E+02 -0.39482867016E+01  0.41889524698E+02  0.00000000000E+00 0.  1.
</event>
<event>
 7    1  0.2497665E-015  0.9000770E+02  0.7816164E-02  0.1186339E+00
        -11   -1    0    0    0    0  0.00000000000E+00  0.00000000000E+00  0.45593999997E+02  0.45594000000E+02  0.51100000000E-03 0.  1.
         11   -1    0    0    0    0 -0.00000000000E+00 -0.00000000000E+00 -0.45593999997E+02  0.45594000000E+02  0.51100000000E-03 0. -1.
    9900012    2    1    2    0    0 -0.99837914409E+00  0.32632609913E+00 -0.53837729565E+00  0.90007703533E+02  0.89999964419E+02 0.  0.
        -12    1    1    2    0    0  0.99837914409E+00 -0.32632609913E+00  0.53837729565E+00  0.11802964673E+01  0.00000000000E+00 0.  1.
         11    1    3    3    0    0  0.35360601417E+02  0.83779581533E+01 -0.11520357601E+02  0.38121922236E+02  0.51100000000E-03 0. -1.
        -11    1    3    3    0    0  0.41694843663E+01 -0.89309105628E+01  0.44917787284E+01  0.10831520658E+02  0.51100000000E-03 0.  1.
         12    1    3    3    0    0 -0.40528464928E+02  0.87927850863E+00  0.64902015772E+01  0.41054260639E+02  0.00000000000E+00 0. -1.
</event>
<event>
 7    1  0.2497665E-015  0.9000770E+02  0.7816164E-02  0.1186339E+00
        -11   -1    0    0    0    0  0.00000000000E+00  0.00000000000E+00  0.45593999997E+02  0.45594000000E+02  0.51100000000E-03 0. -1.
         11   -1    0    0    0    0 -0.00000000000E+00 -0.00000000000E+00 -0.45593999997E+02  0.45594000000E+02  0.51100000000E-03 0.  1.
    9900012    2    1    2    0    0 -0.77885784831E+00  0.67605314435E+00 -0.57397293683E+00  0.90007698202E+02  0.89999959018E+02 0.  0.
        -12    1    1    2    0    0  0.77885784831E+00 -0.67605314435E+00  0.57397293683E+00  0.11803017979E+01  0.00000000000E+00 0.  1.
         11    1    3    3    0    0  0.10833965404E+02  0.21044704891E+01  0.83315440405E+00  0.11067870118E+02  0.51100000000E-03 0. -1.
        -11    1    3    3    0    0  0.85006948628E+01 -0.11935693540E+02 -0.35260654631E+02  0.38184242283E+02  0.51100000000E-03 0.  1.
         12    1    3    3    0    0 -0.20113518115E+02  0.10507276196E+02  0.33853527290E+02  0.40755585802E+02  0.00000000000E+00 0. -1.
</event>
<event>
 7    1  0.2497665E-015  0.9000772E+02  0.7816164E-02  0.1186339E+00
        -11   -1    0    0    0    0  0.00000000000E+00  0.00000000000E+00  0.45593999997E+02  0.45594000000E+02  0.51100000000E-03 0. -1.
         11   -1    0    0    0    0 -0.00000000000E+00 -0.00000000000E+00 -0.45593999997E+02  0.45594000000E+02  0.51100000000E-03 0.  1.
    9900012    2    1    2    0    0  0.43136588804E+00 -0.77725790799E+00  0.77642959201E+00  0.90007724907E+02  0.89999986075E+02 0.  0.
        -12    1    1    2    0    0 -0.43136588804E+00  0.77725790799E+00 -0.77642959201E+00  0.11802750935E+01  0.00000000000E+00 0.  1.
         11    1    3    3    0    0  0.24585190266E+02 -0.32189530267E+02  0.14434178583E+02  0.42999336633E+02  0.51100000000E-03 0. -1.
        -11    1    3    3    0    0 -0.66797552393E+01 -0.61514469984E+00 -0.74061591191E+01  0.99924334482E+01  0.51100000000E-03 0.  1.
        -12    1    3    3    0    0 -0.17474069139E+02  0.32027417059E+02 -0.62515898719E+01  0.37015954826E+02  0.00000000000E+00 0.  1.
</event>
<event>
 7    1  0.4259260E-015  0.9000775E+02  0.7816164E-02  0.1186339E+00
        -11   -1    0    0    0    0  0.00000000000E+00  0.00000000000E+00  0.45593999997E+02  0.45594000000E+02  0.51100000000E-03 0. -1.
         11   -1    0    0    0    0 -0.00000000000E+00 -0.00000000000E+00 -0.45593999997E+02  0.45594000000E+02  0.51100000000E-03 0.  1.
    9900012    2    1    2    0    0  0.72223006344E+00  0.61409946497E+00 -0.70302512793E+00  0.90007754793E+02  0.90000016357E+02 0.  0.
        -12    1    1    2    0    0 -0.72223006344E+00 -0.61409946497E+00  0.70302512793E+00  0.11802452067E+01  0.00000000000E+00 0.  1.
         11    1    3    3    0    0  0.25054331409E+02  0.19720246955E+02 -0.18129278835E+02  0.36678037211E+02  0.51100000000E-03 0. -1.
        -11    1    3    3    0    0  0.13125553253E+01  0.50628966904E+01 -0.82223158304E+01  0.97448551685E+01  0.51100000000E-03 0.  1.
        -12    1    3    3    0    0 -0.25644656671E+02 -0.24169044180E+02  0.25648569537E+02  0.43584862414E+02  0.00000000000E+00 0.  1.
</event>
<event>
 7    1  0.2497665E-015  0.9000773E+02  0.7816164E-02  0.1186339E+00
        -11   -1    0    0    0    0  0.00000000000E+00  0.00000000000E+00  0.45593999997E+02  0.45594000000E+02  0.51100000000E-03 0.  1.
         11   -1    0    0    0    0 -0.00000000000E+00 -0.00000000000E+00 -0.45593999997E+02  0.45594000000E+02  0.51100000000E-03 0. -1.
    9900012    2    1    2    0    0 -0.87448236633E+00  0.60377631550E+00 -0.51358840095E+00  0.90007729568E+02  0.89999990798E+02 0.  0.
        -12    1    1    2    0    0  0.87448236633E+00 -0.60377631550E+00  0.51358840095E+00  0.11802704325E+01  0.00000000000E+00 0.  1.
         11    1    3    3    0    0  0.33956041755E+01  0.83038848813E+01 -0.56229536629E+01  0.10587834528E+02  0.51100000000E-03 0. -1.
        -11    1    3    3    0    0  0.13075766550E+02  0.27050167028E+02  0.21826547945E+02  0.37136039134E+02  0.51100000000E-03 0.  1.
         12    1    3    3    0    0 -0.17345853091E+02 -0.34750275594E+02 -0.16717182683E+02  0.42283855905E+02  0.00000000000E+00 0. -1.
</event>
<event>
 7    1  0.2497665E-015  0.9000773E+02  0.7816164E-02  0.1186339E+00
        -11   -1    0    0    0    0  0.00000000000E+00  0.00000000000E+00  0.45593999997E+02  0.45594000000E+02  0.51100000000E-03 0.  1.
         11   -1    0    0    0    0 -0.00000000000E+00 -0.00000000000E+00 -0.45593999997E+02  0.45594000000E+02  0.51100000000E-03 0. -1.
    9900012    2    1    2    0    0  0.36081282972E-01 -0.96813091663E+00  0.67414240819E+00  0.90007725745E+02  0.89999986925E+02 0.  0.
        -12    1    1    2    0    0 -0.36081282972E-01  0.96813091663E+00 -0.67414240819E+00  0.11802742551E+01  0.00000000000E+00 0.  1.
         11    1    3    3    0    0 -0.74270973716E+01 -0.64175685807E+01 -0.10284371264E+01  0.98693791618E+01  0.51100000000E-03 0. -1.
        -11    1    3    3    0    0 -0.32637482263E+02  0.58278227355E+01 -0.15382103678E+02  0.36548295175E+02  0.51100000000E-03 0.  1.
         12    1    3    3    0    0  0.40100660918E+02 -0.37838507146E+00  0.17084683213E+02  0.43590051409E+02  0.00000000000E+00 0. -1.
</event>
<event>
 7    1  0.2497665E-015  0.9000773E+02  0.7816164E-02  0.1186339E+00
        -11   -1    0    0    0    0  0.00000000000E+00  0.00000000000E+00  0.45593999997E+02  0.45594000000E+02  0.51100000000E-03 0.  1.
         11   -1    0    0    0    0 -0.00000000000E+00 -0.00000000000E+00 -0.45593999997E+02  0.45594000000E+02  0.51100000000E-03 0. -1.
    9900012    2    1    2    0    0 -0.94206280224E+00  0.25676634504E+00  0.66303792492E+00  0.90007732840E+02  0.89999994113E+02 0.  0.
        -12    1    1    2    0    0  0.94206280224E+00 -0.25676634504E+00 -0.66303792492E+00  0.11802671601E+01  0.00000000000E+00 0.  1.
         11    1    3    3    0    0 -0.98350258213E+01 -0.95263753780E+00  0.53108388229E+01  0.11217854539E+02  0.51100000000E-03 0. -1.
        -11    1    3    3    0    0 -0.17160396730E+02 -0.90715705865E+01  0.29071059315E+02  0.34955673343E+02  0.51100000000E-03 0.  1.
         12    1    3    3    0    0  0.26053359749E+02  0.10280974469E+02 -0.33718860213E+02  0.43834204959E+02  0.00000000000E+00 0. -1.
</event>
<event>
 7    1  0.2497665E-015  0.9000773E+02  0.7816164E-02  0.1186339E+00
        -11   -1    0    0    0    0  0.00000000000E+00  0.00000000000E+00  0.45593999997E+02  0.45594000000E+02  0.51100000000E-03 0. -1.
         11   -1    0    0    0    0 -0.00000000000E+00 -0.00000000000E+00 -0.45593999997E+02  0.45594000000E+02  0.51100000000E-03 0.  1.
    9900012    2    1    2    0    0 -0.81155601064E+00  0.51387350959E+00  0.68581262196E+00  0.90007733888E+02  0.89999995176E+02 0.  0.
        -12    1    1    2    0    0  0.81155601064E+00 -0.51387350959E+00 -0.68581262196E+00  0.11802661118E+01  0.00000000000E+00 0.  1.
         11    1    3    3    0    0  0.24645794831E+02  0.24857545681E+02 -0.17612492606E+02  0.39185618232E+02  0.51100000000E-03 0. -1.
        -11    1    3    3    0    0  0.57114617296E+01  0.27796919758E+00  0.79192661723E+01  0.97679495767E+01  0.51100000000E-03 0.  1.
        -12    1    3    3    0    0 -0.31168812572E+02 -0.24621641369E+02  0.10379039056E+02  0.41054166080E+02  0.00000000000E+00 0.  1.
</event>
<event>
 7    1  0.2497665E-015  0.9000771E+02  0.7816164E-02  0.1186339E+00
        -11   -1    0    0    0    0  0.00000000000E+00  0.00000000000E+00  0.45593999997E+02  0.45594000000E+02  0.51100000000E-03 0. -1.
         11   -1    0    0    0    0 -0.00000000000E+00 -0.00000000000E+00 -0.45593999997E+02  0.45594000000E+02  0.51100000000E-03 0.  1.
    9900012    2    1    2    0    0 -0.53348939969E+00  0.67259171261E+00  0.81000094189E+00  0.90007706783E+02  0.89999967713E+02 0.  0.
        -12    1    1    2    0    0  0.53348939969E+00 -0.67259171261E+00 -0.81000094189E+00  0.11802932167E+01  0.00000000000E+00 0.  1.
         11    1    3    3    0    0 -0.57930047528E+01 -0.90895242215E+01  0.31070438337E+01  0.11217489750E+02  0.51100000000E-03 0. -1.
        -11    1    3    3    0    0 -0.31616951932E+02  0.16822619063E+01 -0.19626648552E+02  0.37251402500E+02  0.51100000000E-03 0.  1.
         12    1    3    3    0    0  0.36876467285E+02  0.80798540278E+01  0.17329605660E+02  0.41538814534E+02  0.00000000000E+00 0. -1.
</event>
<event>
 7    1  0.2497665E-015  0.9000773E+02  0.7816164E-02  0.1186339E+00
        -11   -1    0    0    0    0  0.00000000000E+00  0.00000000000E+00  0.45593999997E+02  0.45594000000E+02  0.51100000000E-03 0.  1.
         11   -1    0    0    0    0 -0.00000000000E+00 -0.00000000000E+00 -0.45593999997E+02  0.45594000000E+02  0.51100000000E-03 0. -1.
    9900012    2    1    2    0    0 -0.96788209305E+00 -0.10952028431E+00 -0.66652579797E+00  0.90007725846E+02  0.89999987027E+02 0.  0.
        -12    1    1    2    0    0  0.96788209305E+00  0.10952028431E+00  0.66652579797E+00  0.11802741538E+01  0.00000000000E+00 0.  1.
         11    1    3    3    0    0 -0.18281277884E+01  0.10059224594E+02 -0.36586277282E+01  0.10858895329E+02  0.51100000000E-03 0. -1.
        -11    1    3    3    0    0 -0.13591779190E+02  0.19359134304E+02  0.28861385027E+02  0.37316110307E+02  0.51100000000E-03 0.  1.
         12    1    3    3    0    0  0.14452024885E+02 -0.29527879182E+02 -0.25869283097E+02  0.41832720210E+02  0.00000000000E+00 0. -1.
</event>
<event>
 7    1  0.2497665E-015  0.9000775E+02  0.7816164E-02  0.1186339E+00
        -11   -1    0    0    0    0  0.00000000000E+00  0.00000000000E+00  0.45593999997E+02  0.45594000000E+02  0.51100000000E-03 0. -1.
         11   -1    0    0    0    0 -0.00000000000E+00 -0.00000000000E+00 -0.45593999997E+02  0.45594000000E+02  0.51100000000E-03 0.  1.
    9900012    2    1    2    0    0 -0.74088918037E-01  0.11442008707E+01 -0.27981159254E+00  0.90007754548E+02  0.90000016108E+02 0.  0.
        -12    1    1    2    0    0  0.74088918037E-01 -0.11442008707E+01  0.27981159254E+00  0.11802454523E+01  0.00000000000E+00 0.  1.
         11    1    3    3    0    0 -0.38443039726E+01  0.62515076446E+01  0.47221393204E+01  0.87268906770E+01  0.51100000000E-03 0. -1.
        -11    1    3    3    0    0 -0.33623012391E+02 -0.21684086563E+02 -0.54310008566E+01  0.40375764301E+02  0.51100000000E-03 0.  1.
         12    1    3    3    0    0  0.37393227446E+02  0.16576779789E+02  0.42904994365E+00  0.40905099570E+02  0.00000000000E+00 0. -1.
</event>
<event>
 7    1  0.2497665E-015  0.9000781E+02  0.7816164E-02  0.1186339E+00
        -11   -1    0    0    0    0  0.00000000000E+00  0.00000000000E+00  0.45593999997E+02  0.45594000000E+02  0.51100000000E-03 0.  1.
         11   -1    0    0    0    0 -0.00000000000E+00 -0.00000000000E+00 -0.45593999997E+02  0.45594000000E+02  0.51100000000E-03 0. -1.
    9900012    2    1    2    0    0  0.54594405242E+00  0.85901452644E+00  0.59740710223E+00  0.90007806749E+02  0.90000068998E+02 0.  0.
        -12    1    1    2    0    0 -0.54594405242E+00 -0.85901452644E+00 -0.59740710223E+00  0.11801932515E+01  0.00000000000E+00 0.  1.
         11    1    3    3    0    0  0.57855969667E+01 -0.21058361363E+02 -0.30181169184E+02  0.37253599681E+02  0.51100000000E-03 0. -1.
        -11    1    3    3    0    0 -0.52287140685E+01 -0.62711694376E+01 -0.30539853249E+01  0.87174447834E+01  0.51100000000E-03 0.  1.
        -12    1    3    3    0    0 -0.10938845773E-01  0.28188545327E+02  0.33832561612E+02  0.44036762285E+02  0.00000000000E+00 0.  1.
</event>
<event>
 7    1  0.2497665E-015  0.9000798E+02  0.7816164E-02  0.1186339E+00
        -11   -1    0    0    0    0  0.00000000000E+00  0.00000000000E+00  0.45593999997E+02  0.45594000000E+02  0.51100000000E-03 0. -1.
         11   -1    0    0    0    0 -0.00000000000E+00 -0.00000000000E+00 -0.45593999997E+02  0.45594000000E+02  0.51100000000E-03 0.  1.
    9900012    2    1    2    0    0  0.11687626737E+01  0.14088445763E+00  0.81171744578E-01  0.90007981581E+02  0.90000246137E+02 0.  0.
        -12    1    1    2    0    0 -0.11687626737E+01 -0.14088445763E+00 -0.81171744578E-01  0.11800184194E+01  0.00000000000E+00 0.  1.
         11    1    3    3    0    0  0.35561001015E+02  0.20043556096E+02 -0.22057214760E+01  0.40880241458E+02  0.51100000000E-03 0. -1.
        -11    1    3    3    0    0 -0.46414896560E+01  0.65046457027E+01 -0.38621257541E+01  0.88752384501E+01  0.51100000000E-03 0.  1.
        -12    1    3    3    0    0 -0.29750748686E+02 -0.26407317341E+02  0.61490189747E+01  0.40252501672E+02  0.00000000000E+00 0.  1.
</event>
<event>
 7    1  0.2497665E-015  0.9000773E+02  0.7816164E-02  0.1186339E+00
        -11   -1    0    0    0    0  0.00000000000E+00  0.00000000000E+00  0.45593999997E+02  0.45594000000E+02  0.51100000000E-03 0. -1.
         11   -1    0    0    0    0 -0.00000000000E+00 -0.00000000000E+00 -0.45593999997E+02  0.45594000000E+02  0.51100000000E-03 0.  1.
    9900012    2    1    2    0    0  0.11078801815E+01 -0.40608693917E+00 -0.27128527533E-01  0.90007728398E+02  0.89999989612E+02 0.  0.
        -12    1    1    2    0    0 -0.11078801815E+01  0.40608693917E+00  0.27128527533E-01  0.11802716025E+01  0.00000000000E+00 0.  1.
         11    1    3    3    0    0  0.44705878030E-01 -0.19613094098E+01  0.11183237921E+02  0.11354010035E+02  0.51100000000E-03 0. -1.
        -11    1    3    3    0    0  0.26150684523E+02 -0.22694233067E+02  0.12115396356E+02  0.36683366049E+02  0.51100000000E-03 0.  1.
         12    1    3    3    0    0 -0.25087510220E+02  0.24249455538E+02 -0.23325762804E+02  0.41970352314E+02  0.00000000000E+00 0. -1.
</event>
<event>
 7    1  0.2497665E-015  0.9000780E+02  0.7816164E-02  0.1186339E+00
        -11   -1    0    0    0    0  0.00000000000E+00  0.00000000000E+00  0.45593999997E+02  0.45594000000E+02  0.51100000000E-03 0.  1.
         11   -1    0    0    0    0 -0.00000000000E+00 -0.00000000000E+00 -0.45593999997E+02  0.45594000000E+02  0.51100000000E-03 0. -1.
    9900012    2    1    2    0    0 -0.16889875754E-01  0.93702892236E+00 -0.71732570346E+00  0.90007803138E+02  0.90000065339E+02 0.  0.
        -12    1    1    2    0    0  0.16889875754E-01 -0.93702892236E+00  0.71732570346E+00  0.11801968624E+01  0.00000000000E+00 0.  1.
         11    1    3    3    0    0 -0.21425760743E+02  0.23849978283E+02 -0.26477271452E+02  0.41580411149E+02  0.51100000000E-03 0. -1.
        -11    1    3    3    0    0 -0.55150181227E+01 -0.32663290819E+01  0.91934517247E+01  0.11207313926E+02  0.51100000000E-03 0.  1.
        -12    1    3    3    0    0  0.26923888990E+02 -0.19646620279E+02  0.16566494024E+02  0.37220078062E+02  0.00000000000E+00 0.  1.
</event>
<event>
 7    1  0.2497665E-015  0.9000774E+02  0.7816164E-02  0.1186339E+00
        -11   -1    0    0    0    0  0.00000000000E+00  0.00000000000E+00  0.45593999997E+02  0.45594000000E+02  0.51100000000E-03 0. -1.
         11   -1    0    0    0    0 -0.00000000000E+00 -0.00000000000E+00 -0.45593999997E+02  0.45594000000E+02  0.51100000000E-03 0.  1.
    9900012    2    1    2    0    0 -0.26885744634E+00  0.66189431968E-01  0.11473228014E+01  0.90007739445E+02  0.90000000806E+02 0.  0.
        -12    1    1    2    0    0  0.26885744634E+00 -0.66189431968E-01 -0.11473228014E+01  0.11802605551E+01  0.00000000000E+00 0.  1.
         11    1    3    3    0    0  0.13728115513E+02  0.13265090353E+02  0.14778274305E+02  0.24141689446E+02  0.51100000000E-03 0. -1.
        -11    1    3    3    0    0 -0.35487827992E+02  0.45158878374E+01 -0.12825354514E+02  0.38003537957E+02  0.51100000000E-03 0.  1.
         12    1    3    3    0    0  0.21490855033E+02 -0.17714788758E+02 -0.80559698980E+00  0.27862512042E+02  0.00000000000E+00 0. -1.
</event>
<event>
 7    1  0.2497665E-015  0.9000880E+02  0.7816164E-02  0.1186337E+00
        -11   -1    0    0    0    0  0.00000000000E+00  0.00000000000E+00  0.45593999997E+02  0.45594000000E+02  0.51100000000E-03 0.  1.
         11   -1    0    0    0    0 -0.00000000000E+00 -0.00000000000E+00 -0.45593999997E+02  0.45594000000E+02  0.51100000000E-03 0. -1.
    9900012    2    1    2    0    0  0.11205076159E+01  0.26691075611E+00  0.25245433931E+00  0.90008800330E+02  0.90001075688E+02 0.  0.
        -12    1    1    2    0    0 -0.11205076159E+01 -0.26691075611E+00 -0.25245433931E+00  0.11791996703E+01  0.00000000000E+00 0.  1.
         11    1    3    3    0    0 -0.16858687434E+02 -0.20226553037E+02 -0.11959564163E+02  0.28919888745E+02  0.51100000000E-03 0. -1.
        -11    1    3    3    0    0 -0.79312498633E+01  0.25210400281E+02 -0.83064328831E+01  0.27703173721E+02  0.51100000000E-03 0.  1.
        -12    1    3    3    0    0  0.25910444913E+02 -0.47169364876E+01  0.20518451386E+02  0.33385737864E+02  0.00000000000E+00 0.  1.
</event>
<event>
 7    1  0.2497665E-015  0.9000779E+02  0.7816164E-02  0.1186339E+00
        -11   -1    0    0    0    0  0.00000000000E+00  0.00000000000E+00  0.45593999997E+02  0.45594000000E+02  0.51100000000E-03 0. -1.
         11   -1    0    0    0    0 -0.00000000000E+00 -0.00000000000E+00 -0.45593999997E+02  0.45594000000E+02  0.51100000000E-03 0.  1.
    9900012    2    1    2    0    0 -0.10849311258E+01  0.45955875856E+00  0.68016459514E-01  0.90007789833E+02  0.90000051858E+02 0.  0.
        -12    1    1    2    0    0  0.10849311258E+01 -0.45955875856E+00 -0.68016459514E-01  0.11802101673E+01  0.00000000000E+00 0.  1.
         11    1    3    3    0    0 -0.82542583527E+01 -0.48686893754E+00 -0.48226880821E+01  0.95722590287E+01  0.51100000000E-03 0. -1.
        -11    1    3    3    0    0 -0.64739304571E+01 -0.37815918599E+02 -0.33923708039E+01  0.38515758528E+02  0.51100000000E-03 0.  1.
         12    1    3    3    0    0  0.13643257684E+02  0.38762346295E+02  0.82830753455E+01  0.41919772276E+02  0.00000000000E+00 0. -1.
</event>
<event>
 7    1  0.2497665E-015  0.9000775E+02  0.7816164E-02  0.1186339E+00
        -11   -1    0    0    0    0  0.00000000000E+00  0.00000000000E+00  0.45593999997E+02  0.45594000000E+02  0.51100000000E-03 0. -1.
         11   -1    0    0    0    0 -0.00000000000E+00 -0.00000000000E+00 -0.45593999997E+02  0.45594000000E+02  0.51100000000E-03 0.  1.
    9900012    2    1    2    0    0 -0.73745626485E-01  0.10406046090E+01  0.55199541632E+00  0.90007747777E+02  0.90000009248E+02 0.  0.
        -12    1    1    2    0    0  0.73745626485E-01 -0.10406046090E+01 -0.55199541632E+00  0.11802522228E+01  0.00000000000E+00 0.  1.
         11    1    3    3    0    0  0.35733303733E+02 -0.70663393527E+01  0.13672660697E+02  0.38906860556E+02  0.51100000000E-03 0. -1.
        -11    1    3    3    0    0  0.55891075001E+01 -0.13980770826E+01 -0.54691311429E+01  0.79438112953E+01  0.51100000000E-03 0.  1.
        -12    1    3    3    0    0 -0.41396156860E+02  0.95050210443E+01 -0.76515341377E+01  0.43157075926E+02  0.00000000000E+00 0.  1.
</event>
<event>
 7    1  0.2497665E-015  0.9000776E+02  0.7816164E-02  0.1186339E+00
        -11   -1    0    0    0    0  0.00000000000E+00  0.00000000000E+00  0.45593999997E+02  0.45594000000E+02  0.51100000000E-03 0. -1.
         11   -1    0    0    0    0 -0.00000000000E+00 -0.00000000000E+00 -0.45593999997E+02  0.45594000000E+02  0.51100000000E-03 0.  1.
    9900012    2    1    2    0    0  0.49170540428E+00  0.10706667856E+01  0.69757172910E-01  0.90007759502E+02  0.90000021127E+02 0.  0.
        -12    1    1    2    0    0 -0.49170540428E+00 -0.10706667856E+01 -0.69757172910E-01  0.11802404982E+01  0.00000000000E+00 0.  1.
         11    1    3    3    0    0 -0.34222996411E+02 -0.19192830176E+01  0.23548032459E+01  0.34357564367E+02  0.51100000000E-03 0. -1.
        -11    1    3    3    0    0  0.53961012320E+01  0.12733022786E+02 -0.16595052527E+02  0.21601933858E+02  0.51100000000E-03 0.  1.
        -12    1    3    3    0    0  0.29318600583E+02 -0.97430729825E+01  0.14310006454E+02  0.34048261277E+02  0.00000000000E+00 0.  1.
</event>
<event>
 7    1  0.2497665E-015  0.9000778E+02  0.7816164E-02  0.1186339E+00
        -11   -1    0    0    0    0  0.00000000000E+00  0.00000000000E+00  0.45593999997E+02  0.45594000000E+02  0.51100000000E-03 0.  1.
         11   -1    0    0    0    0 -0.00000000000E+00 -0.00000000000E+00 -0.45593999997E+02  0.45594000000E+02  0.51100000000E-03 0. -1.
    9900012    2    1    2    0    0 -0.11414120164E+01 -0.28188446028E-01  0.29884710867E+00  0.90007777320E+02  0.90000039181E+02 0.  0.
        -12    1    1    2    0    0  0.11414120164E+01  0.28188446028E-01 -0.29884710867E+00  0.11802226799E+01  0.00000000000E+00 0.  1.
         11    1    3    3    0    0  0.91224724110E+01 -0.10675803285E+02  0.54592311959E+01  0.15066369310E+02  0.51100000000E-03 0. -1.
        -11    1    3    3    0    0  0.29910396719E+02 -0.68425157175E+01 -0.52259708681E+01  0.31124951808E+02  0.51100000000E-03 0.  1.
         12    1    3    3    0    0 -0.40174281147E+02  0.17490130557E+02  0.65586780835E-01  0.43816456203E+02  0.00000000000E+00 0. -1.
</event>
<event>
 7    1  0.2497665E-015  0.9000776E+02  0.7816164E-02  0.1186339E+00
        -11   -1    0    0    0    0  0.00000000000E+00  0.00000000000E+00  0.45593999997E+02  0.45594000000E+02  0.51100000000E-03 0.  1.
         11   -1    0    0    0    0 -0.00000000000E+00 -0.00000000000E+00 -0.45593999997E+02  0.45594000000E+02  0.51100000000E-03 0. -1.
    9900012    2    1    2    0    0  0.84870969136E+00 -0.29364781371E+00  0.76578684721E+00  0.90007759908E+02  0.90000021539E+02 0.  0.
        -12    1    1    2    0    0 -0.84870969136E+00  0.29364781371E+00 -0.76578684721E+00  0.11802400917E+01  0.00000000000E+00 0.  1.
         11    1    3    3    0    0  0.29494487032E+02  0.15454393651E+02 -0.15600788442E+02  0.36771560324E+02  0.51100000000E-03 0. -1.
        -11    1    3    3    0    0  0.82436290607E+01 -0.40234021497E+01 -0.33881751716E+01  0.97787993232E+01  0.51100000000E-03 0.  1.
        -12    1    3    3    0    0 -0.36889406401E+02 -0.11724639315E+02  0.19754750461E+02  0.43457400261E+02  0.00000000000E+00 0.  1.
</event>
<event>
 7    1  0.2497665E-015  0.9000781E+02  0.7816164E-02  0.1186339E+00
        -11   -1    0    0    0    0  0.00000000000E+00  0.00000000000E+00  0.45593999997E+02  0.45594000000E+02  0.51100000000E-03 0. -1.
         11   -1    0    0    0    0 -0.00000000000E+00 -0.00000000000E+00 -0.45593999997E+02  0.45594000000E+02  0.51100000000E-03 0.  1.
    9900012    2    1    2    0    0  0.23882101837E+00  0.27232622101E+00  0.11232280273E+01  0.90007814315E+02  0.90000076664E+02 0.  0.
        -12    1    1    2    0    0 -0.23882101837E+00 -0.27232622101E+00 -0.11232280273E+01  0.11801856849E+01  0.00000000000E+00 0.  1.
         11    1    3    3    0    0  0.46304694769E+01 -0.73578808991E+01  0.46241518339E+01  0.98469507639E+01  0.51100000000E-03 0. -1.
        -11    1    3    3    0    0 -0.18757719815E+02 -0.28325336726E+02  0.15132789395E+02  0.37191102007E+02  0.51100000000E-03 0.  1.
         12    1    3    3    0    0  0.14366071357E+02  0.35955543846E+02 -0.18633713202E+02  0.42969761545E+02  0.00000000000E+00 0. -1.
</event>
<event>
 7    1  0.2497665E-015  0.9000778E+02  0.7816164E-02  0.1186339E+00
        -11   -1    0    0    0    0  0.00000000000E+00  0.00000000000E+00  0.45593999997E+02  0.45594000000E+02  0.51100000000E-03 0. -1.
         11   -1    0    0    0    0 -0.00000000000E+00 -0.00000000000E+00 -0.45593999997E+02  0.45594000000E+02  0.51100000000E-03 0.  1.
    9900012    2    1    2    0    0  0.15652471758E+00  0.72073070646E+00  0.92139943612E+00  0.90007775589E+02  0.90000037427E+02 0.  0.
        -12    1    1    2    0    0 -0.15652471758E+00 -0.72073070646E+00 -0.92139943612E+00  0.11802244106E+01  0.00000000000E+00 0.  1.
         11    1    3    3    0    0 -0.38025394191E+02  0.61504462312E+01 -0.10199400577E+02  0.39847037087E+02  0.51100000000E-03 0. -1.
        -11    1    3    3    0    0 -0.24575396705E+01 -0.36248673251E+01  0.82988002327E+01  0.93834561820E+01  0.51100000000E-03 0.  1.
        -12    1    3    3    0    0  0.40639458579E+02 -0.18048481996E+01  0.28219997803E+01  0.40777282320E+02  0.00000000000E+00 0.  1.
</event>
<event>
 7    1  0.2497665E-015  0.9000786E+02  0.7816164E-02  0.1186339E+00
        -11   -1    0    0    0    0  0.00000000000E+00  0.00000000000E+00  0.45593999997E+02  0.45594000000E+02  0.51100000000E-03 0.  1.
         11   -1    0    0    0    0 -0.00000000000E+00 -0.00000000000E+00 -0.45593999997E+02  0.45594000000E+02  0.51100000000E-03 0. -1.
    9900012    2    1    2    0    0  0.14674391045E+00  0.11519289820E+01 -0.21039102436E+00  0.90007856560E+02  0.90000119467E+02 0.  0.
        -12    1    1    2    0    0 -0.14674391045E+00 -0.11519289820E+01  0.21039102436E+00  0.11801434396E+01  0.00000000000E+00 0.  1.
         11    1    3    3    0    0  0.49440852380E+01  0.53975532535E+01  0.59761076700E+01  0.94494139030E+01  0.51100000000E-03 0. -1.
        -11    1    3    3    0    0  0.52351967659E+00  0.30236917982E+02 -0.26479210390E+02  0.40195694608E+02  0.51100000000E-03 0.  1.
         12    1    3    3    0    0 -0.53208610041E+01 -0.34482542254E+02  0.20292711696E+02  0.40362748049E+02  0.00000000000E+00 0. -1.
</event>
<event>
 7    1  0.2497665E-015  0.9000758E+02  0.7816164E-02  0.1186339E+00
        -11   -1    0    0    0    0  0.00000000000E+00  0.00000000000E+00  0.45593999997E+02  0.45594000000E+02  0.51100000000E-03 0.  1.
         11   -1    0    0    0    0 -0.00000000000E+00 -0.00000000000E+00 -0.45593999997E+02  0.45594000000E+02  0.51100000000E-03 0. -1.
    9900012    2    1    2    0    0  0.62789641987E+00 -0.84217341700E+00 -0.53839890529E+00  0.90007583396E+02  0.89999842696E+02 0.  0.
        -12    1    1    2    0    0 -0.62789641987E+00  0.84217341700E+00  0.53839890529E+00  0.11804166043E+01  0.00000000000E+00 0.  1.
         11    1    3    3    0    0 -0.91068666492E+01  0.36699871628E+02  0.14417370585E+02  0.40468211877E+02  0.51100000000E-03 0. -1.
        -11    1    3    3    0    0 -0.91276732088E+00 -0.57353603855E+01  0.72680997433E+01  0.93033744993E+01  0.51100000000E-03 0.  1.
        -12    1    3    3    0    0  0.10647530390E+02 -0.31806684660E+02 -0.22223869233E+02  0.40235997019E+02  0.00000000000E+00 0.  1.
</event>
<event>
 7    1  0.2497665E-015  0.9000776E+02  0.7816164E-02  0.1186339E+00
        -11   -1    0    0    0    0  0.00000000000E+00  0.00000000000E+00  0.45593999997E+02  0.45594000000E+02  0.51100000000E-03 0. -1.
         11   -1    0    0    0    0 -0.00000000000E+00 -0.00000000000E+00 -0.45593999997E+02  0.45594000000E+02  0.51100000000E-03 0.  1.
    9900012    2    1    2    0    0  0.14799938300E+00  0.87987717133E+00  0.77257794727E+00  0.90007760898E+02  0.90000022542E+02 0.  0.
        -12    1    1    2    0    0 -0.14799938300E+00 -0.87987717133E+00 -0.77257794727E+00  0.11802391023E+01  0.00000000000E+00 0.  1.
         11    1    3    3    0    0 -0.16450147822E+02  0.17476982296E+01  0.26054533424E+01  0.16746647421E+02  0.51100000000E-03 0. -1.
        -11    1    3    3    0    0 -0.24119730865E+02 -0.31523612732E+01 -0.17079676949E+02  0.29722283955E+02  0.51100000000E-03 0.  1.
         12    1    3    3    0    0  0.40717878070E+02  0.22845402150E+01  0.15246801554E+02  0.43538829521E+02  0.00000000000E+00 0. -1.
</event>
<event>
 7    1  0.2497665E-015  0.9000770E+02  0.7816164E-02  0.1186339E+00
        -11   -1    0    0    0    0  0.00000000000E+00  0.00000000000E+00  0.45593999997E+02  0.45594000000E+02  0.51100000000E-03 0. -1.
         11   -1    0    0    0    0 -0.00000000000E+00 -0.00000000000E+00 -0.45593999997E+02  0.45594000000E+02  0.51100000000E-03 0.  1.
    9900012    2    1    2    0    0  0.24598391263E+00  0.10112757365E+01  0.55669819009E+00  0.90007703607E+02  0.89999964495E+02 0.  0.
        -12    1    1    2    0    0 -0.24598391263E+00 -0.10112757365E+01 -0.55669819009E+00  0.11802963930E+01  0.00000000000E+00 0.  1.
         11    1    3    3    0    0 -0.79932103784E+01  0.64234160137E+01 -0.29907831921E+01  0.10681594909E+02  0.51100000000E-03 0. -1.
        -11    1    3    3    0    0 -0.98163551150E+01 -0.15739665805E+02 -0.32665124687E+02  0.37564721195E+02  0.51100000000E-03 0.  1.
         12    1    3    3    0    0  0.18055549406E+02  0.10327525528E+02  0.36212606069E+02  0.41761387503E+02  0.00000000000E+00 0. -1.
</event>
<event>
 7    1  0.2497665E-015  0.9000766E+02  0.7816164E-02  0.1186339E+00
        -11   -1    0    0    0    0  0.00000000000E+00  0.00000000000E+00  0.45593999997E+02  0.45594000000E+02  0.51100000000E-03 0. -1.
         11   -1    0    0    0    0 -0.00000000000E+00 -0.00000000000E+00 -0.45593999997E+02  0.45594000000E+02  0.51100000000E-03 0.  1.
    9900012    2    1    2    0    0  0.99952538842E+00  0.62772044363E+00 -0.10884543784E-01  0.90007660036E+02  0.89999920348E+02 0.  0.
        -12    1    1    2    0    0 -0.99952538842E+00 -0.62772044363E+00  0.10884543784E-01  0.11803399641E+01  0.00000000000E+00 0.  1.
         11    1    3    3    0    0  0.85366265647E+01  0.28949685306E+01  0.69748727413E+01  0.11397529816E+02  0.51100000000E-03 0. -1.
        -11    1    3    3    0    0 -0.17398826396E+02  0.34518663063E+02  0.42853687498E+01  0.38892436863E+02  0.51100000000E-03 0.  1.
         12    1    3    3    0    0  0.98617252193E+01 -0.36785911150E+02 -0.11271126035E+02  0.39717693356E+02  0.00000000000E+00 0. -1.
</event>
<event>
 7    1  0.2497665E-015  0.9000767E+02  0.7816164E-02  0.1186339E+00
        -11   -1    0    0    0    0  0.00000000000E+00  0.00000000000E+00  0.45593999997E+02  0.45594000000E+02  0.51100000000E-03 0.  1.
         11   -1    0    0    0    0 -0.00000000000E+00 -0.00000000000E+00 -0.45593999997E+02  0.45594000000E+02  0.51100000000E-03 0. -1.
    9900012    2    1    2    0    0 -0.33629541138E-01  0.11608095526E+00 -0.11741254695E+01  0.90007671083E+02  0.89999931541E+02 0.  0.
        -12    1    1    2    0    0  0.33629541138E-01 -0.11608095526E+00  0.11741254695E+01  0.11803289170E+01  0.00000000000E+00 0.  1.
         11    1    3    3    0    0 -0.26608092863E+01  0.99677342764E+01 -0.29591711873E+01  0.10732768843E+02  0.51100000000E-03 0. -1.
        -11    1    3    3    0    0 -0.18910660740E+02  0.30057463921E+01  0.33653088076E+02  0.38719219237E+02  0.51100000000E-03 0.  1.
         12    1    3    3    0    0  0.21537840485E+02 -0.12857399713E+02 -0.31868042358E+02  0.40555683003E+02  0.00000000000E+00 0. -1.
</event>
<event>
 7    1  0.2497665E-015  0.9000783E+02  0.7816164E-02  0.1186339E+00
        -11   -1    0    0    0    0  0.00000000000E+00  0.00000000000E+00  0.45593999997E+02  0.45594000000E+02  0.51100000000E-03 0.  1.
         11   -1    0    0    0    0 -0.00000000000E+00 -0.00000000000E+00 -0.45593999997E+02  0.45594000000E+02  0.51100000000E-03 0. -1.
    9900012    2    1    2    0    0  0.18798454224E+00 -0.11436653058E+01 -0.22248225777E+00  0.90007827608E+02  0.90000090132E+02 0.  0.
        -12    1    1    2    0    0 -0.18798454224E+00  0.11436653058E+01  0.22248225777E+00  0.11801723920E+01  0.00000000000E+00 0.  1.
         11    1    3    3    0    0  0.34917164603E+02 -0.86080543385E+01  0.38144205239E+01  0.36164302670E+02  0.51100000000E-03 0. -1.
        -11    1    3    3    0    0  0.41991307254E+01 -0.14285764403E+01 -0.12292180008E+02  0.13067946246E+02  0.51100000000E-03 0.  1.
        -12    1    3    3    0    0 -0.38928310786E+02  0.88929654730E+01  0.82552772261E+01  0.40775578692E+02  0.00000000000E+00 0.  1.
</event>
<event>
 7    1  0.2497665E-015  0.9000668E+02  0.7816164E-02  0.1186341E+00
        -11   -1    0    0    0    0  0.00000000000E+00  0.00000000000E+00  0.45593999997E+02  0.45594000000E+02  0.51100000000E-03 0. -1.
         11   -1    0    0    0    0 -0.00000000000E+00 -0.00000000000E+00 -0.45593999997E+02  0.45594000000E+02  0.51100000000E-03 0.  1.
    9900012    2    1    2    0    0  0.16023814824E-01  0.19507357800E+00  0.11649931168E+01  0.90006678949E+02  0.89998926305E+02 0.  0.
        -12    1    1    2    0    0 -0.16023814824E-01 -0.19507357800E+00 -0.11649931168E+01  0.11813210510E+01  0.00000000000E+00 0.  1.
         11    1    3    3    0    0 -0.31313700948E+01 -0.82740351714E+01  0.42834979332E+01  0.98292162197E+01  0.51100000000E-03 0. -1.
        -11    1    3    3    0    0 -0.35601605520E+02 -0.82544671972E+01  0.59044017968E+01  0.37019893370E+02  0.51100000000E-03 0.  1.
         12    1    3    3    0    0  0.38748999430E+02  0.16723575947E+02 -0.90229066132E+01  0.43157569359E+02  0.00000000000E+00 0. -1.
</event>
<event>
 7    1  0.2497665E-015  0.9000793E+02  0.7816164E-02  0.1186339E+00
        -11   -1    0    0    0    0  0.00000000000E+00  0.00000000000E+00  0.45593999997E+02  0.45594000000E+02  0.51100000000E-03 0. -1.
         11   -1    0    0    0    0 -0.00000000000E+00 -0.00000000000E+00 -0.45593999997E+02  0.45594000000E+02  0.51100000000E-03 0.  1.
    9900012    2    1    2    0    0 -0.36313114915E+00  0.10750621020E+01  0.32394468049E+00  0.90007930972E+02  0.90000194861E+02 0.  0.
        -12    1    1    2    0    0  0.36313114915E+00 -0.10750621020E+01 -0.32394468049E+00  0.11800690279E+01  0.00000000000E+00 0.  1.
         11    1    3    3    0    0 -0.71658279442E+01 -0.18787785749E+01 -0.52495747817E+01  0.90794787686E+01  0.51100000000E-03 0. -1.
        -11    1    3    3    0    0  0.41525338882E+02  0.83025866171E+01 -0.83057556587E+01  0.43154053009E+02  0.51100000000E-03 0.  1.
         12    1    3    3    0    0 -0.34722642087E+02 -0.53487459402E+01  0.13879275121E+02  0.37774399194E+02  0.00000000000E+00 0. -1.
</event>
<event>
 7    1  0.2497665E-015  0.9000771E+02  0.7816164E-02  0.1186339E+00
        -11   -1    0    0    0    0  0.00000000000E+00  0.00000000000E+00  0.45593999997E+02  0.45594000000E+02  0.51100000000E-03 0.  1.
         11   -1    0    0    0    0 -0.00000000000E+00 -0.00000000000E+00 -0.45593999997E+02  0.45594000000E+02  0.51100000000E-03 0. -1.
    9900012    2    1    2    0    0 -0.64848037277E+00 -0.14990209227E+00 -0.97472422049E+00  0.90007709893E+02  0.89999970863E+02 0.  0.
        -12    1    1    2    0    0  0.64848037277E+00  0.14990209227E+00  0.97472422049E+00  0.11802901072E+01  0.00000000000E+00 0.  1.
         11    1    3    3    0    0  0.62122603422E+01 -0.11490497147E+02 -0.53249846911E+01  0.14105997500E+02  0.51100000000E-03 0. -1.
        -11    1    3    3    0    0 -0.26160149583E+02 -0.23003839249E+02 -0.55653075568E+01  0.35277509760E+02  0.51100000000E-03 0.  1.
         12    1    3    3    0    0  0.19299408868E+02  0.34344434303E+02  0.99155680274E+01  0.40624202633E+02  0.00000000000E+00 0. -1.
</event>
<event>
 7    1  0.3480576E-015  0.9000765E+02  0.7816164E-02  0.1186339E+00
        -11   -1    0    0    0    0  0.00000000000E+00  0.00000000000E+00  0.45593999997E+02  0.45594000000E+02  0.51100000000E-03 0. -1.
         11   -1    0    0    0    0 -0.00000000000E+00 -0.00000000000E+00 -0.45593999997E+02  0.45594000000E+02  0.51100000000E-03 0.  1.
    9900012    2    1    2    0    0 -0.19992091460E+00  0.29912247377E+00  0.11241843472E+01  0.90007647056E+02  0.89999907197E+02 0.  0.
        -12    1    1    2    0    0  0.19992091460E+00 -0.29912247377E+00 -0.11241843472E+01  0.11803529442E+01  0.00000000000E+00 0.  1.
         11    1    3    3    0    0  0.12619576617E+01 -0.27346322374E+02  0.30096511054E+02  0.40684319614E+02  0.51100000000E-03 0. -1.
        -11    1    3    3    0    0 -0.91839127967E+01 -0.13781024996E+01 -0.34384760766E+01  0.99028550805E+01  0.51100000000E-03 0.  1.
        -12    1    3    3    0    0  0.77220342203E+01  0.29023547348E+02 -0.25533850631E+02  0.39420472361E+02  0.00000000000E+00 0.  1.
</event>
<event>
 7    1  0.2497665E-015  0.9000780E+02  0.7816164E-02  0.1186339E+00
        -11   -1    0    0    0    0  0.00000000000E+00  0.00000000000E+00  0.45593999997E+02  0.45594000000E+02  0.51100000000E-03 0.  1.
         11   -1    0    0    0    0 -0.00000000000E+00 -0.00000000000E+00 -0.45593999997E+02  0.45594000000E+02  0.51100000000E-03 0. -1.
    9900012    2    1    2    0    0 -0.10689508268E+01 -0.48742704334E+00  0.11242720036E+00  0.90007796260E+02  0.90000058371E+02 0.  0.
        -12    1    1    2    0    0  0.10689508268E+01  0.48742704334E+00 -0.11242720036E+00  0.11802037400E+01  0.00000000000E+00 0.  1.
         11    1    3    3    0    0 -0.32051506006E+01 -0.19509708327E+02  0.11721010107E+02  0.22984424891E+02  0.51100000000E-03 0. -1.
        -11    1    3    3    0    0 -0.53898103999E+01 -0.55791134510E+01  0.22786741503E+02  0.24070981526E+02  0.51100000000E-03 0.  1.
         12    1    3    3    0    0  0.75260101737E+01  0.24601394735E+02 -0.34395324409E+02  0.42952389843E+02  0.00000000000E+00 0. -1.
</event>
<event>
 7    1  0.2497665E-015  0.9000781E+02  0.7816164E-02  0.1186339E+00
        -11   -1    0    0    0    0  0.00000000000E+00  0.00000000000E+00  0.45593999997E+02  0.45594000000E+02  0.51100000000E-03 0.  1.
         11   -1    0    0    0    0 -0.00000000000E+00 -0.00000000000E+00 -0.45593999997E+02  0.45594000000E+02  0.51100000000E-03 0. -1.
    9900012    2    1    2    0    0 -0.52239141856E+00 -0.31570245820E+00 -0.10100905707E+01  0.90007811965E+02  0.90000074283E+02 0.  0.
        -12    1    1    2    0    0  0.52239141856E+00  0.31570245820E+00  0.10100905707E+01  0.11801880347E+01  0.00000000000E+00 0.  1.
         11    1    3    3    0    0 -0.98836993468E+01 -0.78833640247E+00 -0.62820913445E+01  0.11737702458E+02  0.51100000000E-03 0. -1.
        -11    1    3    3    0    0 -0.26957879085E+02  0.82470093702E+01  0.23679904230E+02  0.36816820516E+02  0.51100000000E-03 0.  1.
         12    1    3    3    0    0  0.36319187014E+02 -0.77743754259E+01 -0.18407903456E+02  0.41453288992E+02  0.00000000000E+00 0. -1.
</event>
<event>
 7    1  0.2497665E-015  0.9000771E+02  0.7816164E-02  0.1186339E+00
        -11   -1    0    0    0    0  0.00000000000E+00  0.00000000000E+00  0.45593999997E+02  0.45594000000E+02  0.51100000000E-03 0.  1.
         11   -1    0    0    0    0 -0.00000000000E+00 -0.00000000000E+00 -0.45593999997E+02  0.45594000000E+02  0.51100000000E-03 0. -1.
    9900012    2    1    2    0    0  0.45575110489E+00  0.10506408594E+01  0.28551968662E+00  0.90007713265E+02  0.89999974280E+02 0.  0.
        -12    1    1    2    0    0 -0.45575110489E+00 -0.10506408594E+01 -0.28551968662E+00  0.11802867349E+01  0.00000000000E+00 0.  1.
         11    1    3    3    0    0  0.16958548653E+01  0.14963196334E+02 -0.33070126196E+02  0.36337396923E+02  0.51100000000E-03 0. -1.
        -11    1    3    3    0    0 -0.29531142961E+01 -0.11203968677E+01 -0.89230371549E+01  0.94655567990E+01  0.51100000000E-03 0.  1.
        -12    1    3    3    0    0  0.17130105357E+01 -0.12792158607E+02  0.42278683037E+02  0.44204759543E+02  0.00000000000E+00 0.  1.
</event>
<event>
 7    1  0.2497665E-015  0.9000778E+02  0.7816164E-02  0.1186339E+00
        -11   -1    0    0    0    0  0.00000000000E+00  0.00000000000E+00  0.45593999997E+02  0.45594000000E+02  0.51100000000E-03 0. -1.
         11   -1    0    0    0    0 -0.00000000000E+00 -0.00000000000E+00 -0.45593999997E+02  0.45594000000E+02  0.51100000000E-03 0.  1.
    9900012    2    1    2    0    0  0.81784333016E-02 -0.61315040900E+00  0.10084176228E+01  0.90007776965E+02  0.90000038821E+02 0.  0.
        -12    1    1    2    0    0 -0.81784333016E-02  0.61315040900E+00 -0.10084176228E+01  0.11802230352E+01  0.00000000000E+00 0.  1.
         11    1    3    3    0    0 -0.34048430419E+02 -0.44203193566E+01 -0.48068904508E+01  0.34669021233E+02  0.51100000000E-03 0. -1.
        -11    1    3    3    0    0 -0.88514102164E+01 -0.61439514140E+01  0.30834845276E+01  0.11207295788E+02  0.51100000000E-03 0.  1.
        -12    1    3    3    0    0  0.42908019068E+02  0.99511203616E+01  0.27318235461E+01  0.44131459943E+02  0.00000000000E+00 0.  1.
</event>
<event>
 7    1  0.2497665E-015  0.9000780E+02  0.7816164E-02  0.1186339E+00
        -11   -1    0    0    0    0  0.00000000000E+00  0.00000000000E+00  0.45593999997E+02  0.45594000000E+02  0.51100000000E-03 0. -1.
         11   -1    0    0    0    0 -0.00000000000E+00 -0.00000000000E+00 -0.45593999997E+02  0.45594000000E+02  0.51100000000E-03 0.  1.
    9900012    2    1    2    0    0  0.38292216539E+00 -0.60370600559E-01  0.11147213393E+01  0.90007797620E+02  0.90000059748E+02 0.  0.
        -12    1    1    2    0    0 -0.38292216539E+00  0.60370600559E-01 -0.11147213393E+01  0.11802023803E+01  0.00000000000E+00 0.  1.
         11    1    3    3    0    0 -0.29247606254E+01  0.34850018947E+02  0.52045726826E+01  0.35357681236E+02  0.51100000000E-03 0. -1.
        -11    1    3    3    0    0  0.55389737078E+01  0.89747963801E+01 -0.40925280806E+00  0.10554368191E+02  0.51100000000E-03 0.  1.
        -12    1    3    3    0    0 -0.22312909170E+01 -0.43885185928E+02 -0.36805985353E+01  0.44095748192E+02  0.00000000000E+00 0.  1.
</event>
<event>
 7    1  0.2497665E-015  0.9000774E+02  0.7816164E-02  0.1186339E+00
        -11   -1    0    0    0    0  0.00000000000E+00  0.00000000000E+00  0.45593999997E+02  0.45594000000E+02  0.51100000000E-03 0.  1.
         11   -1    0    0    0    0 -0.00000000000E+00 -0.00000000000E+00 -0.45593999997E+02  0.45594000000E+02  0.51100000000E-03 0. -1.
    9900012    2    1    2    0    0  0.63129643629E+00  0.97678221502E+00 -0.20093711665E+00  0.90007739685E+02  0.90000001049E+02 0.  0.
        -12    1    1    2    0    0 -0.63129643629E+00 -0.97678221502E+00  0.20093711665E+00  0.11802603149E+01  0.00000000000E+00 0.  1.
         11    1    3    3    0    0  0.16991766658E+01 -0.96488406536E+01 -0.16644002687E+01  0.99376836243E+01  0.51100000000E-03 0. -1.
        -11    1    3    3    0    0  0.20607825942E+02 -0.16220223273E+02  0.26620345762E+02  0.37368716085E+02  0.51100000000E-03 0.  1.
         12    1    3    3    0    0 -0.21675706171E+02  0.26845846141E+02 -0.25156882610E+02  0.42701339976E+02  0.00000000000E+00 0. -1.
</event>
<event>
 7    1  0.2497665E-015  0.9000764E+02  0.7816164E-02  0.1186339E+00
        -11   -1    0    0    0    0  0.00000000000E+00  0.00000000000E+00  0.45593999997E+02  0.45594000000E+02  0.51100000000E-03 0.  1.
         11   -1    0    0    0    0 -0.00000000000E+00 -0.00000000000E+00 -0.45593999997E+02  0.45594000000E+02  0.51100000000E-03 0. -1.
    9900012    2    1    2    0    0 -0.47451296715E+00 -0.11467599327E+00 -0.10746790365E+01  0.90007640660E+02  0.89999900717E+02 0.  0.
        -12    1    1    2    0    0  0.47451296715E+00  0.11467599327E+00  0.10746790365E+01  0.11803593397E+01  0.00000000000E+00 0.  1.
         11    1    3    3    0    0 -0.81687696116E+01  0.99888342407E+00 -0.28564468879E+01  0.87112487134E+01  0.51100000000E-03 0. -1.
        -11    1    3    3    0    0  0.20789537500E+02  0.34306873292E+02 -0.10711359340E+02  0.41519870468E+02  0.51100000000E-03 0.  1.
         12    1    3    3    0    0 -0.13095280855E+02 -0.35420432709E+02  0.12493127191E+02  0.39776521479E+02  0.00000000000E+00 0. -1.
</event>
<event>
 7    1  0.2497665E-015  0.9000770E+02  0.7816164E-02  0.1186339E+00
        -11   -1    0    0    0    0  0.00000000000E+00  0.00000000000E+00  0.45593999997E+02  0.45594000000E+02  0.51100000000E-03 0. -1.
         11   -1    0    0    0    0 -0.00000000000E+00 -0.00000000000E+00 -0.45593999997E+02  0.45594000000E+02  0.51100000000E-03 0.  1.
    9900012    2    1    2    0    0 -0.23862947357E+00  0.94332202863E+00  0.66806194796E+00  0.90007700359E+02  0.89999961204E+02 0.  0.
        -12    1    1    2    0    0  0.23862947357E+00 -0.94332202863E+00 -0.66806194796E+00  0.11802996406E+01  0.00000000000E+00 0.  1.
         11    1    3    3    0    0 -0.13054901077E+02  0.33704600022E+02 -0.24013094349E+01  0.36224256956E+02  0.51100000000E-03 0. -1.
        -11    1    3    3    0    0 -0.47171510369E+01  0.61568857286E+01  0.75990369151E+01  0.10858366271E+02  0.51100000000E-03 0.  1.
        -12    1    3    3    0    0  0.17533422640E+02 -0.38918163722E+02 -0.45296655322E+01  0.42925077132E+02  0.00000000000E+00 0.  1.
</event>
<event>
 7    1  0.2674516E-015  0.9000769E+02  0.7816164E-02  0.1186339E+00
        -11   -1    0    0    0    0  0.00000000000E+00  0.00000000000E+00  0.45593999997E+02  0.45594000000E+02  0.51100000000E-03 0.  1.
         11   -1    0    0    0    0 -0.00000000000E+00 -0.00000000000E+00 -0.45593999997E+02  0.45594000000E+02  0.51100000000E-03 0. -1.
    9900012    2    1    2    0    0 -0.10361982947E+01  0.13206226482E+00 -0.54952728952E+00  0.90007691740E+02  0.89999952471E+02 0.  0.
        -12    1    1    2    0    0  0.10361982947E+01 -0.13206226482E+00  0.54952728952E+00  0.11803082604E+01  0.00000000000E+00 0.  1.
         11    1    3    3    0    0  0.45834627686E+01  0.30450987503E+02 -0.28073843337E+02  0.41670270587E+02  0.51100000000E-03 0. -1.
        -11    1    3    3    0    0 -0.42428482436E+01  0.32088775703E+01  0.77128060177E+01  0.93694201212E+01  0.51100000000E-03 0.  1.
        -12    1    3    3    0    0 -0.13768128196E+01 -0.33527802809E+02  0.19811510030E+02  0.38968001031E+02  0.00000000000E+00 0.  1.
</event>
<event>
 7    1  0.2497665E-015  0.9000782E+02  0.7816164E-02  0.1186339E+00
        -11   -1    0    0    0    0  0.00000000000E+00  0.00000000000E+00  0.45593999997E+02  0.45594000000E+02  0.51100000000E-03 0.  1.
         11   -1    0    0    0    0 -0.00000000000E+00 -0.00000000000E+00 -0.45593999997E+02  0.45594000000E+02  0.51100000000E-03 0. -1.
    9900012    2    1    2    0    0 -0.82193728026E+00 -0.67312887632E+00 -0.51395789280E+00  0.90007815230E+02  0.90000077591E+02 0.  0.
        -12    1    1    2    0    0  0.82193728026E+00  0.67312887632E+00  0.51395789280E+00  0.11801847704E+01  0.00000000000E+00 0.  1.
         11    1    3    3    0    0  0.67822520187E+01 -0.27648691804E+02 -0.27007251892E+02  0.39240804731E+02  0.51100000000E-03 0. -1.
        -11    1    3    3    0    0 -0.45430399525E+01 -0.74600001642E+01  0.53291428267E+01  0.10231841378E+02  0.51100000000E-03 0.  1.
        -12    1    3    3    0    0 -0.30611493464E+01  0.34435563092E+02  0.21164151173E+02  0.40535169120E+02  0.00000000000E+00 0.  1.
</event>
<event>
 7    1  0.2497665E-015  0.9000762E+02  0.7816164E-02  0.1186339E+00
        -11   -1    0    0    0    0  0.00000000000E+00  0.00000000000E+00  0.45593999997E+02  0.45594000000E+02  0.51100000000E-03 0.  1.
         11   -1    0    0    0    0 -0.00000000000E+00 -0.00000000000E+00 -0.45593999997E+02  0.45594000000E+02  0.51100000000E-03 0. -1.
    9900012    2    1    2    0    0  0.65410691179E+00 -0.98236689070E+00  0.20173760187E-01  0.90007615512E+02  0.89999875236E+02 0.  0.
        -12    1    1    2    0    0 -0.65410691179E+00  0.98236689070E+00 -0.20173760187E-01  0.11803844885E+01  0.00000000000E+00 0.  1.
         11    1    3    3    0    0  0.55926139680E+01  0.70406691348E+01 -0.32568458381E+01  0.95632315634E+01  0.51100000000E-03 0. -1.
        -11    1    3    3    0    0  0.18902319193E+02 -0.21310010967E+02  0.30612773199E+02  0.41815740117E+02  0.51100000000E-03 0.  1.
         12    1    3    3    0    0 -0.23840826250E+02  0.13286974942E+02 -0.27335753600E+02  0.38628643832E+02  0.00000000000E+00 0. -1.
</event>
<event>
 7    1  0.2497665E-015  0.9000770E+02  0.7816164E-02  0.1186339E+00
        -11   -1    0    0    0    0  0.00000000000E+00  0.00000000000E+00  0.45593999997E+02  0.45594000000E+02  0.51100000000E-03 0.  1.
         11   -1    0    0    0    0 -0.00000000000E+00 -0.00000000000E+00 -0.45593999997E+02  0.45594000000E+02  0.51100000000E-03 0. -1.
    9900012    2    1    2    0    0 -0.71277142695E+00 -0.26294307142E+00 -0.90328908834E+00  0.90007697775E+02  0.89999958585E+02 0.  0.
        -12    1    1    2    0    0  0.71277142695E+00  0.26294307142E+00  0.90328908834E+00  0.11803022253E+01  0.00000000000E+00 0.  1.
         11    1    3    3    0    0  0.63397165432E+01 -0.19771806750E+02 -0.29130804792E+02  0.35773176209E+02  0.51100000000E-03 0. -1.
        -11    1    3    3    0    0  0.64183835659E+01 -0.70548154530E+01 -0.40082140247E+01  0.10345619779E+02  0.51100000000E-03 0.  1.
        -12    1    3    3    0    0 -0.13470871536E+02  0.26563679131E+02  0.32235729728E+02  0.43888901787E+02  0.00000000000E+00 0.  1.
</event>
<event>
 7    1  0.2497665E-015  0.9000779E+02  0.7816164E-02  0.1186339E+00
        -11   -1    0    0    0    0  0.00000000000E+00  0.00000000000E+00  0.45593999997E+02  0.45594000000E+02  0.51100000000E-03 0.  1.
         11   -1    0    0    0    0 -0.00000000000E+00 -0.00000000000E+00 -0.45593999997E+02  0.45594000000E+02  0.51100000000E-03 0. -1.
    9900012    2    1    2    0    0  0.70650144666E+00  0.29551455955E+00 -0.89800542488E+00  0.90007793708E+02  0.90000055785E+02 0.  0.
        -12    1    1    2    0    0 -0.70650144666E+00 -0.29551455955E+00  0.89800542488E+00  0.11802062922E+01  0.00000000000E+00 0.  1.
         11    1    3    3    0    0  0.66855317156E+00  0.92483977042E+01 -0.25550812298E+00  0.92760502424E+01  0.51100000000E-03 0. -1.
        -11    1    3    3    0    0 -0.27195492845E+02  0.21276623536E+02 -0.14915446305E+02  0.37613296570E+02  0.51100000000E-03 0.  1.
         12    1    3    3    0    0  0.27233441120E+02 -0.30229506681E+02  0.14272949003E+02  0.43118446895E+02  0.00000000000E+00 0. -1.
</event>
<event>
 7    1  0.2497665E-015  0.9000769E+02  0.7816164E-02  0.1186339E+00
        -11   -1    0    0    0    0  0.00000000000E+00  0.00000000000E+00  0.45593999997E+02  0.45594000000E+02  0.51100000000E-03 0.  1.
         11   -1    0    0    0    0 -0.00000000000E+00 -0.00000000000E+00 -0.45593999997E+02  0.45594000000E+02  0.51100000000E-03 0. -1.
    9900012    2    1    2    0    0  0.43684530717E+00 -0.98362061129E-01 -0.10920765952E+01  0.90007686394E+02  0.89999947055E+02 0.  0.
        -12    1    1    2    0    0 -0.43684530717E+00  0.98362061129E-01  0.10920765952E+01  0.11803136055E+01  0.00000000000E+00 0.  1.
         11    1    3    3    0    0 -0.50889341560E-01 -0.54195981857E+01 -0.75399139400E+01  0.92857383499E+01  0.51100000000E-03 0. -1.
        -11    1    3    3    0    0  0.37874040549E+02  0.13345317029E+02  0.12391931385E+02  0.42024997297E+02  0.51100000000E-03 0.  1.
         12    1    3    3    0    0 -0.37386305900E+02 -0.80240809046E+01 -0.59440940403E+01  0.38696950748E+02  0.00000000000E+00 0. -1.
</event>
<event>
 7    1  0.2497665E-015  0.9000775E+02  0.7816164E-02  0.1186339E+00
        -11   -1    0    0    0    0  0.00000000000E+00  0.00000000000E+00  0.45593999997E+02  0.45594000000E+02  0.51100000000E-03 0.  1.
         11   -1    0    0    0    0 -0.00000000000E+00 -0.00000000000E+00 -0.45593999997E+02  0.45594000000E+02  0.51100000000E-03 0. -1.
    9900012    2    1    2    0    0  0.64782899152E+00  0.47293329467E+00  0.86582315116E+00  0.90007746624E+02  0.90000008079E+02 0.  0.
        -12    1    1    2    0    0 -0.64782899152E+00 -0.47293329467E+00 -0.86582315116E+00  0.11802533764E+01  0.00000000000E+00 0.  1.
         11    1    3    3    0    0 -0.32094496570E+02 -0.11276215141E+02 -0.10522827106E+02  0.35608139920E+02  0.51100000000E-03 0. -1.
        -11    1    3    3    0    0 -0.45306805896E+01 -0.58059838718E+01 -0.61760498319E+01  0.96114570754E+01  0.51100000000E-03 0.  1.
        -12    1    3    3    0    0  0.37273006151E+02  0.17555132308E+02  0.17564700089E+02  0.44788149628E+02  0.00000000000E+00 0.  1.
</event>
<event>
 7    1  0.2497665E-015  0.9000777E+02  0.7816164E-02  0.1186339E+00
        -11   -1    0    0    0    0  0.00000000000E+00  0.00000000000E+00  0.45593999997E+02  0.45594000000E+02  0.51100000000E-03 0.  1.
         11   -1    0    0    0    0 -0.00000000000E+00 -0.00000000000E+00 -0.45593999997E+02  0.45594000000E+02  0.51100000000E-03 0. -1.
    9900012    2    1    2    0    0  0.83091932749E+00 -0.46815738726E+00 -0.69522988897E+00  0.90007769994E+02  0.90000031758E+02 0.  0.
        -12    1    1    2    0    0 -0.83091932749E+00  0.46815738726E+00  0.69522988897E+00  0.11802300058E+01  0.00000000000E+00 0.  1.
         11    1    3    3    0    0  0.75414349680E+00 -0.15633372222E+01 -0.29588673475E+02  0.29639540380E+02  0.51100000000E-03 0. -1.
        -11    1    3    3    0    0 -0.23332125763E+02  0.18597017379E+01  0.30161743448E+00  0.23408066056E+02  0.51100000000E-03 0.  1.
        -12    1    3    3    0    0  0.23408901593E+02 -0.76452190295E+00  0.28591826151E+02  0.36960163558E+02  0.00000000000E+00 0.  1.
</event>
<event>
 7    1  0.2497665E-015  0.9000769E+02  0.7816164E-02  0.1186339E+00
        -11   -1    0    0    0    0  0.00000000000E+00  0.00000000000E+00  0.45593999997E+02  0.45594000000E+02  0.51100000000E-03 0.  1.
         11   -1    0    0    0    0 -0.00000000000E+00 -0.00000000000E+00 -0.45593999997E+02  0.45594000000E+02  0.51100000000E-03 0. -1.
    9900012    2    1    2    0    0 -0.21934358899E+00 -0.11126323802E+01 -0.32720201130E+00  0.90007693438E+02  0.89999954192E+02 0.  0.
        -12    1    1    2    0    0  0.21934358899E+00  0.11126323802E+01  0.32720201130E+00  0.11803065618E+01  0.00000000000E+00 0.  1.
         11    1    3    3    0    0 -0.29792581704E+01  0.59347386333E+01  0.61109038155E+01  0.90244250562E+01  0.51100000000E-03 0. -1.
        -11    1    3    3    0    0 -0.23482492590E+02 -0.34699569145E+01  0.28532228347E+02  0.37115443065E+02  0.51100000000E-03 0.  1.
         12    1    3    3    0    0  0.26242407171E+02 -0.35774140991E+01 -0.34970334174E+02  0.43867825317E+02  0.00000000000E+00 0. -1.
</event>
<event>
 7    1  0.2497665E-015  0.9000779E+02  0.7816164E-02  0.1186339E+00
        -11   -1    0    0    0    0  0.00000000000E+00  0.00000000000E+00  0.45593999997E+02  0.45594000000E+02  0.51100000000E-03 0.  1.
         11   -1    0    0    0    0 -0.00000000000E+00 -0.00000000000E+00 -0.45593999997E+02  0.45594000000E+02  0.51100000000E-03 0. -1.
    9900012    2    1    2    0    0  0.29721358429E-01  0.11786121614E+01  0.53623170046E-01  0.90007794327E+02  0.90000056412E+02 0.  0.
        -12    1    1    2    0    0 -0.29721358429E-01 -0.11786121614E+01 -0.53623170046E-01  0.11802056730E+01  0.00000000000E+00 0.  1.
         11    1    3    3    0    0 -0.43922681164E+01 -0.77758168560E+01 -0.54586802491E+01  0.10466734797E+02  0.51100000000E-03 0. -1.
        -11    1    3    3    0    0 -0.33769437094E+02  0.96695631595E+01 -0.12532397146E+02  0.37295258571E+02  0.51100000000E-03 0.  1.
         12    1    3    3    0    0  0.38191426569E+02 -0.71513414208E+00  0.18044700565E+02  0.42245800960E+02  0.00000000000E+00 0. -1.
</event>
<event>
 7    1  0.2497665E-015  0.9000776E+02  0.7816164E-02  0.1186339E+00
        -11   -1    0    0    0    0  0.00000000000E+00  0.00000000000E+00  0.45593999997E+02  0.45594000000E+02  0.51100000000E-03 0. -1.
         11   -1    0    0    0    0 -0.00000000000E+00 -0.00000000000E+00 -0.45593999997E+02  0.45594000000E+02  0.51100000000E-03 0.  1.
    9900012    2    1    2    0    0  0.11020844463E+00 -0.11441856042E+01  0.26768671533E+00  0.90007761560E+02  0.90000023212E+02 0.  0.
        -12    1    1    2    0    0 -0.11020844463E+00  0.11441856042E+01 -0.26768671533E+00  0.11802384402E+01  0.00000000000E+00 0.  1.
         11    1    3    3    0    0  0.15197631921E+01  0.74950226504E+01  0.58556160710E+01  0.96318889384E+01  0.51100000000E-03 0. -1.
        -11    1    3    3    0    0  0.32133205324E+02  0.17189406955E+02 -0.10061296271E+02  0.37805400127E+02  0.51100000000E-03 0.  1.
         12    1    3    3    0    0 -0.33542760071E+02 -0.25828615209E+02  0.44733669151E+01  0.42570472494E+02  0.00000000000E+00 0. -1.
</event>
<event>
 7    1  0.2497665E-015  0.9000786E+02  0.7816164E-02  0.1186339E+00
        -11   -1    0    0    0    0  0.00000000000E+00  0.00000000000E+00  0.45593999997E+02  0.45594000000E+02  0.51100000000E-03 0.  1.
         11   -1    0    0    0    0 -0.00000000000E+00 -0.00000000000E+00 -0.45593999997E+02  0.45594000000E+02  0.51100000000E-03 0. -1.
    9900012    2    1    2    0    0  0.31781828507E+00  0.78055008658E+00 -0.82610844539E+00  0.90007863540E+02  0.90000126539E+02 0.  0.
        -12    1    1    2    0    0 -0.31781828507E+00 -0.78055008658E+00  0.82610844539E+00  0.11801364597E+01  0.00000000000E+00 0.  1.
         11    1    3    3    0    0 -0.10866336825E+02 -0.33193634974E+01 -0.11390771683E+01  0.11418973118E+02  0.51100000000E-03 0. -1.
        -11    1    3    3    0    0 -0.28579711924E+02 -0.15481615266E+01  0.18935676944E+02  0.34318458581E+02  0.51100000000E-03 0.  1.
         12    1    3    3    0    0  0.39763867034E+02  0.56480751106E+01 -0.18622708221E+02  0.44270431841E+02  0.00000000000E+00 0. -1.
</event>
<event>
 7    1  0.2497665E-015  0.9000668E+02  0.7816164E-02  0.1186341E+00
        -11   -1    0    0    0    0  0.00000000000E+00  0.00000000000E+00  0.45593999997E+02  0.45594000000E+02  0.51100000000E-03 0. -1.
         11   -1    0    0    0    0 -0.00000000000E+00 -0.00000000000E+00 -0.45593999997E+02  0.45594000000E+02  0.51100000000E-03 0.  1.
    9900012    2    1    2    0    0 -0.57836826108E+00 -0.96216329664E+00 -0.36775998714E+00  0.90006680626E+02  0.89998928004E+02 0.  0.
        -12    1    1    2    0    0  0.57836826108E+00  0.96216329664E+00  0.36775998714E+00  0.11813193738E+01  0.00000000000E+00 0.  1.
         11    1    3    3    0    0  0.24017219659E+02 -0.55411517919E+01  0.28821367740E+02  0.37923639619E+02  0.51100000000E-03 0. -1.
        -11    1    3    3    0    0  0.60554117506E+01 -0.40686638983E+01  0.19400345908E+01  0.75488920949E+01  0.51100000000E-03 0.  1.
        -12    1    3    3    0    0 -0.30650999670E+02  0.86476523936E+01 -0.31129162318E+02  0.44534148912E+02  0.00000000000E+00 0.  1.
</event>
<event>
 7    1  0.2497665E-015  0.9000772E+02  0.7816164E-02  0.1186339E+00
        -11   -1    0    0    0    0  0.00000000000E+00  0.00000000000E+00  0.45593999997E+02  0.45594000000E+02  0.51100000000E-03 0.  1.
         11   -1    0    0    0    0 -0.00000000000E+00 -0.00000000000E+00 -0.45593999997E+02  0.45594000000E+02  0.51100000000E-03 0. -1.
    9900012    2    1    2    0    0 -0.31102542177E+00 -0.60396946660E+00 -0.96516626995E+00  0.90007719585E+02  0.89999980683E+02 0.  0.
        -12    1    1    2    0    0  0.31102542177E+00  0.60396946660E+00  0.96516626995E+00  0.11802804151E+01  0.00000000000E+00 0.  1.
         11    1    3    3    0    0 -0.23701806352E+01  0.84676125577E+01 -0.40391318109E+02  0.41337353538E+02  0.51100000000E-03 0. -1.
        -11    1    3    3    0    0 -0.70248549670E+01 -0.62358303102E+01  0.14310988865E+01  0.95016951777E+01  0.51100000000E-03 0.  1.
        -12    1    3    3    0    0  0.90840101805E+01 -0.28357517141E+01  0.37995052953E+02  0.39168670869E+02  0.00000000000E+00 0.  1.
</event>
<event>
 7    1  0.2497665E-015  0.9000773E+02  0.7816164E-02  0.1186339E+00
        -11   -1    0    0    0    0  0.00000000000E+00  0.00000000000E+00  0.45593999997E+02  0.45594000000E+02  0.51100000000E-03 0. -1.
         11   -1    0    0    0    0 -0.00000000000E+00 -0.00000000000E+00 -0.45593999997E+02  0.45594000000E+02  0.51100000000E-03 0.  1.
    9900012    2    1    2    0    0  0.76294776010E+00 -0.61805233501E+00  0.65495646361E+00  0.90007726327E+02  0.89999987515E+02 0.  0.
        -12    1    1    2    0    0 -0.76294776010E+00  0.61805233501E+00 -0.65495646361E+00  0.11802736728E+01  0.00000000000E+00 0.  1.
         11    1    3    3    0    0  0.87689460484E+01 -0.38224899231E+02 -0.17790315164E+02  0.43064285085E+02  0.51100000000E-03 0. -1.
        -11    1    3    3    0    0  0.62447179076E+01  0.71874757823E+01  0.31081609776E+01  0.10015836200E+02  0.51100000000E-03 0.  1.
        -12    1    3    3    0    0 -0.14250716196E+02  0.30419371114E+02  0.15337110650E+02  0.36927605042E+02  0.00000000000E+00 0.  1.
</event>
<event>
 7    1  0.2497665E-015  0.9000766E+02  0.7816164E-02  0.1186339E+00
        -11   -1    0    0    0    0  0.00000000000E+00  0.00000000000E+00  0.45593999997E+02  0.45594000000E+02  0.51100000000E-03 0.  1.
         11   -1    0    0    0    0 -0.00000000000E+00 -0.00000000000E+00 -0.45593999997E+02  0.45594000000E+02  0.51100000000E-03 0. -1.
    9900012    2    1    2    0    0  0.22665318083E+00  0.95631896841E+00  0.65366591125E+00  0.90007662439E+02  0.89999922783E+02 0.  0.
        -12    1    1    2    0    0 -0.22665318083E+00 -0.95631896841E+00 -0.65366591125E+00  0.11803375607E+01  0.00000000000E+00 0.  1.
         11    1    3    3    0    0  0.46491576198E+01  0.13610783454E+02  0.15027773692E+02  0.20801492139E+02  0.51100000000E-03 0. -1.
        -11    1    3    3    0    0  0.26027913900E+02 -0.18974918352E+02  0.49553334216E+01  0.32589187747E+02  0.51100000000E-03 0.  1.
         12    1    3    3    0    0 -0.30450418339E+02  0.63204538659E+01 -0.19329441202E+02  0.36616982553E+02  0.00000000000E+00 0. -1.
</event>
<event>
 7    1  0.2497665E-015  0.9000802E+02  0.7816164E-02  0.1186338E+00
        -11   -1    0    0    0    0  0.00000000000E+00  0.00000000000E+00  0.45593999997E+02  0.45594000000E+02  0.51100000000E-03 0.  1.
         11   -1    0    0    0    0 -0.00000000000E+00 -0.00000000000E+00 -0.45593999997E+02  0.45594000000E+02  0.51100000000E-03 0. -1.
    9900012    2    1    2    0    0 -0.60044214603E+00 -0.65574289333E+00  0.77576723238E+00  0.90008023597E+02  0.90000288708E+02 0.  0.
        -12    1    1    2    0    0  0.60044214603E+00  0.65574289333E+00 -0.77576723238E+00  0.11799764030E+01  0.00000000000E+00 0.  1.
         11    1    3    3    0    0 -0.22574160329E+02  0.21095692938E+02 -0.24505564645E+02  0.39435309989E+02  0.51100000000E-03 0. -1.
        -11    1    3    3    0    0  0.60675384152E+00  0.50646377786E+00  0.19086790810E+02  0.19103147371E+02  0.51100000000E-03 0.  1.
        -12    1    3    3    0    0  0.21366964341E+02 -0.22257899609E+02  0.61945410675E+01  0.31469566238E+02  0.00000000000E+00 0.  1.
</event>
<event>
 7    1  0.2497665E-015  0.9000776E+02  0.7816164E-02  0.1186339E+00
        -11   -1    0    0    0    0  0.00000000000E+00  0.00000000000E+00  0.45593999997E+02  0.45594000000E+02  0.51100000000E-03 0.  1.
         11   -1    0    0    0    0 -0.00000000000E+00 -0.00000000000E+00 -0.45593999997E+02  0.45594000000E+02  0.51100000000E-03 0. -1.
    9900012    2    1    2    0    0  0.40863128058E+00 -0.39408060179E+00 -0.10347393239E+01  0.90007760824E+02  0.90000022467E+02 0.  0.
        -12    1    1    2    0    0 -0.40863128058E+00  0.39408060179E+00  0.10347393239E+01  0.11802391760E+01  0.00000000000E+00 0.  1.
         11    1    3    3    0    0 -0.25791708415E+02  0.27458096636E+02 -0.16756119762E+02  0.41230169095E+02  0.51100000000E-03 0. -1.
        -11    1    3    3    0    0  0.17886575107E+01 -0.40190499277E+01 -0.66549463592E+01  0.79774914176E+01  0.51100000000E-03 0.  1.
        -12    1    3    3    0    0  0.24411682185E+02 -0.23833127311E+02  0.22376326797E+02  0.40800100311E+02  0.00000000000E+00 0.  1.
</event>
<event>
 7    1  0.2497665E-015  0.9000776E+02  0.7816164E-02  0.1186339E+00
        -11   -1    0    0    0    0  0.00000000000E+00  0.00000000000E+00  0.45593999997E+02  0.45594000000E+02  0.51100000000E-03 0.  1.
         11   -1    0    0    0    0 -0.00000000000E+00 -0.00000000000E+00 -0.45593999997E+02  0.45594000000E+02  0.51100000000E-03 0. -1.
    9900012    2    1    2    0    0  0.55333445656E-01  0.97597353642E+00 -0.66133927842E+00  0.90007764526E+02  0.90000026217E+02 0.  0.
        -12    1    1    2    0    0 -0.55333445656E-01 -0.97597353642E+00  0.66133927842E+00  0.11802354745E+01  0.00000000000E+00 0.  1.
         11    1    3    3    0    0  0.76258039378E+01 -0.70712100528E+00 -0.46034958136E+01  0.89356074097E+01  0.51100000000E-03 0. -1.
        -11    1    3    3    0    0  0.58191250504E+01 -0.35531517149E+02 -0.12678107031E+02  0.38171787035E+02  0.51100000000E-03 0.  1.
         12    1    3    3    0    0 -0.13389595542E+02  0.37214611691E+02  0.16620263566E+02  0.42900370081E+02  0.00000000000E+00 0. -1.
</event>
<event>
 7    1  0.2497665E-015  0.9000763E+02  0.7816164E-02  0.1186339E+00
        -11   -1    0    0    0    0  0.00000000000E+00  0.00000000000E+00  0.45593999997E+02  0.45594000000E+02  0.51100000000E-03 0. -1.
         11   -1    0    0    0    0 -0.00000000000E+00 -0.00000000000E+00 -0.45593999997E+02  0.45594000000E+02  0.51100000000E-03 0.  1.
    9900012    2    1    2    0    0  0.33321231163E+00  0.59697542978E+00  0.96221308921E+00  0.90007633897E+02  0.89999893864E+02 0.  0.
        -12    1    1    2    0    0 -0.33321231163E+00 -0.59697542978E+00 -0.96221308921E+00  0.11803661031E+01  0.00000000000E+00 0.  1.
         11    1    3    3    0    0 -0.65272172735E+01  0.17408423800E+01 -0.33882574372E+01  0.75574722129E+01  0.51100000000E-03 0. -1.
        -11    1    3    3    0    0 -0.11360791997E+02 -0.25040303742E+02  0.31597068979E+02  0.41886264749E+02  0.51100000000E-03 0.  1.
         12    1    3    3    0    0  0.18221221582E+02  0.23896436792E+02 -0.27246598453E+02  0.40563896935E+02  0.00000000000E+00 0. -1.
</event>
<event>
 7    1  0.2497665E-015  0.9000776E+02  0.7816164E-02  0.1186339E+00
        -11   -1    0    0    0    0  0.00000000000E+00  0.00000000000E+00  0.45593999997E+02  0.45594000000E+02  0.51100000000E-03 0. -1.
         11   -1    0    0    0    0 -0.00000000000E+00 -0.00000000000E+00 -0.45593999997E+02  0.45594000000E+02  0.51100000000E-03 0.  1.
    9900012    2    1    2    0    0 -0.74777741903E+00  0.84310253834E+00 -0.35067058532E+00  0.90007761542E+02  0.90000023194E+02 0.  0.
        -12    1    1    2    0    0  0.74777741903E+00 -0.84310253834E+00  0.35067058532E+00  0.11802384581E+01  0.00000000000E+00 0.  1.
         11    1    3    3    0    0 -0.26224987857E+02  0.12461950267E+02 -0.23451236167E+02  0.37323058162E+02  0.51100000000E-03 0. -1.
        -11    1    3    3    0    0 -0.56241259209E+01  0.70336513607E+01 -0.11192034664E+01  0.90750019558E+01  0.51100000000E-03 0.  1.
        -12    1    3    3    0    0  0.31101336359E+02 -0.18652499089E+02  0.24219769048E+02  0.43609701424E+02  0.00000000000E+00 0.  1.
</event>
<event>
 7    1  0.2497665E-015  0.9000776E+02  0.7816164E-02  0.1186339E+00
        -11   -1    0    0    0    0  0.00000000000E+00  0.00000000000E+00  0.45593999997E+02  0.45594000000E+02  0.51100000000E-03 0. -1.
         11   -1    0    0    0    0 -0.00000000000E+00 -0.00000000000E+00 -0.45593999997E+02  0.45594000000E+02  0.51100000000E-03 0.  1.
    9900012    2    1    2    0    0 -0.87333874515E+00 -0.12873325293E+00 -0.78337190487E+00  0.90007760891E+02  0.90000022534E+02 0.  0.
        -12    1    1    2    0    0  0.87333874515E+00  0.12873325293E+00  0.78337190487E+00  0.11802391095E+01  0.00000000000E+00 0.  1.
         11    1    3    3    0    0 -0.59069046880E+01  0.99307558319E+00  0.87714799219E+01  0.10621515070E+02  0.51100000000E-03 0. -1.
        -11    1    3    3    0    0 -0.17489435797E+02 -0.33845642507E+02  0.15780536967E+01  0.38130016194E+02  0.51100000000E-03 0.  1.
         12    1    3    3    0    0  0.22523001740E+02  0.32723833671E+02 -0.11132905523E+02  0.41256229626E+02  0.00000000000E+00 0. -1.
</event>
<event>
 7    1  0.2497665E-015  0.9000782E+02  0.7816164E-02  0.1186339E+00
        -11   -1    0    0    0    0  0.00000000000E+00  0.00000000000E+00  0.45593999997E+02  0.45594000000E+02  0.51100000000E-03 0.  1.
         11   -1    0    0    0    0 -0.00000000000E+00 -0.00000000000E+00 -0.45593999997E+02  0.45594000000E+02  0.51100000000E-03 0. -1.
    9900012    2    1    2    0    0 -0.10692506101E+01 -0.39548045107E+00  0.30516024363E+00  0.90007820171E+02  0.90000082597E+02 0.  0.
        -12    1    1    2    0    0  0.10692506101E+01  0.39548045107E+00 -0.30516024363E+00  0.11801798290E+01  0.00000000000E+00 0.  1.
         11    1    3    3    0    0 -0.10500675854E+02 -0.34321262782E+01  0.46080202528E+01  0.11969859443E+02  0.51100000000E-03 0. -1.
        -11    1    3    3    0    0  0.20705934298E+02 -0.31132164248E+02 -0.15323170811E+02  0.40407263331E+02  0.51100000000E-03 0.  1.
         12    1    3    3    0    0 -0.11274509054E+02  0.34168810075E+02  0.11020310802E+02  0.37630697397E+02  0.00000000000E+00 0. -1.
</event>
<event>
 7    1  0.2497665E-015  0.9000648E+02  0.7816164E-02  0.1186342E+00
        -11   -1    0    0    0    0  0.00000000000E+00  0.00000000000E+00  0.45593999997E+02  0.45594000000E+02  0.51100000000E-03 0.  1.
         11   -1    0    0    0    0 -0.00000000000E+00 -0.00000000000E+00 -0.45593999997E+02  0.45594000000E+02  0.51100000000E-03 0. -1.
    9900012    2    1    2    0    0  0.67477084029E+00  0.75079790130E+00 -0.61398346288E+00  0.90006480272E+02  0.89998725002E+02 0.  0.
        -12    1    1    2    0    0 -0.67477084029E+00 -0.75079790130E+00  0.61398346288E+00  0.11815197282E+01  0.00000000000E+00 0.  1.
         11    1    3    3    0    0  0.11052335021E+02  0.10996395095E+02 -0.26405219969E+01  0.15812879914E+02  0.51100000000E-03 0. -1.
        -11    1    3    3    0    0 -0.17961496622E+02  0.27190153193E+02 -0.10103675546E+02  0.34117503593E+02  0.51100000000E-03 0.  1.
        -12    1    3    3    0    0  0.75839324414E+01 -0.37435750387E+02  0.12130214080E+02  0.40076096765E+02  0.00000000000E+00 0.  1.
</event>
<event>
 7    1  0.2497665E-015  0.9000774E+02  0.7816164E-02  0.1186339E+00
        -11   -1    0    0    0    0  0.00000000000E+00  0.00000000000E+00  0.45593999997E+02  0.45594000000E+02  0.51100000000E-03 0.  1.
         11   -1    0    0    0    0 -0.00000000000E+00 -0.00000000000E+00 -0.45593999997E+02  0.45594000000E+02  0.51100000000E-03 0. -1.
    9900012    2    1    2    0    0  0.10450785213E+01  0.42993023225E-01 -0.54678394401E+00  0.90007741470E+02  0.90000002858E+02 0.  0.
        -12    1    1    2    0    0 -0.10450785213E+01 -0.42993023225E-01  0.54678394401E+00  0.11802585298E+01  0.00000000000E+00 0.  1.
         11    1    3    3    0    0  0.89043411778E+01  0.23815027850E+01  0.34149261308E+01  0.98295761895E+01  0.51100000000E-03 0. -1.
        -11    1    3    3    0    0  0.19440545239E+02 -0.59226977602E+01  0.30138030937E+02  0.36349883865E+02  0.51100000000E-03 0.  1.
         12    1    3    3    0    0 -0.27299807896E+02  0.35841879984E+01 -0.34099741012E+02  0.43828281416E+02  0.00000000000E+00 0. -1.
</event>
<event>
 7    1  0.2497665E-015  0.9000774E+02  0.7816164E-02  0.1186339E+00
        -11   -1    0    0    0    0  0.00000000000E+00  0.00000000000E+00  0.45593999997E+02  0.45594000000E+02  0.51100000000E-03 0.  1.
         11   -1    0    0    0    0 -0.00000000000E+00 -0.00000000000E+00 -0.45593999997E+02  0.45594000000E+02  0.51100000000E-03 0. -1.
    9900012    2    1    2    0    0 -0.25085252883E-01 -0.11470724563E+01 -0.27676231254E+00  0.90007744999E+02  0.90000006433E+02 0.  0.
        -12    1    1    2    0    0  0.25085252883E-01  0.11470724563E+01  0.27676231254E+00  0.11802550010E+01  0.00000000000E+00 0.  1.
         11    1    3    3    0    0 -0.30989632549E+02 -0.21041509341E+02 -0.40803785277E+01  0.37679595672E+02  0.51100000000E-03 0. -1.
        -11    1    3    3    0    0 -0.27043853083E+01 -0.22382934261E+01 -0.93147141748E+01  0.99542733425E+01  0.51100000000E-03 0.  1.
        -12    1    3    3    0    0  0.33668932604E+02  0.22132730311E+02  0.13118330390E+02  0.42373875984E+02  0.00000000000E+00 0.  1.
</event>
<event>
 7    1  0.2497665E-015  0.9000770E+02  0.7816164E-02  0.1186339E+00
        -11   -1    0    0    0    0  0.00000000000E+00  0.00000000000E+00  0.45593999997E+02  0.45594000000E+02  0.51100000000E-03 0.  1.
         11   -1    0    0    0    0 -0.00000000000E+00 -0.00000000000E+00 -0.45593999997E+02  0.45594000000E+02  0.51100000000E-03 0. -1.
    9900012    2    1    2    0    0 -0.22395192761E-01  0.92431710245E+00 -0.73364582071E+00  0.90007703495E+02  0.89999964381E+02 0.  0.
        -12    1    1    2    0    0  0.22395192761E-01 -0.92431710245E+00  0.73364582071E+00  0.11802965055E+01  0.00000000000E+00 0.  1.
         11    1    3    3    0    0 -0.93935766432E+01  0.77606694393E-01 -0.11423805478E+01  0.94631040641E+01  0.51100000000E-03 0. -1.
        -11    1    3    3    0    0  0.61929201913E+01  0.40057227314E+02 -0.49808548924E+01  0.40838004803E+02  0.51100000000E-03 0.  1.
         12    1    3    3    0    0  0.31782612591E+01 -0.39210516906E+02  0.53895896195E+01  0.39706594628E+02  0.00000000000E+00 0. -1.
</event>
<event>
 7    1  0.2497665E-015  0.9000773E+02  0.7816164E-02  0.1186339E+00
        -11   -1    0    0    0    0  0.00000000000E+00  0.00000000000E+00  0.45593999997E+02  0.45594000000E+02  0.51100000000E-03 0. -1.
         11   -1    0    0    0    0 -0.00000000000E+00 -0.00000000000E+00 -0.45593999997E+02  0.45594000000E+02  0.51100000000E-03 0.  1.
    9900012    2    1    2    0    0 -0.10245312405E+01  0.39749669156E+00 -0.43053601192E+00  0.90007733445E+02  0.89999994727E+02 0.  0.
        -12    1    1    2    0    0  0.10245312405E+01 -0.39749669156E+00  0.43053601192E+00  0.11802665547E+01  0.00000000000E+00 0.  1.
         11    1    3    3    0    0  0.24365884551E+02 -0.31461312173E+02  0.91750978789E+01  0.40837396035E+02  0.51100000000E-03 0. -1.
        -11    1    3    3    0    0  0.29346880075E+00  0.86816090188E+01  0.66561356632E+01  0.10943518690E+02  0.51100000000E-03 0.  1.
        -12    1    3    3    0    0 -0.25683884592E+02  0.23177199846E+02 -0.16261769554E+02  0.38226818720E+02  0.00000000000E+00 0.  1.
</event>
<event>
 7    1  0.2497665E-015  0.9000770E+02  0.7816164E-02  0.1186339E+00
        -11   -1    0    0    0    0  0.00000000000E+00  0.00000000000E+00  0.45593999997E+02  0.45594000000E+02  0.51100000000E-03 0. -1.
         11   -1    0    0    0    0 -0.00000000000E+00 -0.00000000000E+00 -0.45593999997E+02  0.45594000000E+02  0.51100000000E-03 0.  1.
    9900012    2    1    2    0    0 -0.10066408052E+01  0.55059656222E+00  0.27680495810E+00  0.90007702042E+02  0.89999962909E+02 0.  0.
        -12    1    1    2    0    0  0.10066408052E+01 -0.55059656222E+00 -0.27680495810E+00  0.11802979581E+01  0.00000000000E+00 0.  1.
         11    1    3    3    0    0  0.26987263196E+02  0.11622341751E+01  0.69136485749E+01  0.27883000197E+02  0.51100000000E-03 0. -1.
        -11    1    3    3    0    0  0.12346848508E+02 -0.52070014391E+01  0.11498325996E+02  0.17656982558E+02  0.51100000000E-03 0.  1.
        -12    1    3    3    0    0 -0.40340752509E+02  0.45953638263E+01 -0.18135169613E+02  0.44467719287E+02  0.00000000000E+00 0.  1.
</event>
<event>
 7    1  0.2497665E-015  0.9000815E+02  0.7816164E-02  0.1186338E+00
        -11   -1    0    0    0    0  0.00000000000E+00  0.00000000000E+00  0.45593999997E+02  0.45594000000E+02  0.51100000000E-03 0.  1.
         11   -1    0    0    0    0 -0.00000000000E+00 -0.00000000000E+00 -0.45593999997E+02  0.45594000000E+02  0.51100000000E-03 0. -1.
    9900012    2    1    2    0    0  0.63937422821E+00  0.24346677204E+00  0.96123678821E+00  0.90008147621E+02  0.90000414369E+02 0.  0.
        -12    1    1    2    0    0 -0.63937422821E+00 -0.24346677204E+00 -0.96123678821E+00  0.11798523788E+01  0.00000000000E+00 0.  1.
         11    1    3    3    0    0  0.31629160378E+02 -0.22472080895E+02  0.13246466783E+02  0.40998379096E+02  0.51100000000E-03 0. -1.
        -11    1    3    3    0    0 -0.51975325766E+00  0.39154143263E+01  0.72262119423E+01  0.82352141497E+01  0.51100000000E-03 0.  1.
        -12    1    3    3    0    0 -0.30470032892E+02  0.18800133341E+02 -0.19511441937E+02  0.40774554376E+02  0.00000000000E+00 0.  1.
</event>
<event>
 7    1  0.2497665E-015  0.9000768E+02  0.7816164E-02  0.1186339E+00
        -11   -1    0    0    0    0  0.00000000000E+00  0.00000000000E+00  0.45593999997E+02  0.45594000000E+02  0.51100000000E-03 0. -1.
         11   -1    0    0    0    0 -0.00000000000E+00 -0.00000000000E+00 -0.45593999997E+02  0.45594000000E+02  0.51100000000E-03 0.  1.
    9900012    2    1    2    0    0  0.53004934585E+00  0.80198578171E+00  0.68484574001E+00  0.90007683436E+02  0.89999944058E+02 0.  0.
        -12    1    1    2    0    0 -0.53004934585E+00 -0.80198578171E+00 -0.68484574001E+00  0.11803165638E+01  0.00000000000E+00 0.  1.
         11    1    3    3    0    0 -0.23005649814E+02 -0.86760896337E+01 -0.48094179232E+01  0.25053242419E+02  0.51100000000E-03 0. -1.
        -11    1    3    3    0    0 -0.18713632395E+02 -0.26575891752E+01 -0.54178648330E+01  0.19662555207E+02  0.51100000000E-03 0.  1.
        -12    1    3    3    0    0  0.42249331555E+02  0.12135664591E+02  0.10912128496E+02  0.45291885810E+02  0.00000000000E+00 0.  1.
</event>
<event>
 7    1  0.2497665E-015  0.9000774E+02  0.7816164E-02  0.1186339E+00
        -11   -1    0    0    0    0  0.00000000000E+00  0.00000000000E+00  0.45593999997E+02  0.45594000000E+02  0.51100000000E-03 0.  1.
         11   -1    0    0    0    0 -0.00000000000E+00 -0.00000000000E+00 -0.45593999997E+02  0.45594000000E+02  0.51100000000E-03 0. -1.
    9900012    2    1    2    0    0  0.11942484197E+00  0.91050505112E+00 -0.74144178416E+00  0.90007738309E+02  0.89999999654E+02 0.  0.
        -12    1    1    2    0    0 -0.11942484197E+00 -0.91050505112E+00  0.74144178416E+00  0.11802616914E+01  0.00000000000E+00 0.  1.
         11    1    3    3    0    0 -0.14605305400E+02 -0.80051799566E+01 -0.34786669161E+02  0.38568253831E+02  0.51100000000E-03 0. -1.
        -11    1    3    3    0    0  0.58097650067E+01  0.55592955257E+01 -0.61548012549E+01  0.10126238933E+02  0.51100000000E-03 0.  1.
        -12    1    3    3    0    0  0.89149652354E+01  0.33563894820E+01  0.40200028632E+02  0.41313245545E+02  0.00000000000E+00 0.  1.
</event>
<event>
 7    1  0.2497665E-015  0.9000772E+02  0.7816164E-02  0.1186339E+00
        -11   -1    0    0    0    0  0.00000000000E+00  0.00000000000E+00  0.45593999997E+02  0.45594000000E+02  0.51100000000E-03 0.  1.
         11   -1    0    0    0    0 -0.00000000000E+00 -0.00000000000E+00 -0.45593999997E+02  0.45594000000E+02  0.51100000000E-03 0. -1.
    9900012    2    1    2    0    0  0.61793721428E+00 -0.18258402908E+00 -0.98887840231E+00  0.90007718753E+02  0.89999979840E+02 0.  0.
        -12    1    1    2    0    0 -0.61793721428E+00  0.18258402908E+00  0.98887840231E+00  0.11802812474E+01  0.00000000000E+00 0.  1.
         11    1    3    3    0    0 -0.77636401289E+01  0.68121871811E+00  0.59113410626E+01  0.97817237956E+01  0.51100000000E-03 0. -1.
        -11    1    3    3    0    0 -0.35386055783E+02  0.31710056150E+01  0.11272728984E+01  0.35545730615E+02  0.51100000000E-03 0.  1.
         12    1    3    3    0    0  0.43767633127E+02 -0.40348083622E+01 -0.80274923633E+01  0.44680264342E+02  0.00000000000E+00 0. -1.
</event>
<event>
 7    1  0.2497665E-015  0.9000772E+02  0.7816164E-02  0.1186339E+00
        -11   -1    0    0    0    0  0.00000000000E+00  0.00000000000E+00  0.45593999997E+02  0.45594000000E+02  0.51100000000E-03 0.  1.
         11   -1    0    0    0    0 -0.00000000000E+00 -0.00000000000E+00 -0.45593999997E+02  0.45594000000E+02  0.51100000000E-03 0. -1.
    9900012    2    1    2    0    0 -0.46642661874E+00  0.10807148031E+01  0.86917181098E-01  0.90007723391E+02  0.89999984540E+02 0.  0.
        -12    1    1    2    0    0  0.46642661874E+00 -0.10807148031E+01 -0.86917181098E-01  0.11802766085E+01  0.00000000000E+00 0.  1.
         11    1    3    3    0    0  0.64653153058E+01 -0.53342418238E+01 -0.24808288235E+01  0.87412212963E+01  0.51100000000E-03 0. -1.
        -11    1    3    3    0    0  0.15504666499E+02 -0.32522054174E+02  0.43625299245E+01  0.36292015079E+02  0.51100000000E-03 0.  1.
         12    1    3    3    0    0 -0.22436408423E+02  0.38937010801E+02 -0.17947839200E+01  0.44974487016E+02  0.00000000000E+00 0. -1.
</event>
<event>
 7    1  0.2497665E-015  0.9000787E+02  0.7816164E-02  0.1186339E+00
        -11   -1    0    0    0    0  0.00000000000E+00  0.00000000000E+00  0.45593999997E+02  0.45594000000E+02  0.51100000000E-03 0.  1.
         11   -1    0    0    0    0 -0.00000000000E+00 -0.00000000000E+00 -0.45593999997E+02  0.45594000000E+02  0.51100000000E-03 0. -1.
    9900012    2    1    2    0    0 -0.45500446481E+00  0.83299982984E+00 -0.70127299935E+00  0.90007872211E+02  0.90000135324E+02 0.  0.
        -12    1    1    2    0    0  0.45500446481E+00 -0.83299982984E+00  0.70127299935E+00  0.11801277893E+01  0.00000000000E+00 0.  1.
         11    1    3    3    0    0 -0.15791824871E+01  0.27653712938E+02  0.21349717169E+02  0.34971875558E+02  0.51100000000E-03 0. -1.
        -11    1    3    3    0    0 -0.21524247249E+01  0.64178384616E+01  0.77387211476E+01  0.10281507087E+02  0.51100000000E-03 0.  1.
        -12    1    3    3    0    0  0.32766027473E+01 -0.33238551570E+02 -0.29789711316E+02  0.44754489566E+02  0.00000000000E+00 0.  1.
</event>
<event>
 7    1  0.2497665E-015  0.9000759E+02  0.7816164E-02  0.1186339E+00
        -11   -1    0    0    0    0  0.00000000000E+00  0.00000000000E+00  0.45593999997E+02  0.45594000000E+02  0.51100000000E-03 0. -1.
         11   -1    0    0    0    0 -0.00000000000E+00 -0.00000000000E+00 -0.45593999997E+02  0.45594000000E+02  0.51100000000E-03 0.  1.
    9900012    2    1    2    0    0  0.11710968329E+01  0.11922022146E+00 -0.87650519097E-01  0.90007591653E+02  0.89999851062E+02 0.  0.
        -12    1    1    2    0    0 -0.11710968329E+01 -0.11922022146E+00  0.87650519097E-01  0.11804083475E+01  0.00000000000E+00 0.  1.
         11    1    3    3    0    0 -0.40604980548E+01  0.88453929660E+01 -0.16893267919E+01  0.98783827850E+01  0.51100000000E-03 0. -1.
        -11    1    3    3    0    0  0.23636936276E+01  0.27525444468E+02  0.24691843103E+02  0.37052992548E+02  0.51100000000E-03 0.  1.
         12    1    3    3    0    0  0.28679012602E+01 -0.36251617212E+02 -0.23090166830E+02  0.43076216319E+02  0.00000000000E+00 0. -1.
</event>
<event>
 7    1  0.2497665E-015  0.9000783E+02  0.7816164E-02  0.1186339E+00
        -11   -1    0    0    0    0  0.00000000000E+00  0.00000000000E+00  0.45593999997E+02  0.45594000000E+02  0.51100000000E-03 0.  1.
         11   -1    0    0    0    0 -0.00000000000E+00 -0.00000000000E+00 -0.45593999997E+02  0.45594000000E+02  0.51100000000E-03 0. -1.
    9900012    2    1    2    0    0  0.84799555277E+00 -0.68283348545E+00  0.45546848696E+00  0.90007826467E+02  0.90000088976E+02 0.  0.
        -12    1    1    2    0    0 -0.84799555277E+00  0.68283348545E+00 -0.45546848696E+00  0.11801735334E+01  0.00000000000E+00 0.  1.
         11    1    3    3    0    0  0.33920348157E+02  0.91758327752E+00 -0.17518218694E+02  0.38187955753E+02  0.51100000000E-03 0. -1.
        -11    1    3    3    0    0  0.53578964514E+01 -0.79072731018E+01  0.49329098293E+01  0.10750145205E+02  0.51100000000E-03 0.  1.
        -12    1    3    3    0    0 -0.38430249055E+02  0.63068563388E+01  0.13040777352E+02  0.41069725508E+02  0.00000000000E+00 0.  1.
</event>
<event>
 7    1  0.2497665E-015  0.9000774E+02  0.7816164E-02  0.1186339E+00
        -11   -1    0    0    0    0  0.00000000000E+00  0.00000000000E+00  0.45593999997E+02  0.45594000000E+02  0.51100000000E-03 0. -1.
         11   -1    0    0    0    0 -0.00000000000E+00 -0.00000000000E+00 -0.45593999997E+02  0.45594000000E+02  0.51100000000E-03 0.  1.
    9900012    2    1    2    0    0 -0.42098304050E+00 -0.15418437939E+00  0.10917921304E+01  0.90007741724E+02  0.90000003114E+02 0.  0.
        -12    1    1    2    0    0  0.42098304050E+00  0.15418437939E+00 -0.10917921304E+01  0.11802582765E+01  0.00000000000E+00 0.  1.
         11    1    3    3    0    0 -0.61016795849E+01 -0.82719523815E+01  0.16078818038E+01  0.10403892258E+02  0.51100000000E-03 0. -1.
        -11    1    3    3    0    0  0.59195172126E+01 -0.14441394574E+02 -0.35041955305E+02  0.38360568206E+02  0.51100000000E-03 0.  1.
         12    1    3    3    0    0 -0.23882066819E+00  0.22559162576E+02  0.34525865632E+02  0.41243281259E+02  0.00000000000E+00 0. -1.
</event>
<event>
 7    1  0.2497665E-015  0.9000770E+02  0.7816164E-02  0.1186339E+00
        -11   -1    0    0    0    0  0.00000000000E+00  0.00000000000E+00  0.45593999997E+02  0.45594000000E+02  0.51100000000E-03 0. -1.
         11   -1    0    0    0    0 -0.00000000000E+00 -0.00000000000E+00 -0.45593999997E+02  0.45594000000E+02  0.51100000000E-03 0.  1.
    9900012    2    1    2    0    0  0.54163333365E+00  0.56835931440E+00 -0.88131257949E+00  0.90007698835E+02  0.89999959659E+02 0.  0.
        -12    1    1    2    0    0 -0.54163333365E+00 -0.56835931440E+00  0.88131257949E+00  0.11803011654E+01  0.00000000000E+00 0.  1.
         11    1    3    3    0    0 -0.27190055057E+02  0.63333594527E+01  0.21552288347E+02  0.35269131960E+02  0.51100000000E-03 0. -1.
        -11    1    3    3    0    0 -0.10117046984E+02  0.58706245084E+00  0.28904096768E+00  0.10138186571E+02  0.51100000000E-03 0.  1.
        -12    1    3    3    0    0  0.37848735375E+02 -0.63520625891E+01 -0.22722641894E+02  0.44600380304E+02  0.00000000000E+00 0.  1.
</event>
<event>
 7    1  0.2497665E-015  0.9000883E+02  0.7816164E-02  0.1186337E+00
        -11   -1    0    0    0    0  0.00000000000E+00  0.00000000000E+00  0.45593999997E+02  0.45594000000E+02  0.51100000000E-03 0. -1.
         11   -1    0    0    0    0 -0.00000000000E+00 -0.00000000000E+00 -0.45593999997E+02  0.45594000000E+02  0.51100000000E-03 0.  1.
    9900012    2    1    2    0    0 -0.38686947168E+00 -0.11067333123E+01 -0.12619612150E+00  0.90008825681E+02  0.90001101374E+02 0.  0.
        -12    1    1    2    0    0  0.38686947168E+00  0.11067333123E+01  0.12619612150E+00  0.11791743187E+01  0.00000000000E+00 0.  1.
         11    1    3    3    0    0  0.32777387820E+01  0.10430494107E+02  0.22833771674E+01  0.11169269913E+02  0.51100000000E-03 0. -1.
        -11    1    3    3    0    0  0.23960330168E+02 -0.35079873181E+02 -0.30734456304E+00  0.42482812819E+02  0.51100000000E-03 0.  1.
         12    1    3    3    0    0 -0.27624938422E+02  0.23542645761E+02 -0.21022287259E+01  0.36356742949E+02  0.00000000000E+00 0. -1.
</event>
<event>
 7    1  0.2497665E-015  0.9000778E+02  0.7816164E-02  0.1186339E+00
        -11   -1    0    0    0    0  0.00000000000E+00  0.00000000000E+00  0.45593999997E+02  0.45594000000E+02  0.51100000000E-03 0. -1.
         11   -1    0    0    0    0 -0.00000000000E+00 -0.00000000000E+00 -0.45593999997E+02  0.45594000000E+02  0.51100000000E-03 0.  1.
    9900012    2    1    2    0    0  0.60668374832E+00  0.13912667418E+00  0.10027508756E+01  0.90007775140E+02  0.90000036972E+02 0.  0.
        -12    1    1    2    0    0 -0.60668374832E+00 -0.13912667418E+00 -0.10027508756E+01  0.11802248601E+01  0.00000000000E+00 0.  1.
         11    1    3    3    0    0 -0.96559465275E+00 -0.30059358157E+02 -0.19970374511E+02  0.36101429947E+02  0.51100000000E-03 0. -1.
        -11    1    3    3    0    0  0.67700893940E+01 -0.83347162073E+01  0.36679504572E+01  0.11347046553E+02  0.51100000000E-03 0.  1.
        -12    1    3    3    0    0 -0.51978109929E+01  0.38533201038E+02  0.17305174929E+02  0.42559298640E+02  0.00000000000E+00 0.  1.
</event>
<event>
 7    1  0.2497665E-015  0.9000770E+02  0.7816164E-02  0.1186339E+00
        -11   -1    0    0    0    0  0.00000000000E+00  0.00000000000E+00  0.45593999997E+02  0.45594000000E+02  0.51100000000E-03 0.  1.
         11   -1    0    0    0    0 -0.00000000000E+00 -0.00000000000E+00 -0.45593999997E+02  0.45594000000E+02  0.51100000000E-03 0. -1.
    9900012    2    1    2    0    0  0.11558139315E+01 -0.23749126164E+00  0.28283442274E-01  0.90007700082E+02  0.89999960923E+02 0.  0.
        -12    1    1    2    0    0 -0.11558139315E+01  0.23749126164E+00 -0.28283442274E-01  0.11802999181E+01  0.00000000000E+00 0.  1.
         11    1    3    3    0    0  0.90547680212E+01  0.25341696455E+02  0.28193094322E+02  0.38974876149E+02  0.51100000000E-03 0. -1.
        -11    1    3    3    0    0 -0.39114508807E+01  0.71960083595E+01 -0.94966024973E+00  0.82452312977E+01  0.51100000000E-03 0.  1.
        -12    1    3    3    0    0 -0.39875032090E+01 -0.32775196076E+02 -0.27215150630E+02  0.42787592635E+02  0.00000000000E+00 0.  1.
</event>
<event>
 7    1  0.2497665E-015  0.9000765E+02  0.7816164E-02  0.1186339E+00
        -11   -1    0    0    0    0  0.00000000000E+00  0.00000000000E+00  0.45593999997E+02  0.45594000000E+02  0.51100000000E-03 0.  1.
         11   -1    0    0    0    0 -0.00000000000E+00 -0.00000000000E+00 -0.45593999997E+02  0.45594000000E+02  0.51100000000E-03 0. -1.
    9900012    2    1    2    0    0  0.34600745795E+00  0.48231812007E+00 -0.10202336984E+01  0.90007648896E+02  0.89999909061E+02 0.  0.
        -12    1    1    2    0    0 -0.34600745795E+00 -0.48231812007E+00  0.10202336984E+01  0.11803511042E+01  0.00000000000E+00 0.  1.
         11    1    3    3    0    0  0.86341515308E+01  0.22879537256E+02 -0.30477104819E+02  0.39075257083E+02  0.51100000000E-03 0. -1.
        -11    1    3    3    0    0 -0.39979428454E+01 -0.58628488417E+01 -0.74348807307E+01  0.10277840010E+02  0.51100000000E-03 0.  1.
        -12    1    3    3    0    0 -0.42902012275E+01 -0.16534370294E+02  0.36891751851E+02  0.40654551802E+02  0.00000000000E+00 0.  1.
</event>
<event>
 7    1  0.2497665E-015  0.9000776E+02  0.7816164E-02  0.1186339E+00
        -11   -1    0    0    0    0  0.00000000000E+00  0.00000000000E+00  0.45593999997E+02  0.45594000000E+02  0.51100000000E-03 0. -1.
         11   -1    0    0    0    0 -0.00000000000E+00 -0.00000000000E+00 -0.45593999997E+02  0.45594000000E+02  0.51100000000E-03 0.  1.
    9900012    2    1    2    0    0  0.65748836777E+00  0.76919564112E+00 -0.60747314912E+00  0.90007755739E+02  0.90000017315E+02 0.  0.
        -12    1    1    2    0    0 -0.65748836777E+00 -0.76919564112E+00  0.60747314912E+00  0.11802442607E+01  0.00000000000E+00 0.  1.
         11    1    3    3    0    0 -0.35653810538E+02 -0.11153907527E+02  0.71065735643E+01  0.38027716828E+02  0.51100000000E-03 0. -1.
        -11    1    3    3    0    0  0.44323483253E+01 -0.79769168213E+01  0.71234318286E+01  0.11576709158E+02  0.51100000000E-03 0.  1.
        -12    1    3    3    0    0  0.31878950581E+02  0.19900019989E+02 -0.14837478542E+02  0.40403329754E+02  0.00000000000E+00 0.  1.
</event>
<event>
 7    1  0.2497665E-015  0.9000769E+02  0.7816164E-02  0.1186339E+00
        -11   -1    0    0    0    0  0.00000000000E+00  0.00000000000E+00  0.45593999997E+02  0.45594000000E+02  0.51100000000E-03 0. -1.
         11   -1    0    0    0    0 -0.00000000000E+00 -0.00000000000E+00 -0.45593999997E+02  0.45594000000E+02  0.51100000000E-03 0.  1.
    9900012    2    1    2    0    0  0.30486711516E+00 -0.11215166631E+01  0.20586358911E+00  0.90007693514E+02  0.89999954268E+02 0.  0.
        -12    1    1    2    0    0 -0.30486711516E+00  0.11215166631E+01 -0.20586358911E+00  0.11803064860E+01  0.00000000000E+00 0.  1.
         11    1    3    3    0    0  0.19605801982E+02 -0.30530651691E+02  0.16575497464E+02  0.39890541241E+02  0.51100000000E-03 0. -1.
        -11    1    3    3    0    0  0.78741037561E+01  0.29788050125E+01 -0.72904876373E+01  0.11136696077E+02  0.51100000000E-03 0.  1.
        -12    1    3    3    0    0 -0.27175038623E+02  0.26430330015E+02 -0.90791462379E+01  0.38980456196E+02  0.00000000000E+00 0.  1.
</event>
<event>
 7    1  0.2497665E-015  0.9000774E+02  0.7816164E-02  0.1186339E+00
        -11   -1    0    0    0    0  0.00000000000E+00  0.00000000000E+00  0.45593999997E+02  0.45594000000E+02  0.51100000000E-03 0. -1.
         11   -1    0    0    0    0 -0.00000000000E+00 -0.00000000000E+00 -0.45593999997E+02  0.45594000000E+02  0.51100000000E-03 0.  1.
    9900012    2    1    2    0    0  0.95159197033E+00 -0.44651526443E+00  0.53675676940E+00  0.90007741135E+02  0.90000002518E+02 0.  0.
        -12    1    1    2    0    0 -0.95159197033E+00  0.44651526443E+00 -0.53675676940E+00  0.11802588652E+01  0.00000000000E+00 0.  1.
         11    1    3    3    0    0  0.33632026168E+01  0.51241855060E+01 -0.85515538930E+01  0.10521287145E+02  0.51100000000E-03 0. -1.
        -11    1    3    3    0    0  0.24750255488E+02  0.23456749624E+02 -0.97908985167E+01  0.35477541398E+02  0.51100000000E-03 0.  1.
         12    1    3    3    0    0 -0.27161866134E+02 -0.29027450394E+02  0.18879209179E+02  0.44008912592E+02  0.00000000000E+00 0. -1.
</event>
<event>
 7    1  0.2497665E-015  0.9000770E+02  0.7816164E-02  0.1186339E+00
        -11   -1    0    0    0    0  0.00000000000E+00  0.00000000000E+00  0.45593999997E+02  0.45594000000E+02  0.51100000000E-03 0. -1.
         11   -1    0    0    0    0 -0.00000000000E+00 -0.00000000000E+00 -0.45593999997E+02  0.45594000000E+02  0.51100000000E-03 0.  1.
    9900012    2    1    2    0    0 -0.11661435611E+01 -0.79530952366E-01 -0.16401953502E+00  0.90007695639E+02  0.89999956421E+02 0.  0.
        -12    1    1    2    0    0  0.11661435611E+01  0.79530952366E-01  0.16401953502E+00  0.11803043613E+01  0.00000000000E+00 0.  1.
         11    1    3    3    0    0  0.39309456655E+00  0.87715513398E+01  0.75225627031E+01  0.11562161828E+02  0.51100000000E-03 0. -1.
        -11    1    3    3    0    0 -0.92264557678E+01 -0.65389145627E+01 -0.41852618273E+02  0.43353506735E+02  0.51100000000E-03 0.  1.
         12    1    3    3    0    0  0.76672176402E+01 -0.23121677295E+01  0.34166036035E+02  0.35092027076E+02  0.00000000000E+00 0. -1.
</event>
<event>
 7    1  0.2497665E-015  0.9000781E+02  0.7816164E-02  0.1186339E+00
        -11   -1    0    0    0    0  0.00000000000E+00  0.00000000000E+00  0.45593999997E+02  0.45594000000E+02  0.51100000000E-03 0.  1.
         11   -1    0    0    0    0 -0.00000000000E+00 -0.00000000000E+00 -0.45593999997E+02  0.45594000000E+02  0.51100000000E-03 0. -1.
    9900012    2    1    2    0    0 -0.14234868227E+00  0.91345614999E+00 -0.73361767907E+00  0.90007805023E+02  0.90000067249E+02 0.  0.
        -12    1    1    2    0    0  0.14234868227E+00 -0.91345614999E+00  0.73361767907E+00  0.11801949773E+01  0.00000000000E+00 0.  1.
         11    1    3    3    0    0  0.73504568093E+01  0.60794294409E+01  0.10386278969E+01  0.95951772157E+01  0.51100000000E-03 0. -1.
        -11    1    3    3    0    0  0.21134446543E+02 -0.23466723943E+02  0.22396654414E+02  0.38716431815E+02  0.51100000000E-03 0.  1.
         12    1    3    3    0    0 -0.28627252035E+02  0.18300750652E+02 -0.24168899990E+02  0.41696195992E+02  0.00000000000E+00 0. -1.
</event>
<event>
 7    1  0.2497665E-015  0.9000778E+02  0.7816164E-02  0.1186339E+00
        -11   -1    0    0    0    0  0.00000000000E+00  0.00000000000E+00  0.45593999997E+02  0.45594000000E+02  0.51100000000E-03 0. -1.
         11   -1    0    0    0    0 -0.00000000000E+00 -0.00000000000E+00 -0.45593999997E+02  0.45594000000E+02  0.51100000000E-03 0.  1.
    9900012    2    1    2    0    0  0.36951870117E+00 -0.26690118008E+00  0.10886411759E+01  0.90007779715E+02  0.90000041608E+02 0.  0.
        -12    1    1    2    0    0 -0.36951870117E+00  0.26690118008E+00 -0.10886411759E+01  0.11802202847E+01  0.00000000000E+00 0.  1.
         11    1    3    3    0    0 -0.48052311629E+01 -0.95549954601E+01 -0.96904919112E+00  0.10739052163E+02  0.51100000000E-03 0. -1.
        -11    1    3    3    0    0 -0.17776844747E+02 -0.26010311119E+02  0.15445733286E+02  0.35087364829E+02  0.51100000000E-03 0.  1.
         12    1    3    3    0    0  0.22951594611E+02  0.35298405399E+02 -0.13388042919E+02  0.44181362723E+02  0.00000000000E+00 0. -1.
</event>
<event>
 7    1  0.2497665E-015  0.9000774E+02  0.7816164E-02  0.1186339E+00
        -11   -1    0    0    0    0  0.00000000000E+00  0.00000000000E+00  0.45593999997E+02  0.45594000000E+02  0.51100000000E-03 0. -1.
         11   -1    0    0    0    0 -0.00000000000E+00 -0.00000000000E+00 -0.45593999997E+02  0.45594000000E+02  0.51100000000E-03 0.  1.
    9900012    2    1    2    0    0  0.13466844122E+00 -0.51155959377E+00  0.10550787885E+01  0.90007737293E+02  0.89999998625E+02 0.  0.
        -12    1    1    2    0    0 -0.13466844122E+00  0.51155959377E+00 -0.10550787885E+01  0.11802627068E+01  0.00000000000E+00 0.  1.
         11    1    3    3    0    0  0.24915081787E+02 -0.18902014044E+02 -0.13548342973E+02  0.34082327282E+02  0.51100000000E-03 0. -1.
        -11    1    3    3    0    0  0.76930081541E+01  0.11475967885E+01 -0.92596097183E+01  0.12092961806E+02  0.51100000000E-03 0.  1.
        -12    1    3    3    0    0 -0.32473421500E+02  0.17242857662E+02  0.23863031480E+02  0.43832448205E+02  0.00000000000E+00 0.  1.
</event>
<event>
 7    1  0.2497665E-015  0.9000767E+02  0.7816164E-02  0.1186339E+00
        -11   -1    0    0    0    0  0.00000000000E+00  0.00000000000E+00  0.45593999997E+02  0.45594000000E+02  0.51100000000E-03 0.  1.
         11   -1    0    0    0    0 -0.00000000000E+00 -0.00000000000E+00 -0.45593999997E+02  0.45594000000E+02  0.51100000000E-03 0. -1.
    9900012    2    1    2    0    0 -0.95207451858E+00 -0.67218056525E+00 -0.18682703718E+00  0.90007670833E+02  0.89999931288E+02 0.  0.
        -12    1    1    2    0    0  0.95207451858E+00  0.67218056525E+00  0.18682703718E+00  0.11803291672E+01  0.00000000000E+00 0.  1.
         11    1    3    3    0    0 -0.77902417496E+01 -0.30694555481E+02 -0.35936652890E+00  0.31669744982E+02  0.51100000000E-03 0. -1.
        -11    1    3    3    0    0  0.17300651394E+01 -0.87857075130E+00 -0.20641351538E+02  0.20732351664E+02  0.51100000000E-03 0.  1.
        -12    1    3    3    0    0  0.51081020917E+01  0.30900945667E+02  0.20813891030E+02  0.37605574186E+02  0.00000000000E+00 0.  1.
</event>
<event>
 7    1  0.2497665E-015  0.9000778E+02  0.7816164E-02  0.1186339E+00
        -11   -1    0    0    0    0  0.00000000000E+00  0.00000000000E+00  0.45593999997E+02  0.45594000000E+02  0.51100000000E-03 0.  1.
         11   -1    0    0    0    0 -0.00000000000E+00 -0.00000000000E+00 -0.45593999997E+02  0.45594000000E+02  0.51100000000E-03 0. -1.
    9900012    2    1    2    0    0  0.10774465808E+00 -0.77991946122E+00 -0.87922388062E+00  0.90007780567E+02  0.90000042471E+02 0.  0.
        -12    1    1    2    0    0 -0.10774465808E+00  0.77991946122E+00  0.87922388062E+00  0.11802194328E+01  0.00000000000E+00 0.  1.
         11    1    3    3    0    0 -0.87947291033E+01 -0.23781542102E+01  0.38366303584E+00  0.91186662969E+01  0.51100000000E-03 0. -1.
        -11    1    3    3    0    0 -0.33490857819E+02  0.13235088660E+02  0.54394033317E+01  0.36419668287E+02  0.51100000000E-03 0.  1.
         12    1    3    3    0    0  0.42393331581E+02 -0.11636853911E+02 -0.67022902481E+01  0.44469445983E+02  0.00000000000E+00 0. -1.
</event>
<event>
 7    1  0.2497665E-015  0.9000775E+02  0.7816164E-02  0.1186339E+00
        -11   -1    0    0    0    0  0.00000000000E+00  0.00000000000E+00  0.45593999997E+02  0.45594000000E+02  0.51100000000E-03 0. -1.
         11   -1    0    0    0    0 -0.00000000000E+00 -0.00000000000E+00 -0.45593999997E+02  0.45594000000E+02  0.51100000000E-03 0.  1.
    9900012    2    1    2    0    0  0.29449515375E+00  0.66740073480E+00  0.92781254989E+00  0.90007751186E+02  0.90000012701E+02 0.  0.
        -12    1    1    2    0    0 -0.29449515375E+00 -0.66740073480E+00 -0.92781254989E+00  0.11802488145E+01  0.00000000000E+00 0.  1.
         11    1    3    3    0    0  0.30486967577E+02  0.10119988999E+02  0.19092532506E+02  0.37368357833E+02  0.51100000000E-03 0. -1.
        -11    1    3    3    0    0  0.29232233963E+01 -0.89279504703E+01  0.64317941896E+01  0.11385144329E+02  0.51100000000E-03 0.  1.
        -12    1    3    3    0    0 -0.33115695819E+02 -0.52463779432E+00 -0.24596514146E+02  0.41254249024E+02  0.00000000000E+00 0.  1.
</event>
<event>
 7    1  0.2497665E-015  0.9000774E+02  0.7816164E-02  0.1186339E+00
        -11   -1    0    0    0    0  0.00000000000E+00  0.00000000000E+00  0.45593999997E+02  0.45594000000E+02  0.51100000000E-03 0.  1.
         11   -1    0    0    0    0 -0.00000000000E+00 -0.00000000000E+00 -0.45593999997E+02  0.45594000000E+02  0.51100000000E-03 0. -1.
    9900012    2    1    2    0    0  0.75414396343E+00 -0.89590913831E+00  0.14709076514E+00  0.90007736472E+02  0.89999997794E+02 0.  0.
        -12    1    1    2    0    0 -0.75414396343E+00  0.89590913831E+00 -0.14709076514E+00  0.11802635277E+01  0.00000000000E+00 0.  1.
         11    1    3    3    0    0  0.24754937653E+02  0.10026343369E+02 -0.23775919185E+02  0.35757919863E+02  0.51100000000E-03 0. -1.
        -11    1    3    3    0    0  0.88221954387E+01  0.47841796956E+01 -0.10893742753E+01  0.10094862272E+02  0.51100000000E-03 0.  1.
        -12    1    3    3    0    0 -0.32822989129E+02 -0.15706432203E+02  0.25012384225E+02  0.44154954337E+02  0.00000000000E+00 0.  1.
</event>
<event>
 7    1  0.2497665E-015  0.9000743E+02  0.7816164E-02  0.1186340E+00
        -11   -1    0    0    0    0  0.00000000000E+00  0.00000000000E+00  0.45593999997E+02  0.45594000000E+02  0.51100000000E-03 0.  1.
         11   -1    0    0    0    0 -0.00000000000E+00 -0.00000000000E+00 -0.45593999997E+02  0.45594000000E+02  0.51100000000E-03 0. -1.
    9900012    2    1    2    0    0 -0.78805556391E+00  0.82316760068E+00 -0.30841599209E+00  0.90007425185E+02  0.89999682396E+02 0.  0.
        -12    1    1    2    0    0  0.78805556391E+00 -0.82316760068E+00  0.30841599209E+00  0.11805748154E+01  0.00000000000E+00 0.  1.
         11    1    3    3    0    0 -0.37291352346E+02  0.17559459644E+02 -0.41633129234E+01  0.41428405201E+02  0.51100000000E-03 0. -1.
        -11    1    3    3    0    0  0.38016622602E+01  0.11485585531E+01 -0.84425017056E+01  0.93299334403E+01  0.51100000000E-03 0.  1.
        -12    1    3    3    0    0  0.32701634521E+02 -0.17884850597E+02  0.12297398637E+02  0.39249086543E+02  0.00000000000E+00 0.  1.
</event>
<event>
 7    1  0.2497665E-015  0.9000776E+02  0.7816164E-02  0.1186339E+00
        -11   -1    0    0    0    0  0.00000000000E+00  0.00000000000E+00  0.45593999997E+02  0.45594000000E+02  0.51100000000E-03 0.  1.
         11   -1    0    0    0    0 -0.00000000000E+00 -0.00000000000E+00 -0.45593999997E+02  0.45594000000E+02  0.51100000000E-03 0. -1.
    9900012    2    1    2    0    0 -0.89094149705E+00 -0.27080962313E+00 -0.72515943382E+00  0.90007758157E+02  0.90000019765E+02 0.  0.
        -12    1    1    2    0    0  0.89094149705E+00  0.27080962313E+00  0.72515943382E+00  0.11802418428E+01  0.00000000000E+00 0.  1.
         11    1    3    3    0    0  0.93154023093E+01  0.19874721274E+01 -0.10429741852E+01  0.95819914973E+01  0.51100000000E-03 0. -1.
        -11    1    3    3    0    0 -0.34122184902E+02  0.18243047797E+02 -0.19378778768E+02  0.43274349934E+02  0.51100000000E-03 0.  1.
         12    1    3    3    0    0  0.23915841096E+02 -0.20501329547E+02  0.19696593519E+02  0.37151416726E+02  0.00000000000E+00 0. -1.
</event>
<event>
 7    1  0.2497665E-015  0.9000771E+02  0.7816164E-02  0.1186339E+00
        -11   -1    0    0    0    0  0.00000000000E+00  0.00000000000E+00  0.45593999997E+02  0.45594000000E+02  0.51100000000E-03 0.  1.
         11   -1    0    0    0    0 -0.00000000000E+00 -0.00000000000E+00 -0.45593999997E+02  0.45594000000E+02  0.51100000000E-03 0. -1.
    9900012    2    1    2    0    0 -0.28150904080E+00 -0.50001915421E+00 -0.10314125834E+01  0.90007712572E+02  0.89999973578E+02 0.  0.
        -12    1    1    2    0    0  0.28150904080E+00  0.50001915421E+00  0.10314125834E+01  0.11802874277E+01  0.00000000000E+00 0.  1.
         11    1    3    3    0    0  0.12390743954E+01  0.68870194240E+01 -0.66371709375E+01  0.96446036838E+01  0.51100000000E-03 0. -1.
        -11    1    3    3    0    0 -0.22219308052E+02  0.20258467345E+01 -0.30442087771E+02  0.37742845857E+02  0.51100000000E-03 0.  1.
         12    1    3    3    0    0  0.20698724616E+02 -0.94128853127E+01  0.36047846125E+02  0.42620263031E+02  0.00000000000E+00 0. -1.
</event>
<event>
 7    1  0.2497665E-015  0.9000780E+02  0.7816164E-02  0.1186339E+00
        -11   -1    0    0    0    0  0.00000000000E+00  0.00000000000E+00  0.45593999997E+02  0.45594000000E+02  0.51100000000E-03 0. -1.
         11   -1    0    0    0    0 -0.00000000000E+00 -0.00000000000E+00 -0.45593999997E+02  0.45594000000E+02  0.51100000000E-03 0.  1.
    9900012    2    1    2    0    0 -0.55451434604E+00  0.27756472286E+00  0.10041625173E+01  0.90007800569E+02  0.90000062737E+02 0.  0.
        -12    1    1    2    0    0  0.55451434604E+00 -0.27756472286E+00 -0.10041625173E+01  0.11801994308E+01  0.00000000000E+00 0.  1.
         11    1    3    3    0    0 -0.13297815339E+02 -0.34453703518E+02  0.17892851023E+02  0.41037101468E+02  0.51100000000E-03 0. -1.
        -11    1    3    3    0    0  0.87905825685E+01 -0.24829634701E+00 -0.96052340809E+01  0.13022922674E+02  0.51100000000E-03 0.  1.
        -12    1    3    3    0    0  0.39527184243E+01  0.34979564588E+02 -0.72834544250E+01  0.35947776427E+02  0.00000000000E+00 0.  1.
</event>
<event>
 7    1  0.2497665E-015  0.9000786E+02  0.7816164E-02  0.1186339E+00
        -11   -1    0    0    0    0  0.00000000000E+00  0.00000000000E+00  0.45593999997E+02  0.45594000000E+02  0.51100000000E-03 0. -1.
         11   -1    0    0    0    0 -0.00000000000E+00 -0.00000000000E+00 -0.45593999997E+02  0.45594000000E+02  0.51100000000E-03 0.  1.
    9900012    2    1    2    0    0 -0.99392623467E+00 -0.52699942390E+00 -0.35651650885E+00  0.90007863663E+02  0.90000126663E+02 0.  0.
        -12    1    1    2    0    0  0.99392623467E+00  0.52699942390E+00  0.35651650885E+00  0.11801363370E+01  0.00000000000E+00 0.  1.
         11    1    3    3    0    0  0.34130874825E+02  0.12095539052E+02 -0.62582727788E+01  0.36747580325E+02  0.51100000000E-03 0. -1.
        -11    1    3    3    0    0 -0.21250763945E+01  0.11360235053E+02 -0.19410696975E+01  0.11719157051E+02  0.51100000000E-03 0.  1.
        -12    1    3    3    0    0 -0.32999724665E+02 -0.23982773529E+02  0.78428259675E+01  0.41541126288E+02  0.00000000000E+00 0.  1.
</event>
<event>
 7    1  0.2497665E-015  0.9000780E+02  0.7816164E-02  0.1186339E+00
        -11   -1    0    0    0    0  0.00000000000E+00  0.00000000000E+00  0.45593999997E+02  0.45594000000E+02  0.51100000000E-03 0. -1.
         11   -1    0    0    0    0 -0.00000000000E+00 -0.00000000000E+00 -0.45593999997E+02  0.45594000000E+02  0.51100000000E-03 0.  1.
    9900012    2    1    2    0    0 -0.88893328550E+00  0.58937362341E+00  0.50529130016E+00  0.90007795377E+02  0.90000057476E+02 0.  0.
        -12    1    1    2    0    0  0.88893328550E+00 -0.58937362341E+00 -0.50529130016E+00  0.11802046230E+01  0.00000000000E+00 0.  1.
         11    1    3    3    0    0  0.58461211953E+01  0.34501639632E+02 -0.90213417403E+01  0.36137582617E+02  0.51100000000E-03 0. -1.
        -11    1    3    3    0    0  0.92014644118E+01  0.45049699021E+01 -0.25561066752E+01  0.10559137405E+02  0.51100000000E-03 0.  1.
        -12    1    3    3    0    0 -0.15936518893E+02 -0.38417235911E+02  0.12082739716E+02  0.43311075356E+02  0.00000000000E+00 0.  1.
</event>
<event>
 7    1  0.2497665E-015  0.9000783E+02  0.7816164E-02  0.1186339E+00
        -11   -1    0    0    0    0  0.00000000000E+00  0.00000000000E+00  0.45593999997E+02  0.45594000000E+02  0.51100000000E-03 0.  1.
         11   -1    0    0    0    0 -0.00000000000E+00 -0.00000000000E+00 -0.45593999997E+02  0.45594000000E+02  0.51100000000E-03 0. -1.
    9900012    2    1    2    0    0  0.85043590548E+00  0.82131375735E-01 -0.81413376769E+00  0.90007830273E+02  0.90000092833E+02 0.  0.
        -12    1    1    2    0    0 -0.85043590548E+00 -0.82131375735E-01  0.81413376769E+00  0.11801697267E+01  0.00000000000E+00 0.  1.
         11    1    3    3    0    0 -0.31837112283E+01  0.31602367167E+00  0.83836460868E+01  0.89733722822E+01  0.51100000000E-03 0. -1.
        -11    1    3    3    0    0 -0.19704012646E+02 -0.31662789485E+02  0.78610393544E+01  0.38112678892E+02  0.51100000000E-03 0.  1.
         12    1    3    3    0    0  0.23738159780E+02  0.31428897189E+02 -0.17058819209E+02  0.42921779099E+02  0.00000000000E+00 0. -1.
</event>
<event>
 7    1  0.2497665E-015  0.9000713E+02  0.7816164E-02  0.1186340E+00
        -11   -1    0    0    0    0  0.00000000000E+00  0.00000000000E+00  0.45593999997E+02  0.45594000000E+02  0.51100000000E-03 0.  1.
         11   -1    0    0    0    0 -0.00000000000E+00 -0.00000000000E+00 -0.45593999997E+02  0.45594000000E+02  0.51100000000E-03 0. -1.
    9900012    2    1    2    0    0 -0.10570647100E+01  0.24166014506E+00  0.46762243297E+00  0.90007129064E+02  0.89999382366E+02 0.  0.
        -12    1    1    2    0    0  0.10570647100E+01 -0.24166014506E+00 -0.46762243297E+00  0.11808709357E+01  0.00000000000E+00 0.  1.
         11    1    3    3    0    0  0.17667794701E+02 -0.26547743427E+02 -0.22057418489E+02  0.38774519486E+02  0.51100000000E-03 0. -1.
        -11    1    3    3    0    0 -0.99209775504E+01 -0.17779236005E+01 -0.44034755805E+01  0.10998972922E+02  0.51100000000E-03 0.  1.
        -12    1    3    3    0    0 -0.88038818610E+01  0.28567327173E+02  0.26928516502E+02  0.40233636657E+02  0.00000000000E+00 0.  1.
</event>
<event>
 7    1  0.2497665E-015  0.9000772E+02  0.7816164E-02  0.1186339E+00
        -11   -1    0    0    0    0  0.00000000000E+00  0.00000000000E+00  0.45593999997E+02  0.45594000000E+02  0.51100000000E-03 0. -1.
         11   -1    0    0    0    0 -0.00000000000E+00 -0.00000000000E+00 -0.45593999997E+02  0.45594000000E+02  0.51100000000E-03 0.  1.
    9900012    2    1    2    0    0 -0.59411039112E-01  0.88967907568E+00  0.77330788696E+00  0.90007718840E+02  0.89999979928E+02 0.  0.
        -12    1    1    2    0    0  0.59411039112E-01 -0.88967907568E+00 -0.77330788696E+00  0.11802811603E+01  0.00000000000E+00 0.  1.
         11    1    3    3    0    0  0.44352037226E+01 -0.15591631181E+02  0.67783708782E+01  0.17570324612E+02  0.51100000000E-03 0. -1.
        -11    1    3    3    0    0 -0.78256124886E+01 -0.26215564894E+02  0.58984608107E+01  0.27987280928E+02  0.51100000000E-03 0.  1.
         12    1    3    3    0    0  0.33309977268E+01  0.42696875151E+02 -0.11903523802E+02  0.44450113300E+02  0.00000000000E+00 0. -1.
</event>
<event>
 7    1  0.2497665E-015  0.9000773E+02  0.7816164E-02  0.1186339E+00
        -11   -1    0    0    0    0  0.00000000000E+00  0.00000000000E+00  0.45593999997E+02  0.45594000000E+02  0.51100000000E-03 0. -1.
         11   -1    0    0    0    0 -0.00000000000E+00 -0.00000000000E+00 -0.45593999997E+02  0.45594000000E+02  0.51100000000E-03 0.  1.
    9900012    2    1    2    0    0 -0.41256129718E+00 -0.77338949609E+00  0.79037735622E+00  0.90007731174E+02  0.89999992425E+02 0.  0.
        -12    1    1    2    0    0  0.41256129718E+00  0.77338949609E+00 -0.79037735622E+00  0.11802688261E+01  0.00000000000E+00 0.  1.
         11    1    3    3    0    0 -0.77835080071E+01 -0.50490462685E+01  0.44593608259E+01  0.10293773086E+02  0.51100000000E-03 0. -1.
        -11    1    3    3    0    0 -0.24816732504E+01 -0.26933486076E+02 -0.28002053661E+02  0.38931817114E+02  0.51100000000E-03 0.  1.
         12    1    3    3    0    0  0.98526199603E+01  0.31209142848E+02  0.24333070191E+02  0.40782140973E+02  0.00000000000E+00 0. -1.
</event>
<event>
 7    1  0.2497665E-015  0.9000771E+02  0.7816164E-02  0.1186339E+00
        -11   -1    0    0    0    0  0.00000000000E+00  0.00000000000E+00  0.45593999997E+02  0.45594000000E+02  0.51100000000E-03 0.  1.
         11   -1    0    0    0    0 -0.00000000000E+00 -0.00000000000E+00 -0.45593999997E+02  0.45594000000E+02  0.51100000000E-03 0. -1.
    9900012    2    1    2    0    0  0.19046354503E+00 -0.10387009560E+01 -0.52716632982E+00  0.90007711740E+02  0.89999972735E+02 0.  0.
        -12    1    1    2    0    0 -0.19046354503E+00  0.10387009560E+01  0.52716632982E+00  0.11802882602E+01  0.00000000000E+00 0.  1.
         11    1    3    3    0    0  0.29557786823E+01  0.27702133026E-01 -0.89222141844E+01  0.93991117261E+01  0.51100000000E-03 0. -1.
        -11    1    3    3    0    0 -0.15804246113E+02  0.13239101525E+02 -0.30702323706E+02  0.36982167130E+02  0.51100000000E-03 0.  1.
         12    1    3    3    0    0  0.13038930976E+02 -0.14305504614E+02  0.39097371560E+02  0.43626432884E+02  0.00000000000E+00 0. -1.
</event>
<event>
 7    1  0.2497665E-015  0.9000776E+02  0.7816164E-02  0.1186339E+00
        -11   -1    0    0    0    0  0.00000000000E+00  0.00000000000E+00  0.45593999997E+02  0.45594000000E+02  0.51100000000E-03 0. -1.
         11   -1    0    0    0    0 -0.00000000000E+00 -0.00000000000E+00 -0.45593999997E+02  0.45594000000E+02  0.51100000000E-03 0.  1.
    9900012    2    1    2    0    0 -0.78011384863E+00  0.48125110658E+00  0.74349971633E+00  0.90007757621E+02  0.90000019222E+02 0.  0.
        -12    1    1    2    0    0  0.78011384863E+00 -0.48125110658E+00 -0.74349971633E+00  0.11802423787E+01  0.00000000000E+00 0.  1.
         11    1    3    3    0    0 -0.72823892536E+01  0.57835500389E+01 -0.32256150035E+01  0.98431314482E+01  0.51100000000E-03 0. -1.
        -11    1    3    3    0    0 -0.14567162655E+01  0.22551266474E+02 -0.28682266213E+02  0.36515120665E+02  0.51100000000E-03 0.  1.
         12    1    3    3    0    0  0.79589916705E+01 -0.27853565406E+02  0.32651380932E+02  0.43649505508E+02  0.00000000000E+00 0. -1.
</event>
<event>
 7    1  0.2497665E-015  0.9000694E+02  0.7816164E-02  0.1186341E+00
        -11   -1    0    0    0    0  0.00000000000E+00  0.00000000000E+00  0.45593999997E+02  0.45594000000E+02  0.51100000000E-03 0.  1.
         11   -1    0    0    0    0 -0.00000000000E+00 -0.00000000000E+00 -0.45593999997E+02  0.45594000000E+02  0.51100000000E-03 0. -1.
    9900012    2    1    2    0    0  0.64012976396E+00  0.44234026063E+00 -0.88851716756E+00  0.90006943787E+02  0.89999194642E+02 0.  0.
        -12    1    1    2    0    0 -0.64012976396E+00 -0.44234026063E+00  0.88851716756E+00  0.11810562129E+01  0.00000000000E+00 0.  1.
         11    1    3    3    0    0  0.15560960441E+01  0.87485322336E+01 -0.28727510844E+01  0.93386803241E+01  0.51100000000E-03 0. -1.
        -11    1    3    3    0    0  0.12890045903E+01  0.17280084141E+02  0.34872911511E+02  0.38940760114E+02  0.51100000000E-03 0.  1.
         12    1    3    3    0    0 -0.22049708704E+01 -0.25586276114E+02 -0.32888677594E+02  0.41727503349E+02  0.00000000000E+00 0. -1.
</event>
<event>
 7    1  0.2497665E-015  0.9000767E+02  0.7816164E-02  0.1186339E+00
        -11   -1    0    0    0    0  0.00000000000E+00  0.00000000000E+00  0.45593999997E+02  0.45594000000E+02  0.51100000000E-03 0. -1.
         11   -1    0    0    0    0 -0.00000000000E+00 -0.00000000000E+00 -0.45593999997E+02  0.45594000000E+02  0.51100000000E-03 0.  1.
    9900012    2    1    2    0    0 -0.11651009174E+01 -0.53257911103E-01 -0.18130849122E+00  0.90007674061E+02  0.89999934559E+02 0.  0.
        -12    1    1    2    0    0  0.11651009174E+01  0.53257911103E-01  0.18130849122E+00  0.11803259388E+01  0.00000000000E+00 0.  1.
         11    1    3    3    0    0 -0.23587306051E+02  0.10597222067E+01  0.28885668743E+02  0.37307718731E+02  0.51100000000E-03 0. -1.
        -11    1    3    3    0    0 -0.62693196053E+01  0.53003427324E+01  0.34125705112E+01  0.88906489723E+01  0.51100000000E-03 0.  1.
        -12    1    3    3    0    0  0.28691524739E+02 -0.64133228502E+01 -0.32479547745E+02  0.43809306358E+02  0.00000000000E+00 0.  1.
</event>
<event>
 7    1  0.2497665E-015  0.9000773E+02  0.7816164E-02  0.1186339E+00
        -11   -1    0    0    0    0  0.00000000000E+00  0.00000000000E+00  0.45593999997E+02  0.45594000000E+02  0.51100000000E-03 0.  1.
         11   -1    0    0    0    0 -0.00000000000E+00 -0.00000000000E+00 -0.45593999997E+02  0.45594000000E+02  0.51100000000E-03 0. -1.
    9900012    2    1    2    0    0  0.72089687393E+00  0.73715557194E+00 -0.57441511204E+00  0.90007727421E+02  0.89999988623E+02 0.  0.
        -12    1    1    2    0    0 -0.72089687393E+00 -0.73715557194E+00  0.57441511204E+00  0.11802725791E+01  0.00000000000E+00 0.  1.
         11    1    3    3    0    0  0.41821694410E+01 -0.60831095043E+01 -0.35158595271E+02  0.35925222117E+02  0.51100000000E-03 0. -1.
        -11    1    3    3    0    0 -0.52234000321E+00 -0.40872069855E+01 -0.85513650929E+01  0.94923097945E+01  0.51100000000E-03 0.  1.
        -12    1    3    3    0    0 -0.29389325639E+01  0.10907472062E+02  0.43135545252E+02  0.44590195509E+02  0.00000000000E+00 0.  1.
</event>
<event>
 7    1  0.2497665E-015  0.9000774E+02  0.7816164E-02  0.1186339E+00
        -11   -1    0    0    0    0  0.00000000000E+00  0.00000000000E+00  0.45593999997E+02  0.45594000000E+02  0.51100000000E-03 0.  1.
         11   -1    0    0    0    0 -0.00000000000E+00 -0.00000000000E+00 -0.45593999997E+02  0.45594000000E+02  0.51100000000E-03 0. -1.
    9900012    2    1    2    0    0 -0.26055521923E+00 -0.80139274879E+00 -0.82637323621E+00  0.90007740670E+02  0.90000002047E+02 0.  0.
        -12    1    1    2    0    0  0.26055521923E+00  0.80139274879E+00  0.82637323621E+00  0.11802593298E+01  0.00000000000E+00 0.  1.
         11    1    3    3    0    0 -0.40882362612E+01  0.37684143272E+01  0.76782668687E+01  0.94800002445E+01  0.51100000000E-03 0. -1.
        -11    1    3    3    0    0  0.14885428759E+01  0.37055944212E+02  0.32023489969E+01  0.37223833772E+02  0.51100000000E-03 0.  1.
         12    1    3    3    0    0  0.23391381661E+01 -0.41625751288E+02 -0.11706989102E+02  0.43303906654E+02  0.00000000000E+00 0. -1.
</event>
<event>
 7    1  0.2497665E-015  0.9000783E+02  0.7816164E-02  0.1186339E+00
        -11   -1    0    0    0    0  0.00000000000E+00  0.00000000000E+00  0.45593999997E+02  0.45594000000E+02  0.51100000000E-03 0. -1.
         11   -1    0    0    0    0 -0.00000000000E+00 -0.00000000000E+00 -0.45593999997E+02  0.45594000000E+02  0.51100000000E-03 0.  1.
    9900012    2    1    2    0    0  0.14413545594E+00 -0.78036219989E+00  0.87353324016E+00  0.90007830303E+02  0.90000092863E+02 0.  0.
        -12    1    1    2    0    0 -0.14413545594E+00  0.78036219989E+00 -0.87353324016E+00  0.11801696973E+01  0.00000000000E+00 0.  1.
         11    1    3    3    0    0 -0.14294315979E+02  0.43736989404E+01  0.10450666464E+02  0.18239329526E+02  0.51100000000E-03 0. -1.
        -11    1    3    3    0    0  0.26898426489E+02  0.20361230729E+02  0.12315726195E+02  0.35913537508E+02  0.51100000000E-03 0.  1.
         12    1    3    3    0    0 -0.12459975054E+02 -0.25515291869E+02 -0.21892859419E+02  0.35854963269E+02  0.00000000000E+00 0. -1.
</event>
<event>
 7    1  0.2497665E-015  0.9000765E+02  0.7816164E-02  0.1186339E+00
        -11   -1    0    0    0    0  0.00000000000E+00  0.00000000000E+00  0.45593999997E+02  0.45594000000E+02  0.51100000000E-03 0. -1.
         11   -1    0    0    0    0 -0.00000000000E+00 -0.00000000000E+00 -0.45593999997E+02  0.45594000000E+02  0.51100000000E-03 0.  1.
    9900012    2    1    2    0    0  0.34142962813E+00 -0.34746752328E+00  0.10751310129E+01  0.90007654896E+02  0.89999915140E+02 0.  0.
        -12    1    1    2    0    0 -0.34142962813E+00  0.34746752328E+00 -0.10751310129E+01  0.11803451044E+01  0.00000000000E+00 0.  1.
         11    1    3    3    0    0 -0.56696784584E+01 -0.52900835354E+01  0.70902093464E+01  0.10507202600E+02  0.51100000000E-03 0. -1.
        -11    1    3    3    0    0  0.12705877243E+02 -0.32638053496E+02 -0.18147659262E+02  0.39446411617E+02  0.51100000000E-03 0.  1.
         12    1    3    3    0    0 -0.66947691563E+01  0.37580669508E+02  0.12132580928E+02  0.40054040679E+02  0.00000000000E+00 0. -1.
</event>
<event>
 7    1  0.2497665E-015  0.9000773E+02  0.7816164E-02  0.1186339E+00
        -11   -1    0    0    0    0  0.00000000000E+00  0.00000000000E+00  0.45593999997E+02  0.45594000000E+02  0.51100000000E-03 0. -1.
         11   -1    0    0    0    0 -0.00000000000E+00 -0.00000000000E+00 -0.45593999997E+02  0.45594000000E+02  0.51100000000E-03 0.  1.
    9900012    2    1    2    0    0  0.65416749147E+00 -0.57315689795E+00  0.79786119501E+00  0.90007734596E+02  0.89999995893E+02 0.  0.
        -12    1    1    2    0    0 -0.65416749147E+00  0.57315689795E+00 -0.79786119501E+00  0.11802654037E+01  0.00000000000E+00 0.  1.
         11    1    3    3    0    0 -0.51961216961E+01  0.78482320659E+01  0.91153180073E+00  0.94564960596E+01  0.51100000000E-03 0. -1.
        -11    1    3    3    0    0  0.29133258301E+02  0.73860906249E+01 -0.27895990864E+02  0.41005943234E+02  0.51100000000E-03 0.  1.
         12    1    3    3    0    0 -0.23282969113E+02 -0.15807479589E+02  0.27782320258E+02  0.39545295303E+02  0.00000000000E+00 0. -1.
</event>
<event>
 7    1  0.2497665E-015  0.9000772E+02  0.7816164E-02  0.1186339E+00
        -11   -1    0    0    0    0  0.00000000000E+00  0.00000000000E+00  0.45593999997E+02  0.45594000000E+02  0.51100000000E-03 0. -1.
         11   -1    0    0    0    0 -0.00000000000E+00 -0.00000000000E+00 -0.45593999997E+02  0.45594000000E+02  0.51100000000E-03 0.  1.
    9900012    2    1    2    0    0  0.10523995625E+01  0.52712337853E+00  0.87475745958E-01  0.90007722108E+02  0.89999983240E+02 0.  0.
        -12    1    1    2    0    0 -0.10523995625E+01 -0.52712337853E+00 -0.87475745958E-01  0.11802778917E+01  0.00000000000E+00 0.  1.
         11    1    3    3    0    0 -0.24499151834E+02 -0.11323274604E+02  0.31535613300E+02  0.41508070237E+02  0.51100000000E-03 0. -1.
        -11    1    3    3    0    0  0.12831070750E+01 -0.63139091250E+01 -0.73543375810E+01  0.97774277660E+01  0.51100000000E-03 0.  1.
        -12    1    3    3    0    0  0.24268444322E+02  0.18164307108E+02 -0.24093799973E+02  0.38722224105E+02  0.00000000000E+00 0.  1.
</event>
<event>
 7    1  0.2497665E-015  0.9000771E+02  0.7816164E-02  0.1186339E+00
        -11   -1    0    0    0    0  0.00000000000E+00  0.00000000000E+00  0.45593999997E+02  0.45594000000E+02  0.51100000000E-03 0.  1.
         11   -1    0    0    0    0 -0.00000000000E+00 -0.00000000000E+00 -0.45593999997E+02  0.45594000000E+02  0.51100000000E-03 0. -1.
    9900012    2    1    2    0    0 -0.30707892623E+00 -0.11387759496E+01  0.44525862357E-01  0.90007707374E+02  0.89999968311E+02 0.  0.
        -12    1    1    2    0    0  0.30707892623E+00  0.11387759496E+01 -0.44525862357E-01  0.11802926259E+01  0.00000000000E+00 0.  1.
         11    1    3    3    0    0 -0.33664788584E+02 -0.13503627309E+02  0.33089020755E+01  0.36422723321E+02  0.51100000000E-03 0. -1.
        -11    1    3    3    0    0 -0.81472159737E+01 -0.15004952699E+01 -0.52026312059E+01  0.97824325146E+01  0.51100000000E-03 0.  1.
        -12    1    3    3    0    0  0.41504925632E+02  0.13865346629E+02  0.19382549928E+01  0.43802551538E+02  0.00000000000E+00 0.  1.
</event>
<event>
 7    1  0.2497665E-015  0.9000748E+02  0.7816164E-02  0.1186340E+00
        -11   -1    0    0    0    0  0.00000000000E+00  0.00000000000E+00  0.45593999997E+02  0.45594000000E+02  0.51100000000E-03 0. -1.
         11   -1    0    0    0    0 -0.00000000000E+00 -0.00000000000E+00 -0.45593999997E+02  0.45594000000E+02  0.51100000000E-03 0.  1.
    9900012    2    1    2    0    0 -0.14692103348E+00  0.10474433957E+01  0.52430784041E+00  0.90007482245E+02  0.89999740211E+02 0.  0.
        -12    1    1    2    0    0  0.14692103348E+00 -0.10474433957E+01 -0.52430784041E+00  0.11805177545E+01  0.00000000000E+00 0.  1.
         11    1    3    3    0    0  0.31624660354E+02  0.12360627328E+02  0.18220882713E+02  0.38534462725E+02  0.51100000000E-03 0. -1.
        -11    1    3    3    0    0  0.64331456489E+01  0.12719676540E+01 -0.75274651152E+01  0.99832858306E+01  0.51100000000E-03 0.  1.
        -12    1    3    3    0    0 -0.38204727036E+02 -0.12585151586E+02 -0.10169109757E+02  0.41489733689E+02  0.00000000000E+00 0.  1.
</event>
<event>
 7    1  0.2497665E-015  0.9000785E+02  0.7816164E-02  0.1186339E+00
        -11   -1    0    0    0    0  0.00000000000E+00  0.00000000000E+00  0.45593999997E+02  0.45594000000E+02  0.51100000000E-03 0. -1.
         11   -1    0    0    0    0 -0.00000000000E+00 -0.00000000000E+00 -0.45593999997E+02  0.45594000000E+02  0.51100000000E-03 0.  1.
    9900012    2    1    2    0    0  0.81807319768E+00 -0.32140798129E+00  0.78753744588E+00  0.90007846588E+02  0.90000109363E+02 0.  0.
        -12    1    1    2    0    0 -0.81807319768E+00  0.32140798129E+00 -0.78753744588E+00  0.11801534120E+01  0.00000000000E+00 0.  1.
         11    1    3    3    0    0  0.13647393689E+02 -0.21869733118E+01  0.26188925438E+02  0.29612396435E+02  0.51100000000E-03 0. -1.
        -11    1    3    3    0    0  0.33122282747E+01 -0.87372531027E+01  0.13816971661E+02  0.16679902699E+02  0.51100000000E-03 0.  1.
        -12    1    3    3    0    0 -0.16141548766E+02  0.10602818433E+02 -0.39218359653E+02  0.43715547454E+02  0.00000000000E+00 0.  1.
</event>
<event>
 7    1  0.2497665E-015  0.9000783E+02  0.7816164E-02  0.1186339E+00
        -11   -1    0    0    0    0  0.00000000000E+00  0.00000000000E+00  0.45593999997E+02  0.45594000000E+02  0.51100000000E-03 0. -1.
         11   -1    0    0    0    0 -0.00000000000E+00 -0.00000000000E+00 -0.45593999997E+02  0.45594000000E+02  0.51100000000E-03 0.  1.
    9900012    2    1    2    0    0  0.44411238275E+00  0.52026958010E+00  0.96170434307E+00  0.90007834127E+02  0.90000096737E+02 0.  0.
        -12    1    1    2    0    0 -0.44411238275E+00 -0.52026958010E+00 -0.96170434307E+00  0.11801658731E+01  0.00000000000E+00 0.  1.
         11    1    3    3    0    0  0.15606484518E+02  0.15848491745E+02  0.26302493576E+02  0.34446454363E+02  0.51100000000E-03 0. -1.
        -11    1    3    3    0    0 -0.20112397803E+01  0.68962160239E+00  0.12358959851E+02  0.12540516428E+02  0.51100000000E-03 0.  1.
        -12    1    3    3    0    0 -0.13151132355E+02 -0.16017843767E+02 -0.37699749084E+02  0.43020863336E+02  0.00000000000E+00 0.  1.
</event>
<event>
 7    1  0.2497665E-015  0.9000774E+02  0.7816164E-02  0.1186339E+00
        -11   -1    0    0    0    0  0.00000000000E+00  0.00000000000E+00  0.45593999997E+02  0.45594000000E+02  0.51100000000E-03 0.  1.
         11   -1    0    0    0    0 -0.00000000000E+00 -0.00000000000E+00 -0.45593999997E+02  0.45594000000E+02  0.51100000000E-03 0. -1.
    9900012    2    1    2    0    0  0.11393458004E+00  0.65401620490E+00 -0.97586061670E+00  0.90007736374E+02  0.89999997694E+02 0.  0.
        -12    1    1    2    0    0 -0.11393458004E+00 -0.65401620490E+00  0.97586061670E+00  0.11802636265E+01  0.00000000000E+00 0.  1.
         11    1    3    3    0    0 -0.32141402131E+02  0.95032945249E+01 -0.22155463718E+02  0.40177691703E+02  0.51100000000E-03 0. -1.
        -11    1    3    3    0    0  0.50633892698E+01  0.48971307067E+01 -0.58062603912E+01  0.91286614598E+01  0.51100000000E-03 0.  1.
        -12    1    3    3    0    0  0.27191947442E+02 -0.13746409027E+02  0.26985863493E+02  0.40701383210E+02  0.00000000000E+00 0.  1.
</event>
<event>
 7    1  0.2497665E-015  0.9000787E+02  0.7816164E-02  0.1186339E+00
        -11   -1    0    0    0    0  0.00000000000E+00  0.00000000000E+00  0.45593999997E+02  0.45594000000E+02  0.51100000000E-03 0.  1.
         11   -1    0    0    0    0 -0.00000000000E+00 -0.00000000000E+00 -0.45593999997E+02  0.45594000000E+02  0.51100000000E-03 0. -1.
    9900012    2    1    2    0    0 -0.74606794192E+00  0.94673702428E-01 -0.90946880929E+00  0.90007866957E+02  0.90000130001E+02 0.  0.
        -12    1    1    2    0    0  0.74606794192E+00 -0.94673702428E-01  0.90946880929E+00  0.11801330429E+01  0.00000000000E+00 0.  1.
         11    1    3    3    0    0  0.49419276782E+01  0.19709523729E+01  0.75326285899E+01  0.92221362041E+01  0.51100000000E-03 0. -1.
        -11    1    3    3    0    0  0.64092309087E+01  0.36502503187E+02 -0.15061927041E+02  0.40004657557E+02  0.51100000000E-03 0.  1.
         12    1    3    3    0    0 -0.12097226529E+02 -0.38378781857E+02  0.66198296422E+01  0.40781073196E+02  0.00000000000E+00 0. -1.
</event>
<event>
 7    1  0.2497665E-015  0.9000773E+02  0.7816164E-02  0.1186339E+00
        -11   -1    0    0    0    0  0.00000000000E+00  0.00000000000E+00  0.45593999997E+02  0.45594000000E+02  0.51100000000E-03 0. -1.
         11   -1    0    0    0    0 -0.00000000000E+00 -0.00000000000E+00 -0.45593999997E+02  0.45594000000E+02  0.51100000000E-03 0.  1.
    9900012    2    1    2    0    0  0.10836315514E+01 -0.68442338925E-01  0.46269796076E+00  0.90007732617E+02  0.89999993887E+02 0.  0.
        -12    1    1    2    0    0 -0.10836315514E+01  0.68442338925E-01 -0.46269796076E+00  0.11802673832E+01  0.00000000000E+00 0.  1.
         11    1    3    3    0    0 -0.53671351037E+01  0.20830481116E+02  0.33068348581E+02  0.39449090749E+02  0.51100000000E-03 0. -1.
        -11    1    3    3    0    0  0.20255281005E+01 -0.73740457783E+01  0.58022552857E+01  0.95992438185E+01  0.51100000000E-03 0.  1.
        -12    1    3    3    0    0  0.44252385547E+01 -0.13524877677E+02 -0.38407905906E+02  0.40959398049E+02  0.00000000000E+00 0.  1.
</event>
<event>
 7    1  0.2497665E-015  0.9000776E+02  0.7816164E-02  0.1186339E+00
        -11   -1    0    0    0    0  0.00000000000E+00  0.00000000000E+00  0.45593999997E+02  0.45594000000E+02  0.51100000000E-03 0.  1.
         11   -1    0    0    0    0 -0.00000000000E+00 -0.00000000000E+00 -0.45593999997E+02  0.45594000000E+02  0.51100000000E-03 0. -1.
    9900012    2    1    2    0    0  0.93360590315E+00  0.48560060671E+00  0.53436321339E+00  0.90007757662E+02  0.90000019264E+02 0.  0.
        -12    1    1    2    0    0 -0.93360590315E+00 -0.48560060671E+00 -0.53436321339E+00  0.11802423376E+01  0.00000000000E+00 0.  1.
         11    1    3    3    0    0 -0.28180376644E+02 -0.92138880732E+01 -0.29612053722E+02  0.41903497314E+02  0.51100000000E-03 0. -1.
        -11    1    3    3    0    0  0.65815627776E+01 -0.60048395034E+01  0.27812678492E+01  0.93333015148E+01  0.51100000000E-03 0.  1.
        -12    1    3    3    0    0  0.22532419769E+02  0.15704328183E+02  0.27365149087E+02  0.38770958834E+02  0.00000000000E+00 0.  1.
</event>
<event>
 7    1  0.2822026E-015  0.9000769E+02  0.7816164E-02  0.1186339E+00
        -11   -1    0    0    0    0  0.00000000000E+00  0.00000000000E+00  0.45593999997E+02  0.45594000000E+02  0.51100000000E-03 0.  1.
         11   -1    0    0    0    0 -0.00000000000E+00 -0.00000000000E+00 -0.45593999997E+02  0.45594000000E+02  0.51100000000E-03 0. -1.
    9900012    2    1    2    0    0 -0.50252816658E+00  0.10642113068E+01 -0.89741986657E-01  0.90007689071E+02  0.89999949767E+02 0.  0.
        -12    1    1    2    0    0  0.50252816658E+00 -0.10642113068E+01  0.89741986657E-01  0.11803109285E+01  0.00000000000E+00 0.  1.
         11    1    3    3    0    0 -0.29870519130E+02 -0.15482069957E+02 -0.20744600259E+02  0.39525698520E+02  0.51100000000E-03 0. -1.
        -11    1    3    3    0    0  0.55773724262E+01 -0.66526523008E-01 -0.79662338932E+01  0.97248337601E+01  0.51100000000E-03 0.  1.
        -12    1    3    3    0    0  0.23790618538E+02  0.16612807787E+02  0.28621092166E+02  0.40757156792E+02  0.00000000000E+00 0.  1.
</event>
<event>
 7    1  0.2497665E-015  0.9000771E+02  0.7816164E-02  0.1186339E+00
        -11   -1    0    0    0    0  0.00000000000E+00  0.00000000000E+00  0.45593999997E+02  0.45594000000E+02  0.51100000000E-03 0.  1.
         11   -1    0    0    0    0 -0.00000000000E+00 -0.00000000000E+00 -0.45593999997E+02  0.45594000000E+02  0.51100000000E-03 0. -1.
    9900012    2    1    2    0    0 -0.10382001543E+01  0.55454771247E+00 -0.87816752843E-01  0.90007705754E+02  0.89999966670E+02 0.  0.
        -12    1    1    2    0    0  0.10382001543E+01 -0.55454771247E+00  0.87816752843E-01  0.11802942463E+01  0.00000000000E+00 0.  1.
         11    1    3    3    0    0  0.90643359119E+01 -0.31969349483E+02 -0.15889295142E+02  0.36833017692E+02  0.51100000000E-03 0. -1.
        -11    1    3    3    0    0  0.22333582244E+01 -0.74070215944E+01  0.70679869868E+01  0.10478945470E+02  0.51100000000E-03 0.  1.
        -12    1    3    3    0    0 -0.12335894291E+02  0.39930918790E+02  0.87334914026E+01  0.42695742592E+02  0.00000000000E+00 0.  1.
</event>
<event>
 7    1  0.2497665E-015  0.9000775E+02  0.7816164E-02  0.1186339E+00
        -11   -1    0    0    0    0  0.00000000000E+00  0.00000000000E+00  0.45593999997E+02  0.45594000000E+02  0.51100000000E-03 0. -1.
         11   -1    0    0    0    0 -0.00000000000E+00 -0.00000000000E+00 -0.45593999997E+02  0.45594000000E+02  0.51100000000E-03 0.  1.
    9900012    2    1    2    0    0 -0.37223301884E+00 -0.11199442488E+01  0.12752580598E-01  0.90007747837E+02  0.90000009308E+02 0.  0.
        -12    1    1    2    0    0  0.37223301884E+00  0.11199442488E+01 -0.12752580598E-01  0.11802521634E+01  0.00000000000E+00 0.  1.
         11    1    3    3    0    0 -0.23122905404E+02  0.25784160149E+02  0.25723530116E+02  0.43141530696E+02  0.51100000000E-03 0. -1.
        -11    1    3    3    0    0  0.92587502316E+01 -0.89320706275E+00 -0.29351225180E+01  0.97538309994E+01  0.51100000000E-03 0.  1.
        -12    1    3    3    0    0  0.13491922154E+02 -0.26010897336E+02 -0.22775655017E+02  0.37112386141E+02  0.00000000000E+00 0.  1.
</event>
<event>
 7    1  0.2497665E-015  0.9000770E+02  0.7816164E-02  0.1186339E+00
        -11   -1    0    0    0    0  0.00000000000E+00  0.00000000000E+00  0.45593999997E+02  0.45594000000E+02  0.51100000000E-03 0.  1.
         11   -1    0    0    0    0 -0.00000000000E+00 -0.00000000000E+00 -0.45593999997E+02  0.45594000000E+02  0.51100000000E-03 0. -1.
    9900012    2    1    2    0    0  0.31331327485E+00  0.65815581536E+00 -0.92831398361E+00  0.90007702945E+02  0.89999963824E+02 0.  0.
        -12    1    1    2    0    0 -0.31331327485E+00 -0.65815581536E+00  0.92831398361E+00  0.11802970548E+01  0.00000000000E+00 0.  1.
         11    1    3    3    0    0  0.76888736462E+01 -0.25760034959E+01  0.43536113411E+01  0.92037222866E+01  0.51100000000E-03 0. -1.
        -11    1    3    3    0    0  0.96807977188E+01 -0.28320481126E+02  0.20806141920E+02  0.36450830410E+02  0.51100000000E-03 0.  1.
         12    1    3    3    0    0 -0.17056358090E+02  0.31554640437E+02 -0.26088067245E+02  0.44353150249E+02  0.00000000000E+00 0. -1.
</event>
<event>
 7    1  0.2497665E-015  0.9000778E+02  0.7816164E-02  0.1186339E+00
        -11   -1    0    0    0    0  0.00000000000E+00  0.00000000000E+00  0.45593999997E+02  0.45594000000E+02  0.51100000000E-03 0.  1.
         11   -1    0    0    0    0 -0.00000000000E+00 -0.00000000000E+00 -0.45593999997E+02  0.45594000000E+02  0.51100000000E-03 0. -1.
    9900012    2    1    2    0    0 -0.63475200604E+00  0.15241820782E+00 -0.98324453484E+00  0.90007783395E+02  0.90000045336E+02 0.  0.
        -12    1    1    2    0    0  0.63475200604E+00 -0.15241820782E+00  0.98324453484E+00  0.11802166049E+01  0.00000000000E+00 0.  1.
         11    1    3    3    0    0 -0.13674891284E+01 -0.13066386619E+01  0.73212425743E+01  0.75616085724E+01  0.51100000000E-03 0. -1.
        -11    1    3    3    0    0  0.11580715195E+02 -0.33095415106E+02  0.16295079023E+02  0.38664571201E+02  0.51100000000E-03 0.  1.
         12    1    3    3    0    0 -0.10847978073E+02  0.34554471976E+02 -0.24599566132E+02  0.43781603622E+02  0.00000000000E+00 0. -1.
</event>
<event>
 7    1  0.2497665E-015  0.9000776E+02  0.7816164E-02  0.1186339E+00
        -11   -1    0    0    0    0  0.00000000000E+00  0.00000000000E+00  0.45593999997E+02  0.45594000000E+02  0.51100000000E-03 0.  1.
         11   -1    0    0    0    0 -0.00000000000E+00 -0.00000000000E+00 -0.45593999997E+02  0.45594000000E+02  0.51100000000E-03 0. -1.
    9900012    2    1    2    0    0  0.10582277695E+01 -0.33411421250E+00 -0.40186000650E+00  0.90007758591E+02  0.90000020204E+02 0.  0.
        -12    1    1    2    0    0 -0.10582277695E+01  0.33411421250E+00  0.40186000650E+00  0.11802414092E+01  0.00000000000E+00 0.  1.
         11    1    3    3    0    0 -0.26205548860E+01 -0.59176589363E+01  0.75031836147E+01  0.99087718620E+01  0.51100000000E-03 0. -1.
        -11    1    3    3    0    0  0.29176332734E+01 -0.32908657785E+02  0.13911878623E+02  0.35847352876E+02  0.51100000000E-03 0.  1.
         12    1    3    3    0    0  0.76114938215E+00  0.38492202509E+02 -0.21816922245E+02  0.44251633852E+02  0.00000000000E+00 0. -1.
</event>
<event>
 7    1  0.2497665E-015  0.9000768E+02  0.7816164E-02  0.1186339E+00
        -11   -1    0    0    0    0  0.00000000000E+00  0.00000000000E+00  0.45593999997E+02  0.45594000000E+02  0.51100000000E-03 0.  1.
         11   -1    0    0    0    0 -0.00000000000E+00 -0.00000000000E+00 -0.45593999997E+02  0.45594000000E+02  0.51100000000E-03 0. -1.
    9900012    2    1    2    0    0  0.89269094270E+00  0.29113069353E-01 -0.77163507898E+00  0.90007675729E+02  0.89999936248E+02 0.  0.
        -12    1    1    2    0    0 -0.89269094270E+00 -0.29113069353E-01  0.77163507898E+00  0.11803242712E+01  0.00000000000E+00 0.  1.
         11    1    3    3    0    0  0.17668794599E+01  0.98988686669E+01  0.29920070115E+00  0.10059770635E+02  0.51100000000E-03 0. -1.
        -11    1    3    3    0    0 -0.12265895962E+02 -0.34763608360E+01  0.37297756430E+02  0.39416493038E+02  0.51100000000E-03 0.  1.
         12    1    3    3    0    0  0.11391707445E+02 -0.63933947616E+01 -0.38368592210E+02  0.40531412056E+02  0.00000000000E+00 0. -1.
</event>
<event>
 7    1  0.2497665E-015  0.9000770E+02  0.7816164E-02  0.1186339E+00
        -11   -1    0    0    0    0  0.00000000000E+00  0.00000000000E+00  0.45593999997E+02  0.45594000000E+02  0.51100000000E-03 0. -1.
         11   -1    0    0    0    0 -0.00000000000E+00 -0.00000000000E+00 -0.45593999997E+02  0.45594000000E+02  0.51100000000E-03 0.  1.
    9900012    2    1    2    0    0  0.71526192006E+00  0.37746267497E+00  0.85966570455E+00  0.90007702237E+02  0.89999963107E+02 0.  0.
        -12    1    1    2    0    0 -0.71526192006E+00 -0.37746267497E+00 -0.85966570455E+00  0.11802977628E+01  0.00000000000E+00 0.  1.
         11    1    3    3    0    0  0.66604240539E+01  0.68752685614E+01 -0.59185766459E+01  0.11254337659E+02  0.51100000000E-03 0. -1.
        -11    1    3    3    0    0  0.31182081430E+01 -0.73514447355E+00 -0.35239420110E+02  0.35384747976E+02  0.51100000000E-03 0.  1.
         12    1    3    3    0    0 -0.90633702768E+01 -0.57626614129E+01  0.42017662460E+02  0.43368616602E+02  0.00000000000E+00 0. -1.
</event>
<event>
 7    1  0.2497665E-015  0.9000773E+02  0.7816164E-02  0.1186339E+00
        -11   -1    0    0    0    0  0.00000000000E+00  0.00000000000E+00  0.45593999997E+02  0.45594000000E+02  0.51100000000E-03 0. -1.
         11   -1    0    0    0    0 -0.00000000000E+00 -0.00000000000E+00 -0.45593999997E+02  0.45594000000E+02  0.51100000000E-03 0.  1.
    9900012    2    1    2    0    0  0.87310474724E+00 -0.31950682623E+00  0.72708295063E+00  0.90007726248E+02  0.89999987435E+02 0.  0.
        -12    1    1    2    0    0 -0.87310474724E+00  0.31950682623E+00 -0.72708295063E+00  0.11802737516E+01  0.00000000000E+00 0.  1.
         11    1    3    3    0    0 -0.32702322261E+01 -0.30167302443E+01  0.80623635753E+01  0.92085170826E+01  0.51100000000E-03 0. -1.
        -11    1    3    3    0    0 -0.12198404029E+02 -0.29405871795E+02  0.18174757045E+02  0.36658261700E+02  0.51100000000E-03 0.  1.
         12    1    3    3    0    0  0.16341741002E+02  0.32103095214E+02 -0.25510037670E+02  0.44140947466E+02  0.00000000000E+00 0. -1.
</event>
<event>
 7    1  0.2497665E-015  0.9000777E+02  0.7816164E-02  0.1186339E+00
        -11   -1    0    0    0    0  0.00000000000E+00  0.00000000000E+00  0.45593999997E+02  0.45594000000E+02  0.51100000000E-03 0.  1.
         11   -1    0    0    0    0 -0.00000000000E+00 -0.00000000000E+00 -0.45593999997E+02  0.45594000000E+02  0.51100000000E-03 0. -1.
    9900012    2    1    2    0    0 -0.95066163782E+00 -0.51803820356E+00 -0.46990547699E+00  0.90007774476E+02  0.90000036299E+02 0.  0.
        -12    1    1    2    0    0  0.95066163782E+00  0.51803820356E+00  0.46990547699E+00  0.11802255239E+01  0.00000000000E+00 0.  1.
         11    1    3    3    0    0  0.27658584771E+02  0.16960008811E+02  0.26724896508E+02  0.42034025551E+02  0.51100000000E-03 0. -1.
        -11    1    3    3    0    0 -0.40915366725E+01  0.44928432071E+01 -0.73372918762E+01  0.95269179048E+01  0.51100000000E-03 0.  1.
        -12    1    3    3    0    0 -0.24517709736E+02 -0.21970890221E+02 -0.19857510108E+02  0.38446831021E+02  0.00000000000E+00 0.  1.
</event>
<event>
 7    1  0.2497665E-015  0.9000764E+02  0.7816164E-02  0.1186339E+00
        -11   -1    0    0    0    0  0.00000000000E+00  0.00000000000E+00  0.45593999997E+02  0.45594000000E+02  0.51100000000E-03 0.  1.
         11   -1    0    0    0    0 -0.00000000000E+00 -0.00000000000E+00 -0.45593999997E+02  0.45594000000E+02  0.51100000000E-03 0. -1.
    9900012    2    1    2    0    0 -0.22606035514E+00  0.25224078777E+00 -0.11307187120E+01  0.90007638401E+02  0.89999898428E+02 0.  0.
        -12    1    1    2    0    0  0.22606035514E+00 -0.25224078777E+00  0.11307187120E+01  0.11803615992E+01  0.00000000000E+00 0.  1.
         11    1    3    3    0    0  0.22551523125E+01 -0.47215431451E+01  0.10982633102E+01  0.53464814769E+01  0.51100000000E-03 0. -1.
        -11    1    3    3    0    0 -0.24872728557E+02  0.10878087358E+02  0.32857666023E+02  0.42621727173E+02  0.51100000000E-03 0.  1.
         12    1    3    3    0    0  0.22391515890E+02 -0.59043034254E+01 -0.35086648045E+02  0.42039429751E+02  0.00000000000E+00 0. -1.
</event>
<event>
 7    1  0.2539704E-015  0.9000738E+02  0.7816164E-02  0.1186340E+00
        -11   -1    0    0    0    0  0.00000000000E+00  0.00000000000E+00  0.45593999997E+02  0.45594000000E+02  0.51100000000E-03 0. -1.
         11   -1    0    0    0    0 -0.00000000000E+00 -0.00000000000E+00 -0.45593999997E+02  0.45594000000E+02  0.51100000000E-03 0.  1.
    9900012    2    1    2    0    0  0.95701207325E+00  0.69130949642E+00  0.92919776021E-02  0.90007378440E+02  0.89999635034E+02 0.  0.
        -12    1    1    2    0    0 -0.95701207325E+00 -0.69130949642E+00 -0.92919776021E-02  0.11806215605E+01  0.00000000000E+00 0.  1.
         11    1    3    3    0    0  0.24371225877E+02  0.33766303070E+02  0.99617048526E+01  0.42817700050E+02  0.51100000000E-03 0. -1.
        -11    1    3    3    0    0 -0.40116826562E+01 -0.33605588406E+00 -0.81505661878E+01  0.90905588791E+01  0.51100000000E-03 0.  1.
        -12    1    3    3    0    0 -0.19402531147E+02 -0.32738937690E+02 -0.18018466872E+01  0.38099119510E+02  0.00000000000E+00 0.  1.
</event>
<event>
 7    1  0.2497665E-015  0.9000776E+02  0.7816164E-02  0.1186339E+00
        -11   -1    0    0    0    0  0.00000000000E+00  0.00000000000E+00  0.45593999997E+02  0.45594000000E+02  0.51100000000E-03 0.  1.
         11   -1    0    0    0    0 -0.00000000000E+00 -0.00000000000E+00 -0.45593999997E+02  0.45594000000E+02  0.51100000000E-03 0. -1.
    9900012    2    1    2    0    0  0.19442331516E+00  0.80478948382E+00 -0.84111909338E+00  0.90007759402E+02  0.90000021027E+02 0.  0.
        -12    1    1    2    0    0 -0.19442331516E+00 -0.80478948382E+00  0.84111909338E+00  0.11802405975E+01  0.00000000000E+00 0.  1.
         11    1    3    3    0    0 -0.50147934509E+01  0.32063114656E+01  0.62305915477E+01  0.86167776962E+01  0.51100000000E-03 0. -1.
        -11    1    3    3    0    0 -0.19752035621E+02  0.32356253454E+02  0.61630213412E+00  0.37913716217E+02  0.51100000000E-03 0.  1.
         12    1    3    3    0    0  0.24961252387E+02 -0.34757775436E+02 -0.76880127752E+01  0.43477265490E+02  0.00000000000E+00 0. -1.
</event>
<event>
 7    1  0.2497665E-015  0.9000776E+02  0.7816164E-02  0.1186339E+00
        -11   -1    0    0    0    0  0.00000000000E+00  0.00000000000E+00  0.45593999997E+02  0.45594000000E+02  0.51100000000E-03 0. -1.
         11   -1    0    0    0    0 -0.00000000000E+00 -0.00000000000E+00 -0.45593999997E+02  0.45594000000E+02  0.51100000000E-03 0.  1.
    9900012    2    1    2    0    0  0.10825393679E+01  0.36142513235E+00 -0.30074463267E+00  0.90007759794E+02  0.90000021423E+02 0.  0.
        -12    1    1    2    0    0 -0.10825393679E+01 -0.36142513235E+00  0.30074463267E+00  0.11802402059E+01  0.00000000000E+00 0.  1.
         11    1    3    3    0    0  0.23807273513E+02  0.22688778230E+02 -0.19538329204E+02  0.38253277481E+02  0.51100000000E-03 0. -1.
        -11    1    3    3    0    0 -0.52312763986E+01  0.86386823784E+01 -0.20495193020E+01  0.10305028657E+02  0.51100000000E-03 0.  1.
        -12    1    3    3    0    0 -0.17493457746E+02 -0.30966035476E+02  0.21287103874E+02  0.41449453656E+02  0.00000000000E+00 0.  1.
</event>
<event>
 7    1  0.2497665E-015  0.9000773E+02  0.7816164E-02  0.1186339E+00
        -11   -1    0    0    0    0  0.00000000000E+00  0.00000000000E+00  0.45593999997E+02  0.45594000000E+02  0.51100000000E-03 0. -1.
         11   -1    0    0    0    0 -0.00000000000E+00 -0.00000000000E+00 -0.45593999997E+02  0.45594000000E+02  0.51100000000E-03 0.  1.
    9900012    2    1    2    0    0  0.10826912320E+01  0.34474985435E+00  0.31933640110E+00  0.90007725243E+02  0.89999986416E+02 0.  0.
        -12    1    1    2    0    0 -0.10826912320E+01 -0.34474985435E+00 -0.31933640110E+00  0.11802747574E+01  0.00000000000E+00 0.  1.
         11    1    3    3    0    0 -0.14881537694E+02 -0.11922655343E+01 -0.33933352395E+01  0.15310009325E+02  0.51100000000E-03 0. -1.
        -11    1    3    3    0    0 -0.27736504136E+02  0.84552652468E+01 -0.54747416070E+01  0.29508947253E+02  0.51100000000E-03 0.  1.
         12    1    3    3    0    0  0.43700733061E+02 -0.69182498581E+01  0.91874132476E+01  0.45188768664E+02  0.00000000000E+00 0. -1.
</event>
<event>
 7    1  0.2497665E-015  0.9000717E+02  0.7816164E-02  0.1186340E+00
        -11   -1    0    0    0    0  0.00000000000E+00  0.00000000000E+00  0.45593999997E+02  0.45594000000E+02  0.51100000000E-03 0. -1.
         11   -1    0    0    0    0 -0.00000000000E+00 -0.00000000000E+00 -0.45593999997E+02  0.45594000000E+02  0.51100000000E-03 0.  1.
    9900012    2    1    2    0    0  0.42182278465E+00  0.99434555403E+00  0.47717716362E+00  0.90007171652E+02  0.89999425516E+02 0.  0.
        -12    1    1    2    0    0 -0.42182278465E+00 -0.99434555403E+00 -0.47717716362E+00  0.11808283482E+01  0.00000000000E+00 0.  1.
         11    1    3    3    0    0  0.36993701641E+02  0.20218360857E+01  0.10325318344E+02  0.38460810982E+02  0.51100000000E-03 0. -1.
        -11    1    3    3    0    0  0.19661546335E+01 -0.39738991172E+01  0.78662976387E+01  0.90297440184E+01  0.51100000000E-03 0.  1.
        -12    1    3    3    0    0 -0.38538033489E+02  0.29464085854E+01 -0.17714438819E+02  0.42516616651E+02  0.00000000000E+00 0.  1.
</event>
<event>
 7    1  0.2497665E-015  0.9000792E+02  0.7816164E-02  0.1186339E+00
        -11   -1    0    0    0    0  0.00000000000E+00  0.00000000000E+00  0.45593999997E+02  0.45594000000E+02  0.51100000000E-03 0.  1.
         11   -1    0    0    0    0 -0.00000000000E+00 -0.00000000000E+00 -0.45593999997E+02  0.45594000000E+02  0.51100000000E-03 0. -1.
    9900012    2    1    2    0    0 -0.10810332976E+01 -0.39565158394E+00 -0.25966654743E+00  0.90007915307E+02  0.90000178989E+02 0.  0.
        -12    1    1    2    0    0  0.10810332976E+01  0.39565158394E+00  0.25966654743E+00  0.11800846928E+01  0.00000000000E+00 0.  1.
         11    1    3    3    0    0 -0.50238699342E+01 -0.35673174370E+02 -0.85324799815E+01  0.37021856431E+02  0.51100000000E-03 0. -1.
        -11    1    3    3    0    0 -0.78210650313E+01 -0.52416050680E+01 -0.18531000299E+01  0.95957001775E+01  0.51100000000E-03 0.  1.
        -12    1    3    3    0    0  0.11763901668E+02  0.40519127854E+02  0.10125913464E+02  0.43390358698E+02  0.00000000000E+00 0.  1.
</event>
<event>
 7    1  0.2497665E-015  0.9000772E+02  0.7816164E-02  0.1186339E+00
        -11   -1    0    0    0    0  0.00000000000E+00  0.00000000000E+00  0.45593999997E+02  0.45594000000E+02  0.51100000000E-03 0.  1.
         11   -1    0    0    0    0 -0.00000000000E+00 -0.00000000000E+00 -0.45593999997E+02  0.45594000000E+02  0.51100000000E-03 0. -1.
    9900012    2    1    2    0    0 -0.53299448053E+00  0.10526220309E+01 -0.30957399331E-01  0.90007722653E+02  0.89999983792E+02 0.  0.
        -12    1    1    2    0    0  0.53299448053E+00 -0.10526220309E+01  0.30957399331E-01  0.11802773474E+01  0.00000000000E+00 0.  1.
         11    1    3    3    0    0  0.23835961865E+02 -0.12195242311E+02 -0.28190706362E+02  0.38879209592E+02  0.51100000000E-03 0. -1.
        -11    1    3    3    0    0  0.74079640731E-01 -0.91812205970E+01  0.36418672821E+01  0.98774236016E+01  0.51100000000E-03 0.  1.
        -12    1    3    3    0    0 -0.24443035986E+02  0.22429084939E+02  0.24517881681E+02  0.41251089459E+02  0.00000000000E+00 0.  1.
</event>
<event>
 7    1  0.2497665E-015  0.9000772E+02  0.7816164E-02  0.1186339E+00
        -11   -1    0    0    0    0  0.00000000000E+00  0.00000000000E+00  0.45593999997E+02  0.45594000000E+02  0.51100000000E-03 0. -1.
         11   -1    0    0    0    0 -0.00000000000E+00 -0.00000000000E+00 -0.45593999997E+02  0.45594000000E+02  0.51100000000E-03 0.  1.
    9900012    2    1    2    0    0 -0.54915445865E+00  0.10095409226E+01  0.26893952721E+00  0.90007715304E+02  0.89999976346E+02 0.  0.
        -12    1    1    2    0    0  0.54915445865E+00 -0.10095409226E+01 -0.26893952721E+00  0.11802846958E+01  0.00000000000E+00 0.  1.
         11    1    3    3    0    0 -0.21690259667E+01  0.41754835334E+01 -0.81639730682E+01  0.94228335919E+01  0.51100000000E-03 0. -1.
        -11    1    3    3    0    0  0.25606411065E+02 -0.16832478376E+02 -0.23320990829E+02  0.38508300786E+02  0.51100000000E-03 0.  1.
         12    1    3    3    0    0 -0.23986539557E+02  0.13666535766E+02  0.31753903424E+02  0.42076580926E+02  0.00000000000E+00 0. -1.
</event>
<event>
 7    1  0.2497665E-015  0.9000779E+02  0.7816164E-02  0.1186339E+00
        -11   -1    0    0    0    0  0.00000000000E+00  0.00000000000E+00  0.45593999997E+02  0.45594000000E+02  0.51100000000E-03 0.  1.
         11   -1    0    0    0    0 -0.00000000000E+00 -0.00000000000E+00 -0.45593999997E+02  0.45594000000E+02  0.51100000000E-03 0. -1.
    9900012    2    1    2    0    0  0.13266277370E-01  0.18883014318E+00 -0.11649287024E+01  0.90007791671E+02  0.90000053722E+02 0.  0.
        -12    1    1    2    0    0 -0.13266277370E-01 -0.18883014318E+00  0.11649287024E+01  0.11802083285E+01  0.00000000000E+00 0.  1.
         11    1    3    3    0    0 -0.30098268180E+02 -0.10785089255E+02 -0.14069871733E+02  0.34931149258E+02  0.51100000000E-03 0. -1.
        -11    1    3    3    0    0 -0.50301639135E+01  0.27400764827E+01 -0.10568933082E+02  0.12021352457E+02  0.51100000000E-03 0.  1.
        -12    1    3    3    0    0  0.35141698371E+02  0.82338429153E+01  0.23473876112E+02  0.43055289957E+02  0.00000000000E+00 0.  1.
</event>
<event>
 7    1  0.2497665E-015  0.9000779E+02  0.7816164E-02  0.1186339E+00
        -11   -1    0    0    0    0  0.00000000000E+00  0.00000000000E+00  0.45593999997E+02  0.45594000000E+02  0.51100000000E-03 0.  1.
         11   -1    0    0    0    0 -0.00000000000E+00 -0.00000000000E+00 -0.45593999997E+02  0.45594000000E+02  0.51100000000E-03 0. -1.
    9900012    2    1    2    0    0  0.11417278650E+01 -0.29887355104E+00  0.52088764381E-02  0.90007790252E+02  0.90000052283E+02 0.  0.
        -12    1    1    2    0    0 -0.11417278650E+01  0.29887355104E+00 -0.52088764381E-02  0.11802097481E+01  0.00000000000E+00 0.  1.
         11    1    3    3    0    0 -0.38344526495E+02 -0.45868139037E+01  0.69593246529E+01  0.39239951246E+02  0.51100000000E-03 0. -1.
        -11    1    3    3    0    0 -0.19906432584E+01  0.21321421220E+01 -0.87225043306E+01  0.91973242124E+01  0.51100000000E-03 0.  1.
        -12    1    3    3    0    0  0.41476897619E+02  0.21557982307E+01  0.17683885541E+01  0.41570514793E+02  0.00000000000E+00 0.  1.
</event>
<event>
 7    1  0.2497665E-015  0.9000772E+02  0.7816164E-02  0.1186339E+00
        -11   -1    0    0    0    0  0.00000000000E+00  0.00000000000E+00  0.45593999997E+02  0.45594000000E+02  0.51100000000E-03 0. -1.
         11   -1    0    0    0    0 -0.00000000000E+00 -0.00000000000E+00 -0.45593999997E+02  0.45594000000E+02  0.51100000000E-03 0.  1.
    9900012    2    1    2    0    0 -0.11618701485E+01  0.20730966476E+00 -0.12133622178E-01  0.90007717507E+02  0.89999978578E+02 0.  0.
        -12    1    1    2    0    0  0.11618701485E+01 -0.20730966476E+00  0.12133622178E-01  0.11802824933E+01  0.00000000000E+00 0.  1.
         11    1    3    3    0    0  0.75214583704E+01  0.45421016323E+00 -0.36339579249E+01  0.83656615609E+01  0.51100000000E-03 0. -1.
        -11    1    3    3    0    0 -0.33341617101E+02 -0.28633473938E+01 -0.26457231212E+02  0.42659667989E+02  0.51100000000E-03 0.  1.
         12    1    3    3    0    0  0.24658288582E+02  0.26164468953E+01  0.30079055515E+02  0.38982387957E+02  0.00000000000E+00 0. -1.
</event>
<event>
 7    1  0.2497665E-015  0.9000765E+02  0.7816164E-02  0.1186339E+00
        -11   -1    0    0    0    0  0.00000000000E+00  0.00000000000E+00  0.45593999997E+02  0.45594000000E+02  0.51100000000E-03 0. -1.
         11   -1    0    0    0    0 -0.00000000000E+00 -0.00000000000E+00 -0.45593999997E+02  0.45594000000E+02  0.51100000000E-03 0.  1.
    9900012    2    1    2    0    0  0.40484914519E+00 -0.40449210159E-01  0.11080087019E+01  0.90007651639E+02  0.89999911841E+02 0.  0.
        -12    1    1    2    0    0 -0.40484914519E+00  0.40449210159E-01 -0.11080087019E+01  0.11803483606E+01  0.00000000000E+00 0.  1.
         11    1    3    3    0    0 -0.30922006214E+02 -0.19017021950E+02  0.24496381088E+01  0.36384314193E+02  0.51100000000E-03 0. -1.
        -11    1    3    3    0    0 -0.93243114897E+01  0.19402617592E+01 -0.54088282580E+00  0.95393896526E+01  0.51100000000E-03 0.  1.
        -12    1    3    3    0    0  0.40651166849E+02  0.17036310980E+02 -0.80074658107E+00  0.44083947794E+02  0.00000000000E+00 0.  1.
</event>
<event>
 7    1  0.2497665E-015  0.9000777E+02  0.7816164E-02  0.1186339E+00
        -11   -1    0    0    0    0  0.00000000000E+00  0.00000000000E+00  0.45593999997E+02  0.45594000000E+02  0.51100000000E-03 0. -1.
         11   -1    0    0    0    0 -0.00000000000E+00 -0.00000000000E+00 -0.45593999997E+02  0.45594000000E+02  0.51100000000E-03 0.  1.
    9900012    2    1    2    0    0 -0.91274680023E+00  0.20909712893E+00  0.71841333458E+00  0.90007768646E+02  0.90000030392E+02 0.  0.
        -12    1    1    2    0    0  0.91274680023E+00 -0.20909712893E+00 -0.71841333458E+00  0.11802313544E+01  0.00000000000E+00 0.  1.
         11    1    3    3    0    0  0.65253197244E+01  0.39251697375E+02  0.98971349614E+00  0.39802701885E+02  0.51100000000E-03 0. -1.
        -11    1    3    3    0    0 -0.84511160128E+01  0.23473541822E+01 -0.71704234519E+00  0.88003172388E+01  0.51100000000E-03 0.  1.
        -12    1    3    3    0    0  0.10130494881E+01 -0.41389954428E+02  0.44574218363E+00  0.41404749521E+02  0.00000000000E+00 0.  1.
</event>
<event>
 7    1  0.2497665E-015  0.9000774E+02  0.7816164E-02  0.1186339E+00
        -11   -1    0    0    0    0  0.00000000000E+00  0.00000000000E+00  0.45593999997E+02  0.45594000000E+02  0.51100000000E-03 0. -1.
         11   -1    0    0    0    0 -0.00000000000E+00 -0.00000000000E+00 -0.45593999997E+02  0.45594000000E+02  0.51100000000E-03 0.  1.
    9900012    2    1    2    0    0  0.86502537667E+00 -0.78133579214E+00  0.18508152956E+00  0.90007741683E+02  0.90000003073E+02 0.  0.
        -12    1    1    2    0    0 -0.86502537667E+00  0.78133579214E+00 -0.18508152956E+00  0.11802583170E+01  0.00000000000E+00 0.  1.
         11    1    3    3    0    0 -0.22551306298E+02  0.25897235807E+02  0.15921911409E+02  0.37851492723E+02  0.51100000000E-03 0. -1.
        -11    1    3    3    0    0 -0.34934451063E+01  0.17210219106E+01  0.61853621011E+01  0.73092256574E+01  0.51100000000E-03 0.  1.
        -12    1    3    3    0    0  0.26909776781E+02 -0.28399593509E+02 -0.21922191981E+02  0.44847023303E+02  0.00000000000E+00 0.  1.
</event>
<event>
 7    1  0.2497665E-015  0.9000794E+02  0.7816164E-02  0.1186339E+00
        -11   -1    0    0    0    0  0.00000000000E+00  0.00000000000E+00  0.45593999997E+02  0.45594000000E+02  0.51100000000E-03 0. -1.
         11   -1    0    0    0    0 -0.00000000000E+00 -0.00000000000E+00 -0.45593999997E+02  0.45594000000E+02  0.51100000000E-03 0.  1.
    9900012    2    1    2    0    0  0.83380546002E+00 -0.78988277994E+00  0.27089582264E+00  0.90007944536E+02  0.90000208604E+02 0.  0.
        -12    1    1    2    0    0 -0.83380546002E+00  0.78988277994E+00 -0.27089582264E+00  0.11800554639E+01  0.00000000000E+00 0.  1.
         11    1    3    3    0    0  0.13864546737E+02 -0.12607985943E+02  0.32041230655E+02  0.37119097887E+02  0.51100000000E-03 0. -1.
        -11    1    3    3    0    0 -0.60765962855E+01 -0.75143014701E+01  0.49152622236E+01  0.10842027116E+02  0.51100000000E-03 0.  1.
        -12    1    3    3    0    0 -0.69541449917E+01  0.19332404633E+02 -0.36685597056E+02  0.42046819533E+02  0.00000000000E+00 0.  1.
</event>
<event>
 7    1  0.2722301E-015  0.9000761E+02  0.7816164E-02  0.1186339E+00
        -11   -1    0    0    0    0  0.00000000000E+00  0.00000000000E+00  0.45593999997E+02  0.45594000000E+02  0.51100000000E-03 0. -1.
         11   -1    0    0    0    0 -0.00000000000E+00 -0.00000000000E+00 -0.45593999997E+02  0.45594000000E+02  0.51100000000E-03 0.  1.
    9900012    2    1    2    0    0  0.36341463400E+00  0.46102210303E+00  0.10240684375E+01  0.90007606955E+02  0.89999866567E+02 0.  0.
        -12    1    1    2    0    0 -0.36341463400E+00 -0.46102210303E+00 -0.10240684375E+01  0.11803930449E+01  0.00000000000E+00 0.  1.
         11    1    3    3    0    0  0.44485608477E+01  0.65763359980E+01  0.50800533938E+01  0.94257536314E+01  0.51100000000E-03 0. -1.
        -11    1    3    3    0    0  0.10051378059E+02  0.13401471221E+02 -0.36503696879E+02  0.40164032640E+02  0.51100000000E-03 0.  1.
         12    1    3    3    0    0 -0.14136524273E+02 -0.19516785116E+02  0.32447711923E+02  0.40417820684E+02  0.00000000000E+00 0. -1.
</event>
<event>
 7    1  0.2497665E-015  0.9000780E+02  0.7816164E-02  0.1186339E+00
        -11   -1    0    0    0    0  0.00000000000E+00  0.00000000000E+00  0.45593999997E+02  0.45594000000E+02  0.51100000000E-03 0.  1.
         11   -1    0    0    0    0 -0.00000000000E+00 -0.00000000000E+00 -0.45593999997E+02  0.45594000000E+02  0.51100000000E-03 0. -1.
    9900012    2    1    2    0    0  0.20606639175E+00 -0.55471271658E+00 -0.10211282012E+01  0.90007799865E+02  0.90000062023E+02 0.  0.
        -12    1    1    2    0    0 -0.20606639175E+00  0.55471271658E+00  0.10211282012E+01  0.11802001352E+01  0.00000000000E+00 0.  1.
         11    1    3    3    0    0 -0.16267486670E+02  0.30416972516E+02  0.26754126933E+02  0.43653254722E+02  0.51100000000E-03 0. -1.
        -11    1    3    3    0    0 -0.17065796106E+01 -0.58080268462E+01 -0.40655736275E+01  0.72920833097E+01  0.51100000000E-03 0.  1.
        -12    1    3    3    0    0  0.18180132672E+02 -0.25163658386E+02 -0.23709681507E+02  0.39062461834E+02  0.00000000000E+00 0.  1.
</event>
<event>
 7    1  0.2497665E-015  0.9000765E+02  0.7816164E-02  0.1186339E+00
        -11   -1    0    0    0    0  0.00000000000E+00  0.00000000000E+00  0.45593999997E+02  0.45594000000E+02  0.51100000000E-03 0. -1.
         11   -1    0    0    0    0 -0.00000000000E+00 -0.00000000000E+00 -0.45593999997E+02  0.45594000000E+02  0.51100000000E-03 0.  1.
    9900012    2    1    2    0    0 -0.43294659850E+00 -0.90930247612E+00  0.61559672418E+00  0.90007647054E+02  0.89999907195E+02 0.  0.
        -12    1    1    2    0    0  0.43294659850E+00  0.90930247612E+00 -0.61559672418E+00  0.11803529460E+01  0.00000000000E+00 0.  1.
         11    1    3    3    0    0  0.39711366318E+02 -0.86671752403E-01 -0.18340380245E+00  0.39711884419E+02  0.51100000000E-03 0. -1.
        -11    1    3    3    0    0 -0.64062153492E+00 -0.31216137997E+01 -0.89851996116E+01  0.95335555270E+01  0.51100000000E-03 0.  1.
        -12    1    3    3    0    0 -0.39503691382E+02  0.22989830759E+01  0.97842001382E+01  0.40762207108E+02  0.00000000000E+00 0.  1.
</event>
<event>
 7    1  0.2497665E-015  0.9000776E+02  0.7816164E-02  0.1186339E+00
        -11   -1    0    0    0    0  0.00000000000E+00  0.00000000000E+00  0.45593999997E+02  0.45594000000E+02  0.51100000000E-03 0. -1.
         11   -1    0    0    0    0 -0.00000000000E+00 -0.00000000000E+00 -0.45593999997E+02  0.45594000000E+02  0.51100000000E-03 0.  1.
    9900012    2    1    2    0    0 -0.15876465458E+00 -0.60100273967E+00  0.10032722378E+01  0.90007760324E+02  0.90000021961E+02 0.  0.
        -12    1    1    2    0    0  0.15876465458E+00  0.60100273967E+00 -0.10032722378E+01  0.11802396756E+01  0.00000000000E+00 0.  1.
         11    1    3    3    0    0  0.89411330457E+00 -0.74149486045E+01 -0.65447142958E+01  0.99304676065E+01  0.51100000000E-03 0. -1.
        -11    1    3    3    0    0 -0.10157857814E+02  0.12005302211E+02 -0.33875828512E+02  0.37348107237E+02  0.51100000000E-03 0.  1.
         12    1    3    3    0    0  0.91049798553E+01 -0.51913563462E+01  0.41423815046E+02  0.42729185481E+02  0.00000000000E+00 0. -1.
</event>
<event>
 7    1  0.2848283E-015  0.9000776E+02  0.7816164E-02  0.1186339E+00
        -11   -1    0    0    0    0  0.00000000000E+00  0.00000000000E+00  0.45593999997E+02  0.45594000000E+02  0.51100000000E-03 0. -1.
         11   -1    0    0    0    0 -0.00000000000E+00 -0.00000000000E+00 -0.45593999997E+02  0.45594000000E+02  0.51100000000E-03 0.  1.
    9900012    2    1    2    0    0 -0.10653656313E+01  0.44918202338E+00  0.23708598499E+00  0.90007755033E+02  0.90000016599E+02 0.  0.
        -12    1    1    2    0    0  0.10653656313E+01 -0.44918202338E+00 -0.23708598499E+00  0.11802449673E+01  0.00000000000E+00 0.  1.
         11    1    3    3    0    0  0.44214584377E+01  0.90347773789E+01  0.37458019965E+02  0.38785045533E+02  0.51100000000E-03 0. -1.
        -11    1    3    3    0    0 -0.55650565384E+01  0.66437062461E+01  0.22176563230E+01  0.89457636224E+01  0.51100000000E-03 0.  1.
        -12    1    3    3    0    0  0.78232469358E-01 -0.15229301602E+02 -0.39438590303E+02  0.42276945877E+02  0.00000000000E+00 0.  1.
</event>
<event>
 7    1  0.2497665E-015  0.9000776E+02  0.7816164E-02  0.1186339E+00
        -11   -1    0    0    0    0  0.00000000000E+00  0.00000000000E+00  0.45593999997E+02  0.45594000000E+02  0.51100000000E-03 0. -1.
         11   -1    0    0    0    0 -0.00000000000E+00 -0.00000000000E+00 -0.45593999997E+02  0.45594000000E+02  0.51100000000E-03 0.  1.
    9900012    2    1    2    0    0  0.52531578579E+00 -0.41987353094E+00  0.96990081465E+00  0.90007763563E+02  0.90000025242E+02 0.  0.
        -12    1    1    2    0    0 -0.52531578579E+00  0.41987353094E+00 -0.96990081465E+00  0.11802364369E+01  0.00000000000E+00 0.  1.
         11    1    3    3    0    0  0.28375640495E+02  0.15123497337E+02 -0.22380381688E+02  0.39176250841E+02  0.51100000000E-03 0. -1.
        -11    1    3    3    0    0  0.43012280670E+01  0.44326337697E+01  0.77018454373E+01  0.98725492362E+01  0.51100000000E-03 0.  1.
        -12    1    3    3    0    0 -0.32151552776E+02 -0.19976004637E+02  0.15648437066E+02  0.40958963486E+02  0.00000000000E+00 0.  1.
</event>
<event>
 7    1  0.2497665E-015  0.9000789E+02  0.7816164E-02  0.1186339E+00
        -11   -1    0    0    0    0  0.00000000000E+00  0.00000000000E+00  0.45593999997E+02  0.45594000000E+02  0.51100000000E-03 0.  1.
         11   -1    0    0    0    0 -0.00000000000E+00 -0.00000000000E+00 -0.45593999997E+02  0.45594000000E+02  0.51100000000E-03 0. -1.
    9900012    2    1    2    0    0  0.28762719574E+00  0.83557442380E+00  0.78213570805E+00  0.90007893951E+02  0.90000157351E+02 0.  0.
        -12    1    1    2    0    0 -0.28762719574E+00 -0.83557442380E+00 -0.78213570805E+00  0.11801060492E+01  0.00000000000E+00 0.  1.
         11    1    3    3    0    0 -0.19281542060E+02 -0.30711668405E+02 -0.96918027886E+00  0.36275663344E+02  0.51100000000E-03 0. -1.
        -11    1    3    3    0    0 -0.37719075975E+01 -0.59824473478E+01 -0.54821443249E+01  0.89482327782E+01  0.51100000000E-03 0.  1.
        -12    1    3    3    0    0  0.23341076853E+02  0.37529690176E+02  0.72334603118E+01  0.44783997828E+02  0.00000000000E+00 0.  1.
</event>
<event>
 7    1  0.2497665E-015  0.9000774E+02  0.7816164E-02  0.1186339E+00
        -11   -1    0    0    0    0  0.00000000000E+00  0.00000000000E+00  0.45593999997E+02  0.45594000000E+02  0.51100000000E-03 0.  1.
         11   -1    0    0    0    0 -0.00000000000E+00 -0.00000000000E+00 -0.45593999997E+02  0.45594000000E+02  0.51100000000E-03 0. -1.
    9900012    2    1    2    0    0 -0.99010087178E+00 -0.53723544470E+00 -0.35226036957E+00  0.90007741966E+02  0.90000003360E+02 0.  0.
        -12    1    1    2    0    0  0.99010087178E+00  0.53723544470E+00  0.35226036957E+00  0.11802580342E+01  0.00000000000E+00 0.  1.
         11    1    3    3    0    0  0.70974440346E+01 -0.52540758016E+01  0.45609103108E+01  0.99388594656E+01  0.51100000000E-03 0. -1.
        -11    1    3    3    0    0 -0.28110412653E+02  0.21203778767E+02  0.22928266238E+02  0.42017864372E+02  0.51100000000E-03 0.  1.
         12    1    3    3    0    0  0.20022867746E+02 -0.16486938410E+02 -0.27841436918E+02  0.38051018128E+02  0.00000000000E+00 0. -1.
</event>
<event>
 7    1  0.2497665E-015  0.9000780E+02  0.7816164E-02  0.1186339E+00
        -11   -1    0    0    0    0  0.00000000000E+00  0.00000000000E+00  0.45593999997E+02  0.45594000000E+02  0.51100000000E-03 0.  1.
         11   -1    0    0    0    0 -0.00000000000E+00 -0.00000000000E+00 -0.45593999997E+02  0.45594000000E+02  0.51100000000E-03 0. -1.
    9900012    2    1    2    0    0  0.64102781893E+00 -0.94870027015E-01 -0.98638221078E+00  0.90007802198E+02  0.90000064387E+02 0.  0.
        -12    1    1    2    0    0 -0.64102781893E+00  0.94870027015E-01  0.98638221078E+00  0.11801978022E+01  0.00000000000E+00 0.  1.
         11    1    3    3    0    0 -0.78769653295E+01 -0.36782073160E+00 -0.12104238644E+01  0.79779070617E+01  0.51100000000E-03 0. -1.
        -11    1    3    3    0    0 -0.13625044238E+02  0.13230620946E+02  0.34400766113E+02  0.39295087104E+02  0.51100000000E-03 0.  1.
         12    1    3    3    0    0  0.22143037387E+02 -0.12957670241E+02 -0.34176724459E+02  0.42734808032E+02  0.00000000000E+00 0. -1.
</event>
<event>
 7    1  0.2497665E-015  0.9000774E+02  0.7816164E-02  0.1186339E+00
        -11   -1    0    0    0    0  0.00000000000E+00  0.00000000000E+00  0.45593999997E+02  0.45594000000E+02  0.51100000000E-03 0. -1.
         11   -1    0    0    0    0 -0.00000000000E+00 -0.00000000000E+00 -0.45593999997E+02  0.45594000000E+02  0.51100000000E-03 0.  1.
    9900012    2    1    2    0    0  0.90586402078E+00 -0.20280115354E+00  0.72889770939E+00  0.90007741637E+02  0.90000003027E+02 0.  0.
        -12    1    1    2    0    0 -0.90586402078E+00  0.20280115354E+00 -0.72889770939E+00  0.11802583627E+01  0.00000000000E+00 0.  1.
         11    1    3    3    0    0  0.68354139019E+01 -0.68941120878E+01  0.44343287318E+00  0.97184514025E+01  0.51100000000E-03 0. -1.
        -11    1    3    3    0    0  0.28282919176E+01 -0.31428710942E+02 -0.18838519870E+02  0.36751230426E+02  0.51100000000E-03 0.  1.
         12    1    3    3    0    0 -0.87578417987E+01  0.38120021877E+02  0.19123984707E+02  0.43538059809E+02  0.00000000000E+00 0. -1.
</event>
<event>
 7    1  0.2497665E-015  0.9000793E+02  0.7816164E-02  0.1186339E+00
        -11   -1    0    0    0    0  0.00000000000E+00  0.00000000000E+00  0.45593999997E+02  0.45594000000E+02  0.51100000000E-03 0. -1.
         11   -1    0    0    0    0 -0.00000000000E+00 -0.00000000000E+00 -0.45593999997E+02  0.45594000000E+02  0.51100000000E-03 0.  1.
    9900012    2    1    2    0    0 -0.19554769572E+00  0.43044020937E+00  0.10812237206E+01  0.90007931185E+02  0.90000195076E+02 0.  0.
        -12    1    1    2    0    0  0.19554769572E+00 -0.43044020937E+00 -0.10812237206E+01  0.11800688154E+01  0.00000000000E+00 0.  1.
         11    1    3    3    0    0 -0.20211917343E+01  0.12589644787E+02  0.78358986812E+00  0.12774912338E+02  0.51100000000E-03 0. -1.
        -11    1    3    3    0    0  0.32288521926E+02 -0.10999941500E+01 -0.20927284751E+02  0.38492984849E+02  0.51100000000E-03 0.  1.
         12    1    3    3    0    0 -0.30462877887E+02 -0.11059210428E+02  0.21224918603E+02  0.38740033998E+02  0.00000000000E+00 0. -1.
</event>
<event>
 7    1  0.2497665E-015  0.9000781E+02  0.7816164E-02  0.1186339E+00
        -11   -1    0    0    0    0  0.00000000000E+00  0.00000000000E+00  0.45593999997E+02  0.45594000000E+02  0.51100000000E-03 0. -1.
         11   -1    0    0    0    0 -0.00000000000E+00 -0.00000000000E+00 -0.45593999997E+02  0.45594000000E+02  0.51100000000E-03 0.  1.
    9900012    2    1    2    0    0 -0.79391547380E+00  0.74364650696E+00 -0.45774970897E+00  0.90007810734E+02  0.90000073036E+02 0.  0.
        -12    1    1    2    0    0  0.79391547380E+00 -0.74364650696E+00  0.45774970897E+00  0.11801892657E+01  0.00000000000E+00 0.  1.
         11    1    3    3    0    0 -0.74613441888E+00 -0.83624033632E+01 -0.59080893108E+01  0.10266061862E+02  0.51100000000E-03 0. -1.
        -11    1    3    3    0    0  0.25960605994E+02 -0.15015435239E+02 -0.20032106393E+02  0.36065241519E+02  0.51100000000E-03 0.  1.
         12    1    3    3    0    0 -0.26008387049E+02  0.24121485109E+02  0.25482445995E+02  0.43676507354E+02  0.00000000000E+00 0. -1.
</event>
<event>
 7    1  0.2497665E-015  0.9000778E+02  0.7816164E-02  0.1186339E+00
        -11   -1    0    0    0    0  0.00000000000E+00  0.00000000000E+00  0.45593999997E+02  0.45594000000E+02  0.51100000000E-03 0.  1.
         11   -1    0    0    0    0 -0.00000000000E+00 -0.00000000000E+00 -0.45593999997E+02  0.45594000000E+02  0.51100000000E-03 0. -1.
    9900012    2    1    2    0    0 -0.78288278783E+00 -0.45750318249E+00 -0.75544275373E+00  0.90007784606E+02  0.90000046563E+02 0.  0.
        -12    1    1    2    0    0  0.78288278783E+00  0.45750318249E+00  0.75544275373E+00  0.11802153937E+01  0.00000000000E+00 0.  1.
         11    1    3    3    0    0  0.15584514927E+02 -0.37334743181E+02 -0.11262475254E+02  0.41995279532E+02  0.51100000000E-03 0. -1.
        -11    1    3    3    0    0  0.34990360526E+01  0.60933483577E+01 -0.45828164967E+01  0.83889424130E+01  0.51100000000E-03 0.  1.
        -12    1    3    3    0    0 -0.19866433767E+02  0.30783891641E+02  0.15089848997E+02  0.39623562661E+02  0.00000000000E+00 0.  1.
</event>
<event>
 7    1  0.2497665E-015  0.9000773E+02  0.7816164E-02  0.1186339E+00
        -11   -1    0    0    0    0  0.00000000000E+00  0.00000000000E+00  0.45593999997E+02  0.45594000000E+02  0.51100000000E-03 0.  1.
         11   -1    0    0    0    0 -0.00000000000E+00 -0.00000000000E+00 -0.45593999997E+02  0.45594000000E+02  0.51100000000E-03 0. -1.
    9900012    2    1    2    0    0 -0.65507320896E+00 -0.37705243157E+00 -0.90650828007E+00  0.90007726003E+02  0.89999987187E+02 0.  0.
        -12    1    1    2    0    0  0.65507320896E+00  0.37705243157E+00  0.90650828007E+00  0.11802739966E+01  0.00000000000E+00 0.  1.
         11    1    3    3    0    0  0.12599460461E+02  0.27485909231E+02 -0.21364240634E+02  0.37022322838E+02  0.51100000000E-03 0. -1.
        -11    1    3    3    0    0 -0.81789546780E+01  0.38780750865E+01 -0.64096429161E+01  0.11091360988E+02  0.51100000000E-03 0.  1.
        -12    1    3    3    0    0 -0.50755789916E+01 -0.31741036749E+02  0.26867375270E+02  0.41894042177E+02  0.00000000000E+00 0.  1.
</event>
<event>
 7    1  0.2497665E-015  0.9000773E+02  0.7816164E-02  0.1186339E+00
        -11   -1    0    0    0    0  0.00000000000E+00  0.00000000000E+00  0.45593999997E+02  0.45594000000E+02  0.51100000000E-03 0. -1.
         11   -1    0    0    0    0 -0.00000000000E+00 -0.00000000000E+00 -0.45593999997E+02  0.45594000000E+02  0.51100000000E-03 0.  1.
    9900012    2    1    2    0    0  0.12653638450E+00  0.75256436022E+00  0.90037992648E+00  0.90007725208E+02  0.89999986381E+02 0.  0.
        -12    1    1    2    0    0 -0.12653638450E+00 -0.75256436022E+00 -0.90037992648E+00  0.11802747921E+01  0.00000000000E+00 0.  1.
         11    1    3    3    0    0  0.38632314696E+01  0.69739839374E+01  0.90158664064E+01  0.12035233968E+02  0.51100000000E-03 0. -1.
        -11    1    3    3    0    0  0.66590671570E+01 -0.32339102737E+02  0.19682069810E+02  0.38438842510E+02  0.51100000000E-03 0.  1.
         12    1    3    3    0    0 -0.10395762242E+02  0.26117683160E+02 -0.27797556290E+02  0.39533648730E+02  0.00000000000E+00 0. -1.
</event>
<event>
 7    1  0.2497665E-015  0.9000774E+02  0.7816164E-02  0.1186339E+00
        -11   -1    0    0    0    0  0.00000000000E+00  0.00000000000E+00  0.45593999997E+02  0.45594000000E+02  0.51100000000E-03 0. -1.
         11   -1    0    0    0    0 -0.00000000000E+00 -0.00000000000E+00 -0.45593999997E+02  0.45594000000E+02  0.51100000000E-03 0.  1.
    9900012    2    1    2    0    0  0.63212273571E-01 -0.10910574057E+01  0.44566093035E+00  0.90007739131E+02  0.90000000488E+02 0.  0.
        -12    1    1    2    0    0 -0.63212273571E-01  0.10910574057E+01 -0.44566093035E+00  0.11802608690E+01  0.00000000000E+00 0.  1.
         11    1    3    3    0    0 -0.38438308924E+02 -0.26227003908E+01  0.10499300837E+02  0.39932661677E+02  0.51100000000E-03 0. -1.
        -11    1    3    3    0    0  0.37714782826E+00  0.91169471074E+01  0.20701775868E+01  0.93566340393E+01  0.51100000000E-03 0.  1.
        -12    1    3    3    0    0  0.38124373370E+02 -0.75853041223E+01 -0.12123817494E+02  0.40718443414E+02  0.00000000000E+00 0.  1.
</event>
<event>
 7    1  0.2497665E-015  0.9000781E+02  0.7816164E-02  0.1186339E+00
        -11   -1    0    0    0    0  0.00000000000E+00  0.00000000000E+00  0.45593999997E+02  0.45594000000E+02  0.51100000000E-03 0.  1.
         11   -1    0    0    0    0 -0.00000000000E+00 -0.00000000000E+00 -0.45593999997E+02  0.45594000000E+02  0.51100000000E-03 0. -1.
    9900012    2    1    2    0    0 -0.76505493540E+00  0.29098568911E+00 -0.85022183419E+00  0.90007805570E+02  0.90000067803E+02 0.  0.
        -12    1    1    2    0    0  0.76505493540E+00 -0.29098568911E+00  0.85022183419E+00  0.11801944301E+01  0.00000000000E+00 0.  1.
         11    1    3    3    0    0 -0.18407650562E+02 -0.35102077774E+02 -0.15014138889E+02  0.42384216757E+02  0.51100000000E-03 0. -1.
        -11    1    3    3    0    0 -0.51978333954E+01  0.51574205610E+01  0.42046417288E+01  0.84436645585E+01  0.51100000000E-03 0.  1.
        -12    1    3    3    0    0  0.22840429022E+02  0.30235642902E+02  0.99592753263E+01  0.39179924255E+02  0.00000000000E+00 0.  1.
</event>
<event>
 7    1  0.2497665E-015  0.9000773E+02  0.7816164E-02  0.1186339E+00
        -11   -1    0    0    0    0  0.00000000000E+00  0.00000000000E+00  0.45593999997E+02  0.45594000000E+02  0.51100000000E-03 0. -1.
         11   -1    0    0    0    0 -0.00000000000E+00 -0.00000000000E+00 -0.45593999997E+02  0.45594000000E+02  0.51100000000E-03 0.  1.
    9900012    2    1    2    0    0 -0.38189886330E+00  0.10809125930E+01  0.28072726725E+00  0.90007734532E+02  0.89999995828E+02 0.  0.
        -12    1    1    2    0    0  0.38189886330E+00 -0.10809125930E+01 -0.28072726725E+00  0.11802654676E+01  0.00000000000E+00 0.  1.
         11    1    3    3    0    0 -0.14890875437E+02  0.24506406493E+02  0.62325621365E+01  0.29345305613E+02  0.51100000000E-03 0. -1.
        -11    1    3    3    0    0  0.98218878918E+01  0.10761388676E+02 -0.18849642519E+02  0.23824063283E+02  0.51100000000E-03 0.  1.
         12    1    3    3    0    0  0.46870886816E+01 -0.34186882576E+02  0.12897807649E+02  0.36838365636E+02  0.00000000000E+00 0. -1.
</event>
<event>
 7    1  0.2497665E-015  0.9000774E+02  0.7816164E-02  0.1186339E+00
        -11   -1    0    0    0    0  0.00000000000E+00  0.00000000000E+00  0.45593999997E+02  0.45594000000E+02  0.51100000000E-03 0. -1.
         11   -1    0    0    0    0 -0.00000000000E+00 -0.00000000000E+00 -0.45593999997E+02  0.45594000000E+02  0.51100000000E-03 0.  1.
    9900012    2    1    2    0    0 -0.31121760986E+00 -0.98882796659E+00  0.56425159464E+00  0.90007738584E+02  0.89999999933E+02 0.  0.
        -12    1    1    2    0    0  0.31121760986E+00  0.98882796659E+00 -0.56425159464E+00  0.11802614161E+01  0.00000000000E+00 0.  1.
         11    1    3    3    0    0 -0.35490877682E+01 -0.14193136625E+02  0.23900400807E+02  0.28022674930E+02  0.51100000000E-03 0. -1.
        -11    1    3    3    0    0 -0.13914870139E+02  0.11846339313E+02  0.12562384716E+02  0.22175952654E+02  0.51100000000E-03 0.  1.
        -12    1    3    3    0    0  0.17152740297E+02  0.13579693455E+01 -0.35898533928E+02  0.39809111000E+02  0.00000000000E+00 0.  1.
</event>
<event>
 7    1  0.2497665E-015  0.9000777E+02  0.7816164E-02  0.1186339E+00
        -11   -1    0    0    0    0  0.00000000000E+00  0.00000000000E+00  0.45593999997E+02  0.45594000000E+02  0.51100000000E-03 0.  1.
         11   -1    0    0    0    0 -0.00000000000E+00 -0.00000000000E+00 -0.45593999997E+02  0.45594000000E+02  0.51100000000E-03 0. -1.
    9900012    2    1    2    0    0  0.71560428870E+00  0.54003563826E+00 -0.76760570355E+00  0.90007768453E+02  0.90000030196E+02 0.  0.
        -12    1    1    2    0    0 -0.71560428870E+00 -0.54003563826E+00  0.76760570355E+00  0.11802315471E+01  0.00000000000E+00 0.  1.
         11    1    3    3    0    0 -0.13617603679E+02  0.84257709803E+01 -0.34453874396E+02  0.37993449537E+02  0.51100000000E-03 0. -1.
        -11    1    3    3    0    0  0.17715705478E+01 -0.26059665769E+01 -0.77654494166E+01  0.83804372743E+01  0.51100000000E-03 0.  1.
        -12    1    3    3    0    0  0.12561637420E+02 -0.52797687651E+01  0.41451718109E+02  0.43633881641E+02  0.00000000000E+00 0.  1.
</event>
<event>
 7    1  0.2497665E-015  0.9000781E+02  0.7816164E-02  0.1186339E+00
        -11   -1    0    0    0    0  0.00000000000E+00  0.00000000000E+00  0.45593999997E+02  0.45594000000E+02  0.51100000000E-03 0. -1.
         11   -1    0    0    0    0 -0.00000000000E+00 -0.00000000000E+00 -0.45593999997E+02  0.45594000000E+02  0.51100000000E-03 0.  1.
    9900012    2    1    2    0    0  0.80694543231E+00  0.56778687549E+00  0.64754279796E+00  0.90007807413E+02  0.90000069671E+02 0.  0.
        -12    1    1    2    0    0 -0.80694543231E+00 -0.56778687549E+00 -0.64754279796E+00  0.11801925868E+01  0.00000000000E+00 0.  1.
         11    1    3    3    0    0 -0.38198030597E+02 -0.12617425660E+02  0.62552282733E+01  0.40711384806E+02  0.51100000000E-03 0. -1.
        -11    1    3    3    0    0  0.82260187976E+01  0.63998679394E+01  0.97177871957E+01  0.14249950286E+02  0.51100000000E-03 0.  1.
        -12    1    3    3    0    0  0.30778957232E+02  0.67853445962E+01 -0.15325472671E+02  0.35046472322E+02  0.00000000000E+00 0.  1.
</event>
<event>
 7    1  0.2497665E-015  0.9000774E+02  0.7816164E-02  0.1186339E+00
        -11   -1    0    0    0    0  0.00000000000E+00  0.00000000000E+00  0.45593999997E+02  0.45594000000E+02  0.51100000000E-03 0. -1.
         11   -1    0    0    0    0 -0.00000000000E+00 -0.00000000000E+00 -0.45593999997E+02  0.45594000000E+02  0.51100000000E-03 0.  1.
    9900012    2    1    2    0    0  0.80722094933E+00  0.72360688134E+00 -0.46667907974E+00  0.90007744967E+02  0.90000006400E+02 0.  0.
        -12    1    1    2    0    0 -0.80722094933E+00 -0.72360688134E+00  0.46667907974E+00  0.11802550331E+01  0.00000000000E+00 0.  1.
         11    1    3    3    0    0 -0.13018035274E+02  0.52029625619E+01 -0.35187687549E+02  0.37877611027E+02  0.51100000000E-03 0. -1.
        -11    1    3    3    0    0  0.59226597619E+01  0.38975751398E+01 -0.63236967814E+01  0.95004279835E+01  0.51100000000E-03 0.  1.
        -12    1    3    3    0    0  0.79025964616E+01 -0.83769308203E+01  0.41044705251E+02  0.42629705956E+02  0.00000000000E+00 0.  1.
</event>
<event>
 7    1  0.2497665E-015  0.9000770E+02  0.7816164E-02  0.1186339E+00
        -11   -1    0    0    0    0  0.00000000000E+00  0.00000000000E+00  0.45593999997E+02  0.45594000000E+02  0.51100000000E-03 0.  1.
         11   -1    0    0    0    0 -0.00000000000E+00 -0.00000000000E+00 -0.45593999997E+02  0.45594000000E+02  0.51100000000E-03 0. -1.
    9900012    2    1    2    0    0  0.71752288424E+00 -0.56616006401E-01 -0.93544713700E+00  0.90007700967E+02  0.89999961820E+02 0.  0.
        -12    1    1    2    0    0 -0.71752288424E+00  0.56616006401E-01  0.93544713700E+00  0.11802990332E+01  0.00000000000E+00 0.  1.
         11    1    3    3    0    0  0.28151750434E+02  0.12192724288E+02 -0.13678603560E+02  0.33589995143E+02  0.51100000000E-03 0. -1.
        -11    1    3    3    0    0  0.75444123454E+01 -0.25913131858E+01  0.18059521036E+02  0.19742830647E+02  0.51100000000E-03 0.  1.
        -12    1    3    3    0    0 -0.34978639895E+02 -0.96580271082E+01 -0.53163646123E+01  0.36674875177E+02  0.00000000000E+00 0.  1.
</event>
<event>
 7    1  0.2497665E-015  0.9000773E+02  0.7816164E-02  0.1186339E+00
        -11   -1    0    0    0    0  0.00000000000E+00  0.00000000000E+00  0.45593999997E+02  0.45594000000E+02  0.51100000000E-03 0.  1.
         11   -1    0    0    0    0 -0.00000000000E+00 -0.00000000000E+00 -0.45593999997E+02  0.45594000000E+02  0.51100000000E-03 0. -1.
    9900012    2    1    2    0    0  0.47519013629E+00  0.39306534891E+00 -0.10063408992E+01  0.90007733912E+02  0.89999995199E+02 0.  0.
        -12    1    1    2    0    0 -0.47519013629E+00 -0.39306534891E+00  0.10063408992E+01  0.11802660884E+01  0.00000000000E+00 0.  1.
         11    1    3    3    0    0  0.17039384915E+01  0.27716193513E+02 -0.77668361502E+01  0.28834259714E+02  0.51100000000E-03 0. -1.
        -11    1    3    3    0    0  0.12568502863E+02  0.12188389110E+02 -0.40044673267E+01  0.17959951340E+02  0.51100000000E-03 0.  1.
        -12    1    3    3    0    0 -0.13797251218E+02 -0.39511517274E+02  0.10764962578E+02  0.43213522857E+02  0.00000000000E+00 0.  1.
</event>
<event>
 7    1  0.2497665E-015  0.9000774E+02  0.7816164E-02  0.1186339E+00
        -11   -1    0    0    0    0  0.00000000000E+00  0.00000000000E+00  0.45593999997E+02  0.45594000000E+02  0.51100000000E-03 0.  1.
         11   -1    0    0    0    0 -0.00000000000E+00 -0.00000000000E+00 -0.45593999997E+02  0.45594000000E+02  0.51100000000E-03 0. -1.
    9900012    2    1    2    0    0 -0.35378012271E+00 -0.11235463949E+01  0.74097711572E-01  0.90007742677E+02  0.90000004081E+02 0.  0.
        -12    1    1    2    0    0  0.35378012271E+00  0.11235463949E+01 -0.74097711572E-01  0.11802573226E+01  0.00000000000E+00 0.  1.
         11    1    3    3    0    0 -0.57451446979E+01  0.16284725479E+02 -0.33425987080E+02  0.37623072496E+02  0.51100000000E-03 0. -1.
        -11    1    3    3    0    0  0.59254604322E+01  0.52115565713E+01 -0.38000364352E+01  0.87585204457E+01  0.51100000000E-03 0.  1.
        -12    1    3    3    0    0 -0.53409585702E+00 -0.22619828445E+02  0.37300121226E+02  0.43626149736E+02  0.00000000000E+00 0.  1.
</event>
<event>
 7    1  0.2497665E-015  0.9000775E+02  0.7816164E-02  0.1186339E+00
        -11   -1    0    0    0    0  0.00000000000E+00  0.00000000000E+00  0.45593999997E+02  0.45594000000E+02  0.51100000000E-03 0. -1.
         11   -1    0    0    0    0 -0.00000000000E+00 -0.00000000000E+00 -0.45593999997E+02  0.45594000000E+02  0.51100000000E-03 0.  1.
    9900012    2    1    2    0    0 -0.53589006294E-01 -0.82591151249E+00  0.84141576680E+00  0.90007753373E+02  0.90000014917E+02 0.  0.
        -12    1    1    2    0    0  0.53589006294E-01  0.82591151249E+00 -0.84141576680E+00  0.11802466271E+01  0.00000000000E+00 0.  1.
         11    1    3    3    0    0  0.47014734082E+01 -0.10159736599E+02 -0.64356576987E+00  0.11213308037E+02  0.51100000000E-03 0. -1.
        -11    1    3    3    0    0  0.17344599484E+02  0.33534155552E+01 -0.32982800449E+02  0.37415847617E+02  0.51100000000E-03 0.  1.
         12    1    3    3    0    0 -0.22099661899E+02  0.59804095312E+01  0.34467781986E+02  0.41378597719E+02  0.00000000000E+00 0. -1.
</event>
<event>
 7    1  0.2497665E-015  0.9000781E+02  0.7816164E-02  0.1186339E+00
        -11   -1    0    0    0    0  0.00000000000E+00  0.00000000000E+00  0.45593999997E+02  0.45594000000E+02  0.51100000000E-03 0.  1.
         11   -1    0    0    0    0 -0.00000000000E+00 -0.00000000000E+00 -0.45593999997E+02  0.45594000000E+02  0.51100000000E-03 0. -1.
    9900012    2    1    2    0    0 -0.13076964138E+00  0.19488189279E+00 -0.11566203302E+01  0.90007809236E+02  0.90000071518E+02 0.  0.
        -12    1    1    2    0    0  0.13076964138E+00 -0.19488189279E+00  0.11566203302E+01  0.11801907641E+01  0.00000000000E+00 0.  1.
         11    1    3    3    0    0  0.16103635488E+02 -0.22535994802E+02 -0.26515988876E+02  0.38344436415E+02  0.51100000000E-03 0. -1.
        -11    1    3    3    0    0  0.19092010939E+01  0.80964282601E-02 -0.75270460461E+01  0.77654064163E+01  0.51100000000E-03 0.  1.
        -12    1    3    3    0    0 -0.18143606223E+02  0.22722780267E+02  0.32886414591E+02  0.43897966405E+02  0.00000000000E+00 0.  1.
</event>
<event>
 7    1  0.2497665E-015  0.9000774E+02  0.7816164E-02  0.1186339E+00
        -11   -1    0    0    0    0  0.00000000000E+00  0.00000000000E+00  0.45593999997E+02  0.45594000000E+02  0.51100000000E-03 0. -1.
         11   -1    0    0    0    0 -0.00000000000E+00 -0.00000000000E+00 -0.45593999997E+02  0.45594000000E+02  0.51100000000E-03 0.  1.
    9900012    2    1    2    0    0  0.34782724479E+00 -0.11233819413E+01  0.10019613690E+00  0.90007741535E+02  0.90000002923E+02 0.  0.
        -12    1    1    2    0    0 -0.34782724479E+00  0.11233819413E+01 -0.10019613690E+00  0.11802584650E+01  0.00000000000E+00 0.  1.
         11    1    3    3    0    0  0.43052453541E+01 -0.35710848316E+01  0.76439760621E+01  0.94719667828E+01  0.51100000000E-03 0. -1.
        -11    1    3    3    0    0  0.66233041952E+01 -0.10901478507E+02 -0.41029469446E+02  0.42966588826E+02  0.51100000000E-03 0.  1.
         12    1    3    3    0    0 -0.10580722304E+02  0.13349181397E+02  0.33485689521E+02  0.37569185926E+02  0.00000000000E+00 0. -1.
</event>
<event>
 7    1  0.2497665E-015  0.9000766E+02  0.7816164E-02  0.1186339E+00
        -11   -1    0    0    0    0  0.00000000000E+00  0.00000000000E+00  0.45593999997E+02  0.45594000000E+02  0.51100000000E-03 0. -1.
         11   -1    0    0    0    0 -0.00000000000E+00 -0.00000000000E+00 -0.45593999997E+02  0.45594000000E+02  0.51100000000E-03 0.  1.
    9900012    2    1    2    0    0 -0.23310672563E+00 -0.11527286162E+01  0.10039214789E+00  0.90007660815E+02  0.89999921138E+02 0.  0.
        -12    1    1    2    0    0  0.23310672563E+00  0.11527286162E+01 -0.10039214789E+00  0.11803391849E+01  0.00000000000E+00 0.  1.
         11    1    3    3    0    0 -0.17986943975E+02 -0.30786334131E+02  0.81462510904E+01  0.36574443671E+02  0.51100000000E-03 0. -1.
        -11    1    3    3    0    0 -0.10936031799E+02 -0.79410036576E+00 -0.84528971415E+00  0.10997358859E+02  0.51100000000E-03 0.  1.
        -12    1    3    3    0    0  0.28689869049E+02  0.30427705880E+02 -0.72005692283E+01  0.42435858285E+02  0.00000000000E+00 0.  1.
</event>
<event>
 7    1  0.2497665E-015  0.9000777E+02  0.7816164E-02  0.1186339E+00
        -11   -1    0    0    0    0  0.00000000000E+00  0.00000000000E+00  0.45593999997E+02  0.45594000000E+02  0.51100000000E-03 0. -1.
         11   -1    0    0    0    0 -0.00000000000E+00 -0.00000000000E+00 -0.45593999997E+02  0.45594000000E+02  0.51100000000E-03 0.  1.
    9900012    2    1    2    0    0  0.46136732964E+00  0.68469642334E-01  0.10841532091E+01  0.90007772867E+02  0.90000034669E+02 0.  0.
        -12    1    1    2    0    0 -0.46136732964E+00 -0.68469642334E-01 -0.10841532091E+01  0.11802271331E+01  0.00000000000E+00 0.  1.
         11    1    3    3    0    0  0.34756296063E+02  0.68650007699E+01  0.25397519862E+02  0.43590851872E+02  0.51100000000E-03 0. -1.
        -11    1    3    3    0    0 -0.83394810739E+01 -0.24950229659E+01  0.22904338166E+01  0.90010094718E+01  0.51100000000E-03 0.  1.
        -12    1    3    3    0    0 -0.25955447659E+02 -0.43015081616E+01 -0.26603800469E+02  0.37415911523E+02  0.00000000000E+00 0.  1.
</event>
<event>
 7    1  0.2497665E-015  0.9000773E+02  0.7816164E-02  0.1186339E+00
        -11   -1    0    0    0    0  0.00000000000E+00  0.00000000000E+00  0.45593999997E+02  0.45594000000E+02  0.51100000000E-03 0.  1.
         11   -1    0    0    0    0 -0.00000000000E+00 -0.00000000000E+00 -0.45593999997E+02  0.45594000000E+02  0.51100000000E-03 0. -1.
    9900012    2    1    2    0    0  0.96659557881E+00 -0.66956154761E+00  0.10208749069E+00  0.90007728195E+02  0.89999989407E+02 0.  0.
        -12    1    1    2    0    0 -0.96659557881E+00  0.66956154761E+00 -0.10208749069E+00  0.11802718055E+01  0.00000000000E+00 0.  1.
         11    1    3    3    0    0 -0.63115439701E+01  0.61310949821E+01 -0.27738709454E+01  0.92260648843E+01  0.51100000000E-03 0. -1.
        -11    1    3    3    0    0  0.33949526972E+02  0.95384515270E+01  0.24338787221E+02  0.42847742097E+02  0.51100000000E-03 0.  1.
         12    1    3    3    0    0 -0.26671387423E+02 -0.16339108057E+02 -0.21462828785E+02  0.37933921213E+02  0.00000000000E+00 0. -1.
</event>
<event>
 7    1  0.3512906E-015  0.9000775E+02  0.7816164E-02  0.1186339E+00
        -11   -1    0    0    0    0  0.00000000000E+00  0.00000000000E+00  0.45593999997E+02  0.45594000000E+02  0.51100000000E-03 0.  1.
         11   -1    0    0    0    0 -0.00000000000E+00 -0.00000000000E+00 -0.45593999997E+02  0.45594000000E+02  0.51100000000E-03 0. -1.
    9900012    2    1    2    0    0  0.57908873411E+00  0.10162555840E+01 -0.15768948267E+00  0.90007752082E+02  0.90000013610E+02 0.  0.
        -12    1    1    2    0    0 -0.57908873411E+00 -0.10162555840E+01  0.15768948267E+00  0.11802479176E+01  0.00000000000E+00 0.  1.
         11    1    3    3    0    0  0.23306650200E+02  0.29181045666E+01 -0.28102072601E+02  0.36625698117E+02  0.51100000000E-03 0. -1.
        -11    1    3    3    0    0  0.10389229395E+00  0.17877266099E+01 -0.93383403202E+01  0.95084888515E+01  0.51100000000E-03 0.  1.
        -12    1    3    3    0    0 -0.22831453760E+02 -0.36895755925E+01  0.37282723439E+02  0.43873565114E+02  0.00000000000E+00 0.  1.
</event>
<event>
 7    1  0.2497665E-015  0.9000779E+02  0.7816164E-02  0.1186339E+00
        -11   -1    0    0    0    0  0.00000000000E+00  0.00000000000E+00  0.45593999997E+02  0.45594000000E+02  0.51100000000E-03 0.  1.
         11   -1    0    0    0    0 -0.00000000000E+00 -0.00000000000E+00 -0.45593999997E+02  0.45594000000E+02  0.51100000000E-03 0. -1.
    9900012    2    1    2    0    0  0.58877658200E+00 -0.95652663193E+00 -0.36235943527E+00  0.90007785858E+02  0.90000047831E+02 0.  0.
        -12    1    1    2    0    0 -0.58877658200E+00  0.95652663193E+00  0.36235943527E+00  0.11802141422E+01  0.00000000000E+00 0.  1.
         11    1    3    3    0    0 -0.27726987554E+02 -0.45323664328E+01 -0.22622168065E+02  0.36070634491E+02  0.51100000000E-03 0. -1.
        -11    1    3    3    0    0 -0.76340612866E+01 -0.57820656209E+01 -0.17089150353E+01  0.97278756895E+01  0.51100000000E-03 0.  1.
        -12    1    3    3    0    0  0.35949825423E+02  0.93579054217E+01  0.23968723665E+02  0.44209275678E+02  0.00000000000E+00 0.  1.
</event>
<event>
 7    1  0.2497665E-015  0.9000778E+02  0.7816164E-02  0.1186339E+00
        -11   -1    0    0    0    0  0.00000000000E+00  0.00000000000E+00  0.45593999997E+02  0.45594000000E+02  0.51100000000E-03 0. -1.
         11   -1    0    0    0    0 -0.00000000000E+00 -0.00000000000E+00 -0.45593999997E+02  0.45594000000E+02  0.51100000000E-03 0.  1.
    9900012    2    1    2    0    0 -0.91738784783E+00  0.22512884208E+00  0.70755787532E+00  0.90007779001E+02  0.90000040884E+02 0.  0.
        -12    1    1    2    0    0  0.91738784783E+00 -0.22512884208E+00 -0.70755787532E+00  0.11802209987E+01  0.00000000000E+00 0.  1.
         11    1    3    3    0    0  0.26384467219E+01 -0.89413163765E+01 -0.23169929703E+01  0.96060916264E+01  0.51100000000E-03 0. -1.
        -11    1    3    3    0    0 -0.14485309598E+02  0.28879538961E+01 -0.36255554099E+02  0.39148814479E+02  0.51100000000E-03 0.  1.
         12    1    3    3    0    0  0.10929475028E+02  0.62784913225E+01  0.39280104945E+02  0.41252872896E+02  0.00000000000E+00 0. -1.
</event>
<event>
 7    1  0.2497665E-015  0.9000760E+02  0.7816164E-02  0.1186339E+00
        -11   -1    0    0    0    0  0.00000000000E+00  0.00000000000E+00  0.45593999997E+02  0.45594000000E+02  0.51100000000E-03 0.  1.
         11   -1    0    0    0    0 -0.00000000000E+00 -0.00000000000E+00 -0.45593999997E+02  0.45594000000E+02  0.51100000000E-03 0. -1.
    9900012    2    1    2    0    0 -0.91166758799E+00  0.74979704476E+00 -0.42436864526E-03  0.90007604482E+02  0.89999864061E+02 0.  0.
        -12    1    1    2    0    0  0.91166758799E+00 -0.74979704476E+00  0.42436864527E-03  0.11803955182E+01  0.00000000000E+00 0.  1.
         11    1    3    3    0    0  0.18118201959E+01  0.26169083121E+01  0.88757179281E+01  0.94291712540E+01  0.51100000000E-03 0. -1.
        -11    1    3    3    0    0  0.20709494662E+02  0.13028019111E+02  0.26196602909E+02  0.35845145492E+02  0.51100000000E-03 0.  1.
         12    1    3    3    0    0 -0.23432982446E+02 -0.14895130378E+02 -0.35072745206E+02  0.44733287735E+02  0.00000000000E+00 0. -1.
</event>
<event>
 7    1  0.2497665E-015  0.9000777E+02  0.7816164E-02  0.1186339E+00
        -11   -1    0    0    0    0  0.00000000000E+00  0.00000000000E+00  0.45593999997E+02  0.45594000000E+02  0.51100000000E-03 0.  1.
         11   -1    0    0    0    0 -0.00000000000E+00 -0.00000000000E+00 -0.45593999997E+02  0.45594000000E+02  0.51100000000E-03 0. -1.
    9900012    2    1    2    0    0  0.21799351351E+00 -0.62734132681E+00 -0.97563128411E+00  0.90007773448E+02  0.90000035257E+02 0.  0.
        -12    1    1    2    0    0 -0.21799351351E+00  0.62734132681E+00  0.97563128411E+00  0.11802265523E+01  0.00000000000E+00 0.  1.
         11    1    3    3    0    0 -0.52409748180E+01 -0.28787464454E+00 -0.65640047796E+01  0.84045730327E+01  0.51100000000E-03 0. -1.
        -11    1    3    3    0    0  0.86929060602E+01  0.31628139630E+02  0.27424101934E+02  0.42754966955E+02  0.51100000000E-03 0.  1.
         12    1    3    3    0    0 -0.32339377287E+01 -0.31967606312E+02 -0.21835728438E+02  0.38848233460E+02  0.00000000000E+00 0. -1.
</event>
<event>
 7    1  0.2497665E-015  0.9000784E+02  0.7816164E-02  0.1186339E+00
        -11   -1    0    0    0    0  0.00000000000E+00  0.00000000000E+00  0.45593999997E+02  0.45594000000E+02  0.51100000000E-03 0.  1.
         11   -1    0    0    0    0 -0.00000000000E+00 -0.00000000000E+00 -0.45593999997E+02  0.45594000000E+02  0.51100000000E-03 0. -1.
    9900012    2    1    2    0    0  0.20967372317E+00  0.82270264690E+00 -0.81974313333E+00  0.90007838350E+02  0.90000101016E+02 0.  0.
        -12    1    1    2    0    0 -0.20967372317E+00 -0.82270264690E+00  0.81974313333E+00  0.11801616500E+01  0.00000000000E+00 0.  1.
         11    1    3    3    0    0 -0.42047305489E+01 -0.24815097665E+01  0.62051192334E+01  0.78956414984E+01  0.51100000000E-03 0. -1.
        -11    1    3    3    0    0 -0.29803406430E+02 -0.20996681271E+02  0.83760607316E+01  0.37406711334E+02  0.51100000000E-03 0.  1.
         12    1    3    3    0    0  0.34217810702E+02  0.24300893684E+02 -0.15400923098E+02  0.44705485517E+02  0.00000000000E+00 0. -1.
</event>
<event>
 7    1  0.2497665E-015  0.9000778E+02  0.7816164E-02  0.1186339E+00
        -11   -1    0    0    0    0  0.00000000000E+00  0.00000000000E+00  0.45593999997E+02  0.45594000000E+02  0.51100000000E-03 0.  1.
         11   -1    0    0    0    0 -0.00000000000E+00 -0.00000000000E+00 -0.45593999997E+02  0.45594000000E+02  0.51100000000E-03 0. -1.
    9900012    2    1    2    0    0  0.40245848935E+00  0.77134556651E+00 -0.79748490205E+00  0.90007775874E+02  0.90000037716E+02 0.  0.
        -12    1    1    2    0    0 -0.40245848935E+00 -0.77134556651E+00  0.79748490205E+00  0.11802241260E+01  0.00000000000E+00 0.  1.
         11    1    3    3    0    0 -0.80336504438E+01 -0.11205964825E+02 -0.10179344840E+02  0.17138618636E+02  0.51100000000E-03 0. -1.
        -11    1    3    3    0    0 -0.28170043158E+02  0.64957504808E+01 -0.10617555281E+02  0.30797379535E+02  0.51100000000E-03 0.  1.
         12    1    3    3    0    0  0.36606152091E+02  0.54815599105E+01  0.19999415219E+02  0.42071777703E+02  0.00000000000E+00 0. -1.
</event>
<event>
 7    1  0.2497665E-015  0.9000778E+02  0.7816164E-02  0.1186339E+00
        -11   -1    0    0    0    0  0.00000000000E+00  0.00000000000E+00  0.45593999997E+02  0.45594000000E+02  0.51100000000E-03 0. -1.
         11   -1    0    0    0    0 -0.00000000000E+00 -0.00000000000E+00 -0.45593999997E+02  0.45594000000E+02  0.51100000000E-03 0.  1.
    9900012    2    1    2    0    0 -0.11014230353E+01  0.42224538789E+00  0.38742596118E-01  0.90007777623E+02  0.90000039488E+02 0.  0.
        -12    1    1    2    0    0  0.11014230353E+01 -0.42224538789E+00 -0.38742596118E-01  0.11802223769E+01  0.00000000000E+00 0.  1.
         11    1    3    3    0    0 -0.33265777929E+01  0.54408166453E+01 -0.56923651177E+01  0.85481943400E+01  0.51100000000E-03 0. -1.
        -11    1    3    3    0    0  0.97742263404E+01  0.20326757556E+02 -0.29671019614E+02  0.37270390104E+02  0.51100000000E-03 0.  1.
         12    1    3    3    0    0 -0.75490715828E+01 -0.25345328814E+02  0.35402127328E+02  0.44189193179E+02  0.00000000000E+00 0. -1.
</event>
<event>
 7    1  0.2497665E-015  0.9000772E+02  0.7816164E-02  0.1186339E+00
        -11   -1    0    0    0    0  0.00000000000E+00  0.00000000000E+00  0.45593999997E+02  0.45594000000E+02  0.51100000000E-03 0.  1.
         11   -1    0    0    0    0 -0.00000000000E+00 -0.00000000000E+00 -0.45593999997E+02  0.45594000000E+02  0.51100000000E-03 0. -1.
    9900012    2    1    2    0    0  0.95693023529E+00 -0.27391461271E+00 -0.63427883822E+00  0.90007722772E+02  0.89999983913E+02 0.  0.
        -12    1    1    2    0    0 -0.95693023529E+00  0.27391461271E+00  0.63427883822E+00  0.11802772280E+01  0.00000000000E+00 0.  1.
         11    1    3    3    0    0 -0.41801385002E+01  0.82227976530E+01  0.18015883878E+01  0.93985999013E+01  0.51100000000E-03 0. -1.
        -11    1    3    3    0    0  0.40751193052E+02  0.59432639997E+01 -0.74580436715E+01  0.41852174828E+02  0.51100000000E-03 0.  1.
         12    1    3    3    0    0 -0.35614124316E+02 -0.14439976265E+02  0.50221764455E+01  0.38756948043E+02  0.00000000000E+00 0. -1.
</event>
<event>
 7    1  0.2497665E-015  0.9000782E+02  0.7816164E-02  0.1186339E+00
        -11   -1    0    0    0    0  0.00000000000E+00  0.00000000000E+00  0.45593999997E+02  0.45594000000E+02  0.51100000000E-03 0. -1.
         11   -1    0    0    0    0 -0.00000000000E+00 -0.00000000000E+00 -0.45593999997E+02  0.45594000000E+02  0.51100000000E-03 0.  1.
    9900012    2    1    2    0    0  0.10179619811E+01  0.56994741426E+00 -0.17814420337E+00  0.90007821197E+02  0.90000083637E+02 0.  0.
        -12    1    1    2    0    0 -0.10179619811E+01 -0.56994741426E+00  0.17814420337E+00  0.11801788031E+01  0.00000000000E+00 0.  1.
         11    1    3    3    0    0  0.39560982822E+02  0.19516112212E+01 -0.10710162448E+02  0.41031545524E+02  0.51100000000E-03 0. -1.
        -11    1    3    3    0    0 -0.35309010096E+01 -0.77970610513E+00 -0.84169305640E+01  0.91607818405E+01  0.51100000000E-03 0.  1.
        -12    1    3    3    0    0 -0.35012119831E+02 -0.60195770186E+00  0.18948948809E+02  0.39815493832E+02  0.00000000000E+00 0.  1.
</event>
<event>
 7    1  0.2497665E-015  0.9000772E+02  0.7816164E-02  0.1186339E+00
        -11   -1    0    0    0    0  0.00000000000E+00  0.00000000000E+00  0.45593999997E+02  0.45594000000E+02  0.51100000000E-03 0.  1.
         11   -1    0    0    0    0 -0.00000000000E+00 -0.00000000000E+00 -0.45593999997E+02  0.45594000000E+02  0.51100000000E-03 0. -1.
    9900012    2    1    2    0    0  0.27954281151E+00  0.99620964159E+00 -0.56787486318E+00  0.90007720502E+02  0.89999981612E+02 0.  0.
        -12    1    1    2    0    0 -0.27954281151E+00 -0.99620964159E+00  0.56787486318E+00  0.11802794981E+01  0.00000000000E+00 0.  1.
         11    1    3    3    0    0 -0.81132033636E+01 -0.19092911212E+02 -0.31662821535E+02  0.37853633845E+02  0.51100000000E-03 0. -1.
        -11    1    3    3    0    0 -0.82313155680E+01  0.73610851227E+01 -0.36142120719E+01  0.11619064477E+02  0.51100000000E-03 0.  1.
        -12    1    3    3    0    0  0.16624061743E+02  0.12728035731E+02  0.34709158744E+02  0.40535022180E+02  0.00000000000E+00 0.  1.
</event>
<event>
 7    1  0.2497665E-015  0.9000771E+02  0.7816164E-02  0.1186339E+00
        -11   -1    0    0    0    0  0.00000000000E+00  0.00000000000E+00  0.45593999997E+02  0.45594000000E+02  0.51100000000E-03 0.  1.
         11   -1    0    0    0    0 -0.00000000000E+00 -0.00000000000E+00 -0.45593999997E+02  0.45594000000E+02  0.51100000000E-03 0. -1.
    9900012    2    1    2    0    0  0.26072040120E+00 -0.46240069367E+00 -0.10541769638E+01  0.90007712493E+02  0.89999973498E+02 0.  0.
        -12    1    1    2    0    0 -0.26072040120E+00  0.46240069367E+00  0.10541769638E+01  0.11802875074E+01  0.00000000000E+00 0.  1.
         11    1    3    3    0    0 -0.61512757996E+01  0.60607593679E+01 -0.48753070540E+01  0.99166333607E+01  0.51100000000E-03 0. -1.
        -11    1    3    3    0    0  0.24388785119E+02  0.26007941537E+02  0.18453646392E+02  0.40146767342E+02  0.51100000000E-03 0.  1.
         12    1    3    3    0    0 -0.17976788919E+02 -0.32531101599E+02 -0.14632516302E+02  0.39944311790E+02  0.00000000000E+00 0. -1.
</event>
<event>
 7    1  0.2497665E-015  0.9000773E+02  0.7816164E-02  0.1186339E+00
        -11   -1    0    0    0    0  0.00000000000E+00  0.00000000000E+00  0.45593999997E+02  0.45594000000E+02  0.51100000000E-03 0. -1.
         11   -1    0    0    0    0 -0.00000000000E+00 -0.00000000000E+00 -0.45593999997E+02  0.45594000000E+02  0.51100000000E-03 0.  1.
    9900012    2    1    2    0    0  0.60501351014E+00  0.27303141852E+00  0.97593423851E+00  0.90007730903E+02  0.89999992151E+02 0.  0.
        -12    1    1    2    0    0 -0.60501351014E+00 -0.27303141852E+00 -0.97593423851E+00  0.11802690968E+01  0.00000000000E+00 0.  1.
         11    1    3    3    0    0 -0.81344911900E+01 -0.47079894758E+01  0.17297776303E+01  0.95565288015E+01  0.51100000000E-03 0. -1.
        -11    1    3    3    0    0 -0.34353203746E+02  0.12372768499E+02 -0.32512810635E+01  0.36657861868E+02  0.51100000000E-03 0.  1.
         12    1    3    3    0    0  0.43092708446E+02 -0.73917476051E+01  0.24974376717E+01  0.43793340233E+02  0.00000000000E+00 0. -1.
</event>
<event>
 7    1  0.2497665E-015  0.9000779E+02  0.7816164E-02  0.1186339E+00
        -11   -1    0    0    0    0  0.00000000000E+00  0.00000000000E+00  0.45593999997E+02  0.45594000000E+02  0.51100000000E-03 0.  1.
         11   -1    0    0    0    0 -0.00000000000E+00 -0.00000000000E+00 -0.45593999997E+02  0.45594000000E+02  0.51100000000E-03 0. -1.
    9900012    2    1    2    0    0 -0.39977387008E+00  0.48243594239E+00 -0.10001703090E+01  0.90007786361E+02  0.90000048341E+02 0.  0.
        -12    1    1    2    0    0  0.39977387008E+00 -0.48243594239E+00  0.10001703090E+01  0.11802136386E+01  0.00000000000E+00 0.  1.
         11    1    3    3    0    0 -0.22889394280E+02 -0.40471869359E+01 -0.30737032160E+02  0.38536596099E+02  0.51100000000E-03 0. -1.
        -11    1    3    3    0    0 -0.71802546312E+01  0.61672245452E+01  0.46674926785E-01  0.94653522898E+01  0.51100000000E-03 0.  1.
        -12    1    3    3    0    0  0.29669875042E+02 -0.16376016669E+01  0.29690186924E+02  0.42005837973E+02  0.00000000000E+00 0.  1.
</event>
<event>
 7    1  0.2497665E-015  0.9000782E+02  0.7816164E-02  0.1186339E+00
        -11   -1    0    0    0    0  0.00000000000E+00  0.00000000000E+00  0.45593999997E+02  0.45594000000E+02  0.51100000000E-03 0. -1.
         11   -1    0    0    0    0 -0.00000000000E+00 -0.00000000000E+00 -0.45593999997E+02  0.45594000000E+02  0.51100000000E-03 0.  1.
    9900012    2    1    2    0    0 -0.19546637691E+00  0.97435155970E+00  0.63659139096E+00  0.90007823460E+02  0.90000085930E+02 0.  0.
        -12    1    1    2    0    0  0.19546637691E+00 -0.97435155970E+00 -0.63659139096E+00  0.11801765399E+01  0.00000000000E+00 0.  1.
         11    1    3    3    0    0  0.76041817038E+01  0.75638657469E+01  0.15592130618E+01  0.10838209726E+02  0.51100000000E-03 0. -1.
        -11    1    3    3    0    0  0.35767959589E+01  0.29496222412E+02 -0.20953889449E+02  0.36357751433E+02  0.51100000000E-03 0.  1.
         12    1    3    3    0    0 -0.11376444040E+02 -0.36085736600E+02  0.20031267778E+02  0.42811862302E+02  0.00000000000E+00 0. -1.
</event>
<event>
 7    1  0.2497665E-015  0.9000775E+02  0.7816164E-02  0.1186339E+00
        -11   -1    0    0    0    0  0.00000000000E+00  0.00000000000E+00  0.45593999997E+02  0.45594000000E+02  0.51100000000E-03 0.  1.
         11   -1    0    0    0    0 -0.00000000000E+00 -0.00000000000E+00 -0.45593999997E+02  0.45594000000E+02  0.51100000000E-03 0. -1.
    9900012    2    1    2    0    0  0.10952207130E+01  0.43729232725E+00  0.47474331330E-01  0.90007751381E+02  0.90000012900E+02 0.  0.
        -12    1    1    2    0    0 -0.10952207130E+01 -0.43729232725E+00 -0.47474331330E-01  0.11802486187E+01  0.00000000000E+00 0.  1.
         11    1    3    3    0    0  0.87943699744E+01  0.21760637170E+00 -0.38208649682E+01  0.95910012588E+01  0.51100000000E-03 0. -1.
        -11    1    3    3    0    0  0.95170967323E+01 -0.99479115464E+01  0.38245434413E+02  0.40647869908E+02  0.51100000000E-03 0.  1.
         12    1    3    3    0    0 -0.17216245994E+02  0.10167597502E+02 -0.34377095114E+02  0.39768880215E+02  0.00000000000E+00 0. -1.
</event>
<event>
 7    1  0.2497665E-015  0.9000777E+02  0.7816164E-02  0.1186339E+00
        -11   -1    0    0    0    0  0.00000000000E+00  0.00000000000E+00  0.45593999997E+02  0.45594000000E+02  0.51100000000E-03 0.  1.
         11   -1    0    0    0    0 -0.00000000000E+00 -0.00000000000E+00 -0.45593999997E+02  0.45594000000E+02  0.51100000000E-03 0. -1.
    9900012    2    1    2    0    0  0.82309712885E+00  0.21428402114E+00 -0.81825892822E+00  0.90007765193E+02  0.90000026894E+02 0.  0.
        -12    1    1    2    0    0 -0.82309712885E+00 -0.21428402114E+00  0.81825892822E+00  0.11802348067E+01  0.00000000000E+00 0.  1.
         11    1    3    3    0    0  0.18448734063E+02 -0.30627199677E+02 -0.55957806368E+01  0.36189693419E+02  0.51100000000E-03 0. -1.
        -11    1    3    3    0    0 -0.75686376876E+01 -0.75698071950E+01 -0.65228205172E+01  0.12535287997E+02  0.51100000000E-03 0.  1.
        -12    1    3    3    0    0 -0.10056999247E+02  0.38411290893E+02  0.11300342226E+02  0.41282783777E+02  0.00000000000E+00 0.  1.
</event>
<event>
 7    1  0.2497665E-015  0.9000776E+02  0.7816164E-02  0.1186339E+00
        -11   -1    0    0    0    0  0.00000000000E+00  0.00000000000E+00  0.45593999997E+02  0.45594000000E+02  0.51100000000E-03 0.  1.
         11   -1    0    0    0    0 -0.00000000000E+00 -0.00000000000E+00 -0.45593999997E+02  0.45594000000E+02  0.51100000000E-03 0. -1.
    9900012    2    1    2    0    0 -0.36180054135E+00  0.79869888368E+00 -0.79002835366E+00  0.90007760898E+02  0.90000022542E+02 0.  0.
        -12    1    1    2    0    0  0.36180054135E+00 -0.79869888368E+00  0.79002835366E+00  0.11802391021E+01  0.00000000000E+00 0.  1.
         11    1    3    3    0    0  0.40880323825E+01  0.78469618301E+01  0.41900195289E+01  0.97899480406E+01  0.51100000000E-03 0. -1.
        -11    1    3    3    0    0 -0.34177175792E+02 -0.74559908395E+01  0.20944729031E+02  0.40771961186E+02  0.51100000000E-03 0.  1.
         12    1    3    3    0    0  0.29727342869E+02  0.40772789311E+00 -0.25924776913E+02  0.39445851671E+02  0.00000000000E+00 0. -1.
</event>
<event>
 7    1  0.2497665E-015  0.9000856E+02  0.7816164E-02  0.1186337E+00
        -11   -1    0    0    0    0  0.00000000000E+00  0.00000000000E+00  0.45593999997E+02  0.45594000000E+02  0.51100000000E-03 0.  1.
         11   -1    0    0    0    0 -0.00000000000E+00 -0.00000000000E+00 -0.45593999997E+02  0.45594000000E+02  0.51100000000E-03 0. -1.
    9900012    2    1    2    0    0  0.83163187472E+00 -0.41561121404E+00 -0.72576003583E+00  0.90008562894E+02  0.90000835121E+02 0.  0.
        -12    1    1    2    0    0 -0.83163187472E+00  0.41561121404E+00  0.72576003583E+00  0.11794371055E+01  0.00000000000E+00 0.  1.
         11    1    3    3    0    0 -0.70692251150E+01 -0.29128626928E+01  0.75362274591E+01  0.10735615370E+02  0.51100000000E-03 0. -1.
        -11    1    3    3    0    0 -0.21572229874E+02  0.24584751574E+02  0.14712333133E+02  0.35863963224E+02  0.51100000000E-03 0.  1.
         12    1    3    3    0    0  0.29473086863E+02 -0.22087500095E+02 -0.22974320628E+02  0.43408984301E+02  0.00000000000E+00 0. -1.
</event>
<event>
 7    1  0.2497665E-015  0.9000754E+02  0.7816164E-02  0.1186339E+00
        -11   -1    0    0    0    0  0.00000000000E+00  0.00000000000E+00  0.45593999997E+02  0.45594000000E+02  0.51100000000E-03 0.  1.
         11   -1    0    0    0    0 -0.00000000000E+00 -0.00000000000E+00 -0.45593999997E+02  0.45594000000E+02  0.51100000000E-03 0. -1.
    9900012    2    1    2    0    0 -0.26170895613E+00  0.73821171996E+00 -0.88320258804E+00  0.90007536137E+02  0.89999794813E+02 0.  0.
        -12    1    1    2    0    0  0.26170895613E+00 -0.73821171996E+00  0.88320258804E+00  0.11804638634E+01  0.00000000000E+00 0.  1.
         11    1    3    3    0    0  0.24833005520E+00  0.62768613155E+01  0.73629416223E+01  0.96785104941E+01  0.51100000000E-03 0. -1.
        -11    1    3    3    0    0 -0.50914867602E+01  0.36518389162E+02  0.15486497847E+01  0.36904123087E+02  0.51100000000E-03 0.  1.
         12    1    3    3    0    0  0.45814477489E+01 -0.42057038758E+02 -0.97947939950E+01  0.43424902555E+02  0.00000000000E+00 0. -1.
</event>
<event>
 7    1  0.2497665E-015  0.9000755E+02  0.7816164E-02  0.1186339E+00
        -11   -1    0    0    0    0  0.00000000000E+00  0.00000000000E+00  0.45593999997E+02  0.45594000000E+02  0.51100000000E-03 0.  1.
         11   -1    0    0    0    0 -0.00000000000E+00 -0.00000000000E+00 -0.45593999997E+02  0.45594000000E+02  0.51100000000E-03 0. -1.
    9900012    2    1    2    0    0  0.72058218427E+00 -0.38849840540E-01 -0.93418575179E+00  0.90007554739E+02  0.89999813662E+02 0.  0.
        -12    1    1    2    0    0 -0.72058218427E+00  0.38849840540E-01  0.93418575179E+00  0.11804452606E+01  0.00000000000E+00 0.  1.
         11    1    3    3    0    0 -0.61042475913E+00  0.29530756818E+01  0.88017523279E+01  0.93039840215E+01  0.51100000000E-03 0. -1.
        -11    1    3    3    0    0  0.19231952882E+02  0.24525232154E+02  0.19483742643E+02  0.36755560824E+02  0.51100000000E-03 0.  1.
         12    1    3    3    0    0 -0.17900945938E+02 -0.27517157676E+02 -0.29219680723E+02  0.43948009894E+02  0.00000000000E+00 0. -1.
</event>
<event>
 7    1  0.2497665E-015  0.9000769E+02  0.7816164E-02  0.1186339E+00
        -11   -1    0    0    0    0  0.00000000000E+00  0.00000000000E+00  0.45593999997E+02  0.45594000000E+02  0.51100000000E-03 0. -1.
         11   -1    0    0    0    0 -0.00000000000E+00 -0.00000000000E+00 -0.45593999997E+02  0.45594000000E+02  0.51100000000E-03 0.  1.
    9900012    2    1    2    0    0  0.10090295201E+01  0.42769366209E+00 -0.43825247706E+00  0.90007691704E+02  0.89999952434E+02 0.  0.
        -12    1    1    2    0    0 -0.10090295201E+01 -0.42769366209E+00  0.43825247706E+00  0.11803082965E+01  0.00000000000E+00 0.  1.
         11    1    3    3    0    0 -0.17397621975E+02  0.72943249200E+00  0.19903751446E+01  0.17526292125E+02  0.51100000000E-03 0. -1.
        -11    1    3    3    0    0 -0.15518884595E+02 -0.24239649611E+02 -0.96108873904E+01  0.30344118853E+02  0.51100000000E-03 0.  1.
         12    1    3    3    0    0  0.33925536090E+02  0.23937910781E+02  0.71822597688E+01  0.42137280725E+02  0.00000000000E+00 0. -1.
</event>
<event>
 7    1  0.2497665E-015  0.9000774E+02  0.7816164E-02  0.1186339E+00
        -11   -1    0    0    0    0  0.00000000000E+00  0.00000000000E+00  0.45593999997E+02  0.45594000000E+02  0.51100000000E-03 0.  1.
         11   -1    0    0    0    0 -0.00000000000E+00 -0.00000000000E+00 -0.45593999997E+02  0.45594000000E+02  0.51100000000E-03 0. -1.
    9900012    2    1    2    0    0 -0.79115611293E-01  0.15477577831E+00 -0.11673912836E+01  0.90007738491E+02  0.89999999839E+02 0.  0.
        -12    1    1    2    0    0  0.79115611293E-01 -0.15477577831E+00  0.11673912836E+01  0.11802615094E+01  0.00000000000E+00 0.  1.
         11    1    3    3    0    0  0.96445141328E+01  0.28785098682E+02 -0.22277687596E+02  0.37654932265E+02  0.51100000000E-03 0. -1.
        -11    1    3    3    0    0  0.39049411256E+01 -0.39321908949E+01 -0.93299527635E+01  0.10851668501E+02  0.51100000000E-03 0.  1.
        -12    1    3    3    0    0 -0.13628570870E+02 -0.24698132009E+02  0.30440249076E+02  0.41501137725E+02  0.00000000000E+00 0.  1.
</event>
<event>
 7    1  0.2497665E-015  0.9000785E+02  0.7816164E-02  0.1186339E+00
        -11   -1    0    0    0    0  0.00000000000E+00  0.00000000000E+00  0.45593999997E+02  0.45594000000E+02  0.51100000000E-03 0. -1.
         11   -1    0    0    0    0 -0.00000000000E+00 -0.00000000000E+00 -0.45593999997E+02  0.45594000000E+02  0.51100000000E-03 0.  1.
    9900012    2    1    2    0    0  0.39479987604E+00 -0.60748063535E+00  0.93158782044E+00  0.90007849361E+02  0.90000112172E+02 0.  0.
        -12    1    1    2    0    0 -0.39479987604E+00  0.60748063535E+00 -0.93158782044E+00  0.11801506394E+01  0.00000000000E+00 0.  1.
         11    1    3    3    0    0  0.17494200516E+02 -0.20585070839E+02  0.11701433994E+02  0.29440036530E+02  0.51100000000E-03 0. -1.
        -11    1    3    3    0    0 -0.10012728431E+02 -0.99076239565E+01  0.14925530913E+02  0.20522846206E+02  0.51100000000E-03 0.  1.
        -12    1    3    3    0    0 -0.70866722083E+01  0.29885214160E+02 -0.25695377086E+02  0.40044966625E+02  0.00000000000E+00 0.  1.
</event>
<event>
 7    1  0.2497665E-015  0.9000780E+02  0.7816164E-02  0.1186339E+00
        -11   -1    0    0    0    0  0.00000000000E+00  0.00000000000E+00  0.45593999997E+02  0.45594000000E+02  0.51100000000E-03 0.  1.
         11   -1    0    0    0    0 -0.00000000000E+00 -0.00000000000E+00 -0.45593999997E+02  0.45594000000E+02  0.51100000000E-03 0. -1.
    9900012    2    1    2    0    0 -0.47570130259E+00  0.82360806876E+00 -0.69875599863E+00  0.90007795812E+02  0.90000057917E+02 0.  0.
        -12    1    1    2    0    0  0.47570130259E+00 -0.82360806876E+00  0.69875599863E+00  0.11802041882E+01  0.00000000000E+00 0.  1.
         11    1    3    3    0    0 -0.38734560242E+01 -0.60848256668E+01  0.47419001292E+01  0.86321713412E+01  0.51100000000E-03 0. -1.
        -11    1    3    3    0    0 -0.29848922422E+02  0.29237939989E+00  0.22553127556E+02  0.37412393913E+02  0.51100000000E-03 0.  1.
         12    1    3    3    0    0  0.33246677144E+02  0.66160543357E+01 -0.27993783684E+02  0.43963230557E+02  0.00000000000E+00 0. -1.
</event>
<event>
 7    1  0.2497665E-015  0.9000774E+02  0.7816164E-02  0.1186339E+00
        -11   -1    0    0    0    0  0.00000000000E+00  0.00000000000E+00  0.45593999997E+02  0.45594000000E+02  0.51100000000E-03 0.  1.
         11   -1    0    0    0    0 -0.00000000000E+00 -0.00000000000E+00 -0.45593999997E+02  0.45594000000E+02  0.51100000000E-03 0. -1.
    9900012    2    1    2    0    0  0.56046117635E+00  0.18662161824E+00 -0.10217986209E+01  0.90007738681E+02  0.90000000032E+02 0.  0.
        -12    1    1    2    0    0 -0.56046117635E+00 -0.18662161824E+00  0.10217986209E+01  0.11802613186E+01  0.00000000000E+00 0.  1.
         11    1    3    3    0    0 -0.63253275950E+01  0.24610891201E+01  0.62098839052E+01  0.91994232003E+01  0.51100000000E-03 0. -1.
        -11    1    3    3    0    0  0.88541995010E+01  0.38570893831E+02 -0.27215551918E+01  0.39667588314E+02  0.51100000000E-03 0.  1.
         12    1    3    3    0    0 -0.19684107296E+01 -0.40845361333E+02 -0.45101273343E+01  0.41140727167E+02  0.00000000000E+00 0. -1.
</event>
<event>
 7    1  0.2497665E-015  0.9000750E+02  0.7816164E-02  0.1186340E+00
        -11   -1    0    0    0    0  0.00000000000E+00  0.00000000000E+00  0.45593999997E+02  0.45594000000E+02  0.51100000000E-03 0.  1.
         11   -1    0    0    0    0 -0.00000000000E+00 -0.00000000000E+00 -0.45593999997E+02  0.45594000000E+02  0.51100000000E-03 0. -1.
    9900012    2    1    2    0    0 -0.51386963591E-01 -0.80257915915E+00 -0.86418351367E+00  0.90007497111E+02  0.89999755272E+02 0.  0.
        -12    1    1    2    0    0  0.51386963591E-01  0.80257915915E+00  0.86418351367E+00  0.11805028895E+01  0.00000000000E+00 0.  1.
         11    1    3    3    0    0  0.18903888171E+01  0.32999317852E+02 -0.12414494739E+02  0.35307906033E+02  0.51100000000E-03 0. -1.
        -11    1    3    3    0    0 -0.39857436776E+01  0.78436221540E+01  0.95076806703E+01  0.12953939677E+02  0.51100000000E-03 0.  1.
        -12    1    3    3    0    0  0.20439678970E+01 -0.41645519165E+02  0.20426305555E+01  0.41745651401E+02  0.00000000000E+00 0.  1.
</event>
<event>
 7    1  0.2497665E-015  0.9000780E+02  0.7816164E-02  0.1186339E+00
        -11   -1    0    0    0    0  0.00000000000E+00  0.00000000000E+00  0.45593999997E+02  0.45594000000E+02  0.51100000000E-03 0. -1.
         11   -1    0    0    0    0 -0.00000000000E+00 -0.00000000000E+00 -0.45593999997E+02  0.45594000000E+02  0.51100000000E-03 0.  1.
    9900012    2    1    2    0    0 -0.19726417144E+00  0.70529789362E+00  0.92547989617E+00  0.90007800309E+02  0.90000062473E+02 0.  0.
        -12    1    1    2    0    0  0.19726417144E+00 -0.70529789362E+00 -0.92547989617E+00  0.11801996909E+01  0.00000000000E+00 0.  1.
         11    1    3    3    0    0 -0.63970082526E+01  0.63199882774E+00  0.70386967012E+01  0.95322813961E+01  0.51100000000E-03 0. -1.
        -11    1    3    3    0    0 -0.24265214098E+02 -0.11484231535E+02 -0.29862429245E+02  0.40155359167E+02  0.51100000000E-03 0.  1.
         12    1    3    3    0    0  0.30464958179E+02  0.11557530600E+02  0.23749212440E+02  0.40320159746E+02  0.00000000000E+00 0. -1.
</event>
<event>
 7    1  0.2497665E-015  0.9000774E+02  0.7816164E-02  0.1186339E+00
        -11   -1    0    0    0    0  0.00000000000E+00  0.00000000000E+00  0.45593999997E+02  0.45594000000E+02  0.51100000000E-03 0. -1.
         11   -1    0    0    0    0 -0.00000000000E+00 -0.00000000000E+00 -0.45593999997E+02  0.45594000000E+02  0.51100000000E-03 0.  1.
    9900012    2    1    2    0    0  0.61935498017E+00  0.36061346067E+00  0.93774168329E+00  0.90007744890E+02  0.90000006323E+02 0.  0.
        -12    1    1    2    0    0 -0.61935498017E+00 -0.36061346067E+00 -0.93774168329E+00  0.11802551097E+01  0.00000000000E+00 0.  1.
         11    1    3    3    0    0 -0.32986621432E+02 -0.66676829814E+01  0.15219156407E+02  0.36935049910E+02  0.51100000000E-03 0. -1.
        -11    1    3    3    0    0 -0.50528273649E+00 -0.84739695345E+01  0.60679675030E+01  0.10434735272E+02  0.51100000000E-03 0.  1.
        -12    1    3    3    0    0  0.34111259149E+02  0.15502265977E+02 -0.20349382226E+02  0.42637959709E+02  0.00000000000E+00 0.  1.
</event>
<event>
 7    1  0.2497665E-015  0.9000775E+02  0.7816164E-02  0.1186339E+00
        -11   -1    0    0    0    0  0.00000000000E+00  0.00000000000E+00  0.45593999997E+02  0.45594000000E+02  0.51100000000E-03 0. -1.
         11   -1    0    0    0    0 -0.00000000000E+00 -0.00000000000E+00 -0.45593999997E+02  0.45594000000E+02  0.51100000000E-03 0.  1.
    9900012    2    1    2    0    0  0.40395222338E-01 -0.11554123056E+01  0.23743916117E+00  0.90007751414E+02  0.90000012932E+02 0.  0.
        -12    1    1    2    0    0 -0.40395222338E-01  0.11554123056E+01 -0.23743916117E+00  0.11802485862E+01  0.00000000000E+00 0.  1.
         11    1    3    3    0    0 -0.12058290000E+02  0.26202728713E+02  0.64701800258E+01  0.29560929951E+02  0.51100000000E-03 0. -1.
        -11    1    3    3    0    0  0.14670111334E+02  0.53698786184E+01  0.14750036449E+02  0.21485142272E+02  0.51100000000E-03 0.  1.
        -12    1    3    3    0    0 -0.25714261119E+01 -0.32728019637E+02 -0.20982777314E+02  0.38961679191E+02  0.00000000000E+00 0.  1.
</event>
<event>
 7    1  0.2497665E-015  0.9000777E+02  0.7816164E-02  0.1186339E+00
        -11   -1    0    0    0    0  0.00000000000E+00  0.00000000000E+00  0.45593999997E+02  0.45594000000E+02  0.51100000000E-03 0.  1.
         11   -1    0    0    0    0 -0.00000000000E+00 -0.00000000000E+00 -0.45593999997E+02  0.45594000000E+02  0.51100000000E-03 0. -1.
    9900012    2    1    2    0    0  0.23672512267E+00 -0.11373692234E+01 -0.20810340395E+00  0.90007765040E+02  0.90000026738E+02 0.  0.
        -12    1    1    2    0    0 -0.23672512267E+00  0.11373692234E+01  0.20810340395E+00  0.11802349600E+01  0.00000000000E+00 0.  1.
         11    1    3    3    0    0  0.20847118590E+02 -0.27929435209E+02 -0.16893426236E+02  0.38730395748E+02  0.51100000000E-03 0. -1.
        -11    1    3    3    0    0  0.12958883031E+01 -0.67120154414E+01  0.76136758109E+01  0.10232230324E+02  0.51100000000E-03 0.  1.
        -12    1    3    3    0    0 -0.21906281770E+02  0.33504081427E+02  0.90716470209E+01  0.41045138968E+02  0.00000000000E+00 0.  1.
</event>
<event>
 7    1  0.2497665E-015  0.9000804E+02  0.7816164E-02  0.1186338E+00
        -11   -1    0    0    0    0  0.00000000000E+00  0.00000000000E+00  0.45593999997E+02  0.45594000000E+02  0.51100000000E-03 0.  1.
         11   -1    0    0    0    0 -0.00000000000E+00 -0.00000000000E+00 -0.45593999997E+02  0.45594000000E+02  0.51100000000E-03 0. -1.
    9900012    2    1    2    0    0 -0.93557849268E-02  0.84956834741E+00 -0.81881138091E+00  0.90008039837E+02  0.90000305163E+02 0.  0.
        -12    1    1    2    0    0  0.93557849268E-02 -0.84956834741E+00  0.81881138091E+00  0.11799601625E+01  0.00000000000E+00 0.  1.
         11    1    3    3    0    0  0.71627623762E+01  0.29749305411E+01  0.60641892448E+01  0.98452916686E+01  0.51100000000E-03 0. -1.
        -11    1    3    3    0    0 -0.33577490683E+02 -0.25985301855E+02  0.47460427098E+01  0.42722461477E+02  0.51100000000E-03 0.  1.
         12    1    3    3    0    0  0.26405372522E+02  0.23859939661E+02 -0.11629043335E+02  0.37440286691E+02  0.00000000000E+00 0. -1.
</event>
<event>
 7    1  0.2497665E-015  0.9000774E+02  0.7816164E-02  0.1186339E+00
        -11   -1    0    0    0    0  0.00000000000E+00  0.00000000000E+00  0.45593999997E+02  0.45594000000E+02  0.51100000000E-03 0.  1.
         11   -1    0    0    0    0 -0.00000000000E+00 -0.00000000000E+00 -0.45593999997E+02  0.45594000000E+02  0.51100000000E-03 0. -1.
    9900012    2    1    2    0    0  0.19519312013E+00  0.34754883784E+00 -0.11109124927E+01  0.90007738539E+02  0.89999999888E+02 0.  0.
        -12    1    1    2    0    0 -0.19519312013E+00 -0.34754883784E+00  0.11109124927E+01  0.11802614605E+01  0.00000000000E+00 0.  1.
         11    1    3    3    0    0  0.92476980133E+01  0.52430969465E+01  0.47165329987E+00  0.10641073312E+02  0.51100000000E-03 0. -1.
        -11    1    3    3    0    0  0.15305847213E+02  0.30634884009E+02  0.81511372439E+01  0.35202359520E+02  0.51100000000E-03 0.  1.
         12    1    3    3    0    0 -0.24358352106E+02 -0.35530432118E+02 -0.97337030365E+01  0.44164305707E+02  0.00000000000E+00 0. -1.
</event>
<event>
 7    1  0.2497665E-015  0.9000722E+02  0.7816164E-02  0.1186340E+00
        -11   -1    0    0    0    0  0.00000000000E+00  0.00000000000E+00  0.45593999997E+02  0.45594000000E+02  0.51100000000E-03 0.  1.
         11   -1    0    0    0    0 -0.00000000000E+00 -0.00000000000E+00 -0.45593999997E+02  0.45594000000E+02  0.51100000000E-03 0. -1.
    9900012    2    1    2    0    0  0.58341141822E+00 -0.84457421310E+00 -0.58358603344E+00  0.90007217572E+02  0.89999472042E+02 0.  0.
        -12    1    1    2    0    0 -0.58341141822E+00  0.84457421310E+00  0.58358603344E+00  0.11807824282E+01  0.00000000000E+00 0.  1.
         11    1    3    3    0    0  0.53790258901E+01  0.73252141906E+01 -0.59297467152E+01  0.10851478187E+02  0.51100000000E-03 0. -1.
        -11    1    3    3    0    0  0.28083201592E+02 -0.16040313019E+02  0.24248895217E+02  0.40422354866E+02  0.51100000000E-03 0.  1.
         12    1    3    3    0    0 -0.32878816063E+02  0.78705246153E+01 -0.18902734535E+02  0.38733384520E+02  0.00000000000E+00 0. -1.
</event>
<event>
 7    1  0.2497665E-015  0.9000772E+02  0.7816164E-02  0.1186339E+00
        -11   -1    0    0    0    0  0.00000000000E+00  0.00000000000E+00  0.45593999997E+02  0.45594000000E+02  0.51100000000E-03 0.  1.
         11   -1    0    0    0    0 -0.00000000000E+00 -0.00000000000E+00 -0.45593999997E+02  0.45594000000E+02  0.51100000000E-03 0. -1.
    9900012    2    1    2    0    0 -0.79523240787E+00  0.38432810965E+00  0.78292118768E+00  0.90007716871E+02  0.89999977934E+02 0.  0.
        -12    1    1    2    0    0  0.79523240787E+00 -0.38432810965E+00 -0.78292118768E+00  0.11802831290E+01  0.00000000000E+00 0.  1.
         11    1    3    3    0    0 -0.13551704381E+02  0.34547949006E+02 -0.46923860648E+00  0.37113739468E+02  0.51100000000E-03 0. -1.
        -11    1    3    3    0    0 -0.24352473364E+00  0.54936665692E+01  0.89034077351E+01  0.10464719118E+02  0.51100000000E-03 0.  1.
        -12    1    3    3    0    0  0.12999996707E+02 -0.39657287466E+02 -0.76512479409E+01  0.42429258285E+02  0.00000000000E+00 0.  1.
</event>
<event>
 7    1  0.2497665E-015  0.9000774E+02  0.7816164E-02  0.1186339E+00
        -11   -1    0    0    0    0  0.00000000000E+00  0.00000000000E+00  0.45593999997E+02  0.45594000000E+02  0.51100000000E-03 0. -1.
         11   -1    0    0    0    0 -0.00000000000E+00 -0.00000000000E+00 -0.45593999997E+02  0.45594000000E+02  0.51100000000E-03 0.  1.
    9900012    2    1    2    0    0  0.11464833134E+01 -0.14978486142E+00 -0.23698501918E+00  0.90007736728E+02  0.89999998053E+02 0.  0.
        -12    1    1    2    0    0 -0.11464833134E+01  0.14978486142E+00  0.23698501918E+00  0.11802632723E+01  0.00000000000E+00 0.  1.
         11    1    3    3    0    0 -0.74415172061E+01  0.43402512219E+01 -0.53779478841E+01  0.10155603512E+02  0.51100000000E-03 0. -1.
        -11    1    3    3    0    0 -0.18947527870E+02 -0.55216890510E+01 -0.29559227963E+02  0.35542169607E+02  0.51100000000E-03 0.  1.
         12    1    3    3    0    0  0.27535528389E+02  0.10316529677E+01  0.34700190828E+02  0.44309963608E+02  0.00000000000E+00 0. -1.
</event>
<event>
 7    1  0.2497665E-015  0.9000779E+02  0.7816164E-02  0.1186339E+00
        -11   -1    0    0    0    0  0.00000000000E+00  0.00000000000E+00  0.45593999997E+02  0.45594000000E+02  0.51100000000E-03 0. -1.
         11   -1    0    0    0    0 -0.00000000000E+00 -0.00000000000E+00 -0.45593999997E+02  0.45594000000E+02  0.51100000000E-03 0.  1.
    9900012    2    1    2    0    0 -0.10307906824E+01 -0.35758085573E+00  0.45001139846E+00  0.90007786562E+02  0.90000048545E+02 0.  0.
        -12    1    1    2    0    0  0.10307906824E+01  0.35758085573E+00 -0.45001139846E+00  0.11802134375E+01  0.00000000000E+00 0.  1.
         11    1    3    3    0    0 -0.74502478227E+01 -0.53463314861E+00 -0.61124405032E+01  0.96516296235E+01  0.51100000000E-03 0. -1.
        -11    1    3    3    0    0 -0.10867876893E+02  0.36869447466E+02  0.97964267999E+01  0.39666571353E+02  0.51100000000E-03 0.  1.
         12    1    3    3    0    0  0.17287334033E+02 -0.36692395173E+02 -0.32339748982E+01  0.40689585586E+02  0.00000000000E+00 0. -1.
</event>
<event>
 7    1  0.2497665E-015  0.9000775E+02  0.7816164E-02  0.1186339E+00
        -11   -1    0    0    0    0  0.00000000000E+00  0.00000000000E+00  0.45593999997E+02  0.45594000000E+02  0.51100000000E-03 0.  1.
         11   -1    0    0    0    0 -0.00000000000E+00 -0.00000000000E+00 -0.45593999997E+02  0.45594000000E+02  0.51100000000E-03 0. -1.
    9900012    2    1    2    0    0 -0.38188579476E+00  0.10671658255E+01 -0.32909389124E+00  0.90007753226E+02  0.90000014768E+02 0.  0.
        -12    1    1    2    0    0  0.38188579476E+00 -0.10671658255E+01  0.32909389124E+00  0.11802467744E+01  0.00000000000E+00 0.  1.
         11    1    3    3    0    0 -0.95236326651E+00 -0.82556510129E+01 -0.58755428611E+00  0.83311457638E+01  0.51100000000E-03 0. -1.
        -11    1    3    3    0    0 -0.11648333522E+01 -0.29630582241E+02  0.22100947316E+02  0.36983511369E+02  0.51100000000E-03 0.  1.
         12    1    3    3    0    0  0.17353108240E+01  0.38953399079E+02 -0.21842486921E+02  0.44693096093E+02  0.00000000000E+00 0. -1.
</event>
<event>
 7    1  0.2497665E-015  0.9000769E+02  0.7816164E-02  0.1186339E+00
        -11   -1    0    0    0    0  0.00000000000E+00  0.00000000000E+00  0.45593999997E+02  0.45594000000E+02  0.51100000000E-03 0.  1.
         11   -1    0    0    0    0 -0.00000000000E+00 -0.00000000000E+00 -0.45593999997E+02  0.45594000000E+02  0.51100000000E-03 0. -1.
    9900012    2    1    2    0    0  0.17598555801E+00  0.11968195756E+00 -0.11609664704E+01  0.90007687400E+02  0.89999948074E+02 0.  0.
        -12    1    1    2    0    0 -0.17598555801E+00 -0.11968195756E+00  0.11609664704E+01  0.11803125997E+01  0.00000000000E+00 0.  1.
         11    1    3    3    0    0  0.36574529089E+02  0.50382939679E+01 -0.84965359817E+01  0.37884979980E+02  0.51100000000E-03 0. -1.
        -11    1    3    3    0    0  0.84856489415E+00  0.94243411266E+01 -0.45190597911E+01  0.10486189475E+02  0.51100000000E-03 0.  1.
        -12    1    3    3    0    0 -0.37247108425E+02 -0.14342953137E+02  0.11854629302E+02  0.41636517945E+02  0.00000000000E+00 0.  1.
</event>
<event>
 7    1  0.2497665E-015  0.9000774E+02  0.7816164E-02  0.1186339E+00
        -11   -1    0    0    0    0  0.00000000000E+00  0.00000000000E+00  0.45593999997E+02  0.45594000000E+02  0.51100000000E-03 0.  1.
         11   -1    0    0    0    0 -0.00000000000E+00 -0.00000000000E+00 -0.45593999997E+02  0.45594000000E+02  0.51100000000E-03 0. -1.
    9900012    2    1    2    0    0  0.90204675427E+00 -0.56646693901E+00 -0.50837306419E+00  0.90007738880E+02  0.90000000233E+02 0.  0.
        -12    1    1    2    0    0 -0.90204675427E+00  0.56646693901E+00  0.50837306419E+00  0.11802611204E+01  0.00000000000E+00 0.  1.
         11    1    3    3    0    0 -0.39654249886E+01 -0.10421763560E+02  0.26402425348E+01  0.11458997859E+02  0.51100000000E-03 0. -1.
        -11    1    3    3    0    0  0.11286841103E+02 -0.30316351951E+02  0.12886162934E+02  0.34821360874E+02  0.51100000000E-03 0.  1.
         12    1    3    3    0    0 -0.64193693599E+01  0.40171648571E+02 -0.16034778533E+02  0.43727380147E+02  0.00000000000E+00 0. -1.
</event>
<event>
 7    1  0.2497665E-015  0.9000784E+02  0.7816164E-02  0.1186339E+00
        -11   -1    0    0    0    0  0.00000000000E+00  0.00000000000E+00  0.45593999997E+02  0.45594000000E+02  0.51100000000E-03 0. -1.
         11   -1    0    0    0    0 -0.00000000000E+00 -0.00000000000E+00 -0.45593999997E+02  0.45594000000E+02  0.51100000000E-03 0.  1.
    9900012    2    1    2    0    0 -0.62456952641E+00 -0.73950219432E+00  0.67514992798E+00  0.90007839835E+02  0.90000102521E+02 0.  0.
        -12    1    1    2    0    0  0.62456952641E+00  0.73950219432E+00 -0.67514992798E+00  0.11801601645E+01  0.00000000000E+00 0.  1.
         11    1    3    3    0    0  0.29615381784E+01 -0.41669823318E+02 -0.85004403916E+00  0.41783578818E+02  0.51100000000E-03 0. -1.
        -11    1    3    3    0    0 -0.82512808936E+01  0.23162268525E+01 -0.29705097933E+01  0.90704174056E+01  0.51100000000E-03 0.  1.
        -12    1    3    3    0    0  0.46651731889E+01  0.38614094271E+02  0.44957037605E+01  0.39153843612E+02  0.00000000000E+00 0.  1.
</event>
<event>
 7    1  0.2497665E-015  0.9000770E+02  0.7816164E-02  0.1186339E+00
        -11   -1    0    0    0    0  0.00000000000E+00  0.00000000000E+00  0.45593999997E+02  0.45594000000E+02  0.51100000000E-03 0. -1.
         11   -1    0    0    0    0 -0.00000000000E+00 -0.00000000000E+00 -0.45593999997E+02  0.45594000000E+02  0.51100000000E-03 0.  1.
    9900012    2    1    2    0    0 -0.69938276116E+00 -0.41859405081E+00  0.85366759272E+00  0.90007701061E+02  0.89999961915E+02 0.  0.
        -12    1    1    2    0    0  0.69938276116E+00  0.41859405081E+00 -0.85366759272E+00  0.11802989388E+01  0.00000000000E+00 0.  1.
         11    1    3    3    0    0 -0.27267012845E+02  0.19090097173E+02  0.18870864080E+02  0.38262662100E+02  0.51100000000E-03 0. -1.
        -11    1    3    3    0    0  0.30762607906E+01  0.10133843098E+02 -0.52951254991E+01  0.11840460747E+02  0.51100000000E-03 0.  1.
        -12    1    3    3    0    0  0.23491369294E+02 -0.29642534321E+02 -0.12722070988E+02  0.39904578215E+02  0.00000000000E+00 0.  1.
</event>
<event>
 7    1  0.2497665E-015  0.9000772E+02  0.7816164E-02  0.1186339E+00
        -11   -1    0    0    0    0  0.00000000000E+00  0.00000000000E+00  0.45593999997E+02  0.45594000000E+02  0.51100000000E-03 0.  1.
         11   -1    0    0    0    0 -0.00000000000E+00 -0.00000000000E+00 -0.45593999997E+02  0.45594000000E+02  0.51100000000E-03 0. -1.
    9900012    2    1    2    0    0 -0.11627153432E+01 -0.14104031012E+00  0.14585241159E+00  0.90007715177E+02  0.89999976217E+02 0.  0.
        -12    1    1    2    0    0  0.11627153432E+01  0.14104031012E+00 -0.14585241159E+00  0.11802848234E+01  0.00000000000E+00 0.  1.
         11    1    3    3    0    0  0.29458439663E+01 -0.24828274676E+02 -0.22882643202E+02  0.33893016688E+02  0.51100000000E-03 0. -1.
        -11    1    3    3    0    0  0.70371301436E+01  0.34058964282E+01 -0.11588156810E+02  0.13978795000E+02  0.51100000000E-03 0.  1.
        -12    1    3    3    0    0 -0.11145689453E+02  0.21281337937E+02  0.34616652424E+02  0.42135903489E+02  0.00000000000E+00 0.  1.
</event>
<event>
 7    1  0.2497665E-015  0.9000771E+02  0.7816164E-02  0.1186339E+00
        -11   -1    0    0    0    0  0.00000000000E+00  0.00000000000E+00  0.45593999997E+02  0.45594000000E+02  0.51100000000E-03 0. -1.
         11   -1    0    0    0    0 -0.00000000000E+00 -0.00000000000E+00 -0.45593999997E+02  0.45594000000E+02  0.51100000000E-03 0.  1.
    9900012    2    1    2    0    0  0.41723580854E+00 -0.11034324475E+01 -0.37923644690E-01  0.90007708897E+02  0.89999969854E+02 0.  0.
        -12    1    1    2    0    0 -0.41723580854E+00  0.11034324475E+01  0.37923644690E-01  0.11802911034E+01  0.00000000000E+00 0.  1.
         11    1    3    3    0    0  0.65718344345E+01 -0.47174935800E+01 -0.40271289038E+01  0.90366764344E+01  0.51100000000E-03 0. -1.
        -11    1    3    3    0    0 -0.35536734670E+02 -0.22067058276E+02  0.29284564359E+01  0.41933166221E+02  0.51100000000E-03 0.  1.
         12    1    3    3    0    0  0.29382136044E+02  0.25681119408E+02  0.10607488232E+01  0.39037866241E+02  0.00000000000E+00 0. -1.
</event>
<event>
 7    1  0.2497665E-015  0.9000771E+02  0.7816164E-02  0.1186339E+00
        -11   -1    0    0    0    0  0.00000000000E+00  0.00000000000E+00  0.45593999997E+02  0.45594000000E+02  0.51100000000E-03 0. -1.
         11   -1    0    0    0    0 -0.00000000000E+00 -0.00000000000E+00 -0.45593999997E+02  0.45594000000E+02  0.51100000000E-03 0.  1.
    9900012    2    1    2    0    0  0.15132650554E+00  0.96824048371E+00  0.65779520631E+00  0.90007710256E+02  0.89999971232E+02 0.  0.
        -12    1    1    2    0    0 -0.15132650554E+00 -0.96824048371E+00 -0.65779520631E+00  0.11802897437E+01  0.00000000000E+00 0.  1.
         11    1    3    3    0    0 -0.44286931905E+01 -0.90642338353E+01  0.16687701437E+01  0.10225382753E+02  0.51100000000E-03 0. -1.
        -11    1    3    3    0    0 -0.28714220678E+02 -0.12970934781E+02 -0.17548907459E+02  0.36065437353E+02  0.51100000000E-03 0.  1.
         12    1    3    3    0    0  0.33294240374E+02  0.23003409100E+02  0.16537932521E+02  0.43716890150E+02  0.00000000000E+00 0. -1.
</event>
<event>
 7    1  0.2497665E-015  0.9000746E+02  0.7816164E-02  0.1186340E+00
        -11   -1    0    0    0    0  0.00000000000E+00  0.00000000000E+00  0.45593999997E+02  0.45594000000E+02  0.51100000000E-03 0. -1.
         11   -1    0    0    0    0 -0.00000000000E+00 -0.00000000000E+00 -0.45593999997E+02  0.45594000000E+02  0.51100000000E-03 0.  1.
    9900012    2    1    2    0    0 -0.86462272862E+00  0.34818946058E+00 -0.72447828468E+00  0.90007458960E+02  0.89999716617E+02 0.  0.
        -12    1    1    2    0    0  0.86462272862E+00 -0.34818946058E+00  0.72447828468E+00  0.11805410405E+01  0.00000000000E+00 0.  1.
         11    1    3    3    0    0  0.56655377435E+01  0.70307196168E+01 -0.23592470991E+01  0.93324907388E+01  0.51100000000E-03 0. -1.
        -11    1    3    3    0    0 -0.95353093051E+00  0.21808646759E+02 -0.30410593036E+02  0.37434348716E+02  0.51100000000E-03 0.  1.
         12    1    3    3    0    0 -0.55766295416E+01 -0.28491176916E+02  0.32045361850E+02  0.43240619505E+02  0.00000000000E+00 0. -1.
</event>
<event>
 7    1  0.2497665E-015  0.9000774E+02  0.7816164E-02  0.1186339E+00
        -11   -1    0    0    0    0  0.00000000000E+00  0.00000000000E+00  0.45593999997E+02  0.45594000000E+02  0.51100000000E-03 0.  1.
         11   -1    0    0    0    0 -0.00000000000E+00 -0.00000000000E+00 -0.45593999997E+02  0.45594000000E+02  0.51100000000E-03 0. -1.
    9900012    2    1    2    0    0 -0.15878242518E+00 -0.95620784542E+00 -0.67340460738E+00  0.90007737712E+02  0.89999999050E+02 0.  0.
        -12    1    1    2    0    0  0.15878242518E+00  0.95620784542E+00  0.67340460738E+00  0.11802622876E+01  0.00000000000E+00 0.  1.
         11    1    3    3    0    0  0.27261797690E+02  0.48278325351E+01 -0.22816289558E+02  0.35876129247E+02  0.51100000000E-03 0. -1.
        -11    1    3    3    0    0  0.35257683515E+01  0.68409724686E+01 -0.65316415038E+01  0.10094170980E+02  0.51100000000E-03 0.  1.
        -12    1    3    3    0    0 -0.30946348467E+02 -0.12625012849E+02  0.28674526455E+02  0.44037437485E+02  0.00000000000E+00 0.  1.
</event>
<event>
 7    1  0.2497665E-015  0.9000782E+02  0.7816164E-02  0.1186339E+00
        -11   -1    0    0    0    0  0.00000000000E+00  0.00000000000E+00  0.45593999997E+02  0.45594000000E+02  0.51100000000E-03 0.  1.
         11   -1    0    0    0    0 -0.00000000000E+00 -0.00000000000E+00 -0.45593999997E+02  0.45594000000E+02  0.51100000000E-03 0. -1.
    9900012    2    1    2    0    0 -0.58076871016E+00 -0.28468327751E+00 -0.98716540635E+00  0.90007816793E+02  0.90000079174E+02 0.  0.
        -12    1    1    2    0    0  0.58076871016E+00  0.28468327751E+00  0.98716540635E+00  0.11801832073E+01  0.00000000000E+00 0.  1.
         11    1    3    3    0    0  0.94906393926E+01  0.53941496268E+01  0.41867099463E+01  0.11691776029E+02  0.51100000000E-03 0. -1.
        -11    1    3    3    0    0  0.32669710388E+02 -0.93501637871E+01 -0.92680365595E+01  0.35222606968E+02  0.51100000000E-03 0.  1.
         12    1    3    3    0    0 -0.42741118491E+02  0.36713308828E+01  0.40941612069E+01  0.43093433796E+02  0.00000000000E+00 0. -1.
</event>
<event>
 7    1  0.2497665E-015  0.9000783E+02  0.7816164E-02  0.1186339E+00
        -11   -1    0    0    0    0  0.00000000000E+00  0.00000000000E+00  0.45593999997E+02  0.45594000000E+02  0.51100000000E-03 0.  1.
         11   -1    0    0    0    0 -0.00000000000E+00 -0.00000000000E+00 -0.45593999997E+02  0.45594000000E+02  0.51100000000E-03 0. -1.
    9900012    2    1    2    0    0 -0.25352172979E+00  0.11162947958E+01 -0.28709676148E+00  0.90007825484E+02  0.90000087980E+02 0.  0.
        -12    1    1    2    0    0  0.25352172979E+00 -0.11162947958E+01  0.28709676148E+00  0.11801745164E+01  0.00000000000E+00 0.  1.
         11    1    3    3    0    0 -0.31043939229E+02  0.32989270182E+01 -0.17104909639E+02  0.35597570372E+02  0.51100000000E-03 0. -1.
        -11    1    3    3    0    0  0.14697259179E+01 -0.97555198855E+01 -0.99361239733E+01  0.14002029224E+02  0.51100000000E-03 0.  1.
        -12    1    3    3    0    0  0.29320691582E+02  0.75728876632E+01  0.26753936851E+02  0.40408225888E+02  0.00000000000E+00 0.  1.
</event>
<event>
 7    1  0.2497665E-015  0.9000765E+02  0.7816164E-02  0.1186339E+00
        -11   -1    0    0    0    0  0.00000000000E+00  0.00000000000E+00  0.45593999997E+02  0.45594000000E+02  0.51100000000E-03 0. -1.
         11   -1    0    0    0    0 -0.00000000000E+00 -0.00000000000E+00 -0.45593999997E+02  0.45594000000E+02  0.51100000000E-03 0.  1.
    9900012    2    1    2    0    0 -0.72228852310E+00  0.81738725155E+00  0.45099834035E+00  0.90007651690E+02  0.89999911892E+02 0.  0.
        -12    1    1    2    0    0  0.72228852310E+00 -0.81738725155E+00 -0.45099834035E+00  0.11803483099E+01  0.00000000000E+00 0.  1.
         11    1    3    3    0    0 -0.11919676518E+02 -0.34778704167E+02 -0.33479944934E+01  0.36916744428E+02  0.51100000000E-03 0. -1.
        -11    1    3    3    0    0  0.69138926862E+00 -0.64943743246E+01 -0.57145313361E+01  0.86781787053E+01  0.51100000000E-03 0.  1.
        -12    1    3    3    0    0  0.10505998726E+02  0.42090465743E+02  0.95135241698E+01  0.44412728556E+02  0.00000000000E+00 0.  1.
</event>
<event>
 7    1  0.2497665E-015  0.9000770E+02  0.7816164E-02  0.1186339E+00
        -11   -1    0    0    0    0  0.00000000000E+00  0.00000000000E+00  0.45593999997E+02  0.45594000000E+02  0.51100000000E-03 0.  1.
         11   -1    0    0    0    0 -0.00000000000E+00 -0.00000000000E+00 -0.45593999997E+02  0.45594000000E+02  0.51100000000E-03 0. -1.
    9900012    2    1    2    0    0 -0.59103914091E+00 -0.66613346002E+00  0.77463017571E+00  0.90007697936E+02  0.89999958749E+02 0.  0.
        -12    1    1    2    0    0  0.59103914091E+00  0.66613346002E+00 -0.77463017571E+00  0.11803020638E+01  0.00000000000E+00 0.  1.
         11    1    3    3    0    0 -0.36674406330E+01  0.63146271776E+00  0.82871275676E+01  0.90843464015E+01  0.51100000000E-03 0. -1.
        -11    1    3    3    0    0 -0.30945793478E+02 -0.15995446002E+02  0.14595065978E+02  0.37769198800E+02  0.51100000000E-03 0.  1.
         12    1    3    3    0    0  0.34022194971E+02  0.14697849825E+02 -0.22107563370E+02  0.43154152735E+02  0.00000000000E+00 0. -1.
</event>
<event>
 7    1  0.2497665E-015  0.9000782E+02  0.7816164E-02  0.1186339E+00
        -11   -1    0    0    0    0  0.00000000000E+00  0.00000000000E+00  0.45593999997E+02  0.45594000000E+02  0.51100000000E-03 0.  1.
         11   -1    0    0    0    0 -0.00000000000E+00 -0.00000000000E+00 -0.45593999997E+02  0.45594000000E+02  0.51100000000E-03 0. -1.
    9900012    2    1    2    0    0  0.75865223988E+00  0.45666028508E+00 -0.78021715897E+00  0.90007817534E+02  0.90000079926E+02 0.  0.
        -12    1    1    2    0    0 -0.75865223988E+00 -0.45666028508E+00  0.78021715897E+00  0.11801824656E+01  0.00000000000E+00 0.  1.
         11    1    3    3    0    0 -0.89770562360E+01  0.16514134252E+01  0.59800784544E+01  0.10912197008E+02  0.51100000000E-03 0. -1.
        -11    1    3    3    0    0  0.15422276404E+02 -0.36943826534E+02  0.64739196115E+01  0.40553724414E+02  0.51100000000E-03 0.  1.
         12    1    3    3    0    0 -0.56865679283E+01  0.35749073394E+02 -0.13234215225E+02  0.38541896112E+02  0.00000000000E+00 0. -1.
</event>
<event>
 7    1  0.2497665E-015  0.9000757E+02  0.7816164E-02  0.1186339E+00
        -11   -1    0    0    0    0  0.00000000000E+00  0.00000000000E+00  0.45593999997E+02  0.45594000000E+02  0.51100000000E-03 0.  1.
         11   -1    0    0    0    0 -0.00000000000E+00 -0.00000000000E+00 -0.45593999997E+02  0.45594000000E+02  0.51100000000E-03 0. -1.
    9900012    2    1    2    0    0  0.77218759220E-01 -0.11701174574E+01  0.13517768700E+00  0.90007571854E+02  0.89999831002E+02 0.  0.
        -12    1    1    2    0    0 -0.77218759220E-01  0.11701174574E+01 -0.13517768700E+00  0.11804281460E+01  0.00000000000E+00 0.  1.
         11    1    3    3    0    0 -0.14178124549E+02  0.16374527470E+02  0.25328241661E+02  0.33326628865E+02  0.51100000000E-03 0. -1.
        -11    1    3    3    0    0  0.82950215075E+01  0.73727087207E+01  0.87652638760E+01  0.14141925851E+02  0.51100000000E-03 0.  1.
        -12    1    3    3    0    0  0.59603218009E+01 -0.24917353648E+02 -0.33958327850E+02  0.42539017139E+02  0.00000000000E+00 0.  1.
</event>
<event>
 7    1  0.2497665E-015  0.9000782E+02  0.7816164E-02  0.1186339E+00
        -11   -1    0    0    0    0  0.00000000000E+00  0.00000000000E+00  0.45593999997E+02  0.45594000000E+02  0.51100000000E-03 0. -1.
         11   -1    0    0    0    0 -0.00000000000E+00 -0.00000000000E+00 -0.45593999997E+02  0.45594000000E+02  0.51100000000E-03 0.  1.
    9900012    2    1    2    0    0 -0.10812648086E+01  0.39856269769E+00  0.25461504130E+00  0.90007824323E+02  0.90000086804E+02 0.  0.
        -12    1    1    2    0    0  0.10812648086E+01 -0.39856269769E+00 -0.25461504130E+00  0.11801756774E+01  0.00000000000E+00 0.  1.
         11    1    3    3    0    0  0.85063120982E+01 -0.14134675203E+01 -0.35665951512E+01  0.93314434670E+01  0.51100000000E-03 0. -1.
        -11    1    3    3    0    0  0.11007307025E+02 -0.83761575878E+01 -0.33840902111E+02  0.36558548655E+02  0.51100000000E-03 0.  1.
         12    1    3    3    0    0 -0.20594883931E+02  0.10188187806E+02  0.37662112303E+02  0.44117832200E+02  0.00000000000E+00 0. -1.
</event>
<event>
 7    1  0.2497665E-015  0.9000758E+02  0.7816164E-02  0.1186339E+00
        -11   -1    0    0    0    0  0.00000000000E+00  0.00000000000E+00  0.45593999997E+02  0.45594000000E+02  0.51100000000E-03 0. -1.
         11   -1    0    0    0    0 -0.00000000000E+00 -0.00000000000E+00 -0.45593999997E+02  0.45594000000E+02  0.51100000000E-03 0.  1.
    9900012    2    1    2    0    0  0.40509764477E+00  0.26788244470E+00  0.10758838109E+01  0.90007580125E+02  0.89999839383E+02 0.  0.
        -12    1    1    2    0    0 -0.40509764477E+00 -0.26788244470E+00 -0.10758838109E+01  0.11804198747E+01  0.00000000000E+00 0.  1.
         11    1    3    3    0    0  0.26217984127E+01 -0.13544750409E+02 -0.10292118816E+02  0.17212257277E+02  0.51100000000E-03 0. -1.
        -11    1    3    3    0    0 -0.35025976948E+02  0.89423826951E+00  0.13311523690E+02  0.37480866939E+02  0.51100000000E-03 0.  1.
         12    1    3    3    0    0  0.32809276180E+02  0.12918394585E+02 -0.19435210630E+01  0.35314455910E+02  0.00000000000E+00 0. -1.
</event>
<event>
 7    1  0.2497665E-015  0.9000772E+02  0.7816164E-02  0.1186339E+00
        -11   -1    0    0    0    0  0.00000000000E+00  0.00000000000E+00  0.45593999997E+02  0.45594000000E+02  0.51100000000E-03 0.  1.
         11   -1    0    0    0    0 -0.00000000000E+00 -0.00000000000E+00 -0.45593999997E+02  0.45594000000E+02  0.51100000000E-03 0. -1.
    9900012    2    1    2    0    0  0.74623649303E-01  0.11438486851E+01 -0.28123400209E+00  0.90007724156E+02  0.89999985315E+02 0.  0.
        -12    1    1    2    0    0 -0.74623649303E-01 -0.11438486851E+01  0.28123400209E+00  0.11802758438E+01  0.00000000000E+00 0.  1.
         11    1    3    3    0    0  0.71209545487E+01  0.49181469194E+01 -0.31151855294E+01  0.91978553994E+01  0.51100000000E-03 0. -1.
        -11    1    3    3    0    0 -0.41594108955E+02  0.50907879544E+01 -0.96857844291E+01  0.43009306458E+02  0.51100000000E-03 0.  1.
         12    1    3    3    0    0  0.34547778055E+02 -0.88650861886E+01  0.12519735956E+02  0.37800562299E+02  0.00000000000E+00 0. -1.
</event>
<event>
 7    1  0.2497665E-015  0.9000774E+02  0.7816164E-02  0.1186339E+00
        -11   -1    0    0    0    0  0.00000000000E+00  0.00000000000E+00  0.45593999997E+02  0.45594000000E+02  0.51100000000E-03 0.  1.
         11   -1    0    0    0    0 -0.00000000000E+00 -0.00000000000E+00 -0.45593999997E+02  0.45594000000E+02  0.51100000000E-03 0. -1.
    9900012    2    1    2    0    0 -0.55506462632E+00 -0.98128835336E+00  0.34926547997E+00  0.90007741576E+02  0.90000002965E+02 0.  0.
        -12    1    1    2    0    0  0.55506462632E+00  0.98128835336E+00 -0.34926547997E+00  0.11802584240E+01  0.00000000000E+00 0.  1.
         11    1    3    3    0    0  0.83319126160E+01  0.86653865524E+00 -0.20763994804E+01  0.86303587495E+01  0.51100000000E-03 0. -1.
        -11    1    3    3    0    0  0.10994701945E+02  0.23119314849E+02  0.29830784361E+02  0.39309819203E+02  0.51100000000E-03 0.  1.
         12    1    3    3    0    0 -0.19881679188E+02 -0.24967141857E+02 -0.27405119400E+02  0.42067563623E+02  0.00000000000E+00 0. -1.
</event>
<event>
 7    1  0.2497665E-015  0.9000768E+02  0.7816164E-02  0.1186339E+00
        -11   -1    0    0    0    0  0.00000000000E+00  0.00000000000E+00  0.45593999997E+02  0.45594000000E+02  0.51100000000E-03 0. -1.
         11   -1    0    0    0    0 -0.00000000000E+00 -0.00000000000E+00 -0.45593999997E+02  0.45594000000E+02  0.51100000000E-03 0.  1.
    9900012    2    1    2    0    0  0.72305608296E+00  0.74518484845E+00 -0.56128238064E+00  0.90007682895E+02  0.89999943509E+02 0.  0.
        -12    1    1    2    0    0 -0.72305608296E+00 -0.74518484845E+00  0.56128238064E+00  0.11803171050E+01  0.00000000000E+00 0.  1.
         11    1    3    3    0    0  0.40818020058E+01 -0.28929891785E+02  0.28949857123E+02  0.41130207561E+02  0.51100000000E-03 0. -1.
        -11    1    3    3    0    0 -0.50963373123E+01  0.83368470266E+01  0.27574487912E+01  0.10152792544E+02  0.51100000000E-03 0.  1.
        -12    1    3    3    0    0  0.17375913894E+01  0.21338229607E+02 -0.32268588295E+02  0.38724682790E+02  0.00000000000E+00 0.  1.
</event>
<event>
 7    1  0.2497665E-015  0.9000770E+02  0.7816164E-02  0.1186339E+00
        -11   -1    0    0    0    0  0.00000000000E+00  0.00000000000E+00  0.45593999997E+02  0.45594000000E+02  0.51100000000E-03 0.  1.
         11   -1    0    0    0    0 -0.00000000000E+00 -0.00000000000E+00 -0.45593999997E+02  0.45594000000E+02  0.51100000000E-03 0. -1.
    9900012    2    1    2    0    0 -0.48815839416E+00  0.40110776870E+00 -0.99696185671E+00  0.90007695377E+02  0.89999956156E+02 0.  0.
        -12    1    1    2    0    0  0.48815839416E+00 -0.40110776870E+00  0.99696185671E+00  0.11803046232E+01  0.00000000000E+00 0.  1.
         11    1    3    3    0    0 -0.31825016264E+01  0.58781783950E+01  0.11952258687E+02  0.13694443612E+02  0.51100000000E-03 0. -1.
        -11    1    3    3    0    0  0.95189872169E+01  0.22818382510E+02  0.20396059051E+02  0.32051348225E+02  0.51100000000E-03 0.  1.
         12    1    3    3    0    0 -0.68246439846E+01 -0.28295453136E+02 -0.33345279595E+02  0.44261903540E+02  0.00000000000E+00 0. -1.
</event>
<event>
 7    1  0.2497665E-015  0.9000772E+02  0.7816164E-02  0.1186339E+00
        -11   -1    0    0    0    0  0.00000000000E+00  0.00000000000E+00  0.45593999997E+02  0.45594000000E+02  0.51100000000E-03 0.  1.
         11   -1    0    0    0    0 -0.00000000000E+00 -0.00000000000E+00 -0.45593999997E+02  0.45594000000E+02  0.51100000000E-03 0. -1.
    9900012    2    1    2    0    0  0.37977383629E+00 -0.25620305403E+00 -0.10877468112E+01  0.90007719823E+02  0.89999980924E+02 0.  0.
        -12    1    1    2    0    0 -0.37977383629E+00  0.25620305403E+00  0.10877468112E+01  0.11802801773E+01  0.00000000000E+00 0.  1.
         11    1    3    3    0    0  0.14218407167E+02 -0.32036475957E+02 -0.10860105569E+02  0.36693879426E+02  0.51100000000E-03 0. -1.
        -11    1    3    3    0    0 -0.10295782555E+02 -0.69486550672E+01 -0.22160436526E+01  0.12617360873E+02  0.51100000000E-03 0.  1.
        -12    1    3    3    0    0 -0.35428507761E+01  0.38728927970E+02  0.11988402410E+02  0.40696479524E+02  0.00000000000E+00 0.  1.
</event>
<event>
 7    1  0.2497665E-015  0.9000770E+02  0.7816164E-02  0.1186339E+00
        -11   -1    0    0    0    0  0.00000000000E+00  0.00000000000E+00  0.45593999997E+02  0.45594000000E+02  0.51100000000E-03 0.  1.
         11   -1    0    0    0    0 -0.00000000000E+00 -0.00000000000E+00 -0.45593999997E+02  0.45594000000E+02  0.51100000000E-03 0. -1.
    9900012    2    1    2    0    0 -0.61710234353E+00  0.91099691797E+00 -0.42707029158E+00  0.90007695073E+02  0.89999955848E+02 0.  0.
        -12    1    1    2    0    0  0.61710234353E+00 -0.91099691797E+00  0.42707029158E+00  0.11803049271E+01  0.00000000000E+00 0.  1.
         11    1    3    3    0    0 -0.19037065794E+02 -0.14363683792E+02 -0.25500989373E+02  0.34914549193E+02  0.51100000000E-03 0. -1.
        -11    1    3    3    0    0 -0.31935093783E+01 -0.21073162483E+01 -0.98082557592E+01  0.10528113089E+02  0.51100000000E-03 0.  1.
        -12    1    3    3    0    0  0.21613472829E+02  0.17381996959E+02  0.34882174841E+02  0.44565032790E+02  0.00000000000E+00 0.  1.
</event>
<event>
 7    1  0.2497665E-015  0.9000775E+02  0.7816164E-02  0.1186339E+00
        -11   -1    0    0    0    0  0.00000000000E+00  0.00000000000E+00  0.45593999997E+02  0.45594000000E+02  0.51100000000E-03 0. -1.
         11   -1    0    0    0    0 -0.00000000000E+00 -0.00000000000E+00 -0.45593999997E+02  0.45594000000E+02  0.51100000000E-03 0.  1.
    9900012    2    1    2    0    0 -0.71869826956E-01  0.66093635012E+00  0.97518315019E+00  0.90007752438E+02  0.90000013970E+02 0.  0.
        -12    1    1    2    0    0  0.71869826956E-01 -0.66093635012E+00 -0.97518315019E+00  0.11802475619E+01  0.00000000000E+00 0.  1.
         11    1    3    3    0    0  0.51359964133E+01 -0.94557970159E+00 -0.10778404524E+02  0.11976918823E+02  0.51100000000E-03 0. -1.
        -11    1    3    3    0    0  0.32215953626E+01 -0.34484751158E+02 -0.86836419855E+01  0.35706895378E+02  0.51100000000E-03 0.  1.
         12    1    3    3    0    0 -0.84294616028E+01  0.36091267210E+02  0.20437229660E+02  0.42323938238E+02  0.00000000000E+00 0. -1.
</event>
<event>
 7    1  0.2497665E-015  0.9000773E+02  0.7816164E-02  0.1186339E+00
        -11   -1    0    0    0    0  0.00000000000E+00  0.00000000000E+00  0.45593999997E+02  0.45594000000E+02  0.51100000000E-03 0. -1.
         11   -1    0    0    0    0 -0.00000000000E+00 -0.00000000000E+00 -0.45593999997E+02  0.45594000000E+02  0.51100000000E-03 0.  1.
    9900012    2    1    2    0    0  0.77748741578E+00  0.71521860069E+00  0.52631816921E+00  0.90007730902E+02  0.89999992150E+02 0.  0.
        -12    1    1    2    0    0 -0.77748741578E+00 -0.71521860069E+00 -0.52631816921E+00  0.11802690980E+01  0.00000000000E+00 0.  1.
         11    1    3    3    0    0  0.64092734875E+00 -0.35799251905E+01 -0.47114317183E+01  0.59518267224E+01  0.51100000000E-03 0. -1.
        -11    1    3    3    0    0 -0.30952301001E+02 -0.22884908255E+02 -0.10441212625E+02  0.39884619648E+02  0.51100000000E-03 0.  1.
         12    1    3    3    0    0  0.31088861068E+02  0.27180052046E+02  0.15678962512E+02  0.44171284532E+02  0.00000000000E+00 0. -1.
</event>
<event>
 7    1  0.2497665E-015  0.9000805E+02  0.7816164E-02  0.1186338E+00
        -11   -1    0    0    0    0  0.00000000000E+00  0.00000000000E+00  0.45593999997E+02  0.45594000000E+02  0.51100000000E-03 0.  1.
         11   -1    0    0    0    0 -0.00000000000E+00 -0.00000000000E+00 -0.45593999997E+02  0.45594000000E+02  0.51100000000E-03 0. -1.
    9900012    2    1    2    0    0 -0.46401937244E+00  0.84777136914E+00 -0.67694215838E+00  0.90008050443E+02  0.90000315908E+02 0.  0.
        -12    1    1    2    0    0  0.46401937244E+00 -0.84777136914E+00  0.67694215838E+00  0.11799495574E+01  0.00000000000E+00 0.  1.
         11    1    3    3    0    0 -0.40630623862E+01  0.16866988322E+02 -0.36665448656E+02  0.40563023758E+02  0.51100000000E-03 0. -1.
        -11    1    3    3    0    0 -0.69259538375E+01 -0.31302443290E+01 -0.20957168512E+01  0.78841166595E+01  0.51100000000E-03 0.  1.
        -12    1    3    3    0    0  0.10524996851E+02 -0.12888972623E+02  0.38084223349E+02  0.41560910025E+02  0.00000000000E+00 0.  1.
</event>
<event>
 7    1  0.2497665E-015  0.9000756E+02  0.7816164E-02  0.1186339E+00
        -11   -1    0    0    0    0  0.00000000000E+00  0.00000000000E+00  0.45593999997E+02  0.45594000000E+02  0.51100000000E-03 0. -1.
         11   -1    0    0    0    0 -0.00000000000E+00 -0.00000000000E+00 -0.45593999997E+02  0.45594000000E+02  0.51100000000E-03 0.  1.
    9900012    2    1    2    0    0  0.96316250751E+00 -0.62864853500E+00  0.26564479050E+00  0.90007555952E+02  0.89999814890E+02 0.  0.
        -12    1    1    2    0    0 -0.96316250751E+00  0.62864853500E+00 -0.26564479050E+00  0.11804440483E+01  0.00000000000E+00 0.  1.
         11    1    3    3    0    0  0.31667843140E+01  0.60146629851E+01 -0.86544065397E+01  0.11004701110E+02  0.51100000000E-03 0. -1.
        -11    1    3    3    0    0  0.35884500516E+02 -0.99035838352E+01 -0.64877266802E+01  0.37787153211E+02  0.51100000000E-03 0.  1.
         12    1    3    3    0    0 -0.38088122323E+02  0.32602723152E+01  0.15407778010E+02  0.41215701630E+02  0.00000000000E+00 0. -1.
</event>
<event>
 7    1  0.2497665E-015  0.9000785E+02  0.7816164E-02  0.1186339E+00
        -11   -1    0    0    0    0  0.00000000000E+00  0.00000000000E+00  0.45593999997E+02  0.45594000000E+02  0.51100000000E-03 0. -1.
         11   -1    0    0    0    0 -0.00000000000E+00 -0.00000000000E+00 -0.45593999997E+02  0.45594000000E+02  0.51100000000E-03 0.  1.
    9900012    2    1    2    0    0 -0.29273864268E+00 -0.53159344636E+00  0.10121558710E+01  0.90007852970E+02  0.90000115829E+02 0.  0.
        -12    1    1    2    0    0  0.29273864268E+00  0.53159344636E+00 -0.10121558710E+01  0.11801470300E+01  0.00000000000E+00 0.  1.
         11    1    3    3    0    0 -0.12073806769E+02 -0.27103262625E+01  0.13481851655E+02  0.18299808815E+02  0.51100000000E-03 0. -1.
        -11    1    3    3    0    0 -0.25211626470E+02  0.12098644077E+02  0.68796259721E+01  0.28798134515E+02  0.51100000000E-03 0.  1.
        -12    1    3    3    0    0  0.36992694596E+02 -0.99199112612E+01 -0.19349321756E+02  0.42909909640E+02  0.00000000000E+00 0.  1.
</event>
<event>
 7    1  0.2497665E-015  0.9000769E+02  0.7816164E-02  0.1186339E+00
        -11   -1    0    0    0    0  0.00000000000E+00  0.00000000000E+00  0.45593999997E+02  0.45594000000E+02  0.51100000000E-03 0.  1.
         11   -1    0    0    0    0 -0.00000000000E+00 -0.00000000000E+00 -0.45593999997E+02  0.45594000000E+02  0.51100000000E-03 0. -1.
    9900012    2    1    2    0    0 -0.72803840105E+00 -0.90036008318E+00 -0.22903110106E+00  0.90007685026E+02  0.89999945668E+02 0.  0.
        -12    1    1    2    0    0  0.72803840105E+00  0.90036008318E+00  0.22903110106E+00  0.11803149741E+01  0.00000000000E+00 0.  1.
         11    1    3    3    0    0  0.53846467256E+01 -0.36343365889E+01 -0.77833557162E+01  0.10138217263E+02  0.51100000000E-03 0. -1.
        -11    1    3    3    0    0  0.33507542456E+02  0.12894416641E+02 -0.67618516382E+01  0.36534148681E+02  0.51100000000E-03 0.  1.
         12    1    3    3    0    0 -0.39620227583E+02 -0.10160440135E+02  0.14316176253E+02  0.43335319083E+02  0.00000000000E+00 0. -1.
</event>
<event>
 7    1  0.2497665E-015  0.9000780E+02  0.7816164E-02  0.1186339E+00
        -11   -1    0    0    0    0  0.00000000000E+00  0.00000000000E+00  0.45593999997E+02  0.45594000000E+02  0.51100000000E-03 0.  1.
         11   -1    0    0    0    0 -0.00000000000E+00 -0.00000000000E+00 -0.45593999997E+02  0.45594000000E+02  0.51100000000E-03 0. -1.
    9900012    2    1    2    0    0 -0.41851250504E+00  0.47356464296E+00 -0.99672683182E+00  0.90007796388E+02  0.90000058501E+02 0.  0.
        -12    1    1    2    0    0  0.41851250504E+00 -0.47356464296E+00  0.99672683182E+00  0.11802036118E+01  0.00000000000E+00 0.  1.
         11    1    3    3    0    0 -0.37721894165E-01  0.12156598059E+02 -0.86419345166E+01  0.14915338808E+02  0.51100000000E-03 0. -1.
        -11    1    3    3    0    0 -0.22107207089E+01  0.26528347949E+02  0.21692679414E+02  0.34339669063E+02  0.51100000000E-03 0.  1.
         12    1    3    3    0    0  0.18299300981E+01 -0.38211381365E+02 -0.14047471729E+02  0.40752788517E+02  0.00000000000E+00 0. -1.
</event>
<event>
 7    1  0.2497665E-015  0.9000779E+02  0.7816164E-02  0.1186339E+00
        -11   -1    0    0    0    0  0.00000000000E+00  0.00000000000E+00  0.45593999997E+02  0.45594000000E+02  0.51100000000E-03 0. -1.
         11   -1    0    0    0    0 -0.00000000000E+00 -0.00000000000E+00 -0.45593999997E+02  0.45594000000E+02  0.51100000000E-03 0.  1.
    9900012    2    1    2    0    0  0.14547865554E+00 -0.58387872058E+00  0.10152905852E+01  0.90007790963E+02  0.90000053003E+02 0.  0.
        -12    1    1    2    0    0 -0.14547865554E+00  0.58387872058E+00 -0.10152905852E+01  0.11802090374E+01  0.00000000000E+00 0.  1.
         11    1    3    3    0    0 -0.82317097295E+01 -0.49576724430E+01  0.37130922905E+02  0.38354204426E+02  0.51100000000E-03 0. -1.
        -11    1    3    3    0    0 -0.19069636776E+01  0.97536461298E+01  0.33726379802E+01  0.10494989781E+02  0.51100000000E-03 0.  1.
        -12    1    3    3    0    0  0.10284152063E+02 -0.53798524074E+01 -0.39488270300E+02  0.41158596755E+02  0.00000000000E+00 0.  1.
</event>
<event>
 7    1  0.2497665E-015  0.9000751E+02  0.7816164E-02  0.1186339E+00
        -11   -1    0    0    0    0  0.00000000000E+00  0.00000000000E+00  0.45593999997E+02  0.45594000000E+02  0.51100000000E-03 0.  1.
         11   -1    0    0    0    0 -0.00000000000E+00 -0.00000000000E+00 -0.45593999997E+02  0.45594000000E+02  0.51100000000E-03 0. -1.
    9900012    2    1    2    0    0 -0.21521791493E+00  0.11148194623E+01 -0.32312057709E+00  0.90007513621E+02  0.89999772000E+02 0.  0.
        -12    1    1    2    0    0  0.21521791493E+00 -0.11148194623E+01  0.32312057709E+00  0.11804863793E+01  0.00000000000E+00 0.  1.
         11    1    3    3    0    0  0.20567084896E+02 -0.56366915171E+01 -0.29140725151E+02  0.36110374340E+02  0.51100000000E-03 0. -1.
        -11    1    3    3    0    0 -0.28398869079E+01  0.12708296872E+02 -0.59540044276E+01  0.14318377563E+02  0.51100000000E-03 0.  1.
        -12    1    3    3    0    0 -0.17942415903E+02 -0.59567858926E+01  0.34771609002E+02  0.39578761718E+02  0.00000000000E+00 0.  1.
</event>
<event>
 7    1  0.2497665E-015  0.9000774E+02  0.7816164E-02  0.1186339E+00
        -11   -1    0    0    0    0  0.00000000000E+00  0.00000000000E+00  0.45593999997E+02  0.45594000000E+02  0.51100000000E-03 0. -1.
         11   -1    0    0    0    0 -0.00000000000E+00 -0.00000000000E+00 -0.45593999997E+02  0.45594000000E+02  0.51100000000E-03 0.  1.
    9900012    2    1    2    0    0  0.67816620480E+00  0.57458782600E+00  0.77649828697E+00  0.90007741486E+02  0.90000002873E+02 0.  0.
        -12    1    1    2    0    0 -0.67816620480E+00 -0.57458782600E+00 -0.77649828697E+00  0.11802585144E+01  0.00000000000E+00 0.  1.
         11    1    3    3    0    0 -0.29576073280E+02  0.28745286634E+02  0.57468090219E+00  0.41247616570E+02  0.51100000000E-03 0. -1.
        -11    1    3    3    0    0  0.25598221229E+01  0.16835526805E+01 -0.67838045065E+01  0.74435907177E+01  0.51100000000E-03 0.  1.
        -12    1    3    3    0    0  0.27694417362E+02 -0.29854251488E+02  0.69856218912E+01  0.41316534198E+02  0.00000000000E+00 0.  1.
</event>
<event>
 7    1  0.2497665E-015  0.9000765E+02  0.7816164E-02  0.1186339E+00
        -11   -1    0    0    0    0  0.00000000000E+00  0.00000000000E+00  0.45593999997E+02  0.45594000000E+02  0.51100000000E-03 0.  1.
         11   -1    0    0    0    0 -0.00000000000E+00 -0.00000000000E+00 -0.45593999997E+02  0.45594000000E+02  0.51100000000E-03 0. -1.
    9900012    2    1    2    0    0 -0.46332491662E+00 -0.42232669186E+00 -0.10000942523E+01  0.90007653302E+02  0.89999913526E+02 0.  0.
        -12    1    1    2    0    0  0.46332491662E+00  0.42232669186E+00  0.10000942523E+01  0.11803466975E+01  0.00000000000E+00 0.  1.
         11    1    3    3    0    0 -0.47790916118E+01 -0.56115696433E+01  0.59258279630E+01  0.94575296882E+01  0.51100000000E-03 0. -1.
        -11    1    3    3    0    0 -0.69286654978E+01 -0.38579746532E+01  0.35167879415E+02  0.36050937808E+02  0.51100000000E-03 0.  1.
         12    1    3    3    0    0  0.11244432193E+02  0.90472176046E+01 -0.42093801630E+02  0.44499185806E+02  0.00000000000E+00 0. -1.
</event>
<event>
 7    1  0.2497665E-015  0.9000774E+02  0.7816164E-02  0.1186339E+00
        -11   -1    0    0    0    0  0.00000000000E+00  0.00000000000E+00  0.45593999997E+02  0.45594000000E+02  0.51100000000E-03 0.  1.
         11   -1    0    0    0    0 -0.00000000000E+00 -0.00000000000E+00 -0.45593999997E+02  0.45594000000E+02  0.51100000000E-03 0. -1.
    9900012    2    1    2    0    0  0.37840040520E+00 -0.54002719765E+00 -0.97887039525E+00  0.90007744311E+02  0.90000005736E+02 0.  0.
        -12    1    1    2    0    0 -0.37840040520E+00  0.54002719765E+00  0.97887039525E+00  0.11802556891E+01  0.00000000000E+00 0.  1.
         11    1    3    3    0    0  0.34771352789E+02 -0.20408295011E+02 -0.10131368991E+02  0.41571506082E+02  0.51100000000E-03 0. -1.
        -11    1    3    3    0    0 -0.15412623953E+01  0.62236710044E+01 -0.68915437287E+01  0.94129137767E+01  0.51100000000E-03 0.  1.
        -12    1    3    3    0    0 -0.32851689988E+02  0.13644596809E+02  0.16044042325E+02  0.39023324452E+02  0.00000000000E+00 0.  1.
</event>
<event>
 7    1  0.2497665E-015  0.9000776E+02  0.7816164E-02  0.1186339E+00
        -11   -1    0    0    0    0  0.00000000000E+00  0.00000000000E+00  0.45593999997E+02  0.45594000000E+02  0.51100000000E-03 0. -1.
         11   -1    0    0    0    0 -0.00000000000E+00 -0.00000000000E+00 -0.45593999997E+02  0.45594000000E+02  0.51100000000E-03 0.  1.
    9900012    2    1    2    0    0 -0.68181434024E+00 -0.86959645533E+00  0.41461657081E+00  0.90007756089E+02  0.90000017669E+02 0.  0.
        -12    1    1    2    0    0  0.68181434024E+00  0.86959645533E+00 -0.41461657081E+00  0.11802439114E+01  0.00000000000E+00 0.  1.
         11    1    3    3    0    0  0.24354917967E+02 -0.13275180734E+02  0.21335021684E+02  0.34993936664E+02  0.51100000000E-03 0. -1.
        -11    1    3    3    0    0  0.41307729831E+01 -0.11115656668E+02  0.47101985529E+00  0.11867728029E+02  0.51100000000E-03 0.  1.
        -12    1    3    3    0    0 -0.29167505291E+02  0.23521240947E+02 -0.21391424969E+02  0.43146091396E+02  0.00000000000E+00 0.  1.
</event>
<event>
 7    1  0.2497665E-015  0.9000778E+02  0.7816164E-02  0.1186339E+00
        -11   -1    0    0    0    0  0.00000000000E+00  0.00000000000E+00  0.45593999997E+02  0.45594000000E+02  0.51100000000E-03 0. -1.
         11   -1    0    0    0    0 -0.00000000000E+00 -0.00000000000E+00 -0.45593999997E+02  0.45594000000E+02  0.51100000000E-03 0.  1.
    9900012    2    1    2    0    0 -0.88543838934E+00  0.72473506456E-01 -0.77695892086E+00  0.90007780226E+02  0.90000042125E+02 0.  0.
        -12    1    1    2    0    0  0.88543838934E+00 -0.72473506456E-01  0.77695892086E+00  0.11802197741E+01  0.00000000000E+00 0.  1.
         11    1    3    3    0    0 -0.11145152076E+01  0.41185589622E+01  0.46064391464E+01  0.62788497309E+01  0.51100000000E-03 0. -1.
        -11    1    3    3    0    0  0.16021363911E+01  0.39527535770E+02 -0.66513239171E+01  0.40115246917E+02  0.51100000000E-03 0.  1.
         12    1    3    3    0    0 -0.13730595729E+01 -0.43573621226E+02  0.12679258499E+01  0.43613683578E+02  0.00000000000E+00 0. -1.
</event>
<event>
 7    1  0.2497665E-015  0.9000776E+02  0.7816164E-02  0.1186339E+00
        -11   -1    0    0    0    0  0.00000000000E+00  0.00000000000E+00  0.45593999997E+02  0.45594000000E+02  0.51100000000E-03 0. -1.
         11   -1    0    0    0    0 -0.00000000000E+00 -0.00000000000E+00 -0.45593999997E+02  0.45594000000E+02  0.51100000000E-03 0.  1.
    9900012    2    1    2    0    0 -0.32185522884E+00 -0.10857484213E+01  0.33246933613E+00  0.90007755838E+02  0.90000017415E+02 0.  0.
        -12    1    1    2    0    0  0.32185522884E+00  0.10857484213E+01 -0.33246933613E+00  0.11802441621E+01  0.00000000000E+00 0.  1.
         11    1    3    3    0    0 -0.17831383959E+02 -0.17021769101E+02 -0.89870964055E+01  0.26238650485E+02  0.51100000000E-03 0. -1.
        -11    1    3    3    0    0 -0.12604586653E+02  0.25413836651E+02  0.14365698438E+02  0.31797987198E+02  0.51100000000E-03 0.  1.
        -12    1    3    3    0    0  0.30114115383E+02 -0.94778159706E+01 -0.50461326963E+01  0.31971118154E+02  0.00000000000E+00 0.  1.
</event>
<event>
 7    1  0.2541120E-015  0.9000771E+02  0.7816164E-02  0.1186339E+00
        -11   -1    0    0    0    0  0.00000000000E+00  0.00000000000E+00  0.45593999997E+02  0.45594000000E+02  0.51100000000E-03 0.  1.
         11   -1    0    0    0    0 -0.00000000000E+00 -0.00000000000E+00 -0.45593999997E+02  0.45594000000E+02  0.51100000000E-03 0. -1.
    9900012    2    1    2    0    0  0.75350358987E+00  0.57590413508E+00 -0.70260166660E+00  0.90007710911E+02  0.89999971895E+02 0.  0.
        -12    1    1    2    0    0 -0.75350358987E+00 -0.57590413508E+00  0.70260166660E+00  0.11802890894E+01  0.00000000000E+00 0.  1.
         11    1    3    3    0    0 -0.18028084414E+02  0.25833199618E+02 -0.29434244492E+02  0.43113116093E+02  0.51100000000E-03 0. -1.
        -11    1    3    3    0    0 -0.40232235957E+01 -0.46471802242E+01  0.65922639836E+01  0.90133543605E+01  0.51100000000E-03 0.  1.
        -12    1    3    3    0    0  0.22804811600E+02 -0.20610115258E+02  0.22139378842E+02  0.37881240457E+02  0.00000000000E+00 0.  1.
</event>
<event>
 7    1  0.2497665E-015  0.9000798E+02  0.7816164E-02  0.1186339E+00
        -11   -1    0    0    0    0  0.00000000000E+00  0.00000000000E+00  0.45593999997E+02  0.45594000000E+02  0.51100000000E-03 0. -1.
         11   -1    0    0    0    0 -0.00000000000E+00 -0.00000000000E+00 -0.45593999997E+02  0.45594000000E+02  0.51100000000E-03 0.  1.
    9900012    2    1    2    0    0 -0.40652706655E+00  0.94763469486E+00  0.57372748248E+00  0.90007983477E+02  0.90000248058E+02 0.  0.
        -12    1    1    2    0    0  0.40652706655E+00 -0.94763469486E+00 -0.57372748248E+00  0.11800165231E+01  0.00000000000E+00 0.  1.
         11    1    3    3    0    0  0.61013753699E+01 -0.44877007526E+01  0.45489435202E+01  0.88351076315E+01  0.51100000000E-03 0. -1.
        -11    1    3    3    0    0 -0.17343507451E+01 -0.51769567979E+01 -0.41514206991E+02  0.41871687768E+02  0.51100000000E-03 0.  1.
         12    1    3    3    0    0 -0.47735516914E+01  0.10612292245E+02  0.37538990954E+02  0.39301188077E+02  0.00000000000E+00 0. -1.
</event>
<event>
 7    1  0.2497665E-015  0.9000774E+02  0.7816164E-02  0.1186339E+00
        -11   -1    0    0    0    0  0.00000000000E+00  0.00000000000E+00  0.45593999997E+02  0.45594000000E+02  0.51100000000E-03 0.  1.
         11   -1    0    0    0    0 -0.00000000000E+00 -0.00000000000E+00 -0.45593999997E+02  0.45594000000E+02  0.51100000000E-03 0. -1.
    9900012    2    1    2    0    0  0.27999184007E+00  0.11323623854E+01  0.17995181709E+00  0.90007736191E+02  0.89999997509E+02 0.  0.
        -12    1    1    2    0    0 -0.27999184007E+00 -0.11323623854E+01 -0.17995181709E+00  0.11802638090E+01  0.00000000000E+00 0.  1.
         11    1    3    3    0    0 -0.27932954240E+02  0.20960605303E+02  0.24420850175E+02  0.42614256191E+02  0.51100000000E-03 0. -1.
        -11    1    3    3    0    0  0.70837496851E+01 -0.46814917031E+01  0.36703534424E+01  0.92502631758E+01  0.51100000000E-03 0.  1.
        -12    1    3    3    0    0  0.21129196395E+02 -0.15146751214E+02 -0.27911251800E+02  0.38143216824E+02  0.00000000000E+00 0.  1.
</event>
<event>
 7    1  0.2497665E-015  0.9000781E+02  0.7816164E-02  0.1186339E+00
        -11   -1    0    0    0    0  0.00000000000E+00  0.00000000000E+00  0.45593999997E+02  0.45594000000E+02  0.51100000000E-03 0. -1.
         11   -1    0    0    0    0 -0.00000000000E+00 -0.00000000000E+00 -0.45593999997E+02  0.45594000000E+02  0.51100000000E-03 0.  1.
    9900012    2    1    2    0    0 -0.12761767878E+00 -0.23919777140E+00  0.11486290658E+01  0.90007809093E+02  0.90000071373E+02 0.  0.
        -12    1    1    2    0    0  0.12761767878E+00  0.23919777140E+00 -0.11486290658E+01  0.11801909068E+01  0.00000000000E+00 0.  1.
         11    1    3    3    0    0 -0.21730698613E+01 -0.37047542977E+02  0.55730627073E+01  0.37527346049E+02  0.51100000000E-03 0. -1.
        -11    1    3    3    0    0  0.40941424746E+01 -0.62273505603E+01  0.41805717053E+01  0.85451201073E+01  0.51100000000E-03 0.  1.
        -12    1    3    3    0    0 -0.20486902921E+01  0.43035695766E+02 -0.86050053469E+01  0.43935342937E+02  0.00000000000E+00 0.  1.
</event>
<event>
 7    1  0.2497665E-015  0.9000777E+02  0.7816164E-02  0.1186339E+00
        -11   -1    0    0    0    0  0.00000000000E+00  0.00000000000E+00  0.45593999997E+02  0.45594000000E+02  0.51100000000E-03 0. -1.
         11   -1    0    0    0    0 -0.00000000000E+00 -0.00000000000E+00 -0.45593999997E+02  0.45594000000E+02  0.51100000000E-03 0.  1.
    9900012    2    1    2    0    0 -0.11393312783E+01 -0.30647776178E+00 -0.30682860116E-01  0.90007768744E+02  0.90000030491E+02 0.  0.
        -12    1    1    2    0    0  0.11393312783E+01  0.30647776178E+00  0.30682860116E-01  0.11802312562E+01  0.00000000000E+00 0.  1.
         11    1    3    3    0    0 -0.36640937502E+02  0.69876324741E+01  0.23489086007E+01  0.37375161278E+02  0.51100000000E-03 0. -1.
        -11    1    3    3    0    0 -0.44996775436E+01 -0.21153101444E+01  0.93816222023E+01  0.10617743188E+02  0.51100000000E-03 0.  1.
        -12    1    3    3    0    0  0.40001283768E+02 -0.51788000915E+01 -0.11761213663E+02  0.42014864278E+02  0.00000000000E+00 0.  1.
</event>
<event>
 7    1  0.2497665E-015  0.9000774E+02  0.7816164E-02  0.1186339E+00
        -11   -1    0    0    0    0  0.00000000000E+00  0.00000000000E+00  0.45593999997E+02  0.45594000000E+02  0.51100000000E-03 0.  1.
         11   -1    0    0    0    0 -0.00000000000E+00 -0.00000000000E+00 -0.45593999997E+02  0.45594000000E+02  0.51100000000E-03 0. -1.
    9900012    2    1    2    0    0 -0.53510829600E+00  0.13856341591E+00 -0.10428189284E+01  0.90007740695E+02  0.90000002073E+02 0.  0.
        -12    1    1    2    0    0  0.53510829600E+00 -0.13856341591E+00  0.10428189284E+01  0.11802593046E+01  0.00000000000E+00 0.  1.
         11    1    3    3    0    0  0.38473202514E+02 -0.39954890776E+01  0.13787439794E+02  0.41063910445E+02  0.51100000000E-03 0. -1.
        -11    1    3    3    0    0 -0.12543190959E+01  0.77135371132E+01 -0.63849240036E+01  0.10091542300E+02  0.51100000000E-03 0.  1.
        -12    1    3    3    0    0 -0.37753991715E+02 -0.35794846196E+01 -0.84453347189E+01  0.38852287951E+02  0.00000000000E+00 0.  1.
</event>
<event>
 7    1  0.2497665E-015  0.9000776E+02  0.7816164E-02  0.1186339E+00
        -11   -1    0    0    0    0  0.00000000000E+00  0.00000000000E+00  0.45593999997E+02  0.45594000000E+02  0.51100000000E-03 0. -1.
         11   -1    0    0    0    0 -0.00000000000E+00 -0.00000000000E+00 -0.45593999997E+02  0.45594000000E+02  0.51100000000E-03 0.  1.
    9900012    2    1    2    0    0  0.10491029925E+01  0.49630110121E+00 -0.21453570250E+00  0.90007763820E+02  0.90000025503E+02 0.  0.
        -12    1    1    2    0    0 -0.10491029925E+01 -0.49630110121E+00  0.21453570250E+00  0.11802361796E+01  0.00000000000E+00 0.  1.
         11    1    3    3    0    0  0.16396353404E+01  0.63761698253E+01  0.67532203563E+01  0.94313271141E+01  0.51100000000E-03 0. -1.
        -11    1    3    3    0    0 -0.10078623031E+02  0.35926130965E+02 -0.51705099268E+01  0.37669612442E+02  0.51100000000E-03 0.  1.
         12    1    3    3    0    0  0.94880906831E+01 -0.41805999689E+02 -0.17972461320E+01  0.42906824265E+02  0.00000000000E+00 0. -1.
</event>
<event>
 7    1  0.2497665E-015  0.9000770E+02  0.7816164E-02  0.1186339E+00
        -11   -1    0    0    0    0  0.00000000000E+00  0.00000000000E+00  0.45593999997E+02  0.45594000000E+02  0.51100000000E-03 0.  1.
         11   -1    0    0    0    0 -0.00000000000E+00 -0.00000000000E+00 -0.45593999997E+02  0.45594000000E+02  0.51100000000E-03 0. -1.
    9900012    2    1    2    0    0 -0.66143705001E+00 -0.26800097021E+00 -0.94010368610E+00  0.90007695619E+02  0.89999956401E+02 0.  0.
        -12    1    1    2    0    0  0.66143705001E+00  0.26800097021E+00  0.94010368610E+00  0.11803043810E+01  0.00000000000E+00 0.  1.
         11    1    3    3    0    0 -0.33831667294E+02 -0.63422797379E+01 -0.12717356450E+02  0.36695195591E+02  0.51100000000E-03 0. -1.
        -11    1    3    3    0    0 -0.38671590369E+01  0.36148228154E+01 -0.92455061960E+01  0.10653696452E+02  0.51100000000E-03 0.  1.
        -12    1    3    3    0    0  0.37037389280E+02  0.24594559523E+01  0.21022758959E+02  0.42658803576E+02  0.00000000000E+00 0.  1.
</event>
<event>
 7    1  0.2497665E-015  0.9000769E+02  0.7816164E-02  0.1186339E+00
        -11   -1    0    0    0    0  0.00000000000E+00  0.00000000000E+00  0.45593999997E+02  0.45594000000E+02  0.51100000000E-03 0.  1.
         11   -1    0    0    0    0 -0.00000000000E+00 -0.00000000000E+00 -0.45593999997E+02  0.45594000000E+02  0.51100000000E-03 0. -1.
    9900012    2    1    2    0    0  0.38644177142E+00  0.10725973218E+01 -0.30550241820E+00  0.90007689030E+02  0.89999949726E+02 0.  0.
        -12    1    1    2    0    0 -0.38644177142E+00 -0.10725973218E+01  0.30550241820E+00  0.11803109696E+01  0.00000000000E+00 0.  1.
         11    1    3    3    0    0 -0.24640037222E+02  0.58357276731E+01 -0.19099910588E+02  0.31717404315E+02  0.51100000000E-03 0. -1.
        -11    1    3    3    0    0 -0.21044289847E+01 -0.24496202508E+01 -0.14741992146E+02  0.15091573590E+02  0.51100000000E-03 0.  1.
        -12    1    3    3    0    0  0.27130907978E+02 -0.23135101004E+01  0.33536400316E+02  0.43198711125E+02  0.00000000000E+00 0.  1.
</event>
<event>
 7    1  0.2497665E-015  0.9000768E+02  0.7816164E-02  0.1186339E+00
        -11   -1    0    0    0    0  0.00000000000E+00  0.00000000000E+00  0.45593999997E+02  0.45594000000E+02  0.51100000000E-03 0. -1.
         11   -1    0    0    0    0 -0.00000000000E+00 -0.00000000000E+00 -0.45593999997E+02  0.45594000000E+02  0.51100000000E-03 0.  1.
    9900012    2    1    2    0    0  0.44920440735E-01 -0.71575997032E+00  0.93745046158E+00  0.90007684979E+02  0.89999945621E+02 0.  0.
        -12    1    1    2    0    0 -0.44920440735E-01  0.71575997032E+00 -0.93745046158E+00  0.11803150211E+01  0.00000000000E+00 0.  1.
         11    1    3    3    0    0 -0.10597175582E+02  0.15863505007E+01 -0.29442418848E+01  0.11112389426E+02  0.51100000000E-03 0. -1.
        -11    1    3    3    0    0 -0.60182525722E+01 -0.31484696842E+02 -0.19898493292E+02  0.37728709689E+02  0.51100000000E-03 0.  1.
         12    1    3    3    0    0  0.16660348595E+02  0.29182586371E+02  0.23780185638E+02  0.41166585863E+02  0.00000000000E+00 0. -1.
</event>
<event>
 7    1  0.2497665E-015  0.9000776E+02  0.7816164E-02  0.1186339E+00
        -11   -1    0    0    0    0  0.00000000000E+00  0.00000000000E+00  0.45593999997E+02  0.45594000000E+02  0.51100000000E-03 0.  1.
         11   -1    0    0    0    0 -0.00000000000E+00 -0.00000000000E+00 -0.45593999997E+02  0.45594000000E+02  0.51100000000E-03 0. -1.
    9900012    2    1    2    0    0  0.76636629699E+00 -0.89439500061E+00 -0.75491627200E-01  0.90007763285E+02  0.90000024960E+02 0.  0.
        -12    1    1    2    0    0 -0.76636629699E+00  0.89439500061E+00  0.75491627200E-01  0.11802367153E+01  0.00000000000E+00 0.  1.
         11    1    3    3    0    0 -0.45244876058E+01  0.45013392816E+01 -0.85465495568E+01  0.10666609256E+02  0.51100000000E-03 0. -1.
        -11    1    3    3    0    0 -0.29961602177E+02  0.15427688666E+02  0.16649921710E+02  0.37588975455E+02  0.51100000000E-03 0.  1.
         12    1    3    3    0    0  0.35252456080E+02 -0.20823422948E+02 -0.81788637808E+01  0.41752178574E+02  0.00000000000E+00 0. -1.
</event>
<event>
 7    1  0.2497665E-015  0.9000776E+02  0.7816164E-02  0.1186339E+00
        -11   -1    0    0    0    0  0.00000000000E+00  0.00000000000E+00  0.45593999997E+02  0.45594000000E+02  0.51100000000E-03 0. -1.
         11   -1    0    0    0    0 -0.00000000000E+00 -0.00000000000E+00 -0.45593999997E+02  0.45594000000E+02  0.51100000000E-03 0.  1.
    9900012    2    1    2    0    0  0.10933728481E+01  0.15074803961E+00  0.41806026913E+00  0.90007761234E+02  0.90000022882E+02 0.  0.
        -12    1    1    2    0    0 -0.10933728481E+01 -0.15074803961E+00 -0.41806026913E+00  0.11802387661E+01  0.00000000000E+00 0.  1.
         11    1    3    3    0    0  0.11679977495E+02  0.11405453062E+02  0.40517405382E+02  0.43682563718E+02  0.51100000000E-03 0. -1.
        -11    1    3    3    0    0  0.39120295409E+01 -0.53913120477E+01 -0.67111166708E+01  0.94556495258E+01  0.51100000000E-03 0.  1.
        -12    1    3    3    0    0 -0.14498634188E+02 -0.58633929744E+01 -0.33388228442E+02  0.36869547990E+02  0.00000000000E+00 0.  1.
</event>
<event>
 7    1  0.2497665E-015  0.9000768E+02  0.7816164E-02  0.1186339E+00
        -11   -1    0    0    0    0  0.00000000000E+00  0.00000000000E+00  0.45593999997E+02  0.45594000000E+02  0.51100000000E-03 0.  1.
         11   -1    0    0    0    0 -0.00000000000E+00 -0.00000000000E+00 -0.45593999997E+02  0.45594000000E+02  0.51100000000E-03 0. -1.
    9900012    2    1    2    0    0 -0.28000846938E+00 -0.45870112870E+00 -0.10508724526E+01  0.90007684627E+02  0.89999945264E+02 0.  0.
        -12    1    1    2    0    0  0.28000846938E+00  0.45870112870E+00  0.10508724526E+01  0.11803153732E+01  0.00000000000E+00 0.  1.
         11    1    3    3    0    0 -0.71786026469E+01 -0.38317449780E+02  0.89140851072E+01  0.39990251402E+02  0.51100000000E-03 0. -1.
        -11    1    3    3    0    0  0.93059379916E+01 -0.80389619079E+00  0.18420738312E+01  0.95205024684E+01  0.51100000000E-03 0.  1.
        -12    1    3    3    0    0 -0.24073438141E+01  0.38662644842E+02 -0.11807031391E+02  0.40496930757E+02  0.00000000000E+00 0.  1.
</event>
<event>
 7    1  0.2497665E-015  0.9000777E+02  0.7816164E-02  0.1186339E+00
        -11   -1    0    0    0    0  0.00000000000E+00  0.00000000000E+00  0.45593999997E+02  0.45594000000E+02  0.51100000000E-03 0. -1.
         11   -1    0    0    0    0 -0.00000000000E+00 -0.00000000000E+00 -0.45593999997E+02  0.45594000000E+02  0.51100000000E-03 0.  1.
    9900012    2    1    2    0    0  0.12387538264E+00  0.10683678018E+01  0.48598539281E+00  0.90007772618E+02  0.90000034417E+02 0.  0.
        -12    1    1    2    0    0 -0.12387538264E+00 -0.10683678018E+01 -0.48598539281E+00  0.11802273816E+01  0.00000000000E+00 0.  1.
         11    1    3    3    0    0 -0.36058171390E+02 -0.83781535568E+00 -0.27675401128E+01  0.36173926205E+02  0.51100000000E-03 0. -1.
        -11    1    3    3    0    0 -0.66904952354E+01  0.10653114531E+01 -0.70027981631E+01  0.97435515785E+01  0.51100000000E-03 0.  1.
        -12    1    3    3    0    0  0.42872542008E+02  0.84087170432E+00  0.10256323669E+02  0.44090294835E+02  0.00000000000E+00 0.  1.
</event>
<event>
 7    1  0.2497665E-015  0.9000773E+02  0.7816164E-02  0.1186339E+00
        -11   -1    0    0    0    0  0.00000000000E+00  0.00000000000E+00  0.45593999997E+02  0.45594000000E+02  0.51100000000E-03 0. -1.
         11   -1    0    0    0    0 -0.00000000000E+00 -0.00000000000E+00 -0.45593999997E+02  0.45594000000E+02  0.51100000000E-03 0.  1.
    9900012    2    1    2    0    0  0.93631884107E+00 -0.10606534097E+00  0.71070283691E+00  0.90007728272E+02  0.89999989486E+02 0.  0.
        -12    1    1    2    0    0 -0.93631884107E+00  0.10606534097E+00 -0.71070283691E+00  0.11802717276E+01  0.00000000000E+00 0.  1.
         11    1    3    3    0    0 -0.21129823183E+02  0.32672873216E+02 -0.59687549518E-01  0.38910019723E+02  0.51100000000E-03 0. -1.
        -11    1    3    3    0    0  0.77090093545E+01  0.31874707310E+01  0.81639614367E+01  0.11672148966E+02  0.51100000000E-03 0.  1.
        -12    1    3    3    0    0  0.14357132670E+02 -0.35966409288E+02 -0.73935710503E+01  0.39425559583E+02  0.00000000000E+00 0.  1.
</event>
<event>
 7    1  0.2497665E-015  0.9000801E+02  0.7816164E-02  0.1186339E+00
        -11   -1    0    0    0    0  0.00000000000E+00  0.00000000000E+00  0.45593999997E+02  0.45594000000E+02  0.51100000000E-03 0.  1.
         11   -1    0    0    0    0 -0.00000000000E+00 -0.00000000000E+00 -0.45593999997E+02  0.45594000000E+02  0.51100000000E-03 0. -1.
    9900012    2    1    2    0    0 -0.65015971842E+00  0.82551032038E+00  0.53684668070E+00  0.90008008768E+02  0.90000273684E+02 0.  0.
        -12    1    1    2    0    0  0.65015971842E+00 -0.82551032038E+00 -0.53684668070E+00  0.11799912318E+01  0.00000000000E+00 0.  1.
         11    1    3    3    0    0 -0.64588326277E+01  0.95669412278E+01 -0.39046454178E+02  0.40716930968E+02  0.51100000000E-03 0. -1.
        -11    1    3    3    0    0  0.96764573783E+01  0.21833631464E+00  0.12788860983E+01  0.97630450196E+01  0.51100000000E-03 0.  1.
        -12    1    3    3    0    0 -0.38677844690E+01 -0.89597672221E+01  0.38304414760E+02  0.39528032780E+02  0.00000000000E+00 0.  1.
</event>
<event>
 7    1  0.2497665E-015  0.9000770E+02  0.7816164E-02  0.1186339E+00
        -11   -1    0    0    0    0  0.00000000000E+00  0.00000000000E+00  0.45593999997E+02  0.45594000000E+02  0.51100000000E-03 0. -1.
         11   -1    0    0    0    0 -0.00000000000E+00 -0.00000000000E+00 -0.45593999997E+02  0.45594000000E+02  0.51100000000E-03 0.  1.
    9900012    2    1    2    0    0 -0.98480861623E+00  0.50942259634E+00  0.40466872346E+00  0.90007696578E+02  0.89999957373E+02 0.  0.
        -12    1    1    2    0    0  0.98480861623E+00 -0.50942259634E+00 -0.40466872346E+00  0.11803034220E+01  0.00000000000E+00 0.  1.
         11    1    3    3    0    0  0.94776355518E+01 -0.17844422056E+01 -0.89005207388E+00  0.96851433956E+01  0.51100000000E-03 0. -1.
        -11    1    3    3    0    0 -0.14536461778E+02 -0.29383291246E+02 -0.23125475629E+02  0.40118252066E+02  0.51100000000E-03 0.  1.
         12    1    3    3    0    0  0.40740176101E+01  0.31677156048E+02  0.24420196426E+02  0.40204301117E+02  0.00000000000E+00 0. -1.
</event>
<event>
 7    1  0.2497665E-015  0.9000782E+02  0.7816164E-02  0.1186339E+00
        -11   -1    0    0    0    0  0.00000000000E+00  0.00000000000E+00  0.45593999997E+02  0.45594000000E+02  0.51100000000E-03 0. -1.
         11   -1    0    0    0    0 -0.00000000000E+00 -0.00000000000E+00 -0.45593999997E+02  0.45594000000E+02  0.51100000000E-03 0.  1.
    9900012    2    1    2    0    0  0.11270657324E+00  0.87581667951E+00  0.78299199135E+00  0.90007816079E+02  0.90000078452E+02 0.  0.
        -12    1    1    2    0    0 -0.11270657324E+00 -0.87581667951E+00 -0.78299199135E+00  0.11801839205E+01  0.00000000000E+00 0.  1.
         11    1    3    3    0    0  0.33333132166E+01  0.72999953747E+01 -0.68745008059E+01  0.10566913980E+02  0.51100000000E-03 0. -1.
        -11    1    3    3    0    0  0.16061709345E+02 -0.11938341663E+02 -0.30415433056E+02  0.36408804938E+02  0.51100000000E-03 0.  1.
         12    1    3    3    0    0 -0.19282315988E+02  0.55141629676E+01  0.38072925853E+02  0.43032097162E+02  0.00000000000E+00 0. -1.
</event>
<event>
 7    1  0.2497665E-015  0.9000773E+02  0.7816164E-02  0.1186339E+00
        -11   -1    0    0    0    0  0.00000000000E+00  0.00000000000E+00  0.45593999997E+02  0.45594000000E+02  0.51100000000E-03 0.  1.
         11   -1    0    0    0    0 -0.00000000000E+00 -0.00000000000E+00 -0.45593999997E+02  0.45594000000E+02  0.51100000000E-03 0. -1.
    9900012    2    1    2    0    0 -0.99994237858E+00  0.45601422649E+00 -0.43036378643E+00  0.90007725996E+02  0.89999987179E+02 0.  0.
        -12    1    1    2    0    0  0.99994237858E+00 -0.45601422649E+00  0.43036378643E+00  0.11802740037E+01  0.00000000000E+00 0.  1.
         11    1    3    3    0    0  0.27117774852E+02 -0.30692721863E+01 -0.21972906779E+02  0.35037162802E+02  0.51100000000E-03 0. -1.
        -11    1    3    3    0    0  0.56198609313E+01 -0.64373738769E+01 -0.58750380594E+01  0.10370086392E+02  0.51100000000E-03 0.  1.
        -12    1    3    3    0    0 -0.33737578162E+02  0.99626602896E+01  0.27417581052E+02  0.44600476802E+02  0.00000000000E+00 0.  1.
</event>
<event>
 7    1  0.2497665E-015  0.9000779E+02  0.7816164E-02  0.1186339E+00
        -11   -1    0    0    0    0  0.00000000000E+00  0.00000000000E+00  0.45593999997E+02  0.45594000000E+02  0.51100000000E-03 0.  1.
         11   -1    0    0    0    0 -0.00000000000E+00 -0.00000000000E+00 -0.45593999997E+02  0.45594000000E+02  0.51100000000E-03 0. -1.
    9900012    2    1    2    0    0  0.96473922406E+00 -0.57139691186E+00  0.36833541922E+00  0.90007793585E+02  0.90000055660E+02 0.  0.
        -12    1    1    2    0    0 -0.96473922406E+00  0.57139691186E+00 -0.36833541922E+00  0.11802064152E+01  0.00000000000E+00 0.  1.
         11    1    3    3    0    0 -0.28269093798E+02  0.33783130169E+01 -0.21022890748E+02  0.35390911243E+02  0.51100000000E-03 0. -1.
        -11    1    3    3    0    0  0.28876881235E+01 -0.17900939296E+02  0.36514228002E+00  0.18136033181E+02  0.51100000000E-03 0.  1.
        -12    1    3    3    0    0  0.26346144898E+02  0.13951229367E+02  0.21026083887E+02  0.36480849161E+02  0.00000000000E+00 0.  1.
</event>
<event>
 7    1  0.2497665E-015  0.9000779E+02  0.7816164E-02  0.1186339E+00
        -11   -1    0    0    0    0  0.00000000000E+00  0.00000000000E+00  0.45593999997E+02  0.45594000000E+02  0.51100000000E-03 0.  1.
         11   -1    0    0    0    0 -0.00000000000E+00 -0.00000000000E+00 -0.45593999997E+02  0.45594000000E+02  0.51100000000E-03 0. -1.
    9900012    2    1    2    0    0  0.41331490260E+00  0.10995022879E+01  0.11470230097E+00  0.90007791922E+02  0.90000053975E+02 0.  0.
        -12    1    1    2    0    0 -0.41331490260E+00 -0.10995022879E+01 -0.11470230097E+00  0.11802080781E+01  0.00000000000E+00 0.  1.
         11    1    3    3    0    0 -0.78650956946E+01  0.48377651507E+01 -0.39473044993E+02  0.40538685021E+02  0.51100000000E-03 0. -1.
        -11    1    3    3    0    0  0.78334185050E+01 -0.55635364512E+01 -0.22630344372E+00  0.96107542279E+01  0.51100000000E-03 0.  1.
        -12    1    3    3    0    0  0.44499209218E+00  0.18252735883E+01  0.39814050738E+02  0.39858352673E+02  0.00000000000E+00 0.  1.
</event>
<event>
 7    1  0.2497665E-015  0.9000760E+02  0.7816164E-02  0.1186339E+00
        -11   -1    0    0    0    0  0.00000000000E+00  0.00000000000E+00  0.45593999997E+02  0.45594000000E+02  0.51100000000E-03 0.  1.
         11   -1    0    0    0    0 -0.00000000000E+00 -0.00000000000E+00 -0.45593999997E+02  0.45594000000E+02  0.51100000000E-03 0. -1.
    9900012    2    1    2    0    0  0.11798988393E+01  0.87673920446E-02  0.33322783144E-01  0.90007598142E+02  0.89999857638E+02 0.  0.
        -12    1    1    2    0    0 -0.11798988393E+01 -0.87673920446E-02 -0.33322783144E-01  0.11804018578E+01  0.00000000000E+00 0.  1.
         11    1    3    3    0    0 -0.16863944778E+02  0.41142486018E+00  0.23495328846E+02  0.28923906751E+02  0.51100000000E-03 0.  1.
        -11    1    3    3    0    0  0.80241187677E+01  0.24463543865E+02 -0.44539760520E+00  0.25749754168E+02  0.51100000000E-03 0. -1.
         12    1    3    3    0    0  0.10019724849E+02 -0.24866201333E+02 -0.23016608458E+02  0.35333937223E+02  0.00000000000E+00 0. -1.
</event>
<event>
 7    1  0.2497665E-015  0.9000775E+02  0.7816164E-02  0.1186339E+00
        -11   -1    0    0    0    0  0.00000000000E+00  0.00000000000E+00  0.45593999997E+02  0.45594000000E+02  0.51100000000E-03 0. -1.
         11   -1    0    0    0    0 -0.00000000000E+00 -0.00000000000E+00 -0.45593999997E+02  0.45594000000E+02  0.51100000000E-03 0.  1.
    9900012    2    1    2    0    0 -0.43655406437E+00  0.59409204992E+00  0.92166034637E+00  0.90007753158E+02  0.90000014699E+02 0.  0.
        -12    1    1    2    0    0  0.43655406437E+00 -0.59409204992E+00 -0.92166034637E+00  0.11802468424E+01  0.00000000000E+00 0.  1.
         11    1    3    3    0    0  0.32698641401E+01 -0.52865014101E+01  0.75259679686E+01  0.97611117594E+01  0.51100000000E-03 0. -1.
        -11    1    3    3    0    0 -0.30010776670E+02 -0.25123760420E+02 -0.57859568079E+00  0.39143132568E+02  0.51100000000E-03 0.  1.
         12    1    3    3    0    0  0.26304358466E+02  0.31004353880E+02 -0.60257119414E+01  0.41103508831E+02  0.00000000000E+00 0. -1.
</event>
<event>
 7    1  0.2497665E-015  0.9000774E+02  0.7816164E-02  0.1186339E+00
        -11   -1    0    0    0    0  0.00000000000E+00  0.00000000000E+00  0.45593999997E+02  0.45594000000E+02  0.51100000000E-03 0.  1.
         11   -1    0    0    0    0 -0.00000000000E+00 -0.00000000000E+00 -0.45593999997E+02  0.45594000000E+02  0.51100000000E-03 0. -1.
    9900012    2    1    2    0    0  0.60932151600E+00 -0.96125457937E+00  0.31262582361E+00  0.90007738172E+02  0.89999999516E+02 0.  0.
        -12    1    1    2    0    0 -0.60932151600E+00  0.96125457937E+00 -0.31262582361E+00  0.11802618276E+01  0.00000000000E+00 0.  1.
         11    1    3    3    0    0 -0.29553874642E+01  0.28864901132E+01  0.99583349884E+01  0.10781214043E+02  0.51100000000E-03 0. -1.
        -11    1    3    3    0    0 -0.82077074094E+01  0.34004531698E+02  0.79229237782E+01  0.35867079033E+02  0.51100000000E-03 0.  1.
         12    1    3    3    0    0  0.11772416390E+02 -0.37852276390E+02 -0.17568632943E+02  0.43359445096E+02  0.00000000000E+00 0. -1.
</event>
<event>
 7    1  0.2497665E-015  0.9000775E+02  0.7816164E-02  0.1186339E+00
        -11   -1    0    0    0    0  0.00000000000E+00  0.00000000000E+00  0.45593999997E+02  0.45594000000E+02  0.51100000000E-03 0.  1.
         11   -1    0    0    0    0 -0.00000000000E+00 -0.00000000000E+00 -0.45593999997E+02  0.45594000000E+02  0.51100000000E-03 0. -1.
    9900012    2    1    2    0    0  0.62267216887E+00 -0.57498731546E+00 -0.82138114619E+00  0.90007746625E+02  0.90000008080E+02 0.  0.
        -12    1    1    2    0    0 -0.62267216887E+00  0.57498731546E+00  0.82138114619E+00  0.11802533754E+01  0.00000000000E+00 0.  1.
         11    1    3    3    0    0  0.79155008168E+01  0.42656753920E+01  0.75002132961E+01  0.11709156224E+02  0.51100000000E-03 0. -1.
        -11    1    3    3    0    0  0.29670639074E+02 -0.16357777096E+02  0.10195922016E+02  0.35381923642E+02  0.51100000000E-03 0.  1.
         12    1    3    3    0    0 -0.36963467722E+02  0.11517114389E+02 -0.18517516459E+02  0.42916666759E+02  0.00000000000E+00 0. -1.
</event>
<event>
 7    1  0.2497665E-015  0.9000770E+02  0.7816164E-02  0.1186339E+00
        -11   -1    0    0    0    0  0.00000000000E+00  0.00000000000E+00  0.45593999997E+02  0.45594000000E+02  0.51100000000E-03 0. -1.
         11   -1    0    0    0    0 -0.00000000000E+00 -0.00000000000E+00 -0.45593999997E+02  0.45594000000E+02  0.51100000000E-03 0.  1.
    9900012    2    1    2    0    0 -0.10621539362E+01  0.12167509750E+00 -0.50012817134E+00  0.90007701732E+02  0.89999962595E+02 0.  0.
        -12    1    1    2    0    0  0.10621539362E+01 -0.12167509750E+00  0.50012817134E+00  0.11802982679E+01  0.00000000000E+00 0.  1.
         11    1    3    3    0    0 -0.47807244975E+01  0.12557864365E+01 -0.91987060039E+01  0.10442629875E+02  0.51100000000E-03 0. -1.
        -11    1    3    3    0    0  0.31206676926E+02  0.25408873390E+02 -0.56522068089E+00  0.40246577574E+02  0.51100000000E-03 0.  1.
         12    1    3    3    0    0 -0.27488106364E+02 -0.26542984729E+02  0.92637985135E+01  0.39318494284E+02  0.00000000000E+00 0. -1.
</event>
<event>
 7    1  0.2497665E-015  0.9000782E+02  0.7816164E-02  0.1186339E+00
        -11   -1    0    0    0    0  0.00000000000E+00  0.00000000000E+00  0.45593999997E+02  0.45594000000E+02  0.51100000000E-03 0. -1.
         11   -1    0    0    0    0 -0.00000000000E+00 -0.00000000000E+00 -0.45593999997E+02  0.45594000000E+02  0.51100000000E-03 0.  1.
    9900012    2    1    2    0    0  0.41774461636E+00 -0.11018544488E+01  0.65058770897E-01  0.90007819321E+02  0.90000081736E+02 0.  0.
        -12    1    1    2    0    0 -0.41774461636E+00  0.11018544488E+01 -0.65058770897E-01  0.11801806788E+01  0.00000000000E+00 0.  1.
         11    1    3    3    0    0  0.10467583486E+02  0.22672477739E+02  0.27394667407E+02  0.37068576361E+02  0.51100000000E-03 0. -1.
        -11    1    3    3    0    0  0.10278227600E+02 -0.10642807440E+01  0.21295563459E+01  0.10550339643E+02  0.51100000000E-03 0.  1.
        -12    1    3    3    0    0 -0.20328066469E+02 -0.22710051444E+02 -0.29459164982E+02  0.42388903317E+02  0.00000000000E+00 0.  1.
</event>
<event>
 7    1  0.2497665E-015  0.9000767E+02  0.7816164E-02  0.1186339E+00
        -11   -1    0    0    0    0  0.00000000000E+00  0.00000000000E+00  0.45593999997E+02  0.45594000000E+02  0.51100000000E-03 0. -1.
         11   -1    0    0    0    0 -0.00000000000E+00 -0.00000000000E+00 -0.45593999997E+02  0.45594000000E+02  0.51100000000E-03 0.  1.
    9900012    2    1    2    0    0 -0.57315364671E+00  0.10307081305E+01 -0.48138967604E-01  0.90007668812E+02  0.89999929240E+02 0.  0.
        -12    1    1    2    0    0  0.57315364671E+00 -0.10307081305E+01  0.48138967604E-01  0.11803311880E+01  0.00000000000E+00 0.  1.
         11    1    3    3    0    0 -0.37771235952E+01  0.14236001126E+02  0.35196586700E+02  0.38154031324E+02  0.51100000000E-03 0. -1.
        -11    1    3    3    0    0 -0.85403985813E+01 -0.16438878517E+01  0.37865887000E+01  0.94857276706E+01  0.51100000000E-03 0.  1.
        -12    1    3    3    0    0  0.11744368530E+02 -0.11561405144E+02 -0.39031314367E+02  0.42367909817E+02  0.00000000000E+00 0.  1.
</event>
<event>
 7    1  0.2497665E-015  0.9000774E+02  0.7816164E-02  0.1186339E+00
        -11   -1    0    0    0    0  0.00000000000E+00  0.00000000000E+00  0.45593999997E+02  0.45594000000E+02  0.51100000000E-03 0. -1.
         11   -1    0    0    0    0 -0.00000000000E+00 -0.00000000000E+00 -0.45593999997E+02  0.45594000000E+02  0.51100000000E-03 0.  1.
    9900012    2    1    2    0    0 -0.25522171761E+00  0.60740364686E+00  0.97925576598E+00  0.90007737669E+02  0.89999999006E+02 0.  0.
        -12    1    1    2    0    0  0.25522171761E+00 -0.60740364686E+00 -0.97925576598E+00  0.11802623312E+01  0.00000000000E+00 0.  1.
         11    1    3    3    0    0 -0.22853896723E+01  0.79422497783E+01 -0.31722802576E+01  0.88524403296E+01  0.51100000000E-03 0. -1.
        -11    1    3    3    0    0  0.39090469156E+01 -0.12442215324E+02 -0.37214104530E+02  0.39433221352E+02  0.51100000000E-03 0.  1.
         12    1    3    3    0    0 -0.18788789609E+01  0.51073691930E+01  0.41365640554E+02  0.41722075987E+02  0.00000000000E+00 0. -1.
</event>
<event>
 7    1  0.3680131E-015  0.9000811E+02  0.7816164E-02  0.1186338E+00
        -11   -1    0    0    0    0  0.00000000000E+00  0.00000000000E+00  0.45593999997E+02  0.45594000000E+02  0.51100000000E-03 0. -1.
         11   -1    0    0    0    0 -0.00000000000E+00 -0.00000000000E+00 -0.45593999997E+02  0.45594000000E+02  0.51100000000E-03 0.  1.
    9900012    2    1    2    0    0 -0.71591653922E+00  0.57373893030E+00  0.74190315544E+00  0.90008113080E+02  0.90000379372E+02 0.  0.
        -12    1    1    2    0    0  0.71591653922E+00 -0.57373893030E+00 -0.74190315544E+00  0.11798869197E+01  0.00000000000E+00 0.  1.
         11    1    3    3    0    0 -0.11382833297E+02  0.30334535431E+02  0.22875980851E+02  0.39661863721E+02  0.51100000000E-03 0. -1.
        -11    1    3    3    0    0 -0.25244046801E+01 -0.45555480766E+01  0.75881022936E+01  0.92035283422E+01  0.51100000000E-03 0.  1.
        -12    1    3    3    0    0  0.13191321438E+02 -0.25205248424E+02 -0.29722179989E+02  0.41142721017E+02  0.00000000000E+00 0.  1.
</event>
<event>
 7    1  0.2497665E-015  0.9000819E+02  0.7816164E-02  0.1186338E+00
        -11   -1    0    0    0    0  0.00000000000E+00  0.00000000000E+00  0.45593999997E+02  0.45594000000E+02  0.51100000000E-03 0.  1.
         11   -1    0    0    0    0 -0.00000000000E+00 -0.00000000000E+00 -0.45593999997E+02  0.45594000000E+02  0.51100000000E-03 0. -1.
    9900012    2    1    2    0    0  0.26590184699E+00  0.36498710579E+00 -0.10899662845E+01  0.90008192439E+02  0.90000459778E+02 0.  0.
        -12    1    1    2    0    0 -0.26590184699E+00 -0.36498710579E+00  0.10899662845E+01  0.11798075610E+01  0.00000000000E+00 0.  1.
         11    1    3    3    0    0  0.18494198219E+02 -0.40753047218E+01 -0.31143208754E+02  0.36449182818E+02  0.51100000000E-03 0. -1.
        -11    1    3    3    0    0  0.10593634728E+02 -0.12284334452E+01 -0.11240844243E+01  0.10723698594E+02  0.51100000000E-03 0.  1.
        -12    1    3    3    0    0 -0.28821931099E+02  0.56687252728E+01  0.31177326894E+02  0.42835311027E+02  0.00000000000E+00 0.  1.
</event>
<event>
 7    1  0.2497665E-015  0.9000773E+02  0.7816164E-02  0.1186339E+00
        -11   -1    0    0    0    0  0.00000000000E+00  0.00000000000E+00  0.45593999997E+02  0.45594000000E+02  0.51100000000E-03 0.  1.
         11   -1    0    0    0    0 -0.00000000000E+00 -0.00000000000E+00 -0.45593999997E+02  0.45594000000E+02  0.51100000000E-03 0. -1.
    9900012    2    1    2    0    0 -0.30569756108E+00  0.53181741890E+00 -0.10083439315E+01  0.90007729586E+02  0.89999990817E+02 0.  0.
        -12    1    1    2    0    0  0.30569756108E+00 -0.53181741890E+00  0.10083439315E+01  0.11802704140E+01  0.00000000000E+00 0.  1.
         11    1    3    3    0    0  0.18034968229E+02  0.23505172137E+02 -0.22565402242E+02  0.37241785334E+02  0.51100000000E-03 0. -1.
        -11    1    3    3    0    0  0.71817816491E+01 -0.22501277813E+01 -0.61908138737E+01  0.97451136149E+01  0.51100000000E-03 0.  1.
        -12    1    3    3    0    0 -0.25522447439E+02 -0.20723226937E+02  0.27747872185E+02  0.43020830637E+02  0.00000000000E+00 0.  1.
</event>
<event>
 7    1  0.2497665E-015  0.9000780E+02  0.7816164E-02  0.1186339E+00
        -11   -1    0    0    0    0  0.00000000000E+00  0.00000000000E+00  0.45593999997E+02  0.45594000000E+02  0.51100000000E-03 0. -1.
         11   -1    0    0    0    0 -0.00000000000E+00 -0.00000000000E+00 -0.45593999997E+02  0.45594000000E+02  0.51100000000E-03 0.  1.
    9900012    2    1    2    0    0  0.23734608867E+00 -0.11599274721E+00  0.11502560539E+01  0.90007798122E+02  0.90000060257E+02 0.  0.
        -12    1    1    2    0    0 -0.23734608867E+00  0.11599274721E+00 -0.11502560539E+01  0.11802018780E+01  0.00000000000E+00 0.  1.
         11    1    3    3    0    0  0.23598888128E+01 -0.72451067467E+01 -0.67738394461E+00  0.76498036739E+01  0.51100000000E-03 0. -1.
        -11    1    3    3    0    0  0.22386052293E+02  0.62556858328E+01 -0.32631196249E+02  0.40063248888E+02  0.51100000000E-03 0.  1.
         12    1    3    3    0    0 -0.24508595018E+02  0.87342816666E+00  0.34458836248E+02  0.42294745561E+02  0.00000000000E+00 0. -1.
</event>
<event>
 7    1  0.2497665E-015  0.9000772E+02  0.7816164E-02  0.1186339E+00
        -11   -1    0    0    0    0  0.00000000000E+00  0.00000000000E+00  0.45593999997E+02  0.45594000000E+02  0.51100000000E-03 0. -1.
         11   -1    0    0    0    0 -0.00000000000E+00 -0.00000000000E+00 -0.45593999997E+02  0.45594000000E+02  0.51100000000E-03 0.  1.
    9900012    2    1    2    0    0  0.67434317120E-01  0.96722513023E+00  0.67304297101E+00  0.90007720931E+02  0.89999982047E+02 0.  0.
        -12    1    1    2    0    0 -0.67434317120E-01 -0.96722513023E+00 -0.67304297101E+00  0.11802790689E+01  0.00000000000E+00 0.  1.
         11    1    3    3    0    0 -0.94149792098E+01  0.23364551622E+01  0.36296592559E+01  0.10357378183E+02  0.51100000000E-03 0. -1.
        -11    1    3    3    0    0 -0.25136022026E+02  0.94833841073E+01 -0.25414843951E+02  0.36982001983E+02  0.51100000000E-03 0.  1.
         12    1    3    3    0    0  0.34618435553E+02 -0.10852614139E+02  0.22458227666E+02  0.42668340765E+02  0.00000000000E+00 0. -1.
</event>
<event>
 7    1  0.2497665E-015  0.9000775E+02  0.7816164E-02  0.1186339E+00
        -11   -1    0    0    0    0  0.00000000000E+00  0.00000000000E+00  0.45593999997E+02  0.45594000000E+02  0.51100000000E-03 0.  1.
         11   -1    0    0    0    0 -0.00000000000E+00 -0.00000000000E+00 -0.45593999997E+02  0.45594000000E+02  0.51100000000E-03 0. -1.
    9900012    2    1    2    0    0  0.94043788305E+00  0.45615078495E+00  0.54817090986E+00  0.90007750748E+02  0.90000012258E+02 0.  0.
        -12    1    1    2    0    0 -0.94043788305E+00 -0.45615078495E+00 -0.54817090986E+00  0.11802492520E+01  0.00000000000E+00 0.  1.
         11    1    3    3    0    0 -0.58008350413E+01 -0.57270360636E+01  0.36038112665E+01  0.89126923629E+01  0.51100000000E-03 0. -1.
        -11    1    3    3    0    0 -0.94660358236E+01  0.84431098826E+01  0.36310999890E+02  0.38462717688E+02  0.51100000000E-03 0.  1.
         12    1    3    3    0    0  0.16207308748E+02 -0.22599230340E+01 -0.39366640247E+02  0.42632340697E+02  0.00000000000E+00 0. -1.
</event>
<event>
 7    1  0.2497665E-015  0.9000768E+02  0.7816164E-02  0.1186339E+00
        -11   -1    0    0    0    0  0.00000000000E+00  0.00000000000E+00  0.45593999997E+02  0.45594000000E+02  0.51100000000E-03 0.  1.
         11   -1    0    0    0    0 -0.00000000000E+00 -0.00000000000E+00 -0.45593999997E+02  0.45594000000E+02  0.51100000000E-03 0. -1.
    9900012    2    1    2    0    0 -0.26025278578E+00 -0.11437926963E+01  0.13099748388E+00  0.90007680727E+02  0.89999941313E+02 0.  0.
        -12    1    1    2    0    0  0.26025278578E+00  0.11437926963E+01 -0.13099748388E+00  0.11803192727E+01  0.00000000000E+00 0.  1.
         11    1    3    3    0    0  0.14190063606E+01 -0.15654193396E+01  0.89598617051E+01  0.92056090942E+01  0.51100000000E-03 0. -1.
        -11    1    3    3    0    0  0.26735345261E+02  0.19434234915E+01  0.24960155062E+02  0.36627379405E+02  0.51100000000E-03 0.  1.
         12    1    3    3    0    0 -0.28414604408E+02 -0.15217968482E+01 -0.33789019283E+02  0.44174692228E+02  0.00000000000E+00 0. -1.
</event>
<event>
 7    1  0.2497665E-015  0.9000775E+02  0.7816164E-02  0.1186339E+00
        -11   -1    0    0    0    0  0.00000000000E+00  0.00000000000E+00  0.45593999997E+02  0.45594000000E+02  0.51100000000E-03 0. -1.
         11   -1    0    0    0    0 -0.00000000000E+00 -0.00000000000E+00 -0.45593999997E+02  0.45594000000E+02  0.51100000000E-03 0.  1.
    9900012    2    1    2    0    0 -0.79279308662E+00  0.84748664919E+00 -0.21500765586E+00  0.90007753081E+02  0.90000014621E+02 0.  0.
        -12    1    1    2    0    0  0.79279308662E+00 -0.84748664919E+00  0.21500765586E+00  0.11802469194E+01  0.00000000000E+00 0.  1.
         11    1    3    3    0    0 -0.91816126182E+01  0.20479344545E+02  0.27617365133E+02  0.35586857411E+02  0.51100000000E-03 0. -1.
        -11    1    3    3    0    0 -0.46327910467E+01  0.54030596312E+00  0.91834623554E+01  0.10300032258E+02  0.51100000000E-03 0.  1.
        -12    1    3    3    0    0  0.13021610578E+02 -0.20172163859E+02 -0.37015835144E+02  0.44120863412E+02  0.00000000000E+00 0.  1.
</event>
<event>
 7    1  0.2497665E-015  0.9000770E+02  0.7816164E-02  0.1186339E+00
        -11   -1    0    0    0    0  0.00000000000E+00  0.00000000000E+00  0.45593999997E+02  0.45594000000E+02  0.51100000000E-03 0.  1.
         11   -1    0    0    0    0 -0.00000000000E+00 -0.00000000000E+00 -0.45593999997E+02  0.45594000000E+02  0.51100000000E-03 0. -1.
    9900012    2    1    2    0    0  0.67051360921E-01 -0.18832720824E+00 -0.11632456688E+01  0.90007701941E+02  0.89999962806E+02 0.  0.
        -12    1    1    2    0    0 -0.67051360921E-01  0.18832720824E+00  0.11632456688E+01  0.11802980591E+01  0.00000000000E+00 0.  1.
         11    1    3    3    0    0  0.95358031301E+00  0.33995338636E+02  0.19492618735E+02  0.39198910059E+02  0.51100000000E-03 0. -1.
        -11    1    3    3    0    0  0.76013618213E+01  0.22599950699E+01  0.27227701524E+00  0.79348859027E+01  0.51100000000E-03 0.  1.
        -12    1    3    3    0    0 -0.84878907734E+01 -0.36443660914E+02 -0.20928141420E+02  0.42873905979E+02  0.00000000000E+00 0.  1.
</event>
<event>
 7    1  0.2497665E-015  0.9000757E+02  0.7816164E-02  0.1186339E+00
        -11   -1    0    0    0    0  0.00000000000E+00  0.00000000000E+00  0.45593999997E+02  0.45594000000E+02  0.51100000000E-03 0.  1.
         11   -1    0    0    0    0 -0.00000000000E+00 -0.00000000000E+00 -0.45593999997E+02  0.45594000000E+02  0.51100000000E-03 0. -1.
    9900012    2    1    2    0    0  0.65698494331E+00  0.71968379451E+00 -0.66621029347E+00  0.90007572054E+02  0.89999831205E+02 0.  0.
        -12    1    1    2    0    0 -0.65698494331E+00 -0.71968379451E+00  0.66621029347E+00  0.11804279457E+01  0.00000000000E+00 0.  1.
         11    1    3    3    0    0 -0.29796082875E+02  0.13733687406E+02  0.18223873425E+02  0.37530391516E+02  0.51100000000E-03 0. -1.
        -11    1    3    3    0    0 -0.60103056888E+01 -0.54857425981E+01  0.36877038615E+01  0.89339972217E+01  0.51100000000E-03 0.  1.
        -12    1    3    3    0    0  0.36463373507E+02 -0.75282610131E+01 -0.22577787580E+02  0.43543183317E+02  0.00000000000E+00 0.  1.
</event>
<event>
 7    1  0.2497665E-015  0.9000781E+02  0.7816164E-02  0.1186339E+00
        -11   -1    0    0    0    0  0.00000000000E+00  0.00000000000E+00  0.45593999997E+02  0.45594000000E+02  0.51100000000E-03 0.  1.
         11   -1    0    0    0    0 -0.00000000000E+00 -0.00000000000E+00 -0.45593999997E+02  0.45594000000E+02  0.51100000000E-03 0. -1.
    9900012    2    1    2    0    0  0.94366089072E+00  0.41436951131E+00 -0.57501639248E+00  0.90007812803E+02  0.90000075132E+02 0.  0.
        -12    1    1    2    0    0 -0.94366089072E+00 -0.41436951131E+00  0.57501639248E+00  0.11801871971E+01  0.00000000000E+00 0.  1.
         11    1    3    3    0    0  0.16485996163E+02  0.70065462921E+01  0.19879456923E+01  0.18023087659E+02  0.51100000000E-03 0. -1.
        -11    1    3    3    0    0 -0.86920543518E+01  0.22938711598E+02  0.22013142701E+02  0.32959289290E+02  0.51100000000E-03 0.  1.
         12    1    3    3    0    0 -0.68502809210E+01 -0.29530888379E+02 -0.24576104785E+02  0.39025435854E+02  0.00000000000E+00 0. -1.
</event>
<event>
 7    1  0.2497665E-015  0.9000763E+02  0.7816164E-02  0.1186339E+00
        -11   -1    0    0    0    0  0.00000000000E+00  0.00000000000E+00  0.45593999997E+02  0.45594000000E+02  0.51100000000E-03 0. -1.
         11   -1    0    0    0    0 -0.00000000000E+00 -0.00000000000E+00 -0.45593999997E+02  0.45594000000E+02  0.51100000000E-03 0.  1.
    9900012    2    1    2    0    0 -0.96591724930E+00 -0.11597555868E+00  0.66845125332E+00  0.90007629914E+02  0.89999889828E+02 0.  0.
        -12    1    1    2    0    0  0.96591724930E+00  0.11597555868E+00 -0.66845125332E+00  0.11803700864E+01  0.00000000000E+00 0.  1.
         11    1    3    3    0    0  0.26123292135E+02 -0.24204430812E+02  0.14953782130E+02  0.38625075575E+02  0.51100000000E-03 0. -1.
        -11    1    3    3    0    0 -0.72751923867E+01  0.27666994023E-01  0.96487922667E+01  0.12084220380E+02  0.51100000000E-03 0.  1.
        -12    1    3    3    0    0 -0.19814016998E+02  0.24060788260E+02 -0.23934123143E+02  0.39298333958E+02  0.00000000000E+00 0.  1.
</event>
<event>
 7    1  0.2497665E-015  0.9000797E+02  0.7816164E-02  0.1186339E+00
        -11   -1    0    0    0    0  0.00000000000E+00  0.00000000000E+00  0.45593999997E+02  0.45594000000E+02  0.51100000000E-03 0.  1.
         11   -1    0    0    0    0 -0.00000000000E+00 -0.00000000000E+00 -0.45593999997E+02  0.45594000000E+02  0.51100000000E-03 0. -1.
    9900012    2    1    2    0    0 -0.80770619999E+00  0.30391436868E+00  0.80480895017E+00  0.90007970045E+02  0.90000234449E+02 0.  0.
        -12    1    1    2    0    0  0.80770619999E+00 -0.30391436868E+00 -0.80480895017E+00  0.11800299552E+01  0.00000000000E+00 0.  1.
         11    1    3    3    0    0  0.30430124292E+01  0.48378798379E+01  0.52085387112E+01  0.77326503695E+01  0.51100000000E-03 0. -1.
        -11    1    3    3    0    0 -0.16849032808E+02  0.29885508118E+02  0.18458795708E+02  0.38958447624E+02  0.51100000000E-03 0.  1.
         12    1    3    3    0    0  0.12998314179E+02 -0.34419473587E+02 -0.22862525469E+02  0.43316872051E+02  0.00000000000E+00 0. -1.
</event>
<event>
 7    1  0.2497665E-015  0.9000775E+02  0.7816164E-02  0.1186339E+00
        -11   -1    0    0    0    0  0.00000000000E+00  0.00000000000E+00  0.45593999997E+02  0.45594000000E+02  0.51100000000E-03 0.  1.
         11   -1    0    0    0    0 -0.00000000000E+00 -0.00000000000E+00 -0.45593999997E+02  0.45594000000E+02  0.51100000000E-03 0. -1.
    9900012    2    1    2    0    0 -0.98746817309E+00  0.36883906896E+00 -0.53089515072E+00  0.90007752012E+02  0.90000013539E+02 0.  0.
        -12    1    1    2    0    0  0.98746817309E+00 -0.36883906896E+00  0.53089515072E+00  0.11802479878E+01  0.00000000000E+00 0.  1.
         11    1    3    3    0    0 -0.30072582159E+02  0.18793892333E+02 -0.13545786137E+02  0.37961281710E+02  0.51100000000E-03 0. -1.
        -11    1    3    3    0    0 -0.75929631408E+01 -0.25529434042E+00  0.76205634101E+01  0.10760634340E+02  0.51100000000E-03 0.  1.
        -12    1    3    3    0    0  0.36678077127E+02 -0.18169758924E+02  0.53943275760E+01  0.41285835962E+02  0.00000000000E+00 0.  1.
</event>
<event>
 7    1  0.2497665E-015  0.9000773E+02  0.7816164E-02  0.1186339E+00
        -11   -1    0    0    0    0  0.00000000000E+00  0.00000000000E+00  0.45593999997E+02  0.45594000000E+02  0.51100000000E-03 0.  1.
         11   -1    0    0    0    0 -0.00000000000E+00 -0.00000000000E+00 -0.45593999997E+02  0.45594000000E+02  0.51100000000E-03 0. -1.
    9900012    2    1    2    0    0  0.73768533965E+00  0.81841444399E+00 -0.42313854101E+00  0.90007733891E+02  0.89999995179E+02 0.  0.
        -12    1    1    2    0    0 -0.73768533965E+00 -0.81841444399E+00  0.42313854101E+00  0.11802661087E+01  0.00000000000E+00 0.  1.
         11    1    3    3    0    0 -0.35624552018E+02  0.33667373756E+01 -0.18297466853E+02  0.40190059971E+02  0.51100000000E-03 0. -1.
        -11    1    3    3    0    0  0.47261558190E+01 -0.45816905791E+00 -0.77252426068E+01  0.90678465639E+01  0.51100000000E-03 0.  1.
        -12    1    3    3    0    0  0.31636081538E+02 -0.20901538737E+01  0.25599570919E+02  0.40749827356E+02  0.00000000000E+00 0.  1.
</event>
<event>
 7    1  0.2497665E-015  0.9000762E+02  0.7816164E-02  0.1186339E+00
        -11   -1    0    0    0    0  0.00000000000E+00  0.00000000000E+00  0.45593999997E+02  0.45594000000E+02  0.51100000000E-03 0.  1.
         11   -1    0    0    0    0 -0.00000000000E+00 -0.00000000000E+00 -0.45593999997E+02  0.45594000000E+02  0.51100000000E-03 0. -1.
    9900012    2    1    2    0    0  0.14101350275E+00  0.65930551562E+00 -0.96887676167E+00  0.90007622624E+02  0.89999882442E+02 0.  0.
        -12    1    1    2    0    0 -0.14101350275E+00 -0.65930551562E+00  0.96887676167E+00  0.11803773762E+01  0.00000000000E+00 0.  1.
         11    1    3    3    0    0 -0.16055614827E+02 -0.26689754724E+00 -0.68238753592E+01  0.17447615223E+02  0.51100000000E-03 0. -1.
        -11    1    3    3    0    0 -0.13288711335E+02  0.23820187601E+02  0.18712500552E+02  0.33077921087E+02  0.51100000000E-03 0.  1.
         12    1    3    3    0    0  0.29485339665E+02 -0.22893984538E+02 -0.12857501954E+02  0.39482086314E+02  0.00000000000E+00 0. -1.
</event>
<event>
 7    1  0.2497665E-015  0.9000772E+02  0.7816164E-02  0.1186339E+00
        -11   -1    0    0    0    0  0.00000000000E+00  0.00000000000E+00  0.45593999997E+02  0.45594000000E+02  0.51100000000E-03 0. -1.
         11   -1    0    0    0    0 -0.00000000000E+00 -0.00000000000E+00 -0.45593999997E+02  0.45594000000E+02  0.51100000000E-03 0.  1.
    9900012    2    1    2    0    0  0.11606309777E+00 -0.37948150321E+00 -0.11115653234E+01  0.90007722777E+02  0.89999983918E+02 0.  0.
        -12    1    1    2    0    0 -0.11606309777E+00  0.37948150321E+00  0.11115653234E+01  0.11802772226E+01  0.00000000000E+00 0.  1.
         11    1    3    3    0    0  0.15766549829E+02  0.34072145077E+02 -0.80651015788E+01  0.38399752960E+02  0.51100000000E-03 0. -1.
        -11    1    3    3    0    0 -0.53823307909E+01  0.19616995441E+01 -0.89023852302E+01  0.10586321972E+02  0.51100000000E-03 0.  1.
        -12    1    3    3    0    0 -0.10268155940E+02 -0.36413326124E+02  0.15855921486E+02  0.41021647846E+02  0.00000000000E+00 0.  1.
</event>
<event>
 7    1  0.2497665E-015  0.9000784E+02  0.7816164E-02  0.1186339E+00
        -11   -1    0    0    0    0  0.00000000000E+00  0.00000000000E+00  0.45593999997E+02  0.45594000000E+02  0.51100000000E-03 0. -1.
         11   -1    0    0    0    0 -0.00000000000E+00 -0.00000000000E+00 -0.45593999997E+02  0.45594000000E+02  0.51100000000E-03 0.  1.
    9900012    2    1    2    0    0 -0.31476035993E+00 -0.45064869780E+00  0.10443279441E+01  0.90007839338E+02  0.90000102017E+02 0.  0.
        -12    1    1    2    0    0  0.31476035993E+00  0.45064869780E+00 -0.10443279441E+01  0.11801606619E+01  0.00000000000E+00 0.  1.
         11    1    3    3    0    0 -0.11583671291E+02 -0.39199566383E+02 -0.72716763111E+01  0.41517041343E+02  0.51100000000E-03 0. -1.
        -11    1    3    3    0    0  0.99926455458E+01  0.11026733854E+01  0.84115202548E+00  0.10088428549E+02  0.51100000000E-03 0.  1.
        -12    1    3    3    0    0  0.12762653849E+01  0.37646244300E+02  0.74748522298E+01  0.38402369446E+02  0.00000000000E+00 0.  1.
</event>
<event>
 7    1  0.2497665E-015  0.9000776E+02  0.7816164E-02  0.1186339E+00
        -11   -1    0    0    0    0  0.00000000000E+00  0.00000000000E+00  0.45593999997E+02  0.45594000000E+02  0.51100000000E-03 0.  1.
         11   -1    0    0    0    0 -0.00000000000E+00 -0.00000000000E+00 -0.45593999997E+02  0.45594000000E+02  0.51100000000E-03 0. -1.
    9900012    2    1    2    0    0 -0.61287501603E+00 -0.98928766445E+00  0.19663453635E+00  0.90007758072E+02  0.90000019678E+02 0.  0.
        -12    1    1    2    0    0  0.61287501603E+00  0.98928766445E+00 -0.19663453635E+00  0.11802419282E+01  0.00000000000E+00 0.  1.
         11    1    3    3    0    0 -0.38345219513E+01  0.12146005864E+01 -0.10324394318E+02  0.11080249612E+02  0.51100000000E-03 0. -1.
        -11    1    3    3    0    0 -0.10118800368E+02 -0.38345459986E+02  0.65980943780E+01  0.40203224649E+02  0.51100000000E-03 0.  1.
         12    1    3    3    0    0  0.13340447304E+02  0.36141571736E+02  0.39229344760E+01  0.38724283811E+02  0.00000000000E+00 0. -1.
</event>
<event>
 7    1  0.2497665E-015  0.9000768E+02  0.7816164E-02  0.1186339E+00
        -11   -1    0    0    0    0  0.00000000000E+00  0.00000000000E+00  0.45593999997E+02  0.45594000000E+02  0.51100000000E-03 0.  1.
         11   -1    0    0    0    0 -0.00000000000E+00 -0.00000000000E+00 -0.45593999997E+02  0.45594000000E+02  0.51100000000E-03 0. -1.
    9900012    2    1    2    0    0 -0.45675752789E+00 -0.36498498990E-01 -0.10877446481E+01  0.90007683094E+02  0.89999943711E+02 0.  0.
        -12    1    1    2    0    0  0.45675752789E+00  0.36498498990E-01  0.10877446481E+01  0.11803169062E+01  0.00000000000E+00 0.  1.
         11    1    3    3    0    0  0.69035781652E+01  0.38974905789E+01  0.40800301295E+01  0.89160793185E+01  0.51100000000E-03 0. -1.
        -11    1    3    3    0    0  0.12571061805E+02 -0.20136755173E+02  0.29550320577E+02  0.37904379039E+02  0.51100000000E-03 0.  1.
         12    1    3    3    0    0 -0.19931397498E+02  0.16202766095E+02 -0.34718095355E+02  0.43187224737E+02  0.00000000000E+00 0. -1.
</event>
<event>
 7    1  0.2497665E-015  0.9000772E+02  0.7816164E-02  0.1186339E+00
        -11   -1    0    0    0    0  0.00000000000E+00  0.00000000000E+00  0.45593999997E+02  0.45594000000E+02  0.51100000000E-03 0.  1.
         11   -1    0    0    0    0 -0.00000000000E+00 -0.00000000000E+00 -0.45593999997E+02  0.45594000000E+02  0.51100000000E-03 0. -1.
    9900012    2    1    2    0    0  0.99436920258E+00  0.18864937469E+00 -0.60720764369E+00  0.90007720448E+02  0.89999981558E+02 0.  0.
        -12    1    1    2    0    0 -0.99436920258E+00 -0.18864937469E+00  0.60720764369E+00  0.11802795517E+01  0.00000000000E+00 0.  1.
         11    1    3    3    0    0  0.26958896970E+02  0.88570499916E+01 -0.28041470464E+02  0.39894279370E+02  0.51100000000E-03 0. -1.
        -11    1    3    3    0    0 -0.15672856960E+01  0.75304322548E+01 -0.26437975402E+01  0.81334777366E+01  0.51100000000E-03 0.  1.
        -12    1    3    3    0    0 -0.24397242072E+02 -0.16198832872E+02  0.30078060361E+02  0.41979963342E+02  0.00000000000E+00 0.  1.
</event>
<event>
 7    1  0.2497665E-015  0.9000776E+02  0.7816164E-02  0.1186339E+00
        -11   -1    0    0    0    0  0.00000000000E+00  0.00000000000E+00  0.45593999997E+02  0.45594000000E+02  0.51100000000E-03 0.  1.
         11   -1    0    0    0    0 -0.00000000000E+00 -0.00000000000E+00 -0.45593999997E+02  0.45594000000E+02  0.51100000000E-03 0. -1.
    9900012    2    1    2    0    0  0.11160659011E+01  0.30583097811E+00  0.23199401713E+00  0.90007764046E+02  0.90000025732E+02 0.  0.
        -12    1    1    2    0    0 -0.11160659011E+01 -0.30583097811E+00 -0.23199401713E+00  0.11802359539E+01  0.00000000000E+00 0.  1.
         11    1    3    3    0    0 -0.28566713997E+02 -0.15293818709E+02 -0.14768374865E+02  0.35609871324E+02  0.51100000000E-03 0. -1.
        -11    1    3    3    0    0 -0.33752851865E+01 -0.41302231653E+01 -0.79532766109E+01  0.95763198879E+01  0.51100000000E-03 0.  1.
        -12    1    3    3    0    0  0.33058065085E+02  0.19729872852E+02  0.22953645493E+02  0.44821572834E+02  0.00000000000E+00 0.  1.
</event>
<event>
 7    1  0.2497665E-015  0.9000784E+02  0.7816164E-02  0.1186339E+00
        -11   -1    0    0    0    0  0.00000000000E+00  0.00000000000E+00  0.45593999997E+02  0.45594000000E+02  0.51100000000E-03 0. -1.
         11   -1    0    0    0    0 -0.00000000000E+00 -0.00000000000E+00 -0.45593999997E+02  0.45594000000E+02  0.51100000000E-03 0.  1.
    9900012    2    1    2    0    0  0.75257148017E+00 -0.90586079888E+00 -0.76307874174E-01  0.90007843014E+02  0.90000105742E+02 0.  0.
        -12    1    1    2    0    0 -0.75257148017E+00  0.90586079888E+00  0.76307874174E-01  0.11801569859E+01  0.00000000000E+00 0.  1.
         11    1    3    3    0    0  0.37184140308E+02 -0.11333351610E+02  0.14683991495E+02  0.41553877745E+02  0.51100000000E-03 0. -1.
        -11    1    3    3    0    0  0.18141047685E+01  0.74924008228E+01 -0.35804204287E+01  0.84997915803E+01  0.51100000000E-03 0.  1.
        -12    1    3    3    0    0 -0.38245673596E+02  0.29350899886E+01 -0.11179878940E+02  0.39954173689E+02  0.00000000000E+00 0.  1.
</event>
<event>
 7    1  0.2497665E-015  0.9000770E+02  0.7816164E-02  0.1186339E+00
        -11   -1    0    0    0    0  0.00000000000E+00  0.00000000000E+00  0.45593999997E+02  0.45594000000E+02  0.51100000000E-03 0.  1.
         11   -1    0    0    0    0 -0.00000000000E+00 -0.00000000000E+00 -0.45593999997E+02  0.45594000000E+02  0.51100000000E-03 0. -1.
    9900012    2    1    2    0    0  0.61691352203E+00 -0.74253124226E+00 -0.67910518224E+00  0.90007695468E+02  0.89999956248E+02 0.  0.
        -12    1    1    2    0    0 -0.61691352203E+00  0.74253124226E+00  0.67910518224E+00  0.11803045319E+01  0.00000000000E+00 0.  1.
         11    1    3    3    0    0 -0.60071258787E+01 -0.62938433839E+01  0.24507730573E+01  0.90390439043E+01  0.51100000000E-03 0. -1.
        -11    1    3    3    0    0 -0.80709050440E+01 -0.82738180163E-01  0.36996303195E+02  0.37866512966E+02  0.51100000000E-03 0.  1.
         12    1    3    3    0    0  0.14694944445E+02  0.56340503218E+01 -0.40126181434E+02  0.43102138598E+02  0.00000000000E+00 0. -1.
</event>
<event>
 7    1  0.2497665E-015  0.9000768E+02  0.7816164E-02  0.1186339E+00
        -11   -1    0    0    0    0  0.00000000000E+00  0.00000000000E+00  0.45593999997E+02  0.45594000000E+02  0.51100000000E-03 0. -1.
         11   -1    0    0    0    0 -0.00000000000E+00 -0.00000000000E+00 -0.45593999997E+02  0.45594000000E+02  0.51100000000E-03 0.  1.
    9900012    2    1    2    0    0 -0.66820227669E+00  0.33710685932E+00  0.91270070492E+00  0.90007678902E+02  0.89999939464E+02 0.  0.
        -12    1    1    2    0    0  0.66820227669E+00 -0.33710685932E+00 -0.91270070492E+00  0.11803210978E+01  0.00000000000E+00 0.  1.
         11    1    3    3    0    0 -0.55739967396E+01  0.10314702893E+02 -0.10972038889E+01  0.11775669495E+02  0.51100000000E-03 0. -1.
        -11    1    3    3    0    0 -0.11404895079E+02  0.20589788181E+02 -0.24973344604E+02  0.34317327257E+02  0.51100000000E-03 0.  1.
         12    1    3    3    0    0  0.16310689542E+02 -0.30567384215E+02  0.26983249198E+02  0.43914682150E+02  0.00000000000E+00 0. -1.
</event>
<event>
 7    1  0.2497665E-015  0.9000799E+02  0.7816164E-02  0.1186339E+00
        -11   -1    0    0    0    0  0.00000000000E+00  0.00000000000E+00  0.45593999997E+02  0.45594000000E+02  0.51100000000E-03 0.  1.
         11   -1    0    0    0    0 -0.00000000000E+00 -0.00000000000E+00 -0.45593999997E+02  0.45594000000E+02  0.51100000000E-03 0. -1.
    9900012    2    1    2    0    0  0.39699005536E+00 -0.72334490906E+00 -0.84355497362E+00  0.90007994087E+02  0.90000258808E+02 0.  0.
        -12    1    1    2    0    0 -0.39699005536E+00  0.72334490906E+00  0.84355497362E+00  0.11800059131E+01  0.00000000000E+00 0.  1.
         11    1    3    3    0    0 -0.79504586067E+00 -0.76245335945E+01 -0.37669147595E+02  0.38441257670E+02  0.51100000000E-03 0. -1.
        -11    1    3    3    0    0  0.37550587608E+01 -0.79691218557E+01 -0.27364077761E+01  0.92247112272E+01  0.51100000000E-03 0.  1.
        -12    1    3    3    0    0 -0.25630228448E+01  0.14870310541E+02  0.39562000398E+02  0.42342025190E+02  0.00000000000E+00 0.  1.
</event>
<event>
 7    1  0.2497665E-015  0.9000771E+02  0.7816164E-02  0.1186339E+00
        -11   -1    0    0    0    0  0.00000000000E+00  0.00000000000E+00  0.45593999997E+02  0.45594000000E+02  0.51100000000E-03 0. -1.
         11   -1    0    0    0    0 -0.00000000000E+00 -0.00000000000E+00 -0.45593999997E+02  0.45594000000E+02  0.51100000000E-03 0.  1.
    9900012    2    1    2    0    0  0.36171964905E+00  0.69137311976E+00  0.88557436093E+00  0.90007711966E+02  0.89999972964E+02 0.  0.
        -12    1    1    2    0    0 -0.36171964905E+00 -0.69137311976E+00 -0.88557436093E+00  0.11802880343E+01  0.00000000000E+00 0.  1.
         11    1    3    3    0    0  0.19042830324E+02 -0.36814025789E+02  0.95259473240E-01  0.41447689394E+02  0.51100000000E-03 0. -1.
        -11    1    3    3    0    0 -0.86682322781E+01 -0.58514040829E+00  0.27892589468E+01  0.91247249744E+01  0.51100000000E-03 0.  1.
        -12    1    3    3    0    0 -0.10012878397E+02  0.38090539317E+02 -0.19989440591E+01  0.39435297597E+02  0.00000000000E+00 0.  1.
</event>
<event>
 7    1  0.2497665E-015  0.9000773E+02  0.7816164E-02  0.1186339E+00
        -11   -1    0    0    0    0  0.00000000000E+00  0.00000000000E+00  0.45593999997E+02  0.45594000000E+02  0.51100000000E-03 0. -1.
         11   -1    0    0    0    0 -0.00000000000E+00 -0.00000000000E+00 -0.45593999997E+02  0.45594000000E+02  0.51100000000E-03 0.  1.
    9900012    2    1    2    0    0  0.10578704138E+01  0.38743946995E+00 -0.35191243666E+00  0.90007728202E+02  0.89999989414E+02 0.  0.
        -12    1    1    2    0    0 -0.10578704138E+01 -0.38743946995E+00  0.35191243666E+00  0.11802717985E+01  0.00000000000E+00 0.  1.
         11    1    3    3    0    0  0.30640210171E+02  0.13230151376E+01  0.24307790771E+02  0.39133636949E+02  0.51100000000E-03 0. -1.
        -11    1    3    3    0    0  0.73677703423E+01 -0.40471370199E+00 -0.58015749878E+01  0.93864852632E+01  0.51100000000E-03 0.  1.
        -12    1    3    3    0    0 -0.36950110100E+02 -0.53086196565E+00 -0.18858128220E+02  0.41487605990E+02  0.00000000000E+00 0.  1.
</event>
<event>
 7    1  0.2497665E-015  0.9000763E+02  0.7816164E-02  0.1186339E+00
        -11   -1    0    0    0    0  0.00000000000E+00  0.00000000000E+00  0.45593999997E+02  0.45594000000E+02  0.51100000000E-03 0.  1.
         11   -1    0    0    0    0 -0.00000000000E+00 -0.00000000000E+00 -0.45593999997E+02  0.45594000000E+02  0.51100000000E-03 0. -1.
    9900012    2    1    2    0    0  0.82187395433E+00 -0.57197555911E+00 -0.62501048472E+00  0.90007631014E+02  0.89999890943E+02 0.  0.
        -12    1    1    2    0    0 -0.82187395433E+00  0.57197555911E+00  0.62501048472E+00  0.11803689860E+01  0.00000000000E+00 0.  1.
         11    1    3    3    0    0 -0.28223913175E+02  0.19938054150E+02 -0.12493402506E+02  0.36745072930E+02  0.51100000000E-03 0. -1.
        -11    1    3    3    0    0 -0.71439807125E+01  0.37216772714E+01  0.40395258259E+01  0.90113878671E+01  0.51100000000E-03 0.  1.
        -12    1    3    3    0    0  0.36189767842E+02 -0.24231706981E+02  0.78288661955E+01  0.44251170217E+02  0.00000000000E+00 0.  1.
</event>
<event>
 7    1  0.2497665E-015  0.9000778E+02  0.7816164E-02  0.1186339E+00
        -11   -1    0    0    0    0  0.00000000000E+00  0.00000000000E+00  0.45593999997E+02  0.45594000000E+02  0.51100000000E-03 0. -1.
         11   -1    0    0    0    0 -0.00000000000E+00 -0.00000000000E+00 -0.45593999997E+02  0.45594000000E+02  0.51100000000E-03 0.  1.
    9900012    2    1    2    0    0 -0.10465239746E+01  0.48479649935E-02  0.54559865434E+00  0.90007782298E+02  0.90000044224E+02 0.  0.
        -12    1    1    2    0    0  0.10465239746E+01 -0.48479649935E-02 -0.54559865434E+00  0.11802177019E+01  0.00000000000E+00 0.  1.
         11    1    3    3    0    0  0.18301204843E+01 -0.82609942942E+01 -0.27058278130E+01  0.88834043097E+01  0.51100000000E-03 0. -1.
        -11    1    3    3    0    0 -0.33252311911E+02  0.15806859806E+02  0.23655945269E+02  0.43762733132E+02  0.51100000000E-03 0.  1.
         12    1    3    3    0    0  0.30375667452E+02 -0.75410175470E+01 -0.20404518802E+02  0.37361644856E+02  0.00000000000E+00 0. -1.
</event>
<event>
 7    1  0.2497665E-015  0.9000771E+02  0.7816164E-02  0.1186339E+00
        -11   -1    0    0    0    0  0.00000000000E+00  0.00000000000E+00  0.45593999997E+02  0.45594000000E+02  0.51100000000E-03 0.  1.
         11   -1    0    0    0    0 -0.00000000000E+00 -0.00000000000E+00 -0.45593999997E+02  0.45594000000E+02  0.51100000000E-03 0. -1.
    9900012    2    1    2    0    0 -0.16411894428E+00  0.10499400025E+01 -0.51359969426E+00  0.90007706103E+02  0.89999967024E+02 0.  0.
        -12    1    1    2    0    0  0.16411894428E+00 -0.10499400025E+01  0.51359969426E+00  0.11802938967E+01  0.00000000000E+00 0.  1.
         11    1    3    3    0    0 -0.14539401044E+02  0.96584198695E+00 -0.15847765968E+02  0.21528555917E+02  0.51100000000E-03 0. -1.
        -11    1    3    3    0    0  0.20810603404E+02  0.16687092957E+02 -0.16953856244E+02  0.31606542475E+02  0.51100000000E-03 0.  1.
         12    1    3    3    0    0 -0.64353213049E+01 -0.16602994941E+02  0.32288022518E+02  0.36872607711E+02  0.00000000000E+00 0. -1.
</event>
<event>
 7    1  0.2497665E-015  0.9000772E+02  0.7816164E-02  0.1186339E+00
        -11   -1    0    0    0    0  0.00000000000E+00  0.00000000000E+00  0.45593999997E+02  0.45594000000E+02  0.51100000000E-03 0.  1.
         11   -1    0    0    0    0 -0.00000000000E+00 -0.00000000000E+00 -0.45593999997E+02  0.45594000000E+02  0.51100000000E-03 0. -1.
    9900012    2    1    2    0    0  0.10457108622E+01  0.46287705012E+00 -0.29205636772E+00  0.90007718977E+02  0.89999980068E+02 0.  0.
        -12    1    1    2    0    0 -0.10457108622E+01 -0.46287705012E+00  0.29205636772E+00  0.11802810228E+01  0.00000000000E+00 0.  1.
         11    1    3    3    0    0  0.73336272980E+01  0.39947623545E+01  0.56476928789E+01  0.10081500421E+02  0.51100000000E-03 0. -1.
        -11    1    3    3    0    0 -0.36738439597E+02  0.14839092290E+02  0.10136804378E+02  0.40898244550E+02  0.51100000000E-03 0.  1.
         12    1    3    3    0    0  0.30450523161E+02 -0.18370977595E+02 -0.16076553625E+02  0.39027974006E+02  0.00000000000E+00 0. -1.
</event>
<event>
 7    1  0.2497665E-015  0.9000767E+02  0.7816164E-02  0.1186339E+00
        -11   -1    0    0    0    0  0.00000000000E+00  0.00000000000E+00  0.45593999997E+02  0.45594000000E+02  0.51100000000E-03 0. -1.
         11   -1    0    0    0    0 -0.00000000000E+00 -0.00000000000E+00 -0.45593999997E+02  0.45594000000E+02  0.51100000000E-03 0.  1.
    9900012    2    1    2    0    0  0.42681352281E+00 -0.11805564001E+00  0.10941056672E+01  0.90007672025E+02  0.89999932496E+02 0.  0.
        -12    1    1    2    0    0 -0.42681352281E+00  0.11805564001E+00 -0.10941056672E+01  0.11803279750E+01  0.00000000000E+00 0.  1.
         11    1    3    3    0    0 -0.60624830888E+00 -0.12545553087E+02 -0.15728321397E+01  0.12658287422E+02  0.51100000000E-03 0. -1.
        -11    1    3    3    0    0  0.10413401222E+02 -0.21628969631E+02 -0.23341784780E+02  0.33482684619E+02  0.51100000000E-03 0.  1.
         12    1    3    3    0    0 -0.93803393903E+01  0.34056467078E+02  0.26008722587E+02  0.43866699984E+02  0.00000000000E+00 0. -1.
</event>
<event>
 7    1  0.2497665E-015  0.9000790E+02  0.7816164E-02  0.1186339E+00
        -11   -1    0    0    0    0  0.00000000000E+00  0.00000000000E+00  0.45593999997E+02  0.45594000000E+02  0.51100000000E-03 0. -1.
         11   -1    0    0    0    0 -0.00000000000E+00 -0.00000000000E+00 -0.45593999997E+02  0.45594000000E+02  0.51100000000E-03 0.  1.
    9900012    2    1    2    0    0 -0.74401887701E+00 -0.28620502724E+00  0.87014402535E+00  0.90007903380E+02  0.90000166905E+02 0.  0.
        -12    1    1    2    0    0  0.74401887701E+00  0.28620502724E+00 -0.87014402535E+00  0.11800966197E+01  0.00000000000E+00 0.  1.
         11    1    3    3    0    0  0.64038926064E+01  0.40332687788E-01 -0.64384277287E+01  0.90810142120E+01  0.51100000000E-03 0. -1.
        -11    1    3    3    0    0  0.49485246611E+01 -0.37818581678E+02 -0.74430633214E+01  0.38860419560E+02  0.51100000000E-03 0.  1.
         12    1    3    3    0    0 -0.12096436144E+02  0.37492043963E+02  0.14751635075E+02  0.42066469609E+02  0.00000000000E+00 0. -1.
</event>
<event>
 7    1  0.2497665E-015  0.9000764E+02  0.7816164E-02  0.1186339E+00
        -11   -1    0    0    0    0  0.00000000000E+00  0.00000000000E+00  0.45593999997E+02  0.45594000000E+02  0.51100000000E-03 0. -1.
         11   -1    0    0    0    0 -0.00000000000E+00 -0.00000000000E+00 -0.45593999997E+02  0.45594000000E+02  0.51100000000E-03 0.  1.
    9900012    2    1    2    0    0  0.90524234282E+00  0.75610789904E+00  0.45798630523E-01  0.90007635493E+02  0.89999895482E+02 0.  0.
        -12    1    1    2    0    0 -0.90524234282E+00 -0.75610789904E+00 -0.45798630523E-01  0.11803645067E+01  0.00000000000E+00 0.  1.
         11    1    3    3    0    0 -0.11487721830E+02  0.28084926573E+02  0.20562671709E+02  0.36654526617E+02  0.51100000000E-03 0. -1.
        -11    1    3    3    0    0 -0.37801665738E+01 -0.46277552812E+01  0.10233401216E+02  0.11850243836E+02  0.51100000000E-03 0.  1.
        -12    1    3    3    0    0  0.16173130746E+02 -0.22701063393E+02 -0.30750274295E+02  0.41502865040E+02  0.00000000000E+00 0.  1.
</event>
<event>
 7    1  0.2497665E-015  0.9000777E+02  0.7816164E-02  0.1186339E+00
        -11   -1    0    0    0    0  0.00000000000E+00  0.00000000000E+00  0.45593999997E+02  0.45594000000E+02  0.51100000000E-03 0.  1.
         11   -1    0    0    0    0 -0.00000000000E+00 -0.00000000000E+00 -0.45593999997E+02  0.45594000000E+02  0.51100000000E-03 0. -1.
    9900012    2    1    2    0    0  0.81787254723E+00 -0.48212082905E+00 -0.70114001125E+00  0.90007765569E+02  0.90000027274E+02 0.  0.
        -12    1    1    2    0    0 -0.81787254723E+00  0.48212082905E+00  0.70114001125E+00  0.11802344312E+01  0.00000000000E+00 0.  1.
         11    1    3    3    0    0 -0.25115314737E+02 -0.22195441382E+02  0.65160508007E+00  0.33523741466E+02  0.51100000000E-03 0. -1.
        -11    1    3    3    0    0 -0.64083562202E+01 -0.73518105873E+01  0.72576482602E+01  0.12156874882E+02  0.51100000000E-03 0.  1.
        -12    1    3    3    0    0  0.32341543504E+02  0.29065131140E+02 -0.86103933515E+01  0.44327149221E+02  0.00000000000E+00 0.  1.
</event>
<event>
 7    1  0.2497665E-015  0.9000783E+02  0.7816164E-02  0.1186339E+00
        -11   -1    0    0    0    0  0.00000000000E+00  0.00000000000E+00  0.45593999997E+02  0.45594000000E+02  0.51100000000E-03 0. -1.
         11   -1    0    0    0    0 -0.00000000000E+00 -0.00000000000E+00 -0.45593999997E+02  0.45594000000E+02  0.51100000000E-03 0.  1.
    9900012    2    1    2    0    0  0.70687044026E+00 -0.33183463591E+00  0.88488754733E+00  0.90007827972E+02  0.90000090501E+02 0.  0.
        -12    1    1    2    0    0 -0.70687044026E+00  0.33183463591E+00 -0.88488754733E+00  0.11801720283E+01  0.00000000000E+00 0.  1.
         11    1    3    3    0    0  0.21019371829E+02 -0.96237020625E+00  0.28409502911E+02  0.35353076308E+02  0.51100000000E-03 0. -1.
        -11    1    3    3    0    0 -0.44249151330E+01 -0.94626807560E+01  0.88549653760E+01  0.13694254748E+02  0.51100000000E-03 0.  1.
        -12    1    3    3    0    0 -0.15887586255E+02  0.10093216326E+02 -0.36379580740E+02  0.40960496916E+02  0.00000000000E+00 0.  1.
</event>
<event>
 7    1  0.2497665E-015  0.9000773E+02  0.7816164E-02  0.1186339E+00
        -11   -1    0    0    0    0  0.00000000000E+00  0.00000000000E+00  0.45593999997E+02  0.45594000000E+02  0.51100000000E-03 0.  1.
         11   -1    0    0    0    0 -0.00000000000E+00 -0.00000000000E+00 -0.45593999997E+02  0.45594000000E+02  0.51100000000E-03 0. -1.
    9900012    2    1    2    0    0  0.10808742941E+01 -0.45488614848E+00  0.13354562781E+00  0.90007726692E+02  0.89999987884E+02 0.  0.
        -12    1    1    2    0    0 -0.10808742941E+01  0.45488614848E+00 -0.13354562781E+00  0.11802733084E+01  0.00000000000E+00 0.  1.
         11    1    3    3    0    0 -0.10360799328E+02 -0.34107098937E+01  0.31375062029E+01  0.11350024235E+02  0.51100000000E-03 0. -1.
        -11    1    3    3    0    0  0.15150167212E+02 -0.41709300748E+01  0.35765141395E+02  0.39064940337E+02  0.51100000000E-03 0.  1.
         12    1    3    3    0    0 -0.37084935897E+01  0.71267538200E+01 -0.38769101970E+02  0.39592762120E+02  0.00000000000E+00 0. -1.
</event>
<event>
 7    1  0.2497665E-015  0.9000770E+02  0.7816164E-02  0.1186339E+00
        -11   -1    0    0    0    0  0.00000000000E+00  0.00000000000E+00  0.45593999997E+02  0.45594000000E+02  0.51100000000E-03 0.  1.
         11   -1    0    0    0    0 -0.00000000000E+00 -0.00000000000E+00 -0.45593999997E+02  0.45594000000E+02  0.51100000000E-03 0. -1.
    9900012    2    1    2    0    0 -0.87363602591E+00  0.79292304572E+00  0.33733250785E-01  0.90007701396E+02  0.89999962255E+02 0.  0.
        -12    1    1    2    0    0  0.87363602591E+00 -0.79292304572E+00 -0.33733250785E-01  0.11802986039E+01  0.00000000000E+00 0.  1.
         11    1    3    3    0    0 -0.26928455741E+02 -0.21455171379E+02  0.76020607113E+01  0.35259855854E+02  0.51100000000E-03 0. -1.
        -11    1    3    3    0    0  0.49697853717E+00 -0.11691255350E+02 -0.83775413647E+00  0.11731763362E+02  0.51100000000E-03 0.  1.
        -12    1    3    3    0    0  0.25557841178E+02  0.33939349775E+02 -0.67305733241E+01  0.43016082180E+02  0.00000000000E+00 0.  1.
</event>
<event>
 7    1  0.2497665E-015  0.9000783E+02  0.7816164E-02  0.1186339E+00
        -11   -1    0    0    0    0  0.00000000000E+00  0.00000000000E+00  0.45593999997E+02  0.45594000000E+02  0.51100000000E-03 0. -1.
         11   -1    0    0    0    0 -0.00000000000E+00 -0.00000000000E+00 -0.45593999997E+02  0.45594000000E+02  0.51100000000E-03 0.  1.
    9900012    2    1    2    0    0  0.14316536324E+00 -0.83290588537E-01  0.11684918948E+01  0.90007827575E+02  0.90000090099E+02 0.  0.
        -12    1    1    2    0    0 -0.14316536324E+00  0.83290588537E-01 -0.11684918948E+01  0.11801724245E+01  0.00000000000E+00 0.  1.
         11    1    3    3    0    0  0.46703776522E+01 -0.51731645981E+01  0.36134756011E+01  0.78505582957E+01  0.51100000000E-03 0. -1.
        -11    1    3    3    0    0 -0.17723717980E+01  0.28927003565E+02 -0.32600221428E+02  0.43619803696E+02  0.51100000000E-03 0.  1.
         12    1    3    3    0    0 -0.27548404910E+01 -0.23837129556E+02  0.30155237722E+02  0.38537465584E+02  0.00000000000E+00 0. -1.
</event>
<event>
 7    1  0.2497665E-015  0.9000773E+02  0.7816164E-02  0.1186339E+00
        -11   -1    0    0    0    0  0.00000000000E+00  0.00000000000E+00  0.45593999997E+02  0.45594000000E+02  0.51100000000E-03 0. -1.
         11   -1    0    0    0    0 -0.00000000000E+00 -0.00000000000E+00 -0.45593999997E+02  0.45594000000E+02  0.51100000000E-03 0.  1.
    9900012    2    1    2    0    0  0.19588398472E+00 -0.77631380216E+00  0.86717622673E+00  0.90007733817E+02  0.89999995103E+02 0.  0.
        -12    1    1    2    0    0 -0.19588398472E+00  0.77631380216E+00 -0.86717622673E+00  0.11802661832E+01  0.00000000000E+00 0.  1.
         11    1    3    3    0    0  0.12204680989E+02 -0.28658147469E+02  0.16675344921E+02  0.35331441846E+02  0.51100000000E-03 0. -1.
        -11    1    3    3    0    0  0.65134021794E+01 -0.80038005022E+01  0.20488773157E+01  0.10520604970E+02  0.51100000000E-03 0.  1.
        -12    1    3    3    0    0 -0.18522199184E+02  0.35885634169E+02 -0.17857046010E+02  0.44155687001E+02  0.00000000000E+00 0.  1.
</event>
<event>
 7    1  0.2497665E-015  0.9000774E+02  0.7816164E-02  0.1186339E+00
        -11   -1    0    0    0    0  0.00000000000E+00  0.00000000000E+00  0.45593999997E+02  0.45594000000E+02  0.51100000000E-03 0.  1.
         11   -1    0    0    0    0 -0.00000000000E+00 -0.00000000000E+00 -0.45593999997E+02  0.45594000000E+02  0.51100000000E-03 0. -1.
    9900012    2    1    2    0    0 -0.19351501650E+00 -0.99672252237E+00 -0.60175670580E+00  0.90007739444E+02  0.90000000804E+02 0.  0.
        -12    1    1    2    0    0  0.19351501650E+00  0.99672252237E+00  0.60175670580E+00  0.11802605565E+01  0.00000000000E+00 0.  1.
         11    1    3    3    0    0 -0.33388583707E+02 -0.25496116738E+01 -0.20456647768E+02  0.39239934758E+02  0.51100000000E-03 0. -1.
        -11    1    3    3    0    0 -0.18236027243E+01  0.72261631083E+01 -0.35626323137E+01  0.82604666592E+01  0.51100000000E-03 0.  1.
        -12    1    3    3    0    0  0.35018671414E+02 -0.56732739568E+01  0.23417523376E+02  0.42507338026E+02  0.00000000000E+00 0.  1.
</event>
<event>
 7    1  0.2497665E-015  0.9000775E+02  0.7816164E-02  0.1186339E+00
        -11   -1    0    0    0    0  0.00000000000E+00  0.00000000000E+00  0.45593999997E+02  0.45594000000E+02  0.51100000000E-03 0.  1.
         11   -1    0    0    0    0 -0.00000000000E+00 -0.00000000000E+00 -0.45593999997E+02  0.45594000000E+02  0.51100000000E-03 0. -1.
    9900012    2    1    2    0    0 -0.93280589398E+00 -0.66115835862E-01 -0.72006235102E+00  0.90007750904E+02  0.90000012416E+02 0.  0.
        -12    1    1    2    0    0  0.93280589398E+00  0.66115835862E-01  0.72006235102E+00  0.11802490961E+01  0.00000000000E+00 0.  1.
         11    1    3    3    0    0 -0.71333449170E+01 -0.58042621096E+01 -0.57067337941E+01  0.10823164011E+02  0.51100000000E-03 0. -1.
        -11    1    3    3    0    0  0.33764245393E+02 -0.21505683143E+02  0.56195581076E+01  0.40423979369E+02  0.51100000000E-03 0.  1.
         12    1    3    3    0    0 -0.27563706370E+02  0.27243829417E+02 -0.63288666452E+00  0.38760607525E+02  0.00000000000E+00 0. -1.
</event>
<event>
 7    1  0.2497665E-015  0.9000772E+02  0.7816164E-02  0.1186339E+00
        -11   -1    0    0    0    0  0.00000000000E+00  0.00000000000E+00  0.45593999997E+02  0.45594000000E+02  0.51100000000E-03 0. -1.
         11   -1    0    0    0    0 -0.00000000000E+00 -0.00000000000E+00 -0.45593999997E+02  0.45594000000E+02  0.51100000000E-03 0.  1.
    9900012    2    1    2    0    0 -0.39808237261E-01  0.89134195316E+00  0.77264795685E+00  0.90007720356E+02  0.89999981465E+02 0.  0.
        -12    1    1    2    0    0  0.39808237261E-01 -0.89134195316E+00 -0.77264795685E+00  0.11802796442E+01  0.00000000000E+00 0.  1.
         11    1    3    3    0    0 -0.22176110668E+01 -0.32972158158E+02 -0.24804644556E+02  0.41320108958E+02  0.51100000000E-03 0. -1.
        -11    1    3    3    0    0  0.49800756551E+01 -0.15821477360E+01  0.64897243228E+01  0.83319185687E+01  0.51100000000E-03 0.  1.
        -12    1    3    3    0    0 -0.28022728255E+01  0.35445647847E+02  0.19087568191E+02  0.40355692829E+02  0.00000000000E+00 0.  1.
</event>
<event>
 7    1  0.2497665E-015  0.9000769E+02  0.7816164E-02  0.1186339E+00
        -11   -1    0    0    0    0  0.00000000000E+00  0.00000000000E+00  0.45593999997E+02  0.45594000000E+02  0.51100000000E-03 0.  1.
         11   -1    0    0    0    0 -0.00000000000E+00 -0.00000000000E+00 -0.45593999997E+02  0.45594000000E+02  0.51100000000E-03 0. -1.
    9900012    2    1    2    0    0  0.10322992337E+01 -0.22405279440E+00  0.52658034458E+00  0.90007691472E+02  0.89999952199E+02 0.  0.
        -12    1    1    2    0    0 -0.10322992337E+01  0.22405279440E+00 -0.52658034458E+00  0.11803085283E+01  0.00000000000E+00 0.  1.
         11    1    3    3    0    0  0.13385881661E+01  0.94534134611E+01  0.24026624462E+01  0.98453863020E+01  0.51100000000E-03 0. -1.
        -11    1    3    3    0    0 -0.16807373945E+02  0.25022386869E+02  0.19782548312E+02  0.36054914804E+02  0.51100000000E-03 0.  1.
         12    1    3    3    0    0  0.16501085012E+02 -0.34699853125E+02 -0.21658630414E+02  0.44107390366E+02  0.00000000000E+00 0. -1.
</event>
<event>
 7    1  0.2497665E-015  0.9000729E+02  0.7816164E-02  0.1186340E+00
        -11   -1    0    0    0    0  0.00000000000E+00  0.00000000000E+00  0.45593999997E+02  0.45594000000E+02  0.51100000000E-03 0. -1.
         11   -1    0    0    0    0 -0.00000000000E+00 -0.00000000000E+00 -0.45593999997E+02  0.45594000000E+02  0.51100000000E-03 0.  1.
    9900012    2    1    2    0    0 -0.92878117741E+00 -0.55225673742E+00  0.47586495076E+00  0.90007292826E+02  0.89999548290E+02 0.  0.
        -12    1    1    2    0    0  0.92878117741E+00  0.55225673742E+00 -0.47586495076E+00  0.11807071741E+01  0.00000000000E+00 0.  1.
         11    1    3    3    0    0  0.11967507057E+02  0.24648990653E+02  0.23553202521E+02  0.36132358277E+02  0.51100000000E-03 0. -1.
        -11    1    3    3    0    0 -0.56449567155E+01  0.60411429798E+01  0.62894927170E+01  0.10388390815E+02  0.51100000000E-03 0.  1.
        -12    1    3    3    0    0 -0.72513315192E+01 -0.31242390370E+02 -0.29366830287E+02  0.43486543734E+02  0.00000000000E+00 0.  1.
</event>
<event>
 7    1  0.2497665E-015  0.9000777E+02  0.7816164E-02  0.1186339E+00
        -11   -1    0    0    0    0  0.00000000000E+00  0.00000000000E+00  0.45593999997E+02  0.45594000000E+02  0.51100000000E-03 0.  1.
         11   -1    0    0    0    0 -0.00000000000E+00 -0.00000000000E+00 -0.45593999997E+02  0.45594000000E+02  0.51100000000E-03 0. -1.
    9900012    2    1    2    0    0  0.13078773647E+00 -0.67284334784E+00 -0.96079081360E+00  0.90007770111E+02  0.90000031877E+02 0.  0.
        -12    1    1    2    0    0 -0.13078773647E+00  0.67284334784E+00  0.96079081360E+00  0.11802298887E+01  0.00000000000E+00 0.  1.
         11    1    3    3    0    0  0.24133405791E+01 -0.11644744627E+02 -0.18497493387E+01  0.12035192689E+02  0.51100000000E-03 0. -1.
        -11    1    3    3    0    0 -0.19638264903E+02  0.40531436522E+00  0.33917257287E+02  0.39194464791E+02  0.51100000000E-03 0.  1.
         12    1    3    3    0    0  0.17355712061E+02  0.10566586914E+02 -0.33028298761E+02  0.38778112631E+02  0.00000000000E+00 0. -1.
</event>
<event>
 7    1  0.2497665E-015  0.9000767E+02  0.7816164E-02  0.1186339E+00
        -11   -1    0    0    0    0  0.00000000000E+00  0.00000000000E+00  0.45593999997E+02  0.45594000000E+02  0.51100000000E-03 0.  1.
         11   -1    0    0    0    0 -0.00000000000E+00 -0.00000000000E+00 -0.45593999997E+02  0.45594000000E+02  0.51100000000E-03 0. -1.
    9900012    2    1    2    0    0 -0.84711950341E+00  0.49526187758E+00 -0.65595677967E+00  0.90007671623E+02  0.89999932089E+02 0.  0.
        -12    1    1    2    0    0  0.84711950341E+00 -0.49526187758E+00  0.65595677967E+00  0.11803283769E+01  0.00000000000E+00 0.  1.
         11    1    3    3    0    0 -0.31287822332E+02  0.12443444709E+02 -0.82074636959E+01  0.34657316732E+02  0.51100000000E-03 0. -1.
        -11    1    3    3    0    0 -0.11242409568E+02 -0.24497178142E+01 -0.16380092723E+01  0.11622218588E+02  0.51100000000E-03 0.  1.
        -12    1    3    3    0    0  0.41683112397E+02 -0.94984650173E+01  0.91895161885E+01  0.43728136303E+02  0.00000000000E+00 0.  1.
</event>
<event>
 7    1  0.2497665E-015  0.9000774E+02  0.7816164E-02  0.1186339E+00
        -11   -1    0    0    0    0  0.00000000000E+00  0.00000000000E+00  0.45593999997E+02  0.45594000000E+02  0.51100000000E-03 0. -1.
         11   -1    0    0    0    0 -0.00000000000E+00 -0.00000000000E+00 -0.45593999997E+02  0.45594000000E+02  0.51100000000E-03 0.  1.
    9900012    2    1    2    0    0 -0.55049260529E+00 -0.43731838373E+00  0.94800831509E+00  0.90007741875E+02  0.90000003267E+02 0.  0.
        -12    1    1    2    0    0  0.55049260529E+00  0.43731838373E+00 -0.94800831509E+00  0.11802581255E+01  0.00000000000E+00 0.  1.
         11    1    3    3    0    0  0.21876142982E+02 -0.15928355822E+02  0.23605865474E+02  0.35909818100E+02  0.51100000000E-03 0. -1.
        -11    1    3    3    0    0  0.48654793626E+01 -0.10230215557E+02 -0.28301822340E+01  0.11676477701E+02  0.51100000000E-03 0.  1.
        -12    1    3    3    0    0 -0.27292114950E+02  0.25721252995E+02 -0.19827674925E+02  0.42421446073E+02  0.00000000000E+00 0.  1.
</event>
<event>
 7    1  0.2497665E-015  0.9000770E+02  0.7816164E-02  0.1186339E+00
        -11   -1    0    0    0    0  0.00000000000E+00  0.00000000000E+00  0.45593999997E+02  0.45594000000E+02  0.51100000000E-03 0.  1.
         11   -1    0    0    0    0 -0.00000000000E+00 -0.00000000000E+00 -0.45593999997E+02  0.45594000000E+02  0.51100000000E-03 0. -1.
    9900012    2    1    2    0    0  0.50462023457E+00  0.49514848981E+00 -0.94514026470E+00  0.90007701848E+02  0.89999962712E+02 0.  0.
        -12    1    1    2    0    0 -0.50462023457E+00 -0.49514848981E+00  0.94514026470E+00  0.11802981522E+01  0.00000000000E+00 0.  1.
         11    1    3    3    0    0 -0.13056480869E+02  0.34932042198E+02 -0.10561563197E+01  0.37307301312E+02  0.51100000000E-03 0. -1.
        -11    1    3    3    0    0  0.44782551049E+01  0.80601051890E+01 -0.57046720165E+00  0.92382626901E+01  0.51100000000E-03 0.  1.
        -12    1    3    3    0    0  0.90828459984E+01 -0.42496998897E+02  0.68148325662E+00  0.43462137845E+02  0.00000000000E+00 0.  1.
</event>
<event>
 7    1  0.2497665E-015  0.9000766E+02  0.7816164E-02  0.1186339E+00
        -11   -1    0    0    0    0  0.00000000000E+00  0.00000000000E+00  0.45593999997E+02  0.45594000000E+02  0.51100000000E-03 0. -1.
         11   -1    0    0    0    0 -0.00000000000E+00 -0.00000000000E+00 -0.45593999997E+02  0.45594000000E+02  0.51100000000E-03 0.  1.
    9900012    2    1    2    0    0  0.35061874957E+00 -0.10902694165E+01  0.28562262731E+00  0.90007660560E+02  0.89999920880E+02 0.  0.
        -12    1    1    2    0    0 -0.35061874957E+00  0.10902694165E+01 -0.28562262731E+00  0.11803394398E+01  0.00000000000E+00 0.  1.
         11    1    3    3    0    0  0.33438490354E+01  0.93849549843E+00 -0.90566021997E+01  0.96996981312E+01  0.51100000000E-03 0. -1.
        -11    1    3    3    0    0 -0.21828465459E+02  0.21179036358E+02 -0.21586974958E+02  0.37296527632E+02  0.51100000000E-03 0.  1.
         12    1    3    3    0    0  0.18835235173E+02 -0.23207801273E+02  0.30929199785E+02  0.43011434797E+02  0.00000000000E+00 0. -1.
</event>
<event>
 7    1  0.2497665E-015  0.9000773E+02  0.7816164E-02  0.1186339E+00
        -11   -1    0    0    0    0  0.00000000000E+00  0.00000000000E+00  0.45593999997E+02  0.45594000000E+02  0.51100000000E-03 0.  1.
         11   -1    0    0    0    0 -0.00000000000E+00 -0.00000000000E+00 -0.45593999997E+02  0.45594000000E+02  0.51100000000E-03 0. -1.
    9900012    2    1    2    0    0 -0.43991773234E+00  0.10945922662E+01  0.37262396661E-01  0.90007725317E+02  0.89999986491E+02 0.  0.
        -12    1    1    2    0    0  0.43991773234E+00 -0.10945922662E+01 -0.37262396661E-01  0.11802746827E+01  0.00000000000E+00 0.  1.
         11    1    3    3    0    0 -0.42663144519E+01  0.31631421375E+02  0.18495547895E+02  0.36889477489E+02  0.51100000000E-03 0. -1.
        -11    1    3    3    0    0 -0.29677903141E+01  0.53575741543E+01  0.64564867877E+01  0.88993034597E+01  0.51100000000E-03 0.  1.
        -12    1    3    3    0    0  0.67941870336E+01 -0.35894403263E+02 -0.24914772286E+02  0.44218944369E+02  0.00000000000E+00 0.  1.
</event>
<event>
 7    1  0.2497665E-015  0.9000787E+02  0.7816164E-02  0.1186339E+00
        -11   -1    0    0    0    0  0.00000000000E+00  0.00000000000E+00  0.45593999997E+02  0.45594000000E+02  0.51100000000E-03 0. -1.
         11   -1    0    0    0    0 -0.00000000000E+00 -0.00000000000E+00 -0.45593999997E+02  0.45594000000E+02  0.51100000000E-03 0.  1.
    9900012    2    1    2    0    0 -0.94353727084E+00 -0.72511180051E-01  0.70512195308E+00  0.90007865507E+02  0.90000128532E+02 0.  0.
        -12    1    1    2    0    0  0.94353727084E+00  0.72511180051E-01 -0.70512195308E+00  0.11801344929E+01  0.00000000000E+00 0.  1.
         11    1    3    3    0    0  0.88421390592E+01  0.18142254824E+01 -0.31399473067E+01  0.95568879136E+01  0.51100000000E-03 0. -1.
        -11    1    3    3    0    0  0.11718987813E+02 -0.71558316030E+01 -0.33964862595E+02  0.36635399447E+02  0.51100000000E-03 0.  1.
         12    1    3    3    0    0 -0.21504664143E+02  0.52690949405E+01  0.37809931855E+02  0.43815578146E+02  0.00000000000E+00 0. -1.
</event>
<event>
 7    1  0.2497665E-015  0.9000775E+02  0.7816164E-02  0.1186339E+00
        -11   -1    0    0    0    0  0.00000000000E+00  0.00000000000E+00  0.45593999997E+02  0.45594000000E+02  0.51100000000E-03 0. -1.
         11   -1    0    0    0    0 -0.00000000000E+00 -0.00000000000E+00 -0.45593999997E+02  0.45594000000E+02  0.51100000000E-03 0.  1.
    9900012    2    1    2    0    0  0.55755222502E+00  0.44581521832E+00  0.93988621867E+00  0.90007745029E+02  0.90000006463E+02 0.  0.
        -12    1    1    2    0    0 -0.55755222502E+00 -0.44581521832E+00 -0.93988621867E+00  0.11802549710E+01  0.00000000000E+00 0.  1.
         11    1    3    3    0    0 -0.11328498510E+02  0.11343114674E+02  0.28484645906E+02  0.32686024256E+02  0.51100000000E-03 0. -1.
        -11    1    3    3    0    0  0.28868139443E+01  0.63271607325E+01  0.11653226264E+02  0.13570716279E+02  0.51100000000E-03 0.  1.
        -12    1    3    3    0    0  0.89992367909E+01 -0.17224460188E+02 -0.39197985952E+02  0.43751004494E+02  0.00000000000E+00 0.  1.
</event>
<event>
 7    1  0.2497665E-015  0.9000798E+02  0.7816164E-02  0.1186339E+00
        -11   -1    0    0    0    0  0.00000000000E+00  0.00000000000E+00  0.45593999997E+02  0.45594000000E+02  0.51100000000E-03 0.  1.
         11   -1    0    0    0    0 -0.00000000000E+00 -0.00000000000E+00 -0.45593999997E+02  0.45594000000E+02  0.51100000000E-03 0. -1.
    9900012    2    1    2    0    0 -0.47328049994E+00  0.10728145487E+01 -0.13241219334E+00  0.90007975222E+02  0.90000239695E+02 0.  0.
        -12    1    1    2    0    0  0.47328049994E+00 -0.10728145487E+01  0.13241219334E+00  0.11800247779E+01  0.00000000000E+00 0.  1.
         11    1    3    3    0    0 -0.22056534411E+02 -0.61559341004E+01  0.32330223006E+02  0.39618550639E+02  0.51100000000E-03 0. -1.
        -11    1    3    3    0    0  0.11540846067E+02 -0.25965367309E+01  0.30351309180E+01  0.12212499780E+02  0.51100000000E-03 0.  1.
        -12    1    3    3    0    0  0.10042407844E+02  0.98252853800E+01 -0.35497766117E+02  0.38176924803E+02  0.00000000000E+00 0.  1.
</event>
<event>
 7    1  0.2497665E-015  0.9000739E+02  0.7816164E-02  0.1186340E+00
        -11   -1    0    0    0    0  0.00000000000E+00  0.00000000000E+00  0.45593999997E+02  0.45594000000E+02  0.51100000000E-03 0. -1.
         11   -1    0    0    0    0 -0.00000000000E+00 -0.00000000000E+00 -0.45593999997E+02  0.45594000000E+02  0.51100000000E-03 0.  1.
    9900012    2    1    2    0    0 -0.29217379454E+00  0.91401759667E+00  0.68778471531E+00  0.90007389350E+02  0.89999646088E+02 0.  0.
        -12    1    1    2    0    0  0.29217379454E+00 -0.91401759667E+00 -0.68778471531E+00  0.11806106504E+01  0.00000000000E+00 0.  1.
         11    1    3    3    0    0 -0.93456779844E+01  0.12959139524E+01  0.25564647842E+01  0.97753057453E+01  0.51100000000E-03 0. -1.
        -11    1    3    3    0    0 -0.30323212169E+02  0.17022035237E+02 -0.10498129817E+02  0.36324339082E+02  0.51100000000E-03 0.  1.
         12    1    3    3    0    0  0.39376716358E+02 -0.17403931593E+02  0.86294497485E+01  0.43907744522E+02  0.00000000000E+00 0. -1.
</event>
<event>
 7    1  0.2497665E-015  0.9000709E+02  0.7816164E-02  0.1186340E+00
        -11   -1    0    0    0    0  0.00000000000E+00  0.00000000000E+00  0.45593999997E+02  0.45594000000E+02  0.51100000000E-03 0. -1.
         11   -1    0    0    0    0 -0.00000000000E+00 -0.00000000000E+00 -0.45593999997E+02  0.45594000000E+02  0.51100000000E-03 0.  1.
    9900012    2    1    2    0    0 -0.47766102484E+00 -0.94592342415E+00  0.52117201262E+00  0.90007088722E+02  0.89999341491E+02 0.  0.
        -12    1    1    2    0    0  0.47766102484E+00  0.94592342415E+00 -0.52117201262E+00  0.11809112777E+01  0.00000000000E+00 0.  1.
         11    1    3    3    0    0 -0.37587681359E+02 -0.88657190995E+01  0.75886428319E+01  0.39357620169E+02  0.51100000000E-03 0. -1.
        -11    1    3    3    0    0  0.48547697667E-01 -0.46113106161E+00  0.92751670406E+01  0.92867498419E+01  0.51100000000E-03 0.  1.
        -12    1    3    3    0    0  0.37061472637E+02  0.83809267369E+01 -0.16342637860E+02  0.41362718711E+02  0.00000000000E+00 0.  1.
</event>
<event>
 7    1  0.2497665E-015  0.9000751E+02  0.7816164E-02  0.1186340E+00
        -11   -1    0    0    0    0  0.00000000000E+00  0.00000000000E+00  0.45593999997E+02  0.45594000000E+02  0.51100000000E-03 0. -1.
         11   -1    0    0    0    0 -0.00000000000E+00 -0.00000000000E+00 -0.45593999997E+02  0.45594000000E+02  0.51100000000E-03 0.  1.
    9900012    2    1    2    0    0  0.58106966482E+00 -0.10263506891E+01  0.50243965364E-01  0.90007507667E+02  0.89999765968E+02 0.  0.
        -12    1    1    2    0    0 -0.58106966482E+00  0.10263506891E+01 -0.50243965364E-01  0.11804923331E+01  0.00000000000E+00 0.  1.
         11    1    3    3    0    0 -0.44061970344E+01  0.15618167217E+00  0.32678881489E+02  0.32974964150E+02  0.51100000000E-03 0. -1.
        -11    1    3    3    0    0 -0.16765551860E+01 -0.14221874414E+02  0.61470765334E+01  0.15583937221E+02  0.51100000000E-03 0.  1.
        -12    1    3    3    0    0  0.66638218852E+01  0.13039342052E+02 -0.38775714057E+02  0.41448606297E+02  0.00000000000E+00 0.  1.
</event>
<event>
 7    1  0.2497665E-015  0.9000775E+02  0.7816164E-02  0.1186339E+00
        -11   -1    0    0    0    0  0.00000000000E+00  0.00000000000E+00  0.45593999997E+02  0.45594000000E+02  0.51100000000E-03 0.  1.
         11   -1    0    0    0    0 -0.00000000000E+00 -0.00000000000E+00 -0.45593999997E+02  0.45594000000E+02  0.51100000000E-03 0. -1.
    9900012    2    1    2    0    0 -0.39291732628E+00  0.30995920210E+00 -0.10688874123E+01  0.90007754673E+02  0.90000016234E+02 0.  0.
        -12    1    1    2    0    0  0.39291732628E+00 -0.30995920210E+00  0.10688874123E+01  0.11802453273E+01  0.00000000000E+00 0.  1.
         11    1    3    3    0    0 -0.70974662472E+01 -0.23449363758E+01  0.65012057342E+01  0.99064842399E+01  0.51100000000E-03 0. -1.
        -11    1    3    3    0    0 -0.19632278370E+02 -0.30508035972E+02  0.31540360664E+01  0.36415855841E+02  0.51100000000E-03 0.  1.
         12    1    3    3    0    0  0.26336827290E+02  0.33162931550E+02 -0.10724129213E+02  0.43685414592E+02  0.00000000000E+00 0. -1.
</event>
<event>
 7    1  0.2497665E-015  0.9000764E+02  0.7816164E-02  0.1186339E+00
        -11   -1    0    0    0    0  0.00000000000E+00  0.00000000000E+00  0.45593999997E+02  0.45594000000E+02  0.51100000000E-03 0.  1.
         11   -1    0    0    0    0 -0.00000000000E+00 -0.00000000000E+00 -0.45593999997E+02  0.45594000000E+02  0.51100000000E-03 0. -1.
    9900012    2    1    2    0    0  0.15387054432E+00  0.82053309790E+00 -0.83444183183E+00  0.90007642478E+02  0.89999902559E+02 0.  0.
        -12    1    1    2    0    0 -0.15387054432E+00 -0.82053309790E+00  0.83444183183E+00  0.11803575221E+01  0.00000000000E+00 0.  1.
         11    1    3    3    0    0 -0.72280557460E+00 -0.57491978942E+01 -0.14578623700E+02  0.15687956959E+02  0.51100000000E-03 0. -1.
        -11    1    3    3    0    0 -0.96401124659E+00  0.39463042698E+02  0.12286405097E+02  0.41342675374E+02  0.51100000000E-03 0.  1.
         12    1    3    3    0    0  0.18406873655E+01 -0.32893311706E+02  0.14577767705E+01  0.32977010144E+02  0.00000000000E+00 0. -1.
</event>
<event>
 7    1  0.2579339E-015  0.9000772E+02  0.7816164E-02  0.1186339E+00
        -11   -1    0    0    0    0  0.00000000000E+00  0.00000000000E+00  0.45593999997E+02  0.45594000000E+02  0.51100000000E-03 0. -1.
         11   -1    0    0    0    0 -0.00000000000E+00 -0.00000000000E+00 -0.45593999997E+02  0.45594000000E+02  0.51100000000E-03 0.  1.
    9900012    2    1    2    0    0 -0.72727469587E+00  0.85590465318E+00  0.36272333656E+00  0.90007716357E+02  0.89999977413E+02 0.  0.
        -12    1    1    2    0    0  0.72727469587E+00 -0.85590465318E+00 -0.36272333656E+00  0.11802836428E+01  0.00000000000E+00 0.  1.
         11    1    3    3    0    0 -0.21731943408E+02 -0.29099276638E+02 -0.29372813900E+01  0.36437245880E+02  0.51100000000E-03 0. -1.
        -11    1    3    3    0    0 -0.10238025367E+02  0.35733790013E+00 -0.11309327932E+01  0.10306496157E+02  0.51100000000E-03 0.  1.
        -12    1    3    3    0    0  0.31242694079E+02  0.29597843391E+02  0.44309375198E+01  0.43263974320E+02  0.00000000000E+00 0.  1.
</event>
<event>
 7    1  0.2497665E-015  0.9000720E+02  0.7816164E-02  0.1186340E+00
        -11   -1    0    0    0    0  0.00000000000E+00  0.00000000000E+00  0.45593999997E+02  0.45594000000E+02  0.51100000000E-03 0.  1.
         11   -1    0    0    0    0 -0.00000000000E+00 -0.00000000000E+00 -0.45593999997E+02  0.45594000000E+02  0.51100000000E-03 0. -1.
    9900012    2    1    2    0    0  0.80657136425E+00  0.85775438625E+00  0.89363132689E-01  0.90007201236E+02  0.89999455490E+02 0.  0.
        -12    1    1    2    0    0 -0.80657136425E+00 -0.85775438625E+00 -0.89363132689E-01  0.11807987645E+01  0.00000000000E+00 0.  1.
         11    1    3    3    0    0 -0.75603309096E+01 -0.76387843813E+01 -0.25026755528E+02  0.27236889008E+02  0.51100000000E-03 0. -1.
        -11    1    3    3    0    0  0.15733273410E+02 -0.74951844041E+01 -0.12359209710E+02  0.21365012202E+02  0.51100000000E-03 0.  1.
        -12    1    3    3    0    0 -0.73663711361E+01  0.15991723172E+02  0.37475328371E+02  0.41405300026E+02  0.00000000000E+00 0.  1.
</event>
<event>
 7    1  0.2497665E-015  0.9000769E+02  0.7816164E-02  0.1186339E+00
        -11   -1    0    0    0    0  0.00000000000E+00  0.00000000000E+00  0.45593999997E+02  0.45594000000E+02  0.51100000000E-03 0.  1.
         11   -1    0    0    0    0 -0.00000000000E+00 -0.00000000000E+00 -0.45593999997E+02  0.45594000000E+02  0.51100000000E-03 0. -1.
    9900012    2    1    2    0    0 -0.97585997835E+00  0.42272797486E+00 -0.51199321276E+00  0.90007687038E+02  0.89999947707E+02 0.  0.
        -12    1    1    2    0    0  0.97585997835E+00 -0.42272797486E+00  0.51199321276E+00  0.11803129619E+01  0.00000000000E+00 0.  1.
         11    1    3    3    0    0 -0.30917590046E+02  0.25026214214E+01 -0.22569798182E+02  0.38360869104E+02  0.51100000000E-03 0. -1.
        -11    1    3    3    0    0 -0.32990211058E+01 -0.74934187640E+01  0.15217866357E+02  0.17280576430E+02  0.51100000000E-03 0.  1.
        -12    1    3    3    0    0  0.33240751173E+02  0.54135253174E+01  0.68399386121E+01  0.34366241504E+02  0.00000000000E+00 0.  1.
</event>
<event>
 7    1  0.2497665E-015  0.9000768E+02  0.7816164E-02  0.1186339E+00
        -11   -1    0    0    0    0  0.00000000000E+00  0.00000000000E+00  0.45593999997E+02  0.45594000000E+02  0.51100000000E-03 0.  1.
         11   -1    0    0    0    0 -0.00000000000E+00 -0.00000000000E+00 -0.45593999997E+02  0.45594000000E+02  0.51100000000E-03 0. -1.
    9900012    2    1    2    0    0 -0.69144453900E+00 -0.43225120784E+00 -0.85335340726E+00  0.90007682799E+02  0.89999943412E+02 0.  0.
        -12    1    1    2    0    0  0.69144453900E+00  0.43225120784E+00  0.85335340726E+00  0.11803172010E+01  0.00000000000E+00 0.  1.
         11    1    3    3    0    0 -0.34144138012E+02 -0.18920097050E+01  0.20334819416E+02  0.39785760546E+02  0.51100000000E-03 0. -1.
        -11    1    3    3    0    0 -0.23676222238E+00  0.10612649328E+02 -0.45549393873E+01  0.11551270718E+02  0.51100000000E-03 0.  1.
        -12    1    3    3    0    0  0.33689455695E+02 -0.91528908308E+01 -0.16633233436E+02  0.38670651535E+02  0.00000000000E+00 0.  1.
</event>
<event>
 7    1  0.2497665E-015  0.9000770E+02  0.7816164E-02  0.1186339E+00
        -11   -1    0    0    0    0  0.00000000000E+00  0.00000000000E+00  0.45593999997E+02  0.45594000000E+02  0.51100000000E-03 0. -1.
         11   -1    0    0    0    0 -0.00000000000E+00 -0.00000000000E+00 -0.45593999997E+02  0.45594000000E+02  0.51100000000E-03 0.  1.
    9900012    2    1    2    0    0  0.59769435022E-01  0.11782962327E+01 -0.34110105619E-01  0.90007695846E+02  0.89999956631E+02 0.  0.
        -12    1    1    2    0    0 -0.59769435022E-01 -0.11782962327E+01  0.34110105619E-01  0.11803041543E+01  0.00000000000E+00 0.  1.
         11    1    3    3    0    0 -0.12369892017E+02 -0.22594609129E+02  0.25497832735E+02  0.36244586695E+02  0.51100000000E-03 0. -1.
        -11    1    3    3    0    0 -0.10025970668E+02  0.13574533247E+01  0.35506205602E+01  0.10722391244E+02  0.51100000000E-03 0.  1.
        -12    1    3    3    0    0  0.22455632120E+02  0.22415452037E+02 -0.29082563401E+02  0.43040717907E+02  0.00000000000E+00 0.  1.
</event>
<event>
 7    1  0.2497665E-015  0.9000769E+02  0.7816164E-02  0.1186339E+00
        -11   -1    0    0    0    0  0.00000000000E+00  0.00000000000E+00  0.45593999997E+02  0.45594000000E+02  0.51100000000E-03 0.  1.
         11   -1    0    0    0    0 -0.00000000000E+00 -0.00000000000E+00 -0.45593999997E+02  0.45594000000E+02  0.51100000000E-03 0. -1.
    9900012    2    1    2    0    0 -0.11555902054E+01  0.90275591916E-01 -0.22268977524E+00  0.90007691082E+02  0.89999951805E+02 0.  0.
        -12    1    1    2    0    0  0.11555902054E+01 -0.90275591916E-01  0.22268977524E+00  0.11803089178E+01  0.00000000000E+00 0.  1.
         11    1    3    3    0    0 -0.54683201091E+00  0.39589868156E+01  0.84576878717E+01  0.93544153345E+01  0.51100000000E-03 0. -1.
        -11    1    3    3    0    0  0.33282008207E+02 -0.12374803354E+02  0.14891014430E+02  0.38504157429E+02  0.51100000000E-03 0.  1.
         12    1    3    3    0    0 -0.33890766401E+02  0.85060921307E+01 -0.23571392077E+02  0.42149118319E+02  0.00000000000E+00 0. -1.
</event>
<event>
 7    1  0.2497665E-015  0.9000785E+02  0.7816164E-02  0.1186339E+00
        -11   -1    0    0    0    0  0.00000000000E+00  0.00000000000E+00  0.45593999997E+02  0.45594000000E+02  0.51100000000E-03 0. -1.
         11   -1    0    0    0    0 -0.00000000000E+00 -0.00000000000E+00 -0.45593999997E+02  0.45594000000E+02  0.51100000000E-03 0.  1.
    9900012    2    1    2    0    0 -0.40119570875E-01 -0.10156082402E+01  0.59973275830E+00  0.90007852103E+02  0.90000114951E+02 0.  0.
        -12    1    1    2    0    0  0.40119570875E-01  0.10156082402E+01 -0.59973275830E+00  0.11801478970E+01  0.00000000000E+00 0.  1.
         11    1    3    3    0    0 -0.28890444554E+02 -0.19756095414E+02  0.43091781116E+01  0.35263722276E+02  0.51100000000E-03 0. -1.
        -11    1    3    3    0    0 -0.59381292219E+01 -0.30758241160E+01 -0.11160168225E+02  0.13010435339E+02  0.51100000000E-03 0.  1.
        -12    1    3    3    0    0  0.34788454205E+02  0.21816311290E+02  0.74507228714E+01  0.41733694487E+02  0.00000000000E+00 0.  1.
</event>
<event>
 7    1  0.2497665E-015  0.9000773E+02  0.7816164E-02  0.1186339E+00
        -11   -1    0    0    0    0  0.00000000000E+00  0.00000000000E+00  0.45593999997E+02  0.45594000000E+02  0.51100000000E-03 0. -1.
         11   -1    0    0    0    0 -0.00000000000E+00 -0.00000000000E+00 -0.45593999997E+02  0.45594000000E+02  0.51100000000E-03 0.  1.
    9900012    2    1    2    0    0  0.60586985681E+00 -0.65651727786E+00  0.77132649904E+00  0.90007729782E+02  0.89999991015E+02 0.  0.
        -12    1    1    2    0    0 -0.60586985681E+00  0.65651727786E+00 -0.77132649904E+00  0.11802702181E+01  0.00000000000E+00 0.  1.
         11    1    3    3    0    0 -0.32554266874E+02 -0.17437226901E+02  0.18930196479E+01  0.36978651914E+02  0.51100000000E-03 0. -1.
        -11    1    3    3    0    0 -0.58121721187E+01  0.13504497329E+01 -0.85840137488E+01  0.10454202577E+02  0.51100000000E-03 0.  1.
        -12    1    3    3    0    0  0.38972308850E+02  0.15430259890E+02  0.74623206000E+01  0.42574875291E+02  0.00000000000E+00 0.  1.
</event>
<event>
 7    1  0.2497665E-015  0.9000796E+02  0.7816164E-02  0.1186339E+00
        -11   -1    0    0    0    0  0.00000000000E+00  0.00000000000E+00  0.45593999997E+02  0.45594000000E+02  0.51100000000E-03 0. -1.
         11   -1    0    0    0    0 -0.00000000000E+00 -0.00000000000E+00 -0.45593999997E+02  0.45594000000E+02  0.51100000000E-03 0.  1.
    9900012    2    1    2    0    0  0.78425763703E+00  0.29909124857E+00  0.82943957051E+00  0.90007963722E+02  0.90000228043E+02 0.  0.
        -12    1    1    2    0    0 -0.78425763703E+00 -0.29909124857E+00 -0.82943957051E+00  0.11800362780E+01  0.00000000000E+00 0.  1.
         11    1    3    3    0    0  0.25862383996E+02  0.11946296523E+02 -0.23910660647E+02  0.37192695512E+02  0.51100000000E-03 0. -1.
        -11    1    3    3    0    0  0.55481686972E+01 -0.10618056349E+02 -0.19989140729E+01  0.12145820444E+02  0.51100000000E-03 0.  1.
        -12    1    3    3    0    0 -0.30626295057E+02 -0.10291489256E+01  0.26739014291E+02  0.40669447767E+02  0.00000000000E+00 0.  1.
</event>
<event>
 7    1  0.2497665E-015  0.9000774E+02  0.7816164E-02  0.1186339E+00
        -11   -1    0    0    0    0  0.00000000000E+00  0.00000000000E+00  0.45593999997E+02  0.45594000000E+02  0.51100000000E-03 0.  1.
         11   -1    0    0    0    0 -0.00000000000E+00 -0.00000000000E+00 -0.45593999997E+02  0.45594000000E+02  0.51100000000E-03 0. -1.
    9900012    2    1    2    0    0 -0.10476355791E+01 -0.41529545995E+00 -0.35072405461E+00  0.90007738170E+02  0.89999999513E+02 0.  0.
        -12    1    1    2    0    0  0.10476355791E+01  0.41529545995E+00  0.35072405461E+00  0.11802618304E+01  0.00000000000E+00 0.  1.
         11    1    3    3    0    0  0.30451381856E+02  0.21400355131E+01 -0.22136787455E+02  0.37708139280E+02  0.51100000000E-03 0. -1.
        -11    1    3    3    0    0 -0.26733344124E+01 -0.64794105096E+01 -0.80188736163E+01  0.10650437163E+02  0.51100000000E-03 0.  1.
        -12    1    3    3    0    0 -0.28825683022E+02  0.39240795365E+01  0.29804937017E+02  0.41649161726E+02  0.00000000000E+00 0.  1.
</event>
<event>
 7    1  0.2497665E-015  0.9000769E+02  0.7816164E-02  0.1186339E+00
        -11   -1    0    0    0    0  0.00000000000E+00  0.00000000000E+00  0.45593999997E+02  0.45594000000E+02  0.51100000000E-03 0.  1.
         11   -1    0    0    0    0 -0.00000000000E+00 -0.00000000000E+00 -0.45593999997E+02  0.45594000000E+02  0.51100000000E-03 0. -1.
    9900012    2    1    2    0    0 -0.78539279178E-01 -0.10769254436E+01 -0.47665714839E+00  0.90007686963E+02  0.89999947630E+02 0.  0.
        -12    1    1    2    0    0  0.78539279178E-01  0.10769254436E+01  0.47665714839E+00  0.11803130375E+01  0.00000000000E+00 0.  1.
         11    1    3    3    0    0  0.29880102353E+02 -0.26669259425E+02 -0.13898354140E+02  0.42393798638E+02  0.51100000000E-03 0. -1.
        -11    1    3    3    0    0 -0.88274326774E+01  0.24838067903E+01 -0.58198270630E+01  0.10861088857E+02  0.51100000000E-03 0.  1.
        -12    1    3    3    0    0 -0.21131208954E+02  0.23108527191E+02  0.19241524055E+02  0.36752799468E+02  0.00000000000E+00 0.  1.
</event>
<event>
 7    1  0.2497665E-015  0.9000774E+02  0.7816164E-02  0.1186339E+00
        -11   -1    0    0    0    0  0.00000000000E+00  0.00000000000E+00  0.45593999997E+02  0.45594000000E+02  0.51100000000E-03 0. -1.
         11   -1    0    0    0    0 -0.00000000000E+00 -0.00000000000E+00 -0.45593999997E+02  0.45594000000E+02  0.51100000000E-03 0.  1.
    9900012    2    1    2    0    0  0.34241620367E+00  0.15925241523E+00  0.11182141524E+01  0.90007740249E+02  0.90000001621E+02 0.  0.
        -12    1    1    2    0    0 -0.34241620367E+00 -0.15925241523E+00 -0.11182141524E+01  0.11802597506E+01  0.00000000000E+00 0.  1.
         11    1    3    3    0    0  0.74185378065E+01 -0.13805548909E+02 -0.63825978265E+01  0.16922335511E+02  0.51100000000E-03 0. -1.
        -11    1    3    3    0    0 -0.10352440517E+02 -0.55917456462E+01 -0.29138549530E+02  0.31424444514E+02  0.51100000000E-03 0.  1.
         12    1    3    3    0    0  0.32763189140E+01  0.19556546970E+02  0.36639361509E+02  0.41660960225E+02  0.00000000000E+00 0. -1.
</event>
<event>
 7    1  0.2497665E-015  0.9000777E+02  0.7816164E-02  0.1186339E+00
        -11   -1    0    0    0    0  0.00000000000E+00  0.00000000000E+00  0.45593999997E+02  0.45594000000E+02  0.51100000000E-03 0. -1.
         11   -1    0    0    0    0 -0.00000000000E+00 -0.00000000000E+00 -0.45593999997E+02  0.45594000000E+02  0.51100000000E-03 0.  1.
    9900012    2    1    2    0    0 -0.71851011000E+00  0.67396122192E+00  0.64996456623E+00  0.90007773562E+02  0.90000035373E+02 0.  0.
        -12    1    1    2    0    0  0.71851011000E+00 -0.67396122192E+00 -0.64996456623E+00  0.11802264377E+01  0.00000000000E+00 0.  1.
         11    1    3    3    0    0  0.15796878337E+01 -0.12351684901E+02  0.38695606823E+02  0.40649840359E+02  0.51100000000E-03 0. -1.
        -11    1    3    3    0    0 -0.10738273669E+02 -0.53922315844E+00 -0.35171254749E+01  0.11312446900E+02  0.51100000000E-03 0.  1.
        -12    1    3    3    0    0  0.84400757251E+01  0.13564869281E+02 -0.34528516782E+02  0.38045486303E+02  0.00000000000E+00 0.  1.
</event>
<event>
 7    1  0.2497665E-015  0.9000732E+02  0.7816164E-02  0.1186340E+00
        -11   -1    0    0    0    0  0.00000000000E+00  0.00000000000E+00  0.45593999997E+02  0.45594000000E+02  0.51100000000E-03 0.  1.
         11   -1    0    0    0    0 -0.00000000000E+00 -0.00000000000E+00 -0.45593999997E+02  0.45594000000E+02  0.51100000000E-03 0. -1.
    9900012    2    1    2    0    0 -0.29349087871E+00  0.23060829015E+00 -0.11201330692E+01  0.90007315803E+02  0.89999571571E+02 0.  0.
        -12    1    1    2    0    0  0.29349087871E+00 -0.23060829015E+00  0.11201330692E+01  0.11806841966E+01  0.00000000000E+00 0.  1.
         11    1    3    3    0    0  0.20333186434E+01 -0.78526903420E+01  0.43637528253E+01  0.92109429102E+01  0.51100000000E-03 0. -1.
        -11    1    3    3    0    0  0.21657391973E+02 -0.29016494594E+02 -0.54730743415E+01  0.36619040520E+02  0.51100000000E-03 0.  1.
         12    1    3    3    0    0 -0.23984201495E+02  0.37099793226E+02 -0.10811553066E-01  0.44177332374E+02  0.00000000000E+00 0. -1.
</event>
<event>
 7    1  0.2497665E-015  0.9000786E+02  0.7816164E-02  0.1186339E+00
        -11   -1    0    0    0    0  0.00000000000E+00  0.00000000000E+00  0.45593999997E+02  0.45594000000E+02  0.51100000000E-03 0. -1.
         11   -1    0    0    0    0 -0.00000000000E+00 -0.00000000000E+00 -0.45593999997E+02  0.45594000000E+02  0.51100000000E-03 0.  1.
    9900012    2    1    2    0    0 -0.25579046371E+00 -0.68218168673E+00  0.92840758501E+00  0.90007855408E+02  0.90000118299E+02 0.  0.
        -12    1    1    2    0    0  0.25579046371E+00  0.68218168673E+00 -0.92840758501E+00  0.11801445924E+01  0.00000000000E+00 0.  1.
         11    1    3    3    0    0  0.66162731938E+00 -0.56578672835E+01 -0.77406379847E+01  0.96107590532E+01  0.51100000000E-03 0. -1.
        -11    1    3    3    0    0 -0.37202202592E+02  0.13259406600E+02 -0.68296338169E+01  0.40080664159E+02  0.51100000000E-03 0.  1.
         12    1    3    3    0    0  0.36284784809E+02 -0.82837210032E+01  0.15498679387E+02  0.40316432196E+02  0.00000000000E+00 0. -1.
</event>
<event>
 7    1  0.2497665E-015  0.9000772E+02  0.7816164E-02  0.1186339E+00
        -11   -1    0    0    0    0  0.00000000000E+00  0.00000000000E+00  0.45593999997E+02  0.45594000000E+02  0.51100000000E-03 0.  1.
         11   -1    0    0    0    0 -0.00000000000E+00 -0.00000000000E+00 -0.45593999997E+02  0.45594000000E+02  0.51100000000E-03 0. -1.
    9900012    2    1    2    0    0 -0.66345608181E+00  0.97444880005E+00  0.57671154742E-01  0.90007724440E+02  0.89999985602E+02 0.  0.
        -12    1    1    2    0    0  0.66345608181E+00 -0.97444880005E+00 -0.57671154742E-01  0.11802755604E+01  0.00000000000E+00 0.  1.
         11    1    3    3    0    0 -0.29127628766E+02  0.22153536092E+02 -0.71716040216E+01  0.37291149398E+02  0.51100000000E-03 0. -1.
        -11    1    3    3    0    0  0.24969438352E-01  0.89522340942E+01 -0.39755848191E+01  0.97953250923E+01  0.51100000000E-03 0.  1.
        -12    1    3    3    0    0  0.28439203246E+02 -0.30131321386E+02  0.11204859995E+02  0.42921249950E+02  0.00000000000E+00 0.  1.
</event>
<event>
 7    1  0.2497665E-015  0.9000779E+02  0.7816164E-02  0.1186339E+00
        -11   -1    0    0    0    0  0.00000000000E+00  0.00000000000E+00  0.45593999997E+02  0.45594000000E+02  0.51100000000E-03 0. -1.
         11   -1    0    0    0    0 -0.00000000000E+00 -0.00000000000E+00 -0.45593999997E+02  0.45594000000E+02  0.51100000000E-03 0.  1.
    9900012    2    1    2    0    0 -0.78063095985E+00 -0.56051882412E+00  0.68507202515E+00  0.90007792507E+02  0.90000054568E+02 0.  0.
        -12    1    1    2    0    0  0.78063095985E+00  0.56051882412E+00 -0.68507202515E+00  0.11802074933E+01  0.00000000000E+00 0.  1.
         11    1    3    3    0    0 -0.12036436648E+01 -0.70882852986E+01  0.41835899266E+01  0.83183514881E+01  0.51100000000E-03 0. -1.
        -11    1    3    3    0    0  0.38134395826E+02 -0.10471867598E+02 -0.70569327891E+01  0.40170791088E+02  0.51100000000E-03 0.  1.
         12    1    3    3    0    0 -0.37711383121E+02  0.16999634072E+02  0.35584148876E+01  0.41518649930E+02  0.00000000000E+00 0. -1.
</event>
<event>
 7    1  0.2497665E-015  0.9000756E+02  0.7816164E-02  0.1186339E+00
        -11   -1    0    0    0    0  0.00000000000E+00  0.00000000000E+00  0.45593999997E+02  0.45594000000E+02  0.51100000000E-03 0.  1.
         11   -1    0    0    0    0 -0.00000000000E+00 -0.00000000000E+00 -0.45593999997E+02  0.45594000000E+02  0.51100000000E-03 0. -1.
    9900012    2    1    2    0    0  0.16706681416E+00  0.71663827020E+00 -0.92301376000E+00  0.90007561043E+02  0.89999820048E+02 0.  0.
        -12    1    1    2    0    0 -0.16706681416E+00 -0.71663827020E+00  0.92301376000E+00  0.11804389573E+01  0.00000000000E+00 0.  1.
         11    1    3    3    0    0 -0.28305597518E+02  0.20655506686E+02 -0.16465237739E+02  0.38716415916E+02  0.51100000000E-03 0. -1.
        -11    1    3    3    0    0  0.39461342284E+00 -0.35805602889E+01 -0.95683594182E+01  0.10223973491E+02  0.51100000000E-03 0.  1.
        -12    1    3    3    0    0  0.28078050909E+02 -0.16358308127E+02  0.25110583397E+02  0.41067171636E+02  0.00000000000E+00 0.  1.
</event>
<event>
 7    1  0.2497665E-015  0.9000778E+02  0.7816164E-02  0.1186339E+00
        -11   -1    0    0    0    0  0.00000000000E+00  0.00000000000E+00  0.45593999997E+02  0.45594000000E+02  0.51100000000E-03 0. -1.
         11   -1    0    0    0    0 -0.00000000000E+00 -0.00000000000E+00 -0.45593999997E+02  0.45594000000E+02  0.51100000000E-03 0.  1.
    9900012    2    1    2    0    0  0.72221943442E+00  0.44722918914E+00  0.81933433402E+00  0.90007778152E+02  0.90000040024E+02 0.  0.
        -12    1    1    2    0    0 -0.72221943442E+00 -0.44722918914E+00 -0.81933433402E+00  0.11802218478E+01  0.00000000000E+00 0.  1.
         11    1    3    3    0    0  0.53701029715E+01 -0.57930851263E+00  0.68075213399E+01  0.86899914460E+01  0.51100000000E-03 0. -1.
        -11    1    3    3    0    0  0.59928279853E+00 -0.39608178902E+02  0.16175829688E+01  0.39645725503E+02  0.51100000000E-03 0.  1.
         12    1    3    3    0    0 -0.52471663357E+01  0.40634716603E+02 -0.76057699747E+01  0.41672061203E+02  0.00000000000E+00 0. -1.
</event>
<event>
 7    1  0.2497665E-015  0.9000759E+02  0.7816164E-02  0.1186339E+00
        -11   -1    0    0    0    0  0.00000000000E+00  0.00000000000E+00  0.45593999997E+02  0.45594000000E+02  0.51100000000E-03 0. -1.
         11   -1    0    0    0    0 -0.00000000000E+00 -0.00000000000E+00 -0.45593999997E+02  0.45594000000E+02  0.51100000000E-03 0.  1.
    9900012    2    1    2    0    0 -0.85185815614E+00 -0.78976670234E+00 -0.20970695085E+00  0.90007588729E+02  0.89999848101E+02 0.  0.
        -12    1    1    2    0    0  0.85185815614E+00  0.78976670234E+00  0.20970695085E+00  0.11804112705E+01  0.00000000000E+00 0.  1.
         11    1    3    3    0    0  0.21234821234E+02  0.10937404788E+01  0.25596370236E+02  0.33275938313E+02  0.51100000000E-03 0. -1.
        -11    1    3    3    0    0  0.11522523897E+02 -0.15576291786E+01  0.34957894537E+01  0.12141470660E+02  0.51100000000E-03 0.  1.
        -12    1    3    3    0    0 -0.33609203288E+02 -0.32587800256E+00 -0.29301866640E+02  0.44590179757E+02  0.00000000000E+00 0.  1.
</event>
<event>
 7    1  0.2497665E-015  0.9000815E+02  0.7816164E-02  0.1186338E+00
        -11   -1    0    0    0    0  0.00000000000E+00  0.00000000000E+00  0.45593999997E+02  0.45594000000E+02  0.51100000000E-03 0.  1.
         11   -1    0    0    0    0 -0.00000000000E+00 -0.00000000000E+00 -0.45593999997E+02  0.45594000000E+02  0.51100000000E-03 0. -1.
    9900012    2    1    2    0    0  0.39559662217E+00  0.74451378305E+00  0.82537665202E+00  0.90008150824E+02  0.90000417614E+02 0.  0.
        -12    1    1    2    0    0 -0.39559662217E+00 -0.74451378305E+00 -0.82537665202E+00  0.11798491761E+01  0.00000000000E+00 0.  1.
         11    1    3    3    0    0  0.21441208147E+01  0.97979452844E+01 -0.15323556345E+01  0.10146186472E+02  0.51100000000E-03 0. -1.
        -11    1    3    3    0    0  0.34583080267E+02 -0.19574128600E+02  0.10647348357E+02  0.41140028907E+02  0.51100000000E-03 0.  1.
         12    1    3    3    0    0 -0.36331604459E+02  0.10520697099E+02 -0.82896160705E+01  0.38721935445E+02  0.00000000000E+00 0. -1.
</event>
<event>
 7    1  0.2497665E-015  0.9000783E+02  0.7816164E-02  0.1186339E+00
        -11   -1    0    0    0    0  0.00000000000E+00  0.00000000000E+00  0.45593999997E+02  0.45594000000E+02  0.51100000000E-03 0.  1.
         11   -1    0    0    0    0 -0.00000000000E+00 -0.00000000000E+00 -0.45593999997E+02  0.45594000000E+02  0.51100000000E-03 0. -1.
    9900012    2    1    2    0    0 -0.79821850457E+00 -0.53494951931E+00  0.68518912679E+00  0.90007827170E+02  0.90000089689E+02 0.  0.
        -12    1    1    2    0    0  0.79821850457E+00  0.53494951931E+00 -0.68518912679E+00  0.11801728300E+01  0.00000000000E+00 0.  1.
         11    1    3    3    0    0  0.37200493281E+01  0.35265656682E+02  0.12296360313E+02  0.37532729523E+02  0.51100000000E-03 0. -1.
        -11    1    3    3    0    0  0.12124999222E+02 -0.70166423996E+01  0.55379285934E+01  0.15063782064E+02  0.51100000000E-03 0.  1.
        -12    1    3    3    0    0 -0.16643267055E+02 -0.28783963802E+02 -0.17149099780E+02  0.37411315583E+02  0.00000000000E+00 0.  1.
</event>
<event>
 7    1  0.2497665E-015  0.9000773E+02  0.7816164E-02  0.1186339E+00
        -11   -1    0    0    0    0  0.00000000000E+00  0.00000000000E+00  0.45593999997E+02  0.45594000000E+02  0.51100000000E-03 0.  1.
         11   -1    0    0    0    0 -0.00000000000E+00 -0.00000000000E+00 -0.45593999997E+02  0.45594000000E+02  0.51100000000E-03 0. -1.
    9900012    2    1    2    0    0 -0.10192935221E-01  0.10917239931E+01 -0.44841796864E+00  0.90007727215E+02  0.89999988414E+02 0.  0.
        -12    1    1    2    0    0  0.10192935221E-01 -0.10917239931E+01  0.44841796864E+00  0.11802727853E+01  0.00000000000E+00 0.  1.
         11    1    3    3    0    0  0.69136575723E+01 -0.59772016429E+01 -0.42951500504E+01  0.10098213442E+02  0.51100000000E-03 0. -1.
        -11    1    3    3    0    0 -0.84083757211E+01 -0.24930078797E+02  0.29018104060E+02  0.39169630769E+02  0.51100000000E-03 0.  1.
         12    1    3    3    0    0  0.14845252136E+01  0.31999004433E+02 -0.25171371978E+02  0.40739883003E+02  0.00000000000E+00 0. -1.
</event>
<event>
 7    1  0.2497665E-015  0.9000771E+02  0.7816164E-02  0.1186339E+00
        -11   -1    0    0    0    0  0.00000000000E+00  0.00000000000E+00  0.45593999997E+02  0.45594000000E+02  0.51100000000E-03 0. -1.
         11   -1    0    0    0    0 -0.00000000000E+00 -0.00000000000E+00 -0.45593999997E+02  0.45594000000E+02  0.51100000000E-03 0.  1.
    9900012    2    1    2    0    0  0.51984114202E+00  0.10030106526E+01  0.34180405426E+00  0.90007705463E+02  0.89999966375E+02 0.  0.
        -12    1    1    2    0    0 -0.51984114202E+00 -0.10030106526E+01 -0.34180405426E+00  0.11802945368E+01  0.00000000000E+00 0.  1.
         11    1    3    3    0    0 -0.19264830635E+01 -0.56264720848E+01 -0.84675536705E+01  0.10347366358E+02  0.51100000000E-03 0. -1.
        -11    1    3    3    0    0 -0.23365369437E+02  0.34183667791E+02  0.52456449953E+01  0.41737038997E+02  0.51100000000E-03 0.  1.
         12    1    3    3    0    0  0.25811693643E+02 -0.27554185054E+02  0.35637127294E+01  0.37923300108E+02  0.00000000000E+00 0. -1.
</event>
<event>
 7    1  0.2497665E-015  0.9000771E+02  0.7816164E-02  0.1186339E+00
        -11   -1    0    0    0    0  0.00000000000E+00  0.00000000000E+00  0.45593999997E+02  0.45594000000E+02  0.51100000000E-03 0.  1.
         11   -1    0    0    0    0 -0.00000000000E+00 -0.00000000000E+00 -0.45593999997E+02  0.45594000000E+02  0.51100000000E-03 0. -1.
    9900012    2    1    2    0    0 -0.24164261970E+00 -0.11386411658E+01 -0.19541584089E+00  0.90007710963E+02  0.89999971948E+02 0.  0.
        -12    1    1    2    0    0  0.24164261970E+00  0.11386411658E+01  0.19541584089E+00  0.11802890370E+01  0.00000000000E+00 0.  1.
         11    1    3    3    0    0 -0.10548335885E+02 -0.29069424393E+01 -0.37643992585E+00  0.10948032315E+02  0.51100000000E-03 0. -1.
        -11    1    3    3    0    0 -0.33990832731E+02  0.18684617371E+01 -0.51977730658E+01  0.34436676729E+02  0.51100000000E-03 0.  1.
         12    1    3    3    0    0  0.44297525996E+02 -0.10016046362E+00  0.53787971508E+01  0.44623001919E+02  0.00000000000E+00 0. -1.
</event>
<event>
 7    1  0.2497665E-015  0.9000776E+02  0.7816164E-02  0.1186339E+00
        -11   -1    0    0    0    0  0.00000000000E+00  0.00000000000E+00  0.45593999997E+02  0.45594000000E+02  0.51100000000E-03 0. -1.
         11   -1    0    0    0    0 -0.00000000000E+00 -0.00000000000E+00 -0.45593999997E+02  0.45594000000E+02  0.51100000000E-03 0.  1.
    9900012    2    1    2    0    0 -0.46157398758E+00 -0.34357325491E+00  0.10304675723E+01  0.90007764199E+02  0.90000025887E+02 0.  0.
        -12    1    1    2    0    0  0.46157398758E+00  0.34357325491E+00 -0.10304675723E+01  0.11802358007E+01  0.00000000000E+00 0.  1.
         11    1    3    3    0    0 -0.25244472856E+01 -0.32125694485E+00  0.91275213876E+01  0.94756364992E+01  0.51100000000E-03 0. -1.
        -11    1    3    3    0    0  0.18369517638E+02 -0.33525437027E+02  0.94011340611E+01  0.39367187200E+02  0.51100000000E-03 0.  1.
         12    1    3    3    0    0 -0.16306644340E+02  0.33503120717E+02 -0.17498187876E+02  0.41164940500E+02  0.00000000000E+00 0. -1.
</event>
<event>
 7    1  0.2497665E-015  0.9000770E+02  0.7816164E-02  0.1186339E+00
        -11   -1    0    0    0    0  0.00000000000E+00  0.00000000000E+00  0.45593999997E+02  0.45594000000E+02  0.51100000000E-03 0. -1.
         11   -1    0    0    0    0 -0.00000000000E+00 -0.00000000000E+00 -0.45593999997E+02  0.45594000000E+02  0.51100000000E-03 0.  1.
    9900012    2    1    2    0    0  0.25309026024E+00 -0.10135514778E+01  0.54934126612E+00  0.90007696181E+02  0.89999956971E+02 0.  0.
        -12    1    1    2    0    0 -0.25309026024E+00  0.10135514778E+01 -0.54934126612E+00  0.11803038188E+01  0.00000000000E+00 0.  1.
         11    1    3    3    0    0 -0.50362761187E+01  0.26322392567E+02  0.28084973519E+02  0.38820074258E+02  0.51100000000E-03 0. -1.
        -11    1    3    3    0    0 -0.81012571162E+01 -0.10184656319E+01  0.30106589102E+01  0.87023965918E+01  0.51100000000E-03 0.  1.
        -12    1    3    3    0    0  0.13390623495E+02 -0.26317478413E+02 -0.30546291164E+02  0.42485225331E+02  0.00000000000E+00 0.  1.
</event>
<event>
 7    1  0.2497665E-015  0.9000761E+02  0.7816164E-02  0.1186339E+00
        -11   -1    0    0    0    0  0.00000000000E+00  0.00000000000E+00  0.45593999997E+02  0.45594000000E+02  0.51100000000E-03 0. -1.
         11   -1    0    0    0    0 -0.00000000000E+00 -0.00000000000E+00 -0.45593999997E+02  0.45594000000E+02  0.51100000000E-03 0.  1.
    9900012    2    1    2    0    0  0.70623275064E+00 -0.90431355087E+00  0.27707461054E+00  0.90007611066E+02  0.89999870732E+02 0.  0.
        -12    1    1    2    0    0 -0.70623275064E+00  0.90431355087E+00 -0.27707461054E+00  0.11803889343E+01  0.00000000000E+00 0.  1.
         11    1    3    3    0    0 -0.38379511730E+02 -0.16269218386E+02 -0.75492939005E+01  0.42363501109E+02  0.51100000000E-03 0. -1.
        -11    1    3    3    0    0  0.89949185482E+01 -0.10445764678E+01 -0.58075093383E+01  0.10757642152E+02  0.51100000000E-03 0.  1.
        -12    1    3    3    0    0  0.30090825933E+02  0.16409481303E+02  0.13633877849E+02  0.36886467805E+02  0.00000000000E+00 0.  1.
</event>
<event>
 7    1  0.2497665E-015  0.9000752E+02  0.7816164E-02  0.1186339E+00
        -11   -1    0    0    0    0  0.00000000000E+00  0.00000000000E+00  0.45593999997E+02  0.45594000000E+02  0.51100000000E-03 0.  1.
         11   -1    0    0    0    0 -0.00000000000E+00 -0.00000000000E+00 -0.45593999997E+02  0.45594000000E+02  0.51100000000E-03 0. -1.
    9900012    2    1    2    0    0  0.90819365048E+00  0.71712782248E+00  0.23331656455E+00  0.90007523554E+02  0.89999782065E+02 0.  0.
        -12    1    1    2    0    0 -0.90819365048E+00 -0.71712782248E+00 -0.23331656455E+00  0.11804764461E+01  0.00000000000E+00 0.  1.
         11    1    3    3    0    0  0.58740152392E+01  0.58278437144E+01  0.13619707377E+01  0.83858679898E+01  0.51100000000E-03 0. -1.
        -11    1    3    3    0    0  0.22115953394E+02  0.24471412354E+01  0.31489652725E+02  0.38557776437E+02  0.51100000000E-03 0.  1.
         12    1    3    3    0    0 -0.27081774983E+02 -0.75578571274E+01 -0.32618306898E+02  0.43063879127E+02  0.00000000000E+00 0. -1.
</event>
<event>
 7    1  0.2497665E-015  0.9000767E+02  0.7816164E-02  0.1186339E+00
        -11   -1    0    0    0    0  0.00000000000E+00  0.00000000000E+00  0.45593999997E+02  0.45594000000E+02  0.51100000000E-03 0. -1.
         11   -1    0    0    0    0 -0.00000000000E+00 -0.00000000000E+00 -0.45593999997E+02  0.45594000000E+02  0.51100000000E-03 0.  1.
    9900012    2    1    2    0    0  0.33769608008E+00  0.11102943854E+01 -0.21537951780E+00  0.90007669283E+02  0.89999929718E+02 0.  0.
        -12    1    1    2    0    0 -0.33769608008E+00 -0.11102943854E+01  0.21537951780E+00  0.11803307170E+01  0.00000000000E+00 0.  1.
         11    1    3    3    0    0  0.97141844628E+00 -0.10548202094E+02 -0.22266596945E+00  0.10595178224E+02  0.51100000000E-03 0. -1.
        -11    1    3    3    0    0 -0.32906034509E+02  0.28024648147E+02  0.44628055266E+00  0.43224844447E+02  0.51100000000E-03 0.  1.
         12    1    3    3    0    0  0.32272312143E+02 -0.16366151668E+02 -0.43899410102E+00  0.36187646612E+02  0.00000000000E+00 0. -1.
</event>
<event>
 7    1  0.2497665E-015  0.9000771E+02  0.7816164E-02  0.1186339E+00
        -11   -1    0    0    0    0  0.00000000000E+00  0.00000000000E+00  0.45593999997E+02  0.45594000000E+02  0.51100000000E-03 0.  1.
         11   -1    0    0    0    0 -0.00000000000E+00 -0.00000000000E+00 -0.45593999997E+02  0.45594000000E+02  0.51100000000E-03 0. -1.
    9900012    2    1    2    0    0  0.11694758997E+01  0.14845992116E-01 -0.15869546134E+00  0.90007712521E+02  0.89999973526E+02 0.  0.
        -12    1    1    2    0    0 -0.11694758997E+01 -0.14845992116E-01  0.15869546134E+00  0.11802874790E+01  0.00000000000E+00 0.  1.
         11    1    3    3    0    0  0.20252169402E+01 -0.76234528012E+01  0.27790172063E+01  0.83631018863E+01  0.51100000000E-03 0. -1.
        -11    1    3    3    0    0 -0.13406753293E+02 -0.22263468025E+02  0.27024379337E+02  0.37492934283E+02  0.51100000000E-03 0.  1.
         12    1    3    3    0    0  0.12551012252E+02  0.29901766818E+02 -0.29962092004E+02  0.44151676352E+02  0.00000000000E+00 0. -1.
</event>
<event>
 7    1  0.2497665E-015  0.9000771E+02  0.7816164E-02  0.1186339E+00
        -11   -1    0    0    0    0  0.00000000000E+00  0.00000000000E+00  0.45593999997E+02  0.45594000000E+02  0.51100000000E-03 0.  1.
         11   -1    0    0    0    0 -0.00000000000E+00 -0.00000000000E+00 -0.45593999997E+02  0.45594000000E+02  0.51100000000E-03 0. -1.
    9900012    2    1    2    0    0 -0.59391618956E+00 -0.89598724636E+00 -0.48740741375E+00  0.90007705303E+02  0.89999966213E+02 0.  0.
        -12    1    1    2    0    0  0.59391618956E+00  0.89598724636E+00  0.48740741375E+00  0.11802946975E+01  0.00000000000E+00 0.  1.
         11    1    3    3    0    0  0.82237052345E+01 -0.53779796370E+01 -0.71253745677E+00  0.98518882783E+01  0.51100000000E-03 0. -1.
        -11    1    3    3    0    0 -0.15783885199E+02 -0.30022193422E+02  0.20403114818E+02  0.39582195801E+02  0.51100000000E-03 0.  1.
         12    1    3    3    0    0  0.69662637754E+01  0.34504185813E+02 -0.20177984775E+02  0.40573621223E+02  0.00000000000E+00 0. -1.
</event>
<event>
 7    1  0.2497665E-015  0.9000675E+02  0.7816164E-02  0.1186341E+00
        -11   -1    0    0    0    0  0.00000000000E+00  0.00000000000E+00  0.45593999997E+02  0.45594000000E+02  0.51100000000E-03 0.  1.
         11   -1    0    0    0    0 -0.00000000000E+00 -0.00000000000E+00 -0.45593999997E+02  0.45594000000E+02  0.51100000000E-03 0. -1.
    9900012    2    1    2    0    0  0.68804020329E+00 -0.66140649274E+00 -0.69606285990E+00  0.90006745847E+02  0.89998994086E+02 0.  0.
        -12    1    1    2    0    0 -0.68804020329E+00  0.66140649274E+00  0.69606285990E+00  0.11812541534E+01  0.00000000000E+00 0.  1.
         11    1    3    3    0    0  0.72473253575E+01 -0.21819111220E+01  0.66369443732E+01  0.10066453787E+02  0.51100000000E-03 0. -1.
        -11    1    3    3    0    0  0.33242529549E+02 -0.14563762716E+02 -0.72574991096E+01  0.37011352972E+02  0.51100000000E-03 0.  1.
         12    1    3    3    0    0 -0.39801814703E+02  0.16084267345E+02 -0.75508123531E-01  0.42928939087E+02  0.00000000000E+00 0. -1.
</event>
<event>
 7    1  0.2497665E-015  0.9000798E+02  0.7816164E-02  0.1186339E+00
        -11   -1    0    0    0    0  0.00000000000E+00  0.00000000000E+00  0.45593999997E+02  0.45594000000E+02  0.51100000000E-03 0. -1.
         11   -1    0    0    0    0 -0.00000000000E+00 -0.00000000000E+00 -0.45593999997E+02  0.45594000000E+02  0.51100000000E-03 0.  1.
    9900012    2    1    2    0    0  0.70041068187E+00 -0.26861731525E+00 -0.91088551436E+00  0.90007981862E+02  0.90000246422E+02 0.  0.
        -12    1    1    2    0    0 -0.70041068187E+00  0.26861731525E+00  0.91088551436E+00  0.11800181378E+01  0.00000000000E+00 0.  1.
         11    1    3    3    0    0  0.25333219355E+02  0.27085123111E+02  0.12780237668E+02  0.39226398916E+02  0.51100000000E-03 0. -1.
        -11    1    3    3    0    0  0.73504468546E+01 -0.26089770896E+01 -0.54425021039E+01  0.95108706136E+01  0.51100000000E-03 0.  1.
        -12    1    3    3    0    0 -0.31983255528E+02 -0.24744763336E+02 -0.82486210787E+01  0.41270712332E+02  0.00000000000E+00 0.  1.
</event>
<event>
 7    1  0.2497665E-015  0.9000748E+02  0.7816164E-02  0.1186340E+00
        -11   -1    0    0    0    0  0.00000000000E+00  0.00000000000E+00  0.45593999997E+02  0.45594000000E+02  0.51100000000E-03 0. -1.
         11   -1    0    0    0    0 -0.00000000000E+00 -0.00000000000E+00 -0.45593999997E+02  0.45594000000E+02  0.51100000000E-03 0.  1.
    9900012    2    1    2    0    0  0.91807991873E+00 -0.73810954938E-01  0.73844415716E+00  0.90007483771E+02  0.89999741756E+02 0.  0.
        -12    1    1    2    0    0 -0.91807991873E+00  0.73810954938E-01 -0.73844415716E+00  0.11805162292E+01  0.00000000000E+00 0.  1.
         11    1    3    3    0    0  0.31387837658E+01  0.56407262940E+00  0.72814881876E+01  0.79492271289E+01  0.51100000000E-03 0. -1.
        -11    1    3    3    0    0 -0.22430706044E+02  0.22975354967E+02  0.22747478567E+02  0.39350365829E+02  0.51100000000E-03 0.  1.
         12    1    3    3    0    0  0.20210002197E+02 -0.23613238551E+02 -0.29290522597E+02  0.42707890813E+02  0.00000000000E+00 0. -1.
</event>
<event>
 7    1  0.2497665E-015  0.9000774E+02  0.7816164E-02  0.1186339E+00
        -11   -1    0    0    0    0  0.00000000000E+00  0.00000000000E+00  0.45593999997E+02  0.45594000000E+02  0.51100000000E-03 0.  1.
         11   -1    0    0    0    0 -0.00000000000E+00 -0.00000000000E+00 -0.45593999997E+02  0.45594000000E+02  0.51100000000E-03 0. -1.
    9900012    2    1    2    0    0  0.97957410342E+00 -0.62606283326E+00 -0.20368197487E+00  0.90007743061E+02  0.90000004469E+02 0.  0.
        -12    1    1    2    0    0 -0.97957410342E+00  0.62606283326E+00  0.20368197487E+00  0.11802569390E+01  0.00000000000E+00 0.  1.
         11    1    3    3    0    0  0.14009840417E+01 -0.29487655566E+01 -0.88007346266E+01  0.93867409052E+01  0.51100000000E-03 0. -1.
        -11    1    3    3    0    0  0.23001887435E+02 -0.27826139199E+02 -0.10953964246E+02  0.37727578524E+02  0.51100000000E-03 0.  1.
         12    1    3    3    0    0 -0.23423297374E+02  0.30148841922E+02  0.19551016898E+02  0.42893423632E+02  0.00000000000E+00 0. -1.
</event>
<event>
 7    1  0.2497665E-015  0.9000776E+02  0.7816164E-02  0.1186339E+00
        -11   -1    0    0    0    0  0.00000000000E+00  0.00000000000E+00  0.45593999997E+02  0.45594000000E+02  0.51100000000E-03 0.  1.
         11   -1    0    0    0    0 -0.00000000000E+00 -0.00000000000E+00 -0.45593999997E+02  0.45594000000E+02  0.51100000000E-03 0. -1.
    9900012    2    1    2    0    0  0.46866289619E+00 -0.23452778441E+00 -0.10575042635E+01  0.90007761270E+02  0.90000022919E+02 0.  0.
        -12    1    1    2    0    0 -0.46866289619E+00  0.23452778441E+00  0.10575042635E+01  0.11802387298E+01  0.00000000000E+00 0.  1.
         11    1    3    3    0    0  0.63930706544E+01 -0.62173025623E+00  0.76731837828E+01  0.10006780228E+02  0.51100000000E-03 0. -1.
        -11    1    3    3    0    0 -0.27489470973E+02 -0.30739187379E+02 -0.45584416686E+00  0.41240471012E+02  0.51100000000E-03 0.  1.
         12    1    3    3    0    0  0.21565063215E+02  0.31126389851E+02 -0.82748438795E+01  0.38760510031E+02  0.00000000000E+00 0. -1.
</event>
<event>
 7    1  0.2497665E-015  0.9000766E+02  0.7816164E-02  0.1186339E+00
        -11   -1    0    0    0    0  0.00000000000E+00  0.00000000000E+00  0.45593999997E+02  0.45594000000E+02  0.51100000000E-03 0.  1.
         11   -1    0    0    0    0 -0.00000000000E+00 -0.00000000000E+00 -0.45593999997E+02  0.45594000000E+02  0.51100000000E-03 0. -1.
    9900012    2    1    2    0    0  0.83468276789E+00 -0.61676687952E+00 -0.56222968372E+00  0.90007661521E+02  0.89999921853E+02 0.  0.
        -12    1    1    2    0    0 -0.83468276789E+00  0.61676687952E+00  0.56222968372E+00  0.11803384786E+01  0.00000000000E+00 0.  1.
         11    1    3    3    0    0 -0.32175748586E+02 -0.21870486642E+02 -0.53645794970E+00  0.38908672175E+02  0.51100000000E-03 0. -1.
        -11    1    3    3    0    0 -0.99036510877E+00 -0.47535919905E+01  0.61640461966E+01  0.78468417618E+01  0.51100000000E-03 0.  1.
        -12    1    3    3    0    0  0.34000796463E+02  0.26007311753E+02 -0.61898179306E+01  0.43252147585E+02  0.00000000000E+00 0.  1.
</event>
<event>
 7    1  0.2497665E-015  0.9000787E+02  0.7816164E-02  0.1186339E+00
        -11   -1    0    0    0    0  0.00000000000E+00  0.00000000000E+00  0.45593999997E+02  0.45594000000E+02  0.51100000000E-03 0. -1.
         11   -1    0    0    0    0 -0.00000000000E+00 -0.00000000000E+00 -0.45593999997E+02  0.45594000000E+02  0.51100000000E-03 0.  1.
    9900012    2    1    2    0    0  0.61055887844E+00  0.65899218713E+00  0.76528625211E+00  0.90007866154E+02  0.90000129187E+02 0.  0.
        -12    1    1    2    0    0 -0.61055887844E+00 -0.65899218713E+00 -0.76528625211E+00  0.11801338460E+01  0.00000000000E+00 0.  1.
         11    1    3    3    0    0  0.37343272618E+02 -0.10825242133E+02  0.37506277146E+01  0.39061145472E+02  0.51100000000E-03 0. -1.
        -11    1    3    3    0    0 -0.20048580493E+01 -0.93149058541E+01  0.30826562484E+01  0.10014474358E+02  0.51100000000E-03 0.  1.
        -12    1    3    3    0    0 -0.34727855690E+02  0.20799140175E+02 -0.60679977109E+01  0.40932246323E+02  0.00000000000E+00 0.  1.
</event>
<event>
 7    1  0.2497665E-015  0.9000774E+02  0.7816164E-02  0.1186339E+00
        -11   -1    0    0    0    0  0.00000000000E+00  0.00000000000E+00  0.45593999997E+02  0.45594000000E+02  0.51100000000E-03 0. -1.
         11   -1    0    0    0    0 -0.00000000000E+00 -0.00000000000E+00 -0.45593999997E+02  0.45594000000E+02  0.51100000000E-03 0.  1.
    9900012    2    1    2    0    0 -0.24503551068E+00  0.11443183826E+01  0.15330623888E+00  0.90007741653E+02  0.90000003043E+02 0.  0.
        -12    1    1    2    0    0  0.24503551068E+00 -0.11443183826E+01 -0.15330623888E+00  0.11802583468E+01  0.00000000000E+00 0.  1.
         11    1    3    3    0    0  0.14746574938E+02 -0.17188618854E+02  0.33694730028E+02  0.40598582764E+02  0.51100000000E-03 0. -1.
        -11    1    3    3    0    0 -0.85775887821E+01 -0.20064916944E+01  0.94647050265E+00  0.88598445194E+01  0.51100000000E-03 0.  1.
        -12    1    3    3    0    0 -0.64140216668E+01  0.20339428931E+02 -0.34487894292E+02  0.40549314370E+02  0.00000000000E+00 0.  1.
</event>
<event>
 7    1  0.2497665E-015  0.9000777E+02  0.7816164E-02  0.1186339E+00
        -11   -1    0    0    0    0  0.00000000000E+00  0.00000000000E+00  0.45593999997E+02  0.45594000000E+02  0.51100000000E-03 0. -1.
         11   -1    0    0    0    0 -0.00000000000E+00 -0.00000000000E+00 -0.45593999997E+02  0.45594000000E+02  0.51100000000E-03 0.  1.
    9900012    2    1    2    0    0  0.63104820624E+00 -0.43516571586E+00  0.89742014749E+00  0.90007765295E+02  0.90000026996E+02 0.  0.
        -12    1    1    2    0    0 -0.63104820624E+00  0.43516571586E+00 -0.89742014749E+00  0.11802347055E+01  0.00000000000E+00 0.  1.
         11    1    3    3    0    0  0.38961409215E+02  0.14115528652E+01  0.29117081219E+01  0.39095548774E+02  0.51100000000E-03 0. -1.
        -11    1    3    3    0    0  0.23301547504E+01  0.19293909895E+01 -0.89898528435E+01  0.94852319508E+01  0.51100000000E-03 0.  1.
        -12    1    3    3    0    0 -0.40660515759E+02 -0.37761095706E+01  0.69755648691E+01  0.41426984570E+02  0.00000000000E+00 0.  1.
</event>
<event>
 7    1  0.2497665E-015  0.9000775E+02  0.7816164E-02  0.1186339E+00
        -11   -1    0    0    0    0  0.00000000000E+00  0.00000000000E+00  0.45593999997E+02  0.45594000000E+02  0.51100000000E-03 0. -1.
         11   -1    0    0    0    0 -0.00000000000E+00 -0.00000000000E+00 -0.45593999997E+02  0.45594000000E+02  0.51100000000E-03 0.  1.
    9900012    2    1    2    0    0 -0.11502984266E+01 -0.23942100985E+00  0.11174495807E+00  0.90007747558E+02  0.90000009026E+02 0.  0.
        -12    1    1    2    0    0  0.11502984266E+01  0.23942100985E+00 -0.11174495807E+00  0.11802524415E+01  0.00000000000E+00 0.  1.
         11    1    3    3    0    0 -0.27436211698E+02 -0.32823476181E+02  0.16228640215E+01  0.42810746184E+02  0.51100000000E-03 0. -1.
        -11    1    3    3    0    0 -0.31109713419E+01  0.88185454659E+01 -0.84544982226E+00  0.93893382348E+01  0.51100000000E-03 0.  1.
        -12    1    3    3    0    0  0.29396884613E+02  0.23765509705E+02 -0.66566924117E+00  0.37807663139E+02  0.00000000000E+00 0.  1.
</event>
<event>
 7    1  0.2497665E-015  0.9000772E+02  0.7816164E-02  0.1186339E+00
        -11   -1    0    0    0    0  0.00000000000E+00  0.00000000000E+00  0.45593999997E+02  0.45594000000E+02  0.51100000000E-03 0.  1.
         11   -1    0    0    0    0 -0.00000000000E+00 -0.00000000000E+00 -0.45593999997E+02  0.45594000000E+02  0.51100000000E-03 0. -1.
    9900012    2    1    2    0    0  0.35107302180E+00  0.38902989387E+00 -0.10575763225E+01  0.90007718592E+02  0.89999979677E+02 0.  0.
        -12    1    1    2    0    0 -0.35107302180E+00 -0.38902989387E+00  0.10575763225E+01  0.11802814083E+01  0.00000000000E+00 0.  1.
         11    1    3    3    0    0  0.26514476498E+01 -0.19063194106E+01 -0.95357574947E+01  0.10079429527E+02  0.51100000000E-03 0. -1.
        -11    1    3    3    0    0  0.25458506210E+02  0.82215116596E+01  0.32955429457E+02  0.42447486655E+02  0.51100000000E-03 0.  1.
         12    1    3    3    0    0 -0.27758880838E+02 -0.59261623551E+01 -0.24477248285E+02  0.37480802409E+02  0.00000000000E+00 0. -1.
</event>
<event>
 7    1  0.2497665E-015  0.9000770E+02  0.7816164E-02  0.1186339E+00
        -11   -1    0    0    0    0  0.00000000000E+00  0.00000000000E+00  0.45593999997E+02  0.45594000000E+02  0.51100000000E-03 0.  1.
         11   -1    0    0    0    0 -0.00000000000E+00 -0.00000000000E+00 -0.45593999997E+02  0.45594000000E+02  0.51100000000E-03 0. -1.
    9900012    2    1    2    0    0  0.27619765730E+00 -0.26972374955E+00 -0.11153773069E+01  0.90007702333E+02  0.89999963203E+02 0.  0.
        -12    1    1    2    0    0 -0.27619765730E+00  0.26972374955E+00  0.11153773069E+01  0.11802976674E+01  0.00000000000E+00 0.  1.
         11    1    3    3    0    0 -0.14532778396E+01  0.61704111960E+01  0.67247027383E+01  0.92416242072E+01  0.51100000000E-03 0. -1.
        -11    1    3    3    0    0 -0.80176393398E+01  0.34812136449E+02  0.58982837631E+01  0.36207142063E+02  0.51100000000E-03 0.  1.
         12    1    3    3    0    0  0.97471148367E+01 -0.41252271395E+02 -0.13738363808E+02  0.44558936062E+02  0.00000000000E+00 0. -1.
</event>
<event>
 7    1  0.2497665E-015  0.9000711E+02  0.7816164E-02  0.1186340E+00
        -11   -1    0    0    0    0  0.00000000000E+00  0.00000000000E+00  0.45593999997E+02  0.45594000000E+02  0.51100000000E-03 0.  1.
         11   -1    0    0    0    0 -0.00000000000E+00 -0.00000000000E+00 -0.45593999997E+02  0.45594000000E+02  0.51100000000E-03 0. -1.
    9900012    2    1    2    0    0 -0.22371940433E+00  0.90339585020E+00 -0.72686062132E+00  0.90007110167E+02  0.89999363219E+02 0.  0.
        -12    1    1    2    0    0  0.22371940433E+00 -0.90339585020E+00  0.72686062132E+00  0.11808898326E+01  0.00000000000E+00 0.  1.
         11    1    3    3    0    0 -0.62593735111E+01 -0.56492354965E+01  0.29048097029E+01  0.89180456445E+01  0.51100000000E-03 0. -1.
        -11    1    3    3    0    0  0.39570369625E+02 -0.80000454574E+01  0.10794672385E+02  0.41789231050E+02  0.51100000000E-03 0.  1.
         12    1    3    3    0    0 -0.33534715518E+02  0.14552676804E+02 -0.14426342710E+02  0.39299833473E+02  0.00000000000E+00 0. -1.
</event>
<event>
 7    1  0.2497665E-015  0.9000786E+02  0.7816164E-02  0.1186339E+00
        -11   -1    0    0    0    0  0.00000000000E+00  0.00000000000E+00  0.45593999997E+02  0.45594000000E+02  0.51100000000E-03 0. -1.
         11   -1    0    0    0    0 -0.00000000000E+00 -0.00000000000E+00 -0.45593999997E+02  0.45594000000E+02  0.51100000000E-03 0.  1.
    9900012    2    1    2    0    0  0.65535016329E+00 -0.38532713648E+00  0.90264618509E+00  0.90007859765E+02  0.90000122714E+02 0.  0.
        -12    1    1    2    0    0 -0.65535016329E+00  0.38532713648E+00 -0.90264618509E+00  0.11801402349E+01  0.00000000000E+00 0.  1.
         11    1    3    3    0    0 -0.42213748448E+01 -0.68081968258E+01 -0.29347967948E+01  0.85313880516E+01  0.51100000000E-03 0. -1.
        -11    1    3    3    0    0 -0.28409168305E+01  0.70991234440E+01 -0.38084582689E+02  0.38844610965E+02  0.51100000000E-03 0.  1.
         12    1    3    3    0    0  0.77176418386E+01 -0.67625375463E+00  0.41922025669E+02  0.42631860749E+02  0.00000000000E+00 0. -1.
</event>
<event>
 7    1  0.2497665E-015  0.9000756E+02  0.7816164E-02  0.1186339E+00
        -11   -1    0    0    0    0  0.00000000000E+00  0.00000000000E+00  0.45593999997E+02  0.45594000000E+02  0.51100000000E-03 0.  1.
         11   -1    0    0    0    0 -0.00000000000E+00 -0.00000000000E+00 -0.45593999997E+02  0.45594000000E+02  0.51100000000E-03 0. -1.
    9900012    2    1    2    0    0 -0.35998604770E+00 -0.11237030050E+01 -0.33855595598E-01  0.90007557456E+02  0.89999816414E+02 0.  0.
        -12    1    1    2    0    0  0.35998604770E+00  0.11237030050E+01  0.33855595598E-01  0.11804425439E+01  0.00000000000E+00 0.  1.
         11    1    3    3    0    0  0.48953950032E+01  0.66249297097E+01 -0.59431481058E+01  0.10157538854E+02  0.51100000000E-03 0. -1.
        -11    1    3    3    0    0  0.36734534285E+02  0.62299874849E+00  0.10029254124E+01  0.36753503183E+02  0.51100000000E-03 0.  1.
         12    1    3    3    0    0 -0.41989915335E+02 -0.83716314632E+01  0.49063670979E+01  0.43096515420E+02  0.00000000000E+00 0. -1.
</event>
<event>
 7    1  0.2497665E-015  0.9000773E+02  0.7816164E-02  0.1186339E+00
        -11   -1    0    0    0    0  0.00000000000E+00  0.00000000000E+00  0.45593999997E+02  0.45594000000E+02  0.51100000000E-03 0.  1.
         11   -1    0    0    0    0 -0.00000000000E+00 -0.00000000000E+00 -0.45593999997E+02  0.45594000000E+02  0.51100000000E-03 0. -1.
    9900012    2    1    2    0    0  0.10107715327E+01  0.50771878135E+00 -0.33704482913E+00  0.90007730256E+02  0.89999991495E+02 0.  0.
        -12    1    1    2    0    0 -0.10107715327E+01 -0.50771878135E+00  0.33704482913E+00  0.11802697442E+01  0.00000000000E+00 0.  1.
         11    1    3    3    0    0  0.60858237095E+01 -0.34265316607E+01  0.74402672197E+01  0.10204702152E+02  0.51100000000E-03 0. -1.
        -11    1    3    3    0    0  0.32386270320E+01 -0.30861046344E+02  0.17848219303E+02  0.35797371678E+02  0.51100000000E-03 0.  1.
         12    1    3    3    0    0 -0.83136792089E+01  0.34795296786E+02 -0.25625531352E+02  0.44005656426E+02  0.00000000000E+00 0. -1.
</event>
<event>
 7    1  0.2497665E-015  0.9000758E+02  0.7816164E-02  0.1186339E+00
        -11   -1    0    0    0    0  0.00000000000E+00  0.00000000000E+00  0.45593999997E+02  0.45594000000E+02  0.51100000000E-03 0. -1.
         11   -1    0    0    0    0 -0.00000000000E+00 -0.00000000000E+00 -0.45593999997E+02  0.45594000000E+02  0.51100000000E-03 0.  1.
    9900012    2    1    2    0    0  0.40995200622E+00  0.48615229888E+00  0.99447498890E+00  0.90007582613E+02  0.89999841903E+02 0.  0.
        -12    1    1    2    0    0 -0.40995200622E+00 -0.48615229888E+00 -0.99447498890E+00  0.11804173875E+01  0.00000000000E+00 0.  1.
         11    1    3    3    0    0  0.21408374398E+01 -0.48711119950E+01 -0.83022128919E+01  0.98609155851E+01  0.51100000000E-03 0. -1.
        -11    1    3    3    0    0 -0.27171919375E+02  0.28901111868E+02 -0.93934078291E+01  0.40765470445E+02  0.51100000000E-03 0.  1.
         12    1    3    3    0    0  0.25441033941E+02 -0.23543847574E+02  0.18690095710E+02  0.39381196582E+02  0.00000000000E+00 0. -1.
</event>
<event>
 7    1  0.2497665E-015  0.9000773E+02  0.7816164E-02  0.1186339E+00
        -11   -1    0    0    0    0  0.00000000000E+00  0.00000000000E+00  0.45593999997E+02  0.45594000000E+02  0.51100000000E-03 0.  1.
         11   -1    0    0    0    0 -0.00000000000E+00 -0.00000000000E+00 -0.45593999997E+02  0.45594000000E+02  0.51100000000E-03 0. -1.
    9900012    2    1    2    0    0  0.25957914758E+00 -0.11401532442E+01  0.16030694920E+00  0.90007733474E+02  0.89999994756E+02 0.  0.
        -12    1    1    2    0    0 -0.25957914758E+00  0.11401532442E+01 -0.16030694920E+00  0.11802665259E+01  0.00000000000E+00 0.  1.
         11    1    3    3    0    0 -0.97619031672E+01 -0.39188807753E+01 -0.38549861207E+01  0.11203271764E+02  0.51100000000E-03 0. -1.
        -11    1    3    3    0    0 -0.19062554371E+02 -0.28359391381E+02  0.10405024797E+02  0.35719750838E+02  0.51100000000E-03 0.  1.
         12    1    3    3    0    0  0.29084036686E+02  0.31138118912E+02 -0.63897317274E+01  0.43084710871E+02  0.00000000000E+00 0. -1.
</event>
<event>
 7    1  0.2497665E-015  0.9000780E+02  0.7816164E-02  0.1186339E+00
        -11   -1    0    0    0    0  0.00000000000E+00  0.00000000000E+00  0.45593999997E+02  0.45594000000E+02  0.51100000000E-03 0. -1.
         11   -1    0    0    0    0 -0.00000000000E+00 -0.00000000000E+00 -0.45593999997E+02  0.45594000000E+02  0.51100000000E-03 0.  1.
    9900012    2    1    2    0    0  0.51534883887E+00 -0.10223139730E+01 -0.28663017139E+00  0.90007802076E+02  0.90000064263E+02 0.  0.
        -12    1    1    2    0    0 -0.51534883887E+00  0.10223139730E+01  0.28663017139E+00  0.11801979242E+01  0.00000000000E+00 0.  1.
         11    1    3    3    0    0  0.48514187259E+01  0.34670298029E+02 -0.15966482797E+02  0.38477193274E+02  0.51100000000E-03 0. -1.
        -11    1    3    3    0    0  0.86129513889E+01 -0.17934144587E+01 -0.46340268805E+01  0.99435140891E+01  0.51100000000E-03 0.  1.
        -12    1    3    3    0    0 -0.12949021276E+02 -0.33899197543E+02  0.20313879507E+02  0.41587094713E+02  0.00000000000E+00 0.  1.
</event>
<event>
 7    1  0.2497665E-015  0.9000819E+02  0.7816164E-02  0.1186338E+00
        -11   -1    0    0    0    0  0.00000000000E+00  0.00000000000E+00  0.45593999997E+02  0.45594000000E+02  0.51100000000E-03 0.  1.
         11   -1    0    0    0    0 -0.00000000000E+00 -0.00000000000E+00 -0.45593999997E+02  0.45594000000E+02  0.51100000000E-03 0. -1.
    9900012    2    1    2    0    0  0.85785998691E-01  0.85498396624E+00 -0.80845814123E+00  0.90008185868E+02  0.90000453120E+02 0.  0.
        -12    1    1    2    0    0 -0.85785998691E-01 -0.85498396624E+00  0.80845814123E+00  0.11798141321E+01  0.00000000000E+00 0.  1.
         11    1    3    3    0    0 -0.28336984735E+02 -0.25006363187E+01 -0.20982411964E+02  0.35348260183E+02  0.51100000000E-03 0. -1.
        -11    1    3    3    0    0 -0.16878141799E+01  0.13075591388E+02 -0.51285558408E+01  0.14146444505E+02  0.51100000000E-03 0.  1.
        -12    1    3    3    0    0  0.30110584914E+02 -0.97199711032E+01  0.25302509663E+02  0.40513481180E+02  0.00000000000E+00 0.  1.
</event>
<event>
 7    1  0.2497665E-015  0.9000746E+02  0.7816164E-02  0.1186340E+00
        -11   -1    0    0    0    0  0.00000000000E+00  0.00000000000E+00  0.45593999997E+02  0.45594000000E+02  0.51100000000E-03 0.  1.
         11   -1    0    0    0    0 -0.00000000000E+00 -0.00000000000E+00 -0.45593999997E+02  0.45594000000E+02  0.51100000000E-03 0. -1.
    9900012    2    1    2    0    0  0.43897509866E+00 -0.35241863919E+00 -0.10376741895E+01  0.90007463784E+02  0.89999721505E+02 0.  0.
        -12    1    1    2    0    0 -0.43897509866E+00  0.35241863919E+00  0.10376741895E+01  0.11805362163E+01  0.00000000000E+00 0.  1.
         11    1    3    3    0    0  0.36872248071E+02  0.17096125945E+02 -0.36098944336E+01  0.40802837380E+02  0.51100000000E-03 0. -1.
        -11    1    3    3    0    0  0.24599920585E+01 -0.90004914511E+01  0.80347119040E+00  0.93651467422E+01  0.51100000000E-03 0.  1.
        -12    1    3    3    0    0 -0.38893265031E+02 -0.84480531333E+01  0.17687490538E+01  0.39839479662E+02  0.00000000000E+00 0.  1.
</event>
<event>
 7    1  0.2497665E-015  0.9000774E+02  0.7816164E-02  0.1186339E+00
        -11   -1    0    0    0    0  0.00000000000E+00  0.00000000000E+00  0.45593999997E+02  0.45594000000E+02  0.51100000000E-03 0.  1.
         11   -1    0    0    0    0 -0.00000000000E+00 -0.00000000000E+00 -0.45593999997E+02  0.45594000000E+02  0.51100000000E-03 0. -1.
    9900012    2    1    2    0    0 -0.78089046901E+00 -0.87185166848E+00  0.15196863224E+00  0.90007741672E+02  0.90000003062E+02 0.  0.
        -12    1    1    2    0    0  0.78089046901E+00  0.87185166848E+00 -0.15196863224E+00  0.11802583283E+01  0.00000000000E+00 0.  1.
         11    1    3    3    0    0  0.62014017454E+01  0.22733815724E+01  0.96789675882E+01  0.11717852244E+02  0.51100000000E-03 0. -1.
        -11    1    3    3    0    0  0.16522694097E+02  0.31650432054E+02 -0.36459153421E+01  0.35889301586E+02  0.51100000000E-03 0.  1.
         12    1    3    3    0    0 -0.23504986311E+02 -0.34795665295E+02 -0.58810836139E+01  0.42400587841E+02  0.00000000000E+00 0. -1.
</event>
<event>
 7    1  0.2497665E-015  0.9000773E+02  0.7816164E-02  0.1186339E+00
        -11   -1    0    0    0    0  0.00000000000E+00  0.00000000000E+00  0.45593999997E+02  0.45594000000E+02  0.51100000000E-03 0.  1.
         11   -1    0    0    0    0 -0.00000000000E+00 -0.00000000000E+00 -0.45593999997E+02  0.45594000000E+02  0.51100000000E-03 0. -1.
    9900012    2    1    2    0    0 -0.11207847200E+01 -0.30674106983E+00 -0.20686178487E+00  0.90007728730E+02  0.89999989949E+02 0.  0.
        -12    1    1    2    0    0  0.11207847200E+01  0.30674106983E+00  0.20686178487E+00  0.11802712699E+01  0.00000000000E+00 0.  1.
         11    1    3    3    0    0  0.31943550020E+02  0.17661547497E+02  0.46274482179E+01  0.36793123340E+02  0.51100000000E-03 0. -1.
        -11    1    3    3    0    0  0.14858974178E+01 -0.10212036961E+02  0.10413898881E+02  0.14660930400E+02  0.51100000000E-03 0.  1.
        -12    1    3    3    0    0 -0.34550232157E+02 -0.77562516064E+01 -0.15248208883E+02  0.38553674990E+02  0.00000000000E+00 0.  1.
</event>
<event>
 7    1  0.2497665E-015  0.9000772E+02  0.7816164E-02  0.1186339E+00
        -11   -1    0    0    0    0  0.00000000000E+00  0.00000000000E+00  0.45593999997E+02  0.45594000000E+02  0.51100000000E-03 0. -1.
         11   -1    0    0    0    0 -0.00000000000E+00 -0.00000000000E+00 -0.45593999997E+02  0.45594000000E+02  0.51100000000E-03 0.  1.
    9900012    2    1    2    0    0  0.75756683135E-03  0.13320355853E+00  0.11727355306E+01  0.90007723597E+02  0.89999984749E+02 0.  0.
        -12    1    1    2    0    0 -0.75756683134E-03 -0.13320355853E+00 -0.11727355306E+01  0.11802764026E+01  0.00000000000E+00 0.  1.
         11    1    3    3    0    0 -0.94097705213E+01  0.15340465274E+00  0.59691100238E+01  0.11144397202E+02  0.51100000000E-03 0. -1.
        -11    1    3    3    0    0 -0.28408000815E+02 -0.20932845206E+02 -0.50512490200E+01  0.35647070506E+02  0.51100000000E-03 0.  1.
         12    1    3    3    0    0  0.37818528903E+02  0.20912644112E+02  0.25487452676E+00  0.43216255890E+02  0.00000000000E+00 0. -1.
</event>
<event>
 7    1  0.2497665E-015  0.9000774E+02  0.7816164E-02  0.1186339E+00
        -11   -1    0    0    0    0  0.00000000000E+00  0.00000000000E+00  0.45593999997E+02  0.45594000000E+02  0.51100000000E-03 0.  1.
         11   -1    0    0    0    0 -0.00000000000E+00 -0.00000000000E+00 -0.45593999997E+02  0.45594000000E+02  0.51100000000E-03 0. -1.
    9900012    2    1    2    0    0 -0.88794185620E+00  0.66374247946E+00 -0.40497993840E+00  0.90007744278E+02  0.90000005702E+02 0.  0.
        -12    1    1    2    0    0  0.88794185620E+00 -0.66374247946E+00  0.40497993840E+00  0.11802557221E+01  0.00000000000E+00 0.  1.
         11    1    3    3    0    0  0.21226250685E+02  0.25151172099E+02 -0.10571957083E+02  0.34567346628E+02  0.51100000000E-03 0. -1.
        -11    1    3    3    0    0  0.60872956112E-01 -0.72542099343E+00 -0.14574726219E+02  0.14592895044E+02  0.51100000000E-03 0.  1.
        -12    1    3    3    0    0 -0.22175065497E+02 -0.23762008626E+02  0.24741703364E+02  0.40847502606E+02  0.00000000000E+00 0.  1.
</event>
<event>
 7    1  0.2497665E-015  0.9000779E+02  0.7816164E-02  0.1186339E+00
        -11   -1    0    0    0    0  0.00000000000E+00  0.00000000000E+00  0.45593999997E+02  0.45594000000E+02  0.51100000000E-03 0.  1.
         11   -1    0    0    0    0 -0.00000000000E+00 -0.00000000000E+00 -0.45593999997E+02  0.45594000000E+02  0.51100000000E-03 0. -1.
    9900012    2    1    2    0    0  0.42380855206E+00 -0.88039337645E+00  0.66195851532E+00  0.90007790162E+02  0.90000052192E+02 0.  0.
        -12    1    1    2    0    0 -0.42380855206E+00  0.88039337645E+00 -0.66195851532E+00  0.11802098382E+01  0.00000000000E+00 0.  1.
         11    1    3    3    0    0 -0.21330681126E+02 -0.26696511859E+02 -0.25460530514E+02  0.42613851235E+02  0.51100000000E-03 0. -1.
        -11    1    3    3    0    0  0.73279841890E+00  0.10096508708E+02 -0.32937261771E+00  0.10128423776E+02  0.51100000000E-03 0.  1.
        -12    1    3    3    0    0  0.21021691259E+02  0.15719609775E+02  0.26451861647E+02  0.37265515151E+02  0.00000000000E+00 0.  1.
</event>
<event>
 7    1  0.2497665E-015  0.9000779E+02  0.7816164E-02  0.1186339E+00
        -11   -1    0    0    0    0  0.00000000000E+00  0.00000000000E+00  0.45593999997E+02  0.45594000000E+02  0.51100000000E-03 0. -1.
         11   -1    0    0    0    0 -0.00000000000E+00 -0.00000000000E+00 -0.45593999997E+02  0.45594000000E+02  0.51100000000E-03 0.  1.
    9900012    2    1    2    0    0 -0.10438115672E+01 -0.54431440550E+00  0.84068723012E-01  0.90007793107E+02  0.90000055176E+02 0.  0.
        -12    1    1    2    0    0  0.10438115672E+01  0.54431440550E+00 -0.84068723012E-01  0.11802068929E+01  0.00000000000E+00 0.  1.
         11    1    3    3    0    0 -0.18025287510E+02  0.32318497951E+02  0.43029829323E+01  0.37254690470E+02  0.51100000000E-03 0. -1.
        -11    1    3    3    0    0 -0.11604161524E+01  0.65008973870E+01  0.51916687291E+01  0.84000986266E+01  0.51100000000E-03 0.  1.
        -12    1    3    3    0    0  0.18141892095E+02 -0.39363709743E+02 -0.94105829383E+01  0.44353004011E+02  0.00000000000E+00 0.  1.
</event>
<event>
 7    1  0.2497665E-015  0.9000780E+02  0.7816164E-02  0.1186339E+00
        -11   -1    0    0    0    0  0.00000000000E+00  0.00000000000E+00  0.45593999997E+02  0.45594000000E+02  0.51100000000E-03 0.  1.
         11   -1    0    0    0    0 -0.00000000000E+00 -0.00000000000E+00 -0.45593999997E+02  0.45594000000E+02  0.51100000000E-03 0. -1.
    9900012    2    1    2    0    0 -0.42781153361E+00  0.59187371679E+00 -0.92711727202E+00  0.90007795085E+02  0.90000057180E+02 0.  0.
        -12    1    1    2    0    0  0.42781153361E+00 -0.59187371679E+00  0.92711727202E+00  0.11802049148E+01  0.00000000000E+00 0.  1.
         11    1    3    3    0    0  0.61609029001E+01  0.60117409233E+01 -0.61176031966E+01  0.10560436667E+02  0.51100000000E-03 0. -1.
        -11    1    3    3    0    0 -0.29799049430E+02  0.17921570065E+02 -0.18024916457E+02  0.39167124403E+02  0.51100000000E-03 0.  1.
         12    1    3    3    0    0  0.23210334996E+02 -0.23341437272E+02  0.23215402381E+02  0.40280234014E+02  0.00000000000E+00 0. -1.
</event>
<event>
 7    1  0.2497665E-015  0.9000801E+02  0.7816164E-02  0.1186338E+00
        -11   -1    0    0    0    0  0.00000000000E+00  0.00000000000E+00  0.45593999997E+02  0.45594000000E+02  0.51100000000E-03 0.  1.
         11   -1    0    0    0    0 -0.00000000000E+00 -0.00000000000E+00 -0.45593999997E+02  0.45594000000E+02  0.51100000000E-03 0. -1.
    9900012    2    1    2    0    0 -0.25117157496E+00 -0.63155415986E-01 -0.11512135319E+01  0.90008013406E+02  0.90000278382E+02 0.  0.
        -12    1    1    2    0    0  0.25117157496E+00  0.63155415986E-01  0.11512135319E+01  0.11799865943E+01  0.00000000000E+00 0.  1.
         11    1    3    3    0    0  0.36286003178E+02 -0.45164917499E+01 -0.17905363960E+01  0.36609817607E+02  0.51100000000E-03 0. -1.
        -11    1    3    3    0    0  0.50723269736E+01  0.10050233310E+02  0.17850195469E+01  0.11398332578E+02  0.51100000000E-03 0.  1.
        -12    1    3    3    0    0 -0.41609501727E+02 -0.55968969757E+01 -0.11456966829E+01  0.41999863221E+02  0.00000000000E+00 0.  1.
</event>
<event>
 7    1  0.2497665E-015  0.9000775E+02  0.7816164E-02  0.1186339E+00
        -11   -1    0    0    0    0  0.00000000000E+00  0.00000000000E+00  0.45593999997E+02  0.45594000000E+02  0.51100000000E-03 0.  1.
         11   -1    0    0    0    0 -0.00000000000E+00 -0.00000000000E+00 -0.45593999997E+02  0.45594000000E+02  0.51100000000E-03 0. -1.
    9900012    2    1    2    0    0 -0.86635930470E+00 -0.33238438387E+00  0.72933458705E+00  0.90007751398E+02  0.90000012916E+02 0.  0.
        -12    1    1    2    0    0  0.86635930470E+00  0.33238438387E+00 -0.72933458705E+00  0.11802486023E+01  0.00000000000E+00 0.  1.
         11    1    3    3    0    0  0.28916624857E+02 -0.11397936830E+02 -0.16044561504E+02  0.34978737988E+02  0.51100000000E-03 0. -1.
        -11    1    3    3    0    0  0.53237879346E+01  0.43708712512E+00 -0.88134407747E+01  0.10305847936E+02  0.51100000000E-03 0.  1.
        -12    1    3    3    0    0 -0.35106772096E+02  0.10628465321E+02  0.25587336866E+02  0.44723165474E+02  0.00000000000E+00 0.  1.
</event>
<event>
 7    1  0.2497665E-015  0.9000775E+02  0.7816164E-02  0.1186339E+00
        -11   -1    0    0    0    0  0.00000000000E+00  0.00000000000E+00  0.45593999997E+02  0.45594000000E+02  0.51100000000E-03 0. -1.
         11   -1    0    0    0    0 -0.00000000000E+00 -0.00000000000E+00 -0.45593999997E+02  0.45594000000E+02  0.51100000000E-03 0.  1.
    9900012    2    1    2    0    0 -0.90612166984E+00  0.45226261340E+00  0.60612373184E+00  0.90007752598E+02  0.90000014132E+02 0.  0.
        -12    1    1    2    0    0  0.90612166984E+00 -0.45226261340E+00 -0.60612373184E+00  0.11802474022E+01  0.00000000000E+00 0.  1.
         11    1    3    3    0    0 -0.12682830071E+02  0.27155540133E+01 -0.11880309521E+02  0.17588921706E+02  0.51100000000E-03 0. -1.
        -11    1    3    3    0    0 -0.13669555861E+02 -0.30419577377E+02  0.69453875618E+01  0.34065317463E+02  0.51100000000E-03 0.  1.
         12    1    3    3    0    0  0.25446264262E+02  0.28156285977E+02  0.55410456913E+01  0.38353513428E+02  0.00000000000E+00 0. -1.
</event>
<event>
 7    1  0.2497665E-015  0.9000774E+02  0.7816164E-02  0.1186339E+00
        -11   -1    0    0    0    0  0.00000000000E+00  0.00000000000E+00  0.45593999997E+02  0.45594000000E+02  0.51100000000E-03 0.  1.
         11   -1    0    0    0    0 -0.00000000000E+00 -0.00000000000E+00 -0.45593999997E+02  0.45594000000E+02  0.51100000000E-03 0. -1.
    9900012    2    1    2    0    0 -0.59425543191E+00 -0.12015703731E+00 -0.10126329290E+01  0.90007744654E+02  0.90000006084E+02 0.  0.
        -12    1    1    2    0    0  0.59425543191E+00  0.12015703731E+00  0.10126329290E+01  0.11802553456E+01  0.00000000000E+00 0.  1.
         11    1    3    3    0    0  0.66394849327E+01  0.37219138979E+01  0.56276398067E+01  0.94660304928E+01  0.51100000000E-03 0. -1.
        -11    1    3    3    0    0  0.15906551680E+02 -0.21517017195E+01  0.31811741550E+02  0.35631939428E+02  0.51100000000E-03 0.  1.
         12    1    3    3    0    0 -0.23140292045E+02 -0.16903692157E+01 -0.38452014286E+02  0.44909774734E+02  0.00000000000E+00 0. -1.
</event>
<event>
 7    1  0.2497665E-015  0.9000771E+02  0.7816164E-02  0.1186339E+00
        -11   -1    0    0    0    0  0.00000000000E+00  0.00000000000E+00  0.45593999997E+02  0.45594000000E+02  0.51100000000E-03 0.  1.
         11   -1    0    0    0    0 -0.00000000000E+00 -0.00000000000E+00 -0.45593999997E+02  0.45594000000E+02  0.51100000000E-03 0. -1.
    9900012    2    1    2    0    0  0.29247936831E+00 -0.63225918136E+00 -0.95277849763E+00  0.90007710748E+02  0.89999971730E+02 0.  0.
        -12    1    1    2    0    0 -0.29247936831E+00  0.63225918136E+00  0.95277849763E+00  0.11802892522E+01  0.00000000000E+00 0.  1.
         11    1    3    3    0    0  0.90586885152E+00  0.67375522399E+01  0.74527885261E+01  0.10087579771E+02  0.51100000000E-03 0. -1.
        -11    1    3    3    0    0 -0.36412794680E+02 -0.16341480964E+02  0.58857411925E+01  0.40343246847E+02  0.51100000000E-03 0.  1.
         12    1    3    3    0    0  0.35799405197E+02  0.89716695430E+01 -0.14291308216E+02  0.39576884129E+02  0.00000000000E+00 0. -1.
</event>
<event>
 7    1  0.2497665E-015  0.9000766E+02  0.7816164E-02  0.1186339E+00
        -11   -1    0    0    0    0  0.00000000000E+00  0.00000000000E+00  0.45593999997E+02  0.45594000000E+02  0.51100000000E-03 0. -1.
         11   -1    0    0    0    0 -0.00000000000E+00 -0.00000000000E+00 -0.45593999997E+02  0.45594000000E+02  0.51100000000E-03 0.  1.
    9900012    2    1    2    0    0  0.65800118129E+00  0.12544694936E+00 -0.97185414294E+00  0.90007659809E+02  0.89999920118E+02 0.  0.
        -12    1    1    2    0    0 -0.65800118129E+00 -0.12544694936E+00  0.97185414294E+00  0.11803401911E+01  0.00000000000E+00 0.  1.
         11    1    3    3    0    0  0.14449880657E+02  0.80934714537E+01 -0.11972348933E+02  0.20436253826E+02  0.51100000000E-03 0. -1.
        -11    1    3    3    0    0  0.25966555222E+02 -0.33787760513E+01 -0.46549307345E+01  0.26595986504E+02  0.51100000000E-03 0.  1.
         12    1    3    3    0    0 -0.39758434699E+02 -0.45892484530E+01  0.15655425525E+02  0.42975419479E+02  0.00000000000E+00 0. -1.
</event>
<event>
 7    1  0.2497665E-015  0.9000741E+02  0.7816164E-02  0.1186340E+00
        -11   -1    0    0    0    0  0.00000000000E+00  0.00000000000E+00  0.45593999997E+02  0.45594000000E+02  0.51100000000E-03 0.  1.
         11   -1    0    0    0    0 -0.00000000000E+00 -0.00000000000E+00 -0.45593999997E+02  0.45594000000E+02  0.51100000000E-03 0. -1.
    9900012    2    1    2    0    0  0.10209711201E+01  0.52662940290E+00  0.27214944196E+00  0.90007412911E+02  0.89999669961E+02 0.  0.
        -12    1    1    2    0    0 -0.10209711201E+01 -0.52662940290E+00 -0.27214944196E+00  0.11805870890E+01  0.00000000000E+00 0.  1.
         11    1    3    3    0    0  0.93315053728E+01  0.63180266966E+01  0.30981134303E+01  0.11687290574E+02  0.51100000000E-03 0. -1.
        -11    1    3    3    0    0 -0.17739241922E+02  0.29239481978E+02  0.15647856879E+02  0.37609618922E+02  0.51100000000E-03 0.  1.
         12    1    3    3    0    0  0.94287076691E+01 -0.35030879272E+02 -0.18473820867E+02  0.40710503415E+02  0.00000000000E+00 0. -1.
</event>
<event>
 7    1  0.2497665E-015  0.9000778E+02  0.7816164E-02  0.1186339E+00
        -11   -1    0    0    0    0  0.00000000000E+00  0.00000000000E+00  0.45593999997E+02  0.45594000000E+02  0.51100000000E-03 0.  1.
         11   -1    0    0    0    0 -0.00000000000E+00 -0.00000000000E+00 -0.45593999997E+02  0.45594000000E+02  0.51100000000E-03 0. -1.
    9900012    2    1    2    0    0  0.59401242664E+00 -0.83478634621E+00 -0.58584278897E+00  0.90007775115E+02  0.90000036946E+02 0.  0.
        -12    1    1    2    0    0 -0.59401242664E+00  0.83478634621E+00  0.58584278897E+00  0.11802248854E+01  0.00000000000E+00 0.  1.
         11    1    3    3    0    0  0.89675736658E+01  0.18197575463E+01  0.23672254425E+01  0.94515951847E+01  0.51100000000E-03 0. -1.
        -11    1    3    3    0    0 -0.66459311923E+01  0.34891774346E+02  0.15417599667E+02  0.38720881940E+02  0.51100000000E-03 0.  1.
         12    1    3    3    0    0 -0.17276300468E+01 -0.37546318239E+02 -0.18370667898E+02  0.41835297990E+02  0.00000000000E+00 0. -1.
</event>
<event>
 7    1  0.2497665E-015  0.9000778E+02  0.7816164E-02  0.1186339E+00
        -11   -1    0    0    0    0  0.00000000000E+00  0.00000000000E+00  0.45593999997E+02  0.45594000000E+02  0.51100000000E-03 0.  1.
         11   -1    0    0    0    0 -0.00000000000E+00 -0.00000000000E+00 -0.45593999997E+02  0.45594000000E+02  0.51100000000E-03 0. -1.
    9900012    2    1    2    0    0 -0.16597161830E+00 -0.11658781668E+01 -0.78110600903E-01  0.90007779790E+02  0.90000041683E+02 0.  0.
        -12    1    1    2    0    0  0.16597161830E+00  0.11658781668E+01  0.78110600903E-01  0.11802202099E+01  0.00000000000E+00 0.  1.
         11    1    3    3    0    0 -0.89330629237E+01  0.93958513094E+01 -0.23058857952E+01  0.13168095708E+02  0.51100000000E-03 0. -1.
        -11    1    3    3    0    0  0.91380609084E+01  0.15859150138E+02  0.32103893120E+02  0.36955063983E+02  0.51100000000E-03 0.  1.
         12    1    3    3    0    0 -0.37096960302E+00 -0.26420879614E+02 -0.29876117926E+02  0.39884620098E+02  0.00000000000E+00 0. -1.
</event>
<event>
 7    1  0.2497665E-015  0.9000755E+02  0.7816164E-02  0.1186339E+00
        -11   -1    0    0    0    0  0.00000000000E+00  0.00000000000E+00  0.45593999997E+02  0.45594000000E+02  0.51100000000E-03 0.  1.
         11   -1    0    0    0    0 -0.00000000000E+00 -0.00000000000E+00 -0.45593999997E+02  0.45594000000E+02  0.51100000000E-03 0. -1.
    9900012    2    1    2    0    0  0.11319713355E+01  0.31316076617E+00  0.11849291677E+00  0.90007546976E+02  0.89999805796E+02 0.  0.
        -12    1    1    2    0    0 -0.11319713355E+01 -0.31316076617E+00 -0.11849291677E+00  0.11804530237E+01  0.00000000000E+00 0.  1.
         11    1    3    3    0    0  0.87163483302E+01  0.19316551129E+02  0.35112096552E+01  0.21480979243E+02  0.51100000000E-03 0. -1.
        -11    1    3    3    0    0  0.23496439796E+02 -0.24209360699E+02 -0.12084856415E+02  0.35836009591E+02  0.51100000000E-03 0.  1.
         12    1    3    3    0    0 -0.31080816791E+02  0.52059703361E+01  0.86921396765E+01  0.32690558143E+02  0.00000000000E+00 0. -1.
</event>
<event>
 7    1  0.2624716E-015  0.9000770E+02  0.7816164E-02  0.1186339E+00
        -11   -1    0    0    0    0  0.00000000000E+00  0.00000000000E+00  0.45593999997E+02  0.45594000000E+02  0.51100000000E-03 0. -1.
         11   -1    0    0    0    0 -0.00000000000E+00 -0.00000000000E+00 -0.45593999997E+02  0.45594000000E+02  0.51100000000E-03 0.  1.
    9900012    2    1    2    0    0  0.81808506562E+00 -0.72075273138E+00  0.45205723873E+00  0.90007701978E+02  0.89999962844E+02 0.  0.
        -12    1    1    2    0    0 -0.81808506562E+00  0.72075273138E+00 -0.45205723873E+00  0.11802980223E+01  0.00000000000E+00 0.  1.
         11    1    3    3    0    0  0.31257544685E+02 -0.21211394553E+02  0.87504916010E+01  0.38775358955E+02  0.51100000000E-03 0. -1.
        -11    1    3    3    0    0  0.37331044537E+01  0.49016073436E+01  0.81595204551E+01  0.10224460755E+02  0.51100000000E-03 0.  1.
        -12    1    3    3    0    0 -0.34172564073E+02  0.15589034478E+02 -0.16457954817E+02  0.41007882267E+02  0.00000000000E+00 0.  1.
</event>
<event>
 7    1  0.2497665E-015  0.9000767E+02  0.7816164E-02  0.1186339E+00
        -11   -1    0    0    0    0  0.00000000000E+00  0.00000000000E+00  0.45593999997E+02  0.45594000000E+02  0.51100000000E-03 0.  1.
         11   -1    0    0    0    0 -0.00000000000E+00 -0.00000000000E+00 -0.45593999997E+02  0.45594000000E+02  0.51100000000E-03 0. -1.
    9900012    2    1    2    0    0  0.93200365525E+00 -0.68964934638E+00 -0.22120856490E+00  0.90007669426E+02  0.89999929863E+02 0.  0.
        -12    1    1    2    0    0 -0.93200365525E+00  0.68964934638E+00  0.22120856490E+00  0.11803305738E+01  0.00000000000E+00 0.  1.
         11    1    3    3    0    0 -0.43030660260E+01 -0.57118899974E+01 -0.37332724114E+01  0.80671796636E+01  0.51100000000E-03 0. -1.
        -11    1    3    3    0    0 -0.15911139105E+02  0.33788211616E+02  0.20278560312E+02  0.42497383454E+02  0.51100000000E-03 0.  1.
         12    1    3    3    0    0  0.21146208786E+02 -0.28765970965E+02 -0.16766496466E+02  0.39443106309E+02  0.00000000000E+00 0. -1.
</event>
<event>
 7    1  0.2497665E-015  0.9000792E+02  0.7816164E-02  0.1186339E+00
        -11   -1    0    0    0    0  0.00000000000E+00  0.00000000000E+00  0.45593999997E+02  0.45594000000E+02  0.51100000000E-03 0.  1.
         11   -1    0    0    0    0 -0.00000000000E+00 -0.00000000000E+00 -0.45593999997E+02  0.45594000000E+02  0.51100000000E-03 0. -1.
    9900012    2    1    2    0    0 -0.97814806933E-01 -0.97653573639E+00 -0.65527923221E+00  0.90007923455E+02  0.90000187244E+02 0.  0.
        -12    1    1    2    0    0  0.97814806933E-01  0.97653573639E+00  0.65527923221E+00  0.11800765454E+01  0.00000000000E+00 0.  1.
         11    1    3    3    0    0 -0.23525540582E+01  0.62498087213E+01  0.69089532328E+01  0.96087592687E+01  0.51100000000E-03 0. -1.
        -11    1    3    3    0    0 -0.24374309109E+02  0.24273143070E+02  0.96150018306E+01  0.35717512224E+02  0.51100000000E-03 0.  1.
         12    1    3    3    0    0  0.26629048360E+02 -0.31499487527E+02 -0.17179234296E+02  0.44681651962E+02  0.00000000000E+00 0. -1.
</event>
<event>
 7    1  0.2497665E-015  0.9000770E+02  0.7816164E-02  0.1186339E+00
        -11   -1    0    0    0    0  0.00000000000E+00  0.00000000000E+00  0.45593999997E+02  0.45594000000E+02  0.51100000000E-03 0. -1.
         11   -1    0    0    0    0 -0.00000000000E+00 -0.00000000000E+00 -0.45593999997E+02  0.45594000000E+02  0.51100000000E-03 0.  1.
    9900012    2    1    2    0    0  0.50850643734E+00 -0.88664627425E+00  0.59024129909E+00  0.90007701223E+02  0.89999962079E+02 0.  0.
        -12    1    1    2    0    0 -0.50850643734E+00  0.88664627425E+00 -0.59024129909E+00  0.11802987773E+01  0.00000000000E+00 0.  1.
         11    1    3    3    0    0 -0.29100658011E+02  0.98112684363E+01 -0.25718564549E+02  0.40056882651E+02  0.51100000000E-03 0. -1.
        -11    1    3    3    0    0  0.91238157589E+00 -0.97994934552E+01 -0.15292153326E+01  0.99599704775E+01  0.51100000000E-03 0.  1.
        -12    1    3    3    0    0  0.28696782873E+02 -0.89842125542E+00  0.27838021181E+02  0.39990848094E+02  0.00000000000E+00 0.  1.
</event>
<event>
 7    1  0.2497665E-015  0.9000750E+02  0.7816164E-02  0.1186340E+00
        -11   -1    0    0    0    0  0.00000000000E+00  0.00000000000E+00  0.45593999997E+02  0.45594000000E+02  0.51100000000E-03 0. -1.
         11   -1    0    0    0    0 -0.00000000000E+00 -0.00000000000E+00 -0.45593999997E+02  0.45594000000E+02  0.51100000000E-03 0.  1.
    9900012    2    1    2    0    0 -0.10619264031E+01 -0.44021437133E-01  0.51376380598E+00  0.90007500605E+02  0.89999758813E+02 0.  0.
        -12    1    1    2    0    0  0.10619264031E+01  0.44021437133E-01 -0.51376380598E+00  0.11804993947E+01  0.00000000000E+00 0.  1.
         11    1    3    3    0    0 -0.51469446881E+01  0.27669325969E+01 -0.70251182029E+01  0.91377919458E+01  0.51100000000E-03 0. -1.
        -11    1    3    3    0    0 -0.23181281941E+02 -0.12022067665E+02 -0.25880733495E+02  0.36765667543E+02  0.51100000000E-03 0.  1.
         12    1    3    3    0    0  0.27266300226E+02  0.92111136310E+01  0.33419615504E+02  0.44104041116E+02  0.00000000000E+00 0. -1.
</event>
<event>
 7    1  0.2497665E-015  0.9000768E+02  0.7816164E-02  0.1186339E+00
        -11   -1    0    0    0    0  0.00000000000E+00  0.00000000000E+00  0.45593999997E+02  0.45594000000E+02  0.51100000000E-03 0.  1.
         11   -1    0    0    0    0 -0.00000000000E+00 -0.00000000000E+00 -0.45593999997E+02  0.45594000000E+02  0.51100000000E-03 0. -1.
    9900012    2    1    2    0    0 -0.11688524690E+01  0.55529621912E-02  0.16400401131E+00  0.90007684684E+02  0.89999945322E+02 0.  0.
        -12    1    1    2    0    0  0.11688524690E+01 -0.55529621912E-02 -0.16400401131E+00  0.11803153160E+01  0.00000000000E+00 0.  1.
         11    1    3    3    0    0  0.82279316460E+01  0.69832682490E+00 -0.50348599109E+01  0.96714184125E+01  0.51100000000E-03 0. -1.
        -11    1    3    3    0    0  0.20736997456E+02 -0.30868949150E+02  0.60814254203E+01  0.37681544827E+02  0.51100000000E-03 0.  1.
         12    1    3    3    0    0 -0.30133781571E+02  0.30176175287E+02 -0.88256149814E+00  0.42654721445E+02  0.00000000000E+00 0. -1.
</event>
<event>
 7    1  0.2497665E-015  0.9000764E+02  0.7816164E-02  0.1186339E+00
        -11   -1    0    0    0    0  0.00000000000E+00  0.00000000000E+00  0.45593999997E+02  0.45594000000E+02  0.51100000000E-03 0.  1.
         11   -1    0    0    0    0 -0.00000000000E+00 -0.00000000000E+00 -0.45593999997E+02  0.45594000000E+02  0.51100000000E-03 0. -1.
    9900012    2    1    2    0    0 -0.80379821096E+00  0.69268112246E+00 -0.51705067847E+00  0.90007644077E+02  0.89999904179E+02 0.  0.
        -12    1    1    2    0    0  0.80379821096E+00 -0.69268112246E+00  0.51705067847E+00  0.11803559232E+01  0.00000000000E+00 0.  1.
         11    1    3    3    0    0  0.50734008867E+01  0.11793673991E+02  0.21450480994E+01  0.13016580748E+02  0.51100000000E-03 0. -1.
        -11    1    3    3    0    0 -0.38114448879E+02  0.84102413779E+01 -0.43395232237E+01  0.39271807132E+02  0.51100000000E-03 0.  1.
         12    1    3    3    0    0  0.32237249781E+02 -0.19511234246E+02  0.16774244458E+01  0.37719256197E+02  0.00000000000E+00 0. -1.
</event>
<event>
 7    1  0.2497665E-015  0.9000774E+02  0.7816164E-02  0.1186339E+00
        -11   -1    0    0    0    0  0.00000000000E+00  0.00000000000E+00  0.45593999997E+02  0.45594000000E+02  0.51100000000E-03 0. -1.
         11   -1    0    0    0    0 -0.00000000000E+00 -0.00000000000E+00 -0.45593999997E+02  0.45594000000E+02  0.51100000000E-03 0.  1.
    9900012    2    1    2    0    0  0.23310296389E+00  0.28263093477E+00  0.11219661562E+01  0.90007735075E+02  0.89999996378E+02 0.  0.
        -12    1    1    2    0    0 -0.23310296389E+00 -0.28263093477E+00 -0.11219661562E+01  0.11802649248E+01  0.00000000000E+00 0.  1.
         11    1    3    3    0    0  0.10905091046E+02  0.31440498705E+02  0.26365515345E+02  0.42456641050E+02  0.51100000000E-03 0. -1.
        -11    1    3    3    0    0 -0.15118238368E+02 -0.87994857534E+01 -0.10478444595E+02  0.20390926469E+02  0.51100000000E-03 0.  1.
        -12    1    3    3    0    0  0.44462502853E+01 -0.22358382017E+02 -0.14765104593E+02  0.27160167556E+02  0.00000000000E+00 0.  1.
</event>
<event>
 7    1  0.2497665E-015  0.9000780E+02  0.7816164E-02  0.1186339E+00
        -11   -1    0    0    0    0  0.00000000000E+00  0.00000000000E+00  0.45593999997E+02  0.45594000000E+02  0.51100000000E-03 0. -1.
         11   -1    0    0    0    0 -0.00000000000E+00 -0.00000000000E+00 -0.45593999997E+02  0.45594000000E+02  0.51100000000E-03 0.  1.
    9900012    2    1    2    0    0  0.55013047883E-01  0.11303765505E+01 -0.33481024374E+00  0.90007798542E+02  0.90000060683E+02 0.  0.
        -12    1    1    2    0    0 -0.55013047883E-01 -0.11303765505E+01  0.33481024374E+00  0.11802014577E+01  0.00000000000E+00 0.  1.
         11    1    3    3    0    0 -0.55292396300E+01 -0.16940560439E+01 -0.95014520921E+01  0.11122945153E+02  0.51100000000E-03 0. -1.
        -11    1    3    3    0    0 -0.39254413363E+00  0.40345308354E+02  0.41133148300E+01  0.40556347915E+02  0.51100000000E-03 0.  1.
         12    1    3    3    0    0  0.59767968115E+01 -0.37520875760E+02  0.50533270184E+01  0.38328505474E+02  0.00000000000E+00 0. -1.
</event>
<event>
 7    1  0.2497665E-015  0.9000780E+02  0.7816164E-02  0.1186339E+00
        -11   -1    0    0    0    0  0.00000000000E+00  0.00000000000E+00  0.45593999997E+02  0.45594000000E+02  0.51100000000E-03 0. -1.
         11   -1    0    0    0    0 -0.00000000000E+00 -0.00000000000E+00 -0.45593999997E+02  0.45594000000E+02  0.51100000000E-03 0.  1.
    9900012    2    1    2    0    0 -0.57096482033E+00 -0.27352884062E+00  0.99601560422E+00  0.90007802586E+02  0.90000064780E+02 0.  0.
        -12    1    1    2    0    0  0.57096482033E+00  0.27352884062E+00 -0.99601560422E+00  0.11801974142E+01  0.00000000000E+00 0.  1.
         11    1    3    3    0    0  0.41093988604E+01  0.85772275054E+01  0.54434255842E+00  0.95264001467E+01  0.51100000000E-03 0. -1.
        -11    1    3    3    0    0 -0.65503669825E+01  0.35419568314E+02  0.26465504826E+01  0.36117272279E+02  0.51100000000E-03 0.  1.
         12    1    3    3    0    0  0.18700033018E+01 -0.44270324660E+02 -0.21948774368E+01  0.44364130160E+02  0.00000000000E+00 0. -1.
</event>
<event>
 7    1  0.2497665E-015  0.9000770E+02  0.7816164E-02  0.1186339E+00
        -11   -1    0    0    0    0  0.00000000000E+00  0.00000000000E+00  0.45593999997E+02  0.45594000000E+02  0.51100000000E-03 0. -1.
         11   -1    0    0    0    0 -0.00000000000E+00 -0.00000000000E+00 -0.45593999997E+02  0.45594000000E+02  0.51100000000E-03 0.  1.
    9900012    2    1    2    0    0 -0.14065941672E+00 -0.11647883075E+00  0.11660890884E+01  0.90007696585E+02  0.89999957380E+02 0.  0.
        -12    1    1    2    0    0  0.14065941672E+00  0.11647883075E+00 -0.11660890884E+01  0.11803034150E+01  0.00000000000E+00 0.  1.
         11    1    3    3    0    0  0.21084494864E+02  0.16204494539E+02  0.22193054381E+02  0.34636299311E+02  0.51100000000E-03 0. -1.
        -11    1    3    3    0    0  0.34544598511E+01  0.10412512631E+02  0.34737641400E+01  0.11507421506E+02  0.51100000000E-03 0.  1.
        -12    1    3    3    0    0 -0.24679614132E+02 -0.26733486001E+02 -0.24500729433E+02  0.43863975768E+02  0.00000000000E+00 0.  1.
</event>
<event>
 7    1  0.2497665E-015  0.9000840E+02  0.7816164E-02  0.1186338E+00
        -11   -1    0    0    0    0  0.00000000000E+00  0.00000000000E+00  0.45593999997E+02  0.45594000000E+02  0.51100000000E-03 0. -1.
         11   -1    0    0    0    0 -0.00000000000E+00 -0.00000000000E+00 -0.45593999997E+02  0.45594000000E+02  0.51100000000E-03 0.  1.
    9900012    2    1    2    0    0  0.40601414060E+00  0.53067108361E+00  0.97211452882E+00  0.90008395855E+02  0.90000665878E+02 0.  0.
        -12    1    1    2    0    0 -0.40601414060E+00 -0.53067108361E+00 -0.97211452882E+00  0.11796041448E+01  0.00000000000E+00 0.  1.
         11    1    3    3    0    0  0.32085531225E+01  0.87258016330E+01  0.46877752733E+01  0.10411996185E+02  0.51100000000E-03 0. -1.
        -11    1    3    3    0    0 -0.14464678787E+02  0.27488133887E+02 -0.21778925278E+02  0.37936078125E+02  0.51100000000E-03 0.  1.
         12    1    3    3    0    0  0.11662139805E+02 -0.35683264436E+02  0.18063264534E+02  0.41660321545E+02  0.00000000000E+00 0. -1.
</event>
<event>
 7    1  0.2497665E-015  0.9000773E+02  0.7816164E-02  0.1186339E+00
        -11   -1    0    0    0    0  0.00000000000E+00  0.00000000000E+00  0.45593999997E+02  0.45594000000E+02  0.51100000000E-03 0.  1.
         11   -1    0    0    0    0 -0.00000000000E+00 -0.00000000000E+00 -0.45593999997E+02  0.45594000000E+02  0.51100000000E-03 0. -1.
    9900012    2    1    2    0    0 -0.78422368893E+00 -0.82450197104E+00 -0.31342063931E+00  0.90007727662E+02  0.89999988867E+02 0.  0.
        -12    1    1    2    0    0  0.78422368893E+00  0.82450197104E+00  0.31342063931E+00  0.11802723379E+01  0.00000000000E+00 0.  1.
         11    1    3    3    0    0  0.14224332949E+01 -0.98298519811E+01 -0.61610280757E+01  0.11687924267E+02  0.51100000000E-03 0. -1.
        -11    1    3    3    0    0  0.30827379123E+02  0.23608048897E+02  0.14032110573E+02  0.41286407009E+02  0.51100000000E-03 0.  1.
         12    1    3    3    0    0 -0.33034036107E+02 -0.14602698887E+02 -0.81845031368E+01  0.37033396386E+02  0.00000000000E+00 0. -1.
</event>
<event>
 7    1  0.2497665E-015  0.9000770E+02  0.7816164E-02  0.1186339E+00
        -11   -1    0    0    0    0  0.00000000000E+00  0.00000000000E+00  0.45593999997E+02  0.45594000000E+02  0.51100000000E-03 0.  1.
         11   -1    0    0    0    0 -0.00000000000E+00 -0.00000000000E+00 -0.45593999997E+02  0.45594000000E+02  0.51100000000E-03 0. -1.
    9900012    2    1    2    0    0 -0.39079937143E+00 -0.92845865033E+00 -0.61509661667E+00  0.90007701961E+02  0.89999962826E+02 0.  0.
        -12    1    1    2    0    0  0.39079937143E+00  0.92845865033E+00  0.61509661667E+00  0.11802980394E+01  0.00000000000E+00 0.  1.
         11    1    3    3    0    0 -0.12507317322E+02 -0.35301390941E+01 -0.34789797365E+02  0.37137916872E+02  0.51100000000E-03 0. -1.
        -11    1    3    3    0    0 -0.11335186610E+02 -0.36291735806E+01  0.12472239055E+01  0.11967160235E+02  0.51100000000E-03 0.  1.
        -12    1    3    3    0    0  0.23451704561E+02  0.62308540244E+01  0.32927476843E+02  0.40902624854E+02  0.00000000000E+00 0.  1.
</event>
<event>
 7    1  0.2497665E-015  0.9000772E+02  0.7816164E-02  0.1186339E+00
        -11   -1    0    0    0    0  0.00000000000E+00  0.00000000000E+00  0.45593999997E+02  0.45594000000E+02  0.51100000000E-03 0.  1.
         11   -1    0    0    0    0 -0.00000000000E+00 -0.00000000000E+00 -0.45593999997E+02  0.45594000000E+02  0.51100000000E-03 0. -1.
    9900012    2    1    2    0    0 -0.36533446314E+00  0.52808601304E+00 -0.99031067222E+00  0.90007720654E+02  0.89999981767E+02 0.  0.
        -12    1    1    2    0    0  0.36533446314E+00 -0.52808601304E+00  0.99031067222E+00  0.11802793460E+01  0.00000000000E+00 0.  1.
         11    1    3    3    0    0  0.71207591548E+01 -0.76840373750E+01  0.55436654982E+00  0.10490803775E+02  0.51100000000E-03 0. -1.
        -11    1    3    3    0    0  0.50827887800E+01  0.31855674641E+02  0.25753899464E+02  0.41278106624E+02  0.51100000000E-03 0.  1.
         12    1    3    3    0    0 -0.12568882398E+02 -0.23643551253E+02 -0.27298576686E+02  0.38238810254E+02  0.00000000000E+00 0. -1.
</event>
<event>
 7    1  0.2497665E-015  0.9000782E+02  0.7816164E-02  0.1186339E+00
        -11   -1    0    0    0    0  0.00000000000E+00  0.00000000000E+00  0.45593999997E+02  0.45594000000E+02  0.51100000000E-03 0.  1.
         11   -1    0    0    0    0 -0.00000000000E+00 -0.00000000000E+00 -0.45593999997E+02  0.45594000000E+02  0.51100000000E-03 0. -1.
    9900012    2    1    2    0    0  0.10721104017E+01  0.26502908276E+00 -0.41613979690E+00  0.90007816345E+02  0.90000078721E+02 0.  0.
        -12    1    1    2    0    0 -0.10721104017E+01 -0.26502908276E+00  0.41613979690E+00  0.11801836547E+01  0.00000000000E+00 0.  1.
         11    1    3    3    0    0  0.66228748588E+01 -0.30889301296E+02 -0.21039730655E+02  0.37956312680E+02  0.51100000000E-03 0. -1.
        -11    1    3    3    0    0  0.44763235498E+01 -0.69222485609E+01  0.52991507527E+01  0.97997957439E+01  0.51100000000E-03 0.  1.
        -12    1    3    3    0    0 -0.10027088007E+02  0.38076578940E+02  0.15324440106E+02  0.42251707921E+02  0.00000000000E+00 0.  1.
</event>
<event>
 7    1  0.2497665E-015  0.9000778E+02  0.7816164E-02  0.1186339E+00
        -11   -1    0    0    0    0  0.00000000000E+00  0.00000000000E+00  0.45593999997E+02  0.45594000000E+02  0.51100000000E-03 0. -1.
         11   -1    0    0    0    0 -0.00000000000E+00 -0.00000000000E+00 -0.45593999997E+02  0.45594000000E+02  0.51100000000E-03 0.  1.
    9900012    2    1    2    0    0 -0.39513411546E+00  0.76799941329E+00  0.80433880511E+00  0.90007781808E+02  0.90000043728E+02 0.  0.
        -12    1    1    2    0    0  0.39513411546E+00 -0.76799941329E+00 -0.80433880511E+00  0.11802181923E+01  0.00000000000E+00 0.  1.
         11    1    3    3    0    0 -0.33072111889E+01  0.70097795505E+00  0.38240361779E+02  0.38389507489E+02  0.51100000000E-03 0. -1.
        -11    1    3    3    0    0 -0.52537735485E+01  0.10139212996E+01  0.56344734918E+01  0.77702937326E+01  0.51100000000E-03 0.  1.
        -12    1    3    3    0    0  0.81658506219E+01 -0.94689984136E+00 -0.43070496466E+02  0.43847980587E+02  0.00000000000E+00 0.  1.
</event>
<event>
 7    1  0.2497665E-015  0.9000774E+02  0.7816164E-02  0.1186339E+00
        -11   -1    0    0    0    0  0.00000000000E+00  0.00000000000E+00  0.45593999997E+02  0.45594000000E+02  0.51100000000E-03 0.  1.
         11   -1    0    0    0    0 -0.00000000000E+00 -0.00000000000E+00 -0.45593999997E+02  0.45594000000E+02  0.51100000000E-03 0. -1.
    9900012    2    1    2    0    0  0.11216798745E+01 -0.26308389126E+00  0.25617402202E+00  0.90007744094E+02  0.90000005516E+02 0.  0.
        -12    1    1    2    0    0 -0.11216798745E+01  0.26308389126E+00 -0.25617402202E+00  0.11802559063E+01  0.00000000000E+00 0.  1.
         11    1    3    3    0    0  0.23132270044E+02  0.14519517860E+02 -0.21947883986E+02  0.35037521716E+02  0.51100000000E-03 0. -1.
        -11    1    3    3    0    0  0.45932412172E+01  0.65088229012E+01 -0.66055209590E+01  0.10348697881E+02  0.51100000000E-03 0.  1.
        -12    1    3    3    0    0 -0.26603831386E+02 -0.21291424652E+02  0.28809578967E+02  0.44621524497E+02  0.00000000000E+00 0.  1.
</event>
<event>
 7    1  0.2497665E-015  0.9000769E+02  0.7816164E-02  0.1186339E+00
        -11   -1    0    0    0    0  0.00000000000E+00  0.00000000000E+00  0.45593999997E+02  0.45594000000E+02  0.51100000000E-03 0.  1.
         11   -1    0    0    0    0 -0.00000000000E+00 -0.00000000000E+00 -0.45593999997E+02  0.45594000000E+02  0.51100000000E-03 0. -1.
    9900012    2    1    2    0    0  0.45636853543E-01 -0.83113532230E+00 -0.83682084688E+00  0.90007687424E+02  0.89999948098E+02 0.  0.
        -12    1    1    2    0    0 -0.45636853543E-01  0.83113532230E+00  0.83682084688E+00  0.11803125756E+01  0.00000000000E+00 0.  1.
         11    1    3    3    0    0  0.57144714847E+01  0.85859447369E+01 -0.11222285355E+01  0.10374633898E+02  0.51100000000E-03 0. -1.
        -11    1    3    3    0    0  0.32000008314E+02  0.12376143287E+02 -0.82435988108E+01  0.35286348300E+02  0.51100000000E-03 0.  1.
         12    1    3    3    0    0 -0.37668842945E+02 -0.21793223346E+02  0.85290064994E+01  0.44346705227E+02  0.00000000000E+00 0. -1.
</event>
<event>
 7    1  0.2497665E-015  0.9000774E+02  0.7816164E-02  0.1186339E+00
        -11   -1    0    0    0    0  0.00000000000E+00  0.00000000000E+00  0.45593999997E+02  0.45594000000E+02  0.51100000000E-03 0. -1.
         11   -1    0    0    0    0 -0.00000000000E+00 -0.00000000000E+00 -0.45593999997E+02  0.45594000000E+02  0.51100000000E-03 0.  1.
    9900012    2    1    2    0    0  0.44105964127E+00  0.21139443268E+00  0.10741472356E+01  0.90007740072E+02  0.90000001441E+02 0.  0.
        -12    1    1    2    0    0 -0.44105964127E+00 -0.21139443268E+00 -0.10741472356E+01  0.11802599278E+01  0.00000000000E+00 0.  1.
         11    1    3    3    0    0  0.47921407922E+01 -0.51655267887E+01  0.62215844218E+01  0.93997549626E+01  0.51100000000E-03 0. -1.
        -11    1    3    3    0    0  0.36238728953E+02  0.14027216589E+02 -0.43220985829E+01  0.39098450325E+02  0.51100000000E-03 0.  1.
         12    1    3    3    0    0 -0.40589810104E+02 -0.86502953677E+01 -0.82533860331E+00  0.41509534785E+02  0.00000000000E+00 0. -1.
</event>
<event>
 7    1  0.2497665E-015  0.9000775E+02  0.7816164E-02  0.1186339E+00
        -11   -1    0    0    0    0  0.00000000000E+00  0.00000000000E+00  0.45593999997E+02  0.45594000000E+02  0.51100000000E-03 0. -1.
         11   -1    0    0    0    0 -0.00000000000E+00 -0.00000000000E+00 -0.45593999997E+02  0.45594000000E+02  0.51100000000E-03 0.  1.
    9900012    2    1    2    0    0 -0.29757377701E+00  0.11286526206E+01  0.17489868248E+00  0.90007747298E+02  0.90000008763E+02 0.  0.
        -12    1    1    2    0    0  0.29757377701E+00 -0.11286526206E+01 -0.17489868248E+00  0.11802527017E+01  0.00000000000E+00 0.  1.
         11    1    3    3    0    0  0.14301652256E+02  0.16036642711E+02  0.27190327287E+02  0.34655808531E+02  0.51100000000E-03 0. -1.
        -11    1    3    3    0    0  0.80733308211E+01 -0.43535026865E+01  0.81029173905E+01  0.12238828648E+02  0.51100000000E-03 0.  1.
        -12    1    3    3    0    0 -0.22672556854E+02 -0.10554487404E+02 -0.35118345995E+02  0.43113110119E+02  0.00000000000E+00 0.  1.
</event>
<event>
 7    1  0.2497665E-015  0.9000771E+02  0.7816164E-02  0.1186339E+00
        -11   -1    0    0    0    0  0.00000000000E+00  0.00000000000E+00  0.45593999997E+02  0.45594000000E+02  0.51100000000E-03 0.  1.
         11   -1    0    0    0    0 -0.00000000000E+00 -0.00000000000E+00 -0.45593999997E+02  0.45594000000E+02  0.51100000000E-03 0. -1.
    9900012    2    1    2    0    0  0.58491862913E+00 -0.10082283738E+01  0.18556195851E+00  0.90007708724E+02  0.89999969679E+02 0.  0.
        -12    1    1    2    0    0 -0.58491862913E+00  0.10082283738E+01 -0.18556195851E+00  0.11802912763E+01  0.00000000000E+00 0.  1.
         11    1    3    3    0    0 -0.45335014566E+01  0.81554242910E+01  0.17288971742E+01  0.94896083440E+01  0.51100000000E-03 0. -1.
        -11    1    3    3    0    0 -0.35679941749E+02  0.17375352064E+01  0.93111568469E+01  0.36915781366E+02  0.51100000000E-03 0.  1.
         12    1    3    3    0    0  0.40798361835E+02 -0.10901187871E+02 -0.10854492063E+02  0.43602319013E+02  0.00000000000E+00 0. -1.
</event>
<event>
 7    1  0.2497665E-015  0.9000773E+02  0.7816164E-02  0.1186339E+00
        -11   -1    0    0    0    0  0.00000000000E+00  0.00000000000E+00  0.45593999997E+02  0.45594000000E+02  0.51100000000E-03 0.  1.
         11   -1    0    0    0    0 -0.00000000000E+00 -0.00000000000E+00 -0.45593999997E+02  0.45594000000E+02  0.51100000000E-03 0. -1.
    9900012    2    1    2    0    0  0.94718488844E+00  0.35578452681E+00  0.60769522744E+00  0.90007730822E+02  0.89999992069E+02 0.  0.
        -12    1    1    2    0    0 -0.94718488844E+00 -0.35578452681E+00 -0.60769522744E+00  0.11802691777E+01  0.00000000000E+00 0.  1.
         11    1    3    3    0    0 -0.67480548764E+01 -0.35721402057E+02 -0.11085065789E+01  0.36370092062E+02  0.51100000000E-03 0. -1.
        -11    1    3    3    0    0  0.62513061511E+01 -0.38766045917E+01 -0.95934525212E+01  0.12088888423E+02  0.51100000000E-03 0.  1.
        -12    1    3    3    0    0  0.14439336138E+01  0.39953791176E+02  0.11309654328E+02  0.41548750337E+02  0.00000000000E+00 0.  1.
</event>
<event>
 7    1  0.2497665E-015  0.9000779E+02  0.7816164E-02  0.1186339E+00
        -11   -1    0    0    0    0  0.00000000000E+00  0.00000000000E+00  0.45593999997E+02  0.45594000000E+02  0.51100000000E-03 0. -1.
         11   -1    0    0    0    0 -0.00000000000E+00 -0.00000000000E+00 -0.45593999997E+02  0.45594000000E+02  0.51100000000E-03 0.  1.
    9900012    2    1    2    0    0 -0.73822494341E+00  0.91954554986E+00  0.48523489713E-01  0.90007790436E+02  0.90000052470E+02 0.  0.
        -12    1    1    2    0    0  0.73822494341E+00 -0.91954554986E+00 -0.48523489713E-01  0.11802095638E+01  0.00000000000E+00 0.  1.
         11    1    3    3    0    0  0.25446456951E+02  0.18146244543E+02  0.19226991909E+02  0.36694489784E+02  0.51100000000E-03 0. -1.
        -11    1    3    3    0    0  0.20851801013E+01  0.10518762960E+01  0.90707783271E+01  0.93666130227E+01  0.51100000000E-03 0.  1.
        -12    1    3    3    0    0 -0.28269861996E+02 -0.18278575289E+02 -0.28249246746E+02  0.43946687629E+02  0.00000000000E+00 0.  1.
</event>
<event>
 7    1  0.2575193E-015  0.9000779E+02  0.7816164E-02  0.1186339E+00
        -11   -1    0    0    0    0  0.00000000000E+00  0.00000000000E+00  0.45593999997E+02  0.45594000000E+02  0.51100000000E-03 0. -1.
         11   -1    0    0    0    0 -0.00000000000E+00 -0.00000000000E+00 -0.45593999997E+02  0.45594000000E+02  0.51100000000E-03 0.  1.
    9900012    2    1    2    0    0 -0.46264160202E-01 -0.42623232351E+00  0.10995781332E+01  0.90007793901E+02  0.90000055980E+02 0.  0.
        -12    1    1    2    0    0  0.46264160202E-01  0.42623232351E+00 -0.10995781332E+01  0.11802060994E+01  0.00000000000E+00 0.  1.
         11    1    3    3    0    0  0.41311296672E+02  0.16567990485E+01  0.97483787840E+01  0.42478219184E+02  0.51100000000E-03 0. -1.
        -11    1    3    3    0    0 -0.62679733680E+01 -0.68108665675E+01  0.37893518316E+01  0.10001728906E+02  0.51100000000E-03 0.  1.
        -12    1    3    3    0    0 -0.35089587464E+02  0.47278351955E+01 -0.12438152482E+02  0.37527845811E+02  0.00000000000E+00 0.  1.
</event>
<event>
 7    1  0.2497665E-015  0.9000772E+02  0.7816164E-02  0.1186339E+00
        -11   -1    0    0    0    0  0.00000000000E+00  0.00000000000E+00  0.45593999997E+02  0.45594000000E+02  0.51100000000E-03 0.  1.
         11   -1    0    0    0    0 -0.00000000000E+00 -0.00000000000E+00 -0.45593999997E+02  0.45594000000E+02  0.51100000000E-03 0. -1.
    9900012    2    1    2    0    0  0.46341922658E+00  0.76855604943E-01 -0.10827689505E+01  0.90007723438E+02  0.89999984587E+02 0.  0.
        -12    1    1    2    0    0 -0.46341922658E+00 -0.76855604943E-01  0.10827689505E+01  0.11802765624E+01  0.00000000000E+00 0.  1.
         11    1    3    3    0    0 -0.25289370572E+02  0.10517247486E+02 -0.24462574904E+02  0.36723049027E+02  0.51100000000E-03 0. -1.
        -11    1    3    3    0    0 -0.26147750356E+00  0.35562362103E+01 -0.88642072993E+01  0.95545464452E+01  0.51100000000E-03 0.  1.
        -12    1    3    3    0    0  0.26014267302E+02 -0.13996628092E+02  0.32244013253E+02  0.43730127965E+02  0.00000000000E+00 0.  1.
</event>
<event>
 7    1  0.2497665E-015  0.9000783E+02  0.7816164E-02  0.1186339E+00
        -11   -1    0    0    0    0  0.00000000000E+00  0.00000000000E+00  0.45593999997E+02  0.45594000000E+02  0.51100000000E-03 0.  1.
         11   -1    0    0    0    0 -0.00000000000E+00 -0.00000000000E+00 -0.45593999997E+02  0.45594000000E+02  0.51100000000E-03 0. -1.
    9900012    2    1    2    0    0 -0.10210521988E+01 -0.21217322127E+00 -0.55247289989E+00  0.90007834175E+02  0.90000096786E+02 0.  0.
        -12    1    1    2    0    0  0.10210521988E+01  0.21217322127E+00  0.55247289989E+00  0.11801658246E+01  0.00000000000E+00 0.  1.
         11    1    3    3    0    0 -0.18752573438E+02  0.18443166606E+02 -0.24835224058E+02  0.36174545737E+02  0.51100000000E-03 0. -1.
        -11    1    3    3    0    0 -0.99922407361E+01  0.43732172393E+01  0.10597068460E+01  0.10958689831E+02  0.51100000000E-03 0.  1.
        -12    1    3    3    0    0  0.27723761976E+02 -0.23028557066E+02  0.23223044312E+02  0.42874598608E+02  0.00000000000E+00 0.  1.
</event>
<event>
 7    1  0.2497665E-015  0.9000752E+02  0.7816164E-02  0.1186339E+00
        -11   -1    0    0    0    0  0.00000000000E+00  0.00000000000E+00  0.45593999997E+02  0.45594000000E+02  0.51100000000E-03 0. -1.
         11   -1    0    0    0    0 -0.00000000000E+00 -0.00000000000E+00 -0.45593999997E+02  0.45594000000E+02  0.51100000000E-03 0.  1.
    9900012    2    1    2    0    0  0.26600466952E+00  0.63186009847E+00  0.96100579484E+00  0.90007517977E+02  0.89999776414E+02 0.  0.
        -12    1    1    2    0    0 -0.26600466952E+00 -0.63186009847E+00 -0.96100579484E+00  0.11804820227E+01  0.00000000000E+00 0.  1.
         11    1    3    3    0    0  0.16628554459E+01  0.19991911089E+01  0.10040167068E+02  0.10371441960E+02  0.51100000000E-03 0. -1.
        -11    1    3    3    0    0  0.30895803168E+02 -0.35435815757E+01 -0.28253973681E+02  0.42016599729E+02  0.51100000000E-03 0.  1.
         12    1    3    3    0    0 -0.32292653944E+02  0.21762505653E+01  0.19174812408E+02  0.37619476288E+02  0.00000000000E+00 0. -1.
</event>
<event>
 7    1  0.2497665E-015  0.9000766E+02  0.7816164E-02  0.1186339E+00
        -11   -1    0    0    0    0  0.00000000000E+00  0.00000000000E+00  0.45593999997E+02  0.45594000000E+02  0.51100000000E-03 0. -1.
         11   -1    0    0    0    0 -0.00000000000E+00 -0.00000000000E+00 -0.45593999997E+02  0.45594000000E+02  0.51100000000E-03 0.  1.
    9900012    2    1    2    0    0 -0.10559350578E+01 -0.49504370391E+00 -0.18202260817E+00  0.90007661343E+02  0.89999921673E+02 0.  0.
        -12    1    1    2    0    0  0.10559350578E+01  0.49504370391E+00  0.18202260817E+00  0.11803386569E+01  0.00000000000E+00 0.  1.
         11    1    3    3    0    0 -0.83351130297E+01  0.37269915111E+01  0.25508042656E+01  0.94800410128E+01  0.51100000000E-03 0. -1.
        -11    1    3    3    0    0 -0.12524700970E+02 -0.36615732913E+02 -0.13627261196E+02  0.41027823231E+02  0.51100000000E-03 0.  1.
         12    1    3    3    0    0  0.19803878942E+02  0.32393697698E+02  0.10894434322E+02  0.39499797099E+02  0.00000000000E+00 0. -1.
</event>
<event>
 7    1  0.2497665E-015  0.9000780E+02  0.7816164E-02  0.1186339E+00
        -11   -1    0    0    0    0  0.00000000000E+00  0.00000000000E+00  0.45593999997E+02  0.45594000000E+02  0.51100000000E-03 0.  1.
         11   -1    0    0    0    0 -0.00000000000E+00 -0.00000000000E+00 -0.45593999997E+02  0.45594000000E+02  0.51100000000E-03 0. -1.
    9900012    2    1    2    0    0  0.72580537443E+00  0.55802090219E+00  0.74478269322E+00  0.90007795768E+02  0.90000057872E+02 0.  0.
        -12    1    1    2    0    0 -0.72580537443E+00 -0.55802090219E+00 -0.74478269322E+00  0.11802042319E+01  0.00000000000E+00 0.  1.
         11    1    3    3    0    0 -0.29707113512E+02  0.13460383440E+02 -0.20234804184E+02  0.38381529623E+02  0.51100000000E-03 0. -1.
        -11    1    3    3    0    0  0.37349087662E+01  0.70142315725E+01 -0.49960048066E+01  0.93866422289E+01  0.51100000000E-03 0.  1.
        -12    1    3    3    0    0  0.26698010120E+02 -0.19916594110E+02  0.25975591684E+02  0.42239623917E+02  0.00000000000E+00 0.  1.
</event>
<event>
 7    1  0.2497665E-015  0.9000795E+02  0.7816164E-02  0.1186339E+00
        -11   -1    0    0    0    0  0.00000000000E+00  0.00000000000E+00  0.45593999997E+02  0.45594000000E+02  0.51100000000E-03 0.  1.
         11   -1    0    0    0    0 -0.00000000000E+00 -0.00000000000E+00 -0.45593999997E+02  0.45594000000E+02  0.51100000000E-03 0. -1.
    9900012    2    1    2    0    0 -0.63417904025E+00  0.89099535871E+00 -0.44325199551E+00  0.90007945715E+02  0.90000209798E+02 0.  0.
        -12    1    1    2    0    0  0.63417904025E+00 -0.89099535871E+00  0.44325199551E+00  0.11800542851E+01  0.00000000000E+00 0.  1.
         11    1    3    3    0    0  0.57809179561E+01  0.15546751831E+02 -0.33344375989E+02  0.37242018142E+02  0.51100000000E-03 0. -1.
        -11    1    3    3    0    0 -0.58430731429E+01  0.33374791114E+01 -0.65567910174E+01  0.93953062366E+01  0.51100000000E-03 0.  1.
        -12    1    3    3    0    0 -0.57202385346E+00 -0.17993235584E+02  0.39457915011E+02  0.43370621336E+02  0.00000000000E+00 0.  1.
</event>
<event>
 7    1  0.2497665E-015  0.9000805E+02  0.7816164E-02  0.1186338E+00
        -11   -1    0    0    0    0  0.00000000000E+00  0.00000000000E+00  0.45593999997E+02  0.45594000000E+02  0.51100000000E-03 0.  1.
         11   -1    0    0    0    0 -0.00000000000E+00 -0.00000000000E+00 -0.45593999997E+02  0.45594000000E+02  0.51100000000E-03 0. -1.
    9900012    2    1    2    0    0 -0.22600109627E-01  0.10325244346E+01  0.57067539790E+00  0.90008047508E+02  0.90000312935E+02 0.  0.
        -12    1    1    2    0    0  0.22600109627E-01 -0.10325244346E+01 -0.57067539790E+00  0.11799524918E+01  0.00000000000E+00 0.  1.
         11    1    3    3    0    0  0.21641871263E+02 -0.25315570883E+02  0.15785751764E+02  0.36857003132E+02  0.51100000000E-03 0. -1.
        -11    1    3    3    0    0  0.79670621903E+01 -0.13722839703E+01 -0.90060181808E+01  0.12102297591E+02  0.51100000000E-03 0.  1.
        -12    1    3    3    0    0 -0.29631533563E+02  0.27720379287E+02 -0.62090581852E+01  0.41048746786E+02  0.00000000000E+00 0.  1.
</event>
<event>
 7    1  0.2497665E-015  0.9000787E+02  0.7816164E-02  0.1186339E+00
        -11   -1    0    0    0    0  0.00000000000E+00  0.00000000000E+00  0.45593999997E+02  0.45594000000E+02  0.51100000000E-03 0. -1.
         11   -1    0    0    0    0 -0.00000000000E+00 -0.00000000000E+00 -0.45593999997E+02  0.45594000000E+02  0.51100000000E-03 0.  1.
    9900012    2    1    2    0    0  0.58497245317E-02 -0.50934591468E+00  0.10645402247E+01  0.90007867224E+02  0.90000130271E+02 0.  0.
        -12    1    1    2    0    0 -0.58497245317E-02  0.50934591468E+00 -0.10645402247E+01  0.11801327764E+01  0.00000000000E+00 0.  1.
         11    1    3    3    0    0  0.31755216355E+02 -0.12539552427E+02  0.23726678471E+02  0.41576308306E+02  0.51100000000E-03 0. -1.
        -11    1    3    3    0    0  0.10722832936E+01  0.72968461072E+01  0.13392903312E+01  0.74958290687E+01  0.51100000000E-03 0.  1.
        -12    1    3    3    0    0 -0.32821649924E+02  0.47333604054E+01 -0.24001428578E+02  0.40935729849E+02  0.00000000000E+00 0.  1.
</event>
<event>
 7    1  0.2497665E-015  0.9000769E+02  0.7816164E-02  0.1186339E+00
        -11   -1    0    0    0    0  0.00000000000E+00  0.00000000000E+00  0.45593999997E+02  0.45594000000E+02  0.51100000000E-03 0.  1.
         11   -1    0    0    0    0 -0.00000000000E+00 -0.00000000000E+00 -0.45593999997E+02  0.45594000000E+02  0.51100000000E-03 0. -1.
    9900012    2    1    2    0    0 -0.10494309315E+00  0.94416898549E+00 -0.70046979934E+00  0.90007692385E+02  0.89999953125E+02 0.  0.
        -12    1    1    2    0    0  0.10494309315E+00 -0.94416898549E+00  0.70046979934E+00  0.11803076149E+01  0.00000000000E+00 0.  1.
         11    1    3    3    0    0 -0.29844973703E+01 -0.94286903725E+01  0.14900401375E+02  0.17883774436E+02  0.51100000000E-03 0. -1.
        -11    1    3    3    0    0 -0.85041057630E+01 -0.23386458914E+02  0.11448593268E+02  0.27391906897E+02  0.51100000000E-03 0.  1.
         12    1    3    3    0    0  0.11383660040E+02  0.33759318272E+02 -0.27049464442E+02  0.44732011052E+02  0.00000000000E+00 0. -1.
</event>
<event>
 7    1  0.2497665E-015  0.9000774E+02  0.7816164E-02  0.1186339E+00
        -11   -1    0    0    0    0  0.00000000000E+00  0.00000000000E+00  0.45593999997E+02  0.45594000000E+02  0.51100000000E-03 0.  1.
         11   -1    0    0    0    0 -0.00000000000E+00 -0.00000000000E+00 -0.45593999997E+02  0.45594000000E+02  0.51100000000E-03 0. -1.
    9900012    2    1    2    0    0  0.24383880857E+00 -0.69621500717E+00 -0.92132604307E+00  0.90007739699E+02  0.90000001063E+02 0.  0.
        -12    1    1    2    0    0 -0.24383880857E+00  0.69621500717E+00  0.92132604307E+00  0.11802603011E+01  0.00000000000E+00 0.  1.
         11    1    3    3    0    0 -0.16881208167E+01 -0.12873985574E+01  0.87104077559E+01  0.89653973962E+01  0.51100000000E-03 0. -1.
        -11    1    3    3    0    0 -0.15270005256E+02 -0.27558022284E+02  0.19482655159E+02  0.37043103340E+02  0.51100000000E-03 0.  1.
         12    1    3    3    0    0  0.17201964882E+02  0.28149205835E+02 -0.29114388958E+02  0.43999238963E+02  0.00000000000E+00 0. -1.
</event>
<event>
 7    1  0.2497665E-015  0.9000772E+02  0.7816164E-02  0.1186339E+00
        -11   -1    0    0    0    0  0.00000000000E+00  0.00000000000E+00  0.45593999997E+02  0.45594000000E+02  0.51100000000E-03 0.  1.
         11   -1    0    0    0    0 -0.00000000000E+00 -0.00000000000E+00 -0.45593999997E+02  0.45594000000E+02  0.51100000000E-03 0. -1.
    9900012    2    1    2    0    0  0.64113125895E+00  0.99096140374E+00 -0.28908104451E-02  0.90007719461E+02  0.89999980557E+02 0.  0.
        -12    1    1    2    0    0 -0.64113125895E+00 -0.99096140374E+00  0.28908104451E-02  0.11802805394E+01  0.00000000000E+00 0.  1.
         11    1    3    3    0    0 -0.36113056879E+02 -0.54298498173E+01 -0.82111827643E+01  0.37430731610E+02  0.51100000000E-03 0. -1.
        -11    1    3    3    0    0 -0.43033505349E+00 -0.74483567482E+01 -0.68509453793E+01  0.10129099632E+02  0.51100000000E-03 0.  1.
        -12    1    3    3    0    0  0.37184523192E+02  0.13869167969E+02  0.15059237333E+02  0.42447888219E+02  0.00000000000E+00 0.  1.
</event>
<event>
 7    1  0.2497665E-015  0.9000774E+02  0.7816164E-02  0.1186339E+00
        -11   -1    0    0    0    0  0.00000000000E+00  0.00000000000E+00  0.45593999997E+02  0.45594000000E+02  0.51100000000E-03 0. -1.
         11   -1    0    0    0    0 -0.00000000000E+00 -0.00000000000E+00 -0.45593999997E+02  0.45594000000E+02  0.51100000000E-03 0.  1.
    9900012    2    1    2    0    0  0.69147561838E+00  0.78005588922E+00  0.55351678319E+00  0.90007743015E+02  0.90000004423E+02 0.  0.
        -12    1    1    2    0    0 -0.69147561838E+00 -0.78005588922E+00 -0.55351678319E+00  0.11802569849E+01  0.00000000000E+00 0.  1.
         11    1    3    3    0    0  0.38521166715E+02 -0.48190116947E+01 -0.62734055718E-01  0.38821477234E+02  0.51100000000E-03 0. -1.
        -11    1    3    3    0    0  0.38457967852E+01  0.77976845726E+01 -0.32320170363E+01  0.92757733905E+01  0.51100000000E-03 0.  1.
        -12    1    3    3    0    0 -0.41675487881E+02 -0.21986169887E+01  0.38482678752E+01  0.41910492391E+02  0.00000000000E+00 0.  1.
</event>
<event>
 7    1  0.2497665E-015  0.9000775E+02  0.7816164E-02  0.1186339E+00
        -11   -1    0    0    0    0  0.00000000000E+00  0.00000000000E+00  0.45593999997E+02  0.45594000000E+02  0.51100000000E-03 0. -1.
         11   -1    0    0    0    0 -0.00000000000E+00 -0.00000000000E+00 -0.45593999997E+02  0.45594000000E+02  0.51100000000E-03 0.  1.
    9900012    2    1    2    0    0  0.30988272341E+00 -0.80009808540E+00  0.81043968364E+00  0.90007747176E+02  0.90000008638E+02 0.  0.
        -12    1    1    2    0    0 -0.30988272341E+00  0.80009808540E+00 -0.81043968364E+00  0.11802528243E+01  0.00000000000E+00 0.  1.
         11    1    3    3    0    0 -0.12244841257E+02 -0.24394777317E+02  0.29046665533E+02  0.39859127896E+02  0.51100000000E-03 0. -1.
        -11    1    3    3    0    0  0.92750382250E+01  0.45975890031E+01  0.51758662041E+01  0.11573839032E+02  0.51100000000E-03 0.  1.
        -12    1    3    3    0    0  0.32796857551E+01  0.18997090229E+02 -0.33412092053E+02  0.38574780248E+02  0.00000000000E+00 0.  1.
</event>
<event>
 7    1  0.3734483E-015  0.9000768E+02  0.7816164E-02  0.1186339E+00
        -11   -1    0    0    0    0  0.00000000000E+00  0.00000000000E+00  0.45593999997E+02  0.45594000000E+02  0.51100000000E-03 0. -1.
         11   -1    0    0    0    0 -0.00000000000E+00 -0.00000000000E+00 -0.45593999997E+02  0.45594000000E+02  0.51100000000E-03 0.  1.
    9900012    2    1    2    0    0 -0.32812613125E+00  0.12915153667E+00  0.11264095569E+01  0.90007684209E+02  0.89999944840E+02 0.  0.
        -12    1    1    2    0    0  0.32812613125E+00 -0.12915153667E+00 -0.11264095569E+01  0.11803157914E+01  0.00000000000E+00 0.  1.
         11    1    3    3    0    0  0.11251343566E+02  0.14623820526E+02  0.31927784276E+02  0.36875903621E+02  0.51100000000E-03 0. -1.
        -11    1    3    3    0    0  0.60230276498E+01 -0.15593003891E+01  0.70665172331E+01  0.94150913879E+01  0.51100000000E-03 0.  1.
        -12    1    3    3    0    0 -0.17602497347E+02 -0.12935368600E+02 -0.37867891953E+02  0.43716689200E+02  0.00000000000E+00 0.  1.
</event>
<event>
 7    1  0.2497665E-015  0.9000777E+02  0.7816164E-02  0.1186339E+00
        -11   -1    0    0    0    0  0.00000000000E+00  0.00000000000E+00  0.45593999997E+02  0.45594000000E+02  0.51100000000E-03 0. -1.
         11   -1    0    0    0    0 -0.00000000000E+00 -0.00000000000E+00 -0.45593999997E+02  0.45594000000E+02  0.51100000000E-03 0.  1.
    9900012    2    1    2    0    0  0.91057000992E+00 -0.74810066396E+00  0.64446749031E-01  0.90007768781E+02  0.90000030529E+02 0.  0.
        -12    1    1    2    0    0 -0.91057000992E+00  0.74810066396E+00 -0.64446749031E-01  0.11802312188E+01  0.00000000000E+00 0.  1.
         11    1    3    3    0    0 -0.11955606030E+01  0.93807438067E+01  0.12629687825E+01  0.95405875044E+01  0.51100000000E-03 0. -1.
        -11    1    3    3    0    0 -0.31865481731E+02  0.15600524701E+01  0.21038258817E+02  0.38215847812E+02  0.51100000000E-03 0.  1.
         12    1    3    3    0    0  0.33971612344E+02 -0.11688896941E+02 -0.22236780851E+02  0.42251333465E+02  0.00000000000E+00 0. -1.
</event>
<event>
 7    1  0.2497665E-015  0.9000794E+02  0.7816164E-02  0.1186339E+00
        -11   -1    0    0    0    0  0.00000000000E+00  0.00000000000E+00  0.45593999997E+02  0.45594000000E+02  0.51100000000E-03 0. -1.
         11   -1    0    0    0    0 -0.00000000000E+00 -0.00000000000E+00 -0.45593999997E+02  0.45594000000E+02  0.51100000000E-03 0.  1.
    9900012    2    1    2    0    0  0.14791549105E+00  0.10367938479E+01  0.54381330395E+00  0.90007935008E+02  0.90000198950E+02 0.  0.
        -12    1    1    2    0    0 -0.14791549105E+00 -0.10367938479E+01 -0.54381330395E+00  0.11800649919E+01  0.00000000000E+00 0.  1.
         11    1    3    3    0    0  0.25087133602E+02 -0.13398369055E+02  0.26673989773E+02  0.38992079918E+02  0.51100000000E-03 0. -1.
        -11    1    3    3    0    0 -0.26860269455E+01 -0.99378991633E+01 -0.30304685320E+01  0.10731277665E+02  0.51100000000E-03 0.  1.
        -12    1    3    3    0    0 -0.22253191165E+02  0.24373062066E+02 -0.23099707937E+02  0.40284577425E+02  0.00000000000E+00 0.  1.
</event>
<event>
 7    1  0.2497665E-015  0.9000774E+02  0.7816164E-02  0.1186339E+00
        -11   -1    0    0    0    0  0.00000000000E+00  0.00000000000E+00  0.45593999997E+02  0.45594000000E+02  0.51100000000E-03 0.  1.
         11   -1    0    0    0    0 -0.00000000000E+00 -0.00000000000E+00 -0.45593999997E+02  0.45594000000E+02  0.51100000000E-03 0. -1.
    9900012    2    1    2    0    0 -0.17707075078E+00 -0.98320013604E+00 -0.62846766883E+00  0.90007742329E+02  0.90000003728E+02 0.  0.
        -12    1    1    2    0    0  0.17707075078E+00  0.98320013604E+00  0.62846766883E+00  0.11802576706E+01  0.00000000000E+00 0.  1.
         11    1    3    3    0    0  0.91248391657E+01 -0.18888270088E+02 -0.30459706027E+02  0.36984092908E+02  0.51100000000E-03 0. -1.
        -11    1    3    3    0    0  0.30067812995E+00  0.43298693643E+01 -0.94329712324E+01  0.10383598730E+02  0.51100000000E-03 0.  1.
        -12    1    3    3    0    0 -0.96025880465E+01  0.13575200588E+02  0.39264209591E+02  0.42640050691E+02  0.00000000000E+00 0.  1.
</event>
<event>
 7    1  0.2497665E-015  0.9000780E+02  0.7816164E-02  0.1186339E+00
        -11   -1    0    0    0    0  0.00000000000E+00  0.00000000000E+00  0.45593999997E+02  0.45594000000E+02  0.51100000000E-03 0.  1.
         11   -1    0    0    0    0 -0.00000000000E+00 -0.00000000000E+00 -0.45593999997E+02  0.45594000000E+02  0.51100000000E-03 0. -1.
    9900012    2    1    2    0    0  0.73120947719E+00 -0.17709839685E+00 -0.90930729469E+00  0.90007800484E+02  0.90000062650E+02 0.  0.
        -12    1    1    2    0    0 -0.73120947719E+00  0.17709839685E+00  0.90930729469E+00  0.11801995161E+01  0.00000000000E+00 0.  1.
         11    1    3    3    0    0 -0.39083144821E+00 -0.15431555880E+00 -0.92976105026E+01  0.93071007211E+01  0.51100000000E-03 0. -1.
        -11    1    3    3    0    0  0.19724293782E+02 -0.22879556956E+01  0.39597687345E+02  0.44297396648E+02  0.51100000000E-03 0.  1.
         12    1    3    3    0    0 -0.18602252856E+02  0.22651728576E+01 -0.31209384138E+02  0.36403303114E+02  0.00000000000E+00 0. -1.
</event>
<event>
 7    1  0.2497665E-015  0.9000774E+02  0.7816164E-02  0.1186339E+00
        -11   -1    0    0    0    0  0.00000000000E+00  0.00000000000E+00  0.45593999997E+02  0.45594000000E+02  0.51100000000E-03 0. -1.
         11   -1    0    0    0    0 -0.00000000000E+00 -0.00000000000E+00 -0.45593999997E+02  0.45594000000E+02  0.51100000000E-03 0.  1.
    9900012    2    1    2    0    0  0.97468596403E+00 -0.49030836047E+00  0.45009679519E+00  0.90007744883E+02  0.90000006315E+02 0.  0.
        -12    1    1    2    0    0 -0.97468596403E+00  0.49030836047E+00 -0.45009679519E+00  0.11802551173E+01  0.00000000000E+00 0.  1.
         11    1    3    3    0    0 -0.13086625761E+02 -0.38988891682E+02  0.10214881369E+02  0.42376140103E+02  0.51100000000E-03 0. -1.
        -11    1    3    3    0    0  0.79417006072E+01  0.35611402980E+00 -0.24146117195E+01  0.83082955986E+01  0.51100000000E-03 0.  1.
        -12    1    3    3    0    0  0.61196111177E+01  0.38142469292E+02 -0.73501728547E+01  0.39323309181E+02  0.00000000000E+00 0.  1.
</event>
<event>
 7    1  0.2497665E-015  0.9000775E+02  0.7816164E-02  0.1186339E+00
        -11   -1    0    0    0    0  0.00000000000E+00  0.00000000000E+00  0.45593999997E+02  0.45594000000E+02  0.51100000000E-03 0. -1.
         11   -1    0    0    0    0 -0.00000000000E+00 -0.00000000000E+00 -0.45593999997E+02  0.45594000000E+02  0.51100000000E-03 0.  1.
    9900012    2    1    2    0    0 -0.94466305081E+00 -0.44242040025E+00  0.55214409590E+00  0.90007751216E+02  0.90000012732E+02 0.  0.
        -12    1    1    2    0    0  0.94466305081E+00  0.44242040025E+00 -0.55214409590E+00  0.11802487843E+01  0.00000000000E+00 0.  1.
         11    1    3    3    0    0  0.31074149551E+01  0.17043333879E+01 -0.11113619396E+02  0.11665046778E+02  0.51100000000E-03 0. -1.
        -11    1    3    3    0    0  0.28288529038E+02 -0.25077864993E+02  0.65840069040E+01  0.38373028743E+02  0.51100000000E-03 0.  1.
         12    1    3    3    0    0 -0.32340607044E+02  0.22931111205E+02  0.50817565879E+01  0.39969675694E+02  0.00000000000E+00 0. -1.
</event>
<event>
 7    1  0.2497665E-015  0.9000779E+02  0.7816164E-02  0.1186339E+00
        -11   -1    0    0    0    0  0.00000000000E+00  0.00000000000E+00  0.45593999997E+02  0.45594000000E+02  0.51100000000E-03 0.  1.
         11   -1    0    0    0    0 -0.00000000000E+00 -0.00000000000E+00 -0.45593999997E+02  0.45594000000E+02  0.51100000000E-03 0. -1.
    9900012    2    1    2    0    0  0.13004874562E+00 -0.96710988066E+00  0.66383580710E+00  0.90007791469E+02  0.90000053517E+02 0.  0.
        -12    1    1    2    0    0 -0.13004874562E+00  0.96710988066E+00 -0.66383580710E+00  0.11802085309E+01  0.00000000000E+00 0.  1.
         11    1    3    3    0    0  0.86798837688E+01  0.29767703814E+00  0.59777496073E+00  0.87055343904E+01  0.51100000000E-03 0. -1.
        -11    1    3    3    0    0  0.27677406539E+02  0.22152838129E+02 -0.10339118918E+02  0.36928098382E+02  0.51100000000E-03 0.  1.
         12    1    3    3    0    0 -0.36227241562E+02 -0.23417625048E+02  0.10405179764E+02  0.44374158696E+02  0.00000000000E+00 0. -1.
</event>
<event>
 7    1  0.2497665E-015  0.9000775E+02  0.7816164E-02  0.1186339E+00
        -11   -1    0    0    0    0  0.00000000000E+00  0.00000000000E+00  0.45593999997E+02  0.45594000000E+02  0.51100000000E-03 0.  1.
         11   -1    0    0    0    0 -0.00000000000E+00 -0.00000000000E+00 -0.45593999997E+02  0.45594000000E+02  0.51100000000E-03 0. -1.
    9900012    2    1    2    0    0 -0.10235790932E+01 -0.15367525782E+00 -0.56714941895E+00  0.90007750574E+02  0.90000012081E+02 0.  0.
        -12    1    1    2    0    0  0.10235790932E+01  0.15367525782E+00  0.56714941895E+00  0.11802494263E+01  0.00000000000E+00 0.  1.
         11    1    3    3    0    0  0.58480952299E+01 -0.66474392131E+00  0.64773296837E+01  0.87520227600E+01  0.51100000000E-03 0. -1.
        -11    1    3    3    0    0  0.66291833176E+00 -0.60497984311E+01  0.36283720923E+02  0.36790595620E+02  0.51100000000E-03 0.  1.
         12    1    3    3    0    0 -0.75345926548E+01  0.65608670946E+01 -0.43328200026E+02  0.44465132194E+02  0.00000000000E+00 0. -1.
</event>
<event>
 7    1  0.2497665E-015  0.9000778E+02  0.7816164E-02  0.1186339E+00
        -11   -1    0    0    0    0  0.00000000000E+00  0.00000000000E+00  0.45593999997E+02  0.45594000000E+02  0.51100000000E-03 0.  1.
         11   -1    0    0    0    0 -0.00000000000E+00 -0.00000000000E+00 -0.45593999997E+02  0.45594000000E+02  0.51100000000E-03 0. -1.
    9900012    2    1    2    0    0  0.72424261074E+00 -0.32050010689E+00 -0.87503113764E+00  0.90007776644E+02  0.90000038496E+02 0.  0.
        -12    1    1    2    0    0 -0.72424261074E+00  0.32050010689E+00  0.87503113764E+00  0.11802233558E+01  0.00000000000E+00 0.  1.
         11    1    3    3    0    0 -0.28192788053E+02 -0.19912203487E+02  0.75214027491E+01  0.35325637227E+02  0.51100000000E-03 0. -1.
        -11    1    3    3    0    0 -0.70435228662E+01 -0.55655281080E+01  0.27745015533E+01  0.93959659758E+01  0.51100000000E-03 0.  1.
        -12    1    3    3    0    0  0.35960553530E+02  0.25157231488E+02 -0.11170935440E+02  0.45286173441E+02  0.00000000000E+00 0.  1.
</event>
<event>
 7    1  0.2497665E-015  0.9000779E+02  0.7816164E-02  0.1186339E+00
        -11   -1    0    0    0    0  0.00000000000E+00  0.00000000000E+00  0.45593999997E+02  0.45594000000E+02  0.51100000000E-03 0.  1.
         11   -1    0    0    0    0 -0.00000000000E+00 -0.00000000000E+00 -0.45593999997E+02  0.45594000000E+02  0.51100000000E-03 0. -1.
    9900012    2    1    2    0    0  0.19395669744E+00  0.11615020870E+01  0.78671767545E-01  0.90007790042E+02  0.90000052070E+02 0.  0.
        -12    1    1    2    0    0 -0.19395669744E+00 -0.11615020870E+01 -0.78671767545E-01  0.11802099583E+01  0.00000000000E+00 0.  1.
         11    1    3    3    0    0  0.28997443330E+02 -0.24292341959E+02  0.55139842973E+00  0.37832177283E+02  0.51100000000E-03 0. -1.
        -11    1    3    3    0    0  0.24412276239E+01 -0.34970706510E+01 -0.78615501690E+01  0.89438843223E+01  0.51100000000E-03 0.  1.
        -12    1    3    3    0    0 -0.31244714256E+02  0.28950914697E+02  0.73888235068E+01  0.43231728436E+02  0.00000000000E+00 0.  1.
</event>
<event>
 7    1  0.2497665E-015  0.9000785E+02  0.7816164E-02  0.1186339E+00
        -11   -1    0    0    0    0  0.00000000000E+00  0.00000000000E+00  0.45593999997E+02  0.45594000000E+02  0.51100000000E-03 0.  1.
         11   -1    0    0    0    0 -0.00000000000E+00 -0.00000000000E+00 -0.45593999997E+02  0.45594000000E+02  0.51100000000E-03 0. -1.
    9900012    2    1    2    0    0 -0.10348689914E-01  0.33121220019E+00 -0.11326681946E+01  0.90007853460E+02  0.90000116326E+02 0.  0.
        -12    1    1    2    0    0  0.10348689914E-01 -0.33121220019E+00  0.11326681946E+01  0.11801465401E+01  0.00000000000E+00 0.  1.
         11    1    3    3    0    0  0.21648285338E+02 -0.23909774661E+02  0.10629755645E+02  0.33960525434E+02  0.51100000000E-03 0. -1.
        -11    1    3    3    0    0  0.38607854153E+01 -0.91515379183E+01 -0.98316528583E+01  0.13975611202E+02  0.51100000000E-03 0.  1.
        -12    1    3    3    0    0 -0.25519419444E+02  0.33392524780E+02 -0.19307709811E+01  0.42071716823E+02  0.00000000000E+00 0.  1.
</event>
<event>
 7    1  0.2565693E-015  0.9000774E+02  0.7816164E-02  0.1186339E+00
        -11   -1    0    0    0    0  0.00000000000E+00  0.00000000000E+00  0.45593999997E+02  0.45594000000E+02  0.51100000000E-03 0.  1.
         11   -1    0    0    0    0 -0.00000000000E+00 -0.00000000000E+00 -0.45593999997E+02  0.45594000000E+02  0.51100000000E-03 0. -1.
    9900012    2    1    2    0    0 -0.37713711878E+00  0.91671428395E+00 -0.64064107788E+00  0.90007737963E+02  0.89999999304E+02 0.  0.
        -12    1    1    2    0    0  0.37713711878E+00 -0.91671428395E+00  0.64064107788E+00  0.11802620368E+01  0.00000000000E+00 0.  1.
         11    1    3    3    0    0  0.40385859803E+02 -0.66368197996E+01 -0.11529952552E+02  0.42520640343E+02  0.51100000000E-03 0. -1.
        -11    1    3    3    0    0 -0.57306387061E+01  0.83243078129E+01 -0.17103560052E+01  0.10249860412E+02  0.51100000000E-03 0.  1.
        -12    1    3    3    0    0 -0.35032358216E+02 -0.77077372934E+00  0.12599667479E+02  0.37237237208E+02  0.00000000000E+00 0.  1.
</event>
<event>
 7    1  0.2497665E-015  0.9000782E+02  0.7816164E-02  0.1186339E+00
        -11   -1    0    0    0    0  0.00000000000E+00  0.00000000000E+00  0.45593999997E+02  0.45594000000E+02  0.51100000000E-03 0. -1.
         11   -1    0    0    0    0 -0.00000000000E+00 -0.00000000000E+00 -0.45593999997E+02  0.45594000000E+02  0.51100000000E-03 0.  1.
    9900012    2    1    2    0    0  0.97060498931E+00  0.50224119459E+00  0.44552914388E+00  0.90007823538E+02  0.90000086009E+02 0.  0.
        -12    1    1    2    0    0 -0.97060498931E+00 -0.50224119459E+00 -0.44552914388E+00  0.11801764617E+01  0.00000000000E+00 0.  1.
         11    1    3    3    0    0  0.12492715711E+01  0.12450260995E+02 -0.12548008423E+01  0.12575539897E+02  0.51100000000E-03 0. -1.
        -11    1    3    3    0    0  0.45734186694E+01  0.56112868523E+01 -0.35382979962E+02  0.36115896358E+02  0.51100000000E-03 0.  1.
         12    1    3    3    0    0 -0.48520852512E+01 -0.17559306652E+02  0.37083309948E+02  0.41316387283E+02  0.00000000000E+00 0. -1.
</event>
<event>
 7    1  0.2497665E-015  0.9000770E+02  0.7816164E-02  0.1186339E+00
        -11   -1    0    0    0    0  0.00000000000E+00  0.00000000000E+00  0.45593999997E+02  0.45594000000E+02  0.51100000000E-03 0. -1.
         11   -1    0    0    0    0 -0.00000000000E+00 -0.00000000000E+00 -0.45593999997E+02  0.45594000000E+02  0.51100000000E-03 0.  1.
    9900012    2    1    2    0    0  0.81852351757E+00 -0.74467404474E+00  0.41060247243E+00  0.90007697254E+02  0.89999958058E+02 0.  0.
        -12    1    1    2    0    0 -0.81852351757E+00  0.74467404474E+00 -0.41060247243E+00  0.11803027459E+01  0.00000000000E+00 0.  1.
         11    1    3    3    0    0 -0.25302409348E+02 -0.27988930144E+02  0.41627306818E+01  0.37959458063E+02  0.51100000000E-03 0. -1.
        -11    1    3    3    0    0 -0.79048129849E+01  0.40565115618E+01 -0.61455863064E+01  0.10803221079E+02  0.51100000000E-03 0.  1.
        -12    1    3    3    0    0  0.34025745850E+02  0.23187744538E+02  0.23934580971E+01  0.41245018112E+02  0.00000000000E+00 0.  1.
</event>
<event>
 7    1  0.2497665E-015  0.9000782E+02  0.7816164E-02  0.1186339E+00
        -11   -1    0    0    0    0  0.00000000000E+00  0.00000000000E+00  0.45593999997E+02  0.45594000000E+02  0.51100000000E-03 0. -1.
         11   -1    0    0    0    0 -0.00000000000E+00 -0.00000000000E+00 -0.45593999997E+02  0.45594000000E+02  0.51100000000E-03 0.  1.
    9900012    2    1    2    0    0 -0.61506603537E+00  0.77139573209E+00 -0.64766910869E+00  0.90007816591E+02  0.90000078970E+02 0.  0.
        -12    1    1    2    0    0  0.61506603537E+00 -0.77139573209E+00  0.64766910869E+00  0.11801834085E+01  0.00000000000E+00 0.  1.
         11    1    3    3    0    0 -0.25828657039E+02 -0.86708957516E+01  0.33667382248E+02  0.43310467386E+02  0.51100000000E-03 0. -1.
        -11    1    3    3    0    0  0.49561101306E+01  0.80133670707E+01 -0.40622264010E+01  0.10260543993E+02  0.51100000000E-03 0.  1.
        -12    1    3    3    0    0  0.20257480873E+02  0.14289244130E+01 -0.30252824955E+02  0.36436805212E+02  0.00000000000E+00 0.  1.
</event>
<event>
 7    1  0.2497665E-015  0.9000764E+02  0.7816164E-02  0.1186339E+00
        -11   -1    0    0    0    0  0.00000000000E+00  0.00000000000E+00  0.45593999997E+02  0.45594000000E+02  0.51100000000E-03 0.  1.
         11   -1    0    0    0    0 -0.00000000000E+00 -0.00000000000E+00 -0.45593999997E+02  0.45594000000E+02  0.51100000000E-03 0. -1.
    9900012    2    1    2    0    0 -0.71927303222E+00  0.86313594853E+00 -0.36180248556E+00  0.90007636328E+02  0.89999896327E+02 0.  0.
        -12    1    1    2    0    0  0.71927303222E+00 -0.86313594853E+00  0.36180248556E+00  0.11803636724E+01  0.00000000000E+00 0.  1.
         11    1    3    3    0    0 -0.40874138131E+02  0.18178207933E+01 -0.78624488131E+01  0.41663146089E+02  0.51100000000E-03 0. -1.
        -11    1    3    3    0    0  0.41264317859E+01  0.87506819119E+01 -0.19140013846E+01  0.98623158928E+01  0.51100000000E-03 0.  1.
        -12    1    3    3    0    0  0.36028433313E+02 -0.97053667567E+01  0.94146477121E+01  0.38482174346E+02  0.00000000000E+00 0.  1.
</event>
<event>
 7    1  0.2497665E-015  0.9000786E+02  0.7816164E-02  0.1186339E+00
        -11   -1    0    0    0    0  0.00000000000E+00  0.00000000000E+00  0.45593999997E+02  0.45594000000E+02  0.51100000000E-03 0. -1.
         11   -1    0    0    0    0 -0.00000000000E+00 -0.00000000000E+00 -0.45593999997E+02  0.45594000000E+02  0.51100000000E-03 0.  1.
    9900012    2    1    2    0    0 -0.73695922464E+00 -0.76837047362E+00 -0.50914865759E+00  0.90007858297E+02  0.90000121226E+02 0.  0.
        -12    1    1    2    0    0  0.73695922464E+00  0.76837047362E+00  0.50914865759E+00  0.11801417029E+01  0.00000000000E+00 0.  1.
         11    1    3    3    0    0 -0.60785434186E+01 -0.35009072086E+02  0.23359117047E+02  0.42523313228E+02  0.51100000000E-03 0. -1.
        -11    1    3    3    0    0  0.94327766508E+01  0.58988281186E+01 -0.12341986882E+02  0.16616199595E+02  0.51100000000E-03 0.  1.
        -12    1    3    3    0    0 -0.40911924569E+01  0.28341873493E+02 -0.11526278822E+02  0.30868345474E+02  0.00000000000E+00 0.  1.
</event>
<event>
 7    1  0.2497665E-015  0.9000775E+02  0.7816164E-02  0.1186339E+00
        -11   -1    0    0    0    0  0.00000000000E+00  0.00000000000E+00  0.45593999997E+02  0.45594000000E+02  0.51100000000E-03 0.  1.
         11   -1    0    0    0    0 -0.00000000000E+00 -0.00000000000E+00 -0.45593999997E+02  0.45594000000E+02  0.51100000000E-03 0. -1.
    9900012    2    1    2    0    0 -0.60205484652E-01  0.38727483700E+00 -0.11132809764E+01  0.90007745353E+02  0.90000006791E+02 0.  0.
        -12    1    1    2    0    0  0.60205484652E-01 -0.38727483700E+00  0.11132809764E+01  0.11802546472E+01  0.00000000000E+00 0.  1.
         11    1    3    3    0    0  0.91232205827E+01 -0.53001942816E+01  0.30216595824E+01  0.10975228477E+02  0.51100000000E-03 0. -1.
        -11    1    3    3    0    0 -0.36298523394E+01 -0.30027466741E+02  0.19370834366E+02  0.35917319098E+02  0.51100000000E-03 0.  1.
         12    1    3    3    0    0 -0.55535737279E+01  0.35714935860E+02 -0.23505774924E+02  0.43115197778E+02  0.00000000000E+00 0. -1.
</event>
<event>
 7    1  0.2497665E-015  0.9000772E+02  0.7816164E-02  0.1186339E+00
        -11   -1    0    0    0    0  0.00000000000E+00  0.00000000000E+00  0.45593999997E+02  0.45594000000E+02  0.51100000000E-03 0. -1.
         11   -1    0    0    0    0 -0.00000000000E+00 -0.00000000000E+00 -0.45593999997E+02  0.45594000000E+02  0.51100000000E-03 0.  1.
    9900012    2    1    2    0    0 -0.41274055854E+00 -0.68952311159E+00  0.86443866135E+00  0.90007724147E+02  0.89999985306E+02 0.  0.
        -12    1    1    2    0    0  0.41274055854E+00  0.68952311159E+00 -0.86443866135E+00  0.11802758531E+01  0.00000000000E+00 0.  1.
         11    1    3    3    0    0  0.20457418017E+02  0.22493395301E+02  0.22995503925E+02  0.38121542271E+02  0.51100000000E-03 0. -1.
        -11    1    3    3    0    0 -0.62955258846E+01  0.30368917586E+01  0.71268736771E+01  0.99824188646E+01  0.51100000000E-03 0.  1.
        -12    1    3    3    0    0 -0.14574632691E+02 -0.26219810171E+02 -0.29257938941E+02  0.41903763012E+02  0.00000000000E+00 0.  1.
</event>
<event>
 7    1  0.2497665E-015  0.9000773E+02  0.7816164E-02  0.1186339E+00
        -11   -1    0    0    0    0  0.00000000000E+00  0.00000000000E+00  0.45593999997E+02  0.45594000000E+02  0.51100000000E-03 0.  1.
         11   -1    0    0    0    0 -0.00000000000E+00 -0.00000000000E+00 -0.45593999997E+02  0.45594000000E+02  0.51100000000E-03 0. -1.
    9900012    2    1    2    0    0 -0.28246361464E+00  0.15393037811E+00  0.11355890558E+01  0.90007727676E+02  0.89999988881E+02 0.  0.
        -12    1    1    2    0    0  0.28246361464E+00 -0.15393037811E+00 -0.11355890558E+01  0.11802723239E+01  0.00000000000E+00 0.  1.
         11    1    3    3    0    0 -0.32698657640E+01 -0.37443399158E+02  0.71422754763E+01  0.38258492676E+02  0.51100000000E-03 0. -1.
        -11    1    3    3    0    0 -0.94174149838E+01 -0.10137951493E+01  0.34951287866E+01  0.10096108710E+02  0.51100000000E-03 0.  1.
        -12    1    3    3    0    0  0.12404817133E+02  0.38611124685E+02 -0.95018152072E+01  0.41653126291E+02  0.00000000000E+00 0.  1.
</event>
<event>
 7    1  0.2497665E-015  0.9000778E+02  0.7816164E-02  0.1186339E+00
        -11   -1    0    0    0    0  0.00000000000E+00  0.00000000000E+00  0.45593999997E+02  0.45594000000E+02  0.51100000000E-03 0. -1.
         11   -1    0    0    0    0 -0.00000000000E+00 -0.00000000000E+00 -0.45593999997E+02  0.45594000000E+02  0.51100000000E-03 0.  1.
    9900012    2    1    2    0    0 -0.10539277667E+01 -0.18901029046E+00 -0.49642503440E+00  0.90007776952E+02  0.90000038808E+02 0.  0.
        -12    1    1    2    0    0  0.10539277667E+01  0.18901029046E+00  0.49642503440E+00  0.11802230476E+01  0.00000000000E+00 0.  1.
         11    1    3    3    0    0 -0.25722321930E+01 -0.35714647280E+01 -0.87414044583E+01  0.97869244875E+01  0.51100000000E-03 0. -1.
        -11    1    3    3    0    0 -0.26700279489E+02 -0.15056472629E+02 -0.19697834953E+02  0.36436341678E+02  0.51100000000E-03 0.  1.
         12    1    3    3    0    0  0.28218583915E+02  0.18438927067E+02  0.27942814377E+02  0.43784510787E+02  0.00000000000E+00 0. -1.
</event>
<event>
 7    1  0.2497665E-015  0.9000768E+02  0.7816164E-02  0.1186339E+00
        -11   -1    0    0    0    0  0.00000000000E+00  0.00000000000E+00  0.45593999997E+02  0.45594000000E+02  0.51100000000E-03 0.  1.
         11   -1    0    0    0    0 -0.00000000000E+00 -0.00000000000E+00 -0.45593999997E+02  0.45594000000E+02  0.51100000000E-03 0. -1.
    9900012    2    1    2    0    0  0.91416366312E+00  0.42964900777E+00 -0.61061723454E+00  0.90007683568E+02  0.89999944191E+02 0.  0.
        -12    1    1    2    0    0 -0.91416366312E+00 -0.42964900777E+00  0.61061723454E+00  0.11803164321E+01  0.00000000000E+00 0.  1.
         11    1    3    3    0    0  0.30959575056E+02  0.91716182848E+01 -0.23884057876E+02  0.40162944246E+02  0.51100000000E-03 0. -1.
        -11    1    3    3    0    0 -0.38320917647E+01  0.69751680655E+01 -0.39767185200E+01  0.88967515017E+01  0.51100000000E-03 0.  1.
        -12    1    3    3    0    0 -0.26213319628E+02 -0.15717137343E+02  0.27250159162E+02  0.40947987820E+02  0.00000000000E+00 0.  1.
</event>
<event>
 7    1  0.2497665E-015  0.9000770E+02  0.7816164E-02  0.1186339E+00
        -11   -1    0    0    0    0  0.00000000000E+00  0.00000000000E+00  0.45593999997E+02  0.45594000000E+02  0.51100000000E-03 0.  1.
         11   -1    0    0    0    0 -0.00000000000E+00 -0.00000000000E+00 -0.45593999997E+02  0.45594000000E+02  0.51100000000E-03 0. -1.
    9900012    2    1    2    0    0  0.43534477078E+00 -0.10856784801E+01 -0.15777234524E+00  0.90007697096E+02  0.89999957898E+02 0.  0.
        -12    1    1    2    0    0 -0.43534477078E+00  0.10856784801E+01  0.15777234524E+00  0.11803029037E+01  0.00000000000E+00 0.  1.
         11    1    3    3    0    0 -0.32192526761E+01  0.34218450870E+01  0.66025715940E+01  0.81034908223E+01  0.51100000000E-03 0. -1.
        -11    1    3    3    0    0  0.10123917861E+02  0.63109051933E+01  0.35685194746E+02  0.37626511418E+02  0.51100000000E-03 0.  1.
         12    1    3    3    0    0 -0.64693204140E+01 -0.10818428760E+02 -0.42445538685E+02  0.44277694856E+02  0.00000000000E+00 0. -1.
</event>
<event>
 7    1  0.2497665E-015  0.9000757E+02  0.7816164E-02  0.1186339E+00
        -11   -1    0    0    0    0  0.00000000000E+00  0.00000000000E+00  0.45593999997E+02  0.45594000000E+02  0.51100000000E-03 0.  1.
         11   -1    0    0    0    0 -0.00000000000E+00 -0.00000000000E+00 -0.45593999997E+02  0.45594000000E+02  0.51100000000E-03 0. -1.
    9900012    2    1    2    0    0  0.96191098258E+00  0.66424043780E+00 -0.16412786380E+00  0.90007565312E+02  0.89999824374E+02 0.  0.
        -12    1    1    2    0    0 -0.96191098258E+00 -0.66424043780E+00  0.16412786380E+00  0.11804346883E+01  0.00000000000E+00 0.  1.
         11    1    3    3    0    0 -0.26888831725E+02 -0.18436156948E+02 -0.18410134217E+02  0.37441076329E+02  0.51100000000E-03 0. -1.
        -11    1    3    3    0    0 -0.67098528252E+01 -0.31733216181E+01  0.63386537427E+01  0.97606673214E+01  0.51100000000E-03 0.  1.
        -12    1    3    3    0    0  0.34560595533E+02  0.22273719004E+02  0.11907352610E+02  0.42805821661E+02  0.00000000000E+00 0.  1.
</event>
<event>
 7    1  0.2497665E-015  0.9000783E+02  0.7816164E-02  0.1186339E+00
        -11   -1    0    0    0    0  0.00000000000E+00  0.00000000000E+00  0.45593999997E+02  0.45594000000E+02  0.51100000000E-03 0.  1.
         11   -1    0    0    0    0 -0.00000000000E+00 -0.00000000000E+00 -0.45593999997E+02  0.45594000000E+02  0.51100000000E-03 0. -1.
    9900012    2    1    2    0    0 -0.96377671948E+00  0.56288196690E+00  0.38353598461E+00  0.90007829874E+02  0.90000092429E+02 0.  0.
        -12    1    1    2    0    0  0.96377671948E+00 -0.56288196690E+00 -0.38353598461E+00  0.11801701255E+01  0.00000000000E+00 0.  1.
         11    1    3    3    0    0 -0.16836503494E+02 -0.30631410853E+02  0.27794961483E+01  0.35063895675E+02  0.51100000000E-03 0. -1.
        -11    1    3    3    0    0 -0.12186158888E+02  0.29658134006E+01  0.65505153112E+01  0.14149479449E+02  0.51100000000E-03 0.  1.
        -12    1    3    3    0    0  0.28058885663E+02  0.28228479420E+02 -0.89464754750E+01  0.40794454751E+02  0.00000000000E+00 0.  1.
</event>
<event>
 7    1  0.2497665E-015  0.9000772E+02  0.7816164E-02  0.1186339E+00
        -11   -1    0    0    0    0  0.00000000000E+00  0.00000000000E+00  0.45593999997E+02  0.45594000000E+02  0.51100000000E-03 0.  1.
         11   -1    0    0    0    0 -0.00000000000E+00 -0.00000000000E+00 -0.45593999997E+02  0.45594000000E+02  0.51100000000E-03 0. -1.
    9900012    2    1    2    0    0 -0.74392930240E+00 -0.44414913325E+00 -0.80147322089E+00  0.90007720972E+02  0.89999982089E+02 0.  0.
        -12    1    1    2    0    0  0.74392930240E+00  0.44414913325E+00  0.80147322089E+00  0.11802790277E+01  0.00000000000E+00 0.  1.
         11    1    3    3    0    0 -0.32428342139E+02  0.10039125844E+02 -0.28260309086E+02  0.44170425530E+02  0.51100000000E-03 0. -1.
        -11    1    3    3    0    0  0.11755041024E+02 -0.14491906368E+00  0.20549013057E+01  0.11934178257E+02  0.51100000000E-03 0.  1.
        -12    1    3    3    0    0  0.19929371812E+02 -0.10338355913E+02  0.25403934559E+02  0.33903117186E+02  0.00000000000E+00 0.  1.
</event>
<event>
 7    1  0.2497665E-015  0.9000797E+02  0.7816164E-02  0.1186339E+00
        -11   -1    0    0    0    0  0.00000000000E+00  0.00000000000E+00  0.45593999997E+02  0.45594000000E+02  0.51100000000E-03 0.  1.
         11   -1    0    0    0    0 -0.00000000000E+00 -0.00000000000E+00 -0.45593999997E+02  0.45594000000E+02  0.51100000000E-03 0. -1.
    9900012    2    1    2    0    0 -0.11817018292E+00  0.58385583255E+00 -0.10186406063E+01  0.90007965886E+02  0.90000230235E+02 0.  0.
        -12    1    1    2    0    0  0.11817018292E+00 -0.58385583255E+00  0.10186406063E+01  0.11800341140E+01  0.00000000000E+00 0.  1.
         11    1    3    3    0    0  0.18302250799E+01  0.21048099014E+00  0.80931409370E+01  0.83001781051E+01  0.51100000000E-03 0. -1.
        -11    1    3    3    0    0  0.10893838064E+02  0.31374034156E+02  0.18709529797E+02  0.38118922237E+02  0.51100000000E-03 0.  1.
         12    1    3    3    0    0 -0.12842233327E+02 -0.31000659314E+02 -0.27821311340E+02  0.43588865544E+02  0.00000000000E+00 0. -1.
</event>
<event>
 7    1  0.2497665E-015  0.9000773E+02  0.7816164E-02  0.1186339E+00
        -11   -1    0    0    0    0  0.00000000000E+00  0.00000000000E+00  0.45593999997E+02  0.45594000000E+02  0.51100000000E-03 0.  1.
         11   -1    0    0    0    0 -0.00000000000E+00 -0.00000000000E+00 -0.45593999997E+02  0.45594000000E+02  0.51100000000E-03 0. -1.
    9900012    2    1    2    0    0  0.23379673810E+00  0.11259614992E+01 -0.26569931046E+00  0.90007726161E+02  0.89999987346E+02 0.  0.
        -12    1    1    2    0    0 -0.23379673810E+00 -0.11259614992E+01  0.26569931046E+00  0.11802738394E+01  0.00000000000E+00 0.  1.
         11    1    3    3    0    0 -0.34199758067E+01 -0.39941550101E+00  0.93968415977E+01  0.10007816922E+02  0.51100000000E-03 0. -1.
        -11    1    3    3    0    0  0.25437382780E+02 -0.20715612398E+02  0.18806464168E+02  0.37813755890E+02  0.51100000000E-03 0.  1.
         12    1    3    3    0    0 -0.21783610236E+02  0.22240989399E+02 -0.28469005076E+02  0.42186153349E+02  0.00000000000E+00 0. -1.
</event>
<event>
 7    1  0.2497665E-015  0.9000804E+02  0.7816164E-02  0.1186338E+00
        -11   -1    0    0    0    0  0.00000000000E+00  0.00000000000E+00  0.45593999997E+02  0.45594000000E+02  0.51100000000E-03 0.  1.
         11   -1    0    0    0    0 -0.00000000000E+00 -0.00000000000E+00 -0.45593999997E+02  0.45594000000E+02  0.51100000000E-03 0. -1.
    9900012    2    1    2    0    0  0.10413633912E+01 -0.21841026158E+00  0.51005464780E+00  0.90008043857E+02  0.90000309236E+02 0.  0.
        -12    1    1    2    0    0 -0.10413633912E+01  0.21841026158E+00 -0.51005464780E+00  0.11799561427E+01  0.00000000000E+00 0.  1.
         11    1    3    3    0    0 -0.23811408195E+01 -0.11402614003E+01  0.98944643194E+01  0.10240627524E+02  0.51100000000E-03 0. -1.
        -11    1    3    3    0    0  0.24194315959E+02 -0.93279396552E+01  0.26487534969E+02  0.37067032413E+02  0.51100000000E-03 0.  1.
         12    1    3    3    0    0 -0.20771811748E+02  0.10249790794E+02 -0.35871944640E+02  0.42700383920E+02  0.00000000000E+00 0. -1.
</event>
<event>
 7    1  0.2497665E-015  0.9000771E+02  0.7816164E-02  0.1186339E+00
        -11   -1    0    0    0    0  0.00000000000E+00  0.00000000000E+00  0.45593999997E+02  0.45594000000E+02  0.51100000000E-03 0. -1.
         11   -1    0    0    0    0 -0.00000000000E+00 -0.00000000000E+00 -0.45593999997E+02  0.45594000000E+02  0.51100000000E-03 0.  1.
    9900012    2    1    2    0    0  0.29978504285E+00  0.48341245725E+00  0.10341758476E+01  0.90007712595E+02  0.89999973601E+02 0.  0.
        -12    1    1    2    0    0 -0.29978504285E+00 -0.48341245725E+00 -0.10341758476E+01  0.11802874055E+01  0.00000000000E+00 0.  1.
         11    1    3    3    0    0 -0.54826897135E+01  0.25304159611E+01 -0.33662692419E+00  0.60478268310E+01  0.51100000000E-03 0. -1.
        -11    1    3    3    0    0  0.18016072146E+02  0.36533050816E+02  0.11328409615E+02  0.42279729448E+02  0.51100000000E-03 0.  1.
         12    1    3    3    0    0 -0.12233597390E+02 -0.38580054320E+02 -0.99576068430E+01  0.41680156316E+02  0.00000000000E+00 0. -1.
</event>
<event>
 7    1  0.2497665E-015  0.9000777E+02  0.7816164E-02  0.1186339E+00
        -11   -1    0    0    0    0  0.00000000000E+00  0.00000000000E+00  0.45593999997E+02  0.45594000000E+02  0.51100000000E-03 0.  1.
         11   -1    0    0    0    0 -0.00000000000E+00 -0.00000000000E+00 -0.45593999997E+02  0.45594000000E+02  0.51100000000E-03 0. -1.
    9900012    2    1    2    0    0 -0.57336782951E+00 -0.96594971110E+00  0.36213225990E+00  0.90007767275E+02  0.90000029003E+02 0.  0.
        -12    1    1    2    0    0  0.57336782951E+00  0.96594971110E+00 -0.36213225990E+00  0.11802327253E+01  0.00000000000E+00 0.  1.
         11    1    3    3    0    0  0.29938417463E+02  0.13234999907E+02  0.16040069974E+02  0.36452131731E+02  0.51100000000E-03 0. -1.
        -11    1    3    3    0    0  0.86827073300E+01  0.17321088028E+01 -0.35855647242E+01  0.95522710460E+01  0.51100000000E-03 0.  1.
        -12    1    3    3    0    0 -0.39194492622E+02 -0.15933058421E+02 -0.12092372990E+02  0.44003364497E+02  0.00000000000E+00 0.  1.
</event>
<event>
 7    1  0.2497665E-015  0.9000776E+02  0.7816164E-02  0.1186339E+00
        -11   -1    0    0    0    0  0.00000000000E+00  0.00000000000E+00  0.45593999997E+02  0.45594000000E+02  0.51100000000E-03 0. -1.
         11   -1    0    0    0    0 -0.00000000000E+00 -0.00000000000E+00 -0.45593999997E+02  0.45594000000E+02  0.51100000000E-03 0.  1.
    9900012    2    1    2    0    0  0.29723116436E+00  0.10062047240E+01 -0.54052982312E+00  0.90007759854E+02  0.90000021484E+02 0.  0.
        -12    1    1    2    0    0 -0.29723116436E+00 -0.10062047240E+01  0.54052982312E+00  0.11802401457E+01  0.00000000000E+00 0.  1.
         11    1    3    3    0    0  0.78760814572E+01 -0.22620159391E+01  0.39429135768E+01  0.90937309706E+01  0.51100000000E-03 0. -1.
        -11    1    3    3    0    0 -0.13305924504E+02  0.34227830913E+02  0.19271811725E+02  0.41472819573E+02  0.51100000000E-03 0.  1.
         12    1    3    3    0    0  0.57270742115E+01 -0.30959610250E+02 -0.23755255125E+02  0.39441209311E+02  0.00000000000E+00 0. -1.
</event>
<event>
 7    1  0.2497665E-015  0.9000766E+02  0.7816164E-02  0.1186339E+00
        -11   -1    0    0    0    0  0.00000000000E+00  0.00000000000E+00  0.45593999997E+02  0.45594000000E+02  0.51100000000E-03 0.  1.
         11   -1    0    0    0    0 -0.00000000000E+00 -0.00000000000E+00 -0.45593999997E+02  0.45594000000E+02  0.51100000000E-03 0. -1.
    9900012    2    1    2    0    0  0.65930917855E+00  0.94250672657E+00  0.26493772206E+00  0.90007661269E+02  0.89999921598E+02 0.  0.
        -12    1    1    2    0    0 -0.65930917855E+00 -0.94250672657E+00 -0.26493772206E+00  0.11803387307E+01  0.00000000000E+00 0.  1.
         11    1    3    3    0    0 -0.39332424498E+00  0.32641356800E+01  0.73894098564E+01  0.80878095913E+01  0.51100000000E-03 0. -1.
        -11    1    3    3    0    0 -0.39160945116E+02 -0.10549214384E+02 -0.30484542346E+01  0.40671348883E+02  0.51100000000E-03 0.  1.
         12    1    3    3    0    0  0.40213578539E+02  0.82275854303E+01 -0.40760178997E+01  0.41248502795E+02  0.00000000000E+00 0. -1.
</event>
<event>
 7    1  0.2497665E-015  0.9000767E+02  0.7816164E-02  0.1186339E+00
        -11   -1    0    0    0    0  0.00000000000E+00  0.00000000000E+00  0.45593999997E+02  0.45594000000E+02  0.51100000000E-03 0.  1.
         11   -1    0    0    0    0 -0.00000000000E+00 -0.00000000000E+00 -0.45593999997E+02  0.45594000000E+02  0.51100000000E-03 0. -1.
    9900012    2    1    2    0    0  0.55323407453E+00  0.80850937946E+00 -0.65834231005E+00  0.90007673793E+02  0.89999934287E+02 0.  0.
        -12    1    1    2    0    0 -0.55323407453E+00 -0.80850937946E+00  0.65834231005E+00  0.11803262071E+01  0.00000000000E+00 0.  1.
         11    1    3    3    0    0  0.41300040769E+01 -0.69058069592E+01 -0.30927202454E+01  0.86204421123E+01  0.51100000000E-03 0. -1.
        -11    1    3    3    0    0 -0.31981052340E+02  0.15899258910E+02 -0.22925152347E+02  0.42439801520E+02  0.51100000000E-03 0.  1.
         12    1    3    3    0    0  0.28404282338E+02 -0.81849425711E+01  0.25359530282E+02  0.38947430161E+02  0.00000000000E+00 0. -1.
</event>
<event>
 7    1  0.2497665E-015  0.9000774E+02  0.7816164E-02  0.1186339E+00
        -11   -1    0    0    0    0  0.00000000000E+00  0.00000000000E+00  0.45593999997E+02  0.45594000000E+02  0.51100000000E-03 0.  1.
         11   -1    0    0    0    0 -0.00000000000E+00 -0.00000000000E+00 -0.45593999997E+02  0.45594000000E+02  0.51100000000E-03 0. -1.
    9900012    2    1    2    0    0  0.17732169996E+00  0.63169412945E+00 -0.98108911489E+00  0.90007738881E+02  0.90000000234E+02 0.  0.
        -12    1    1    2    0    0 -0.17732169996E+00 -0.63169412945E+00  0.98108911489E+00  0.11802611193E+01  0.00000000000E+00 0.  1.
         11    1    3    3    0    0 -0.24252792172E+01 -0.14014790499E+02 -0.33209696525E+02  0.36127278828E+02  0.51100000000E-03 0. -1.
        -11    1    3    3    0    0 -0.15183553488E+02  0.10483613207E+02  0.19973305118E+01  0.18558980894E+02  0.51100000000E-03 0.  1.
        -12    1    3    3    0    0  0.17786154405E+02  0.41628714211E+01  0.30231276898E+02  0.35321479158E+02  0.00000000000E+00 0.  1.
</event>
<event>
 7    1  0.2497665E-015  0.9000772E+02  0.7816164E-02  0.1186339E+00
        -11   -1    0    0    0    0  0.00000000000E+00  0.00000000000E+00  0.45593999997E+02  0.45594000000E+02  0.51100000000E-03 0. -1.
         11   -1    0    0    0    0 -0.00000000000E+00 -0.00000000000E+00 -0.45593999997E+02  0.45594000000E+02  0.51100000000E-03 0.  1.
    9900012    2    1    2    0    0  0.95155638631E+00  0.53382310796E+00  0.45015716179E+00  0.90007716925E+02  0.89999977988E+02 0.  0.
        -12    1    1    2    0    0 -0.95155638631E+00 -0.53382310796E+00 -0.45015716179E+00  0.11802830750E+01  0.00000000000E+00 0.  1.
         11    1    3    3    0    0 -0.29396592072E+02  0.17623104823E+02 -0.12862013875E+02  0.36608262049E+02  0.51100000000E-03 0. -1.
        -11    1    3    3    0    0 -0.84561322108E+01 -0.50882581196E+00  0.64490355762E+01  0.10646836892E+02  0.51100000000E-03 0.  1.
        -12    1    3    3    0    0  0.38804280669E+02 -0.16580455903E+02  0.68631354602E+01  0.42752617985E+02  0.00000000000E+00 0.  1.
</event>
<event>
 7    1  0.2497665E-015  0.9000778E+02  0.7816164E-02  0.1186339E+00
        -11   -1    0    0    0    0  0.00000000000E+00  0.00000000000E+00  0.45593999997E+02  0.45594000000E+02  0.51100000000E-03 0.  1.
         11   -1    0    0    0    0 -0.00000000000E+00 -0.00000000000E+00 -0.45593999997E+02  0.45594000000E+02  0.51100000000E-03 0. -1.
    9900012    2    1    2    0    0 -0.88080417165E+00  0.15887982525E+00 -0.76932548623E+00  0.90007779473E+02  0.90000041362E+02 0.  0.
        -12    1    1    2    0    0  0.88080417165E+00 -0.15887982525E+00  0.76932548623E+00  0.11802205266E+01  0.00000000000E+00 0.  1.
         11    1    3    3    0    0  0.13620717243E+02  0.28306525557E+02 -0.15240827961E+02  0.34915128018E+02  0.51100000000E-03 0. -1.
        -11    1    3    3    0    0  0.14565457616E+02 -0.65488505596E+01 -0.32473178359E+00  0.15973272996E+02  0.51100000000E-03 0.  1.
        -12    1    3    3    0    0 -0.29066979030E+02 -0.21598795172E+02  0.14796234258E+02  0.39119378459E+02  0.00000000000E+00 0.  1.
</event>
<event>
 7    1  0.2497665E-015  0.9000776E+02  0.7816164E-02  0.1186339E+00
        -11   -1    0    0    0    0  0.00000000000E+00  0.00000000000E+00  0.45593999997E+02  0.45594000000E+02  0.51100000000E-03 0.  1.
         11   -1    0    0    0    0 -0.00000000000E+00 -0.00000000000E+00 -0.45593999997E+02  0.45594000000E+02  0.51100000000E-03 0. -1.
    9900012    2    1    2    0    0 -0.90341483205E-01  0.11540397286E+01 -0.23022391095E+00  0.90007757513E+02  0.90000019112E+02 0.  0.
        -12    1    1    2    0    0  0.90341483205E-01 -0.11540397286E+01  0.23022391095E+00  0.11802424869E+01  0.00000000000E+00 0.  1.
         11    1    3    3    0    0  0.20890532564E+02  0.14199105069E+02  0.36602813578E+01  0.25523060072E+02  0.51100000000E-03 0. -1.
        -11    1    3    3    0    0 -0.10771333383E+02 -0.32186194759E+02 -0.18184491456E+02  0.38505174791E+02  0.51100000000E-03 0.  1.
         12    1    3    3    0    0 -0.10209540664E+02  0.19141129419E+02  0.14293986187E+02  0.25979522650E+02  0.00000000000E+00 0. -1.
</event>
<event>
 7    1  0.2497665E-015  0.9000760E+02  0.7816164E-02  0.1186339E+00
        -11   -1    0    0    0    0  0.00000000000E+00  0.00000000000E+00  0.45593999997E+02  0.45594000000E+02  0.51100000000E-03 0. -1.
         11   -1    0    0    0    0 -0.00000000000E+00 -0.00000000000E+00 -0.45593999997E+02  0.45594000000E+02  0.51100000000E-03 0.  1.
    9900012    2    1    2    0    0  0.14686140068E+00  0.63140275891E+00  0.98646366867E+00  0.90007598253E+02  0.89999857750E+02 0.  0.
        -12    1    1    2    0    0 -0.14686140068E+00 -0.63140275891E+00 -0.98646366867E+00  0.11804017471E+01  0.00000000000E+00 0.  1.
         11    1    3    3    0    0  0.97310084565E+01  0.21932004682E+02 -0.15462444242E+02  0.28544571062E+02  0.51100000000E-03 0. -1.
        -11    1    3    3    0    0  0.13285330121E+02  0.22342592982E+01 -0.11992979811E+02  0.18036725757E+02  0.51100000000E-03 0.  1.
         12    1    3    3    0    0 -0.22869477177E+02 -0.23534861221E+02  0.28441887721E+02  0.43426301433E+02  0.00000000000E+00 0. -1.
</event>
<event>
 7    1  0.2497665E-015  0.9000770E+02  0.7816164E-02  0.1186339E+00
        -11   -1    0    0    0    0  0.00000000000E+00  0.00000000000E+00  0.45593999997E+02  0.45594000000E+02  0.51100000000E-03 0.  1.
         11   -1    0    0    0    0 -0.00000000000E+00 -0.00000000000E+00 -0.45593999997E+02  0.45594000000E+02  0.51100000000E-03 0. -1.
    9900012    2    1    2    0    0 -0.11212040977E+01  0.10183840943E+00  0.35446979486E+00  0.90007695579E+02  0.89999956361E+02 0.  0.
        -12    1    1    2    0    0  0.11212040977E+01 -0.10183840943E+00 -0.35446979486E+00  0.11803044208E+01  0.00000000000E+00 0.  1.
         11    1    3    3    0    0 -0.10556728182E+02 -0.12606863551E+01  0.64336012693E+01  0.12426788223E+02  0.51100000000E-03 0. -1.
        -11    1    3    3    0    0 -0.14638190267E+02 -0.56617979779E+01  0.29873945779E+02  0.33745891710E+02  0.51100000000E-03 0.  1.
         12    1    3    3    0    0  0.24073714351E+02  0.70243227424E+01 -0.35953077254E+02  0.43835015646E+02  0.00000000000E+00 0. -1.
</event>
<event>
 7    1  0.2497665E-015  0.9000764E+02  0.7816164E-02  0.1186339E+00
        -11   -1    0    0    0    0  0.00000000000E+00  0.00000000000E+00  0.45593999997E+02  0.45594000000E+02  0.51100000000E-03 0. -1.
         11   -1    0    0    0    0 -0.00000000000E+00 -0.00000000000E+00 -0.45593999997E+02  0.45594000000E+02  0.51100000000E-03 0.  1.
    9900012    2    1    2    0    0 -0.64877933491E+00  0.82641667865E+00  0.53792663071E+00  0.90007642337E+02  0.89999902416E+02 0.  0.
        -12    1    1    2    0    0  0.64877933491E+00 -0.82641667865E+00 -0.53792663071E+00  0.11803576628E+01  0.00000000000E+00 0.  1.
         11    1    3    3    0    0  0.10491749155E+01 -0.86143918442E+01  0.21689398535E+01  0.89449882727E+01  0.51100000000E-03 0. -1.
        -11    1    3    3    0    0  0.19737021344E+02 -0.25300122434E+02 -0.18333662348E+02  0.36956317215E+02  0.51100000000E-03 0.  1.
         12    1    3    3    0    0 -0.21434975595E+02  0.34740930957E+02  0.16702649125E+02  0.44106336850E+02  0.00000000000E+00 0. -1.
</event>
<event>
 7    1  0.2497665E-015  0.9000770E+02  0.7816164E-02  0.1186339E+00
        -11   -1    0    0    0    0  0.00000000000E+00  0.00000000000E+00  0.45593999997E+02  0.45594000000E+02  0.51100000000E-03 0. -1.
         11   -1    0    0    0    0 -0.00000000000E+00 -0.00000000000E+00 -0.45593999997E+02  0.45594000000E+02  0.51100000000E-03 0.  1.
    9900012    2    1    2    0    0 -0.43822754972E+00  0.10912864347E+01  0.10083888463E+00  0.90007695824E+02  0.89999956609E+02 0.  0.
        -12    1    1    2    0    0  0.43822754972E+00 -0.10912864347E+01 -0.10083888463E+00  0.11803041763E+01  0.00000000000E+00 0.  1.
         11    1    3    3    0    0  0.17908727003E+01 -0.12152232917E+01  0.10270561735E+02  0.10496115057E+02  0.51100000000E-03 0. -1.
        -11    1    3    3    0    0 -0.40226044521E+02  0.64319796005E+00 -0.35694519636E+00  0.40232769872E+02  0.51100000000E-03 0.  1.
         12    1    3    3    0    0  0.37996944271E+02  0.16633117664E+01 -0.98127776541E+01  0.39278810894E+02  0.00000000000E+00 0. -1.
</event>
<event>
 7    1  0.2770524E-015  0.9000787E+02  0.7816164E-02  0.1186339E+00
        -11   -1    0    0    0    0  0.00000000000E+00  0.00000000000E+00  0.45593999997E+02  0.45594000000E+02  0.51100000000E-03 0. -1.
         11   -1    0    0    0    0 -0.00000000000E+00 -0.00000000000E+00 -0.45593999997E+02  0.45594000000E+02  0.51100000000E-03 0.  1.
    9900012    2    1    2    0    0 -0.77742360832E+00  0.86295012474E+00 -0.20891645892E+00  0.90007865910E+02  0.90000128939E+02 0.  0.
        -12    1    1    2    0    0  0.77742360832E+00 -0.86295012474E+00  0.20891645892E+00  0.11801340904E+01  0.00000000000E+00 0.  1.
         11    1    3    3    0    0  0.31155513738E+01  0.30970913978E+02  0.18771687805E+02  0.36349421403E+02  0.51100000000E-03 0. -1.
        -11    1    3    3    0    0  0.17759392424E+01  0.41479303333E+01  0.83362928879E+01  0.94790856952E+01  0.51100000000E-03 0.  1.
        -12    1    3    3    0    0 -0.56689142245E+01 -0.34255894186E+02 -0.27316897152E+02  0.44179358812E+02  0.00000000000E+00 0.  1.
</event>
<event>
 7    1  0.2497665E-015  0.9000761E+02  0.7816164E-02  0.1186339E+00
        -11   -1    0    0    0    0  0.00000000000E+00  0.00000000000E+00  0.45593999997E+02  0.45594000000E+02  0.51100000000E-03 0.  1.
         11   -1    0    0    0    0 -0.00000000000E+00 -0.00000000000E+00 -0.45593999997E+02  0.45594000000E+02  0.51100000000E-03 0. -1.
    9900012    2    1    2    0    0  0.89969577986E+00  0.71794271728E+00 -0.26160272074E+00  0.90007605903E+02  0.89999865500E+02 0.  0.
        -12    1    1    2    0    0 -0.89969577986E+00 -0.71794271728E+00  0.26160272074E+00  0.11803940974E+01  0.00000000000E+00 0.  1.
         11    1    3    3    0    0 -0.21492459278E+02 -0.16738167981E+02 -0.24342099450E+02  0.36532586537E+02  0.51100000000E-03 0. -1.
        -11    1    3    3    0    0 -0.17170135107E+01 -0.15167180292E+01 -0.84527832345E+01  0.87577459227E+01  0.51100000000E-03 0.  1.
        -12    1    3    3    0    0  0.24109168569E+02  0.18972828727E+02  0.32533279964E+02  0.44717273443E+02  0.00000000000E+00 0.  1.
</event>
<event>
 7    1  0.2497665E-015  0.9000776E+02  0.7816164E-02  0.1186339E+00
        -11   -1    0    0    0    0  0.00000000000E+00  0.00000000000E+00  0.45593999997E+02  0.45594000000E+02  0.51100000000E-03 0. -1.
         11   -1    0    0    0    0 -0.00000000000E+00 -0.00000000000E+00 -0.45593999997E+02  0.45594000000E+02  0.51100000000E-03 0.  1.
    9900012    2    1    2    0    0  0.45150831140E+00  0.74635131189E+00  0.79502911781E+00  0.90007757934E+02  0.90000019539E+02 0.  0.
        -12    1    1    2    0    0 -0.45150831140E+00 -0.74635131189E+00 -0.79502911781E+00  0.11802420659E+01  0.00000000000E+00 0.  1.
         11    1    3    3    0    0 -0.25364735157E+02  0.28580561441E+02  0.17448579653E+01  0.38252618361E+02  0.51100000000E-03 0. -1.
        -11    1    3    3    0    0 -0.14493250362E+01 -0.76206927932E+01  0.12935852018E+02  0.15083493276E+02  0.51100000000E-03 0.  1.
        -12    1    3    3    0    0  0.27265568505E+02 -0.20213517336E+02 -0.13885680866E+02  0.36671646297E+02  0.00000000000E+00 0.  1.
</event>
<event>
 7    1  0.2497665E-015  0.9000863E+02  0.7816164E-02  0.1186337E+00
        -11   -1    0    0    0    0  0.00000000000E+00  0.00000000000E+00  0.45593999997E+02  0.45594000000E+02  0.51100000000E-03 0.  1.
         11   -1    0    0    0    0 -0.00000000000E+00 -0.00000000000E+00 -0.45593999997E+02  0.45594000000E+02  0.51100000000E-03 0. -1.
    9900012    2    1    2    0    0 -0.45655898562E+00 -0.46083180493E+00 -0.98493986067E+00  0.90008627884E+02  0.90000900967E+02 0.  0.
        -12    1    1    2    0    0  0.45655898562E+00  0.46083180493E+00  0.98493986067E+00  0.11793721164E+01  0.00000000000E+00 0.  1.
         11    1    3    3    0    0 -0.32819709961E+02  0.11606030775E+02 -0.60781610394E+01  0.35338044006E+02  0.51100000000E-03 0. -1.
        -11    1    3    3    0    0 -0.99906851065E+01  0.58987236470E+00 -0.95785715820E+00  0.10053816634E+02  0.51100000000E-03 0.  1.
        -12    1    3    3    0    0  0.42353836082E+02 -0.12656734945E+02  0.60510783369E+01  0.44616767244E+02  0.00000000000E+00 0.  1.
</event>
<event>
 7    1  0.2497665E-015  0.9000777E+02  0.7816164E-02  0.1186339E+00
        -11   -1    0    0    0    0  0.00000000000E+00  0.00000000000E+00  0.45593999997E+02  0.45594000000E+02  0.51100000000E-03 0. -1.
         11   -1    0    0    0    0 -0.00000000000E+00 -0.00000000000E+00 -0.45593999997E+02  0.45594000000E+02  0.51100000000E-03 0.  1.
    9900012    2    1    2    0    0  0.10790093404E+00  0.30057664482E-01  0.11749033258E+01  0.90007769556E+02  0.90000031315E+02 0.  0.
        -12    1    1    2    0    0 -0.10790093404E+00 -0.30057664482E-01 -0.11749033258E+01  0.11802304435E+01  0.00000000000E+00 0.  1.
         11    1    3    3    0    0  0.11347308762E+02  0.26032028572E+02  0.27887719851E+02  0.39801417644E+02  0.51100000000E-03 0. -1.
        -11    1    3    3    0    0  0.21497259134E+00 -0.85416390201E+01  0.66636694629E+01  0.10835603414E+02  0.51100000000E-03 0.  1.
        -12    1    3    3    0    0 -0.11454380419E+02 -0.17460331888E+02 -0.33376485989E+02  0.39370748499E+02  0.00000000000E+00 0.  1.
</event>
<event>
 7    1  0.2497665E-015  0.9000769E+02  0.7816164E-02  0.1186339E+00
        -11   -1    0    0    0    0  0.00000000000E+00  0.00000000000E+00  0.45593999997E+02  0.45594000000E+02  0.51100000000E-03 0.  1.
         11   -1    0    0    0    0 -0.00000000000E+00 -0.00000000000E+00 -0.45593999997E+02  0.45594000000E+02  0.51100000000E-03 0. -1.
    9900012    2    1    2    0    0 -0.10722797423E+01  0.44382764749E+00 -0.21533028880E+00  0.90007689041E+02  0.89999949736E+02 0.  0.
        -12    1    1    2    0    0  0.10722797423E+01 -0.44382764749E+00  0.21533028880E+00  0.11803109589E+01  0.00000000000E+00 0.  1.
         11    1    3    3    0    0  0.40720928563E+01  0.53982739161E+00  0.66308650676E+01  0.78001106178E+01  0.51100000000E-03 0. -1.
        -11    1    3    3    0    0  0.71023352736E+01 -0.39480285462E+02  0.14362556443E+01  0.40139742613E+02  0.51100000000E-03 0.  1.
         12    1    3    3    0    0 -0.12246707872E+02  0.39384285718E+02 -0.82824510008E+01  0.42067835811E+02  0.00000000000E+00 0. -1.
</event>
<event>
 7    1  0.2497665E-015  0.9000772E+02  0.7816164E-02  0.1186339E+00
        -11   -1    0    0    0    0  0.00000000000E+00  0.00000000000E+00  0.45593999997E+02  0.45594000000E+02  0.51100000000E-03 0. -1.
         11   -1    0    0    0    0 -0.00000000000E+00 -0.00000000000E+00 -0.45593999997E+02  0.45594000000E+02  0.51100000000E-03 0.  1.
    9900012    2    1    2    0    0 -0.54973237229E+00 -0.38529838461E+00  0.97076911276E+00  0.90007723254E+02  0.89999984401E+02 0.  0.
        -12    1    1    2    0    0  0.54973237229E+00  0.38529838461E+00 -0.97076911276E+00  0.11802767458E+01  0.00000000000E+00 0.  1.
         11    1    3    3    0    0  0.41846300760E+01  0.10158499939E+02  0.66759544374E+01  0.12855917618E+02  0.51100000000E-03 0. -1.
        -11    1    3    3    0    0 -0.14790234468E+02  0.19918676115E+02  0.23203001094E+02  0.33968867420E+02  0.51100000000E-03 0.  1.
         12    1    3    3    0    0  0.10055872019E+02 -0.30462474439E+02 -0.28908186418E+02  0.43182938216E+02  0.00000000000E+00 0. -1.
</event>
<event>
 7    1  0.2497665E-015  0.9000776E+02  0.7816164E-02  0.1186339E+00
        -11   -1    0    0    0    0  0.00000000000E+00  0.00000000000E+00  0.45593999997E+02  0.45594000000E+02  0.51100000000E-03 0.  1.
         11   -1    0    0    0    0 -0.00000000000E+00 -0.00000000000E+00 -0.45593999997E+02  0.45594000000E+02  0.51100000000E-03 0. -1.
    9900012    2    1    2    0    0  0.80505209299E+00  0.52195865750E+00  0.68732322642E+00  0.90007761494E+02  0.90000023146E+02 0.  0.
        -12    1    1    2    0    0 -0.80505209299E+00 -0.52195865750E+00 -0.68732322642E+00  0.11802385056E+01  0.00000000000E+00 0.  1.
         11    1    3    3    0    0 -0.23376637422E+02  0.26702119189E+02 -0.14080713522E+02  0.38180320060E+02  0.51100000000E-03 0. -1.
        -11    1    3    3    0    0 -0.73841066995E+01  0.57730224368E+00 -0.11408755003E+01  0.74939913797E+01  0.51100000000E-03 0.  1.
        -12    1    3    3    0    0  0.31565796215E+02 -0.26757462775E+02  0.15908912249E+02  0.44333450055E+02  0.00000000000E+00 0.  1.
</event>
<event>
 7    1  0.2497665E-015  0.9000801E+02  0.7816164E-02  0.1186339E+00
        -11   -1    0    0    0    0  0.00000000000E+00  0.00000000000E+00  0.45593999997E+02  0.45594000000E+02  0.51100000000E-03 0. -1.
         11   -1    0    0    0    0 -0.00000000000E+00 -0.00000000000E+00 -0.45593999997E+02  0.45594000000E+02  0.51100000000E-03 0.  1.
    9900012    2    1    2    0    0  0.60691609738E+00  0.36108809477E+00  0.94532546644E+00  0.90008011865E+02  0.90000276821E+02 0.  0.
        -12    1    1    2    0    0 -0.60691609738E+00 -0.36108809477E+00 -0.94532546644E+00  0.11799881351E+01  0.00000000000E+00 0.  1.
         11    1    3    3    0    0 -0.71672063505E+01  0.53629804229E+01  0.36475488029E+01  0.96661791013E+01  0.51100000000E-03 0.  1.
        -11    1    3    3    0    0 -0.23684160928E+02  0.22000310545E+02 -0.16955169207E+02  0.36502478081E+02  0.51100000000E-03 0. -1.
         12    1    3    3    0    0  0.31458283376E+02 -0.27002202873E+02  0.14252945871E+02  0.43839354682E+02  0.00000000000E+00 0. -1.
</event>
