<event>
 7    1  0.2438448E-008  0.4614231E+02  0.7816164E-02  0.1320468E+00
        -11   -1    0    0    0    0  0.00000000000E+00  0.00000000000E+00  0.45593999997E+02  0.45594000000E+02  0.51100000000E-03 0. -1.
         11   -1    0    0    0    0 -0.00000000000E+00 -0.00000000000E+00 -0.45593999997E+02  0.45594000000E+02  0.51100000000E-03 0.  1.
    9900012    2    1    2    0    0  0.27638668100E+02 -0.35553081120E+02 -0.10937421719E+01  0.46142314042E+02  0.99999660891E+01 0.  0.
         12    1    1    2    0    0 -0.27638668100E+02  0.35553081120E+02  0.10937421719E+01  0.45045685958E+02  0.00000000000E+00 0. -1.
         11    1    3    3    0    0  0.42766857421E+01 -0.33225750602E+01  0.21372601265E+01  0.58221496955E+01  0.51100000000E-03 0. -1.
        -11    1    3    3    0    0  0.11671531320E+02 -0.11804628995E+02 -0.29524209034E+00  0.16603044215E+02  0.51100000000E-03 0.  1.
        -12    1    3    3    0    0  0.11690451038E+02 -0.20425877065E+02 -0.29357602080E+01  0.23717120132E+02  0.00000000000E+00 0.  1.
</event>
<event>
 7    1  0.2438448E-008  0.4614232E+02  0.7816164E-02  0.1320468E+00
        -11   -1    0    0    0    0  0.00000000000E+00  0.00000000000E+00  0.45593999997E+02  0.45594000000E+02  0.51100000000E-03 0.  1.
         11   -1    0    0    0    0 -0.00000000000E+00 -0.00000000000E+00 -0.45593999997E+02  0.45594000000E+02  0.51100000000E-03 0. -1.
    9900012    2    1    2    0    0 -0.16810217739E+02 -0.36635809019E+02  0.20108395307E+02  0.46142317801E+02  0.10000000368E+02 0.  0.
         12    1    1    2    0    0  0.16810217739E+02  0.36635809019E+02 -0.20108395307E+02  0.45045682199E+02  0.00000000000E+00 0. -1.
         11    1    3    3    0    0 -0.42450614446E+00 -0.38613096487E+00 -0.14024064481E+00  0.59073707205E+00  0.51100000000E-03 0. -1.
        -11    1    3    3    0    0 -0.42450178345E+01 -0.14379379392E+02  0.33449265360E+01  0.15361486318E+02  0.51100000000E-03 0.  1.
        -12    1    3    3    0    0 -0.12140693760E+02 -0.21870298663E+02  0.16903709416E+02  0.30190094412E+02  0.00000000000E+00 0.  1.
</event>
<event>
 7    1  0.2438448E-008  0.4614232E+02  0.7816164E-02  0.1320468E+00
        -11   -1    0    0    0    0  0.00000000000E+00  0.00000000000E+00  0.45593999997E+02  0.45594000000E+02  0.51100000000E-03 0.  1.
         11   -1    0    0    0    0 -0.00000000000E+00 -0.00000000000E+00 -0.45593999997E+02  0.45594000000E+02  0.51100000000E-03 0. -1.
    9900012    2    1    2    0    0 -0.27624478688E+02  0.27754773849E+02  0.22263740994E+02  0.46142318107E+02  0.10000003151E+02 0.  0.
         12    1    1    2    0    0  0.27624478688E+02 -0.27754773849E+02 -0.22263740994E+02  0.45045681893E+02  0.00000000000E+00 0. -1.
         11    1    3    3    0    0 -0.16766328959E+02  0.11191623464E+02  0.10667157335E+02  0.22806807501E+02  0.51100000000E-03 0. -1.
        -11    1    3    3    0    0 -0.47563536029E+01  0.46295599904E+01  0.54590686069E+01  0.85940185953E+01  0.51100000000E-03 0.  1.
        -12    1    3    3    0    0 -0.61017961261E+01  0.11933590395E+02  0.61375150520E+01  0.14741492011E+02  0.00000000000E+00 0.  1.
</event>
<event>
 7    1  0.2438448E-008  0.4614232E+02  0.7816164E-02  0.1320468E+00
        -11   -1    0    0    0    0  0.00000000000E+00  0.00000000000E+00  0.45593999997E+02  0.45594000000E+02  0.51100000000E-03 0. -1.
         11   -1    0    0    0    0 -0.00000000000E+00 -0.00000000000E+00 -0.45593999997E+02  0.45594000000E+02  0.51100000000E-03 0.  1.
    9900012    2    1    2    0    0 -0.18871650249E+02  0.39607008898E+02 -0.10210731017E+02  0.46142319132E+02  0.10000012501E+02 0.  0.
         12    1    1    2    0    0  0.18871650249E+02 -0.39607008898E+02  0.10210731017E+02  0.45045680868E+02  0.00000000000E+00 0. -1.
         11    1    3    3    0    0 -0.28476814283E+01  0.31567811676E+01 -0.36413507778E+00  0.42669838848E+01  0.51100000000E-03 0. -1.
        -11    1    3    3    0    0 -0.24356047926E+01  0.19724951399E+01  0.95146059496E+00  0.32753908633E+01  0.51100000000E-03 0.  1.
        -12    1    3    3    0    0 -0.13588364028E+02  0.34477732590E+02 -0.10798056534E+02  0.38599944384E+02  0.00000000000E+00 0.  1.
</event>
<event>
 7    1  0.2438448E-008  0.4614232E+02  0.7816164E-02  0.1320468E+00
        -11   -1    0    0    0    0  0.00000000000E+00  0.00000000000E+00  0.45593999997E+02  0.45594000000E+02  0.51100000000E-03 0.  1.
         11   -1    0    0    0    0 -0.00000000000E+00 -0.00000000000E+00 -0.45593999997E+02  0.45594000000E+02  0.51100000000E-03 0. -1.
    9900012    2    1    2    0    0 -0.12269668830E+02  0.29576824642E+02  0.31682489085E+02  0.46142318257E+02  0.10000004521E+02 0.  0.
         12    1    1    2    0    0  0.12269668830E+02 -0.29576824642E+02 -0.31682489085E+02  0.45045681743E+02  0.00000000000E+00 0. -1.
         11    1    3    3    0    0  0.44636494767E+00  0.34890270543E+01  0.59718192816E+01  0.69307414643E+01  0.51100000000E-03 0. -1.
        -11    1    3    3    0    0 -0.64777256689E+01  0.92204172114E+01  0.70323145265E+01  0.13282713249E+02  0.51100000000E-03 0.  1.
         12    1    3    3    0    0 -0.62383081089E+01  0.16867380376E+02  0.18678355277E+02  0.25928863544E+02  0.00000000000E+00 0. -1.
</event>
<event>
 7    1  0.2438448E-008  0.4614232E+02  0.7816164E-02  0.1320468E+00
        -11   -1    0    0    0    0  0.00000000000E+00  0.00000000000E+00  0.45593999997E+02  0.45594000000E+02  0.51100000000E-03 0.  1.
         11   -1    0    0    0    0 -0.00000000000E+00 -0.00000000000E+00 -0.45593999997E+02  0.45594000000E+02  0.51100000000E-03 0. -1.
    9900012    2    1    2    0    0  0.19631900664E+02 -0.36679540804E+02  0.17271746063E+02  0.46142318194E+02  0.10000003950E+02 0.  0.
         12    1    1    2    0    0 -0.19631900664E+02  0.36679540804E+02 -0.17271746063E+02  0.45045681806E+02  0.00000000000E+00 0. -1.
         11    1    3    3    0    0  0.35900679522E+01 -0.42262607803E+01  0.59429636215E+01  0.81282645720E+01  0.51100000000E-03 0. -1.
        -11    1    3    3    0    0  0.20381805442E+01 -0.25918224543E+01  0.12545947300E+01  0.35278508703E+01  0.51100000000E-03 0.  1.
         12    1    3    3    0    0  0.14003652168E+02 -0.29861457569E+02  0.10074187712E+02  0.34486202752E+02  0.00000000000E+00 0. -1.
</event>
<event>
 7    1  0.2438448E-008  0.4614232E+02  0.7816164E-02  0.1320468E+00
        -11   -1    0    0    0    0  0.00000000000E+00  0.00000000000E+00  0.45593999997E+02  0.45594000000E+02  0.51100000000E-03 0.  1.
         11   -1    0    0    0    0 -0.00000000000E+00 -0.00000000000E+00 -0.45593999997E+02  0.45594000000E+02  0.51100000000E-03 0. -1.
    9900012    2    1    2    0    0  0.20376819910E+02  0.10135810559E+02  0.38873693479E+02  0.46142317742E+02  0.99999998287E+01 0.  0.
         12    1    1    2    0    0 -0.20376819910E+02 -0.10135810559E+02 -0.38873693479E+02  0.45045682258E+02  0.00000000000E+00 0. -1.
         11    1    3    3    0    0  0.87028451328E+01  0.29918227146E+01  0.12241411100E+02  0.15314785749E+02  0.51100000000E-03 0. -1.
        -11    1    3    3    0    0  0.96372157967E+01  0.81299342066E+01  0.25117548103E+02  0.28104501089E+02  0.51100000000E-03 0.  1.
         12    1    3    3    0    0  0.20367589809E+01 -0.98594636228E+00  0.15147342761E+01  0.27230309038E+01  0.00000000000E+00 0. -1.
</event>
<event>
 7    1  0.2438448E-008  0.4614232E+02  0.7816164E-02  0.1320468E+00
        -11   -1    0    0    0    0  0.00000000000E+00  0.00000000000E+00  0.45593999997E+02  0.45594000000E+02  0.51100000000E-03 0. -1.
         11   -1    0    0    0    0 -0.00000000000E+00 -0.00000000000E+00 -0.45593999997E+02  0.45594000000E+02  0.51100000000E-03 0.  1.
    9900012    2    1    2    0    0  0.22660194076E+02 -0.34974100715E+02 -0.17100917350E+02  0.46142317736E+02  0.99999997722E+01 0.  0.
         12    1    1    2    0    0 -0.22660194076E+02  0.34974100715E+02  0.17100917350E+02  0.45045682264E+02  0.00000000000E+00 0. -1.
         11    1    3    3    0    0  0.14304214533E+02 -0.16998787523E+02 -0.75240943299E+01  0.23455944372E+02  0.51100000000E-03 0.  1.
        -11    1    3    3    0    0  0.10284095900E+01 -0.83023907387E+00  0.59217690316E+00  0.14483083064E+01  0.51100000000E-03 0. -1.
        -12    1    3    3    0    0  0.73275699536E+01 -0.17145074118E+02 -0.10168999923E+02  0.21238065058E+02  0.00000000000E+00 0.  1.
</event>
<event>
 7    1  0.2438448E-008  0.4614232E+02  0.7816164E-02  0.1320468E+00
        -11   -1    0    0    0    0  0.00000000000E+00  0.00000000000E+00  0.45593999997E+02  0.45594000000E+02  0.51100000000E-03 0.  1.
         11   -1    0    0    0    0 -0.00000000000E+00 -0.00000000000E+00 -0.45593999997E+02  0.45594000000E+02  0.51100000000E-03 0. -1.
    9900012    2    1    2    0    0 -0.40014944995E+02  0.11508782220E+02 -0.17189114328E+02  0.46142317160E+02  0.99999945193E+01 0.  0.
         12    1    1    2    0    0  0.40014944995E+02 -0.11508782220E+02  0.17189114328E+02  0.45045682840E+02  0.00000000000E+00 0. -1.
         11    1    3    3    0    0 -0.15837189341E+02  0.83141845804E+01 -0.93439888127E+01  0.20180494510E+02  0.51100000000E-03 0. -1.
        -11    1    3    3    0    0 -0.10720971401E+02  0.34980649836E+01 -0.31963333796E+01  0.11721443331E+02  0.51100000000E-03 0.  1.
         12    1    3    3    0    0 -0.13456784253E+02 -0.30346734447E+00 -0.46487921353E+01  0.14240379320E+02  0.00000000000E+00 0. -1.
</event>
<event>
 7    1  0.2438448E-008  0.4614232E+02  0.7816164E-02  0.1320468E+00
        -11   -1    0    0    0    0  0.00000000000E+00  0.00000000000E+00  0.45593999997E+02  0.45594000000E+02  0.51100000000E-03 0.  1.
         11   -1    0    0    0    0 -0.00000000000E+00 -0.00000000000E+00 -0.45593999997E+02  0.45594000000E+02  0.51100000000E-03 0. -1.
    9900012    2    1    2    0    0  0.49183652827E+00  0.12272491040E+02  0.43338869874E+02  0.46142316727E+02  0.99999905734E+01 0.  0.
         12    1    1    2    0    0 -0.49183652827E+00 -0.12272491040E+02 -0.43338869874E+02  0.45045683273E+02  0.00000000000E+00 0. -1.
         11    1    3    3    0    0  0.30659651275E+01  0.70807324342E+01  0.27637992716E+02  0.28694869848E+02  0.51100000000E-03 0. -1.
        -11    1    3    3    0    0  0.47595155217E+00  0.17268560387E+00 -0.16250062684E+00  0.53174891879E+00  0.51100000000E-03 0.  1.
        -12    1    3    3    0    0 -0.30500801514E+01  0.50190730021E+01  0.15863377785E+02  0.16915697960E+02  0.00000000000E+00 0.  1.
</event>
<event>
 7    1  0.2438448E-008  0.4614232E+02  0.7816164E-02  0.1320468E+00
        -11   -1    0    0    0    0  0.00000000000E+00  0.00000000000E+00  0.45593999997E+02  0.45594000000E+02  0.51100000000E-03 0. -1.
         11   -1    0    0    0    0 -0.00000000000E+00 -0.00000000000E+00 -0.45593999997E+02  0.45594000000E+02  0.51100000000E-03 0.  1.
    9900012    2    1    2    0    0  0.10275839200E+02 -0.31880244341E+02 -0.30119273709E+02  0.46142317640E+02  0.99999988984E+01 0.  0.
         12    1    1    2    0    0 -0.10275839200E+02  0.31880244341E+02  0.30119273709E+02  0.45045682360E+02  0.00000000000E+00 0. -1.
         11    1    3    3    0    0 -0.26542052143E+00 -0.17478729953E+01 -0.31395692090E+01  0.36031102037E+01  0.51100000000E-03 0. -1.
        -11    1    3    3    0    0  0.68130361126E+01 -0.94614263367E+01 -0.73002551407E+01  0.13756081374E+02  0.51100000000E-03 0.  1.
        -12    1    3    3    0    0  0.37282236092E+01 -0.20670945009E+02 -0.19679449359E+02  0.28783126062E+02  0.00000000000E+00 0.  1.
</event>
<event>
 7    1  0.2438448E-008  0.4614232E+02  0.7816164E-02  0.1320468E+00
        -11   -1    0    0    0    0  0.00000000000E+00  0.00000000000E+00  0.45593999997E+02  0.45594000000E+02  0.51100000000E-03 0.  1.
         11   -1    0    0    0    0 -0.00000000000E+00 -0.00000000000E+00 -0.45593999997E+02  0.45594000000E+02  0.51100000000E-03 0. -1.
    9900012    2    1    2    0    0 -0.28006878258E+02 -0.18635926434E+02  0.29957142658E+02  0.46142318964E+02  0.10000010966E+02 0.  0.
         12    1    1    2    0    0  0.28006878258E+02  0.18635926434E+02 -0.29957142658E+02  0.45045681036E+02  0.00000000000E+00 0. -1.
         11    1    3    3    0    0 -0.56432517145E+01 -0.38880534851E+01  0.44711666563E+01  0.81825779156E+01  0.51100000000E-03 0.  1.
        -11    1    3    3    0    0 -0.28125207275E+01 -0.11069630780E+00  0.63055472191E+01  0.69052481858E+01  0.51100000000E-03 0. -1.
         12    1    3    3    0    0 -0.19551105816E+02 -0.14637176641E+02  0.19180428782E+02  0.31054492862E+02  0.00000000000E+00 0. -1.
</event>
<event>
 7    1  0.2438448E-008  0.4614232E+02  0.7816164E-02  0.1320468E+00
        -11   -1    0    0    0    0  0.00000000000E+00  0.00000000000E+00  0.45593999997E+02  0.45594000000E+02  0.51100000000E-03 0.  1.
         11   -1    0    0    0    0 -0.00000000000E+00 -0.00000000000E+00 -0.45593999997E+02  0.45594000000E+02  0.51100000000E-03 0. -1.
    9900012    2    1    2    0    0  0.50761152983E+01 -0.44755079340E+02  0.57393608353E+00  0.46142317900E+02  0.10000001263E+02 0.  0.
         12    1    1    2    0    0 -0.50761152983E+01  0.44755079340E+02 -0.57393608353E+00  0.45045682100E+02  0.00000000000E+00 0. -1.
         11    1    3    3    0    0  0.39066522113E+01 -0.79412416268E+01 -0.39952081543E+00  0.88591685399E+01  0.51100000000E-03 0. -1.
        -11    1    3    3    0    0  0.77596615426E+00 -0.17813739776E+02 -0.23688748673E+01  0.17987301539E+02  0.51100000000E-03 0.  1.
         12    1    3    3    0    0  0.39349693275E+00 -0.19000097938E+02  0.33423317663E+01  0.19295847820E+02  0.00000000000E+00 0. -1.
</event>
<event>
 7    1  0.2438448E-008  0.4614232E+02  0.7816164E-02  0.1320468E+00
        -11   -1    0    0    0    0  0.00000000000E+00  0.00000000000E+00  0.45593999997E+02  0.45594000000E+02  0.51100000000E-03 0.  1.
         11   -1    0    0    0    0 -0.00000000000E+00 -0.00000000000E+00 -0.45593999997E+02  0.45594000000E+02  0.51100000000E-03 0. -1.
    9900012    2    1    2    0    0  0.27381254222E+02  0.94780282476E+01  0.34489816718E+02  0.46142316972E+02  0.99999928008E+01 0.  0.
         12    1    1    2    0    0 -0.27381254222E+02 -0.94780282476E+01 -0.34489816718E+02  0.45045683028E+02  0.00000000000E+00 0. -1.
         11    1    3    3    0    0  0.91810472912E+00  0.19412741259E+01  0.38832848783E+01  0.44374951530E+01  0.51100000000E-03 0.  1.
        -11    1    3    3    0    0  0.14357705615E+02  0.80105085994E+00  0.13874131711E+02  0.19981914923E+02  0.51100000000E-03 0. -1.
         12    1    3    3    0    0  0.12105443879E+02  0.67357032617E+01  0.16732400129E+02  0.21722906896E+02  0.00000000000E+00 0. -1.
</event>
<event>
 7    1  0.2438448E-008  0.4614232E+02  0.7816164E-02  0.1320468E+00
        -11   -1    0    0    0    0  0.00000000000E+00  0.00000000000E+00  0.45593999997E+02  0.45594000000E+02  0.51100000000E-03 0. -1.
         11   -1    0    0    0    0 -0.00000000000E+00 -0.00000000000E+00 -0.45593999997E+02  0.45594000000E+02  0.51100000000E-03 0.  1.
    9900012    2    1    2    0    0 -0.41675126780E+02 -0.74996933994E+01  0.15363973553E+02  0.46142320112E+02  0.10000021438E+02 0.  0.
         12    1    1    2    0    0  0.41675126780E+02  0.74996933994E+01 -0.15363973553E+02  0.45045679888E+02  0.00000000000E+00 0. -1.
         11    1    3    3    0    0 -0.59569995469E+01 -0.25271317301E+01  0.12080047240E+01  0.65826677006E+01  0.51100000000E-03 0. -1.
        -11    1    3    3    0    0 -0.13279486856E+02 -0.39784950970E+00  0.91135042301E+01  0.16110835329E+02  0.51100000000E-03 0.  1.
        -12    1    3    3    0    0 -0.22438640377E+02 -0.45747121596E+01  0.50424645990E+01  0.23448817082E+02  0.00000000000E+00 0.  1.
</event>
<event>
 7    1  0.2438448E-008  0.4614232E+02  0.7816164E-02  0.1320468E+00
        -11   -1    0    0    0    0  0.00000000000E+00  0.00000000000E+00  0.45593999997E+02  0.45594000000E+02  0.51100000000E-03 0.  1.
         11   -1    0    0    0    0 -0.00000000000E+00 -0.00000000000E+00 -0.45593999997E+02  0.45594000000E+02  0.51100000000E-03 0. -1.
    9900012    2    1    2    0    0 -0.95507586641E+01  0.21922293916E+02  0.38174723473E+02  0.46142317923E+02  0.10000001476E+02 0.  0.
         12    1    1    2    0    0  0.95507586641E+01 -0.21922293916E+02 -0.38174723473E+02  0.45045682077E+02  0.00000000000E+00 0. -1.
         11    1    3    3    0    0  0.45048122724E+00  0.36862615307E+00 -0.65492353421E-01  0.58575428834E+00  0.51100000000E-03 0. -1.
        -11    1    3    3    0    0 -0.17463992603E+01  0.12010148832E+02  0.18253606146E+02  0.21920030176E+02  0.51100000000E-03 0.  1.
         12    1    3    3    0    0 -0.82548406311E+01  0.95435189310E+01  0.19986609680E+02  0.23636533459E+02  0.00000000000E+00 0. -1.
</event>
<event>
 7    1  0.2438448E-008  0.4614232E+02  0.7816164E-02  0.1320468E+00
        -11   -1    0    0    0    0  0.00000000000E+00  0.00000000000E+00  0.45593999997E+02  0.45594000000E+02  0.51100000000E-03 0.  1.
         11   -1    0    0    0    0 -0.00000000000E+00 -0.00000000000E+00 -0.45593999997E+02  0.45594000000E+02  0.51100000000E-03 0. -1.
    9900012    2    1    2    0    0 -0.88260797236E+01 -0.96520386960E+01  0.43105127174E+02  0.46142317377E+02  0.99999964990E+01 0.  0.
         12    1    1    2    0    0  0.88260797236E+01  0.96520386960E+01 -0.43105127174E+02  0.45045682623E+02  0.00000000000E+00 0. -1.
         11    1    3    3    0    0  0.20786071154E-01 -0.47104613100E+00 -0.46080252186E-02  0.47152731978E+00  0.51100000000E-03 0. -1.
        -11    1    3    3    0    0 -0.34628423801E+01  0.70750808889E+00  0.69247808016E+01  0.77746018842E+01  0.51100000000E-03 0.  1.
        -12    1    3    3    0    0 -0.53840234146E+01 -0.98885006539E+01  0.36184954397E+02  0.37896188173E+02  0.00000000000E+00 0.  1.
</event>
<event>
 7    1  0.2438448E-008  0.4614232E+02  0.7816164E-02  0.1320468E+00
        -11   -1    0    0    0    0  0.00000000000E+00  0.00000000000E+00  0.45593999997E+02  0.45594000000E+02  0.51100000000E-03 0. -1.
         11   -1    0    0    0    0 -0.00000000000E+00 -0.00000000000E+00 -0.45593999997E+02  0.45594000000E+02  0.51100000000E-03 0.  1.
    9900012    2    1    2    0    0 -0.14139927996E+02 -0.12331748934E+02 -0.40952457868E+02  0.46142318732E+02  0.10000008849E+02 0.  0.
         12    1    1    2    0    0  0.14139927996E+02  0.12331748934E+02  0.40952457868E+02  0.45045681268E+02  0.00000000000E+00 0. -1.
         11    1    3    3    0    0 -0.81857126058E+01 -0.34076078411E+01 -0.13447088352E+02  0.16107199244E+02  0.51100000000E-03 0.  1.
        -11    1    3    3    0    0  0.38373900923E-02 -0.36503145710E+01 -0.52024018064E+01  0.63552966893E+01  0.51100000000E-03 0. -1.
         12    1    3    3    0    0 -0.59580527800E+01 -0.52738265214E+01 -0.22302967710E+02  0.23679822799E+02  0.00000000000E+00 0. -1.
</event>
<event>
 7    1  0.2438448E-008  0.4614232E+02  0.7816164E-02  0.1320468E+00
        -11   -1    0    0    0    0  0.00000000000E+00  0.00000000000E+00  0.45593999997E+02  0.45594000000E+02  0.51100000000E-03 0.  1.
         11   -1    0    0    0    0 -0.00000000000E+00 -0.00000000000E+00 -0.45593999997E+02  0.45594000000E+02  0.51100000000E-03 0. -1.
    9900012    2    1    2    0    0 -0.53429416929E+01  0.23005776451E+02  0.38357537266E+02  0.46142318285E+02  0.10000004776E+02 0.  0.
         12    1    1    2    0    0  0.53429416929E+01 -0.23005776451E+02 -0.38357537266E+02  0.45045681715E+02  0.00000000000E+00 0. -1.
         11    1    3    3    0    0 -0.32790720940E+01  0.92408618875E+01  0.13825135611E+02  0.16949342676E+02  0.51100000000E-03 0. -1.
        -11    1    3    3    0    0 -0.31259131578E+01  0.13510262696E+02  0.18820212003E+02  0.23377316170E+02  0.51100000000E-03 0.  1.
         12    1    3    3    0    0  0.10620435589E+01  0.25465186750E+00  0.57121896523E+01  0.58156594397E+01  0.00000000000E+00 0. -1.
</event>
<event>
 7    1  0.2438448E-008  0.4614232E+02  0.7816164E-02  0.1320468E+00
        -11   -1    0    0    0    0  0.00000000000E+00  0.00000000000E+00  0.45593999997E+02  0.45594000000E+02  0.51100000000E-03 0.  1.
         11   -1    0    0    0    0 -0.00000000000E+00 -0.00000000000E+00 -0.45593999997E+02  0.45594000000E+02  0.51100000000E-03 0. -1.
    9900012    2    1    2    0    0  0.16656788779E+02 -0.24873191743E+02  0.33659906974E+02  0.46142316329E+02  0.99999869409E+01 0.  0.
         12    1    1    2    0    0 -0.16656788779E+02  0.24873191743E+02 -0.33659906974E+02  0.45045683671E+02  0.00000000000E+00 0. -1.
         11    1    3    3    0    0  0.58647275546E+01 -0.41748817594E+01  0.35625580162E+01  0.80322155645E+01  0.51100000000E-03 0. -1.
        -11    1    3    3    0    0  0.54687544518E+01 -0.10541823521E+02  0.14268383671E+02  0.18564053739E+02  0.51100000000E-03 0.  1.
         12    1    3    3    0    0  0.53233067726E+01 -0.10156486463E+02  0.15828965287E+02  0.19546047025E+02  0.00000000000E+00 0. -1.
</event>
<event>
 7    1  0.2438448E-008  0.4614232E+02  0.7816164E-02  0.1320468E+00
        -11   -1    0    0    0    0  0.00000000000E+00  0.00000000000E+00  0.45593999997E+02  0.45594000000E+02  0.51100000000E-03 0. -1.
         11   -1    0    0    0    0 -0.00000000000E+00 -0.00000000000E+00 -0.45593999997E+02  0.45594000000E+02  0.51100000000E-03 0.  1.
    9900012    2    1    2    0    0  0.26143327763E+02  0.36358208163E+02  0.48703928712E+01  0.46142316366E+02  0.99999872809E+01 0.  0.
         12    1    1    2    0    0 -0.26143327763E+02 -0.36358208163E+02 -0.48703928712E+01  0.45045683634E+02  0.00000000000E+00 0. -1.
         11    1    3    3    0    0  0.45023828311E+01  0.27428168660E+01  0.13360831499E+01  0.54387143667E+01  0.51100000000E-03 0. -1.
        -11    1    3    3    0    0  0.28875052082E+01  0.12923298427E+01 -0.39003038218E-01  0.31637516096E+01  0.51100000000E-03 0.  1.
        -12    1    3    3    0    0  0.18753439723E+02  0.32323061454E+02  0.35733127595E+01  0.37539850390E+02  0.00000000000E+00 0.  1.
</event>
<event>
 7    1  0.2438448E-008  0.4614232E+02  0.7816164E-02  0.1320468E+00
        -11   -1    0    0    0    0  0.00000000000E+00  0.00000000000E+00  0.45593999997E+02  0.45594000000E+02  0.51100000000E-03 0.  1.
         11   -1    0    0    0    0 -0.00000000000E+00 -0.00000000000E+00 -0.45593999997E+02  0.45594000000E+02  0.51100000000E-03 0. -1.
    9900012    2    1    2    0    0 -0.20086762086E+02 -0.39398589575E+02  0.85665939162E+01  0.46142318710E+02  0.10000008651E+02 0.  0.
         12    1    1    2    0    0  0.20086762086E+02  0.39398589575E+02 -0.85665939162E+01  0.45045681290E+02  0.00000000000E+00 0. -1.
         11    1    3    3    0    0 -0.23325258293E+01 -0.15788139903E+01  0.19611501804E+01  0.34321189740E+01  0.51100000000E-03 0. -1.
        -11    1    3    3    0    0 -0.11036092940E+02 -0.17606511582E+02  0.16768486426E+01  0.20846976258E+02  0.51100000000E-03 0.  1.
        -12    1    3    3    0    0 -0.67181433166E+01 -0.20213264003E+02  0.49285950931E+01  0.21863223478E+02  0.00000000000E+00 0.  1.
</event>
<event>
 7    1  0.2438448E-008  0.4614232E+02  0.7816164E-02  0.1320468E+00
        -11   -1    0    0    0    0  0.00000000000E+00  0.00000000000E+00  0.45593999997E+02  0.45594000000E+02  0.51100000000E-03 0. -1.
         11   -1    0    0    0    0 -0.00000000000E+00 -0.00000000000E+00 -0.45593999997E+02  0.45594000000E+02  0.51100000000E-03 0.  1.
    9900012    2    1    2    0    0 -0.12355465068E+02 -0.36123592761E+02 -0.23906944933E+02  0.46142317776E+02  0.10000000132E+02 0.  0.
         12    1    1    2    0    0  0.12355465068E+02  0.36123592761E+02  0.23906944933E+02  0.45045682224E+02  0.00000000000E+00 0. -1.
         11    1    3    3    0    0 -0.25866299994E+01 -0.44367874951E+01 -0.38662222923E+01  0.64283289512E+01  0.51100000000E-03 0. -1.
        -11    1    3    3    0    0 -0.59876724742E+01 -0.11223868230E+02 -0.36785881822E+01  0.13242335556E+02  0.51100000000E-03 0.  1.
         12    1    3    3    0    0 -0.37811625945E+01 -0.20462937036E+02 -0.16362134459E+02  0.26471653268E+02  0.00000000000E+00 0. -1.
</event>
<event>
 7    1  0.2438448E-008  0.4614232E+02  0.7816164E-02  0.1320468E+00
        -11   -1    0    0    0    0  0.00000000000E+00  0.00000000000E+00  0.45593999997E+02  0.45594000000E+02  0.51100000000E-03 0. -1.
         11   -1    0    0    0    0 -0.00000000000E+00 -0.00000000000E+00 -0.45593999997E+02  0.45594000000E+02  0.51100000000E-03 0.  1.
    9900012    2    1    2    0    0  0.36922199761E+02 -0.53161870986E+01 -0.25250794372E+02  0.46142319887E+02  0.10000019385E+02 0.  0.
         12    1    1    2    0    0 -0.36922199761E+02  0.53161870986E+01  0.25250794372E+02  0.45045680113E+02  0.00000000000E+00 0. -1.
         11    1    3    3    0    0  0.29604692986E+02 -0.50074779969E+01 -0.18127456195E+02  0.35073028826E+02  0.51100000000E-03 0. -1.
        -11    1    3    3    0    0  0.22019257109E+01  0.56573709175E-01  0.10640175482E+00  0.22052208541E+01  0.51100000000E-03 0.  1.
         12    1    3    3    0    0  0.51155810640E+01 -0.36528281088E+00 -0.72297399311E+01  0.88640702065E+01  0.00000000000E+00 0. -1.
</event>
<event>
 7    1  0.2438448E-008  0.4614232E+02  0.7816164E-02  0.1320468E+00
        -11   -1    0    0    0    0  0.00000000000E+00  0.00000000000E+00  0.45593999997E+02  0.45594000000E+02  0.51100000000E-03 0.  1.
         11   -1    0    0    0    0 -0.00000000000E+00 -0.00000000000E+00 -0.45593999997E+02  0.45594000000E+02  0.51100000000E-03 0. -1.
    9900012    2    1    2    0    0  0.19378547707E+02 -0.11148503131E+02  0.39106218229E+02  0.46142317216E+02  0.99999950307E+01 0.  0.
         12    1    1    2    0    0 -0.19378547707E+02  0.11148503131E+02 -0.39106218229E+02  0.45045682784E+02  0.00000000000E+00 0. -1.
         11    1    3    3    0    0  0.11924132402E+01  0.73869182927E+00  0.22199280197E+00  0.14201394365E+01  0.51100000000E-03 0. -1.
        -11    1    3    3    0    0  0.10538146162E+02 -0.63556833210E+01  0.25843923212E+02  0.28624388242E+02  0.51100000000E-03 0.  1.
         12    1    3    3    0    0  0.76479883045E+01 -0.55315116393E+01  0.13040302215E+02  0.16097789537E+02  0.00000000000E+00 0. -1.
</event>
<event>
 7    1  0.2438448E-008  0.4614232E+02  0.7816164E-02  0.1320468E+00
        -11   -1    0    0    0    0  0.00000000000E+00  0.00000000000E+00  0.45593999997E+02  0.45594000000E+02  0.51100000000E-03 0.  1.
         11   -1    0    0    0    0 -0.00000000000E+00 -0.00000000000E+00 -0.45593999997E+02  0.45594000000E+02  0.51100000000E-03 0. -1.
    9900012    2    1    2    0    0  0.15561981295E+02  0.37835092663E+02  0.18853225064E+02  0.46142316589E+02  0.99999893105E+01 0.  0.
         12    1    1    2    0    0 -0.15561981295E+02 -0.37835092663E+02 -0.18853225064E+02  0.45045683411E+02  0.00000000000E+00 0. -1.
         11    1    3    3    0    0  0.29189746507E+01  0.22013956264E+01  0.65398614172E+00  0.37140616379E+01  0.51100000000E-03 0. -1.
        -11    1    3    3    0    0  0.23996101449E+01  0.13988795535E+02  0.47694291792E+01  0.14973041919E+02  0.51100000000E-03 0.  1.
         12    1    3    3    0    0  0.10243396500E+02  0.21644901502E+02  0.13429809743E+02  0.27455213031E+02  0.00000000000E+00 0. -1.
</event>
<event>
 7    1  0.2438448E-008  0.4614232E+02  0.7816164E-02  0.1320468E+00
        -11   -1    0    0    0    0  0.00000000000E+00  0.00000000000E+00  0.45593999997E+02  0.45594000000E+02  0.51100000000E-03 0.  1.
         11   -1    0    0    0    0 -0.00000000000E+00 -0.00000000000E+00 -0.45593999997E+02  0.45594000000E+02  0.51100000000E-03 0. -1.
    9900012    2    1    2    0    0 -0.34347552668E+02  0.23805948053E+02 -0.16811779834E+02  0.46142317874E+02  0.10000001028E+02 0.  0.
         12    1    1    2    0    0  0.34347552668E+02 -0.23805948053E+02  0.16811779834E+02  0.45045682126E+02  0.00000000000E+00 0. -1.
         11    1    3    3    0    0 -0.57014993649E+01  0.10845319976E+01 -0.18253779022E+00  0.58066018434E+01  0.51100000000E-03 0. -1.
        -11    1    3    3    0    0 -0.72134226541E+01  0.37797593491E+01 -0.35404111158E+01  0.88800089107E+01  0.51100000000E-03 0.  1.
        -12    1    3    3    0    0 -0.21432630649E+02  0.18941656707E+02 -0.13088830928E+02  0.31455707120E+02  0.00000000000E+00 0.  1.
</event>
<event>
 7    1  0.2438448E-008  0.4614233E+02  0.7816164E-02  0.1320468E+00
        -11   -1    0    0    0    0  0.00000000000E+00  0.00000000000E+00  0.45593999997E+02  0.45594000000E+02  0.51100000000E-03 0. -1.
         11   -1    0    0    0    0 -0.00000000000E+00 -0.00000000000E+00 -0.45593999997E+02  0.45594000000E+02  0.51100000000E-03 0.  1.
    9900012    2    1    2    0    0 -0.10157869536E+02 -0.42385744104E+02 -0.11374491785E+02  0.46142326733E+02  0.10000081809E+02 0.  0.
         12    1    1    2    0    0  0.10157869536E+02  0.42385744104E+02  0.11374491785E+02  0.45045673267E+02  0.00000000000E+00 0. -1.
         11    1    3    3    0    0 -0.41841106391E+01 -0.75991920209E+01 -0.41660648914E+01  0.96234400373E+01  0.51100000000E-03 0. -1.
        -11    1    3    3    0    0 -0.43550253751E+01 -0.20387589851E+02 -0.71171515524E+01  0.22028933529E+02  0.51100000000E-03 0.  1.
         12    1    3    3    0    0 -0.16187335221E+01 -0.14398962232E+02 -0.91275341111E-01  0.14489953166E+02  0.00000000000E+00 0. -1.
</event>
<event>
 7    1  0.2438448E-008  0.4614232E+02  0.7816164E-02  0.1320468E+00
        -11   -1    0    0    0    0  0.00000000000E+00  0.00000000000E+00  0.45593999997E+02  0.45594000000E+02  0.51100000000E-03 0.  1.
         11   -1    0    0    0    0 -0.00000000000E+00 -0.00000000000E+00 -0.45593999997E+02  0.45594000000E+02  0.51100000000E-03 0. -1.
    9900012    2    1    2    0    0 -0.12374812244E+02 -0.43259443319E+02 -0.21442865983E+01  0.46142318971E+02  0.10000011032E+02 0.  0.
         12    1    1    2    0    0  0.12374812244E+02  0.43259443319E+02  0.21442865983E+01  0.45045681029E+02  0.00000000000E+00 0. -1.
         11    1    3    3    0    0 -0.56409999213E+00 -0.55538786464E-01  0.25855870029E+00  0.62301382050E+00  0.51100000000E-03 0. -1.
        -11    1    3    3    0    0 -0.37414207954E+01 -0.21300827581E+02 -0.44759226447E+01  0.22085229657E+02  0.51100000000E-03 0.  1.
        -12    1    3    3    0    0 -0.80692914568E+01 -0.21903076952E+02  0.20730773461E+01  0.23434075494E+02  0.00000000000E+00 0.  1.
</event>
<event>
 7    1  0.2438448E-008  0.4614232E+02  0.7816164E-02  0.1320468E+00
        -11   -1    0    0    0    0  0.00000000000E+00  0.00000000000E+00  0.45593999997E+02  0.45594000000E+02  0.51100000000E-03 0.  1.
         11   -1    0    0    0    0 -0.00000000000E+00 -0.00000000000E+00 -0.45593999997E+02  0.45594000000E+02  0.51100000000E-03 0. -1.
    9900012    2    1    2    0    0 -0.20858237632E+02  0.10289369895E+02  0.38576888977E+02  0.46142316821E+02  0.99999914253E+01 0.  0.
         12    1    1    2    0    0  0.20858237632E+02 -0.10289369895E+02 -0.38576888977E+02  0.45045683179E+02  0.00000000000E+00 0. -1.
         11    1    3    3    0    0 -0.20828725774E+01  0.25987895519E+01  0.27600958654E+01  0.43255282632E+01  0.51100000000E-03 0. -1.
        -11    1    3    3    0    0 -0.82203541357E+01  0.21137517514E+01  0.85323484168E+01  0.12035079491E+02  0.51100000000E-03 0.  1.
        -12    1    3    3    0    0 -0.10555010919E+02  0.55768285915E+01  0.27284444695E+02  0.29781709067E+02  0.00000000000E+00 0.  1.
</event>
<event>
 7    1  0.2438448E-008  0.4614232E+02  0.7816164E-02  0.1320468E+00
        -11   -1    0    0    0    0  0.00000000000E+00  0.00000000000E+00  0.45593999997E+02  0.45594000000E+02  0.51100000000E-03 0. -1.
         11   -1    0    0    0    0 -0.00000000000E+00 -0.00000000000E+00 -0.45593999997E+02  0.45594000000E+02  0.51100000000E-03 0.  1.
    9900012    2    1    2    0    0 -0.18682109410E+02  0.27355419657E+02 -0.30524962111E+02  0.46142317538E+02  0.99999979636E+01 0.  0.
         12    1    1    2    0    0  0.18682109410E+02 -0.27355419657E+02  0.30524962111E+02  0.45045682462E+02  0.00000000000E+00 0. -1.
         11    1    3    3    0    0 -0.38572288584E+01  0.41894235471E+01 -0.19558373718E+01  0.60211945832E+01  0.51100000000E-03 0. -1.
        -11    1    3    3    0    0 -0.54053234191E+01  0.89357477616E+01 -0.68077884960E+01  0.12466398589E+02  0.51100000000E-03 0.  1.
        -12    1    3    3    0    0 -0.94195571327E+01  0.14230248348E+02 -0.21761336243E+02  0.27654724365E+02  0.00000000000E+00 0.  1.
</event>
<event>
 7    1  0.2438448E-008  0.4614232E+02  0.7816164E-02  0.1320468E+00
        -11   -1    0    0    0    0  0.00000000000E+00  0.00000000000E+00  0.45593999997E+02  0.45594000000E+02  0.51100000000E-03 0. -1.
         11   -1    0    0    0    0 -0.00000000000E+00 -0.00000000000E+00 -0.45593999997E+02  0.45594000000E+02  0.51100000000E-03 0.  1.
    9900012    2    1    2    0    0 -0.41485052035E+00  0.40146248361E+02 -0.20425967691E+02  0.46142317471E+02  0.99999973505E+01 0.  0.
         12    1    1    2    0    0  0.41485052035E+00 -0.40146248361E+02  0.20425967691E+02  0.45045682529E+02  0.00000000000E+00 0. -1.
         11    1    3    3    0    0  0.40047705541E+01  0.17563955629E+02 -0.95632751386E+01  0.20395758289E+02  0.51100000000E-03 0. -1.
        -11    1    3    3    0    0 -0.25417920220E+01  0.17220897162E+02 -0.64905997122E+01  0.18578156277E+02  0.51100000000E-03 0.  1.
        -12    1    3    3    0    0 -0.18778290524E+01  0.53613955695E+01 -0.43720928407E+01  0.71684029052E+01  0.00000000000E+00 0.  1.
</event>
<event>
 7    1  0.2438448E-008  0.4614232E+02  0.7816164E-02  0.1320468E+00
        -11   -1    0    0    0    0  0.00000000000E+00  0.00000000000E+00  0.45593999997E+02  0.45594000000E+02  0.51100000000E-03 0.  1.
         11   -1    0    0    0    0 -0.00000000000E+00 -0.00000000000E+00 -0.45593999997E+02  0.45594000000E+02  0.51100000000E-03 0. -1.
    9900012    2    1    2    0    0 -0.21566834315E+01  0.12684556738E+02  0.43169019550E+02  0.46142317499E+02  0.99999976100E+01 0.  0.
         12    1    1    2    0    0  0.21566834315E+01 -0.12684556738E+02 -0.43169019550E+02  0.45045682501E+02  0.00000000000E+00 0. -1.
         11    1    3    3    0    0 -0.32116658983E+01  0.38755762673E+01  0.12466482848E+02  0.13444258407E+02  0.51100000000E-03 0. -1.
        -11    1    3    3    0    0 -0.91983056050E+00  0.72961382519E+01  0.28299123172E+02  0.29239016643E+02  0.51100000000E-03 0.  1.
        -12    1    3    3    0    0  0.19748130273E+01  0.15128422193E+01  0.24034135295E+01  0.34590424494E+01  0.00000000000E+00 0.  1.
</event>
<event>
 7    1  0.2438448E-008  0.4614232E+02  0.7816164E-02  0.1320468E+00
        -11   -1    0    0    0    0  0.00000000000E+00  0.00000000000E+00  0.45593999997E+02  0.45594000000E+02  0.51100000000E-03 0.  1.
         11   -1    0    0    0    0 -0.00000000000E+00 -0.00000000000E+00 -0.45593999997E+02  0.45594000000E+02  0.51100000000E-03 0. -1.
    9900012    2    1    2    0    0 -0.47775395014E+01 -0.36643323052E+02  0.25759568779E+02  0.46142318835E+02  0.10000009791E+02 0.  0.
         12    1    1    2    0    0  0.47775395014E+01  0.36643323052E+02 -0.25759568779E+02  0.45045681165E+02  0.00000000000E+00 0. -1.
         11    1    3    3    0    0 -0.28503365432E+01 -0.19244877285E+02  0.17450262606E+02  0.26134295196E+02  0.51100000000E-03 0. -1.
        -11    1    3    3    0    0 -0.32192044995E+01 -0.74691672590E+01  0.44973781604E+01  0.92939844917E+01  0.51100000000E-03 0.  1.
        -12    1    3    3    0    0  0.12920015413E+01 -0.99292785079E+01  0.38119280127E+01  0.10714039147E+02  0.00000000000E+00 0.  1.
</event>
<event>
 7    1  0.2438448E-008  0.4614231E+02  0.7816164E-02  0.1320468E+00
        -11   -1    0    0    0    0  0.00000000000E+00  0.00000000000E+00  0.45593999997E+02  0.45594000000E+02  0.51100000000E-03 0.  1.
         11   -1    0    0    0    0 -0.00000000000E+00 -0.00000000000E+00 -0.45593999997E+02  0.45594000000E+02  0.51100000000E-03 0. -1.
    9900012    2    1    2    0    0 -0.35496636640E+02 -0.23746828515E+02  0.14324479318E+02  0.46142314468E+02  0.99999699729E+01 0.  0.
         12    1    1    2    0    0  0.35496636640E+02  0.23746828515E+02 -0.14324479318E+02  0.45045685532E+02  0.00000000000E+00 0. -1.
         11    1    3    3    0    0 -0.35914677285E+01 -0.34554794116E+01  0.35324151436E+01  0.61087589097E+01  0.51100000000E-03 0. -1.
        -11    1    3    3    0    0 -0.28962635047E+02 -0.17477154457E+02  0.11822186670E+02  0.35833633010E+02  0.51100000000E-03 0.  1.
        -12    1    3    3    0    0 -0.29425338651E+01 -0.28141946467E+01 -0.10301224964E+01  0.41999225486E+01  0.00000000000E+00 0.  1.
</event>
<event>
 7    1  0.2438448E-008  0.4614232E+02  0.7816164E-02  0.1320468E+00
        -11   -1    0    0    0    0  0.00000000000E+00  0.00000000000E+00  0.45593999997E+02  0.45594000000E+02  0.51100000000E-03 0.  1.
         11   -1    0    0    0    0 -0.00000000000E+00 -0.00000000000E+00 -0.45593999997E+02  0.45594000000E+02  0.51100000000E-03 0. -1.
    9900012    2    1    2    0    0 -0.24496434698E+02 -0.97088985734E+01  0.36534578683E+02  0.46142318032E+02  0.10000002471E+02 0.  0.
         12    1    1    2    0    0  0.24496434698E+02  0.97088985734E+01 -0.36534578683E+02  0.45045681968E+02  0.00000000000E+00 0. -1.
         11    1    3    3    0    0 -0.78207929645E+00 -0.14447286883E+01  0.51372202495E+01  0.53935073155E+01  0.51100000000E-03 0. -1.
        -11    1    3    3    0    0 -0.22910664751E+02 -0.90090303801E+01  0.30993368435E+02  0.39580930698E+02  0.51100000000E-03 0.  1.
        -12    1    3    3    0    0 -0.80369065040E+00  0.74486049509E+00  0.40398999834E+00  0.11678800184E+01  0.00000000000E+00 0.  1.
</event>
<event>
 7    1  0.2438448E-008  0.4614231E+02  0.7816164E-02  0.1320468E+00
        -11   -1    0    0    0    0  0.00000000000E+00  0.00000000000E+00  0.45593999997E+02  0.45594000000E+02  0.51100000000E-03 0.  1.
         11   -1    0    0    0    0 -0.00000000000E+00 -0.00000000000E+00 -0.45593999997E+02  0.45594000000E+02  0.51100000000E-03 0. -1.
    9900012    2    1    2    0    0 -0.12079889211E+02  0.16134678921E+02  0.40284769324E+02  0.46142309565E+02  0.99999252631E+01 0.  0.
         12    1    1    2    0    0  0.12079889211E+02 -0.16134678921E+02 -0.40284769324E+02  0.45045690435E+02  0.00000000000E+00 0. -1.
         11    1    3    3    0    0  0.10828817328E+01  0.67855100662E+00  0.32418045739E+00  0.13183920304E+01  0.51100000000E-03 0. -1.
        -11    1    3    3    0    0 -0.51700833191E+01  0.59345166112E+01  0.15074712653E+02  0.17005740524E+02  0.51100000000E-03 0.  1.
         12    1    3    3    0    0 -0.79926876245E+01  0.95216113031E+01  0.24885876214E+02  0.27818177011E+02  0.00000000000E+00 0. -1.
</event>
<event>
 7    1  0.2438448E-008  0.4614233E+02  0.7816164E-02  0.1320468E+00
        -11   -1    0    0    0    0  0.00000000000E+00  0.00000000000E+00  0.45593999997E+02  0.45594000000E+02  0.51100000000E-03 0. -1.
         11   -1    0    0    0    0 -0.00000000000E+00 -0.00000000000E+00 -0.45593999997E+02  0.45594000000E+02  0.51100000000E-03 0.  1.
    9900012    2    1    2    0    0 -0.41015460284E+02 -0.17969283606E+02  0.48937738107E+01  0.46142332531E+02  0.10000134684E+02 0.  0.
         12    1    1    2    0    0  0.41015460284E+02  0.17969283606E+02 -0.48937738107E+01  0.45045667469E+02  0.00000000000E+00 0. -1.
         11    1    3    3    0    0 -0.18262549589E+02 -0.10473411272E+02  0.29980625044E+01  0.21265028573E+02  0.51100000000E-03 0. -1.
        -11    1    3    3    0    0 -0.10482003982E+02 -0.25040971190E+01  0.39370128523E+01  0.11473577486E+02  0.51100000000E-03 0.  1.
         12    1    3    3    0    0 -0.12270906713E+02 -0.49917752153E+01 -0.20413015460E+01  0.13403726473E+02  0.00000000000E+00 0. -1.
</event>
<event>
 7    1  0.2438448E-008  0.4614232E+02  0.7816164E-02  0.1320468E+00
        -11   -1    0    0    0    0  0.00000000000E+00  0.00000000000E+00  0.45593999997E+02  0.45594000000E+02  0.51100000000E-03 0.  1.
         11   -1    0    0    0    0 -0.00000000000E+00 -0.00000000000E+00 -0.45593999997E+02  0.45594000000E+02  0.51100000000E-03 0. -1.
    9900012    2    1    2    0    0 -0.39728556366E+02  0.57787162735E+01  0.20429432214E+02  0.46142318151E+02  0.10000003552E+02 0.  0.
         12    1    1    2    0    0  0.39728556366E+02 -0.57787162735E+01 -0.20429432214E+02  0.45045681849E+02  0.00000000000E+00 0. -1.
         11    1    3    3    0    0 -0.67748455395E+01  0.14129314337E+01  0.19914822240E+00  0.69234794429E+01  0.51100000000E-03 0. -1.
        -11    1    3    3    0    0 -0.15332928243E+02  0.25871910824E+01  0.12241662013E+02  0.19790162589E+02  0.51100000000E-03 0.  1.
         12    1    3    3    0    0 -0.17620782583E+02  0.17785937574E+01  0.79886219791E+01  0.19428676119E+02  0.00000000000E+00 0. -1.
</event>
<event>
 7    1  0.2438448E-008  0.4614232E+02  0.7816164E-02  0.1320468E+00
        -11   -1    0    0    0    0  0.00000000000E+00  0.00000000000E+00  0.45593999997E+02  0.45594000000E+02  0.51100000000E-03 0. -1.
         11   -1    0    0    0    0 -0.00000000000E+00 -0.00000000000E+00 -0.45593999997E+02  0.45594000000E+02  0.51100000000E-03 0.  1.
    9900012    2    1    2    0    0  0.37784810178E+02 -0.14621728321E+02 -0.19688234233E+02  0.46142318892E+02  0.10000010315E+02 0.  0.
         12    1    1    2    0    0 -0.37784810178E+02  0.14621728321E+02  0.19688234233E+02  0.45045681108E+02  0.00000000000E+00 0. -1.
         11    1    3    3    0    0  0.15347906100E+02 -0.67766477912E+01 -0.11807751204E+02  0.20515949056E+02  0.51100000000E-03 0.  1.
        -11    1    3    3    0    0  0.28290371974E+01 -0.20588299648E+01  0.49442528811E+00  0.35336509328E+01  0.51100000000E-03 0. -1.
        -12    1    3    3    0    0  0.19607866881E+02 -0.57862505651E+01 -0.83749083167E+01  0.22092718903E+02  0.00000000000E+00 0.  1.
</event>
<event>
 7    1  0.2438448E-008  0.4614232E+02  0.7816164E-02  0.1320468E+00
        -11   -1    0    0    0    0  0.00000000000E+00  0.00000000000E+00  0.45593999997E+02  0.45594000000E+02  0.51100000000E-03 0. -1.
         11   -1    0    0    0    0 -0.00000000000E+00 -0.00000000000E+00 -0.45593999997E+02  0.45594000000E+02  0.51100000000E-03 0.  1.
    9900012    2    1    2    0    0  0.60251038522E+01  0.44630310272E+02 -0.97316484960E+00  0.46142317396E+02  0.99999966694E+01 0.  0.
         12    1    1    2    0    0 -0.60251038522E+01 -0.44630310272E+02  0.97316484960E+00  0.45045682604E+02  0.00000000000E+00 0. -1.
         11    1    3    3    0    0  0.23076475578E+01  0.30204066800E+01  0.36141716854E+00  0.38182085321E+01  0.51100000000E-03 0. -1.
        -11    1    3    3    0    0  0.39052097023E+01  0.41815863701E+02 -0.12008461643E+01  0.42014987226E+02  0.51100000000E-03 0.  1.
        -12    1    3    3    0    0 -0.18775340783E+00 -0.20596010806E+00 -0.13373585386E+00  0.30912163767E+00  0.00000000000E+00 0.  1.
</event>
<event>
 7    1  0.2438448E-008  0.4614232E+02  0.7816164E-02  0.1320468E+00
        -11   -1    0    0    0    0  0.00000000000E+00  0.00000000000E+00  0.45593999997E+02  0.45594000000E+02  0.51100000000E-03 0.  1.
         11   -1    0    0    0    0 -0.00000000000E+00 -0.00000000000E+00 -0.45593999997E+02  0.45594000000E+02  0.51100000000E-03 0. -1.
    9900012    2    1    2    0    0 -0.25078220809E+02 -0.23622029496E+02  0.29020613658E+02  0.46142318148E+02  0.10000003525E+02 0.  0.
         12    1    1    2    0    0  0.25078220809E+02  0.23622029496E+02 -0.29020613658E+02  0.45045681852E+02  0.00000000000E+00 0. -1.
         11    1    3    3    0    0 -0.26768244364E+01 -0.25183479965E+01  0.71781341112E+01  0.80643087289E+01  0.51100000000E-03 0. -1.
        -11    1    3    3    0    0 -0.21129104631E+02 -0.20031638834E+02  0.21869567373E+02  0.36414057646E+02  0.51100000000E-03 0.  1.
        -12    1    3    3    0    0 -0.12722917420E+01 -0.10720426651E+01 -0.27087826327E-01  0.16639517730E+01  0.00000000000E+00 0.  1.
</event>
<event>
 7    1  0.2438448E-008  0.4614232E+02  0.7816164E-02  0.1320468E+00
        -11   -1    0    0    0    0  0.00000000000E+00  0.00000000000E+00  0.45593999997E+02  0.45594000000E+02  0.51100000000E-03 0. -1.
         11   -1    0    0    0    0 -0.00000000000E+00 -0.00000000000E+00 -0.45593999997E+02  0.45594000000E+02  0.51100000000E-03 0.  1.
    9900012    2    1    2    0    0 -0.28788209102E+02 -0.27593183323E+02 -0.20951580726E+02  0.46142317808E+02  0.10000000429E+02 0.  0.
         12    1    1    2    0    0  0.28788209102E+02  0.27593183323E+02  0.20951580726E+02  0.45045682192E+02  0.00000000000E+00 0. -1.
         11    1    3    3    0    0 -0.15244836569E+01 -0.22748324096E+00 -0.13439745017E+01  0.20450102121E+01  0.51100000000E-03 0. -1.
        -11    1    3    3    0    0 -0.48868333233E+01 -0.36187854448E+01 -0.65918731319E+01  0.89682517623E+01  0.51100000000E-03 0.  1.
        -12    1    3    3    0    0 -0.22376892122E+02 -0.23746914638E+02 -0.13015733092E+02  0.35129055834E+02  0.00000000000E+00 0.  1.
</event>
<event>
 7    1  0.2438448E-008  0.4614232E+02  0.7816164E-02  0.1320468E+00
        -11   -1    0    0    0    0  0.00000000000E+00  0.00000000000E+00  0.45593999997E+02  0.45594000000E+02  0.51100000000E-03 0. -1.
         11   -1    0    0    0    0 -0.00000000000E+00 -0.00000000000E+00 -0.45593999997E+02  0.45594000000E+02  0.51100000000E-03 0.  1.
    9900012    2    1    2    0    0 -0.77607588510E+01 -0.43139427553E+02 -0.10386232945E+02  0.46142318494E+02  0.10000006683E+02 0.  0.
         12    1    1    2    0    0  0.77607588510E+01  0.43139427553E+02  0.10386232945E+02  0.45045681506E+02  0.00000000000E+00 0. -1.
         11    1    3    3    0    0 -0.31674462604E+01 -0.11275507991E+02 -0.35131064466E+00  0.11717218770E+02  0.51100000000E-03 0. -1.
        -11    1    3    3    0    0 -0.31296807965E+01 -0.26530631327E+02 -0.55042254605E+01  0.27275736446E+02  0.51100000000E-03 0.  1.
         12    1    3    3    0    0 -0.14636317940E+01 -0.53332882356E+01 -0.45306968401E+01  0.71493632786E+01  0.00000000000E+00 0. -1.
</event>
<event>
 7    1  0.2438448E-008  0.4614232E+02  0.7816164E-02  0.1320468E+00
        -11   -1    0    0    0    0  0.00000000000E+00  0.00000000000E+00  0.45593999997E+02  0.45594000000E+02  0.51100000000E-03 0.  1.
         11   -1    0    0    0    0 -0.00000000000E+00 -0.00000000000E+00 -0.45593999997E+02  0.45594000000E+02  0.51100000000E-03 0. -1.
    9900012    2    1    2    0    0  0.51995079186E+00  0.59438160210E+01  0.44648787516E+02  0.46142317362E+02  0.99999963573E+01 0.  0.
         12    1    1    2    0    0 -0.51995079186E+00 -0.59438160210E+01 -0.44648787516E+02  0.45045682638E+02  0.00000000000E+00 0. -1.
         11    1    3    3    0    0  0.74831722765E+00  0.95885163086E+00  0.11228697052E+01  0.16553584987E+01  0.51100000000E-03 0. -1.
        -11    1    3    3    0    0  0.25885390122E+01  0.57200262229E+01  0.30546345513E+02  0.31184907546E+02  0.51100000000E-03 0.  1.
        -12    1    3    3    0    0 -0.28169054480E+01 -0.73506183274E+00  0.12979572298E+02  0.13302051317E+02  0.00000000000E+00 0.  1.
</event>
<event>
 7    1  0.2438448E-008  0.4614232E+02  0.7816164E-02  0.1320468E+00
        -11   -1    0    0    0    0  0.00000000000E+00  0.00000000000E+00  0.45593999997E+02  0.45594000000E+02  0.51100000000E-03 0.  1.
         11   -1    0    0    0    0 -0.00000000000E+00 -0.00000000000E+00 -0.45593999997E+02  0.45594000000E+02  0.51100000000E-03 0. -1.
    9900012    2    1    2    0    0 -0.41455986979E+02 -0.12998980695E+02 -0.11897105103E+02  0.46142318017E+02  0.10000002332E+02 0.  0.
         12    1    1    2    0    0  0.41455986979E+02  0.12998980695E+02  0.11897105103E+02  0.45045681983E+02  0.00000000000E+00 0. -1.
         11    1    3    3    0    0 -0.11774230008E+02 -0.54051659226E+01 -0.62638436937E+01  0.14390415178E+02  0.51100000000E-03 0. -1.
        -11    1    3    3    0    0 -0.23151481851E+02 -0.63715761930E+01 -0.69098843517E+01  0.24986688398E+02  0.51100000000E-03 0.  1.
         12    1    3    3    0    0 -0.65302751201E+01 -0.12222385799E+01  0.12766229425E+01  0.67652144407E+01  0.00000000000E+00 0. -1.
</event>
<event>
 7    1  0.2438448E-008  0.4614232E+02  0.7816164E-02  0.1320468E+00
        -11   -1    0    0    0    0  0.00000000000E+00  0.00000000000E+00  0.45593999997E+02  0.45594000000E+02  0.51100000000E-03 0.  1.
         11   -1    0    0    0    0 -0.00000000000E+00 -0.00000000000E+00 -0.45593999997E+02  0.45594000000E+02  0.51100000000E-03 0. -1.
    9900012    2    1    2    0    0  0.19379875522E+02 -0.12153080159E+01  0.40645502987E+02  0.46142318055E+02  0.10000002681E+02 0.  0.
         12    1    1    2    0    0 -0.19379875522E+02  0.12153080159E+01 -0.40645502987E+02  0.45045681945E+02  0.00000000000E+00 0. -1.
         11    1    3    3    0    0  0.11407651352E+02  0.21338890103E+01  0.20099216385E+02  0.23209189801E+02  0.51100000000E-03 0. -1.
        -11    1    3    3    0    0  0.79602233684E+01 -0.36699094710E+01  0.14968848542E+02  0.17346464151E+02  0.51100000000E-03 0.  1.
         12    1    3    3    0    0  0.12000802210E-01  0.32071244477E+00  0.55774380597E+01  0.55866641031E+01  0.00000000000E+00 0. -1.
</event>
<event>
 7    1  0.2438448E-008  0.4614232E+02  0.7816164E-02  0.1320468E+00
        -11   -1    0    0    0    0  0.00000000000E+00  0.00000000000E+00  0.45593999997E+02  0.45594000000E+02  0.51100000000E-03 0.  1.
         11   -1    0    0    0    0 -0.00000000000E+00 -0.00000000000E+00 -0.45593999997E+02  0.45594000000E+02  0.51100000000E-03 0. -1.
    9900012    2    1    2    0    0  0.26709180773E+02 -0.34070160922E+02  0.12448180286E+02  0.46142318795E+02  0.10000009424E+02 0.  0.
         12    1    1    2    0    0 -0.26709180773E+02  0.34070160922E+02 -0.12448180286E+02  0.45045681205E+02  0.00000000000E+00 0. -1.
         11    1    3    3    0    0 -0.28838734911E+00 -0.26742849066E+01 -0.23331235464E+00  0.26998892460E+01  0.51100000000E-03 0. -1.
        -11    1    3    3    0    0  0.58961378303E+01 -0.82278843018E+01  0.43429270438E+01  0.11014696408E+02  0.51100000000E-03 0.  1.
         12    1    3    3    0    0  0.21101430292E+02 -0.23167991714E+02  0.83385655972E+01  0.32427733140E+02  0.00000000000E+00 0. -1.
</event>
<event>
 7    1  0.2438448E-008  0.4614232E+02  0.7816164E-02  0.1320468E+00
        -11   -1    0    0    0    0  0.00000000000E+00  0.00000000000E+00  0.45593999997E+02  0.45594000000E+02  0.51100000000E-03 0.  1.
         11   -1    0    0    0    0 -0.00000000000E+00 -0.00000000000E+00 -0.45593999997E+02  0.45594000000E+02  0.51100000000E-03 0. -1.
    9900012    2    1    2    0    0  0.10449408094E+02 -0.25768031225E+02  0.35439123373E+02  0.46142322870E+02  0.10000046583E+02 0.  0.
         12    1    1    2    0    0 -0.10449408094E+02  0.25768031225E+02 -0.35439123373E+02  0.45045677130E+02  0.00000000000E+00 0. -1.
         11    1    3    3    0    0 -0.11185703457E+00 -0.11819100600E+02  0.14520916604E+02  0.18723265481E+02  0.51100000000E-03 0. -1.
        -11    1    3    3    0    0  0.90028197122E+01 -0.12129218379E+02  0.19382143894E+02  0.24573078835E+02  0.51100000000E-03 0.  1.
         12    1    3    3    0    0  0.15584454160E+01 -0.18197122456E+01  0.15360628752E+01  0.28459785537E+01  0.00000000000E+00 0. -1.
</event>
<event>
 7    1  0.2438448E-008  0.4614232E+02  0.7816164E-02  0.1320468E+00
        -11   -1    0    0    0    0  0.00000000000E+00  0.00000000000E+00  0.45593999997E+02  0.45594000000E+02  0.51100000000E-03 0.  1.
         11   -1    0    0    0    0 -0.00000000000E+00 -0.00000000000E+00 -0.45593999997E+02  0.45594000000E+02  0.51100000000E-03 0. -1.
    9900012    2    1    2    0    0  0.26266862438E+02 -0.13852346442E+02  0.33871491250E+02  0.46142317812E+02  0.10000000466E+02 0.  0.
         12    1    1    2    0    0 -0.26266862438E+02  0.13852346442E+02 -0.33871491250E+02  0.45045682188E+02  0.00000000000E+00 0. -1.
         11    1    3    3    0    0  0.35525102740E+01 -0.50398064027E+00  0.29214411476E+01  0.46270016611E+01  0.51100000000E-03 0. -1.
        -11    1    3    3    0    0  0.16485569611E+02 -0.97690686865E+01  0.16137064188E+02  0.25052216454E+02  0.51100000000E-03 0.  1.
         12    1    3    3    0    0  0.62287825526E+01 -0.35792971150E+01  0.14812985914E+02  0.16463099697E+02  0.00000000000E+00 0. -1.
</event>
<event>
 7    1  0.2438448E-008  0.4614232E+02  0.7816164E-02  0.1320468E+00
        -11   -1    0    0    0    0  0.00000000000E+00  0.00000000000E+00  0.45593999997E+02  0.45594000000E+02  0.51100000000E-03 0.  1.
         11   -1    0    0    0    0 -0.00000000000E+00 -0.00000000000E+00 -0.45593999997E+02  0.45594000000E+02  0.51100000000E-03 0. -1.
    9900012    2    1    2    0    0 -0.29464861735E+02  0.34023568344E+02 -0.18254339419E+01  0.46142317753E+02  0.99999999302E+01 0.  0.
         12    1    1    2    0    0  0.29464861735E+02 -0.34023568344E+02  0.18254339419E+01  0.45045682247E+02  0.00000000000E+00 0. -1.
         11    1    3    3    0    0 -0.79200215799E+01  0.62062377481E+01  0.26772039046E+01  0.10412086718E+02  0.51100000000E-03 0. -1.
        -11    1    3    3    0    0 -0.27224861117E+01  0.29335018321E+01  0.80209183328E+00  0.40817539365E+01  0.51100000000E-03 0.  1.
        -12    1    3    3    0    0 -0.18822354044E+02  0.24883828764E+02 -0.53047296798E+01  0.31648477099E+02  0.00000000000E+00 0.  1.
</event>
<event>
 7    1  0.2438448E-008  0.4614232E+02  0.7816164E-02  0.1320468E+00
        -11   -1    0    0    0    0  0.00000000000E+00  0.00000000000E+00  0.45593999997E+02  0.45594000000E+02  0.51100000000E-03 0.  1.
         11   -1    0    0    0    0 -0.00000000000E+00 -0.00000000000E+00 -0.45593999997E+02  0.45594000000E+02  0.51100000000E-03 0. -1.
    9900012    2    1    2    0    0 -0.44288389431E+02  0.75264948276E+01 -0.33172240750E+01  0.46142317206E+02  0.99999949393E+01 0.  0.
         12    1    1    2    0    0  0.44288389431E+02 -0.75264948276E+01  0.33172240750E+01  0.45045682794E+02  0.00000000000E+00 0. -1.
         11    1    3    3    0    0 -0.13227391256E+02 -0.30492368808E+00 -0.27683739615E+01  0.13517424035E+02  0.51100000000E-03 0. -1.
        -11    1    3    3    0    0 -0.21038091672E+02  0.26687937400E+01 -0.17916188548E+01  0.21282238125E+02  0.51100000000E-03 0.  1.
        -12    1    3    3    0    0 -0.10022906503E+02  0.51626247757E+01  0.12427687414E+01  0.11342655046E+02  0.00000000000E+00 0.  1.
</event>
<event>
 7    1  0.2438448E-008  0.4614232E+02  0.7816164E-02  0.1320468E+00
        -11   -1    0    0    0    0  0.00000000000E+00  0.00000000000E+00  0.45593999997E+02  0.45594000000E+02  0.51100000000E-03 0.  1.
         11   -1    0    0    0    0 -0.00000000000E+00 -0.00000000000E+00 -0.45593999997E+02  0.45594000000E+02  0.51100000000E-03 0. -1.
    9900012    2    1    2    0    0  0.66070737189E+01 -0.43165377064E+02 -0.11054876158E+02  0.46142317776E+02  0.10000000131E+02 0.  0.
         12    1    1    2    0    0 -0.66070737189E+01  0.43165377064E+02  0.11054876158E+02  0.45045682224E+02  0.00000000000E+00 0. -1.
         11    1    3    3    0    0  0.25713105358E+01 -0.30261414279E+02 -0.58998165976E+01  0.30938207256E+02  0.51100000000E-03 0. -1.
        -11    1    3    3    0    0  0.12606414682E+01 -0.10612820118E+02 -0.35280029528E+01  0.11254686706E+02  0.51100000000E-03 0.  1.
         12    1    3    3    0    0  0.27751217149E+01 -0.22911426669E+01 -0.16270566080E+01  0.39494238134E+01  0.00000000000E+00 0. -1.
</event>
<event>
 7    1  0.2438448E-008  0.4614232E+02  0.7816164E-02  0.1320468E+00
        -11   -1    0    0    0    0  0.00000000000E+00  0.00000000000E+00  0.45593999997E+02  0.45594000000E+02  0.51100000000E-03 0.  1.
         11   -1    0    0    0    0 -0.00000000000E+00 -0.00000000000E+00 -0.45593999997E+02  0.45594000000E+02  0.51100000000E-03 0. -1.
    9900012    2    1    2    0    0 -0.37484881415E+02  0.14741746660E+02  0.20166260792E+02  0.46142317592E+02  0.99999984602E+01 0.  0.
         12    1    1    2    0    0  0.37484881415E+02 -0.14741746660E+02 -0.20166260792E+02  0.45045682408E+02  0.00000000000E+00 0. -1.
         11    1    3    3    0    0 -0.41151069753E+01  0.30874392854E+01  0.47949442766E+01  0.70326294966E+01  0.51100000000E-03 0. -1.
        -11    1    3    3    0    0 -0.33533462488E+02  0.11041503969E+02  0.15278301213E+02  0.38468615839E+02  0.51100000000E-03 0.  1.
        -12    1    3    3    0    0  0.16368804911E+00  0.61280340602E+00  0.93015302267E-01  0.64107225670E+00  0.00000000000E+00 0.  1.
</event>
<event>
 7    1  0.2438448E-008  0.4614232E+02  0.7816164E-02  0.1320468E+00
        -11   -1    0    0    0    0  0.00000000000E+00  0.00000000000E+00  0.45593999997E+02  0.45594000000E+02  0.51100000000E-03 0. -1.
         11   -1    0    0    0    0 -0.00000000000E+00 -0.00000000000E+00 -0.45593999997E+02  0.45594000000E+02  0.51100000000E-03 0.  1.
    9900012    2    1    2    0    0 -0.43460260037E+02 -0.81532538130E+01 -0.85932410611E+01  0.46142317164E+02  0.99999945582E+01 0.  0.
         12    1    1    2    0    0  0.43460260037E+02  0.81532538130E+01  0.85932410611E+01  0.45045682836E+02  0.00000000000E+00 0. -1.
         11    1    3    3    0    0 -0.69403243486E+01  0.39404302486E+00  0.46680418259E+00  0.69671571229E+01  0.51100000000E-03 0. -1.
        -11    1    3    3    0    0 -0.17014533456E+02 -0.71111191279E+01 -0.28835926763E+01  0.18664872648E+02  0.51100000000E-03 0.  1.
        -12    1    3    3    0    0 -0.19505402232E+02 -0.14361777100E+01 -0.61764525674E+01  0.20510287394E+02  0.00000000000E+00 0.  1.
</event>
<event>
 7    1  0.2438448E-008  0.4614231E+02  0.7816164E-02  0.1320468E+00
        -11   -1    0    0    0    0  0.00000000000E+00  0.00000000000E+00  0.45593999997E+02  0.45594000000E+02  0.51100000000E-03 0. -1.
         11   -1    0    0    0    0 -0.00000000000E+00 -0.00000000000E+00 -0.45593999997E+02  0.45594000000E+02  0.51100000000E-03 0.  1.
    9900012    2    1    2    0    0  0.16394672996E+01  0.43664052257E+02  0.10948810725E+02  0.46142314648E+02  0.99999716121E+01 0.  0.
         12    1    1    2    0    0 -0.16394672996E+01 -0.43664052257E+02 -0.10948810725E+02  0.45045685352E+02  0.00000000000E+00 0. -1.
         11    1    3    3    0    0 -0.96131558886E+00  0.35845540419E+01  0.91518502199E+00  0.38223970524E+01  0.51100000000E-03 0. -1.
        -11    1    3    3    0    0 -0.10101367433E+01  0.86658301162E+00 -0.70092835098E+00  0.15042084864E+01  0.51100000000E-03 0.  1.
        -12    1    3    3    0    0  0.36109196317E+01  0.39212915204E+02  0.10734554054E+02  0.40815709109E+02  0.00000000000E+00 0.  1.
</event>
<event>
 7    1  0.2438448E-008  0.4614232E+02  0.7816164E-02  0.1320468E+00
        -11   -1    0    0    0    0  0.00000000000E+00  0.00000000000E+00  0.45593999997E+02  0.45594000000E+02  0.51100000000E-03 0.  1.
         11   -1    0    0    0    0 -0.00000000000E+00 -0.00000000000E+00 -0.45593999997E+02  0.45594000000E+02  0.51100000000E-03 0. -1.
    9900012    2    1    2    0    0  0.46909949070E+01 -0.15281023591E+02  0.42114110031E+02  0.46142318976E+02  0.10000011079E+02 0.  0.
         12    1    1    2    0    0 -0.46909949070E+01  0.15281023591E+02 -0.42114110031E+02  0.45045681024E+02  0.00000000000E+00 0. -1.
         11    1    3    3    0    0  0.34915751409E+00  0.12044787661E+01  0.40893789347E+01  0.42773473555E+01  0.51100000000E-03 0. -1.
        -11    1    3    3    0    0  0.47439719658E+01 -0.12277076606E+02  0.26482420762E+02  0.29572799828E+02  0.51100000000E-03 0.  1.
        -12    1    3    3    0    0 -0.40213457283E+00 -0.42084257508E+01  0.11542310335E+02  0.12292171792E+02  0.00000000000E+00 0.  1.
</event>
<event>
 7    1  0.2438448E-008  0.4614232E+02  0.7816164E-02  0.1320468E+00
        -11   -1    0    0    0    0  0.00000000000E+00  0.00000000000E+00  0.45593999997E+02  0.45594000000E+02  0.51100000000E-03 0.  1.
         11   -1    0    0    0    0 -0.00000000000E+00 -0.00000000000E+00 -0.45593999997E+02  0.45594000000E+02  0.51100000000E-03 0. -1.
    9900012    2    1    2    0    0 -0.46845952143E+01 -0.53432808888E+00  0.44798242971E+02  0.46142317498E+02  0.99999976000E+01 0.  0.
         12    1    1    2    0    0  0.46845952143E+01  0.53432808888E+00 -0.44798242971E+02  0.45045682502E+02  0.00000000000E+00 0. -1.
         11    1    3    3    0    0 -0.28068988127E+01  0.29402606551E+01  0.15557721820E+02  0.16080003798E+02  0.51100000000E-03 0. -1.
        -11    1    3    3    0    0 -0.23329752913E+01 -0.12622415137E+01  0.45352154856E+01  0.52539706043E+01  0.51100000000E-03 0.  1.
         12    1    3    3    0    0  0.45527888971E+00 -0.22123472302E+01  0.24705305665E+02  0.24808343095E+02  0.00000000000E+00 0. -1.
</event>
<event>
 7    1  0.2438448E-008  0.4614232E+02  0.7816164E-02  0.1320468E+00
        -11   -1    0    0    0    0  0.00000000000E+00  0.00000000000E+00  0.45593999997E+02  0.45594000000E+02  0.51100000000E-03 0. -1.
         11   -1    0    0    0    0 -0.00000000000E+00 -0.00000000000E+00 -0.45593999997E+02  0.45594000000E+02  0.51100000000E-03 0.  1.
    9900012    2    1    2    0    0  0.10075671795E+02  0.25688305351E+02 -0.35604847909E+02  0.46142318869E+02  0.10000010103E+02 0.  0.
         12    1    1    2    0    0 -0.10075671795E+02 -0.25688305351E+02  0.35604847909E+02  0.45045681131E+02  0.00000000000E+00 0. -1.
         11    1    3    3    0    0 -0.91459397511E+00  0.27447438660E+01 -0.66311295563E+01  0.72347757728E+01  0.51100000000E-03 0. -1.
        -11    1    3    3    0    0  0.85428005832E+01  0.15566848167E+02 -0.16676051334E+02  0.24359739161E+02  0.51100000000E-03 0.  1.
        -12    1    3    3    0    0  0.24474651868E+01  0.73767133179E+01 -0.12297667019E+02  0.14547803935E+02  0.00000000000E+00 0.  1.
</event>
<event>
 7    1  0.2438448E-008  0.4614232E+02  0.7816164E-02  0.1320468E+00
        -11   -1    0    0    0    0  0.00000000000E+00  0.00000000000E+00  0.45593999997E+02  0.45594000000E+02  0.51100000000E-03 0. -1.
         11   -1    0    0    0    0 -0.00000000000E+00 -0.00000000000E+00 -0.45593999997E+02  0.45594000000E+02  0.51100000000E-03 0.  1.
    9900012    2    1    2    0    0  0.13188625231E+02  0.27769809544E+02 -0.32924326200E+02  0.46142318594E+02  0.10000007597E+02 0.  0.
         12    1    1    2    0    0 -0.13188625231E+02 -0.27769809544E+02  0.32924326200E+02  0.45045681406E+02  0.00000000000E+00 0. -1.
         11    1    3    3    0    0  0.83898445808E+01  0.16230439678E+02 -0.16014271099E+02  0.24295545751E+02  0.51100000000E-03 0. -1.
        -11    1    3    3    0    0  0.47602137144E+01  0.11794890343E+02 -0.13960158349E+02  0.18885579001E+02  0.51100000000E-03 0.  1.
         12    1    3    3    0    0  0.38566936159E-01 -0.25552047796E+00 -0.29498967519E+01  0.29611938420E+01  0.00000000000E+00 0. -1.
</event>
<event>
 7    1  0.2438448E-008  0.4614232E+02  0.7816164E-02  0.1320468E+00
        -11   -1    0    0    0    0  0.00000000000E+00  0.00000000000E+00  0.45593999997E+02  0.45594000000E+02  0.51100000000E-03 0.  1.
         11   -1    0    0    0    0 -0.00000000000E+00 -0.00000000000E+00 -0.45593999997E+02  0.45594000000E+02  0.51100000000E-03 0. -1.
    9900012    2    1    2    0    0 -0.36349538421E+02 -0.19464889566E+02  0.18136776915E+02  0.46142317120E+02  0.99999941525E+01 0.  0.
         12    1    1    2    0    0  0.36349538421E+02  0.19464889566E+02 -0.18136776915E+02  0.45045682880E+02  0.00000000000E+00 0. -1.
         11    1    3    3    0    0 -0.14852203387E+01 -0.91483515089E-01  0.15200694403E+01  0.21271718437E+01  0.51100000000E-03 0. -1.
        -11    1    3    3    0    0 -0.76005401667E+01 -0.83318680297E+01  0.35003527024E+01  0.11808501386E+02  0.51100000000E-03 0.  1.
         12    1    3    3    0    0 -0.27263777916E+02 -0.11041538021E+02  0.13116354772E+02  0.32206643890E+02  0.00000000000E+00 0. -1.
</event>
<event>
 7    1  0.2438448E-008  0.4614231E+02  0.7816164E-02  0.1320468E+00
        -11   -1    0    0    0    0  0.00000000000E+00  0.00000000000E+00  0.45593999997E+02  0.45594000000E+02  0.51100000000E-03 0.  1.
         11   -1    0    0    0    0 -0.00000000000E+00 -0.00000000000E+00 -0.45593999997E+02  0.45594000000E+02  0.51100000000E-03 0. -1.
    9900012    2    1    2    0    0  0.13841678654E+02  0.29835070076E+02  0.30779715697E+02  0.46142307944E+02  0.99999104828E+01 0.  0.
         12    1    1    2    0    0 -0.13841678654E+02 -0.29835070076E+02 -0.30779715697E+02  0.45045692056E+02  0.00000000000E+00 0. -1.
         11    1    3    3    0    0  0.40912622281E+00  0.27834645407E+01  0.96156756586E+00  0.29731585159E+01  0.51100000000E-03 0. -1.
        -11    1    3    3    0    0  0.11878847343E+01  0.45711797359E+00  0.37771411888E+01  0.39858277440E+01  0.51100000000E-03 0.  1.
        -12    1    3    3    0    0  0.12244667697E+02  0.26594487561E+02  0.26041006943E+02  0.39183321684E+02  0.00000000000E+00 0.  1.
</event>
<event>
 7    1  0.2438448E-008  0.4614231E+02  0.7816164E-02  0.1320468E+00
        -11   -1    0    0    0    0  0.00000000000E+00  0.00000000000E+00  0.45593999997E+02  0.45594000000E+02  0.51100000000E-03 0.  1.
         11   -1    0    0    0    0 -0.00000000000E+00 -0.00000000000E+00 -0.45593999997E+02  0.45594000000E+02  0.51100000000E-03 0. -1.
    9900012    2    1    2    0    0  0.18857168453E+01  0.41812363714E+02  0.16651849024E+02  0.46142314710E+02  0.99999721739E+01 0.  0.
         12    1    1    2    0    0 -0.18857168453E+01 -0.41812363714E+02 -0.16651849024E+02  0.45045685290E+02  0.00000000000E+00 0. -1.
         11    1    3    3    0    0  0.45815421399E+00  0.51408804380E+01  0.15445758387E+01  0.53874179107E+01  0.51100000000E-03 0. -1.
        -11    1    3    3    0    0  0.41584009807E+01  0.15292089946E+02  0.95288169994E+01  0.18491583689E+02  0.51100000000E-03 0.  1.
         12    1    3    3    0    0 -0.27308383494E+01  0.21379393330E+02  0.55784561859E+01  0.22263313110E+02  0.00000000000E+00 0. -1.
</event>
<event>
 7    1  0.2438448E-008  0.4614232E+02  0.7816164E-02  0.1320468E+00
        -11   -1    0    0    0    0  0.00000000000E+00  0.00000000000E+00  0.45593999997E+02  0.45594000000E+02  0.51100000000E-03 0.  1.
         11   -1    0    0    0    0 -0.00000000000E+00 -0.00000000000E+00 -0.45593999997E+02  0.45594000000E+02  0.51100000000E-03 0. -1.
    9900012    2    1    2    0    0 -0.19554060273E+02 -0.34357346346E+02  0.21594558496E+02  0.46142317879E+02  0.10000001076E+02 0.  0.
         12    1    1    2    0    0  0.19554060273E+02  0.34357346346E+02 -0.21594558496E+02  0.45045682121E+02  0.00000000000E+00 0. -1.
         11    1    3    3    0    0 -0.18205453383E+01 -0.70577896082E+01  0.72540826569E+01  0.10283408722E+02  0.51100000000E-03 0. -1.
        -11    1    3    3    0    0 -0.92876774171E+01 -0.17857279584E+02  0.99331660413E+01  0.22445738433E+02  0.51100000000E-03 0.  1.
         12    1    3    3    0    0 -0.84458375179E+01 -0.94422771537E+01  0.44073097979E+01  0.13413170724E+02  0.00000000000E+00 0. -1.
</event>
<event>
 7    1  0.2438448E-008  0.4614232E+02  0.7816164E-02  0.1320468E+00
        -11   -1    0    0    0    0  0.00000000000E+00  0.00000000000E+00  0.45593999997E+02  0.45594000000E+02  0.51100000000E-03 0.  1.
         11   -1    0    0    0    0 -0.00000000000E+00 -0.00000000000E+00 -0.45593999997E+02  0.45594000000E+02  0.51100000000E-03 0. -1.
    9900012    2    1    2    0    0 -0.32435699330E+01 -0.44521606934E+02 -0.60348368574E+01  0.46142317789E+02  0.10000000258E+02 0.  0.
         12    1    1    2    0    0  0.32435699330E+01  0.44521606934E+02  0.60348368574E+01  0.45045682211E+02  0.00000000000E+00 0. -1.
         11    1    3    3    0    0  0.49847533085E-01 -0.73281085080E+00 -0.11912225309E+01  0.13994670053E+01  0.51100000000E-03 0. -1.
        -11    1    3    3    0    0 -0.35939452998E+01 -0.11101515850E+02 -0.27425890838E+01  0.11986738177E+02  0.51100000000E-03 0.  1.
        -12    1    3    3    0    0  0.30052783368E+00 -0.32687280234E+02 -0.21010252427E+01  0.32756112607E+02  0.00000000000E+00 0.  1.
</event>
<event>
 7    1  0.2438448E-008  0.4614232E+02  0.7816164E-02  0.1320468E+00
        -11   -1    0    0    0    0  0.00000000000E+00  0.00000000000E+00  0.45593999997E+02  0.45594000000E+02  0.51100000000E-03 0.  1.
         11   -1    0    0    0    0 -0.00000000000E+00 -0.00000000000E+00 -0.45593999997E+02  0.45594000000E+02  0.51100000000E-03 0. -1.
    9900012    2    1    2    0    0  0.20668186648E+02  0.18776352401E+02  0.35346683645E+02  0.46142318814E+02  0.10000009602E+02 0.  0.
         12    1    1    2    0    0 -0.20668186648E+02 -0.18776352401E+02 -0.35346683645E+02  0.45045681186E+02  0.00000000000E+00 0. -1.
         11    1    3    3    0    0  0.44543266925E+01  0.75961596789E+00  0.44750475528E+01  0.63595670892E+01  0.51100000000E-03 0. -1.
        -11    1    3    3    0    0  0.11281487433E+02  0.97323510938E+01  0.14545155097E+02  0.20821915223E+02  0.51100000000E-03 0.  1.
        -12    1    3    3    0    0  0.49323725227E+01  0.82843853397E+01  0.16326480995E+02  0.18960836501E+02  0.00000000000E+00 0.  1.
</event>
<event>
 7    1  0.2438448E-008  0.4614232E+02  0.7816164E-02  0.1320468E+00
        -11   -1    0    0    0    0  0.00000000000E+00  0.00000000000E+00  0.45593999997E+02  0.45594000000E+02  0.51100000000E-03 0.  1.
         11   -1    0    0    0    0 -0.00000000000E+00 -0.00000000000E+00 -0.45593999997E+02  0.45594000000E+02  0.51100000000E-03 0. -1.
    9900012    2    1    2    0    0 -0.50230154018E+01  0.44644945787E+02 -0.32728590312E+01  0.46142317918E+02  0.10000001426E+02 0.  0.
         12    1    1    2    0    0  0.50230154018E+01 -0.44644945787E+02  0.32728590312E+01  0.45045682082E+02  0.00000000000E+00 0. -1.
         11    1    3    3    0    0 -0.41894076878E+01  0.70807561650E+01  0.14874235548E+00  0.82286310643E+01  0.51100000000E-03 0. -1.
        -11    1    3    3    0    0 -0.56318773423E+00  0.15162679705E+02  0.44330293770E+00  0.15179609811E+02  0.51100000000E-03 0.  1.
         12    1    3    3    0    0 -0.27041997972E+00  0.22401509917E+02 -0.38649043244E+01  0.22734077043E+02  0.00000000000E+00 0. -1.
</event>
<event>
 7    1  0.2438448E-008  0.4614232E+02  0.7816164E-02  0.1320468E+00
        -11   -1    0    0    0    0  0.00000000000E+00  0.00000000000E+00  0.45593999997E+02  0.45594000000E+02  0.51100000000E-03 0.  1.
         11   -1    0    0    0    0 -0.00000000000E+00 -0.00000000000E+00 -0.45593999997E+02  0.45594000000E+02  0.51100000000E-03 0. -1.
    9900012    2    1    2    0    0  0.33818841355E+02 -0.18723423104E+02  0.23126453196E+02  0.46142318290E+02  0.10000004819E+02 0.  0.
         12    1    1    2    0    0 -0.33818841355E+02  0.18723423104E+02 -0.23126453196E+02  0.45045681710E+02  0.00000000000E+00 0. -1.
         11    1    3    3    0    0  0.23563625593E+01  0.56575174783E+00  0.16148271913E+01  0.29120760069E+01  0.51100000000E-03 0. -1.
        -11    1    3    3    0    0  0.92212324172E+01 -0.28136141445E+01  0.37607214464E+01  0.10348457755E+02  0.51100000000E-03 0.  1.
        -12    1    3    3    0    0  0.22241246378E+02 -0.16475560707E+02  0.17750904559E+02  0.32881784528E+02  0.00000000000E+00 0.  1.
</event>
<event>
 7    1  0.2438448E-008  0.4614232E+02  0.7816164E-02  0.1320468E+00
        -11   -1    0    0    0    0  0.00000000000E+00  0.00000000000E+00  0.45593999997E+02  0.45594000000E+02  0.51100000000E-03 0.  1.
         11   -1    0    0    0    0 -0.00000000000E+00 -0.00000000000E+00 -0.45593999997E+02  0.45594000000E+02  0.51100000000E-03 0. -1.
    9900012    2    1    2    0    0 -0.67695441709E+01  0.26668622763E+02  0.35666107754E+02  0.46142318623E+02  0.10000007860E+02 0.  0.
         12    1    1    2    0    0  0.67695441709E+01 -0.26668622763E+02 -0.35666107754E+02  0.45045681377E+02  0.00000000000E+00 0. -1.
         11    1    3    3    0    0 -0.36311541448E+01  0.11558661507E+02  0.16256517604E+02  0.20274671419E+02  0.51100000000E-03 0. -1.
        -11    1    3    3    0    0 -0.50324535930E+01  0.11953774632E+02  0.12366139708E+02  0.17920371889E+02  0.51100000000E-03 0.  1.
        -12    1    3    3    0    0  0.18940635669E+01  0.31561866241E+01  0.70434504424E+01  0.79472753152E+01  0.00000000000E+00 0.  1.
</event>
<event>
 7    1  0.2438448E-008  0.4614232E+02  0.7816164E-02  0.1320468E+00
        -11   -1    0    0    0    0  0.00000000000E+00  0.00000000000E+00  0.45593999997E+02  0.45594000000E+02  0.51100000000E-03 0.  1.
         11   -1    0    0    0    0 -0.00000000000E+00 -0.00000000000E+00 -0.45593999997E+02  0.45594000000E+02  0.51100000000E-03 0. -1.
    9900012    2    1    2    0    0  0.77118938024E+01 -0.41633298335E+02  0.15372331508E+02  0.46142318606E+02  0.10000007702E+02 0.  0.
         12    1    1    2    0    0 -0.77118938024E+01  0.41633298335E+02 -0.15372331508E+02  0.45045681394E+02  0.00000000000E+00 0. -1.
         11    1    3    3    0    0 -0.66929270864E+00 -0.88250921783E+01  0.65083896706E+01  0.10985870063E+02  0.51100000000E-03 0. -1.
        -11    1    3    3    0    0  0.30469591601E+01 -0.10747129299E+02  0.13696300572E+01  0.11254360712E+02  0.51100000000E-03 0.  1.
         12    1    3    3    0    0  0.53342273509E+01 -0.22061076858E+02  0.74943117805E+01  0.23902087830E+02  0.00000000000E+00 0. -1.
</event>
<event>
 7    1  0.2438448E-008  0.4614232E+02  0.7816164E-02  0.1320468E+00
        -11   -1    0    0    0    0  0.00000000000E+00  0.00000000000E+00  0.45593999997E+02  0.45594000000E+02  0.51100000000E-03 0. -1.
         11   -1    0    0    0    0 -0.00000000000E+00 -0.00000000000E+00 -0.45593999997E+02  0.45594000000E+02  0.51100000000E-03 0.  1.
    9900012    2    1    2    0    0  0.32815846085E+02 -0.27061162394E+02 -0.14829945771E+02  0.46142317011E+02  0.99999931589E+01 0.  0.
         12    1    1    2    0    0 -0.32815846085E+02  0.27061162394E+02  0.14829945771E+02  0.45045682989E+02  0.00000000000E+00 0. -1.
         11    1    3    3    0    0  0.24813751733E+02 -0.17302081218E+02 -0.93203170665E+01  0.31653634862E+02  0.51100000000E-03 0.  1.
        -11    1    3    3    0    0 -0.17921976359E+00 -0.29441298177E+00 -0.12127756802E+01  0.12608028550E+01  0.51100000000E-03 0. -1.
        -12    1    3    3    0    0  0.81813141159E+01 -0.94646681945E+01 -0.42968530242E+01  0.13227879294E+02  0.00000000000E+00 0.  1.
</event>
<event>
 7    1  0.2438448E-008  0.4614231E+02  0.7816164E-02  0.1320468E+00
        -11   -1    0    0    0    0  0.00000000000E+00  0.00000000000E+00  0.45593999997E+02  0.45594000000E+02  0.51100000000E-03 0. -1.
         11   -1    0    0    0    0 -0.00000000000E+00 -0.00000000000E+00 -0.45593999997E+02  0.45594000000E+02  0.51100000000E-03 0.  1.
    9900012    2    1    2    0    0 -0.43748395365E+02  0.83609413686E+01  0.67295111290E+01  0.46142314773E+02  0.99999727511E+01 0.  0.
         12    1    1    2    0    0  0.43748395365E+02 -0.83609413686E+01 -0.67295111290E+01  0.45045685227E+02  0.00000000000E+00 0. -1.
         11    1    3    3    0    0 -0.29319973414E+01  0.30945495953E+01  0.14213382793E+01  0.44936675860E+01  0.51100000000E-03 0. -1.
        -11    1    3    3    0    0 -0.13909178198E+02  0.34638150856E+01  0.14653859575E+01  0.14408699086E+02  0.51100000000E-03 0.  1.
         12    1    3    3    0    0 -0.26907219825E+02  0.18025766878E+01  0.38427868922E+01  0.27239948101E+02  0.00000000000E+00 0. -1.
</event>
<event>
 7    1  0.2438448E-008  0.4614232E+02  0.7816164E-02  0.1320468E+00
        -11   -1    0    0    0    0  0.00000000000E+00  0.00000000000E+00  0.45593999997E+02  0.45594000000E+02  0.51100000000E-03 0.  1.
         11   -1    0    0    0    0 -0.00000000000E+00 -0.00000000000E+00 -0.45593999997E+02  0.45594000000E+02  0.51100000000E-03 0. -1.
    9900012    2    1    2    0    0 -0.44728107572E+02  0.24913941790E+01  0.47225908136E+01  0.46142317455E+02  0.99999972082E+01 0.  0.
         12    1    1    2    0    0  0.44728107572E+02 -0.24913941790E+01 -0.47225908136E+01  0.45045682545E+02  0.00000000000E+00 0. -1.
         11    1    3    3    0    0 -0.12565096743E+02 -0.18625187407E+01 -0.20673672262E+01  0.12869523679E+02  0.51100000000E-03 0. -1.
        -11    1    3    3    0    0 -0.82020364785E+01  0.22104377116E+01  0.23023272046E+01  0.88011447033E+01  0.51100000000E-03 0.  1.
         12    1    3    3    0    0 -0.23960974351E+02  0.21434752081E+01  0.44876308352E+01  0.24471649072E+02  0.00000000000E+00 0. -1.
</event>
<event>
 7    1  0.2438448E-008  0.4614232E+02  0.7816164E-02  0.1320468E+00
        -11   -1    0    0    0    0  0.00000000000E+00  0.00000000000E+00  0.45593999997E+02  0.45594000000E+02  0.51100000000E-03 0. -1.
         11   -1    0    0    0    0 -0.00000000000E+00 -0.00000000000E+00 -0.45593999997E+02  0.45594000000E+02  0.51100000000E-03 0.  1.
    9900012    2    1    2    0    0  0.17632517412E+02 -0.36026244287E+02 -0.20501646521E+02  0.46142318100E+02  0.10000003095E+02 0.  0.
         12    1    1    2    0    0 -0.17632517412E+02  0.36026244287E+02  0.20501646521E+02  0.45045681900E+02  0.00000000000E+00 0. -1.
         11    1    3    3    0    0  0.51512203604E+01 -0.37262566985E+01 -0.33456983583E+01  0.71842715671E+01  0.51100000000E-03 0. -1.
        -11    1    3    3    0    0  0.61985793053E+01 -0.99616152548E+01 -0.66408442912E+01  0.13481727525E+02  0.51100000000E-03 0.  1.
        -12    1    3    3    0    0  0.62827177464E+01 -0.22338372334E+02 -0.10515103871E+02  0.25476319009E+02  0.00000000000E+00 0.  1.
</event>
<event>
 7    1  0.2438448E-008  0.4614232E+02  0.7816164E-02  0.1320468E+00
        -11   -1    0    0    0    0  0.00000000000E+00  0.00000000000E+00  0.45593999997E+02  0.45594000000E+02  0.51100000000E-03 0. -1.
         11   -1    0    0    0    0 -0.00000000000E+00 -0.00000000000E+00 -0.45593999997E+02  0.45594000000E+02  0.51100000000E-03 0.  1.
    9900012    2    1    2    0    0  0.11181141959E+00  0.42772403082E+02  0.14128769928E+02  0.46142321995E+02  0.10000038609E+02 0.  0.
         12    1    1    2    0    0 -0.11181141959E+00 -0.42772403082E+02 -0.14128769928E+02  0.45045678005E+02  0.00000000000E+00 0. -1.
         11    1    3    3    0    0  0.34626699655E+00  0.19875982553E+02  0.49344221526E+01  0.20482263193E+02  0.51100000000E-03 0. -1.
        -11    1    3    3    0    0 -0.23315418748E+01  0.20839030189E+02  0.75079230038E+01  0.22272632867E+02  0.51100000000E-03 0.  1.
         12    1    3    3    0    0  0.20970862979E+01  0.20573903404E+01  0.16864247718E+01  0.33874259349E+01  0.00000000000E+00 0. -1.
</event>
<event>
 7    1  0.2438448E-008  0.4614232E+02  0.7816164E-02  0.1320468E+00
        -11   -1    0    0    0    0  0.00000000000E+00  0.00000000000E+00  0.45593999997E+02  0.45594000000E+02  0.51100000000E-03 0.  1.
         11   -1    0    0    0    0 -0.00000000000E+00 -0.00000000000E+00 -0.45593999997E+02  0.45594000000E+02  0.51100000000E-03 0. -1.
    9900012    2    1    2    0    0  0.31702202830E+01 -0.44422776961E+02  0.67586813526E+01  0.46142321148E+02  0.10000030885E+02 0.  0.
         12    1    1    2    0    0 -0.31702202830E+01  0.44422776961E+02 -0.67586813526E+01  0.45045678852E+02  0.00000000000E+00 0. -1.
         11    1    3    3    0    0 -0.68462993114E+00 -0.87547697937E+01 -0.50962000954E+00  0.87962733642E+01  0.51100000000E-03 0. -1.
        -11    1    3    3    0    0 -0.19796606334E+01 -0.14758063813E+02  0.21797262639E+01  0.15048943836E+02  0.51100000000E-03 0.  1.
         12    1    3    3    0    0  0.58345108476E+01 -0.20909943355E+02  0.50885750982E+01  0.22297103948E+02  0.00000000000E+00 0. -1.
</event>
<event>
 7    1  0.2438448E-008  0.4614232E+02  0.7816164E-02  0.1320468E+00
        -11   -1    0    0    0    0  0.00000000000E+00  0.00000000000E+00  0.45593999997E+02  0.45594000000E+02  0.51100000000E-03 0. -1.
         11   -1    0    0    0    0 -0.00000000000E+00 -0.00000000000E+00 -0.45593999997E+02  0.45594000000E+02  0.51100000000E-03 0.  1.
    9900012    2    1    2    0    0  0.34609031280E+01  0.43695155251E+02 -0.10386006324E+02  0.46142316853E+02  0.99999917159E+01 0.  0.
         12    1    1    2    0    0 -0.34609031280E+01 -0.43695155251E+02  0.10386006324E+02  0.45045683147E+02  0.00000000000E+00 0. -1.
         11    1    3    3    0    0 -0.11710968848E+01  0.17934206979E+01  0.81768283839E+00  0.22926908206E+01  0.51100000000E-03 0. -1.
        -11    1    3    3    0    0 -0.29574034412E-01  0.17488076344E+02 -0.35670601778E+01  0.17848182188E+02  0.51100000000E-03 0.  1.
        -12    1    3    3    0    0  0.46615740473E+01  0.24413658209E+02 -0.76366289850E+01  0.26001443844E+02  0.00000000000E+00 0.  1.
</event>
<event>
 7    1  0.2438448E-008  0.4614232E+02  0.7816164E-02  0.1320468E+00
        -11   -1    0    0    0    0  0.00000000000E+00  0.00000000000E+00  0.45593999997E+02  0.45594000000E+02  0.51100000000E-03 0. -1.
         11   -1    0    0    0    0 -0.00000000000E+00 -0.00000000000E+00 -0.45593999997E+02  0.45594000000E+02  0.51100000000E-03 0.  1.
    9900012    2    1    2    0    0  0.42643657034E+02 -0.12112701453E+02 -0.79946528697E+01  0.46142317674E+02  0.99999992034E+01 0.  0.
         12    1    1    2    0    0 -0.42643657034E+02  0.12112701453E+02  0.79946528697E+01  0.45045682326E+02  0.00000000000E+00 0. -1.
         11    1    3    3    0    0  0.38812929107E+01  0.34374265419E+00  0.13399732583E+01  0.41204517065E+01  0.51100000000E-03 0. -1.
        -11    1    3    3    0    0  0.37463657227E+02 -0.11565814686E+02 -0.81378495932E+01  0.40043954331E+02  0.51100000000E-03 0.  1.
        -12    1    3    3    0    0  0.12987068966E+01 -0.89062942084E+00 -0.11967765348E+01  0.19779116368E+01  0.00000000000E+00 0.  1.
</event>
<event>
 7    1  0.2438448E-008  0.4614232E+02  0.7816164E-02  0.1320468E+00
        -11   -1    0    0    0    0  0.00000000000E+00  0.00000000000E+00  0.45593999997E+02  0.45594000000E+02  0.51100000000E-03 0.  1.
         11   -1    0    0    0    0 -0.00000000000E+00 -0.00000000000E+00 -0.45593999997E+02  0.45594000000E+02  0.51100000000E-03 0. -1.
    9900012    2    1    2    0    0  0.17878911363E+02  0.11479143101E+02  0.39720111607E+02  0.46142318032E+02  0.10000002474E+02 0.  0.
         12    1    1    2    0    0 -0.17878911363E+02 -0.11479143101E+02 -0.39720111607E+02  0.45045681968E+02  0.00000000000E+00 0. -1.
         11    1    3    3    0    0  0.74765574746E+01  0.37352687548E+01  0.12335391704E+02  0.14900101782E+02  0.51100000000E-03 0. -1.
        -11    1    3    3    0    0 -0.33928818586E+00  0.14540677526E+01  0.84598879272E+01  0.85906422055E+01  0.51100000000E-03 0.  1.
        -12    1    3    3    0    0  0.10741642074E+02  0.62898065940E+01  0.18924831975E+02  0.22651574045E+02  0.00000000000E+00 0.  1.
</event>
<event>
 7    1  0.2438448E-008  0.4614232E+02  0.7816164E-02  0.1320468E+00
        -11   -1    0    0    0    0  0.00000000000E+00  0.00000000000E+00  0.45593999997E+02  0.45594000000E+02  0.51100000000E-03 0.  1.
         11   -1    0    0    0    0 -0.00000000000E+00 -0.00000000000E+00 -0.45593999997E+02  0.45594000000E+02  0.51100000000E-03 0. -1.
    9900012    2    1    2    0    0 -0.27533371259E+02 -0.34566275356E+02  0.87292355602E+01  0.46142317873E+02  0.10000001019E+02 0.  0.
         12    1    1    2    0    0  0.27533371259E+02  0.34566275356E+02 -0.87292355602E+01  0.45045682127E+02  0.00000000000E+00 0. -1.
         11    1    3    3    0    0 -0.66572600238E+01 -0.11924961809E+02  0.43080670974E+01  0.14320728597E+02  0.51100000000E-03 0. -1.
        -11    1    3    3    0    0 -0.42786074432E+01 -0.46350496380E+01  0.37191091878E+01  0.73227003360E+01  0.51100000000E-03 0.  1.
         12    1    3    3    0    0 -0.16597503791E+02 -0.18006263909E+02  0.70205927502E+00  0.24498888940E+02  0.00000000000E+00 0. -1.
</event>
<event>
 7    1  0.2438448E-008  0.4614232E+02  0.7816164E-02  0.1320468E+00
        -11   -1    0    0    0    0  0.00000000000E+00  0.00000000000E+00  0.45593999997E+02  0.45594000000E+02  0.51100000000E-03 0.  1.
         11   -1    0    0    0    0 -0.00000000000E+00 -0.00000000000E+00 -0.45593999997E+02  0.45594000000E+02  0.51100000000E-03 0. -1.
    9900012    2    1    2    0    0  0.30794359727E+02 -0.31255196823E+02  0.10194782072E+02  0.46142317622E+02  0.99999987277E+01 0.  0.
         12    1    1    2    0    0 -0.30794359727E+02  0.31255196823E+02 -0.10194782072E+02  0.45045682378E+02  0.00000000000E+00 0. -1.
         11    1    3    3    0    0  0.15942870915E+02 -0.12634959196E+02  0.18289026809E+01  0.20424549252E+02  0.51100000000E-03 0. -1.
        -11    1    3    3    0    0  0.92793418750E+01 -0.78521970516E+01  0.34611785448E+01  0.12638945421E+02  0.51100000000E-03 0.  1.
        -12    1    3    3    0    0  0.55721469375E+01 -0.10768040575E+02  0.49047008459E+01  0.13078822948E+02  0.00000000000E+00 0.  1.
</event>
<event>
 7    1  0.2438448E-008  0.4614232E+02  0.7816164E-02  0.1320468E+00
        -11   -1    0    0    0    0  0.00000000000E+00  0.00000000000E+00  0.45593999997E+02  0.45594000000E+02  0.51100000000E-03 0.  1.
         11   -1    0    0    0    0 -0.00000000000E+00 -0.00000000000E+00 -0.45593999997E+02  0.45594000000E+02  0.51100000000E-03 0. -1.
    9900012    2    1    2    0    0 -0.11367243314E+02 -0.80705900661E+01  0.42834155227E+02  0.46142317648E+02  0.99999989663E+01 0.  0.
         12    1    1    2    0    0  0.11367243314E+02  0.80705900661E+01 -0.42834155227E+02  0.45045682352E+02  0.00000000000E+00 0. -1.
         11    1    3    3    0    0 -0.95915603233E+00 -0.21655977712E+00  0.46647260128E+00  0.10883360604E+01  0.51100000000E-03 0. -1.
        -11    1    3    3    0    0 -0.47181736003E+01 -0.92371038277E+00  0.25517566364E+02  0.25966528385E+02  0.51100000000E-03 0.  1.
        -12    1    3    3    0    0 -0.56899136812E+01 -0.69303199062E+01  0.16850116262E+02  0.19087453202E+02  0.00000000000E+00 0.  1.
</event>
<event>
 7    1  0.2438448E-008  0.4614232E+02  0.7816164E-02  0.1320468E+00
        -11   -1    0    0    0    0  0.00000000000E+00  0.00000000000E+00  0.45593999997E+02  0.45594000000E+02  0.51100000000E-03 0. -1.
         11   -1    0    0    0    0 -0.00000000000E+00 -0.00000000000E+00 -0.45593999997E+02  0.45594000000E+02  0.51100000000E-03 0.  1.
    9900012    2    1    2    0    0  0.36154748633E+01 -0.29827211555E+02 -0.33561574674E+02  0.46142317607E+02  0.99999985932E+01 0.  0.
         12    1    1    2    0    0 -0.36154748633E+01  0.29827211555E+02  0.33561574674E+02  0.45045682393E+02  0.00000000000E+00 0. -1.
         11    1    3    3    0    0  0.44954040618E+01 -0.93304762735E+01 -0.13395043501E+02  0.16932029879E+02  0.51100000000E-03 0. -1.
        -11    1    3    3    0    0 -0.70673510573E+00 -0.16946920758E+02 -0.19000369470E+02  0.25469818176E+02  0.51100000000E-03 0.  1.
        -12    1    3    3    0    0 -0.17319409277E+00 -0.35498145235E+01 -0.11661617034E+01  0.37404695512E+01  0.00000000000E+00 0.  1.
</event>
<event>
 7    1  0.2438448E-008  0.4614232E+02  0.7816164E-02  0.1320468E+00
        -11   -1    0    0    0    0  0.00000000000E+00  0.00000000000E+00  0.45593999997E+02  0.45594000000E+02  0.51100000000E-03 0. -1.
         11   -1    0    0    0    0 -0.00000000000E+00 -0.00000000000E+00 -0.45593999997E+02  0.45594000000E+02  0.51100000000E-03 0.  1.
    9900012    2    1    2    0    0 -0.39599193416E+02 -0.96517165513E+01  0.19179722385E+02  0.46142317606E+02  0.99999985845E+01 0.  0.
         12    1    1    2    0    0  0.39599193416E+02  0.96517165513E+01 -0.19179722385E+02  0.45045682394E+02  0.00000000000E+00 0. -1.
         11    1    3    3    0    0 -0.15276472178E+02 -0.42703498968E+01  0.64544317169E+01  0.17125016190E+02  0.51100000000E-03 0. -1.
        -11    1    3    3    0    0 -0.23084792087E+02 -0.28633442282E+01  0.11094906652E+02  0.25772142319E+02  0.51100000000E-03 0.  1.
         12    1    3    3    0    0 -0.12379291512E+01 -0.25180224263E+01  0.16303840166E+01  0.32451590969E+01  0.00000000000E+00 0. -1.
</event>
<event>
 7    1  0.2438448E-008  0.4614232E+02  0.7816164E-02  0.1320468E+00
        -11   -1    0    0    0    0  0.00000000000E+00  0.00000000000E+00  0.45593999997E+02  0.45594000000E+02  0.51100000000E-03 0.  1.
         11   -1    0    0    0    0 -0.00000000000E+00 -0.00000000000E+00 -0.45593999997E+02  0.45594000000E+02  0.51100000000E-03 0. -1.
    9900012    2    1    2    0    0  0.26685507984E+01 -0.40459698248E+02  0.19621548583E+02  0.46142317471E+02  0.99999973545E+01 0.  0.
         12    1    1    2    0    0 -0.26685507984E+01  0.40459698248E+02 -0.19621548583E+02  0.45045682529E+02  0.00000000000E+00 0. -1.
         11    1    3    3    0    0  0.72622273707E+00 -0.29125939170E+01  0.76611212536E+00  0.30979881922E+01  0.51100000000E-03 0. -1.
        -11    1    3    3    0    0  0.22181582569E+01 -0.26223456607E+01  0.34617394857E+01  0.48765318972E+01  0.51100000000E-03 0.  1.
         12    1    3    3    0    0 -0.27583019553E+00 -0.34924758671E+02  0.15393696972E+02  0.38167797382E+02  0.00000000000E+00 0. -1.
</event>
<event>
 7    1  0.2438448E-008  0.4614232E+02  0.7816164E-02  0.1320468E+00
        -11   -1    0    0    0    0  0.00000000000E+00  0.00000000000E+00  0.45593999997E+02  0.45594000000E+02  0.51100000000E-03 0.  1.
         11   -1    0    0    0    0 -0.00000000000E+00 -0.00000000000E+00 -0.45593999997E+02  0.45594000000E+02  0.51100000000E-03 0. -1.
    9900012    2    1    2    0    0 -0.20904668256E+02  0.31454392157E+02  0.24550543738E+02  0.46142321642E+02  0.10000035391E+02 0.  0.
         12    1    1    2    0    0  0.20904668256E+02 -0.31454392157E+02 -0.24550543738E+02  0.45045678358E+02  0.00000000000E+00 0. -1.
         11    1    3    3    0    0 -0.99749646828E+01  0.16718246405E+02  0.83590258505E+01  0.21186623061E+02  0.51100000000E-03 0. -1.
        -11    1    3    3    0    0 -0.70977359465E+00  0.40527962903E+01  0.45785053025E+01  0.61556191722E+01  0.51100000000E-03 0.  1.
        -12    1    3    3    0    0 -0.10219929979E+02  0.10683349461E+02  0.11613012585E+02  0.18800079409E+02  0.00000000000E+00 0.  1.
</event>
<event>
 7    1  0.2438448E-008  0.4614232E+02  0.7816164E-02  0.1320468E+00
        -11   -1    0    0    0    0  0.00000000000E+00  0.00000000000E+00  0.45593999997E+02  0.45594000000E+02  0.51100000000E-03 0. -1.
         11   -1    0    0    0    0 -0.00000000000E+00 -0.00000000000E+00 -0.45593999997E+02  0.45594000000E+02  0.51100000000E-03 0.  1.
    9900012    2    1    2    0    0 -0.31988258102E+02  0.98977398648E+01 -0.30131371763E+02  0.46142317908E+02  0.10000001337E+02 0.  0.
         12    1    1    2    0    0  0.31988258102E+02 -0.98977398648E+01  0.30131371763E+02  0.45045682092E+02  0.00000000000E+00 0. -1.
         11    1    3    3    0    0 -0.68198461060E+01  0.58681780701E-01 -0.47753743618E+01  0.83257399081E+01  0.51100000000E-03 0. -1.
        -11    1    3    3    0    0 -0.22504701980E+02  0.77717405763E+01 -0.24836220794E+02  0.34404933169E+02  0.51100000000E-03 0.  1.
         12    1    3    3    0    0 -0.26637100163E+01  0.20673175078E+01 -0.51977660764E+00  0.34116448307E+01  0.00000000000E+00 0. -1.
</event>
<event>
 7    1  0.2438448E-008  0.4614232E+02  0.7816164E-02  0.1320468E+00
        -11   -1    0    0    0    0  0.00000000000E+00  0.00000000000E+00  0.45593999997E+02  0.45594000000E+02  0.51100000000E-03 0. -1.
         11   -1    0    0    0    0 -0.00000000000E+00 -0.00000000000E+00 -0.45593999997E+02  0.45594000000E+02  0.51100000000E-03 0.  1.
    9900012    2    1    2    0    0 -0.30442713908E+02 -0.53347340383E+01 -0.32770341440E+02  0.46142317683E+02  0.99999992839E+01 0.  0.
         12    1    1    2    0    0  0.30442713908E+02  0.53347340383E+01  0.32770341440E+02  0.45045682317E+02  0.00000000000E+00 0. -1.
         11    1    3    3    0    0 -0.12547358375E+02 -0.28259185552E+01 -0.13081662584E+02  0.18345351294E+02  0.51100000000E-03 0.  1.
        -11    1    3    3    0    0 -0.13984091673E+02  0.14459993798E+01 -0.13967254588E+02  0.19817414945E+02  0.51100000000E-03 0. -1.
        -12    1    3    3    0    0 -0.39112638595E+01 -0.39548148630E+01 -0.57214242688E+01  0.79795514438E+01  0.00000000000E+00 0.  1.
</event>
<event>
 7    1  0.2438448E-008  0.4614232E+02  0.7816164E-02  0.1320468E+00
        -11   -1    0    0    0    0  0.00000000000E+00  0.00000000000E+00  0.45593999997E+02  0.45594000000E+02  0.51100000000E-03 0.  1.
         11   -1    0    0    0    0 -0.00000000000E+00 -0.00000000000E+00 -0.45593999997E+02  0.45594000000E+02  0.51100000000E-03 0. -1.
    9900012    2    1    2    0    0 -0.18977557835E+02 -0.11148518607E+02  0.39302373182E+02  0.46142315343E+02  0.99999779494E+01 0.  0.
         12    1    1    2    0    0  0.18977557835E+02  0.11148518607E+02 -0.39302373182E+02  0.45045684657E+02  0.00000000000E+00 0. -1.
         11    1    3    3    0    0 -0.19316664296E+01 -0.50296704404E+01  0.88988836514E+01  0.10402838576E+02  0.51100000000E-03 0. -1.
        -11    1    3    3    0    0 -0.82068616912E+01 -0.12466833070E+01  0.17400338529E+02  0.19278967277E+02  0.51100000000E-03 0.  1.
        -12    1    3    3    0    0 -0.88390297142E+01 -0.48721648597E+01  0.13003151001E+02  0.16460509490E+02  0.00000000000E+00 0.  1.
</event>
<event>
 7    1  0.2438448E-008  0.4614232E+02  0.7816164E-02  0.1320468E+00
        -11   -1    0    0    0    0  0.00000000000E+00  0.00000000000E+00  0.45593999997E+02  0.45594000000E+02  0.51100000000E-03 0. -1.
         11   -1    0    0    0    0 -0.00000000000E+00 -0.00000000000E+00 -0.45593999997E+02  0.45594000000E+02  0.51100000000E-03 0.  1.
    9900012    2    1    2    0    0 -0.41024547660E+02  0.12201102474E+02  0.14043968946E+02  0.46142317898E+02  0.10000001245E+02 0.  0.
         12    1    1    2    0    0  0.41024547660E+02 -0.12201102474E+02 -0.14043968946E+02  0.45045682102E+02  0.00000000000E+00 0. -1.
         11    1    3    3    0    0 -0.55629985895E+01  0.23225589483E+01  0.28427335237E+01  0.66650106919E+01  0.51100000000E-03 0. -1.
        -11    1    3    3    0    0 -0.30177862196E+02  0.11550313173E+02  0.95094670585E+01  0.33682978864E+02  0.51100000000E-03 0.  1.
         12    1    3    3    0    0 -0.52836868743E+01 -0.16717696471E+01  0.16917683637E+01  0.57943283420E+01  0.00000000000E+00 0. -1.
</event>
<event>
 7    1  0.2438448E-008  0.4614232E+02  0.7816164E-02  0.1320468E+00
        -11   -1    0    0    0    0  0.00000000000E+00  0.00000000000E+00  0.45593999997E+02  0.45594000000E+02  0.51100000000E-03 0.  1.
         11   -1    0    0    0    0 -0.00000000000E+00 -0.00000000000E+00 -0.45593999997E+02  0.45594000000E+02  0.51100000000E-03 0. -1.
    9900012    2    1    2    0    0 -0.11992783765E+02  0.25186953319E+02  0.35368123548E+02  0.46142316042E+02  0.99999843254E+01 0.  0.
         12    1    1    2    0    0  0.11992783765E+02 -0.25186953319E+02 -0.35368123548E+02  0.45045683958E+02  0.00000000000E+00 0. -1.
         11    1    3    3    0    0 -0.36572500714E+01  0.58264447667E+01  0.46488123978E+01  0.83026738871E+01  0.51100000000E-03 0. -1.
        -11    1    3    3    0    0 -0.78847240538E+01  0.19884536248E+02  0.29963182775E+02  0.36815159615E+02  0.51100000000E-03 0.  1.
        -12    1    3    3    0    0 -0.45080963932E+00 -0.52402769499E+00  0.75612837509E+00  0.10244825404E+01  0.00000000000E+00 0.  1.
</event>
<event>
 7    1  0.2438448E-008  0.4614232E+02  0.7816164E-02  0.1320468E+00
        -11   -1    0    0    0    0  0.00000000000E+00  0.00000000000E+00  0.45593999997E+02  0.45594000000E+02  0.51100000000E-03 0.  1.
         11   -1    0    0    0    0 -0.00000000000E+00 -0.00000000000E+00 -0.45593999997E+02  0.45594000000E+02  0.51100000000E-03 0. -1.
    9900012    2    1    2    0    0 -0.15037689922E+02 -0.17839461831E+02  0.38532258356E+02  0.46142318180E+02  0.10000003824E+02 0.  0.
         12    1    1    2    0    0  0.15037689922E+02  0.17839461831E+02 -0.38532258356E+02  0.45045681820E+02  0.00000000000E+00 0. -1.
         11    1    3    3    0    0 -0.14019058640E+01 -0.33563205820E+01  0.47054398801E+01  0.59473853605E+01  0.51100000000E-03 0. -1.
        -11    1    3    3    0    0 -0.19754247575E+01 -0.21911136324E+00  0.40033694145E+00  0.20274571980E+01  0.51100000000E-03 0.  1.
        -12    1    3    3    0    0 -0.11660359300E+02 -0.14264029885E+02  0.33426481534E+02  0.38167475622E+02  0.00000000000E+00 0.  1.
</event>
<event>
 7    1  0.2438448E-008  0.4614232E+02  0.7816164E-02  0.1320468E+00
        -11   -1    0    0    0    0  0.00000000000E+00  0.00000000000E+00  0.45593999997E+02  0.45594000000E+02  0.51100000000E-03 0.  1.
         11   -1    0    0    0    0 -0.00000000000E+00 -0.00000000000E+00 -0.45593999997E+02  0.45594000000E+02  0.51100000000E-03 0. -1.
    9900012    2    1    2    0    0  0.19029290099E+02 -0.23932266151E+02  0.33079396723E+02  0.46142315053E+02  0.99999753069E+01 0.  0.
         12    1    1    2    0    0 -0.19029290099E+02  0.23932266151E+02 -0.33079396723E+02  0.45045684947E+02  0.00000000000E+00 0. -1.
         11    1    3    3    0    0  0.76043581910E+01 -0.13415549250E+02  0.16944593078E+02  0.22911186351E+02  0.51100000000E-03 0. -1.
        -11    1    3    3    0    0  0.41314390113E+00 -0.21183274772E+01  0.50515732280E+01  0.54933042445E+01  0.51100000000E-03 0.  1.
        -12    1    3    3    0    0  0.11011788006E+02 -0.83983894237E+01  0.11083230417E+02  0.17737824457E+02  0.00000000000E+00 0.  1.
</event>
<event>
 7    1  0.2438448E-008  0.4614232E+02  0.7816164E-02  0.1320468E+00
        -11   -1    0    0    0    0  0.00000000000E+00  0.00000000000E+00  0.45593999997E+02  0.45594000000E+02  0.51100000000E-03 0.  1.
         11   -1    0    0    0    0 -0.00000000000E+00 -0.00000000000E+00 -0.45593999997E+02  0.45594000000E+02  0.51100000000E-03 0. -1.
    9900012    2    1    2    0    0  0.50113697201E+01 -0.20907245798E+02  0.39583920986E+02  0.46142317033E+02  0.99999933577E+01 0.  0.
         12    1    1    2    0    0 -0.50113697201E+01  0.20907245798E+02 -0.39583920986E+02  0.45045682967E+02  0.00000000000E+00 0. -1.
         11    1    3    3    0    0  0.32480519534E+01 -0.35507480240E+01  0.68871018952E+01  0.84017751576E+01  0.51100000000E-03 0. -1.
        -11    1    3    3    0    0 -0.14361923989E+01 -0.43389769743E+01  0.40262236266E+01  0.60909643524E+01  0.51100000000E-03 0.  1.
        -12    1    3    3    0    0  0.31995101657E+01 -0.13017520800E+02  0.28670595464E+02  0.31649577523E+02  0.00000000000E+00 0.  1.
</event>
<event>
 7    1  0.2438448E-008  0.4614232E+02  0.7816164E-02  0.1320468E+00
        -11   -1    0    0    0    0  0.00000000000E+00  0.00000000000E+00  0.45593999997E+02  0.45594000000E+02  0.51100000000E-03 0.  1.
         11   -1    0    0    0    0 -0.00000000000E+00 -0.00000000000E+00 -0.45593999997E+02  0.45594000000E+02  0.51100000000E-03 0. -1.
    9900012    2    1    2    0    0  0.90797339131E+01 -0.11500069992E+02  0.42596011239E+02  0.46142319283E+02  0.10000013882E+02 0.  0.
         12    1    1    2    0    0 -0.90797339131E+01  0.11500069992E+02 -0.42596011239E+02  0.45045680717E+02  0.00000000000E+00 0. -1.
         11    1    3    3    0    0  0.83351824103E+00 -0.20482846654E-01  0.54547844680E+00  0.99635295061E+00  0.51100000000E-03 0. -1.
        -11    1    3    3    0    0  0.92765231944E+01 -0.11888876789E+02  0.40668299168E+02  0.43374068651E+02  0.51100000000E-03 0.  1.
        -12    1    3    3    0    0 -0.10303075223E+01  0.40928964373E+00  0.13822336241E+01  0.17718976818E+01  0.00000000000E+00 0.  1.
</event>
<event>
 7    1  0.2438448E-008  0.4614232E+02  0.7816164E-02  0.1320468E+00
        -11   -1    0    0    0    0  0.00000000000E+00  0.00000000000E+00  0.45593999997E+02  0.45594000000E+02  0.51100000000E-03 0.  1.
         11   -1    0    0    0    0 -0.00000000000E+00 -0.00000000000E+00 -0.45593999997E+02  0.45594000000E+02  0.51100000000E-03 0. -1.
    9900012    2    1    2    0    0 -0.43868245618E+02 -0.69818255452E+01 -0.74796153289E+01  0.46142317554E+02  0.99999981088E+01 0.  0.
         12    1    1    2    0    0  0.43868245618E+02  0.69818255452E+01  0.74796153289E+01  0.45045682446E+02  0.00000000000E+00 0. -1.
         11    1    3    3    0    0 -0.82008519548E+01 -0.33093567219E+01 -0.33658764009E+01  0.94622903625E+01  0.51100000000E-03 0. -1.
        -11    1    3    3    0    0 -0.60263449063E+01 -0.55373992821E+00  0.17592076999E+01  0.63022434760E+01  0.51100000000E-03 0.  1.
        -12    1    3    3    0    0 -0.29641048757E+02 -0.31187288951E+01 -0.58729466279E+01  0.30377783715E+02  0.00000000000E+00 0.  1.
</event>
<event>
 7    1  0.2438448E-008  0.4614232E+02  0.7816164E-02  0.1320468E+00
        -11   -1    0    0    0    0  0.00000000000E+00  0.00000000000E+00  0.45593999997E+02  0.45594000000E+02  0.51100000000E-03 0.  1.
         11   -1    0    0    0    0 -0.00000000000E+00 -0.00000000000E+00 -0.45593999997E+02  0.45594000000E+02  0.51100000000E-03 0. -1.
    9900012    2    1    2    0    0 -0.16526776922E+02  0.18846112732E+02  0.37427305024E+02  0.46142317833E+02  0.10000000655E+02 0.  0.
         12    1    1    2    0    0  0.16526776922E+02 -0.18846112732E+02 -0.37427305024E+02  0.45045682167E+02  0.00000000000E+00 0. -1.
         11    1    3    3    0    0 -0.14436169272E+02  0.14205321219E+02  0.22571499257E+02  0.30326007208E+02  0.51100000000E-03 0. -1.
        -11    1    3    3    0    0 -0.16612154911E+01  0.20811080041E+01  0.94779194643E+01  0.98448770975E+01  0.51100000000E-03 0.  1.
         12    1    3    3    0    0 -0.42939215888E+00  0.25596835088E+01  0.53778863029E+01  0.59714335279E+01  0.00000000000E+00 0. -1.
</event>
<event>
 7    1  0.2438448E-008  0.4614232E+02  0.7816164E-02  0.1320468E+00
        -11   -1    0    0    0    0  0.00000000000E+00  0.00000000000E+00  0.45593999997E+02  0.45594000000E+02  0.51100000000E-03 0.  1.
         11   -1    0    0    0    0 -0.00000000000E+00 -0.00000000000E+00 -0.45593999997E+02  0.45594000000E+02  0.51100000000E-03 0. -1.
    9900012    2    1    2    0    0  0.35954861200E+02 -0.14287879041E+02  0.23069850120E+02  0.46142317455E+02  0.99999972107E+01 0.  0.
         12    1    1    2    0    0 -0.35954861200E+02  0.14287879041E+02 -0.23069850120E+02  0.45045682545E+02  0.00000000000E+00 0. -1.
         11    1    3    3    0    0  0.14511781021E+01 -0.94971782772E+00  0.39645244621E+01  0.43272781639E+01  0.51100000000E-03 0. -1.
        -11    1    3    3    0    0  0.21316420101E+02 -0.75973906998E+01  0.13678674478E+02  0.26442697425E+02  0.51100000000E-03 0.  1.
         12    1    3    3    0    0  0.13187262996E+02 -0.57407705139E+01  0.54266511791E+01  0.15372341866E+02  0.00000000000E+00 0. -1.
</event>
<event>
 7    1  0.2438448E-008  0.4614232E+02  0.7816164E-02  0.1320468E+00
        -11   -1    0    0    0    0  0.00000000000E+00  0.00000000000E+00  0.45593999997E+02  0.45594000000E+02  0.51100000000E-03 0. -1.
         11   -1    0    0    0    0 -0.00000000000E+00 -0.00000000000E+00 -0.45593999997E+02  0.45594000000E+02  0.51100000000E-03 0.  1.
    9900012    2    1    2    0    0 -0.42862698587E+02  0.13293969043E+02 -0.38952361342E+01  0.46142318658E+02  0.10000008177E+02 0.  0.
         12    1    1    2    0    0  0.42862698587E+02 -0.13293969043E+02  0.38952361342E+01  0.45045681342E+02  0.00000000000E+00 0. -1.
         11    1    3    3    0    0 -0.14841442249E+02  0.44884924359E+01 -0.53871404299E+01  0.16414513537E+02  0.51100000000E-03 0. -1.
        -11    1    3    3    0    0 -0.96809442100E+01  0.42154526178E+01 -0.12167658797E+01  0.10628793019E+02  0.51100000000E-03 0.  1.
         12    1    3    3    0    0 -0.18340312127E+02  0.45900239895E+01  0.27086701754E+01  0.19099012102E+02  0.00000000000E+00 0. -1.
</event>
<event>
 7    1  0.2438448E-008  0.4614232E+02  0.7816164E-02  0.1320468E+00
        -11   -1    0    0    0    0  0.00000000000E+00  0.00000000000E+00  0.45593999997E+02  0.45594000000E+02  0.51100000000E-03 0. -1.
         11   -1    0    0    0    0 -0.00000000000E+00 -0.00000000000E+00 -0.45593999997E+02  0.45594000000E+02  0.51100000000E-03 0.  1.
    9900012    2    1    2    0    0  0.40920781642E+02 -0.14724187256E+02 -0.11738885849E+02  0.46142317616E+02  0.99999986729E+01 0.  0.
         12    1    1    2    0    0 -0.40920781642E+02  0.14724187256E+02  0.11738885849E+02  0.45045682384E+02  0.00000000000E+00 0. -1.
         11    1    3    3    0    0  0.86559738150E+00 -0.12862164875E+01  0.39423192616E+00  0.15996970814E+01  0.51100000000E-03 0. -1.
        -11    1    3    3    0    0  0.10844687575E+02 -0.12035150206E+01 -0.93217074921E+00  0.10951010892E+02  0.51100000000E-03 0.  1.
        -12    1    3    3    0    0  0.29210496685E+02 -0.12234455748E+02 -0.11200947026E+02  0.33591609642E+02  0.00000000000E+00 0.  1.
</event>
<event>
 7    1  0.2438448E-008  0.4614232E+02  0.7816164E-02  0.1320468E+00
        -11   -1    0    0    0    0  0.00000000000E+00  0.00000000000E+00  0.45593999997E+02  0.45594000000E+02  0.51100000000E-03 0.  1.
         11   -1    0    0    0    0 -0.00000000000E+00 -0.00000000000E+00 -0.45593999997E+02  0.45594000000E+02  0.51100000000E-03 0. -1.
    9900012    2    1    2    0    0 -0.49054105587E+01  0.43576417553E+02  0.10302723665E+02  0.46142319470E+02  0.10000015580E+02 0.  0.
         12    1    1    2    0    0  0.49054105587E+01 -0.43576417553E+02 -0.10302723665E+02  0.45045680530E+02  0.00000000000E+00 0. -1.
         11    1    3    3    0    0 -0.18234581885E+01  0.77158357756E+01 -0.21355313811E+00  0.79312500078E+01  0.51100000000E-03 0. -1.
        -11    1    3    3    0    0  0.20360145571E+01  0.15923713121E+02  0.32218421459E+01  0.16373462123E+02  0.51100000000E-03 0.  1.
         12    1    3    3    0    0 -0.51179669273E+01  0.19936868657E+02  0.72944346567E+01  0.21837607339E+02  0.00000000000E+00 0. -1.
</event>
<event>
 7    1  0.2438448E-008  0.4614232E+02  0.7816164E-02  0.1320468E+00
        -11   -1    0    0    0    0  0.00000000000E+00  0.00000000000E+00  0.45593999997E+02  0.45594000000E+02  0.51100000000E-03 0. -1.
         11   -1    0    0    0    0 -0.00000000000E+00 -0.00000000000E+00 -0.45593999997E+02  0.45594000000E+02  0.51100000000E-03 0.  1.
    9900012    2    1    2    0    0  0.31731541040E+02 -0.10392587667E+02 -0.30236022927E+02  0.46142315882E+02  0.99999828633E+01 0.  0.
         12    1    1    2    0    0 -0.31731541040E+02  0.10392587667E+02  0.30236022927E+02  0.45045684118E+02  0.00000000000E+00 0. -1.
         11    1    3    3    0    0  0.11761142263E+02  0.10360954214E-01 -0.13820402590E+02  0.18147399337E+02  0.51100000000E-03 0. -1.
        -11    1    3    3    0    0  0.61202909607E+01 -0.26604590163E+01 -0.62997838538E+01  0.91773242553E+01  0.51100000000E-03 0.  1.
         12    1    3    3    0    0  0.13850107817E+02 -0.77424896053E+01 -0.10115836483E+02  0.18817592290E+02  0.00000000000E+00 0. -1.
</event>
<event>
 7    1  0.2438448E-008  0.4614232E+02  0.7816164E-02  0.1320468E+00
        -11   -1    0    0    0    0  0.00000000000E+00  0.00000000000E+00  0.45593999997E+02  0.45594000000E+02  0.51100000000E-03 0.  1.
         11   -1    0    0    0    0 -0.00000000000E+00 -0.00000000000E+00 -0.45593999997E+02  0.45594000000E+02  0.51100000000E-03 0. -1.
    9900012    2    1    2    0    0  0.84875662849E+01 -0.30486651755E+02  0.32056804752E+02  0.46142318214E+02  0.10000004127E+02 0.  0.
         12    1    1    2    0    0 -0.84875662849E+01  0.30486651755E+02 -0.32056804752E+02  0.45045681786E+02  0.00000000000E+00 0. -1.
         11    1    3    3    0    0  0.59904963557E+01 -0.11205667881E+02  0.10969885412E+02  0.16786644259E+02  0.51100000000E-03 0. -1.
        -11    1    3    3    0    0  0.44378657445E+01 -0.15490129456E+02  0.17491207012E+02  0.23781948741E+02  0.51100000000E-03 0.  1.
        -12    1    3    3    0    0 -0.19407958154E+01 -0.37908544173E+01  0.35957123292E+01  0.55737252143E+01  0.00000000000E+00 0.  1.
</event>
<event>
 7    1  0.2438448E-008  0.4614232E+02  0.7816164E-02  0.1320468E+00
        -11   -1    0    0    0    0  0.00000000000E+00  0.00000000000E+00  0.45593999997E+02  0.45594000000E+02  0.51100000000E-03 0.  1.
         11   -1    0    0    0    0 -0.00000000000E+00 -0.00000000000E+00 -0.45593999997E+02  0.45594000000E+02  0.51100000000E-03 0. -1.
    9900012    2    1    2    0    0  0.32986534014E+02 -0.15540882999E+02  0.26447740474E+02  0.46142318222E+02  0.10000004207E+02 0.  0.
         12    1    1    2    0    0 -0.32986534014E+02  0.15540882999E+02 -0.26447740474E+02  0.45045681778E+02  0.00000000000E+00 0. -1.
         11    1    3    3    0    0  0.33776012876E+01 -0.24282253289E+01  0.64378115109E+01  0.76648474229E+01  0.51100000000E-03 0. -1.
        -11    1    3    3    0    0  0.23751261188E+02 -0.12608060696E+02  0.17509800982E+02  0.32088607530E+02  0.51100000000E-03 0.  1.
         12    1    3    3    0    0  0.58576715385E+01 -0.50459697484E+00  0.25001279807E+01  0.63888632698E+01  0.00000000000E+00 0. -1.
</event>
<event>
 7    1  0.2438448E-008  0.4614232E+02  0.7816164E-02  0.1320468E+00
        -11   -1    0    0    0    0  0.00000000000E+00  0.00000000000E+00  0.45593999997E+02  0.45594000000E+02  0.51100000000E-03 0. -1.
         11   -1    0    0    0    0 -0.00000000000E+00 -0.00000000000E+00 -0.45593999997E+02  0.45594000000E+02  0.51100000000E-03 0.  1.
    9900012    2    1    2    0    0 -0.35650545617E+02  0.26805975095E+02 -0.62922077297E+01  0.46142316725E+02  0.99999905553E+01 0.  0.
         12    1    1    2    0    0  0.35650545617E+02 -0.26805975095E+02  0.62922077297E+01  0.45045683275E+02  0.00000000000E+00 0. -1.
         11    1    3    3    0    0 -0.49546067245E+01  0.29984320029E+01 -0.34800177705E+01  0.67564225900E+01  0.51100000000E-03 0. -1.
        -11    1    3    3    0    0 -0.17441960763E+02  0.10491213882E+02  0.21673900509E+00  0.20355209163E+02  0.51100000000E-03 0.  1.
        -12    1    3    3    0    0 -0.13253978129E+02  0.13316329209E+02 -0.30289289643E+01  0.19030684973E+02  0.00000000000E+00 0.  1.
</event>
<event>
 7    1  0.2438448E-008  0.4614232E+02  0.7816164E-02  0.1320468E+00
        -11   -1    0    0    0    0  0.00000000000E+00  0.00000000000E+00  0.45593999997E+02  0.45594000000E+02  0.51100000000E-03 0.  1.
         11   -1    0    0    0    0 -0.00000000000E+00 -0.00000000000E+00 -0.45593999997E+02  0.45594000000E+02  0.51100000000E-03 0. -1.
    9900012    2    1    2    0    0  0.32755666876E+02  0.16666224376E+02  0.26046435117E+02  0.46142317302E+02  0.99999958124E+01 0.  0.
         12    1    1    2    0    0 -0.32755666876E+02 -0.16666224376E+02 -0.26046435117E+02  0.45045682698E+02  0.00000000000E+00 0. -1.
         11    1    3    3    0    0  0.11466759132E+02  0.45627791862E+01  0.71245264761E+01  0.14250066549E+02  0.51100000000E-03 0. -1.
        -11    1    3    3    0    0  0.15696045266E+02  0.51932544750E+01  0.10132141903E+02  0.19390617031E+02  0.51100000000E-03 0.  1.
        -12    1    3    3    0    0  0.55928624785E+01  0.69101907144E+01  0.87897667370E+01  0.12501633721E+02  0.00000000000E+00 0.  1.
</event>
<event>
 7    1  0.2438448E-008  0.4614232E+02  0.7816164E-02  0.1320468E+00
        -11   -1    0    0    0    0  0.00000000000E+00  0.00000000000E+00  0.45593999997E+02  0.45594000000E+02  0.51100000000E-03 0.  1.
         11   -1    0    0    0    0 -0.00000000000E+00 -0.00000000000E+00 -0.45593999997E+02  0.45594000000E+02  0.51100000000E-03 0. -1.
    9900012    2    1    2    0    0  0.68608462047E+01 -0.20817498617E+01  0.44471436462E+02  0.46142317032E+02  0.99999933469E+01 0.  0.
         12    1    1    2    0    0 -0.68608462047E+01  0.20817498617E+01 -0.44471436462E+02  0.45045682968E+02  0.00000000000E+00 0. -1.
         11    1    3    3    0    0  0.62449772685E+01  0.13261122695E+01  0.23834520283E+02  0.24674737531E+02  0.51100000000E-03 0. -1.
        -11    1    3    3    0    0 -0.27109499025E-01 -0.58869984057E+00 -0.38844096153E-01  0.59060270246E+00  0.51100000000E-03 0.  1.
        -12    1    3    3    0    0  0.64297843527E+00 -0.28191622906E+01  0.20675760274E+02  0.20876976798E+02  0.00000000000E+00 0.  1.
</event>
<event>
 7    1  0.2438448E-008  0.4614232E+02  0.7816164E-02  0.1320468E+00
        -11   -1    0    0    0    0  0.00000000000E+00  0.00000000000E+00  0.45593999997E+02  0.45594000000E+02  0.51100000000E-03 0.  1.
         11   -1    0    0    0    0 -0.00000000000E+00 -0.00000000000E+00 -0.45593999997E+02  0.45594000000E+02  0.51100000000E-03 0. -1.
    9900012    2    1    2    0    0  0.18259946913E+01 -0.44752698985E+02 -0.47932345324E+01  0.46142318516E+02  0.10000006886E+02 0.  0.
         12    1    1    2    0    0 -0.18259946913E+01  0.44752698985E+02  0.47932345324E+01  0.45045681484E+02  0.00000000000E+00 0. -1.
         11    1    3    3    0    0  0.31684788700E+01 -0.24956678512E+02 -0.55121098925E+01  0.25753803921E+02  0.51100000000E-03 0. -1.
        -11    1    3    3    0    0  0.15494166039E+01 -0.11062090682E+02  0.15816843816E+00  0.11171193293E+02  0.51100000000E-03 0.  1.
         12    1    3    3    0    0 -0.28919007826E+01 -0.87339297915E+01  0.56070692198E+00  0.92173213024E+01  0.00000000000E+00 0. -1.
</event>
<event>
 7    1  0.2438448E-008  0.4614232E+02  0.7816164E-02  0.1320468E+00
        -11   -1    0    0    0    0  0.00000000000E+00  0.00000000000E+00  0.45593999997E+02  0.45594000000E+02  0.51100000000E-03 0. -1.
         11   -1    0    0    0    0 -0.00000000000E+00 -0.00000000000E+00 -0.45593999997E+02  0.45594000000E+02  0.51100000000E-03 0.  1.
    9900012    2    1    2    0    0  0.12319975174E+02  0.11696596003E+02 -0.41719555968E+02  0.46142317671E+02  0.99999991742E+01 0.  0.
         12    1    1    2    0    0 -0.12319975174E+02 -0.11696596003E+02  0.41719555968E+02  0.45045682329E+02  0.00000000000E+00 0. -1.
         11    1    3    3    0    0  0.22561246663E+01  0.74283825481E+01 -0.23434556279E+02  0.24687028862E+02  0.51100000000E-03 0. -1.
        -11    1    3    3    0    0  0.71699802879E+01  0.39768238075E+01 -0.14768944830E+02  0.16892172050E+02  0.51100000000E-03 0.  1.
         12    1    3    3    0    0  0.28938702196E+01  0.29138964725E+00 -0.35160548597E+01  0.45631167584E+01  0.00000000000E+00 0. -1.
</event>
<event>
 7    1  0.2438448E-008  0.4614232E+02  0.7816164E-02  0.1320468E+00
        -11   -1    0    0    0    0  0.00000000000E+00  0.00000000000E+00  0.45593999997E+02  0.45594000000E+02  0.51100000000E-03 0.  1.
         11   -1    0    0    0    0 -0.00000000000E+00 -0.00000000000E+00 -0.45593999997E+02  0.45594000000E+02  0.51100000000E-03 0. -1.
    9900012    2    1    2    0    0  0.15437450500E+02 -0.22619500790E+02  0.35765301241E+02  0.46142318000E+02  0.10000002183E+02 0.  0.
         12    1    1    2    0    0 -0.15437450500E+02  0.22619500790E+02 -0.35765301241E+02  0.45045682000E+02  0.00000000000E+00 0. -1.
         11    1    3    3    0    0  0.38138222926E+01 -0.10336313194E+02  0.10848396226E+02  0.15461963390E+02  0.51100000000E-03 0. -1.
        -11    1    3    3    0    0  0.10573014401E+02 -0.11803411967E+02  0.24912611845E+02  0.29525368699E+02  0.51100000000E-03 0.  1.
        -12    1    3    3    0    0  0.10506138065E+01 -0.47977562916E+00  0.42931692659E-02  0.11549859116E+01  0.00000000000E+00 0.  1.
</event>
<event>
 7    1  0.2438448E-008  0.4614232E+02  0.7816164E-02  0.1320468E+00
        -11   -1    0    0    0    0  0.00000000000E+00  0.00000000000E+00  0.45593999997E+02  0.45594000000E+02  0.51100000000E-03 0. -1.
         11   -1    0    0    0    0 -0.00000000000E+00 -0.00000000000E+00 -0.45593999997E+02  0.45594000000E+02  0.51100000000E-03 0.  1.
    9900012    2    1    2    0    0 -0.43725758651E+02  0.10535424812E+02 -0.24852169868E+01  0.46142318198E+02  0.10000003981E+02 0.  0.
         12    1    1    2    0    0  0.43725758651E+02 -0.10535424812E+02  0.24852169868E+01  0.45045681802E+02  0.00000000000E+00 0. -1.
         11    1    3    3    0    0 -0.12514503187E+01  0.12249489079E+01 -0.96654502642E+00  0.20002093081E+01  0.51100000000E-03 0. -1.
        -11    1    3    3    0    0 -0.34707915565E+02  0.10480556735E+02 -0.15303068330E+01  0.36288060180E+02  0.51100000000E-03 0.  1.
         12    1    3    3    0    0 -0.77663927672E+01 -0.11700808310E+01  0.11634872543E-01  0.78540487098E+01  0.00000000000E+00 0. -1.
</event>
<event>
 7    1  0.2438448E-008  0.4614232E+02  0.7816164E-02  0.1320468E+00
        -11   -1    0    0    0    0  0.00000000000E+00  0.00000000000E+00  0.45593999997E+02  0.45594000000E+02  0.51100000000E-03 0.  1.
         11   -1    0    0    0    0 -0.00000000000E+00 -0.00000000000E+00 -0.45593999997E+02  0.45594000000E+02  0.51100000000E-03 0. -1.
    9900012    2    1    2    0    0  0.33960899817E+02 -0.28378240137E+02  0.83932244340E+01  0.46142318231E+02  0.10000004283E+02 0.  0.
         12    1    1    2    0    0 -0.33960899817E+02  0.28378240137E+02 -0.83932244340E+01  0.45045681769E+02  0.00000000000E+00 0. -1.
         11    1    3    3    0    0  0.12078436092E+02 -0.66850259424E+01  0.54639838213E+01  0.14846996657E+02  0.51100000000E-03 0. -1.
        -11    1    3    3    0    0  0.64980254229E+01 -0.45298686524E+01  0.22570991888E+01  0.82364155682E+01  0.51100000000E-03 0.  1.
        -12    1    3    3    0    0  0.15384438302E+02 -0.17163345542E+02  0.67214142400E+00  0.23058906005E+02  0.00000000000E+00 0.  1.
</event>
<event>
 7    1  0.2438448E-008  0.4614232E+02  0.7816164E-02  0.1320468E+00
        -11   -1    0    0    0    0  0.00000000000E+00  0.00000000000E+00  0.45593999997E+02  0.45594000000E+02  0.51100000000E-03 0.  1.
         11   -1    0    0    0    0 -0.00000000000E+00 -0.00000000000E+00 -0.45593999997E+02  0.45594000000E+02  0.51100000000E-03 0. -1.
    9900012    2    1    2    0    0  0.27937478439E+02  0.19776563867E+02  0.29283071911E+02  0.46142317849E+02  0.10000000799E+02 0.  0.
         12    1    1    2    0    0 -0.27937478439E+02 -0.19776563867E+02 -0.29283071911E+02  0.45045682151E+02  0.00000000000E+00 0. -1.
         11    1    3    3    0    0  0.11197374258E+02  0.72111907661E+01  0.91209832257E+01  0.16142329380E+02  0.51100000000E-03 0. -1.
        -11    1    3    3    0    0  0.10113480909E+02  0.46356009027E+01  0.14303491137E+02  0.18120738142E+02  0.51100000000E-03 0.  1.
        -12    1    3    3    0    0  0.66266232716E+01  0.79297721981E+01  0.58585975479E+01  0.11879250327E+02  0.00000000000E+00 0.  1.
</event>
<event>
 7    1  0.2438448E-008  0.4614232E+02  0.7816164E-02  0.1320468E+00
        -11   -1    0    0    0    0  0.00000000000E+00  0.00000000000E+00  0.45593999997E+02  0.45594000000E+02  0.51100000000E-03 0.  1.
         11   -1    0    0    0    0 -0.00000000000E+00 -0.00000000000E+00 -0.45593999997E+02  0.45594000000E+02  0.51100000000E-03 0. -1.
    9900012    2    1    2    0    0  0.41572197739E+02  0.12864862862E+02 -0.11634476888E+02  0.46142319033E+02  0.10000011597E+02 0.  0.
         12    1    1    2    0    0 -0.41572197739E+02 -0.12864862862E+02  0.11634476888E+02  0.45045680967E+02  0.00000000000E+00 0. -1.
         11    1    3    3    0    0  0.24575791487E+01  0.24281832469E+01 -0.12329270979E+01  0.36682255441E+01  0.51100000000E-03 0. -1.
        -11    1    3    3    0    0  0.14544309402E+02  0.19432540533E+00 -0.42338160034E+01  0.15149253994E+02  0.51100000000E-03 0.  1.
         12    1    3    3    0    0  0.24570309188E+02  0.10242354210E+02 -0.61677337865E+01  0.27324839495E+02  0.00000000000E+00 0. -1.
</event>
<event>
 7    1  0.2438448E-008  0.4614232E+02  0.7816164E-02  0.1320468E+00
        -11   -1    0    0    0    0  0.00000000000E+00  0.00000000000E+00  0.45593999997E+02  0.45594000000E+02  0.51100000000E-03 0. -1.
         11   -1    0    0    0    0 -0.00000000000E+00 -0.00000000000E+00 -0.45593999997E+02  0.45594000000E+02  0.51100000000E-03 0.  1.
    9900012    2    1    2    0    0 -0.14656040818E+02 -0.42549649019E+02 -0.19598694365E+01  0.46142320382E+02  0.10000023895E+02 0.  0.
         12    1    1    2    0    0  0.14656040818E+02  0.42549649019E+02  0.19598694365E+01  0.45045679618E+02  0.00000000000E+00 0. -1.
         11    1    3    3    0    0  0.10029318660E+00 -0.28097393089E+00 -0.47033000284E+00  0.55697005827E+00  0.51100000000E-03 0. -1.
        -11    1    3    3    0    0 -0.28941991010E+01 -0.54883147813E+01  0.25924124499E+01  0.67244769422E+01  0.51100000000E-03 0.  1.
        -12    1    3    3    0    0 -0.11862134904E+02 -0.36780360307E+02 -0.40819518836E+01  0.38860873381E+02  0.00000000000E+00 0.  1.
</event>
<event>
 7    1  0.2438448E-008  0.4614232E+02  0.7816164E-02  0.1320468E+00
        -11   -1    0    0    0    0  0.00000000000E+00  0.00000000000E+00  0.45593999997E+02  0.45594000000E+02  0.51100000000E-03 0. -1.
         11   -1    0    0    0    0 -0.00000000000E+00 -0.00000000000E+00 -0.45593999997E+02  0.45594000000E+02  0.51100000000E-03 0.  1.
    9900012    2    1    2    0    0 -0.13148852384E+02  0.23942910882E+02 -0.35818404031E+02  0.46142319099E+02  0.10000012196E+02 0.  0.
         12    1    1    2    0    0  0.13148852384E+02 -0.23942910882E+02  0.35818404031E+02  0.45045680901E+02  0.00000000000E+00 0. -1.
         11    1    3    3    0    0  0.10485558250E+00 -0.30272219808E-01  0.33554752853E+00  0.35285054272E+00  0.51100000000E-03 0. -1.
        -11    1    3    3    0    0 -0.12337748234E+02  0.22475053864E+02 -0.30372104517E+02  0.39746859130E+02  0.51100000000E-03 0.  1.
         12    1    3    3    0    0 -0.91595973254E+00  0.14981292383E+01 -0.57818470425E+01  0.60426094255E+01  0.00000000000E+00 0. -1.
</event>
<event>
 7    1  0.2438448E-008  0.4614232E+02  0.7816164E-02  0.1320468E+00
        -11   -1    0    0    0    0  0.00000000000E+00  0.00000000000E+00  0.45593999997E+02  0.45594000000E+02  0.51100000000E-03 0. -1.
         11   -1    0    0    0    0 -0.00000000000E+00 -0.00000000000E+00 -0.45593999997E+02  0.45594000000E+02  0.51100000000E-03 0.  1.
    9900012    2    1    2    0    0  0.93970533992E+00  0.20139839280E+02 -0.40281723268E+02  0.46142318722E+02  0.10000008761E+02 0.  0.
         12    1    1    2    0    0 -0.93970533992E+00 -0.20139839280E+02  0.40281723268E+02  0.45045681278E+02  0.00000000000E+00 0. -1.
         11    1    3    3    0    0 -0.26797831794E-01  0.26211560781E+01 -0.13935072826E+01  0.29686764925E+01  0.51100000000E-03 0. -1.
        -11    1    3    3    0    0 -0.66504103696E+00  0.99047218284E+01 -0.28579700467E+02  0.30254670269E+02  0.51100000000E-03 0.  1.
         12    1    3    3    0    0  0.16315442087E+01  0.76139613734E+01 -0.10308515519E+02  0.12918971960E+02  0.00000000000E+00 0. -1.
</event>
<event>
 7    1  0.2438448E-008  0.4614232E+02  0.7816164E-02  0.1320468E+00
        -11   -1    0    0    0    0  0.00000000000E+00  0.00000000000E+00  0.45593999997E+02  0.45594000000E+02  0.51100000000E-03 0. -1.
         11   -1    0    0    0    0 -0.00000000000E+00 -0.00000000000E+00 -0.45593999997E+02  0.45594000000E+02  0.51100000000E-03 0.  1.
    9900012    2    1    2    0    0  0.23424545716E+02  0.16077724496E+02 -0.34955841228E+02  0.46142318709E+02  0.10000008644E+02 0.  0.
         12    1    1    2    0    0 -0.23424545716E+02 -0.16077724496E+02  0.34955841228E+02  0.45045681291E+02  0.00000000000E+00 0. -1.
         11    1    3    3    0    0  0.27683854168E+01  0.22643160973E+01 -0.27707561210E+01  0.45241767148E+01  0.51100000000E-03 0. -1.
        -11    1    3    3    0    0  0.19242884664E+02  0.89993796124E+01 -0.24347127718E+02  0.32311918420E+02  0.51100000000E-03 0.  1.
        -12    1    3    3    0    0  0.14132756358E+01  0.48140287866E+01 -0.78379573891E+01  0.93062235743E+01  0.00000000000E+00 0.  1.
</event>
<event>
 7    1  0.2438448E-008  0.4614232E+02  0.7816164E-02  0.1320468E+00
        -11   -1    0    0    0    0  0.00000000000E+00  0.00000000000E+00  0.45593999997E+02  0.45594000000E+02  0.51100000000E-03 0. -1.
         11   -1    0    0    0    0 -0.00000000000E+00 -0.00000000000E+00 -0.45593999997E+02  0.45594000000E+02  0.51100000000E-03 0.  1.
    9900012    2    1    2    0    0  0.23916110751E+02 -0.32912222417E+02 -0.19336983871E+02  0.46142315600E+02  0.99999802924E+01 0.  0.
         12    1    1    2    0    0 -0.23916110751E+02  0.32912222417E+02  0.19336983871E+02  0.45045684400E+02  0.00000000000E+00 0. -1.
         11    1    3    3    0    0  0.72722656803E+01 -0.55094859964E+01 -0.33283748914E+01  0.97117641934E+01  0.51100000000E-03 0. -1.
        -11    1    3    3    0    0  0.14064384384E+02 -0.17390320930E+02 -0.11530114771E+02  0.25162943330E+02  0.51100000000E-03 0.  1.
        -12    1    3    3    0    0  0.25794606866E+01 -0.10012415491E+02 -0.44784942086E+01  0.11267608077E+02  0.00000000000E+00 0.  1.
</event>
<event>
 7    1  0.2438448E-008  0.4614232E+02  0.7816164E-02  0.1320468E+00
        -11   -1    0    0    0    0  0.00000000000E+00  0.00000000000E+00  0.45593999997E+02  0.45594000000E+02  0.51100000000E-03 0.  1.
         11   -1    0    0    0    0 -0.00000000000E+00 -0.00000000000E+00 -0.45593999997E+02  0.45594000000E+02  0.51100000000E-03 0. -1.
    9900012    2    1    2    0    0 -0.43409570446E+02 -0.12023534257E+02  0.39650403988E+00  0.46142318766E+02  0.10000009166E+02 0.  0.
         12    1    1    2    0    0  0.43409570446E+02  0.12023534257E+02 -0.39650403988E+00  0.45045681234E+02  0.00000000000E+00 0. -1.
         11    1    3    3    0    0 -0.88098689282E+01  0.96917588970E+00  0.12767089113E+01  0.89545004519E+01  0.51100000000E-03 0. -1.
        -11    1    3    3    0    0 -0.12894443509E+02 -0.32629360405E+01  0.92594962678E+00  0.13333071963E+02  0.51100000000E-03 0.  1.
         12    1    3    3    0    0 -0.21705258009E+02 -0.97297741061E+01 -0.18061544982E+01  0.23854746351E+02  0.00000000000E+00 0. -1.
</event>
<event>
 7    1  0.2438448E-008  0.4614232E+02  0.7816164E-02  0.1320468E+00
        -11   -1    0    0    0    0  0.00000000000E+00  0.00000000000E+00  0.45593999997E+02  0.45594000000E+02  0.51100000000E-03 0.  1.
         11   -1    0    0    0    0 -0.00000000000E+00 -0.00000000000E+00 -0.45593999997E+02  0.45594000000E+02  0.51100000000E-03 0. -1.
    9900012    2    1    2    0    0  0.25969807528E+02  0.19649189765E+02  0.31122209264E+02  0.46142317954E+02  0.10000001762E+02 0.  0.
         12    1    1    2    0    0 -0.25969807528E+02 -0.19649189765E+02 -0.31122209264E+02  0.45045682046E+02  0.00000000000E+00 0. -1.
         11    1    3    3    0    0  0.78372964176E+01  0.86440993841E+01  0.12093091887E+02  0.16804360772E+02  0.51100000000E-03 0. -1.
        -11    1    3    3    0    0  0.17233894701E+02  0.10084659165E+02  0.14627423132E+02  0.24752151114E+02  0.51100000000E-03 0.  1.
        -12    1    3    3    0    0  0.89861641012E+00  0.92043121639E+00  0.44016942442E+01  0.45858060683E+01  0.00000000000E+00 0.  1.
</event>
<event>
 7    1  0.2438448E-008  0.4614232E+02  0.7816164E-02  0.1320468E+00
        -11   -1    0    0    0    0  0.00000000000E+00  0.00000000000E+00  0.45593999997E+02  0.45594000000E+02  0.51100000000E-03 0.  1.
         11   -1    0    0    0    0 -0.00000000000E+00 -0.00000000000E+00 -0.45593999997E+02  0.45594000000E+02  0.51100000000E-03 0. -1.
    9900012    2    1    2    0    0 -0.32152023987E+02  0.31540998055E+02 -0.72537580252E+00  0.46142319021E+02  0.10000011491E+02 0.  0.
         12    1    1    2    0    0  0.32152023987E+02 -0.31540998055E+02  0.72537580252E+00  0.45045680979E+02  0.00000000000E+00 0. -1.
         11    1    3    3    0    0 -0.69353056337E+01  0.11108596532E+02 -0.27433709600E+01  0.13380039822E+02  0.51100000000E-03 0. -1.
        -11    1    3    3    0    0 -0.15317305689E+02  0.13229961162E+02  0.30848674354E+01  0.20473596002E+02  0.51100000000E-03 0.  1.
         12    1    3    3    0    0 -0.98994126645E+01  0.72024403608E+01 -0.10668722779E+01  0.12288683197E+02  0.00000000000E+00 0. -1.
</event>
<event>
 7    1  0.2438448E-008  0.4614232E+02  0.7816164E-02  0.1320468E+00
        -11   -1    0    0    0    0  0.00000000000E+00  0.00000000000E+00  0.45593999997E+02  0.45594000000E+02  0.51100000000E-03 0.  1.
         11   -1    0    0    0    0 -0.00000000000E+00 -0.00000000000E+00 -0.45593999997E+02  0.45594000000E+02  0.51100000000E-03 0. -1.
    9900012    2    1    2    0    0 -0.13792539787E+02 -0.42737216777E+02  0.35227321868E+01  0.46142317702E+02  0.99999994627E+01 0.  0.
         12    1    1    2    0    0  0.13792539787E+02  0.42737216777E+02 -0.35227321868E+01  0.45045682298E+02  0.00000000000E+00 0. -1.
         11    1    3    3    0    0 -0.62695492466E+01 -0.16280601515E+02  0.50513544746E+01  0.18162637907E+02  0.51100000000E-03 0. -1.
        -11    1    3    3    0    0 -0.79228993005E+01 -0.21801700841E+02 -0.20061399958E+01  0.23283279211E+02  0.51100000000E-03 0.  1.
         12    1    3    3    0    0  0.39990876051E+00 -0.46549144216E+01  0.47751770808E+00  0.46964005846E+01  0.00000000000E+00 0. -1.
</event>
<event>
 7    1  0.2438448E-008  0.4614232E+02  0.7816164E-02  0.1320468E+00
        -11   -1    0    0    0    0  0.00000000000E+00  0.00000000000E+00  0.45593999997E+02  0.45594000000E+02  0.51100000000E-03 0.  1.
         11   -1    0    0    0    0 -0.00000000000E+00 -0.00000000000E+00 -0.45593999997E+02  0.45594000000E+02  0.51100000000E-03 0. -1.
    9900012    2    1    2    0    0  0.57057456673E+01  0.44448339739E+02  0.45719957438E+01  0.46142316697E+02  0.99999902929E+01 0.  0.
         12    1    1    2    0    0 -0.57057456673E+01 -0.44448339739E+02 -0.45719957438E+01  0.45045683303E+02  0.00000000000E+00 0. -1.
         11    1    3    3    0    0  0.26981946874E+01  0.15534594812E+02 -0.21942809898E+01  0.15919131882E+02  0.51100000000E-03 0. -1.
        -11    1    3    3    0    0  0.38385655125E+01  0.24654223850E+02  0.68781006645E+01  0.25881916619E+02  0.51100000000E-03 0.  1.
        -12    1    3    3    0    0 -0.83101453263E+00  0.42595210772E+01 -0.11182393093E+00  0.43412681963E+01  0.00000000000E+00 0.  1.
</event>
<event>
 7    1  0.2438448E-008  0.4614232E+02  0.7816164E-02  0.1320468E+00
        -11   -1    0    0    0    0  0.00000000000E+00  0.00000000000E+00  0.45593999997E+02  0.45594000000E+02  0.51100000000E-03 0. -1.
         11   -1    0    0    0    0 -0.00000000000E+00 -0.00000000000E+00 -0.45593999997E+02  0.45594000000E+02  0.51100000000E-03 0.  1.
    9900012    2    1    2    0    0 -0.19299782348E+02 -0.40701716636E+02  0.48058452529E-01  0.46142316018E+02  0.99999841034E+01 0.  0.
         12    1    1    2    0    0  0.19299782348E+02  0.40701716636E+02 -0.48058452529E-01  0.45045683982E+02  0.00000000000E+00 0. -1.
         11    1    3    3    0    0  0.72284408513E+00 -0.18406036166E+01  0.45958241569E-01  0.19779882876E+01  0.51100000000E-03 0. -1.
        -11    1    3    3    0    0 -0.92296318123E+01 -0.20465127247E+02  0.29125644084E+01  0.22638254533E+02  0.51100000000E-03 0.  1.
        -12    1    3    3    0    0 -0.10792994621E+02 -0.18395985773E+02 -0.29104641974E+01  0.21526073197E+02  0.00000000000E+00 0.  1.
</event>
<event>
 7    1  0.2438448E-008  0.4614232E+02  0.7816164E-02  0.1320468E+00
        -11   -1    0    0    0    0  0.00000000000E+00  0.00000000000E+00  0.45593999997E+02  0.45594000000E+02  0.51100000000E-03 0.  1.
         11   -1    0    0    0    0 -0.00000000000E+00 -0.00000000000E+00 -0.45593999997E+02  0.45594000000E+02  0.51100000000E-03 0. -1.
    9900012    2    1    2    0    0  0.30297988605E+02 -0.71030446831E+01  0.32568269168E+02  0.46142317478E+02  0.99999974161E+01 0.  0.
         12    1    1    2    0    0 -0.30297988605E+02  0.71030446831E+01 -0.32568269168E+02  0.45045682522E+02  0.00000000000E+00 0. -1.
         11    1    3    3    0    0  0.18401858872E+02 -0.39872936185E+01  0.14259055403E+02  0.23618797209E+02  0.51100000000E-03 0. -1.
        -11    1    3    3    0    0  0.74450273049E+01 -0.25138333180E+01  0.76957010831E+01  0.10998709240E+02  0.51100000000E-03 0.  1.
         12    1    3    3    0    0  0.44511024279E+01 -0.60191774666E+00  0.10613512682E+02  0.11524811029E+02  0.00000000000E+00 0. -1.
</event>
<event>
 7    1  0.2438448E-008  0.4614232E+02  0.7816164E-02  0.1320468E+00
        -11   -1    0    0    0    0  0.00000000000E+00  0.00000000000E+00  0.45593999997E+02  0.45594000000E+02  0.51100000000E-03 0.  1.
         11   -1    0    0    0    0 -0.00000000000E+00 -0.00000000000E+00 -0.45593999997E+02  0.45594000000E+02  0.51100000000E-03 0. -1.
    9900012    2    1    2    0    0  0.11232507751E+02 -0.18053151721E+02  0.39711810987E+02  0.46142318194E+02  0.10000003950E+02 0.  0.
         12    1    1    2    0    0 -0.11232507751E+02  0.18053151721E+02 -0.39711810987E+02  0.45045681806E+02  0.00000000000E+00 0. -1.
         11    1    3    3    0    0  0.10400730401E+01  0.68431923321E+00  0.28007905701E+00  0.12761227531E+01  0.51100000000E-03 0. -1.
        -11    1    3    3    0    0  0.51090640062E+01 -0.90070725004E+01  0.17329318148E+02  0.20187500038E+02  0.51100000000E-03 0.  1.
         12    1    3    3    0    0  0.50833707045E+01 -0.97303984539E+01  0.22102413782E+02  0.24678695403E+02  0.00000000000E+00 0. -1.
</event>
<event>
 7    1  0.2438448E-008  0.4614232E+02  0.7816164E-02  0.1320468E+00
        -11   -1    0    0    0    0  0.00000000000E+00  0.00000000000E+00  0.45593999997E+02  0.45594000000E+02  0.51100000000E-03 0.  1.
         11   -1    0    0    0    0 -0.00000000000E+00 -0.00000000000E+00 -0.45593999997E+02  0.45594000000E+02  0.51100000000E-03 0. -1.
    9900012    2    1    2    0    0  0.42651153114E+02  0.99204997141E+01  0.10562965690E+02  0.46142318513E+02  0.10000006853E+02 0.  0.
         12    1    1    2    0    0 -0.42651153114E+02 -0.99204997141E+01 -0.10562965690E+02  0.45045681487E+02  0.00000000000E+00 0. -1.
         11    1    3    3    0    0  0.70973651955E+01 -0.85386958059E+00  0.15342593522E+01  0.73113362664E+01  0.51100000000E-03 0. -1.
        -11    1    3    3    0    0  0.12152710976E+02  0.69219868149E+01  0.44526853201E+01  0.14677489307E+02  0.51100000000E-03 0.  1.
        -12    1    3    3    0    0  0.23401076942E+02  0.38523824797E+01  0.45760210174E+01  0.24153492940E+02  0.00000000000E+00 0.  1.
</event>
<event>
 7    1  0.2438448E-008  0.4614232E+02  0.7816164E-02  0.1320468E+00
        -11   -1    0    0    0    0  0.00000000000E+00  0.00000000000E+00  0.45593999997E+02  0.45594000000E+02  0.51100000000E-03 0.  1.
         11   -1    0    0    0    0 -0.00000000000E+00 -0.00000000000E+00 -0.45593999997E+02  0.45594000000E+02  0.51100000000E-03 0. -1.
    9900012    2    1    2    0    0 -0.25402266931E+02 -0.30496185766E+02  0.21303070246E+02  0.46142319703E+02  0.10000017711E+02 0.  0.
         12    1    1    2    0    0  0.25402266931E+02  0.30496185766E+02 -0.21303070246E+02  0.45045680297E+02  0.00000000000E+00 0. -1.
         11    1    3    3    0    0 -0.86470226106E+01 -0.13133381363E+02  0.10018386326E+02  0.18644698198E+02  0.51100000000E-03 0. -1.
        -11    1    3    3    0    0 -0.13097238268E+02 -0.15295351969E+02  0.11677182023E+02  0.23277500346E+02  0.51100000000E-03 0.  1.
         12    1    3    3    0    0 -0.36580060517E+01 -0.20674524342E+01 -0.39249810228E+00  0.42201211597E+01  0.00000000000E+00 0. -1.
</event>
<event>
 7    1  0.2438448E-008  0.4614232E+02  0.7816164E-02  0.1320468E+00
        -11   -1    0    0    0    0  0.00000000000E+00  0.00000000000E+00  0.45593999997E+02  0.45594000000E+02  0.51100000000E-03 0. -1.
         11   -1    0    0    0    0 -0.00000000000E+00 -0.00000000000E+00 -0.45593999997E+02  0.45594000000E+02  0.51100000000E-03 0.  1.
    9900012    2    1    2    0    0  0.17297670496E+02  0.13772230738E+02 -0.39245761062E+02  0.46142317572E+02  0.99999982731E+01 0.  0.
         12    1    1    2    0    0 -0.17297670496E+02 -0.13772230738E+02  0.39245761062E+02  0.45045682428E+02  0.00000000000E+00 0. -1.
         11    1    3    3    0    0  0.71115572709E+00 -0.98079933147E+00 -0.51345374829E+01  0.52755270089E+01  0.51100000000E-03 0. -1.
        -11    1    3    3    0    0  0.86350345537E+01  0.63899561827E+01 -0.13583594339E+02  0.17317892400E+02  0.51100000000E-03 0.  1.
        -12    1    3    3    0    0  0.79514802149E+01  0.83630738871E+01 -0.20527629240E+02  0.23548898162E+02  0.00000000000E+00 0.  1.
</event>
<event>
 7    1  0.2438448E-008  0.4614232E+02  0.7816164E-02  0.1320468E+00
        -11   -1    0    0    0    0  0.00000000000E+00  0.00000000000E+00  0.45593999997E+02  0.45594000000E+02  0.51100000000E-03 0. -1.
         11   -1    0    0    0    0 -0.00000000000E+00 -0.00000000000E+00 -0.45593999997E+02  0.45594000000E+02  0.51100000000E-03 0.  1.
    9900012    2    1    2    0    0 -0.40986852900E+02 -0.18407991950E+02  0.32151546702E+01  0.46142317656E+02  0.99999990395E+01 0.  0.
         12    1    1    2    0    0  0.40986852900E+02  0.18407991950E+02 -0.32151546702E+01  0.45045682344E+02  0.00000000000E+00 0. -1.
         11    1    3    3    0    0 -0.13041748123E+02 -0.59178393946E+01 -0.94918147357E+00  0.14353012330E+02  0.51100000000E-03 0.  1.
        -11    1    3    3    0    0 -0.11261711009E+02 -0.66487469792E+01 -0.16489374667E+01  0.13181462979E+02  0.51100000000E-03 0. -1.
        -12    1    3    3    0    0 -0.16683393769E+02 -0.58414055760E+01  0.58132736104E+01  0.18607842347E+02  0.00000000000E+00 0.  1.
</event>
<event>
 7    1  0.2438448E-008  0.4614231E+02  0.7816164E-02  0.1320468E+00
        -11   -1    0    0    0    0  0.00000000000E+00  0.00000000000E+00  0.45593999997E+02  0.45594000000E+02  0.51100000000E-03 0. -1.
         11   -1    0    0    0    0 -0.00000000000E+00 -0.00000000000E+00 -0.45593999997E+02  0.45594000000E+02  0.51100000000E-03 0.  1.
    9900012    2    1    2    0    0  0.44089791999E+02  0.91173420630E+01 -0.14417334677E+01  0.46142308972E+02  0.99999198557E+01 0.  0.
         12    1    1    2    0    0 -0.44089791999E+02 -0.91173420630E+01  0.14417334677E+01  0.45045691028E+02  0.00000000000E+00 0. -1.
         11    1    3    3    0    0  0.55176056053E+01 -0.56588447708E+00  0.23186555185E+01  0.60116853321E+01  0.51100000000E-03 0. -1.
        -11    1    3    3    0    0  0.12451524886E+01 -0.36571684109E+00 -0.95838205425E-01  0.13012835012E+01  0.51100000000E-03 0.  1.
        -12    1    3    3    0    0  0.37327033905E+02  0.10048943381E+02 -0.36645507808E+01  0.38829340139E+02  0.00000000000E+00 0.  1.
</event>
<event>
 7    1  0.2438448E-008  0.4614232E+02  0.7816164E-02  0.1320468E+00
        -11   -1    0    0    0    0  0.00000000000E+00  0.00000000000E+00  0.45593999997E+02  0.45594000000E+02  0.51100000000E-03 0.  1.
         11   -1    0    0    0    0 -0.00000000000E+00 -0.00000000000E+00 -0.45593999997E+02  0.45594000000E+02  0.51100000000E-03 0. -1.
    9900012    2    1    2    0    0  0.27894841774E+02  0.34936856116E+02  0.55143056642E+01  0.46142315636E+02  0.99999806205E+01 0.  0.
         12    1    1    2    0    0 -0.27894841774E+02 -0.34936856116E+02 -0.55143056642E+01  0.45045684364E+02  0.00000000000E+00 0. -1.
         11    1    3    3    0    0  0.36781640695E+01  0.29122259352E+01  0.14070469287E+01  0.48979314144E+01  0.51100000000E-03 0. -1.
        -11    1    3    3    0    0  0.10750578511E+02  0.79805346152E+01  0.49426237474E-01  0.13389037093E+02  0.51100000000E-03 0.  1.
        -12    1    3    3    0    0  0.13466099194E+02  0.24044095565E+02  0.40578324980E+01  0.27855347128E+02  0.00000000000E+00 0.  1.
</event>
<event>
 7    1  0.2438448E-008  0.4614232E+02  0.7816164E-02  0.1320468E+00
        -11   -1    0    0    0    0  0.00000000000E+00  0.00000000000E+00  0.45593999997E+02  0.45594000000E+02  0.51100000000E-03 0.  1.
         11   -1    0    0    0    0 -0.00000000000E+00 -0.00000000000E+00 -0.45593999997E+02  0.45594000000E+02  0.51100000000E-03 0. -1.
    9900012    2    1    2    0    0  0.33775980983E+02  0.28941541513E+02 -0.71192475041E+01  0.46142318725E+02  0.10000008788E+02 0.  0.
         12    1    1    2    0    0 -0.33775980983E+02 -0.28941541513E+02  0.71192475041E+01  0.45045681275E+02  0.00000000000E+00 0. -1.
         11    1    3    3    0    0  0.88238362311E+01  0.43534605767E+01 -0.87749885628E+00  0.98783960910E+01  0.51100000000E-03 0.  1.
        -11    1    3    3    0    0  0.20223730105E+02  0.21071084798E+02 -0.76781581967E+01  0.30198410347E+02  0.51100000000E-03 0. -1.
         12    1    3    3    0    0  0.47284146475E+01  0.35169961374E+01  0.14364095489E+01  0.60655122869E+01  0.00000000000E+00 0. -1.
</event>
<event>
 7    1  0.2438448E-008  0.4614232E+02  0.7816164E-02  0.1320468E+00
        -11   -1    0    0    0    0  0.00000000000E+00  0.00000000000E+00  0.45593999997E+02  0.45594000000E+02  0.51100000000E-03 0.  1.
         11   -1    0    0    0    0 -0.00000000000E+00 -0.00000000000E+00 -0.45593999997E+02  0.45594000000E+02  0.51100000000E-03 0. -1.
    9900012    2    1    2    0    0  0.23305998798E+02 -0.30345459422E+02  0.23771767977E+02  0.46142318296E+02  0.10000004875E+02 0.  0.
         12    1    1    2    0    0 -0.23305998798E+02  0.30345459422E+02 -0.23771767977E+02  0.45045681704E+02  0.00000000000E+00 0. -1.
         11    1    3    3    0    0  0.58002068765E+01 -0.64804158802E+01  0.52416412367E+01  0.10154456800E+02  0.51100000000E-03 0. -1.
        -11    1    3    3    0    0  0.14969349766E+02 -0.14940964332E+02  0.10039887994E+02  0.23411817503E+02  0.51100000000E-03 0.  1.
         12    1    3    3    0    0  0.25364421551E+01 -0.89240792094E+01  0.84902387461E+01  0.12576043993E+02  0.00000000000E+00 0. -1.
</event>
<event>
 7    1  0.2438448E-008  0.4614232E+02  0.7816164E-02  0.1320468E+00
        -11   -1    0    0    0    0  0.00000000000E+00  0.00000000000E+00  0.45593999997E+02  0.45594000000E+02  0.51100000000E-03 0.  1.
         11   -1    0    0    0    0 -0.00000000000E+00 -0.00000000000E+00 -0.45593999997E+02  0.45594000000E+02  0.51100000000E-03 0. -1.
    9900012    2    1    2    0    0 -0.17427609346E+02 -0.40522542031E+02  0.91277320417E+01  0.46142317939E+02  0.10000001622E+02 0.  0.
         12    1    1    2    0    0  0.17427609346E+02  0.40522542031E+02 -0.91277320417E+01  0.45045682061E+02  0.00000000000E+00 0. -1.
         11    1    3    3    0    0 -0.19960905949E+01 -0.10733227839E+02  0.11270267097E+01  0.10975278902E+02  0.51100000000E-03 0. -1.
        -11    1    3    3    0    0 -0.15400379862E+02 -0.29081128694E+02  0.65504735906E+01  0.33552830738E+02  0.51100000000E-03 0.  1.
        -12    1    3    3    0    0 -0.31138888381E-01 -0.70818549766E+00  0.14502317414E+01  0.16142082992E+01  0.00000000000E+00 0.  1.
</event>
<event>
 7    1  0.2438448E-008  0.4614232E+02  0.7816164E-02  0.1320468E+00
        -11   -1    0    0    0    0  0.00000000000E+00  0.00000000000E+00  0.45593999997E+02  0.45594000000E+02  0.51100000000E-03 0.  1.
         11   -1    0    0    0    0 -0.00000000000E+00 -0.00000000000E+00 -0.45593999997E+02  0.45594000000E+02  0.51100000000E-03 0. -1.
    9900012    2    1    2    0    0  0.22535644280E+02  0.19768091320E+02  0.33622623498E+02  0.46142317538E+02  0.99999979673E+01 0.  0.
         12    1    1    2    0    0 -0.22535644280E+02 -0.19768091320E+02 -0.33622623498E+02  0.45045682462E+02  0.00000000000E+00 0. -1.
         11    1    3    3    0    0  0.65112297234E+01  0.42999305202E+01  0.11087503548E+02  0.13557958924E+02  0.51100000000E-03 0. -1.
        -11    1    3    3    0    0  0.85145482815E+01  0.40183407729E+01  0.12295358697E+02  0.15486137051E+02  0.51100000000E-03 0.  1.
         12    1    3    3    0    0  0.75098662748E+01  0.11449820027E+02  0.10239761253E+02  0.17098221563E+02  0.00000000000E+00 0. -1.
</event>
<event>
 7    1  0.2438448E-008  0.4614232E+02  0.7816164E-02  0.1320468E+00
        -11   -1    0    0    0    0  0.00000000000E+00  0.00000000000E+00  0.45593999997E+02  0.45594000000E+02  0.51100000000E-03 0.  1.
         11   -1    0    0    0    0 -0.00000000000E+00 -0.00000000000E+00 -0.45593999997E+02  0.45594000000E+02  0.51100000000E-03 0. -1.
    9900012    2    1    2    0    0  0.88399745590E+00  0.38165371572E+02  0.23911007167E+02  0.46142319824E+02  0.10000018813E+02 0.  0.
         12    1    1    2    0    0 -0.88399745590E+00 -0.38165371572E+02 -0.23911007167E+02  0.45045680176E+02  0.00000000000E+00 0. -1.
         11    1    3    3    0    0 -0.10862613296E+01  0.48131756420E+01  0.23363371750E+01  0.54594042801E+01  0.51100000000E-03 0. -1.
        -11    1    3    3    0    0  0.11871419763E+01  0.31521743001E+02  0.22226296923E+02  0.38588053373E+02  0.51100000000E-03 0.  1.
        -12    1    3    3    0    0  0.78311680927E+00  0.18304529288E+01 -0.65162693061E+00  0.20948621717E+01  0.00000000000E+00 0.  1.
</event>
<event>
 7    1  0.2438448E-008  0.4614232E+02  0.7816164E-02  0.1320468E+00
        -11   -1    0    0    0    0  0.00000000000E+00  0.00000000000E+00  0.45593999997E+02  0.45594000000E+02  0.51100000000E-03 0.  1.
         11   -1    0    0    0    0 -0.00000000000E+00 -0.00000000000E+00 -0.45593999997E+02  0.45594000000E+02  0.51100000000E-03 0. -1.
    9900012    2    1    2    0    0 -0.31032458065E+02 -0.24119414998E+00  0.32650296951E+02  0.46142317419E+02  0.99999968795E+01 0.  0.
         12    1    1    2    0    0  0.31032458065E+02  0.24119414998E+00 -0.32650296951E+02  0.45045682581E+02  0.00000000000E+00 0. -1.
         11    1    3    3    0    0 -0.13861130229E+02  0.13951477946E+01  0.11231359623E+02  0.17894714522E+02  0.51100000000E-03 0. -1.
        -11    1    3    3    0    0 -0.16321239332E+02 -0.18032424857E+01  0.21807297447E+02  0.27298218971E+02  0.51100000000E-03 0.  1.
         12    1    3    3    0    0 -0.85008850482E+00  0.16690054114E+00 -0.38836011869E+00  0.94938392574E+00  0.00000000000E+00 0. -1.
</event>
<event>
 7    1  0.2438448E-008  0.4614232E+02  0.7816164E-02  0.1320468E+00
        -11   -1    0    0    0    0  0.00000000000E+00  0.00000000000E+00  0.45593999997E+02  0.45594000000E+02  0.51100000000E-03 0.  1.
         11   -1    0    0    0    0 -0.00000000000E+00 -0.00000000000E+00 -0.45593999997E+02  0.45594000000E+02  0.51100000000E-03 0. -1.
    9900012    2    1    2    0    0  0.27874374741E+02  0.61375601292E+01  0.34849146243E+02  0.46142318682E+02  0.10000008399E+02 0.  0.
         12    1    1    2    0    0 -0.27874374741E+02 -0.61375601292E+01 -0.34849146243E+02  0.45045681318E+02  0.00000000000E+00 0. -1.
         11    1    3    3    0    0  0.14682864134E+01  0.18737090219E+01  0.95486404542E+00  0.25648423143E+01  0.51100000000E-03 0. -1.
        -11    1    3    3    0    0  0.49720426733E+01  0.32321486591E+01  0.74046599050E+01  0.94866739098E+01  0.51100000000E-03 0.  1.
         12    1    3    3    0    0  0.21434045654E+02  0.10317024481E+01  0.26489622292E+02  0.34090802458E+02  0.00000000000E+00 0. -1.
</event>
<event>
 7    1  0.2438448E-008  0.4614232E+02  0.7816164E-02  0.1320468E+00
        -11   -1    0    0    0    0  0.00000000000E+00  0.00000000000E+00  0.45593999997E+02  0.45594000000E+02  0.51100000000E-03 0.  1.
         11   -1    0    0    0    0 -0.00000000000E+00 -0.00000000000E+00 -0.45593999997E+02  0.45594000000E+02  0.51100000000E-03 0. -1.
    9900012    2    1    2    0    0 -0.28864154886E+02 -0.15229752300E+02  0.31048810939E+02  0.46142318152E+02  0.10000003568E+02 0.  0.
         12    1    1    2    0    0  0.28864154886E+02  0.15229752300E+02 -0.31048810939E+02  0.45045681848E+02  0.00000000000E+00 0. -1.
         11    1    3    3    0    0 -0.37486280853E+01 -0.32111485409E+01  0.18048072082E+01  0.52555700731E+01  0.51100000000E-03 0. -1.
        -11    1    3    3    0    0 -0.77340240746E+01 -0.23538411271E+01  0.49059594217E+01  0.94564335003E+01  0.51100000000E-03 0.  1.
         12    1    3    3    0    0 -0.17381502727E+02 -0.96647626317E+01  0.24338044309E+02  0.31430314579E+02  0.00000000000E+00 0. -1.
</event>
<event>
 7    1  0.2438448E-008  0.4614232E+02  0.7816164E-02  0.1320468E+00
        -11   -1    0    0    0    0  0.00000000000E+00  0.00000000000E+00  0.45593999997E+02  0.45594000000E+02  0.51100000000E-03 0.  1.
         11   -1    0    0    0    0 -0.00000000000E+00 -0.00000000000E+00 -0.45593999997E+02  0.45594000000E+02  0.51100000000E-03 0. -1.
    9900012    2    1    2    0    0  0.28133601766E+02 -0.21870359184E+02  0.27555423089E+02  0.46142317624E+02  0.99999987475E+01 0.  0.
         12    1    1    2    0    0 -0.28133601766E+02  0.21870359184E+02 -0.27555423089E+02  0.45045682376E+02  0.00000000000E+00 0. -1.
         11    1    3    3    0    0  0.48873824198E+01 -0.70955535362E+01  0.72175557950E+01  0.11239506164E+02  0.51100000000E-03 0. -1.
        -11    1    3    3    0    0 -0.44514574247E+00 -0.62983543996E+00  0.50510293704E+00  0.92194178320E+00  0.51100000000E-03 0.  1.
        -12    1    3    3    0    0  0.23691365088E+02 -0.14144970207E+02  0.19832764357E+02  0.33980869676E+02  0.00000000000E+00 0.  1.
</event>
<event>
 7    1  0.2438448E-008  0.4614232E+02  0.7816164E-02  0.1320468E+00
        -11   -1    0    0    0    0  0.00000000000E+00  0.00000000000E+00  0.45593999997E+02  0.45594000000E+02  0.51100000000E-03 0.  1.
         11   -1    0    0    0    0 -0.00000000000E+00 -0.00000000000E+00 -0.45593999997E+02  0.45594000000E+02  0.51100000000E-03 0. -1.
    9900012    2    1    2    0    0  0.86878410267E+01  0.58053656484E+01  0.43817036040E+02  0.46142317640E+02  0.99999988923E+01 0.  0.
         12    1    1    2    0    0 -0.86878410267E+01 -0.58053656484E+01 -0.43817036040E+02  0.45045682360E+02  0.00000000000E+00 0. -1.
         11    1    3    3    0    0  0.45519772656E+01 -0.51990337098E+00  0.16546661507E+02  0.17169240048E+02  0.51100000000E-03 0. -1.
        -11    1    3    3    0    0  0.17095006191E+01 -0.21366424303E+00  0.12734757192E+02  0.12850762070E+02  0.51100000000E-03 0.  1.
        -12    1    3    3    0    0  0.24263631421E+01  0.65389332624E+01  0.14535617340E+02  0.16122315521E+02  0.00000000000E+00 0.  1.
</event>
<event>
 7    1  0.2438448E-008  0.4614232E+02  0.7816164E-02  0.1320468E+00
        -11   -1    0    0    0    0  0.00000000000E+00  0.00000000000E+00  0.45593999997E+02  0.45594000000E+02  0.51100000000E-03 0.  1.
         11   -1    0    0    0    0 -0.00000000000E+00 -0.00000000000E+00 -0.45593999997E+02  0.45594000000E+02  0.51100000000E-03 0. -1.
    9900012    2    1    2    0    0  0.11181493965E+02  0.32349491379E+02  0.29284779681E+02  0.46142315182E+02  0.99999764806E+01 0.  0.
         12    1    1    2    0    0 -0.11181493965E+02 -0.32349491379E+02 -0.29284779681E+02  0.45045684818E+02  0.00000000000E+00 0. -1.
         11    1    3    3    0    0  0.58297641005E+01  0.20512144044E+02  0.21727071572E+02  0.30443387494E+02  0.51100000000E-03 0. -1.
        -11    1    3    3    0    0  0.79581693201E+00  0.24551171448E+01 -0.35771804332E+00  0.26055493171E+01  0.51100000000E-03 0.  1.
        -12    1    3    3    0    0  0.45559129324E+01  0.93822301903E+01  0.79154261517E+01  0.13093378371E+02  0.00000000000E+00 0.  1.
</event>
<event>
 7    1  0.2438448E-008  0.4614232E+02  0.7816164E-02  0.1320468E+00
        -11   -1    0    0    0    0  0.00000000000E+00  0.00000000000E+00  0.45593999997E+02  0.45594000000E+02  0.51100000000E-03 0.  1.
         11   -1    0    0    0    0 -0.00000000000E+00 -0.00000000000E+00 -0.45593999997E+02  0.45594000000E+02  0.51100000000E-03 0. -1.
    9900012    2    1    2    0    0  0.11555607805E+02 -0.18093202308E+01  0.43500665052E+02  0.46142316840E+02  0.99999915977E+01 0.  0.
         12    1    1    2    0    0 -0.11555607805E+02  0.18093202308E+01 -0.43500665052E+02  0.45045683160E+02  0.00000000000E+00 0. -1.
         11    1    3    3    0    0  0.51628640372E+01 -0.12003317353E+00  0.25047929885E+02  0.25574760308E+02  0.51100000000E-03 0. -1.
        -11    1    3    3    0    0  0.11634864252E+01  0.11108059567E+01  0.10625618149E+02  0.10746690273E+02  0.51100000000E-03 0.  1.
         12    1    3    3    0    0  0.52292573428E+01 -0.28000930140E+01  0.78271170179E+01  0.98208662579E+01  0.00000000000E+00 0. -1.
</event>
<event>
 7    1  0.2438448E-008  0.4614232E+02  0.7816164E-02  0.1320468E+00
        -11   -1    0    0    0    0  0.00000000000E+00  0.00000000000E+00  0.45593999997E+02  0.45594000000E+02  0.51100000000E-03 0.  1.
         11   -1    0    0    0    0 -0.00000000000E+00 -0.00000000000E+00 -0.45593999997E+02  0.45594000000E+02  0.51100000000E-03 0. -1.
    9900012    2    1    2    0    0  0.23086971911E+02 -0.14483348633E+02  0.35865552163E+02  0.46142317726E+02  0.99999996755E+01 0.  0.
         12    1    1    2    0    0 -0.23086971911E+02  0.14483348633E+02 -0.35865552163E+02  0.45045682274E+02  0.00000000000E+00 0. -1.
         11    1    3    3    0    0 -0.17053211913E-01 -0.72948527324E+00 -0.19555030038E+00  0.75543348947E+00  0.51100000000E-03 0. -1.
        -11    1    3    3    0    0  0.16046480005E+02 -0.12242360702E+02  0.24313621815E+02  0.31599321546E+02  0.51100000000E-03 0.  1.
         12    1    3    3    0    0  0.70575451173E+01 -0.15115026582E+01  0.11747480648E+02  0.13787562690E+02  0.00000000000E+00 0. -1.
</event>
<event>
 7    1  0.2438448E-008  0.4614232E+02  0.7816164E-02  0.1320468E+00
        -11   -1    0    0    0    0  0.00000000000E+00  0.00000000000E+00  0.45593999997E+02  0.45594000000E+02  0.51100000000E-03 0. -1.
         11   -1    0    0    0    0 -0.00000000000E+00 -0.00000000000E+00 -0.45593999997E+02  0.45594000000E+02  0.51100000000E-03 0.  1.
    9900012    2    1    2    0    0 -0.11053112690E+02  0.24187039204E+02 -0.36358348920E+02  0.46142315392E+02  0.99999783987E+01 0.  0.
         12    1    1    2    0    0  0.11053112690E+02 -0.24187039204E+02  0.36358348920E+02  0.45045684608E+02  0.00000000000E+00 0. -1.
         11    1    3    3    0    0 -0.49335638885E+01  0.19558630858E+02 -0.22475894549E+02  0.30200098174E+02  0.51100000000E-03 0.  1.
        -11    1    3    3    0    0 -0.28637917445E+01  0.12320621966E+01 -0.50481952194E+01  0.59332584342E+01  0.51100000000E-03 0. -1.
        -12    1    3    3    0    0 -0.32557570570E+01  0.33963461489E+01 -0.88342591518E+01  0.10008958784E+02  0.00000000000E+00 0.  1.
</event>
<event>
 7    1  0.2438448E-008  0.4614232E+02  0.7816164E-02  0.1320468E+00
        -11   -1    0    0    0    0  0.00000000000E+00  0.00000000000E+00  0.45593999997E+02  0.45594000000E+02  0.51100000000E-03 0.  1.
         11   -1    0    0    0    0 -0.00000000000E+00 -0.00000000000E+00 -0.45593999997E+02  0.45594000000E+02  0.51100000000E-03 0. -1.
    9900012    2    1    2    0    0  0.11724157980E+02 -0.22011390592E+02  0.37512085242E+02  0.46142315020E+02  0.99999750019E+01 0.  0.
         12    1    1    2    0    0 -0.11724157980E+02  0.22011390592E+02 -0.37512085242E+02  0.45045684980E+02  0.00000000000E+00 0. -1.
         11    1    3    3    0    0  0.93411877803E+00 -0.27915800864E+01  0.66725381722E+01  0.72930283964E+01  0.51100000000E-03 0. -1.
        -11    1    3    3    0    0  0.76844721899E+01 -0.18943929026E+02  0.27675616945E+02  0.34407315113E+02  0.51100000000E-03 0.  1.
        -12    1    3    3    0    0  0.31055670125E+01 -0.27588147968E+00  0.31639301251E+01  0.44419715101E+01  0.00000000000E+00 0.  1.
</event>
<event>
 7    1  0.2438448E-008  0.4614233E+02  0.7816164E-02  0.1320468E+00
        -11   -1    0    0    0    0  0.00000000000E+00  0.00000000000E+00  0.45593999997E+02  0.45594000000E+02  0.51100000000E-03 0. -1.
         11   -1    0    0    0    0 -0.00000000000E+00 -0.00000000000E+00 -0.45593999997E+02  0.45594000000E+02  0.51100000000E-03 0.  1.
    9900012    2    1    2    0    0  0.27315106700E+02  0.35175139314E+02 -0.67607196766E+01  0.46142325287E+02  0.10000068625E+02 0.  0.
         12    1    1    2    0    0 -0.27315106700E+02 -0.35175139314E+02  0.67607196766E+01  0.45045674713E+02  0.00000000000E+00 0. -1.
         11    1    3    3    0    0  0.67924069293E+00  0.15337840080E+01 -0.95003729588E+00  0.19278050801E+01  0.51100000000E-03 0. -1.
        -11    1    3    3    0    0  0.15937480231E+02  0.19922674474E+02  0.99795801199E+00  0.25532570469E+02  0.51100000000E-03 0.  1.
        -12    1    3    3    0    0  0.10698385776E+02  0.13718680832E+02 -0.68086403928E+01  0.18681949738E+02  0.00000000000E+00 0.  1.
</event>
<event>
 7    1  0.2438448E-008  0.4614233E+02  0.7816164E-02  0.1320468E+00
        -11   -1    0    0    0    0  0.00000000000E+00  0.00000000000E+00  0.45593999997E+02  0.45594000000E+02  0.51100000000E-03 0.  1.
         11   -1    0    0    0    0 -0.00000000000E+00 -0.00000000000E+00 -0.45593999997E+02  0.45594000000E+02  0.51100000000E-03 0. -1.
    9900012    2    1    2    0    0  0.40090151739E+02 -0.20075987628E+02  0.43413279721E+01  0.46142326797E+02  0.10000082400E+02 0.  0.
         12    1    1    2    0    0 -0.40090151739E+02  0.20075987628E+02 -0.43413279721E+01  0.45045673203E+02  0.00000000000E+00 0. -1.
         11    1    3    3    0    0  0.88340742548E+01 -0.60056168414E+00  0.25865500731E+01  0.92245207907E+01  0.51100000000E-03 0. -1.
        -11    1    3    3    0    0  0.61248487224E+01 -0.43114948889E+01  0.99761616569E+00  0.75563217457E+01  0.51100000000E-03 0.  1.
         12    1    3    3    0    0  0.25131228762E+02 -0.15163931055E+02  0.75716173329E+00  0.29361484261E+02  0.00000000000E+00 0. -1.
</event>
<event>
 7    1  0.2438448E-008  0.4614232E+02  0.7816164E-02  0.1320468E+00
        -11   -1    0    0    0    0  0.00000000000E+00  0.00000000000E+00  0.45593999997E+02  0.45594000000E+02  0.51100000000E-03 0. -1.
         11   -1    0    0    0    0 -0.00000000000E+00 -0.00000000000E+00 -0.45593999997E+02  0.45594000000E+02  0.51100000000E-03 0.  1.
    9900012    2    1    2    0    0  0.36167437851E+02  0.72247784123E+01 -0.25861796460E+02  0.46142317632E+02  0.99999988265E+01 0.  0.
         12    1    1    2    0    0 -0.36167437851E+02 -0.72247784123E+01  0.25861796460E+02  0.45045682368E+02  0.00000000000E+00 0. -1.
         11    1    3    3    0    0  0.28935513341E+02  0.66606455872E+01 -0.23581782658E+02  0.37917391861E+02  0.51100000000E-03 0.  1.
        -11    1    3    3    0    0 -0.22817758649E+00  0.11041964700E+00  0.22851905888E+00  0.34128980473E+00  0.51100000000E-03 0. -1.
        -12    1    3    3    0    0  0.74601020965E+01  0.45371317808E+00 -0.25085328603E+01  0.78836359664E+01  0.00000000000E+00 0.  1.
</event>
<event>
 7    1  0.2438448E-008  0.4614232E+02  0.7816164E-02  0.1320468E+00
        -11   -1    0    0    0    0  0.00000000000E+00  0.00000000000E+00  0.45593999997E+02  0.45594000000E+02  0.51100000000E-03 0.  1.
         11   -1    0    0    0    0 -0.00000000000E+00 -0.00000000000E+00 -0.45593999997E+02  0.45594000000E+02  0.51100000000E-03 0. -1.
    9900012    2    1    2    0    0 -0.43241491552E+02  0.45818003207E+01  0.11759848179E+02  0.46142317466E+02  0.99999973076E+01 0.  0.
         12    1    1    2    0    0  0.43241491552E+02 -0.45818003207E+01 -0.11759848179E+02  0.45045682534E+02  0.00000000000E+00 0. -1.
         11    1    3    3    0    0 -0.73692518622E+01 -0.21479394740E+01  0.22036062697E+01  0.79859500277E+01  0.51100000000E-03 0. -1.
        -11    1    3    3    0    0 -0.32379082675E+02  0.71013146765E+01  0.99790934316E+01  0.34618145112E+02  0.51100000000E-03 0.  1.
        -12    1    3    3    0    0 -0.34931570147E+01 -0.37157488180E+00 -0.42285152263E+00  0.35382223266E+01  0.00000000000E+00 0.  1.
</event>
<event>
 7    1  0.2438448E-008  0.4614232E+02  0.7816164E-02  0.1320468E+00
        -11   -1    0    0    0    0  0.00000000000E+00  0.00000000000E+00  0.45593999997E+02  0.45594000000E+02  0.51100000000E-03 0.  1.
         11   -1    0    0    0    0 -0.00000000000E+00 -0.00000000000E+00 -0.45593999997E+02  0.45594000000E+02  0.51100000000E-03 0. -1.
    9900012    2    1    2    0    0  0.35366367339E+02  0.17639290601E+02  0.21614558507E+02  0.46142315955E+02  0.99999835277E+01 0.  0.
         12    1    1    2    0    0 -0.35366367339E+02 -0.17639290601E+02 -0.21614558507E+02  0.45045684045E+02  0.00000000000E+00 0. -1.
         11    1    3    3    0    0  0.20913176261E+02  0.13327640847E+02  0.13183477421E+02  0.28085423783E+02  0.51100000000E-03 0.  1.
        -11    1    3    3    0    0  0.11269568092E+02  0.30894865013E+01  0.87978989984E+01  0.14627068021E+02  0.51100000000E-03 0. -1.
         12    1    3    3    0    0  0.31836229850E+01  0.12221632524E+01 -0.36681791259E+00  0.34298241510E+01  0.00000000000E+00 0. -1.
</event>
<event>
 7    1  0.2438448E-008  0.4614232E+02  0.7816164E-02  0.1320468E+00
        -11   -1    0    0    0    0  0.00000000000E+00  0.00000000000E+00  0.45593999997E+02  0.45594000000E+02  0.51100000000E-03 0.  1.
         11   -1    0    0    0    0 -0.00000000000E+00 -0.00000000000E+00 -0.45593999997E+02  0.45594000000E+02  0.51100000000E-03 0. -1.
    9900012    2    1    2    0    0 -0.42112664263E+02  0.95467364960E+01  0.12825631959E+02  0.46142317585E+02  0.99999983969E+01 0.  0.
         12    1    1    2    0    0  0.42112664263E+02 -0.95467364960E+01 -0.12825631959E+02  0.45045682415E+02  0.00000000000E+00 0. -1.
         11    1    3    3    0    0 -0.78387290503E+01  0.22410223055E+01  0.14399063991E+01  0.82789603693E+01  0.51100000000E-03 0. -1.
        -11    1    3    3    0    0 -0.22723165214E+02  0.78480392904E+01  0.46651158703E+01  0.24488717083E+02  0.51100000000E-03 0.  1.
         12    1    3    3    0    0 -0.11550769999E+02 -0.54232509993E+00  0.67206096892E+01  0.13374640133E+02  0.00000000000E+00 0. -1.
</event>
<event>
 7    1  0.2438448E-008  0.4614232E+02  0.7816164E-02  0.1320468E+00
        -11   -1    0    0    0    0  0.00000000000E+00  0.00000000000E+00  0.45593999997E+02  0.45594000000E+02  0.51100000000E-03 0.  1.
         11   -1    0    0    0    0 -0.00000000000E+00 -0.00000000000E+00 -0.45593999997E+02  0.45594000000E+02  0.51100000000E-03 0. -1.
    9900012    2    1    2    0    0  0.17084459518E+02 -0.36677227744E+02  0.19799387054E+02  0.46142317413E+02  0.99999968260E+01 0.  0.
         12    1    1    2    0    0 -0.17084459518E+02  0.36677227744E+02 -0.19799387054E+02  0.45045682587E+02  0.00000000000E+00 0. -1.
         11    1    3    3    0    0  0.16153550829E+01 -0.61552970139E+01  0.53541824686E+01  0.83165090958E+01  0.51100000000E-03 0. -1.
        -11    1    3    3    0    0  0.16044891743E+02 -0.29359856022E+02  0.14628170507E+02  0.36516065907E+02  0.51100000000E-03 0.  1.
         12    1    3    3    0    0 -0.57578730857E+00 -0.11620747079E+01 -0.18296592160E+00  0.13097424097E+01  0.00000000000E+00 0. -1.
</event>
<event>
 7    1  0.2477014E-008  0.4614232E+02  0.7816164E-02  0.1320468E+00
        -11   -1    0    0    0    0  0.00000000000E+00  0.00000000000E+00  0.45593999997E+02  0.45594000000E+02  0.51100000000E-03 0. -1.
         11   -1    0    0    0    0 -0.00000000000E+00 -0.00000000000E+00 -0.45593999997E+02  0.45594000000E+02  0.51100000000E-03 0.  1.
    9900012    2    1    2    0    0  0.34848803039E+02  0.88677946188E+01 -0.27129996618E+02  0.46142316842E+02  0.99999916205E+01 0.  0.
         12    1    1    2    0    0 -0.34848803039E+02 -0.88677946188E+01  0.27129996618E+02  0.45045683158E+02  0.00000000000E+00 0. -1.
         11    1    3    3    0    0  0.31923925674E+01 -0.24508257648E+00 -0.67826086757E-01  0.32025047092E+01  0.51100000000E-03 0. -1.
        -11    1    3    3    0    0  0.62343021353E+01  0.37898009060E+01 -0.48192448575E+01  0.87438112559E+01  0.51100000000E-03 0.  1.
        -12    1    3    3    0    0  0.25422108336E+02  0.53230762892E+01 -0.22242925674E+02  0.34196000877E+02  0.00000000000E+00 0.  1.
</event>
<event>
 7    1  0.2438448E-008  0.4614232E+02  0.7816164E-02  0.1320468E+00
        -11   -1    0    0    0    0  0.00000000000E+00  0.00000000000E+00  0.45593999997E+02  0.45594000000E+02  0.51100000000E-03 0.  1.
         11   -1    0    0    0    0 -0.00000000000E+00 -0.00000000000E+00 -0.45593999997E+02  0.45594000000E+02  0.51100000000E-03 0. -1.
    9900012    2    1    2    0    0 -0.40859163341E+01 -0.46655830696E+01  0.44616712849E+02  0.46142318264E+02  0.10000004583E+02 0.  0.
         12    1    1    2    0    0  0.40859163341E+01  0.46655830696E+01 -0.44616712849E+02  0.45045681736E+02  0.00000000000E+00 0. -1.
         11    1    3    3    0    0 -0.20652441114E+01 -0.21906556762E+01  0.58115872262E+01  0.65451319223E+01  0.51100000000E-03 0. -1.
        -11    1    3    3    0    0 -0.45870824601E+01 -0.17872375325E+01  0.29954904192E+02  0.30356742726E+02  0.51100000000E-03 0.  1.
         12    1    3    3    0    0  0.25664102373E+01 -0.68768986077E+00  0.88502214301E+01  0.92404436156E+01  0.00000000000E+00 0. -1.
</event>
<event>
 7    1  0.2438448E-008  0.4614232E+02  0.7816164E-02  0.1320468E+00
        -11   -1    0    0    0    0  0.00000000000E+00  0.00000000000E+00  0.45593999997E+02  0.45594000000E+02  0.51100000000E-03 0.  1.
         11   -1    0    0    0    0 -0.00000000000E+00 -0.00000000000E+00 -0.45593999997E+02  0.45594000000E+02  0.51100000000E-03 0. -1.
    9900012    2    1    2    0    0 -0.29303148767E+02 -0.33586389962E+02  0.65110174698E+01  0.46142318000E+02  0.10000002176E+02 0.  0.
         12    1    1    2    0    0  0.29303148767E+02  0.33586389962E+02 -0.65110174698E+01  0.45045682000E+02  0.00000000000E+00 0. -1.
         11    1    3    3    0    0 -0.10029552014E+01  0.33107350673E+00 -0.72659519892E+00  0.12819788014E+01  0.51100000000E-03 0. -1.
        -11    1    3    3    0    0 -0.14565889391E+02 -0.19711609874E+02  0.37181639683E+01  0.24789865694E+02  0.51100000000E-03 0.  1.
         12    1    3    3    0    0 -0.13734304175E+02 -0.14205853595E+02  0.35194487005E+01  0.20070473505E+02  0.00000000000E+00 0. -1.
</event>
<event>
 7    1  0.2438448E-008  0.4614231E+02  0.7816164E-02  0.1320468E+00
        -11   -1    0    0    0    0  0.00000000000E+00  0.00000000000E+00  0.45593999997E+02  0.45594000000E+02  0.51100000000E-03 0.  1.
         11   -1    0    0    0    0 -0.00000000000E+00 -0.00000000000E+00 -0.45593999997E+02  0.45594000000E+02  0.51100000000E-03 0. -1.
    9900012    2    1    2    0    0 -0.39967402797E+02  0.20670886028E+02  0.21060471049E+01  0.46142309308E+02  0.99999229145E+01 0.  0.
         12    1    1    2    0    0  0.39967402797E+02 -0.20670886028E+02 -0.21060471049E+01  0.45045690692E+02  0.00000000000E+00 0. -1.
         11    1    3    3    0    0 -0.24505878932E+01 -0.41375864097E+00 -0.62672990917E+00  0.25630778130E+01  0.51100000000E-03 0.  1.
        -11    1    3    3    0    0 -0.45204090040E+01  0.19183820845E+01  0.22883836342E+01  0.54176551482E+01  0.51100000000E-03 0. -1.
        -12    1    3    3    0    0 -0.32996405900E+02  0.19166262584E+02  0.44439337990E+00  0.38161576347E+02  0.00000000000E+00 0.  1.
</event>
<event>
 7    1  0.2438448E-008  0.4614232E+02  0.7816164E-02  0.1320468E+00
        -11   -1    0    0    0    0  0.00000000000E+00  0.00000000000E+00  0.45593999997E+02  0.45594000000E+02  0.51100000000E-03 0.  1.
         11   -1    0    0    0    0 -0.00000000000E+00 -0.00000000000E+00 -0.45593999997E+02  0.45594000000E+02  0.51100000000E-03 0. -1.
    9900012    2    1    2    0    0 -0.29252620363E+02  0.30009954588E+02  0.16516668379E+02  0.46142317556E+02  0.99999981324E+01 0.  0.
         12    1    1    2    0    0  0.29252620363E+02 -0.30009954588E+02 -0.16516668379E+02  0.45045682444E+02  0.00000000000E+00 0. -1.
         11    1    3    3    0    0 -0.18513371070E+02  0.14479770042E+02  0.10661202223E+02  0.25808329701E+02  0.51100000000E-03 0. -1.
        -11    1    3    3    0    0 -0.61924736397E+01  0.74343247621E+01  0.53002005751E+01  0.11032136731E+02  0.51100000000E-03 0.  1.
        -12    1    3    3    0    0 -0.45467756537E+01  0.80958597838E+01  0.55526558064E+00  0.93018511249E+01  0.00000000000E+00 0.  1.
</event>
<event>
 7    1  0.2438448E-008  0.4614232E+02  0.7816164E-02  0.1320468E+00
        -11   -1    0    0    0    0  0.00000000000E+00  0.00000000000E+00  0.45593999997E+02  0.45594000000E+02  0.51100000000E-03 0.  1.
         11   -1    0    0    0    0 -0.00000000000E+00 -0.00000000000E+00 -0.45593999997E+02  0.45594000000E+02  0.51100000000E-03 0. -1.
    9900012    2    1    2    0    0  0.43667260020E+02 -0.67652390592E+01  0.87473086193E+01  0.46142318018E+02  0.10000002340E+02 0.  0.
         12    1    1    2    0    0 -0.43667260020E+02  0.67652390592E+01 -0.87473086193E+01  0.45045681982E+02  0.00000000000E+00 0. -1.
         11    1    3    3    0    0  0.18395125448E+02 -0.36559582894E+01  0.61128034557E+01  0.19725948333E+02  0.51100000000E-03 0.  1.
        -11    1    3    3    0    0  0.19732910394E+02  0.35373643762E+00  0.15808181879E+01  0.19799289595E+02  0.51100000000E-03 0. -1.
         12    1    3    3    0    0  0.55392241776E+01 -0.34630172074E+01  0.10536869757E+01  0.66170800895E+01  0.00000000000E+00 0. -1.
</event>
<event>
 7    1  0.2438448E-008  0.4614232E+02  0.7816164E-02  0.1320468E+00
        -11   -1    0    0    0    0  0.00000000000E+00  0.00000000000E+00  0.45593999997E+02  0.45594000000E+02  0.51100000000E-03 0.  1.
         11   -1    0    0    0    0 -0.00000000000E+00 -0.00000000000E+00 -0.45593999997E+02  0.45594000000E+02  0.51100000000E-03 0. -1.
    9900012    2    1    2    0    0 -0.24887293276E+02 -0.17852294178E+02  0.33030769268E+02  0.46142317715E+02  0.99999995827E+01 0.  0.
         12    1    1    2    0    0  0.24887293276E+02  0.17852294178E+02 -0.33030769268E+02  0.45045682285E+02  0.00000000000E+00 0. -1.
         11    1    3    3    0    0 -0.12516179352E+02 -0.13411035286E+02  0.17711466475E+02  0.25499150142E+02  0.51100000000E-03 0. -1.
        -11    1    3    3    0    0 -0.60163153909E+01 -0.20795778439E+01  0.10663468917E+02  0.12418947802E+02  0.51100000000E-03 0.  1.
        -12    1    3    3    0    0 -0.63547985330E+01 -0.23616810482E+01  0.46558338764E+01  0.82242197717E+01  0.00000000000E+00 0.  1.
</event>
<event>
 7    1  0.2438448E-008  0.4614232E+02  0.7816164E-02  0.1320468E+00
        -11   -1    0    0    0    0  0.00000000000E+00  0.00000000000E+00  0.45593999997E+02  0.45594000000E+02  0.51100000000E-03 0.  1.
         11   -1    0    0    0    0 -0.00000000000E+00 -0.00000000000E+00 -0.45593999997E+02  0.45594000000E+02  0.51100000000E-03 0. -1.
    9900012    2    1    2    0    0  0.42474104637E+01  0.44171540471E+02 -0.77426111088E+01  0.46142317521E+02  0.99999978060E+01 0.  0.
         12    1    1    2    0    0 -0.42474104637E+01 -0.44171540471E+02  0.77426111088E+01  0.45045682479E+02  0.00000000000E+00 0. -1.
         11    1    3    3    0    0 -0.12410442017E+00  0.73217718537E+00 -0.41293097048E+00  0.84970441060E+00  0.51100000000E-03 0. -1.
        -11    1    3    3    0    0  0.71315661463E+01  0.35188953054E+02 -0.47422612842E+01  0.36216166211E+02  0.51100000000E-03 0.  1.
        -12    1    3    3    0    0 -0.27600512624E+01  0.82504102324E+01 -0.25874188541E+01  0.90764468985E+01  0.00000000000E+00 0.  1.
</event>
<event>
 7    1  0.2438448E-008  0.4614232E+02  0.7816164E-02  0.1320468E+00
        -11   -1    0    0    0    0  0.00000000000E+00  0.00000000000E+00  0.45593999997E+02  0.45594000000E+02  0.51100000000E-03 0.  1.
         11   -1    0    0    0    0 -0.00000000000E+00 -0.00000000000E+00 -0.45593999997E+02  0.45594000000E+02  0.51100000000E-03 0. -1.
    9900012    2    1    2    0    0  0.38320073069E+02 -0.14003890445E+02  0.19093890154E+02  0.46142316646E+02  0.99999898353E+01 0.  0.
         12    1    1    2    0    0 -0.38320073069E+02  0.14003890445E+02 -0.19093890154E+02  0.45045683354E+02  0.00000000000E+00 0. -1.
         11    1    3    3    0    0  0.30128032825E+02 -0.72100034961E+01  0.15752088111E+02  0.34753572370E+02  0.51100000000E-03 0. -1.
        -11    1    3    3    0    0  0.20746656951E+01 -0.30123823194E+01  0.15795675101E+01  0.39841835757E+01  0.51100000000E-03 0.  1.
        -12    1    3    3    0    0  0.61173745481E+01 -0.37815046299E+01  0.17622345331E+01  0.74045607012E+01  0.00000000000E+00 0.  1.
</event>
<event>
 7    1  0.2438448E-008  0.4614232E+02  0.7816164E-02  0.1320468E+00
        -11   -1    0    0    0    0  0.00000000000E+00  0.00000000000E+00  0.45593999997E+02  0.45594000000E+02  0.51100000000E-03 0.  1.
         11   -1    0    0    0    0 -0.00000000000E+00 -0.00000000000E+00 -0.45593999997E+02  0.45594000000E+02  0.51100000000E-03 0. -1.
    9900012    2    1    2    0    0  0.17625100231E+02  0.19610832985E+02  0.36522384807E+02  0.46142317404E+02  0.99999967472E+01 0.  0.
         12    1    1    2    0    0 -0.17625100231E+02 -0.19610832985E+02 -0.36522384807E+02  0.45045682596E+02  0.00000000000E+00 0. -1.
         11    1    3    3    0    0  0.94840797912E+01  0.11114193898E+02  0.16046658395E+02  0.21701804566E+02  0.51100000000E-03 0. -1.
        -11    1    3    3    0    0  0.75290273878E+01  0.93789299846E+01  0.19816031659E+02  0.23180286712E+02  0.51100000000E-03 0.  1.
         12    1    3    3    0    0  0.61199305238E+00 -0.88229089799E+00  0.65969475270E+00  0.12602261272E+01  0.00000000000E+00 0. -1.
</event>
<event>
 7    1  0.2438448E-008  0.4614232E+02  0.7816164E-02  0.1320468E+00
        -11   -1    0    0    0    0  0.00000000000E+00  0.00000000000E+00  0.45593999997E+02  0.45594000000E+02  0.51100000000E-03 0. -1.
         11   -1    0    0    0    0 -0.00000000000E+00 -0.00000000000E+00 -0.45593999997E+02  0.45594000000E+02  0.51100000000E-03 0.  1.
    9900012    2    1    2    0    0 -0.38999383354E+02 -0.22505765933E+02  0.12853450640E+01  0.46142317475E+02  0.99999973918E+01 0.  0.
         12    1    1    2    0    0  0.38999383354E+02  0.22505765933E+02 -0.12853450640E+01  0.45045682525E+02  0.00000000000E+00 0. -1.
         11    1    3    3    0    0 -0.58349165334E+01 -0.27672957086E+01  0.27097905723E+01  0.70033664546E+01  0.51100000000E-03 0. -1.
        -11    1    3    3    0    0 -0.32534367807E+02 -0.18856023353E+02 -0.33968996075E+00  0.37605187074E+02  0.51100000000E-03 0.  1.
        -12    1    3    3    0    0 -0.63009901319E+00 -0.88244687122E+00 -0.10847555476E+01  0.15337639469E+01  0.00000000000E+00 0.  1.
</event>
<event>
 7    1  0.2438448E-008  0.4614232E+02  0.7816164E-02  0.1320468E+00
        -11   -1    0    0    0    0  0.00000000000E+00  0.00000000000E+00  0.45593999997E+02  0.45594000000E+02  0.51100000000E-03 0. -1.
         11   -1    0    0    0    0 -0.00000000000E+00 -0.00000000000E+00 -0.45593999997E+02  0.45594000000E+02  0.51100000000E-03 0.  1.
    9900012    2    1    2    0    0  0.41144970818E+02 -0.16147451666E+02 -0.86870354129E+01  0.46142318707E+02  0.10000008623E+02 0.  0.
         12    1    1    2    0    0 -0.41144970818E+02  0.16147451666E+02  0.86870354129E+01  0.45045681293E+02  0.00000000000E+00 0. -1.
         11    1    3    3    0    0  0.31148672654E+02 -0.14695591595E+02 -0.70443504649E+01  0.35154275617E+02  0.51100000000E-03 0. -1.
        -11    1    3    3    0    0  0.69607683745E+01 -0.17651763624E+01 -0.28230352512E+01  0.77160658527E+01  0.51100000000E-03 0.  1.
         12    1    3    3    0    0  0.30355297897E+01  0.31331629131E+00  0.11803503032E+01  0.32719772372E+01  0.00000000000E+00 0. -1.
</event>
<event>
 7    1  0.2438448E-008  0.4614232E+02  0.7816164E-02  0.1320468E+00
        -11   -1    0    0    0    0  0.00000000000E+00  0.00000000000E+00  0.45593999997E+02  0.45594000000E+02  0.51100000000E-03 0.  1.
         11   -1    0    0    0    0 -0.00000000000E+00 -0.00000000000E+00 -0.45593999997E+02  0.45594000000E+02  0.51100000000E-03 0. -1.
    9900012    2    1    2    0    0  0.13622827062E+02  0.20459593760E+02  0.37748340658E+02  0.46142316339E+02  0.99999870360E+01 0.  0.
         12    1    1    2    0    0 -0.13622827062E+02 -0.20459593760E+02 -0.37748340658E+02  0.45045683661E+02  0.00000000000E+00 0. -1.
         11    1    3    3    0    0  0.10990672063E+01  0.29300455336E+01  0.31255121957E+01  0.44228884567E+01  0.51100000000E-03 0. -1.
        -11    1    3    3    0    0  0.56674161495E+01  0.95300522186E+01  0.25409964895E+02  0.27723777111E+02  0.51100000000E-03 0.  1.
         12    1    3    3    0    0  0.68563437061E+01  0.79994960082E+01  0.92128635677E+01  0.13995650772E+02  0.00000000000E+00 0. -1.
</event>
<event>
 7    1  0.2438448E-008  0.4614232E+02  0.7816164E-02  0.1320468E+00
        -11   -1    0    0    0    0  0.00000000000E+00  0.00000000000E+00  0.45593999997E+02  0.45594000000E+02  0.51100000000E-03 0.  1.
         11   -1    0    0    0    0 -0.00000000000E+00 -0.00000000000E+00 -0.45593999997E+02  0.45594000000E+02  0.51100000000E-03 0. -1.
    9900012    2    1    2    0    0  0.41987293529E+02 -0.53061940316E+01  0.15428056198E+02  0.46142318398E+02  0.10000005805E+02 0.  0.
         12    1    1    2    0    0 -0.41987293529E+02  0.53061940316E+01 -0.15428056198E+02  0.45045681602E+02  0.00000000000E+00 0. -1.
         11    1    3    3    0    0  0.48572280876E+01 -0.34083599809E+00  0.40983148606E+01  0.63643553350E+01  0.51100000000E-03 0. -1.
        -11    1    3    3    0    0  0.19825345481E+02 -0.39725036319E+00  0.88309330211E+01  0.21706853977E+02  0.51100000000E-03 0.  1.
         12    1    3    3    0    0  0.17304719960E+02 -0.45681076703E+01  0.24988083162E+01  0.18071109086E+02  0.00000000000E+00 0. -1.
</event>
<event>
 7    1  0.2438448E-008  0.4614232E+02  0.7816164E-02  0.1320468E+00
        -11   -1    0    0    0    0  0.00000000000E+00  0.00000000000E+00  0.45593999997E+02  0.45594000000E+02  0.51100000000E-03 0.  1.
         11   -1    0    0    0    0 -0.00000000000E+00 -0.00000000000E+00 -0.45593999997E+02  0.45594000000E+02  0.51100000000E-03 0. -1.
    9900012    2    1    2    0    0  0.39086302446E+02 -0.19645396352E+02  0.10743962962E+02  0.46142318999E+02  0.10000011284E+02 0.  0.
         12    1    1    2    0    0 -0.39086302446E+02  0.19645396352E+02 -0.10743962962E+02  0.45045681001E+02  0.00000000000E+00 0. -1.
         11    1    3    3    0    0  0.48920690925E+01 -0.16262730821E+01 -0.33083285321E+00  0.51659030945E+01  0.51100000000E-03 0. -1.
        -11    1    3    3    0    0  0.26300200304E+02 -0.10220589077E+02  0.94776944969E+01  0.29765545020E+02  0.51100000000E-03 0.  1.
        -12    1    3    3    0    0  0.78940330497E+01 -0.77985341937E+01  0.15971013186E+01  0.11210870884E+02  0.00000000000E+00 0.  1.
</event>
<event>
 7    1  0.2438448E-008  0.4614232E+02  0.7816164E-02  0.1320468E+00
        -11   -1    0    0    0    0  0.00000000000E+00  0.00000000000E+00  0.45593999997E+02  0.45594000000E+02  0.51100000000E-03 0. -1.
         11   -1    0    0    0    0 -0.00000000000E+00 -0.00000000000E+00 -0.45593999997E+02  0.45594000000E+02  0.51100000000E-03 0.  1.
    9900012    2    1    2    0    0 -0.35101698963E+01 -0.10679742930E+02 -0.43620351501E+02  0.46142320220E+02  0.10000022421E+02 0.  0.
         12    1    1    2    0    0  0.35101698963E+01  0.10679742930E+02  0.43620351501E+02  0.45045679780E+02  0.00000000000E+00 0. -1.
         11    1    3    3    0    0 -0.11097787444E+01 -0.28680570647E+01 -0.11090341766E+02  0.11508824481E+02  0.51100000000E-03 0.  1.
        -11    1    3    3    0    0 -0.29046799080E+01  0.38665395723E+00 -0.40918146415E+01  0.50328534622E+01  0.51100000000E-03 0. -1.
         12    1    3    3    0    0  0.50428875607E+00 -0.81983398228E+01 -0.28438195094E+02  0.29600642277E+02  0.00000000000E+00 0. -1.
</event>
<event>
 7    1  0.2438448E-008  0.4614232E+02  0.7816164E-02  0.1320468E+00
        -11   -1    0    0    0    0  0.00000000000E+00  0.00000000000E+00  0.45593999997E+02  0.45594000000E+02  0.51100000000E-03 0.  1.
         11   -1    0    0    0    0 -0.00000000000E+00 -0.00000000000E+00 -0.45593999997E+02  0.45594000000E+02  0.51100000000E-03 0. -1.
    9900012    2    1    2    0    0  0.26513817745E+02  0.10616633636E+02  0.34834150653E+02  0.46142317711E+02  0.99999995391E+01 0.  0.
         12    1    1    2    0    0 -0.26513817745E+02 -0.10616633636E+02 -0.34834150653E+02  0.45045682289E+02  0.00000000000E+00 0. -1.
         11    1    3    3    0    0  0.32769842633E+00  0.12148652583E+01 -0.58079408063E-01  0.12596258703E+01  0.51100000000E-03 0. -1.
        -11    1    3    3    0    0  0.15216334183E+02  0.78765498785E+01  0.22044430194E+02  0.27920131926E+02  0.51100000000E-03 0.  1.
        -12    1    3    3    0    0  0.10969785136E+02  0.15252184997E+01  0.12847799867E+02  0.16962559914E+02  0.00000000000E+00 0.  1.
</event>
<event>
 7    1  0.2438448E-008  0.4614232E+02  0.7816164E-02  0.1320468E+00
        -11   -1    0    0    0    0  0.00000000000E+00  0.00000000000E+00  0.45593999997E+02  0.45594000000E+02  0.51100000000E-03 0. -1.
         11   -1    0    0    0    0 -0.00000000000E+00 -0.00000000000E+00 -0.45593999997E+02  0.45594000000E+02  0.51100000000E-03 0.  1.
    9900012    2    1    2    0    0  0.23425269706E+02 -0.38377920646E+02  0.27396031813E+01  0.46142317860E+02  0.10000000901E+02 0.  0.
         12    1    1    2    0    0 -0.23425269706E+02  0.38377920646E+02 -0.27396031813E+01  0.45045682140E+02  0.00000000000E+00 0. -1.
         11    1    3    3    0    0  0.60831280421E+01 -0.69004009605E+01  0.21092059271E+01  0.94376231168E+01  0.51100000000E-03 0. -1.
        -11    1    3    3    0    0  0.13902971937E+02 -0.17876075936E+02  0.10295121721E+01  0.22669508488E+02  0.51100000000E-03 0.  1.
        -12    1    3    3    0    0  0.34391697269E+01 -0.13601443750E+02 -0.39911491789E+00  0.14035186255E+02  0.00000000000E+00 0.  1.
</event>
<event>
 7    1  0.2438448E-008  0.4614232E+02  0.7816164E-02  0.1320468E+00
        -11   -1    0    0    0    0  0.00000000000E+00  0.00000000000E+00  0.45593999997E+02  0.45594000000E+02  0.51100000000E-03 0.  1.
         11   -1    0    0    0    0 -0.00000000000E+00 -0.00000000000E+00 -0.45593999997E+02  0.45594000000E+02  0.51100000000E-03 0. -1.
    9900012    2    1    2    0    0  0.33645842288E+02 -0.29017901801E+02  0.74183613114E+01  0.46142318601E+02  0.10000007656E+02 0.  0.
         12    1    1    2    0    0 -0.33645842288E+02  0.29017901801E+02 -0.74183613114E+01  0.45045681399E+02  0.00000000000E+00 0. -1.
         11    1    3    3    0    0  0.73156427709E+00 -0.14914999010E+01  0.75634146819E+00  0.18253248818E+01  0.51100000000E-03 0. -1.
        -11    1    3    3    0    0  0.48134614956E+01 -0.67759517244E+00  0.16317005952E+01  0.51274744155E+01  0.51100000000E-03 0.  1.
        -12    1    3    3    0    0  0.28100816515E+02 -0.26848806727E+02  0.50303192479E+01  0.39189519303E+02  0.00000000000E+00 0.  1.
</event>
<event>
 7    1  0.2438448E-008  0.4614232E+02  0.7816164E-02  0.1320468E+00
        -11   -1    0    0    0    0  0.00000000000E+00  0.00000000000E+00  0.45593999997E+02  0.45594000000E+02  0.51100000000E-03 0. -1.
         11   -1    0    0    0    0 -0.00000000000E+00 -0.00000000000E+00 -0.45593999997E+02  0.45594000000E+02  0.51100000000E-03 0.  1.
    9900012    2    1    2    0    0 -0.25727943468E+02 -0.36052158867E+02 -0.82114682218E+01  0.46142318249E+02  0.10000004448E+02 0.  0.
         12    1    1    2    0    0  0.25727943468E+02  0.36052158867E+02  0.82114682218E+01  0.45045681751E+02  0.00000000000E+00 0. -1.
         11    1    3    3    0    0 -0.13135439686E+02 -0.12945516130E+02 -0.66970800178E+00  0.18454665337E+02  0.51100000000E-03 0. -1.
        -11    1    3    3    0    0 -0.12317854126E+02 -0.23247252900E+02 -0.75736865002E+01  0.27377454687E+02  0.51100000000E-03 0.  1.
         12    1    3    3    0    0 -0.27464965658E+00  0.14061016326E+00  0.31926280177E-01  0.31019822571E+00  0.00000000000E+00 0. -1.
</event>
<event>
 7    1  0.2438448E-008  0.4614232E+02  0.7816164E-02  0.1320468E+00
        -11   -1    0    0    0    0  0.00000000000E+00  0.00000000000E+00  0.45593999997E+02  0.45594000000E+02  0.51100000000E-03 0.  1.
         11   -1    0    0    0    0 -0.00000000000E+00 -0.00000000000E+00 -0.45593999997E+02  0.45594000000E+02  0.51100000000E-03 0. -1.
    9900012    2    1    2    0    0 -0.42775572223E+02 -0.29853867015E+01  0.13800409401E+02  0.46142318604E+02  0.10000007685E+02 0.  0.
         12    1    1    2    0    0  0.42775572223E+02  0.29853867015E+01 -0.13800409401E+02  0.45045681396E+02  0.00000000000E+00 0. -1.
         11    1    3    3    0    0 -0.23036408708E+02  0.76922500897E+00  0.29681747775E+01  0.23239576051E+02  0.51100000000E-03 0.  1.
        -11    1    3    3    0    0 -0.63581358954E+01 -0.85541818077E+00  0.43731240889E+01  0.77641385154E+01  0.51100000000E-03 0. -1.
        -12    1    3    3    0    0 -0.13381027620E+02 -0.28991935297E+01  0.64591105349E+01  0.15138604037E+02  0.00000000000E+00 0.  1.
</event>
<event>
 7    1  0.2438448E-008  0.4614232E+02  0.7816164E-02  0.1320468E+00
        -11   -1    0    0    0    0  0.00000000000E+00  0.00000000000E+00  0.45593999997E+02  0.45594000000E+02  0.51100000000E-03 0.  1.
         11   -1    0    0    0    0 -0.00000000000E+00 -0.00000000000E+00 -0.45593999997E+02  0.45594000000E+02  0.51100000000E-03 0. -1.
    9900012    2    1    2    0    0 -0.39370124857E+02  0.58292313453E+01  0.21098027350E+02  0.46142318438E+02  0.10000006171E+02 0.  0.
         12    1    1    2    0    0  0.39370124857E+02 -0.58292313453E+01 -0.21098027350E+02  0.45045681562E+02  0.00000000000E+00 0. -1.
         11    1    3    3    0    0 -0.54697336779E+01  0.84310333892E+00  0.61030172901E+01  0.82386667642E+01  0.51100000000E-03 0. -1.
        -11    1    3    3    0    0  0.30918227338E-01 -0.27361018944E+00  0.62204202321E+00  0.68026098838E+00  0.51100000000E-03 0.  1.
        -12    1    3    3    0    0 -0.33931309406E+02  0.52597381958E+01  0.14372968037E+02  0.37223390685E+02  0.00000000000E+00 0.  1.
</event>
<event>
 7    1  0.2438448E-008  0.4614232E+02  0.7816164E-02  0.1320468E+00
        -11   -1    0    0    0    0  0.00000000000E+00  0.00000000000E+00  0.45593999997E+02  0.45594000000E+02  0.51100000000E-03 0.  1.
         11   -1    0    0    0    0 -0.00000000000E+00 -0.00000000000E+00 -0.45593999997E+02  0.45594000000E+02  0.51100000000E-03 0. -1.
    9900012    2    1    2    0    0  0.10800231151E+02 -0.15077030954E+01  0.43705781367E+02  0.46142317782E+02  0.10000000195E+02 0.  0.
         12    1    1    2    0    0 -0.10800231151E+02  0.15077030954E+01 -0.43705781367E+02  0.45045682218E+02  0.00000000000E+00 0. -1.
         11    1    3    3    0    0  0.81163483855E-01  0.20020636316E+01  0.43228087825E+01  0.47646114561E+01  0.51100000000E-03 0. -1.
        -11    1    3    3    0    0  0.88816999011E+01 -0.21014493537E+01  0.36774206103E+02  0.37889878824E+02  0.51100000000E-03 0.  1.
        -12    1    3    3    0    0  0.18373677662E+01 -0.14083173733E+01  0.26087664815E+01  0.34878275025E+01  0.00000000000E+00 0.  1.
</event>
<event>
 7    1  0.2438448E-008  0.4614232E+02  0.7816164E-02  0.1320468E+00
        -11   -1    0    0    0    0  0.00000000000E+00  0.00000000000E+00  0.45593999997E+02  0.45594000000E+02  0.51100000000E-03 0. -1.
         11   -1    0    0    0    0 -0.00000000000E+00 -0.00000000000E+00 -0.45593999997E+02  0.45594000000E+02  0.51100000000E-03 0.  1.
    9900012    2    1    2    0    0  0.11492707988E+02  0.19461297660E+02 -0.38965229282E+02  0.46142317227E+02  0.99999951297E+01 0.  0.
         12    1    1    2    0    0 -0.11492707988E+02 -0.19461297660E+02  0.38965229282E+02  0.45045682773E+02  0.00000000000E+00 0. -1.
         11    1    3    3    0    0  0.62735885958E+01  0.49751786100E+01 -0.10944232376E+02  0.13560477080E+02  0.51100000000E-03 0.  1.
        -11    1    3    3    0    0  0.22748986036E+01  0.52317727614E+00 -0.33945890567E+01  0.41197224717E+01  0.51100000000E-03 0. -1.
        -12    1    3    3    0    0  0.29442207890E+01  0.13962941774E+02 -0.24626407849E+02  0.28462117676E+02  0.00000000000E+00 0.  1.
</event>
<event>
 7    1  0.2438448E-008  0.4614232E+02  0.7816164E-02  0.1320468E+00
        -11   -1    0    0    0    0  0.00000000000E+00  0.00000000000E+00  0.45593999997E+02  0.45594000000E+02  0.51100000000E-03 0.  1.
         11   -1    0    0    0    0 -0.00000000000E+00 -0.00000000000E+00 -0.45593999997E+02  0.45594000000E+02  0.51100000000E-03 0. -1.
    9900012    2    1    2    0    0 -0.40563826230E+02 -0.15112249703E+02  0.12462318857E+02  0.46142317846E+02  0.10000000771E+02 0.  0.
         12    1    1    2    0    0  0.40563826230E+02  0.15112249703E+02 -0.12462318857E+02  0.45045682154E+02  0.00000000000E+00 0. -1.
         11    1    3    3    0    0 -0.24007339335E+01 -0.18443770016E+01 -0.99956862196E+00  0.31881636775E+01  0.51100000000E-03 0. -1.
        -11    1    3    3    0    0 -0.28040484441E+02 -0.11323339382E+02  0.79625660813E+01  0.31271220656E+02  0.51100000000E-03 0.  1.
         12    1    3    3    0    0 -0.10122607855E+02 -0.19445333188E+01  0.54993213976E+01  0.11682933512E+02  0.00000000000E+00 0. -1.
</event>
<event>
 7    1  0.2438448E-008  0.4614232E+02  0.7816164E-02  0.1320468E+00
        -11   -1    0    0    0    0  0.00000000000E+00  0.00000000000E+00  0.45593999997E+02  0.45594000000E+02  0.51100000000E-03 0.  1.
         11   -1    0    0    0    0 -0.00000000000E+00 -0.00000000000E+00 -0.45593999997E+02  0.45594000000E+02  0.51100000000E-03 0. -1.
    9900012    2    1    2    0    0  0.28418703108E+02  0.19665549925E+02  0.28892160270E+02  0.46142318017E+02  0.10000002336E+02 0.  0.
         12    1    1    2    0    0 -0.28418703108E+02 -0.19665549925E+02 -0.28892160270E+02  0.45045681983E+02  0.00000000000E+00 0. -1.
         11    1    3    3    0    0 -0.78647107897E+00  0.50802093183E+00  0.87052025124E+00  0.12784474155E+01  0.51100000000E-03 0. -1.
        -11    1    3    3    0    0  0.14264106825E+02  0.11001815100E+02  0.14512304133E+02  0.23132480423E+02  0.51100000000E-03 0.  1.
         12    1    3    3    0    0  0.14941067361E+02  0.81557138938E+01  0.13509335886E+02  0.21731390179E+02  0.00000000000E+00 0. -1.
</event>
<event>
 7    1  0.2438448E-008  0.4614232E+02  0.7816164E-02  0.1320468E+00
        -11   -1    0    0    0    0  0.00000000000E+00  0.00000000000E+00  0.45593999997E+02  0.45594000000E+02  0.51100000000E-03 0.  1.
         11   -1    0    0    0    0 -0.00000000000E+00 -0.00000000000E+00 -0.45593999997E+02  0.45594000000E+02  0.51100000000E-03 0. -1.
    9900012    2    1    2    0    0  0.36781316088E+02 -0.24729350691E+02 -0.80440993967E+01  0.46142317256E+02  0.99999953919E+01 0.  0.
         12    1    1    2    0    0 -0.36781316088E+02  0.24729350691E+02  0.80440993967E+01  0.45045682744E+02  0.00000000000E+00 0. -1.
         11    1    3    3    0    0  0.43848900395E+01 -0.64552634926E+01 -0.47836858938E+00  0.78183453612E+01  0.51100000000E-03 0. -1.
        -11    1    3    3    0    0  0.25660042815E+01 -0.16588661654E+00  0.18204518901E+00  0.25777969381E+01  0.51100000000E-03 0.  1.
        -12    1    3    3    0    0  0.29830421767E+02 -0.18108200582E+02 -0.77477759963E+01  0.35746174956E+02  0.00000000000E+00 0.  1.
</event>
<event>
 7    1  0.2438448E-008  0.4614232E+02  0.7816164E-02  0.1320468E+00
        -11   -1    0    0    0    0  0.00000000000E+00  0.00000000000E+00  0.45593999997E+02  0.45594000000E+02  0.51100000000E-03 0.  1.
         11   -1    0    0    0    0 -0.00000000000E+00 -0.00000000000E+00 -0.45593999997E+02  0.45594000000E+02  0.51100000000E-03 0. -1.
    9900012    2    1    2    0    0  0.25922376905E+02  0.14378656432E+02  0.33917519637E+02  0.46142317371E+02  0.99999964434E+01 0.  0.
         12    1    1    2    0    0 -0.25922376905E+02 -0.14378656432E+02 -0.33917519637E+02  0.45045682629E+02  0.00000000000E+00 0. -1.
         11    1    3    3    0    0  0.17057601352E+02  0.95058940994E+01  0.21032262258E+02  0.28699823039E+02  0.51100000000E-03 0. -1.
        -11    1    3    3    0    0  0.61623681548E+01  0.14209297875E+01  0.10961809954E+02  0.12655240040E+02  0.51100000000E-03 0.  1.
         12    1    3    3    0    0  0.27024073984E+01  0.34518325449E+01  0.19234474247E+01  0.47872542925E+01  0.00000000000E+00 0. -1.
</event>
<event>
 7    1  0.2438448E-008  0.4614232E+02  0.7816164E-02  0.1320468E+00
        -11   -1    0    0    0    0  0.00000000000E+00  0.00000000000E+00  0.45593999997E+02  0.45594000000E+02  0.51100000000E-03 0.  1.
         11   -1    0    0    0    0 -0.00000000000E+00 -0.00000000000E+00 -0.45593999997E+02  0.45594000000E+02  0.51100000000E-03 0. -1.
    9900012    2    1    2    0    0 -0.30212545224E+02 -0.10415123707E+02  0.31746508373E+02  0.46142317803E+02  0.10000000378E+02 0.  0.
         12    1    1    2    0    0  0.30212545224E+02  0.10415123707E+02 -0.31746508373E+02  0.45045682197E+02  0.00000000000E+00 0. -1.
         11    1    3    3    0    0 -0.15612820234E+02 -0.94967303226E+01  0.15830747267E+02  0.24177688099E+02  0.51100000000E-03 0. -1.
        -11    1    3    3    0    0 -0.49048033476E+01 -0.54275986483E-01  0.81529231196E+01  0.95147358039E+01  0.51100000000E-03 0.  1.
         12    1    3    3    0    0 -0.96949216421E+01 -0.86411739779E+00  0.77628379863E+01  0.12449893900E+02  0.00000000000E+00 0. -1.
</event>
<event>
 7    1  0.2438448E-008  0.4614232E+02  0.7816164E-02  0.1320468E+00
        -11   -1    0    0    0    0  0.00000000000E+00  0.00000000000E+00  0.45593999997E+02  0.45594000000E+02  0.51100000000E-03 0.  1.
         11   -1    0    0    0    0 -0.00000000000E+00 -0.00000000000E+00 -0.45593999997E+02  0.45594000000E+02  0.51100000000E-03 0. -1.
    9900012    2    1    2    0    0  0.12534320289E+02  0.40235021440E+02  0.15910606458E+02  0.46142317263E+02  0.99999954540E+01 0.  0.
         12    1    1    2    0    0 -0.12534320289E+02 -0.40235021440E+02 -0.15910606458E+02  0.45045682737E+02  0.00000000000E+00 0. -1.
         11    1    3    3    0    0 -0.25943447261E+00  0.76574358422E+01  0.28370750992E+01  0.81702279835E+01  0.51100000000E-03 0. -1.
        -11    1    3    3    0    0  0.90691064502E+01  0.29251487325E+02  0.10674633721E+02  0.32432175503E+02  0.51100000000E-03 0.  1.
         12    1    3    3    0    0  0.37246483115E+01  0.33260982730E+01  0.23988976377E+01  0.55399137757E+01  0.00000000000E+00 0. -1.
</event>
<event>
 7    1  0.2438448E-008  0.4614232E+02  0.7816164E-02  0.1320468E+00
        -11   -1    0    0    0    0  0.00000000000E+00  0.00000000000E+00  0.45593999997E+02  0.45594000000E+02  0.51100000000E-03 0. -1.
         11   -1    0    0    0    0 -0.00000000000E+00 -0.00000000000E+00 -0.45593999997E+02  0.45594000000E+02  0.51100000000E-03 0.  1.
    9900012    2    1    2    0    0 -0.28931690699E+02 -0.17835572200E+02 -0.29562869323E+02  0.46142316466E+02  0.99999881925E+01 0.  0.
         12    1    1    2    0    0  0.28931690699E+02  0.17835572200E+02  0.29562869323E+02  0.45045683534E+02  0.00000000000E+00 0. -1.
         11    1    3    3    0    0  0.68746249574E+00 -0.10933523691E+01 -0.12902894968E+01  0.18256153298E+01  0.51100000000E-03 0. -1.
        -11    1    3    3    0    0 -0.12332542888E+02 -0.84575875689E+01 -0.12700067738E+02  0.19619228384E+02  0.51100000000E-03 0.  1.
        -12    1    3    3    0    0 -0.17286610307E+02 -0.82846322623E+01 -0.15572512088E+02  0.24697472752E+02  0.00000000000E+00 0.  1.
</event>
<event>
 7    1  0.2438448E-008  0.4614232E+02  0.7816164E-02  0.1320468E+00
        -11   -1    0    0    0    0  0.00000000000E+00  0.00000000000E+00  0.45593999997E+02  0.45594000000E+02  0.51100000000E-03 0. -1.
         11   -1    0    0    0    0 -0.00000000000E+00 -0.00000000000E+00 -0.45593999997E+02  0.45594000000E+02  0.51100000000E-03 0.  1.
    9900012    2    1    2    0    0 -0.17484616604E+02  0.41503589194E+02 -0.92393170513E+00  0.46142318924E+02  0.10000010603E+02 0.  0.
         12    1    1    2    0    0  0.17484616604E+02 -0.41503589194E+02  0.92393170513E+00  0.45045681076E+02  0.00000000000E+00 0. -1.
         11    1    3    3    0    0 -0.29351362795E+01  0.17751119184E+01 -0.48813437455E+00  0.34647254914E+01  0.51100000000E-03 0. -1.
        -11    1    3    3    0    0 -0.66648747965E-01  0.38911389265E+01  0.92632280363E+00  0.40004347762E+01  0.51100000000E-03 0.  1.
        -12    1    3    3    0    0 -0.14482831577E+02  0.35837338349E+02 -0.13621201342E+01  0.38677158656E+02  0.00000000000E+00 0.  1.
</event>
<event>
 7    1  0.2438448E-008  0.4614232E+02  0.7816164E-02  0.1320468E+00
        -11   -1    0    0    0    0  0.00000000000E+00  0.00000000000E+00  0.45593999997E+02  0.45594000000E+02  0.51100000000E-03 0.  1.
         11   -1    0    0    0    0 -0.00000000000E+00 -0.00000000000E+00 -0.45593999997E+02  0.45594000000E+02  0.51100000000E-03 0. -1.
    9900012    2    1    2    0    0 -0.16153619355E+02  0.11343049245E+02  0.40490856870E+02  0.46142315695E+02  0.99999811578E+01 0.  0.
         12    1    1    2    0    0  0.16153619355E+02 -0.11343049245E+02 -0.40490856870E+02  0.45045684305E+02  0.00000000000E+00 0. -1.
         11    1    3    3    0    0 -0.12176287445E+00 -0.34603443039E+00 -0.35927264198E+00  0.51346189440E+00  0.51100000000E-03 0. -1.
        -11    1    3    3    0    0 -0.64489618149E+00  0.19635042976E+01  0.32015525459E+01  0.38106665004E+01  0.51100000000E-03 0.  1.
        -12    1    3    3    0    0 -0.15386960299E+02  0.97255793779E+01  0.37648576966E+02  0.41818187300E+02  0.00000000000E+00 0.  1.
</event>
<event>
 7    1  0.2438448E-008  0.4614232E+02  0.7816164E-02  0.1320468E+00
        -11   -1    0    0    0    0  0.00000000000E+00  0.00000000000E+00  0.45593999997E+02  0.45594000000E+02  0.51100000000E-03 0.  1.
         11   -1    0    0    0    0 -0.00000000000E+00 -0.00000000000E+00 -0.45593999997E+02  0.45594000000E+02  0.51100000000E-03 0. -1.
    9900012    2    1    2    0    0  0.19565238529E+02 -0.38113930296E+02  0.13915575015E+02  0.46142317973E+02  0.10000001928E+02 0.  0.
         12    1    1    2    0    0 -0.19565238529E+02  0.38113930296E+02 -0.13915575015E+02  0.45045682027E+02  0.00000000000E+00 0. -1.
         11    1    3    3    0    0  0.53219614409E+01 -0.50112611121E+01  0.40484388175E+01  0.83561874460E+01  0.51100000000E-03 0. -1.
        -11    1    3    3    0    0  0.26985719481E+01 -0.96996456495E+01  0.49971606757E+01  0.11239974705E+02  0.51100000000E-03 0.  1.
        -12    1    3    3    0    0  0.11544705140E+02 -0.23403023535E+02  0.48699755219E+01  0.26546155822E+02  0.00000000000E+00 0.  1.
</event>
<event>
 7    1  0.2438448E-008  0.4614232E+02  0.7816164E-02  0.1320468E+00
        -11   -1    0    0    0    0  0.00000000000E+00  0.00000000000E+00  0.45593999997E+02  0.45594000000E+02  0.51100000000E-03 0.  1.
         11   -1    0    0    0    0 -0.00000000000E+00 -0.00000000000E+00 -0.45593999997E+02  0.45594000000E+02  0.51100000000E-03 0. -1.
    9900012    2    1    2    0    0  0.52356507074E+01  0.44546740353E+02  0.41580316451E+01  0.46142319390E+02  0.10000014858E+02 0.  0.
         12    1    1    2    0    0 -0.52356507074E+01 -0.44546740353E+02 -0.41580316451E+01  0.45045680610E+02  0.00000000000E+00 0. -1.
         11    1    3    3    0    0  0.88678467836E+00  0.93099283281E+01  0.23625554568E+01  0.96458706754E+01  0.51100000000E-03 0. -1.
        -11    1    3    3    0    0  0.40052309009E+01  0.18885613425E+02  0.47391727471E+01  0.19878833658E+02  0.51100000000E-03 0.  1.
         12    1    3    3    0    0  0.34363512816E+00  0.16351198600E+02 -0.29436965588E+01  0.16617615057E+02  0.00000000000E+00 0. -1.
</event>
<event>
 7    1  0.2438448E-008  0.4614232E+02  0.7816164E-02  0.1320468E+00
        -11   -1    0    0    0    0  0.00000000000E+00  0.00000000000E+00  0.45593999997E+02  0.45594000000E+02  0.51100000000E-03 0.  1.
         11   -1    0    0    0    0 -0.00000000000E+00 -0.00000000000E+00 -0.45593999997E+02  0.45594000000E+02  0.51100000000E-03 0. -1.
    9900012    2    1    2    0    0 -0.32259017397E+02 -0.31003922063E+02  0.52178673933E+01  0.46142317334E+02  0.99999961092E+01 0.  0.
         12    1    1    2    0    0  0.32259017397E+02  0.31003922063E+02 -0.52178673933E+01  0.45045682666E+02  0.00000000000E+00 0. -1.
         11    1    3    3    0    0 -0.20372510330E+02 -0.18764848994E+02  0.20682126234E+01  0.27774741018E+02  0.51100000000E-03 0. -1.
        -11    1    3    3    0    0 -0.57183436985E+01 -0.19565089913E+01  0.17706276418E+01  0.62978174469E+01  0.51100000000E-03 0.  1.
        -12    1    3    3    0    0 -0.61681633682E+01 -0.10282564077E+02  0.13790271280E+01  0.12069758869E+02  0.00000000000E+00 0.  1.
</event>
<event>
 7    1  0.2438448E-008  0.4614232E+02  0.7816164E-02  0.1320468E+00
        -11   -1    0    0    0    0  0.00000000000E+00  0.00000000000E+00  0.45593999997E+02  0.45594000000E+02  0.51100000000E-03 0. -1.
         11   -1    0    0    0    0 -0.00000000000E+00 -0.00000000000E+00 -0.45593999997E+02  0.45594000000E+02  0.51100000000E-03 0.  1.
    9900012    2    1    2    0    0 -0.36326575547E+02 -0.48975069456E+01 -0.26182203342E+02  0.46142318330E+02  0.10000005188E+02 0.  0.
         12    1    1    2    0    0  0.36326575547E+02  0.48975069456E+01  0.26182203342E+02  0.45045681670E+02  0.00000000000E+00 0. -1.
         11    1    3    3    0    0 -0.50562233891E+01 -0.26620491495E+01 -0.46176291219E+01  0.73467271355E+01  0.51100000000E-03 0. -1.
        -11    1    3    3    0    0 -0.56318638397E+01  0.23363471368E+01 -0.28791307153E+01  0.67428333948E+01  0.51100000000E-03 0.  1.
        -12    1    3    3    0    0 -0.25638488318E+02 -0.45718049329E+01 -0.18685443505E+02  0.32052757800E+02  0.00000000000E+00 0.  1.
</event>
<event>
 7    1  0.2438448E-008  0.4614232E+02  0.7816164E-02  0.1320468E+00
        -11   -1    0    0    0    0  0.00000000000E+00  0.00000000000E+00  0.45593999997E+02  0.45594000000E+02  0.51100000000E-03 0.  1.
         11   -1    0    0    0    0 -0.00000000000E+00 -0.00000000000E+00 -0.45593999997E+02  0.45594000000E+02  0.51100000000E-03 0. -1.
    9900012    2    1    2    0    0 -0.59517471151E+01  0.11806824887E+02  0.43061457177E+02  0.46142317611E+02  0.99999986322E+01 0.  0.
         12    1    1    2    0    0  0.59517471151E+01 -0.11806824887E+02 -0.43061457177E+02  0.45045682389E+02  0.00000000000E+00 0. -1.
         11    1    3    3    0    0 -0.14013078888E+01  0.37675172549E+00  0.44822556580E+01  0.47112866296E+01  0.51100000000E-03 0. -1.
        -11    1    3    3    0    0 -0.71511335561E+01  0.72875768548E+01  0.26532263834E+02  0.28429008283E+02  0.51100000000E-03 0.  1.
        -12    1    3    3    0    0  0.26006943297E+01  0.41424963068E+01  0.12046937686E+02  0.13002022699E+02  0.00000000000E+00 0.  1.
</event>
<event>
 7    1  0.2438448E-008  0.4614232E+02  0.7816164E-02  0.1320468E+00
        -11   -1    0    0    0    0  0.00000000000E+00  0.00000000000E+00  0.45593999997E+02  0.45594000000E+02  0.51100000000E-03 0. -1.
         11   -1    0    0    0    0 -0.00000000000E+00 -0.00000000000E+00 -0.45593999997E+02  0.45594000000E+02  0.51100000000E-03 0.  1.
    9900012    2    1    2    0    0 -0.37249808835E+02 -0.64710451232E+01 -0.24488584815E+02  0.46142317971E+02  0.10000001911E+02 0.  0.
         12    1    1    2    0    0  0.37249808835E+02  0.64710451232E+01  0.24488584815E+02  0.45045682029E+02  0.00000000000E+00 0. -1.
         11    1    3    3    0    0 -0.37774117422E+01 -0.80794796963E+00 -0.36745343791E+01  0.53313996807E+01  0.51100000000E-03 0. -1.
        -11    1    3    3    0    0 -0.31889749284E+02 -0.30557957188E+01 -0.19367806770E+02  0.37435356766E+02  0.51100000000E-03 0.  1.
        -12    1    3    3    0    0 -0.15826478086E+01 -0.26073014347E+01 -0.14462436660E+01  0.33755615235E+01  0.00000000000E+00 0.  1.
</event>
<event>
 7    1  0.2438448E-008  0.4614232E+02  0.7816164E-02  0.1320468E+00
        -11   -1    0    0    0    0  0.00000000000E+00  0.00000000000E+00  0.45593999997E+02  0.45594000000E+02  0.51100000000E-03 0. -1.
         11   -1    0    0    0    0 -0.00000000000E+00 -0.00000000000E+00 -0.45593999997E+02  0.45594000000E+02  0.51100000000E-03 0.  1.
    9900012    2    1    2    0    0 -0.37433425042E+02 -0.24045796100E+02  0.70464086490E+01  0.46142317684E+02  0.99999993008E+01 0.  0.
         12    1    1    2    0    0  0.37433425042E+02  0.24045796100E+02 -0.70464086490E+01  0.45045682316E+02  0.00000000000E+00 0. -1.
         11    1    3    3    0    0 -0.21914870091E+02 -0.14623641372E+02  0.81743400828E+01  0.27585000528E+02  0.51100000000E-03 0.  1.
        -11    1    3    3    0    0 -0.22314146176E+01 -0.58108186575E+00 -0.11957814619E+01  0.25974527707E+01  0.51100000000E-03 0. -1.
         12    1    3    3    0    0 -0.13287140333E+02 -0.88410728617E+01  0.67850028006E-01  0.15959864385E+02  0.00000000000E+00 0. -1.
</event>
<event>
 7    1  0.2438448E-008  0.4614232E+02  0.7816164E-02  0.1320468E+00
        -11   -1    0    0    0    0  0.00000000000E+00  0.00000000000E+00  0.45593999997E+02  0.45594000000E+02  0.51100000000E-03 0.  1.
         11   -1    0    0    0    0 -0.00000000000E+00 -0.00000000000E+00 -0.45593999997E+02  0.45594000000E+02  0.51100000000E-03 0. -1.
    9900012    2    1    2    0    0  0.16607057651E+02  0.16142009734E+02  0.38636182560E+02  0.46142318244E+02  0.10000004400E+02 0.  0.
         12    1    1    2    0    0 -0.16607057651E+02 -0.16142009734E+02 -0.38636182560E+02  0.45045681756E+02  0.00000000000E+00 0. -1.
         11    1    3    3    0    0  0.22799992232E+01  0.12688728377E+01  0.10593195763E+02  0.10909822706E+02  0.51100000000E-03 0. -1.
        -11    1    3    3    0    0  0.14492169575E+02  0.13756255783E+02  0.27464093179E+02  0.33963715441E+02  0.51100000000E-03 0.  1.
         12    1    3    3    0    0 -0.16511114702E+00  0.11168811136E+01  0.57889361775E+00  0.12687800966E+01  0.00000000000E+00 0. -1.
</event>
<event>
 7    1  0.2438448E-008  0.4614232E+02  0.7816164E-02  0.1320468E+00
        -11   -1    0    0    0    0  0.00000000000E+00  0.00000000000E+00  0.45593999997E+02  0.45594000000E+02  0.51100000000E-03 0.  1.
         11   -1    0    0    0    0 -0.00000000000E+00 -0.00000000000E+00 -0.45593999997E+02  0.45594000000E+02  0.51100000000E-03 0. -1.
    9900012    2    1    2    0    0 -0.29188195631E+02  0.25015948465E+02  0.23481164846E+02  0.46142317140E+02  0.99999943363E+01 0.  0.
         12    1    1    2    0    0  0.29188195631E+02 -0.25015948465E+02 -0.23481164846E+02  0.45045682860E+02  0.00000000000E+00 0. -1.
         11    1    3    3    0    0 -0.13548694985E+02  0.12165976672E+02  0.91659528474E+01  0.20386093693E+02  0.51100000000E-03 0. -1.
        -11    1    3    3    0    0 -0.93500038322E+01  0.78130631671E+01  0.43432901452E+01  0.12935636716E+02  0.51100000000E-03 0.  1.
        -12    1    3    3    0    0 -0.62894968143E+01  0.50369086255E+01  0.99719218531E+01  0.12820586731E+02  0.00000000000E+00 0.  1.
</event>
<event>
 7    1  0.2438448E-008  0.4614232E+02  0.7816164E-02  0.1320468E+00
        -11   -1    0    0    0    0  0.00000000000E+00  0.00000000000E+00  0.45593999997E+02  0.45594000000E+02  0.51100000000E-03 0.  1.
         11   -1    0    0    0    0 -0.00000000000E+00 -0.00000000000E+00 -0.45593999997E+02  0.45594000000E+02  0.51100000000E-03 0. -1.
    9900012    2    1    2    0    0 -0.44951698881E+02  0.13748192341E+00  0.29050492003E+01  0.46142318249E+02  0.10000004448E+02 0.  0.
         12    1    1    2    0    0  0.44951698881E+02 -0.13748192341E+00 -0.29050492003E+01  0.45045681751E+02  0.00000000000E+00 0. -1.
         11    1    3    3    0    0 -0.13736180840E+02  0.28671231571E+01  0.12943451154E+01  0.14091784444E+02  0.51100000000E-03 0. -1.
        -11    1    3    3    0    0 -0.10666893819E+02  0.88344251712E+00  0.30720827434E+01  0.11135564066E+02  0.51100000000E-03 0.  1.
         12    1    3    3    0    0 -0.20548624221E+02 -0.36130837508E+01 -0.14613786585E+01  0.20914969739E+02  0.00000000000E+00 0. -1.
</event>
<event>
 7    1  0.2438448E-008  0.4614232E+02  0.7816164E-02  0.1320468E+00
        -11   -1    0    0    0    0  0.00000000000E+00  0.00000000000E+00  0.45593999997E+02  0.45594000000E+02  0.51100000000E-03 0. -1.
         11   -1    0    0    0    0 -0.00000000000E+00 -0.00000000000E+00 -0.45593999997E+02  0.45594000000E+02  0.51100000000E-03 0.  1.
    9900012    2    1    2    0    0 -0.16517462578E+02  0.67243767109E+01 -0.41365077273E+02  0.46142318410E+02  0.10000005916E+02 0.  0.
         12    1    1    2    0    0  0.16517462578E+02 -0.67243767109E+01  0.41365077273E+02  0.45045681590E+02  0.00000000000E+00 0. -1.
         11    1    3    3    0    0 -0.53287010159E+01  0.32258370862E+01 -0.15967201218E+02  0.17139212188E+02  0.51100000000E-03 0.  1.
        -11    1    3    3    0    0 -0.75199691539E+01  0.50792757731E+01 -0.21852898646E+02  0.23662167229E+02  0.51100000000E-03 0. -1.
         12    1    3    3    0    0 -0.36687924079E+01 -0.15807361484E+01 -0.35449774079E+01  0.53409389929E+01  0.00000000000E+00 0. -1.
</event>
<event>
 7    1  0.2438448E-008  0.4614232E+02  0.7816164E-02  0.1320468E+00
        -11   -1    0    0    0    0  0.00000000000E+00  0.00000000000E+00  0.45593999997E+02  0.45594000000E+02  0.51100000000E-03 0.  1.
         11   -1    0    0    0    0 -0.00000000000E+00 -0.00000000000E+00 -0.45593999997E+02  0.45594000000E+02  0.51100000000E-03 0. -1.
    9900012    2    1    2    0    0  0.21827494913E+01  0.23031336905E+02  0.38651086968E+02  0.46142318756E+02  0.10000009068E+02 0.  0.
         12    1    1    2    0    0 -0.21827494913E+01 -0.23031336905E+02 -0.38651086968E+02  0.45045681244E+02  0.00000000000E+00 0. -1.
         11    1    3    3    0    0  0.19182385913E+01  0.17969296444E+01  0.91153965930E+00  0.27819957318E+01  0.51100000000E-03 0. -1.
        -11    1    3    3    0    0  0.11564790660E+01  0.80638964746E+01  0.14026187543E+02  0.16220289993E+02  0.51100000000E-03 0.  1.
         12    1    3    3    0    0 -0.89196816600E+00  0.13170510786E+02  0.23713359765E+02  0.27140033031E+02  0.00000000000E+00 0. -1.
</event>
<event>
 7    1  0.2438448E-008  0.4614232E+02  0.7816164E-02  0.1320468E+00
        -11   -1    0    0    0    0  0.00000000000E+00  0.00000000000E+00  0.45593999997E+02  0.45594000000E+02  0.51100000000E-03 0.  1.
         11   -1    0    0    0    0 -0.00000000000E+00 -0.00000000000E+00 -0.45593999997E+02  0.45594000000E+02  0.51100000000E-03 0. -1.
    9900012    2    1    2    0    0 -0.92107889526E-01  0.17232169680E+01  0.45012614486E+02  0.46142318482E+02  0.10000006576E+02 0.  0.
         12    1    1    2    0    0  0.92107889526E-01 -0.17232169680E+01 -0.45012614486E+02  0.45045681518E+02  0.00000000000E+00 0. -1.
         11    1    3    3    0    0  0.11914402484E+01 -0.63021360047E+00  0.30438618302E+01  0.33289328846E+01  0.51100000000E-03 0. -1.
        -11    1    3    3    0    0  0.13974376501E+01 -0.48465535536E+00  0.13349003971E+01  0.19924061159E+01  0.51100000000E-03 0.  1.
        -12    1    3    3    0    0 -0.26809857880E+01  0.28380859239E+01  0.40633852258E+02  0.40820979482E+02  0.00000000000E+00 0.  1.
</event>
<event>
 7    1  0.2438448E-008  0.4614232E+02  0.7816164E-02  0.1320468E+00
        -11   -1    0    0    0    0  0.00000000000E+00  0.00000000000E+00  0.45593999997E+02  0.45594000000E+02  0.51100000000E-03 0.  1.
         11   -1    0    0    0    0 -0.00000000000E+00 -0.00000000000E+00 -0.45593999997E+02  0.45594000000E+02  0.51100000000E-03 0. -1.
    9900012    2    1    2    0    0  0.38595142758E+02 -0.14299308803E+02  0.18304595659E+02  0.46142317644E+02  0.99999989282E+01 0.  0.
         12    1    1    2    0    0 -0.38595142758E+02  0.14299308803E+02 -0.18304595659E+02  0.45045682356E+02  0.00000000000E+00 0. -1.
         11    1    3    3    0    0  0.17336428872E+02 -0.96517704179E+01  0.10526176658E+02  0.22461274085E+02  0.51100000000E-03 0. -1.
        -11    1    3    3    0    0  0.81903545903E+00 -0.14297390220E+01  0.89258802060E+00  0.18739494096E+01  0.51100000000E-03 0.  1.
         12    1    3    3    0    0  0.20439678427E+02 -0.32177993626E+01  0.68858309807E+01  0.21807094149E+02  0.00000000000E+00 0. -1.
</event>
<event>
 7    1  0.2438448E-008  0.4614232E+02  0.7816164E-02  0.1320468E+00
        -11   -1    0    0    0    0  0.00000000000E+00  0.00000000000E+00  0.45593999997E+02  0.45594000000E+02  0.51100000000E-03 0.  1.
         11   -1    0    0    0    0 -0.00000000000E+00 -0.00000000000E+00 -0.45593999997E+02  0.45594000000E+02  0.51100000000E-03 0. -1.
    9900012    2    1    2    0    0  0.37519173031E+02  0.21577595517E+02  0.12483282139E+02  0.46142319784E+02  0.10000018443E+02 0.  0.
         12    1    1    2    0    0 -0.37519173031E+02 -0.21577595517E+02 -0.12483282139E+02  0.45045680216E+02  0.00000000000E+00 0. -1.
         11    1    3    3    0    0  0.74674580819E+01  0.20631454431E+01  0.71815488765E+00  0.77804399637E+01  0.51100000000E-03 0. -1.
        -11    1    3    3    0    0  0.49385540408E+01  0.17693596319E+01  0.41343164906E+01  0.66792606347E+01  0.51100000000E-03 0.  1.
        -12    1    3    3    0    0  0.25113160908E+02  0.17745090442E+02  0.76308107607E+01  0.31682619185E+02  0.00000000000E+00 0.  1.
</event>
<event>
 7    1  0.2438448E-008  0.4614232E+02  0.7816164E-02  0.1320468E+00
        -11   -1    0    0    0    0  0.00000000000E+00  0.00000000000E+00  0.45593999997E+02  0.45594000000E+02  0.51100000000E-03 0.  1.
         11   -1    0    0    0    0 -0.00000000000E+00 -0.00000000000E+00 -0.45593999997E+02  0.45594000000E+02  0.51100000000E-03 0. -1.
    9900012    2    1    2    0    0 -0.27474485344E+02  0.23325568571E+02  0.27021915727E+02  0.46142318480E+02  0.10000006554E+02 0.  0.
         12    1    1    2    0    0  0.27474485344E+02 -0.23325568571E+02 -0.27021915727E+02  0.45045681520E+02  0.00000000000E+00 0. -1.
         11    1    3    3    0    0 -0.60435019254E+01  0.44110270147E+01  0.35046019401E+01  0.82621613314E+01  0.51100000000E-03 0. -1.
        -11    1    3    3    0    0 -0.92684510168E+01  0.10257824818E+02  0.66054436414E+01  0.15321848459E+02  0.51100000000E-03 0.  1.
        -12    1    3    3    0    0 -0.12162532402E+02  0.86567167390E+01  0.16911870145E+02  0.22558308689E+02  0.00000000000E+00 0.  1.
</event>
<event>
 7    1  0.2438448E-008  0.4614232E+02  0.7816164E-02  0.1320468E+00
        -11   -1    0    0    0    0  0.00000000000E+00  0.00000000000E+00  0.45593999997E+02  0.45594000000E+02  0.51100000000E-03 0. -1.
         11   -1    0    0    0    0 -0.00000000000E+00 -0.00000000000E+00 -0.45593999997E+02  0.45594000000E+02  0.51100000000E-03 0.  1.
    9900012    2    1    2    0    0 -0.37439106762E+02  0.24016858155E+02 -0.71145935479E+01  0.46142316165E+02  0.99999854487E+01 0.  0.
         12    1    1    2    0    0  0.37439106762E+02 -0.24016858155E+02  0.71145935479E+01  0.45045683835E+02  0.00000000000E+00 0. -1.
         11    1    3    3    0    0 -0.16103106319E+02  0.10910643881E+02  0.11501066668E+01  0.19485249001E+02  0.51100000000E-03 0. -1.
        -11    1    3    3    0    0 -0.77654835218E+01  0.59119782218E+01 -0.49523683891E+01  0.10944412901E+02  0.51100000000E-03 0.  1.
        -12    1    3    3    0    0 -0.13570516921E+02  0.71942360521E+01 -0.33123318255E+01  0.15712654264E+02  0.00000000000E+00 0.  1.
</event>
<event>
 7    1  0.2438448E-008  0.4614232E+02  0.7816164E-02  0.1320468E+00
        -11   -1    0    0    0    0  0.00000000000E+00  0.00000000000E+00  0.45593999997E+02  0.45594000000E+02  0.51100000000E-03 0.  1.
         11   -1    0    0    0    0 -0.00000000000E+00 -0.00000000000E+00 -0.45593999997E+02  0.45594000000E+02  0.51100000000E-03 0. -1.
    9900012    2    1    2    0    0  0.58652590979E+01  0.42509581466E+02  0.13698456965E+02  0.46142317589E+02  0.99999984279E+01 0.  0.
         12    1    1    2    0    0 -0.58652590979E+01 -0.42509581466E+02 -0.13698456965E+02  0.45045682411E+02  0.00000000000E+00 0. -1.
         11    1    3    3    0    0  0.29444164182E+01  0.37689472795E+01  0.15309306859E+01  0.50217826183E+01  0.51100000000E-03 0. -1.
        -11    1    3    3    0    0  0.24458839315E+01  0.72765544655E+01  0.10571501752E+01  0.77490747738E+01  0.51100000000E-03 0.  1.
        -12    1    3    3    0    0  0.47495874830E+00  0.31464079721E+02  0.11110376104E+02  0.33371460197E+02  0.00000000000E+00 0.  1.
</event>
<event>
 7    1  0.2438448E-008  0.4614232E+02  0.7816164E-02  0.1320468E+00
        -11   -1    0    0    0    0  0.00000000000E+00  0.00000000000E+00  0.45593999997E+02  0.45594000000E+02  0.51100000000E-03 0.  1.
         11   -1    0    0    0    0 -0.00000000000E+00 -0.00000000000E+00 -0.45593999997E+02  0.45594000000E+02  0.51100000000E-03 0. -1.
    9900012    2    1    2    0    0 -0.44344066569E+02  0.30865115148E+01  0.72931935187E+01  0.46142318022E+02  0.10000002377E+02 0.  0.
         12    1    1    2    0    0  0.44344066569E+02 -0.30865115148E+01 -0.72931935187E+01  0.45045681978E+02  0.00000000000E+00 0. -1.
         11    1    3    3    0    0 -0.11423351861E+01 -0.48908027387E+00 -0.72078153362E-01  0.12447187285E+01  0.51100000000E-03 0. -1.
        -11    1    3    3    0    0 -0.27700260278E+02  0.57084776564E+01  0.19888666233E+01  0.28352190874E+02  0.51100000000E-03 0.  1.
         12    1    3    3    0    0 -0.15501471104E+02 -0.21328858677E+01  0.53764050487E+01  0.16545408420E+02  0.00000000000E+00 0. -1.
</event>
<event>
 7    1  0.2438448E-008  0.4614232E+02  0.7816164E-02  0.1320468E+00
        -11   -1    0    0    0    0  0.00000000000E+00  0.00000000000E+00  0.45593999997E+02  0.45594000000E+02  0.51100000000E-03 0.  1.
         11   -1    0    0    0    0 -0.00000000000E+00 -0.00000000000E+00 -0.45593999997E+02  0.45594000000E+02  0.51100000000E-03 0. -1.
    9900012    2    1    2    0    0  0.43478916775E+02 -0.11185634256E+02 -0.36849517169E+01  0.46142317778E+02  0.10000000156E+02 0.  0.
         12    1    1    2    0    0 -0.43478916775E+02  0.11185634256E+02  0.36849517169E+01  0.45045682222E+02  0.00000000000E+00 0. -1.
         11    1    3    3    0    0 -0.21676110360E+00  0.50715885772E+00  0.80013031419E-01  0.55731304427E+00  0.51100000000E-03 0. -1.
        -11    1    3    3    0    0  0.41934239926E+01 -0.14627403364E+01  0.84205670794E+00  0.45203400131E+01  0.51100000000E-03 0.  1.
        -12    1    3    3    0    0  0.39502253887E+02 -0.10230052777E+02 -0.46070214563E+01  0.41064664721E+02  0.00000000000E+00 0.  1.
</event>
<event>
 7    1  0.2438448E-008  0.4614232E+02  0.7816164E-02  0.1320468E+00
        -11   -1    0    0    0    0  0.00000000000E+00  0.00000000000E+00  0.45593999997E+02  0.45594000000E+02  0.51100000000E-03 0.  1.
         11   -1    0    0    0    0 -0.00000000000E+00 -0.00000000000E+00 -0.45593999997E+02  0.45594000000E+02  0.51100000000E-03 0. -1.
    9900012    2    1    2    0    0 -0.29540160657E+02  0.75352516919E+01  0.33161911602E+02  0.46142317735E+02  0.99999997579E+01 0.  0.
         12    1    1    2    0    0  0.29540160657E+02 -0.75352516919E+01 -0.33161911602E+02  0.45045682265E+02  0.00000000000E+00 0. -1.
         11    1    3    3    0    0 -0.11488986376E+02 -0.27052476994E+00  0.11879221721E+02  0.16528336291E+02  0.51100000000E-03 0. -1.
        -11    1    3    3    0    0 -0.15942824739E+02  0.53505103233E+01  0.20005801019E+02  0.26134913354E+02  0.51100000000E-03 0.  1.
        -12    1    3    3    0    0 -0.21083495416E+01  0.24552661385E+01  0.12768888616E+01  0.34790680886E+01  0.00000000000E+00 0.  1.
</event>
<event>
 7    1  0.2438448E-008  0.4614232E+02  0.7816164E-02  0.1320468E+00
        -11   -1    0    0    0    0  0.00000000000E+00  0.00000000000E+00  0.45593999997E+02  0.45594000000E+02  0.51100000000E-03 0.  1.
         11   -1    0    0    0    0 -0.00000000000E+00 -0.00000000000E+00 -0.45593999997E+02  0.45594000000E+02  0.51100000000E-03 0. -1.
    9900012    2    1    2    0    0  0.39212625331E+02  0.80271203945E+01  0.20665159574E+02  0.46142317994E+02  0.10000002125E+02 0.  0.
         12    1    1    2    0    0 -0.39212625331E+02 -0.80271203945E+01 -0.20665159574E+02  0.45045682006E+02  0.00000000000E+00 0. -1.
         11    1    3    3    0    0  0.67703646877E+01 -0.38498357447E+00  0.19824380640E+01  0.70651334946E+01  0.51100000000E-03 0. -1.
        -11    1    3    3    0    0  0.26258844083E+02  0.59933116645E+01  0.11472920162E+02  0.29275836019E+02  0.51100000000E-03 0.  1.
         12    1    3    3    0    0  0.61834165598E+01  0.24187923045E+01  0.72098013478E+01  0.98013484806E+01  0.00000000000E+00 0. -1.
</event>
<event>
 7    1  0.2438448E-008  0.4614232E+02  0.7816164E-02  0.1320468E+00
        -11   -1    0    0    0    0  0.00000000000E+00  0.00000000000E+00  0.45593999997E+02  0.45594000000E+02  0.51100000000E-03 0. -1.
         11   -1    0    0    0    0 -0.00000000000E+00 -0.00000000000E+00 -0.45593999997E+02  0.45594000000E+02  0.51100000000E-03 0.  1.
    9900012    2    1    2    0    0  0.15391562043E+02 -0.15202588004E+02 -0.39510688606E+02  0.46142318983E+02  0.10000011143E+02 0.  0.
         12    1    1    2    0    0 -0.15391562043E+02  0.15202588004E+02  0.39510688606E+02  0.45045681017E+02  0.00000000000E+00 0. -1.
         11    1    3    3    0    0  0.80935853619E+01 -0.41309063476E+01 -0.12147387906E+02  0.15170021242E+02  0.51100000000E-03 0. -1.
        -11    1    3    3    0    0  0.28471325689E+01 -0.69033147999E+01 -0.94177366697E+01  0.12018971808E+02  0.51100000000E-03 0.  1.
        -12    1    3    3    0    0  0.44508441123E+01 -0.41683668567E+01 -0.17945564030E+02  0.18953325933E+02  0.00000000000E+00 0.  1.
</event>
<event>
 7    1  0.2438448E-008  0.4614232E+02  0.7816164E-02  0.1320468E+00
        -11   -1    0    0    0    0  0.00000000000E+00  0.00000000000E+00  0.45593999997E+02  0.45594000000E+02  0.51100000000E-03 0.  1.
         11   -1    0    0    0    0 -0.00000000000E+00 -0.00000000000E+00 -0.45593999997E+02  0.45594000000E+02  0.51100000000E-03 0. -1.
    9900012    2    1    2    0    0  0.20096139443E+02  0.35630320810E+02  0.18861041154E+02  0.46142318132E+02  0.10000003382E+02 0.  0.
         12    1    1    2    0    0 -0.20096139443E+02 -0.35630320810E+02 -0.18861041154E+02  0.45045681868E+02  0.00000000000E+00 0. -1.
         11    1    3    3    0    0  0.42551488242E+00  0.23736854008E+01 -0.64327215841E+00  0.24958454736E+01  0.51100000000E-03 0. -1.
        -11    1    3    3    0    0 -0.34532551164E+00  0.76105384299E+00  0.13260264040E+00  0.84618933005E+00  0.51100000000E-03 0.  1.
        -12    1    3    3    0    0  0.20015950072E+02  0.32495581566E+02  0.19371710672E+02  0.42800283328E+02  0.00000000000E+00 0.  1.
</event>
<event>
 7    1  0.2438448E-008  0.4614232E+02  0.7816164E-02  0.1320468E+00
        -11   -1    0    0    0    0  0.00000000000E+00  0.00000000000E+00  0.45593999997E+02  0.45594000000E+02  0.51100000000E-03 0.  1.
         11   -1    0    0    0    0 -0.00000000000E+00 -0.00000000000E+00 -0.45593999997E+02  0.45594000000E+02  0.51100000000E-03 0. -1.
    9900012    2    1    2    0    0 -0.20873936516E+01 -0.44442500549E+02 -0.70441733519E+01  0.46142318236E+02  0.10000004333E+02 0.  0.
         12    1    1    2    0    0  0.20873936516E+01  0.44442500549E+02  0.70441733519E+01  0.45045681764E+02  0.00000000000E+00 0. -1.
         11    1    3    3    0    0  0.12100534042E+01 -0.15312277591E+01 -0.85685799265E+00  0.21314533943E+01  0.51100000000E-03 0. -1.
        -11    1    3    3    0    0 -0.46513815328E+01 -0.20502143561E+02 -0.14988256440E+01  0.21076520569E+02  0.51100000000E-03 0.  1.
        -12    1    3    3    0    0  0.13539344770E+01 -0.22409129230E+02 -0.46884897152E+01  0.22934344273E+02  0.00000000000E+00 0.  1.
</event>
<event>
 7    1  0.2438448E-008  0.4614232E+02  0.7816164E-02  0.1320468E+00
        -11   -1    0    0    0    0  0.00000000000E+00  0.00000000000E+00  0.45593999997E+02  0.45594000000E+02  0.51100000000E-03 0.  1.
         11   -1    0    0    0    0 -0.00000000000E+00 -0.00000000000E+00 -0.45593999997E+02  0.45594000000E+02  0.51100000000E-03 0. -1.
    9900012    2    1    2    0    0  0.59078013648E+01  0.30576989700E+02  0.32546259283E+02  0.46142318637E+02  0.10000007989E+02 0.  0.
         12    1    1    2    0    0 -0.59078013648E+01 -0.30576989700E+02 -0.32546259283E+02  0.45045681363E+02  0.00000000000E+00 0. -1.
         11    1    3    3    0    0 -0.17730873957E+00 -0.84034065285E-01 -0.24976142949E+00  0.31761792462E+00  0.51100000000E-03 0.  1.
        -11    1    3    3    0    0  0.18179279423E+01  0.16276658981E+01  0.41589908190E+01  0.48219667329E+01  0.51100000000E-03 0. -1.
        -12    1    3    3    0    0  0.42671821621E+01  0.29033357867E+02  0.28637029894E+02  0.41002733980E+02  0.00000000000E+00 0.  1.
</event>
<event>
 7    1  0.2438448E-008  0.4614232E+02  0.7816164E-02  0.1320468E+00
        -11   -1    0    0    0    0  0.00000000000E+00  0.00000000000E+00  0.45593999997E+02  0.45594000000E+02  0.51100000000E-03 0.  1.
         11   -1    0    0    0    0 -0.00000000000E+00 -0.00000000000E+00 -0.45593999997E+02  0.45594000000E+02  0.51100000000E-03 0. -1.
    9900012    2    1    2    0    0  0.40335288065E+02 -0.11667119608E+02 -0.16311231894E+02  0.46142318419E+02  0.10000005997E+02 0.  0.
         12    1    1    2    0    0 -0.40335288065E+02  0.11667119608E+02  0.16311231894E+02  0.45045681581E+02  0.00000000000E+00 0. -1.
         11    1    3    3    0    0  0.81953578342E+00 -0.92487144832E+00  0.90903833660E+00  0.15340720501E+01  0.51100000000E-03 0. -1.
        -11    1    3    3    0    0  0.24927787427E+01 -0.13919681385E+01 -0.20726928882E+01  0.35281124172E+01  0.51100000000E-03 0.  1.
        -12    1    3    3    0    0  0.37022973539E+02 -0.93502800213E+01 -0.15147577343E+02  0.41080133951E+02  0.00000000000E+00 0.  1.
</event>
<event>
 7    1  0.2438448E-008  0.4614232E+02  0.7816164E-02  0.1320468E+00
        -11   -1    0    0    0    0  0.00000000000E+00  0.00000000000E+00  0.45593999997E+02  0.45594000000E+02  0.51100000000E-03 0.  1.
         11   -1    0    0    0    0 -0.00000000000E+00 -0.00000000000E+00 -0.45593999997E+02  0.45594000000E+02  0.51100000000E-03 0. -1.
    9900012    2    1    2    0    0 -0.17161885435E+02 -0.41449730945E+02  0.40623850340E+01  0.46142317862E+02  0.10000000919E+02 0.  0.
         12    1    1    2    0    0  0.17161885435E+02  0.41449730945E+02 -0.40623850340E+01  0.45045682138E+02  0.00000000000E+00 0. -1.
         11    1    3    3    0    0 -0.11897143269E+02 -0.20830284641E+02  0.18992885051E+01  0.24063459296E+02  0.51100000000E-03 0. -1.
        -11    1    3    3    0    0 -0.54425293903E+01 -0.10781200310E+02  0.19730575168E+01  0.12237171344E+02  0.51100000000E-03 0.  1.
         12    1    3    3    0    0  0.17778722461E+00 -0.98382459947E+01  0.19003901211E+00  0.98416872220E+01  0.00000000000E+00 0. -1.
</event>
<event>
 7    1  0.2438448E-008  0.4614232E+02  0.7816164E-02  0.1320468E+00
        -11   -1    0    0    0    0  0.00000000000E+00  0.00000000000E+00  0.45593999997E+02  0.45594000000E+02  0.51100000000E-03 0.  1.
         11   -1    0    0    0    0 -0.00000000000E+00 -0.00000000000E+00 -0.45593999997E+02  0.45594000000E+02  0.51100000000E-03 0. -1.
    9900012    2    1    2    0    0  0.17448343367E+02 -0.26022970717E+02  0.32364695805E+02  0.46142320676E+02  0.10000026577E+02 0.  0.
         12    1    1    2    0    0 -0.17448343367E+02  0.26022970717E+02 -0.32364695805E+02  0.45045679324E+02  0.00000000000E+00 0. -1.
         11    1    3    3    0    0  0.48352917144E+01 -0.60483986216E+01  0.43968458405E+01  0.89047978896E+01  0.51100000000E-03 0. -1.
        -11    1    3    3    0    0  0.93132502521E+01 -0.14482567967E+02  0.15267522796E+02  0.23012576078E+02  0.51100000000E-03 0.  1.
         12    1    3    3    0    0  0.32998014010E+01 -0.54920041286E+01  0.12700327169E+02  0.14224946708E+02  0.00000000000E+00 0. -1.
</event>
<event>
 7    1  0.2438448E-008  0.4614232E+02  0.7816164E-02  0.1320468E+00
        -11   -1    0    0    0    0  0.00000000000E+00  0.00000000000E+00  0.45593999997E+02  0.45594000000E+02  0.51100000000E-03 0. -1.
         11   -1    0    0    0    0 -0.00000000000E+00 -0.00000000000E+00 -0.45593999997E+02  0.45594000000E+02  0.51100000000E-03 0.  1.
    9900012    2    1    2    0    0  0.42770868160E+02  0.99631149197E+01 -0.10025110603E+02  0.46142315804E+02  0.99999821531E+01 0.  0.
         12    1    1    2    0    0 -0.42770868160E+02 -0.99631149197E+01  0.10025110603E+02  0.45045684196E+02  0.00000000000E+00 0. -1.
         11    1    3    3    0    0  0.40008946553E+01  0.31863391105E+01 -0.30032062041E+00  0.51234858940E+01  0.51100000000E-03 0. -1.
        -11    1    3    3    0    0  0.10108160147E+02 -0.31748078912E+00 -0.43401964575E+01  0.11005135218E+02  0.51100000000E-03 0.  1.
         12    1    3    3    0    0  0.28661813358E+02  0.70942565984E+01 -0.53845935252E+01  0.30013694692E+02  0.00000000000E+00 0. -1.
</event>
<event>
 7    1  0.2438448E-008  0.4614232E+02  0.7816164E-02  0.1320468E+00
        -11   -1    0    0    0    0  0.00000000000E+00  0.00000000000E+00  0.45593999997E+02  0.45594000000E+02  0.51100000000E-03 0.  1.
         11   -1    0    0    0    0 -0.00000000000E+00 -0.00000000000E+00 -0.45593999997E+02  0.45594000000E+02  0.51100000000E-03 0. -1.
    9900012    2    1    2    0    0 -0.28171892796E+02 -0.29092117635E+02  0.19725784360E+02  0.46142318511E+02  0.10000006839E+02 0.  0.
         12    1    1    2    0    0  0.28171892796E+02  0.29092117635E+02 -0.19725784360E+02  0.45045681489E+02  0.00000000000E+00 0. -1.
         11    1    3    3    0    0 -0.77644781088E+01 -0.83380868901E+01  0.83533902503E+01  0.14127630453E+02  0.51100000000E-03 0. -1.
        -11    1    3    3    0    0 -0.12136399360E+02 -0.15493675752E+02  0.10127177230E+02  0.22133817941E+02  0.51100000000E-03 0.  1.
         12    1    3    3    0    0 -0.82710153264E+01 -0.52603549932E+01  0.12452168794E+01  0.98808701166E+01  0.00000000000E+00 0. -1.
</event>
<event>
 7    1  0.2438448E-008  0.4614232E+02  0.7816164E-02  0.1320468E+00
        -11   -1    0    0    0    0  0.00000000000E+00  0.00000000000E+00  0.45593999997E+02  0.45594000000E+02  0.51100000000E-03 0.  1.
         11   -1    0    0    0    0 -0.00000000000E+00 -0.00000000000E+00 -0.45593999997E+02  0.45594000000E+02  0.51100000000E-03 0. -1.
    9900012    2    1    2    0    0  0.13953096374E+02  0.29661471022E+02  0.30896954284E+02  0.46142317126E+02  0.99999942054E+01 0.  0.
         12    1    1    2    0    0 -0.13953096374E+02 -0.29661471022E+02 -0.30896954284E+02  0.45045682874E+02  0.00000000000E+00 0. -1.
         11    1    3    3    0    0 -0.42658382756E+00  0.55820110800E+00  0.72196294837E+00  0.10073693458E+01  0.51100000000E-03 0. -1.
        -11    1    3    3    0    0  0.10818604067E+02  0.19321341052E+02  0.15051714794E+02  0.26775185014E+02  0.51100000000E-03 0.  1.
        -12    1    3    3    0    0  0.35610761344E+01  0.97819288623E+01  0.15123276541E+02  0.18359762766E+02  0.00000000000E+00 0.  1.
</event>
<event>
 7    1  0.2438448E-008  0.4614232E+02  0.7816164E-02  0.1320468E+00
        -11   -1    0    0    0    0  0.00000000000E+00  0.00000000000E+00  0.45593999997E+02  0.45594000000E+02  0.51100000000E-03 0.  1.
         11   -1    0    0    0    0 -0.00000000000E+00 -0.00000000000E+00 -0.45593999997E+02  0.45594000000E+02  0.51100000000E-03 0. -1.
    9900012    2    1    2    0    0 -0.65088052451E+01  0.38886185706E+02  0.21785625393E+02  0.46142318095E+02  0.10000003046E+02 0.  0.
         12    1    1    2    0    0  0.65088052451E+01 -0.38886185706E+02 -0.21785625393E+02  0.45045681905E+02  0.00000000000E+00 0. -1.
         11    1    3    3    0    0 -0.46100324725E+01  0.74727452514E+01  0.25953209191E+01  0.91558730837E+01  0.51100000000E-03 0. -1.
        -11    1    3    3    0    0 -0.19889871170E+01  0.11754462293E+02  0.81258725187E+01  0.14427517388E+02  0.51100000000E-03 0.  1.
         12    1    3    3    0    0  0.90214344439E-01  0.19658978162E+02  0.11064431955E+02  0.22558927623E+02  0.00000000000E+00 0. -1.
</event>
<event>
 7    1  0.2438448E-008  0.4614232E+02  0.7816164E-02  0.1320468E+00
        -11   -1    0    0    0    0  0.00000000000E+00  0.00000000000E+00  0.45593999997E+02  0.45594000000E+02  0.51100000000E-03 0.  1.
         11   -1    0    0    0    0 -0.00000000000E+00 -0.00000000000E+00 -0.45593999997E+02  0.45594000000E+02  0.51100000000E-03 0. -1.
    9900012    2    1    2    0    0 -0.13520789000E+02  0.30721415870E+02  0.30041576676E+02  0.46142318105E+02  0.10000003133E+02 0.  0.
         12    1    1    2    0    0  0.13520789000E+02 -0.30721415870E+02 -0.30041576676E+02  0.45045681895E+02  0.00000000000E+00 0. -1.
         11    1    3    3    0    0 -0.45663881636E+01  0.11431813096E+02  0.16323914455E+02  0.20445254582E+02  0.51100000000E-03 0.  1.
        -11    1    3    3    0    0 -0.31553421624E+01  0.37565473815E+01  0.48318600642E+01  0.68858335975E+01  0.51100000000E-03 0. -1.
        -12    1    3    3    0    0 -0.57990586739E+01  0.15533055392E+02  0.88858021563E+01  0.18811229925E+02  0.00000000000E+00 0.  1.
</event>
<event>
 7    1  0.2438448E-008  0.4614232E+02  0.7816164E-02  0.1320468E+00
        -11   -1    0    0    0    0  0.00000000000E+00  0.00000000000E+00  0.45593999997E+02  0.45594000000E+02  0.51100000000E-03 0.  1.
         11   -1    0    0    0    0 -0.00000000000E+00 -0.00000000000E+00 -0.45593999997E+02  0.45594000000E+02  0.51100000000E-03 0. -1.
    9900012    2    1    2    0    0 -0.21745412359E+02  0.17045797576E+02  0.35576557062E+02  0.46142316677E+02  0.99999901157E+01 0.  0.
         12    1    1    2    0    0  0.21745412359E+02 -0.17045797576E+02 -0.35576557062E+02  0.45045683323E+02  0.00000000000E+00 0. -1.
         11    1    3    3    0    0 -0.18694389838E+01  0.57641728721E+01  0.98530912686E+01  0.11567363521E+02  0.51100000000E-03 0. -1.
        -11    1    3    3    0    0 -0.22138534728E+01  0.11043430724E+01  0.45791171844E+01  0.52047127942E+01  0.51100000000E-03 0.  1.
        -12    1    3    3    0    0 -0.17662119902E+02  0.10177281632E+02  0.21144348609E+02  0.29370240362E+02  0.00000000000E+00 0.  1.
</event>
<event>
 7    1  0.2438448E-008  0.4614232E+02  0.7816164E-02  0.1320468E+00
        -11   -1    0    0    0    0  0.00000000000E+00  0.00000000000E+00  0.45593999997E+02  0.45594000000E+02  0.51100000000E-03 0.  1.
         11   -1    0    0    0    0 -0.00000000000E+00 -0.00000000000E+00 -0.45593999997E+02  0.45594000000E+02  0.51100000000E-03 0. -1.
    9900012    2    1    2    0    0 -0.51069680528E+01  0.34818791626E+02  0.28119105439E+02  0.46142318035E+02  0.10000002498E+02 0.  0.
         12    1    1    2    0    0  0.51069680528E+01 -0.34818791626E+02 -0.28119105439E+02  0.45045681965E+02  0.00000000000E+00 0. -1.
         11    1    3    3    0    0  0.21816304075E+00  0.27402938651E+01  0.53002117857E+01  0.59706826087E+01  0.51100000000E-03 0. -1.
        -11    1    3    3    0    0  0.12713457963E+00  0.15380738618E+02  0.89896280670E+01  0.17815630685E+02  0.51100000000E-03 0.  1.
        -12    1    3    3    0    0 -0.54522656732E+01  0.16697759142E+02  0.13829265587E+02  0.22356004742E+02  0.00000000000E+00 0.  1.
</event>
<event>
 7    1  0.2438448E-008  0.4614232E+02  0.7816164E-02  0.1320468E+00
        -11   -1    0    0    0    0  0.00000000000E+00  0.00000000000E+00  0.45593999997E+02  0.45594000000E+02  0.51100000000E-03 0.  1.
         11   -1    0    0    0    0 -0.00000000000E+00 -0.00000000000E+00 -0.45593999997E+02  0.45594000000E+02  0.51100000000E-03 0. -1.
    9900012    2    1    2    0    0 -0.60720457729E+01 -0.10424856473E+02  0.43400070401E+02  0.46142317819E+02  0.10000000529E+02 0.  0.
         12    1    1    2    0    0  0.60720457729E+01  0.10424856473E+02 -0.43400070401E+02  0.45045682181E+02  0.00000000000E+00 0. -1.
         11    1    3    3    0    0  0.13292972192E+01 -0.61665606468E+01  0.14958745136E+02  0.16234455876E+02  0.51100000000E-03 0. -1.
        -11    1    3    3    0    0 -0.32113613307E+01 -0.30967321653E+01  0.98234502833E+01  0.10789011420E+02  0.51100000000E-03 0.  1.
         12    1    3    3    0    0 -0.41899816614E+01 -0.11615636609E+01  0.18617874982E+02  0.19118850522E+02  0.00000000000E+00 0. -1.
</event>
<event>
 7    1  0.2438448E-008  0.4614232E+02  0.7816164E-02  0.1320468E+00
        -11   -1    0    0    0    0  0.00000000000E+00  0.00000000000E+00  0.45593999997E+02  0.45594000000E+02  0.51100000000E-03 0.  1.
         11   -1    0    0    0    0 -0.00000000000E+00 -0.00000000000E+00 -0.45593999997E+02  0.45594000000E+02  0.51100000000E-03 0. -1.
    9900012    2    1    2    0    0 -0.28785061207E+02 -0.30682361095E+02  0.16097405647E+02  0.46142317636E+02  0.99999988619E+01 0.  0.
         12    1    1    2    0    0  0.28785061207E+02  0.30682361095E+02 -0.16097405647E+02  0.45045682364E+02  0.00000000000E+00 0. -1.
         11    1    3    3    0    0 -0.82614170989E+00 -0.85683641862E+00  0.20922093689E+01  0.24070768740E+01  0.51100000000E-03 0. -1.
        -11    1    3    3    0    0 -0.10359604610E+01 -0.22126052573E+00  0.14507240321E+01  0.17963214566E+01  0.51100000000E-03 0.  1.
        -12    1    3    3    0    0 -0.26922959036E+02 -0.29604264151E+02  0.12554472246E+02  0.41938919306E+02  0.00000000000E+00 0.  1.
</event>
<event>
 7    1  0.2438448E-008  0.4614232E+02  0.7816164E-02  0.1320468E+00
        -11   -1    0    0    0    0  0.00000000000E+00  0.00000000000E+00  0.45593999997E+02  0.45594000000E+02  0.51100000000E-03 0.  1.
         11   -1    0    0    0    0 -0.00000000000E+00 -0.00000000000E+00 -0.45593999997E+02  0.45594000000E+02  0.51100000000E-03 0. -1.
    9900012    2    1    2    0    0  0.33641306175E+02  0.31312082273E+00  0.29954591590E+02  0.46142322259E+02  0.10000041017E+02 0.  0.
         12    1    1    2    0    0 -0.33641306175E+02 -0.31312082273E+00 -0.29954591590E+02  0.45045677741E+02  0.00000000000E+00 0. -1.
         11    1    3    3    0    0  0.10944518118E+02  0.15075277358E+01  0.57190724934E+01  0.12440374077E+02  0.51100000000E-03 0.  1.
        -11    1    3    3    0    0  0.16860451030E+01  0.23351808879E+00  0.15086747536E+00  0.17088124658E+01  0.51100000000E-03 0. -1.
         12    1    3    3    0    0  0.21010742953E+02 -0.14279250018E+01  0.24084651622E+02  0.31993135717E+02  0.00000000000E+00 0. -1.
</event>
<event>
 7    1  0.2438448E-008  0.4614232E+02  0.7816164E-02  0.1320468E+00
        -11   -1    0    0    0    0  0.00000000000E+00  0.00000000000E+00  0.45593999997E+02  0.45594000000E+02  0.51100000000E-03 0.  1.
         11   -1    0    0    0    0 -0.00000000000E+00 -0.00000000000E+00 -0.45593999997E+02  0.45594000000E+02  0.51100000000E-03 0. -1.
    9900012    2    1    2    0    0  0.12911984731E+01  0.34807638780E+02  0.28563520186E+02  0.46142316563E+02  0.99999890732E+01 0.  0.
         12    1    1    2    0    0 -0.12911984731E+01 -0.34807638780E+02 -0.28563520186E+02  0.45045683437E+02  0.00000000000E+00 0. -1.
         11    1    3    3    0    0  0.12002616280E+01  0.54286609535E+00  0.64058397878E+00  0.14648138681E+01  0.51100000000E-03 0. -1.
        -11    1    3    3    0    0  0.19195735233E+01  0.85028742564E+01  0.44933975622E+01  0.98068473550E+01  0.51100000000E-03 0.  1.
        -12    1    3    3    0    0 -0.18286366782E+01  0.25761898428E+02  0.23429538645E+02  0.34870655340E+02  0.00000000000E+00 0.  1.
</event>
<event>
 7    1  0.2438448E-008  0.4614231E+02  0.7816164E-02  0.1320468E+00
        -11   -1    0    0    0    0  0.00000000000E+00  0.00000000000E+00  0.45593999997E+02  0.45594000000E+02  0.51100000000E-03 0.  1.
         11   -1    0    0    0    0 -0.00000000000E+00 -0.00000000000E+00 -0.45593999997E+02  0.45594000000E+02  0.51100000000E-03 0. -1.
    9900012    2    1    2    0    0 -0.43364689275E+00  0.20750075624E+02  0.39979495637E+02  0.46142314753E+02  0.99999725680E+01 0.  0.
         12    1    1    2    0    0  0.43364689275E+00 -0.20750075624E+02 -0.39979495637E+02  0.45045685247E+02  0.00000000000E+00 0. -1.
         11    1    3    3    0    0  0.93623236080E+00  0.86219141226E+00  0.93640803684E+01  0.94501802349E+01  0.51100000000E-03 0. -1.
        -11    1    3    3    0    0 -0.19380429237E+00  0.10147409397E+01  0.33902551837E+01  0.35441627714E+01  0.51100000000E-03 0.  1.
        -12    1    3    3    0    0 -0.11760749612E+01  0.18873143272E+02  0.27225160084E+02  0.33147971747E+02  0.00000000000E+00 0.  1.
</event>
<event>
 7    1  0.2438448E-008  0.4614232E+02  0.7816164E-02  0.1320468E+00
        -11   -1    0    0    0    0  0.00000000000E+00  0.00000000000E+00  0.45593999997E+02  0.45594000000E+02  0.51100000000E-03 0.  1.
         11   -1    0    0    0    0 -0.00000000000E+00 -0.00000000000E+00 -0.45593999997E+02  0.45594000000E+02  0.51100000000E-03 0. -1.
    9900012    2    1    2    0    0  0.33193409417E+02 -0.20615419546E+02  0.22412397463E+02  0.46142317501E+02  0.99999976245E+01 0.  0.
         12    1    1    2    0    0 -0.33193409417E+02  0.20615419546E+02 -0.22412397463E+02  0.45045682499E+02  0.00000000000E+00 0. -1.
         11    1    3    3    0    0  0.96421385550E+01 -0.65241749071E+01  0.10656495162E+02  0.15782793908E+02  0.51100000000E-03 0. -1.
        -11    1    3    3    0    0  0.11704270648E+02 -0.78584903980E+01  0.31499491884E+01  0.14445345371E+02  0.51100000000E-03 0.  1.
         12    1    3    3    0    0  0.11847000215E+02 -0.62327542407E+01  0.86059531123E+01  0.15914178222E+02  0.00000000000E+00 0. -1.
</event>
<event>
 7    1  0.2438448E-008  0.4614232E+02  0.7816164E-02  0.1320468E+00
        -11   -1    0    0    0    0  0.00000000000E+00  0.00000000000E+00  0.45593999997E+02  0.45594000000E+02  0.51100000000E-03 0.  1.
         11   -1    0    0    0    0 -0.00000000000E+00 -0.00000000000E+00 -0.45593999997E+02  0.45594000000E+02  0.51100000000E-03 0. -1.
    9900012    2    1    2    0    0  0.24842133201E+00  0.42895918893E+02  0.13747432869E+02  0.46142317839E+02  0.10000000714E+02 0.  0.
         12    1    1    2    0    0 -0.24842133201E+00 -0.42895918893E+02 -0.13747432869E+02  0.45045682161E+02  0.00000000000E+00 0. -1.
         11    1    3    3    0    0 -0.24947080410E+00  0.36887013305E+01 -0.12533787513E+01  0.39038073394E+01  0.51100000000E-03 0. -1.
        -11    1    3    3    0    0  0.12936303734E+01  0.38963855563E+01  0.22910677148E+01  0.47015201246E+01  0.51100000000E-03 0.  1.
         12    1    3    3    0    0 -0.79573823724E+00  0.35310832006E+02  0.12709743905E+02  0.37536990375E+02  0.00000000000E+00 0. -1.
</event>
<event>
 7    1  0.2438448E-008  0.4614232E+02  0.7816164E-02  0.1320468E+00
        -11   -1    0    0    0    0  0.00000000000E+00  0.00000000000E+00  0.45593999997E+02  0.45594000000E+02  0.51100000000E-03 0.  1.
         11   -1    0    0    0    0 -0.00000000000E+00 -0.00000000000E+00 -0.45593999997E+02  0.45594000000E+02  0.51100000000E-03 0. -1.
    9900012    2    1    2    0    0 -0.17465296577E+02  0.10234923311E+01  0.41509382899E+02  0.46142323296E+02  0.10000050471E+02 0.  0.
         12    1    1    2    0    0  0.17465296577E+02 -0.10234923311E+01 -0.41509382899E+02  0.45045676704E+02  0.00000000000E+00 0. -1.
         11    1    3    3    0    0 -0.56167056935E+01  0.50810282186E+00  0.14287534451E+02  0.15360312245E+02  0.51100000000E-03 0. -1.
        -11    1    3    3    0    0 -0.83055477713E+01  0.38220116155E+01  0.20932551740E+02  0.22842101899E+02  0.51100000000E-03 0.  1.
         12    1    3    3    0    0 -0.35430431121E+01 -0.33066221063E+01  0.62892967080E+01  0.79399091511E+01  0.00000000000E+00 0. -1.
</event>
<event>
 7    1  0.2438448E-008  0.4614232E+02  0.7816164E-02  0.1320468E+00
        -11   -1    0    0    0    0  0.00000000000E+00  0.00000000000E+00  0.45593999997E+02  0.45594000000E+02  0.51100000000E-03 0.  1.
         11   -1    0    0    0    0 -0.00000000000E+00 -0.00000000000E+00 -0.45593999997E+02  0.45594000000E+02  0.51100000000E-03 0. -1.
    9900012    2    1    2    0    0  0.29432884109E+02  0.16115349766E+02  0.30051859919E+02  0.46142318192E+02  0.10000003925E+02 0.  0.
         12    1    1    2    0    0 -0.29432884109E+02 -0.16115349766E+02 -0.30051859919E+02  0.45045681808E+02  0.00000000000E+00 0. -1.
         11    1    3    3    0    0  0.41651194403E+01 -0.31859609248E-02  0.57553818812E+01  0.71044106696E+01  0.51100000000E-03 0. -1.
        -11    1    3    3    0    0  0.11139673976E+02  0.36828984058E+01  0.91520169381E+01  0.14880036669E+02  0.51100000000E-03 0.  1.
         12    1    3    3    0    0  0.14128090692E+02  0.12435637321E+02  0.15144461099E+02  0.24157870853E+02  0.00000000000E+00 0. -1.
</event>
<event>
 7    1  0.2438448E-008  0.4614232E+02  0.7816164E-02  0.1320468E+00
        -11   -1    0    0    0    0  0.00000000000E+00  0.00000000000E+00  0.45593999997E+02  0.45594000000E+02  0.51100000000E-03 0.  1.
         11   -1    0    0    0    0 -0.00000000000E+00 -0.00000000000E+00 -0.45593999997E+02  0.45594000000E+02  0.51100000000E-03 0. -1.
    9900012    2    1    2    0    0 -0.22565918265E+02  0.38941653372E+02 -0.18548474754E+01  0.46142317703E+02  0.99999994691E+01 0.  0.
         12    1    1    2    0    0  0.22565918265E+02 -0.38941653372E+02  0.18548474754E+01  0.45045682297E+02  0.00000000000E+00 0. -1.
         11    1    3    3    0    0 -0.57979827692E+01  0.91155522664E+01 -0.29475445064E+01  0.11198121101E+02  0.51100000000E-03 0. -1.
        -11    1    3    3    0    0 -0.65806765824E+01  0.70870450118E+01  0.24956149117E+01  0.99879730341E+01  0.51100000000E-03 0.  1.
        -12    1    3    3    0    0 -0.10187258913E+02  0.22739056093E+02 -0.14029178806E+01  0.24956223568E+02  0.00000000000E+00 0.  1.
</event>
<event>
 7    1  0.2438448E-008  0.4614232E+02  0.7816164E-02  0.1320468E+00
        -11   -1    0    0    0    0  0.00000000000E+00  0.00000000000E+00  0.45593999997E+02  0.45594000000E+02  0.51100000000E-03 0. -1.
         11   -1    0    0    0    0 -0.00000000000E+00 -0.00000000000E+00 -0.45593999997E+02  0.45594000000E+02  0.51100000000E-03 0.  1.
    9900012    2    1    2    0    0 -0.32176606205E+02 -0.23979847142E+02 -0.20463294388E+02  0.46142317932E+02  0.10000001554E+02 0.  0.
         12    1    1    2    0    0  0.32176606205E+02  0.23979847142E+02  0.20463294388E+02  0.45045682068E+02  0.00000000000E+00 0. -1.
         11    1    3    3    0    0 -0.11205194582E+00  0.14716973098E+00 -0.77787516701E-01  0.20066321824E+00  0.51100000000E-03 0. -1.
        -11    1    3    3    0    0 -0.24880417552E+02 -0.17615550081E+02 -0.10893583426E+02  0.32373028007E+02  0.51100000000E-03 0.  1.
        -12    1    3    3    0    0 -0.71841367065E+01 -0.65114667923E+01 -0.94919234453E+01  0.13568626706E+02  0.00000000000E+00 0.  1.
</event>
<event>
 7    1  0.2438448E-008  0.4614232E+02  0.7816164E-02  0.1320468E+00
        -11   -1    0    0    0    0  0.00000000000E+00  0.00000000000E+00  0.45593999997E+02  0.45594000000E+02  0.51100000000E-03 0. -1.
         11   -1    0    0    0    0 -0.00000000000E+00 -0.00000000000E+00 -0.45593999997E+02  0.45594000000E+02  0.51100000000E-03 0.  1.
    9900012    2    1    2    0    0 -0.26676307494E+02 -0.36216949342E+02  0.24125947394E+01  0.46142318581E+02  0.10000007478E+02 0.  0.
         12    1    1    2    0    0  0.26676307494E+02  0.36216949342E+02 -0.24125947394E+01  0.45045681419E+02  0.00000000000E+00 0. -1.
         11    1    3    3    0    0 -0.67403248653E+01 -0.39228651982E+01  0.34907008716E+00  0.78065806113E+01  0.51100000000E-03 0. -1.
        -11    1    3    3    0    0 -0.56160532295E+01 -0.91559153839E+01  0.28523793973E+01  0.11113366226E+02  0.51100000000E-03 0.  1.
        -12    1    3    3    0    0 -0.14319929399E+02 -0.23138168760E+02 -0.78885474500E+00  0.27222371743E+02  0.00000000000E+00 0.  1.
</event>
<event>
 7    1  0.2438448E-008  0.4614232E+02  0.7816164E-02  0.1320468E+00
        -11   -1    0    0    0    0  0.00000000000E+00  0.00000000000E+00  0.45593999997E+02  0.45594000000E+02  0.51100000000E-03 0.  1.
         11   -1    0    0    0    0 -0.00000000000E+00 -0.00000000000E+00 -0.45593999997E+02  0.45594000000E+02  0.51100000000E-03 0. -1.
    9900012    2    1    2    0    0 -0.83322834217E+01 -0.28785374047E+02  0.33631663963E+02  0.46142317333E+02  0.99999960941E+01 0.  0.
         12    1    1    2    0    0  0.83322834217E+01  0.28785374047E+02 -0.33631663963E+02  0.45045682667E+02  0.00000000000E+00 0. -1.
         11    1    3    3    0    0 -0.25961642861E+01 -0.36878803329E+01  0.39259095583E+01  0.59794060300E+01  0.51100000000E-03 0. -1.
        -11    1    3    3    0    0 -0.34424506966E+01 -0.24365167902E+02  0.27429005710E+02  0.36849182192E+02  0.51100000000E-03 0.  1.
         12    1    3    3    0    0 -0.22936684391E+01 -0.73232581184E+00  0.22767486945E+01  0.33137291110E+01  0.00000000000E+00 0. -1.
</event>
<event>
 7    1  0.2438448E-008  0.4614232E+02  0.7816164E-02  0.1320468E+00
        -11   -1    0    0    0    0  0.00000000000E+00  0.00000000000E+00  0.45593999997E+02  0.45594000000E+02  0.51100000000E-03 0.  1.
         11   -1    0    0    0    0 -0.00000000000E+00 -0.00000000000E+00 -0.45593999997E+02  0.45594000000E+02  0.51100000000E-03 0. -1.
    9900012    2    1    2    0    0 -0.34991068041E+01 -0.19394607534E+02  0.40505789121E+02  0.46142317608E+02  0.99999986076E+01 0.  0.
         12    1    1    2    0    0  0.34991068041E+01  0.19394607534E+02 -0.40505789121E+02  0.45045682392E+02  0.00000000000E+00 0. -1.
         11    1    3    3    0    0 -0.35392516775E+01 -0.95917336869E+01  0.10983233503E+02  0.15005301596E+02  0.51100000000E-03 0. -1.
        -11    1    3    3    0    0 -0.20171084496E+00 -0.24508929090E+01  0.57899916168E+01  0.62905934934E+01  0.51100000000E-03 0.  1.
        -12    1    3    3    0    0  0.24185571840E+00 -0.73519809378E+01  0.23732564001E+02  0.24846422519E+02  0.00000000000E+00 0.  1.
</event>
<event>
 7    1  0.2438448E-008  0.4614232E+02  0.7816164E-02  0.1320468E+00
        -11   -1    0    0    0    0  0.00000000000E+00  0.00000000000E+00  0.45593999997E+02  0.45594000000E+02  0.51100000000E-03 0.  1.
         11   -1    0    0    0    0 -0.00000000000E+00 -0.00000000000E+00 -0.45593999997E+02  0.45594000000E+02  0.51100000000E-03 0. -1.
    9900012    2    1    2    0    0 -0.16197027166E+01  0.43146660587E+02 -0.12839622210E+02  0.46142315909E+02  0.99999831133E+01 0.  0.
         12    1    1    2    0    0  0.16197027166E+01 -0.43146660587E+02  0.12839622210E+02  0.45045684091E+02  0.00000000000E+00 0. -1.
         11    1    3    3    0    0  0.30021027931E+00  0.51247238281E+01 -0.27326203166E+01  0.58155081104E+01  0.51100000000E-03 0. -1.
        -11    1    3    3    0    0  0.15869571349E+01  0.43398935630E+01  0.92187762486E+00  0.47120025151E+01  0.51100000000E-03 0.  1.
        -12    1    3    3    0    0 -0.35068701308E+01  0.33682043196E+02 -0.11028879518E+02  0.35614805284E+02  0.00000000000E+00 0.  1.
</event>
<event>
 7    1  0.2438448E-008  0.4614232E+02  0.7816164E-02  0.1320468E+00
        -11   -1    0    0    0    0  0.00000000000E+00  0.00000000000E+00  0.45593999997E+02  0.45594000000E+02  0.51100000000E-03 0. -1.
         11   -1    0    0    0    0 -0.00000000000E+00 -0.00000000000E+00 -0.45593999997E+02  0.45594000000E+02  0.51100000000E-03 0.  1.
    9900012    2    1    2    0    0  0.36458288854E+02  0.25109410195E+02 -0.83321180868E+01  0.46142317651E+02  0.99999989962E+01 0.  0.
         12    1    1    2    0    0 -0.36458288854E+02 -0.25109410195E+02  0.83321180868E+01  0.45045682349E+02  0.00000000000E+00 0. -1.
         11    1    3    3    0    0  0.63583428986E+01  0.72642318850E+01 -0.47343752617E+01  0.10752297367E+02  0.51100000000E-03 0. -1.
        -11    1    3    3    0    0  0.17223307631E+02  0.86168073655E+01 -0.60685183588E+00  0.19268107440E+02  0.51100000000E-03 0.  1.
         12    1    3    3    0    0  0.12876638324E+02  0.92283709446E+01 -0.29908909892E+01  0.16121912844E+02  0.00000000000E+00 0. -1.
</event>
<event>
 7    1  0.2438448E-008  0.4614232E+02  0.7816164E-02  0.1320468E+00
        -11   -1    0    0    0    0  0.00000000000E+00  0.00000000000E+00  0.45593999997E+02  0.45594000000E+02  0.51100000000E-03 0.  1.
         11   -1    0    0    0    0 -0.00000000000E+00 -0.00000000000E+00 -0.45593999997E+02  0.45594000000E+02  0.51100000000E-03 0. -1.
    9900012    2    1    2    0    0 -0.17697579945E+02 -0.40514577522E+02  0.86300741272E+01  0.46142317553E+02  0.99999981032E+01 0.  0.
         12    1    1    2    0    0  0.17697579945E+02  0.40514577522E+02 -0.86300741272E+01  0.45045682447E+02  0.00000000000E+00 0. -1.
         11    1    3    3    0    0 -0.46701805509E+01 -0.17544143527E+02  0.37087952938E+01  0.18530049144E+02  0.51100000000E-03 0. -1.
        -11    1    3    3    0    0 -0.63945352046E+01 -0.16863253559E+02  0.44913259737E+01  0.18585785169E+02  0.51100000000E-03 0.  1.
         12    1    3    3    0    0 -0.66328641896E+01 -0.61071804353E+01  0.42995285978E+00  0.90264832403E+01  0.00000000000E+00 0. -1.
</event>
<event>
 7    1  0.2438448E-008  0.4614232E+02  0.7816164E-02  0.1320468E+00
        -11   -1    0    0    0    0  0.00000000000E+00  0.00000000000E+00  0.45593999997E+02  0.45594000000E+02  0.51100000000E-03 0.  1.
         11   -1    0    0    0    0 -0.00000000000E+00 -0.00000000000E+00 -0.45593999997E+02  0.45594000000E+02  0.51100000000E-03 0. -1.
    9900012    2    1    2    0    0 -0.19989498591E+02  0.28455449320E+01  0.40267062493E+02  0.46142317613E+02  0.99999986483E+01 0.  0.
         12    1    1    2    0    0  0.19989498591E+02 -0.28455449320E+01 -0.40267062493E+02  0.45045682387E+02  0.00000000000E+00 0. -1.
         11    1    3    3    0    0  0.90098181993E+00 -0.16046838388E+00  0.31858037833E+01  0.33146439249E+01  0.51100000000E-03 0. -1.
        -11    1    3    3    0    0 -0.40801362229E+01  0.71153817185E+00  0.10568027732E+02  0.11350639127E+02  0.51100000000E-03 0.  1.
        -12    1    3    3    0    0 -0.16810344188E+02  0.22944751440E+01  0.26513230978E+02  0.31477034561E+02  0.00000000000E+00 0.  1.
</event>
<event>
 7    1  0.2438448E-008  0.4614232E+02  0.7816164E-02  0.1320468E+00
        -11   -1    0    0    0    0  0.00000000000E+00  0.00000000000E+00  0.45593999997E+02  0.45594000000E+02  0.51100000000E-03 0.  1.
         11   -1    0    0    0    0 -0.00000000000E+00 -0.00000000000E+00 -0.45593999997E+02  0.45594000000E+02  0.51100000000E-03 0. -1.
    9900012    2    1    2    0    0 -0.34545870997E+02  0.97129453993E+01  0.27227833214E+02  0.46142318600E+02  0.10000007652E+02 0.  0.
         12    1    1    2    0    0  0.34545870997E+02 -0.97129453993E+01 -0.27227833214E+02  0.45045681400E+02  0.00000000000E+00 0. -1.
         11    1    3    3    0    0 -0.70081896766E+01  0.57442947583E+01  0.41751427678E+01  0.99771469973E+01  0.51100000000E-03 0.  1.
        -11    1    3    3    0    0 -0.10354282286E+02  0.13848329640E+01  0.96319420773E+01  0.14209265725E+02  0.51100000000E-03 0. -1.
        -12    1    3    3    0    0 -0.17183399034E+02  0.25838176770E+01  0.13420748368E+02  0.21955905878E+02  0.00000000000E+00 0.  1.
</event>
<event>
 7    1  0.2438448E-008  0.4614232E+02  0.7816164E-02  0.1320468E+00
        -11   -1    0    0    0    0  0.00000000000E+00  0.00000000000E+00  0.45593999997E+02  0.45594000000E+02  0.51100000000E-03 0.  1.
         11   -1    0    0    0    0 -0.00000000000E+00 -0.00000000000E+00 -0.45593999997E+02  0.45594000000E+02  0.51100000000E-03 0. -1.
    9900012    2    1    2    0    0 -0.71846363511E+01 -0.27293395007E+01  0.44385191728E+02  0.46142317207E+02  0.99999949453E+01 0.  0.
         12    1    1    2    0    0  0.71846363511E+01  0.27293395007E+01 -0.44385191728E+02  0.45045682793E+02  0.00000000000E+00 0. -1.
         11    1    3    3    0    0 -0.31638838194E+01 -0.14072119415E+01  0.20738008777E+02  0.21025113901E+02  0.51100000000E-03 0.  1.
        -11    1    3    3    0    0  0.77364160654E+00  0.16147104141E+01  0.17276768733E+01  0.24881074527E+01  0.51100000000E-03 0. -1.
         12    1    3    3    0    0 -0.47943941382E+01 -0.29368379733E+01  0.21919506078E+02  0.22629095853E+02  0.00000000000E+00 0. -1.
</event>
<event>
 7    1  0.2438448E-008  0.4614232E+02  0.7816164E-02  0.1320468E+00
        -11   -1    0    0    0    0  0.00000000000E+00  0.00000000000E+00  0.45593999997E+02  0.45594000000E+02  0.51100000000E-03 0. -1.
         11   -1    0    0    0    0 -0.00000000000E+00 -0.00000000000E+00 -0.45593999997E+02  0.45594000000E+02  0.51100000000E-03 0.  1.
    9900012    2    1    2    0    0  0.41911919934E+02  0.16202171959E+02  0.31613387824E+01  0.46142317947E+02  0.10000001691E+02 0.  0.
         12    1    1    2    0    0 -0.41911919934E+02 -0.16202171959E+02 -0.31613387824E+01  0.45045682053E+02  0.00000000000E+00 0. -1.
         11    1    3    3    0    0  0.13985982086E+02  0.35944109173E+01  0.25974569675E+00  0.14442816652E+02  0.51100000000E-03 0. -1.
        -11    1    3    3    0    0  0.60457061222E+01  0.37129328540E+01 -0.24054480108E+01  0.74915027390E+01  0.51100000000E-03 0.  1.
        -12    1    3    3    0    0  0.21880231726E+02  0.88948281879E+01  0.53070410965E+01  0.24207998555E+02  0.00000000000E+00 0.  1.
</event>
<event>
 7    1  0.2438448E-008  0.4614232E+02  0.7816164E-02  0.1320468E+00
        -11   -1    0    0    0    0  0.00000000000E+00  0.00000000000E+00  0.45593999997E+02  0.45594000000E+02  0.51100000000E-03 0.  1.
         11   -1    0    0    0    0 -0.00000000000E+00 -0.00000000000E+00 -0.45593999997E+02  0.45594000000E+02  0.51100000000E-03 0. -1.
    9900012    2    1    2    0    0  0.23865967613E+02  0.19736322797E+02  0.32710957690E+02  0.46142316515E+02  0.99999886348E+01 0.  0.
         12    1    1    2    0    0 -0.23865967613E+02 -0.19736322797E+02 -0.32710957690E+02  0.45045683485E+02  0.00000000000E+00 0. -1.
         11    1    3    3    0    0  0.51033687506E+01  0.83053971356E+01  0.87181177018E+01  0.13077827446E+02  0.51100000000E-03 0. -1.
        -11    1    3    3    0    0  0.16923539265E+02  0.11854912963E+02  0.20570860679E+02  0.29156567904E+02  0.51100000000E-03 0.  1.
        -12    1    3    3    0    0  0.18390595968E+01 -0.42398730158E+00  0.34219793097E+01  0.39079211646E+01  0.00000000000E+00 0.  1.
</event>
<event>
 7    1  0.2438448E-008  0.4614232E+02  0.7816164E-02  0.1320468E+00
        -11   -1    0    0    0    0  0.00000000000E+00  0.00000000000E+00  0.45593999997E+02  0.45594000000E+02  0.51100000000E-03 0.  1.
         11   -1    0    0    0    0 -0.00000000000E+00 -0.00000000000E+00 -0.45593999997E+02  0.45594000000E+02  0.51100000000E-03 0. -1.
    9900012    2    1    2    0    0  0.71776453501E+01  0.31187347384E+02  0.31700854711E+02  0.46142318531E+02  0.10000007018E+02 0.  0.
         12    1    1    2    0    0 -0.71776453501E+01 -0.31187347384E+02 -0.31700854711E+02  0.45045681469E+02  0.00000000000E+00 0. -1.
         11    1    3    3    0    0  0.78244865991E+00  0.94294578607E-01 -0.29808979088E+00  0.84260023587E+00  0.51100000000E-03 0. -1.
        -11    1    3    3    0    0  0.14285545002E+01  0.11076604913E+02  0.85049468415E+01  0.14038022132E+02  0.51100000000E-03 0.  1.
        -12    1    3    3    0    0  0.49666421900E+01  0.20016447893E+02  0.23493997660E+02  0.31261696162E+02  0.00000000000E+00 0.  1.
</event>
<event>
 7    1  0.2438448E-008  0.4614232E+02  0.7816164E-02  0.1320468E+00
        -11   -1    0    0    0    0  0.00000000000E+00  0.00000000000E+00  0.45593999997E+02  0.45594000000E+02  0.51100000000E-03 0.  1.
         11   -1    0    0    0    0 -0.00000000000E+00 -0.00000000000E+00 -0.45593999997E+02  0.45594000000E+02  0.51100000000E-03 0. -1.
    9900012    2    1    2    0    0 -0.22265240847E+02  0.36268421204E+02  0.14763949675E+02  0.46142317226E+02  0.99999951172E+01 0.  0.
         12    1    1    2    0    0  0.22265240847E+02 -0.36268421204E+02 -0.14763949675E+02  0.45045682774E+02  0.00000000000E+00 0. -1.
         11    1    3    3    0    0 -0.26024016887E+01  0.14980776634E+01  0.45258159394E+00  0.30367024212E+01  0.51100000000E-03 0. -1.
        -11    1    3    3    0    0  0.13622142890E+00  0.55437649631E+00  0.14116509648E+01  0.15227108343E+01  0.51100000000E-03 0.  1.
        -12    1    3    3    0    0 -0.19799060587E+02  0.34215967044E+02  0.12899717117E+02  0.41582903970E+02  0.00000000000E+00 0.  1.
</event>
<event>
 7    1  0.2438448E-008  0.4614232E+02  0.7816164E-02  0.1320468E+00
        -11   -1    0    0    0    0  0.00000000000E+00  0.00000000000E+00  0.45593999997E+02  0.45594000000E+02  0.51100000000E-03 0.  1.
         11   -1    0    0    0    0 -0.00000000000E+00 -0.00000000000E+00 -0.45593999997E+02  0.45594000000E+02  0.51100000000E-03 0. -1.
    9900012    2    1    2    0    0 -0.11432209312E+02  0.28563464345E+02  0.32902073067E+02  0.46142319661E+02  0.10000017320E+02 0.  0.
         12    1    1    2    0    0  0.11432209312E+02 -0.28563464345E+02 -0.32902073067E+02  0.45045680339E+02  0.00000000000E+00 0. -1.
         11    1    3    3    0    0 -0.48409373952E+01  0.64615225306E+01  0.12476585289E+02  0.14861060831E+02  0.51100000000E-03 0. -1.
        -11    1    3    3    0    0 -0.51178182864E+01  0.10488691305E+02  0.12739931859E+02  0.17277458533E+02  0.51100000000E-03 0.  1.
         12    1    3    3    0    0 -0.14734536307E+01  0.11613250509E+02  0.76855559193E+01  0.14003800297E+02  0.00000000000E+00 0. -1.
</event>
<event>
 7    1  0.2438448E-008  0.4614232E+02  0.7816164E-02  0.1320468E+00
        -11   -1    0    0    0    0  0.00000000000E+00  0.00000000000E+00  0.45593999997E+02  0.45594000000E+02  0.51100000000E-03 0.  1.
         11   -1    0    0    0    0 -0.00000000000E+00 -0.00000000000E+00 -0.45593999997E+02  0.45594000000E+02  0.51100000000E-03 0. -1.
    9900012    2    1    2    0    0  0.32642952094E+02 -0.20234993499E+02  0.23539247278E+02  0.46142318234E+02  0.10000004310E+02 0.  0.
         12    1    1    2    0    0 -0.32642952094E+02  0.20234993499E+02 -0.23539247278E+02  0.45045681766E+02  0.00000000000E+00 0. -1.
         11    1    3    3    0    0  0.11672172396E+02 -0.28786152924E+01  0.81716242290E+01  0.14536212617E+02  0.51100000000E-03 0. -1.
        -11    1    3    3    0    0  0.18109928112E+02 -0.13253977503E+02  0.13883299775E+02  0.26389077831E+02  0.51100000000E-03 0.  1.
         12    1    3    3    0    0  0.28608515869E+01 -0.41024007039E+01  0.14843232744E+01  0.52170277861E+01  0.00000000000E+00 0. -1.
</event>
<event>
 7    1  0.2438448E-008  0.4614232E+02  0.7816164E-02  0.1320468E+00
        -11   -1    0    0    0    0  0.00000000000E+00  0.00000000000E+00  0.45593999997E+02  0.45594000000E+02  0.51100000000E-03 0.  1.
         11   -1    0    0    0    0 -0.00000000000E+00 -0.00000000000E+00 -0.45593999997E+02  0.45594000000E+02  0.51100000000E-03 0. -1.
    9900012    2    1    2    0    0  0.32486097128E+02 -0.11196845080E+02  0.29127262922E+02  0.46142319944E+02  0.10000019909E+02 0.  0.
         12    1    1    2    0    0 -0.32486097128E+02  0.11196845080E+02 -0.29127262922E+02  0.45045680056E+02  0.00000000000E+00 0. -1.
         11    1    3    3    0    0  0.70862336043E+01 -0.22533473252E+01  0.18218942542E+01  0.76558199951E+01  0.51100000000E-03 0. -1.
        -11    1    3    3    0    0  0.88041318730E+01 -0.15119453958E+01  0.93699246535E+01  0.12945818058E+02  0.51100000000E-03 0.  1.
        -12    1    3    3    0    0  0.16595731651E+02 -0.74315523594E+01  0.17935444014E+02  0.25540681891E+02  0.00000000000E+00 0.  1.
</event>
<event>
 7    1  0.2438448E-008  0.4614231E+02  0.7816164E-02  0.1320468E+00
        -11   -1    0    0    0    0  0.00000000000E+00  0.00000000000E+00  0.45593999997E+02  0.45594000000E+02  0.51100000000E-03 0.  1.
         11   -1    0    0    0    0 -0.00000000000E+00 -0.00000000000E+00 -0.45593999997E+02  0.45594000000E+02  0.51100000000E-03 0. -1.
    9900012    2    1    2    0    0  0.20533854341E+02  0.23494381798E+02  0.32488295996E+02  0.46142306233E+02  0.99998948807E+01 0.  0.
         12    1    1    2    0    0 -0.20533854341E+02 -0.23494381798E+02 -0.32488295996E+02  0.45045693767E+02  0.00000000000E+00 0. -1.
         11    1    3    3    0    0  0.16049111645E+01  0.32040670969E+00  0.22160226577E+01  0.27548424612E+01  0.51100000000E-03 0. -1.
        -11    1    3    3    0    0  0.14356296323E+02  0.20269197554E+02  0.28221104805E+02  0.37594871595E+02  0.51100000000E-03 0.  1.
         12    1    3    3    0    0  0.45726468540E+01  0.29047775347E+01  0.20511685334E+01  0.57925921771E+01  0.00000000000E+00 0. -1.
</event>
<event>
 7    1  0.2438448E-008  0.4614232E+02  0.7816164E-02  0.1320468E+00
        -11   -1    0    0    0    0  0.00000000000E+00  0.00000000000E+00  0.45593999997E+02  0.45594000000E+02  0.51100000000E-03 0. -1.
         11   -1    0    0    0    0 -0.00000000000E+00 -0.00000000000E+00 -0.45593999997E+02  0.45594000000E+02  0.51100000000E-03 0.  1.
    9900012    2    1    2    0    0  0.20711070025E+02 -0.31518809922E+02 -0.24631882914E+02  0.46142318116E+02  0.10000003240E+02 0.  0.
         12    1    1    2    0    0 -0.20711070025E+02  0.31518809922E+02  0.24631882914E+02  0.45045681884E+02  0.00000000000E+00 0. -1.
         11    1    3    3    0    0  0.89355204179E+01 -0.69134565545E+01 -0.42431791911E+01  0.12068304627E+02  0.51100000000E-03 0. -1.
        -11    1    3    3    0    0  0.21442889690E+01 -0.47380471601E+01 -0.44279497837E+01  0.68303591137E+01  0.51100000000E-03 0.  1.
         12    1    3    3    0    0  0.96312606377E+01 -0.19867306207E+02 -0.15960753940E+02  0.27243654375E+02  0.00000000000E+00 0. -1.
</event>
<event>
 7    1  0.2438448E-008  0.4614232E+02  0.7816164E-02  0.1320468E+00
        -11   -1    0    0    0    0  0.00000000000E+00  0.00000000000E+00  0.45593999997E+02  0.45594000000E+02  0.51100000000E-03 0.  1.
         11   -1    0    0    0    0 -0.00000000000E+00 -0.00000000000E+00 -0.45593999997E+02  0.45594000000E+02  0.51100000000E-03 0. -1.
    9900012    2    1    2    0    0  0.17608040723E+02  0.71133439772E+00  0.41455571822E+02  0.46142317301E+02  0.99999958038E+01 0.  0.
         12    1    1    2    0    0 -0.17608040723E+02 -0.71133439772E+00 -0.41455571822E+02  0.45045682699E+02  0.00000000000E+00 0. -1.
         11    1    3    3    0    0  0.11210426534E+02  0.27380288098E+01  0.20342547707E+02  0.23387811191E+02  0.51100000000E-03 0. -1.
        -11    1    3    3    0    0  0.49289862745E+01  0.10822155122E+01  0.12728519285E+02  0.13692381077E+02  0.51100000000E-03 0.  1.
        -12    1    3    3    0    0  0.14686279154E+01 -0.31089099243E+01  0.83845048301E+01  0.90621250332E+01  0.00000000000E+00 0.  1.
</event>
<event>
 7    1  0.2438448E-008  0.4614232E+02  0.7816164E-02  0.1320468E+00
        -11   -1    0    0    0    0  0.00000000000E+00  0.00000000000E+00  0.45593999997E+02  0.45594000000E+02  0.51100000000E-03 0.  1.
         11   -1    0    0    0    0 -0.00000000000E+00 -0.00000000000E+00 -0.45593999997E+02  0.45594000000E+02  0.51100000000E-03 0. -1.
    9900012    2    1    2    0    0 -0.30035338234E+02 -0.26128823029E+01  0.33468862949E+02  0.46142317811E+02  0.10000000457E+02 0.  0.
         12    1    1    2    0    0  0.30035338234E+02  0.26128823029E+01 -0.33468862949E+02  0.45045682189E+02  0.00000000000E+00 0. -1.
         11    1    3    3    0    0 -0.10395607672E+01  0.68752596121E+00 -0.32993913501E+00  0.12892783369E+01  0.51100000000E-03 0. -1.
        -11    1    3    3    0    0 -0.79405652550E+01  0.44882677280E+00  0.72507801101E+01  0.10762334064E+02  0.51100000000E-03 0.  1.
         12    1    3    3    0    0 -0.21055212212E+02 -0.37492350369E+01  0.26548021974E+02  0.34090705410E+02  0.00000000000E+00 0. -1.
</event>
<event>
 7    1  0.2438448E-008  0.4614232E+02  0.7816164E-02  0.1320468E+00
        -11   -1    0    0    0    0  0.00000000000E+00  0.00000000000E+00  0.45593999997E+02  0.45594000000E+02  0.51100000000E-03 0.  1.
         11   -1    0    0    0    0 -0.00000000000E+00 -0.00000000000E+00 -0.45593999997E+02  0.45594000000E+02  0.51100000000E-03 0. -1.
    9900012    2    1    2    0    0  0.24148228999E+02  0.37987647605E+02  0.17073651496E+01  0.46142318407E+02  0.10000005893E+02 0.  0.
         12    1    1    2    0    0 -0.24148228999E+02 -0.37987647605E+02 -0.17073651496E+01  0.45045681593E+02  0.00000000000E+00 0. -1.
         11    1    3    3    0    0 -0.59987156852E+00  0.77956041244E-02  0.70878731731E-01  0.60409496431E+00  0.51100000000E-03 0. -1.
        -11    1    3    3    0    0  0.11865300725E+02  0.16491996504E+02 -0.10301781812E+01  0.20342875346E+02  0.51100000000E-03 0.  1.
        -12    1    3    3    0    0  0.12882799843E+02  0.21487855497E+02  0.26666645991E+01  0.25195348097E+02  0.00000000000E+00 0.  1.
</event>
<event>
 7    1  0.2438448E-008  0.4614232E+02  0.7816164E-02  0.1320468E+00
        -11   -1    0    0    0    0  0.00000000000E+00  0.00000000000E+00  0.45593999997E+02  0.45594000000E+02  0.51100000000E-03 0. -1.
         11   -1    0    0    0    0 -0.00000000000E+00 -0.00000000000E+00 -0.45593999997E+02  0.45594000000E+02  0.51100000000E-03 0.  1.
    9900012    2    1    2    0    0 -0.10890484510E+02 -0.42949912627E+02 -0.81126975363E+01  0.46142317534E+02  0.99999979274E+01 0.  0.
         12    1    1    2    0    0  0.10890484510E+02  0.42949912627E+02  0.81126975363E+01  0.45045682466E+02  0.00000000000E+00 0. -1.
         11    1    3    3    0    0 -0.49107248912E+01 -0.14841112007E+02 -0.13173520451E+01  0.15687869239E+02  0.51100000000E-03 0. -1.
        -11    1    3    3    0    0 -0.37089555396E+01 -0.21779376494E+02 -0.82346717085E+01  0.23577688819E+02  0.51100000000E-03 0.  1.
         12    1    3    3    0    0 -0.22708040794E+01 -0.63294241255E+01  0.14393262173E+01  0.68767594757E+01  0.00000000000E+00 0. -1.
</event>
<event>
 7    1  0.2438448E-008  0.4614232E+02  0.7816164E-02  0.1320468E+00
        -11   -1    0    0    0    0  0.00000000000E+00  0.00000000000E+00  0.45593999997E+02  0.45594000000E+02  0.51100000000E-03 0.  1.
         11   -1    0    0    0    0 -0.00000000000E+00 -0.00000000000E+00 -0.45593999997E+02  0.45594000000E+02  0.51100000000E-03 0. -1.
    9900012    2    1    2    0    0  0.80773595722E+01 -0.43585241793E+02  0.80122713242E+01  0.46142317282E+02  0.99999956292E+01 0.  0.
         12    1    1    2    0    0 -0.80773595722E+01  0.43585241793E+02 -0.80122713242E+01  0.45045682718E+02  0.00000000000E+00 0. -1.
         11    1    3    3    0    0  0.40693655405E+00 -0.11299424393E+02  0.99345921569E+00  0.11350310588E+02  0.51100000000E-03 0. -1.
        -11    1    3    3    0    0  0.12850758087E+01 -0.20892132728E+02  0.31295798670E+01  0.21164283597E+02  0.51100000000E-03 0.  1.
         12    1    3    3    0    0  0.63853472094E+01 -0.11393684672E+02  0.38892322416E+01  0.13627723097E+02  0.00000000000E+00 0. -1.
</event>
<event>
 7    1  0.2438448E-008  0.4614232E+02  0.7816164E-02  0.1320468E+00
        -11   -1    0    0    0    0  0.00000000000E+00  0.00000000000E+00  0.45593999997E+02  0.45594000000E+02  0.51100000000E-03 0.  1.
         11   -1    0    0    0    0 -0.00000000000E+00 -0.00000000000E+00 -0.45593999997E+02  0.45594000000E+02  0.51100000000E-03 0. -1.
    9900012    2    1    2    0    0 -0.35837028688E+02  0.34152724595E+01  0.27076868185E+02  0.46142317611E+02  0.99999986336E+01 0.  0.
         12    1    1    2    0    0  0.35837028688E+02 -0.34152724595E+01 -0.27076868185E+02  0.45045682389E+02  0.00000000000E+00 0. -1.
         11    1    3    3    0    0 -0.31451339994E+02  0.43878893894E+01  0.24824944197E+02  0.40307793481E+02  0.51100000000E-03 0. -1.
        -11    1    3    3    0    0 -0.16827877256E+00  0.40548865330E+00  0.11955969852E+01  0.12736527020E+01  0.51100000000E-03 0.  1.
         12    1    3    3    0    0 -0.42174099215E+01 -0.13781055832E+01  0.10563270033E+01  0.45608714280E+01  0.00000000000E+00 0. -1.
</event>
<event>
 7    1  0.2438448E-008  0.4614232E+02  0.7816164E-02  0.1320468E+00
        -11   -1    0    0    0    0  0.00000000000E+00  0.00000000000E+00  0.45593999997E+02  0.45594000000E+02  0.51100000000E-03 0.  1.
         11   -1    0    0    0    0 -0.00000000000E+00 -0.00000000000E+00 -0.45593999997E+02  0.45594000000E+02  0.51100000000E-03 0. -1.
    9900012    2    1    2    0    0 -0.67863955511E+01  0.16268580636E+02  0.41453486402E+02  0.46142318571E+02  0.10000007386E+02 0.  0.
         12    1    1    2    0    0  0.67863955511E+01 -0.16268580636E+02 -0.41453486402E+02  0.45045681429E+02  0.00000000000E+00 0. -1.
         11    1    3    3    0    0 -0.58718495993E+00  0.79495930199E+00  0.28802484003E+00  0.10294197582E+01  0.51100000000E-03 0. -1.
        -11    1    3    3    0    0 -0.58461193657E+01  0.98940624526E+01  0.18589191928E+02  0.21854693781E+02  0.51100000000E-03 0.  1.
        -12    1    3    3    0    0 -0.35309122547E+00  0.55795588819E+01  0.22576269634E+02  0.23258205032E+02  0.00000000000E+00 0.  1.
</event>
<event>
 7    1  0.2438448E-008  0.4614232E+02  0.7816164E-02  0.1320468E+00
        -11   -1    0    0    0    0  0.00000000000E+00  0.00000000000E+00  0.45593999997E+02  0.45594000000E+02  0.51100000000E-03 0.  1.
         11   -1    0    0    0    0 -0.00000000000E+00 -0.00000000000E+00 -0.45593999997E+02  0.45594000000E+02  0.51100000000E-03 0. -1.
    9900012    2    1    2    0    0 -0.19663748527E+02  0.69405032700E+01  0.39928433301E+02  0.46142318990E+02  0.10000011204E+02 0.  0.
         12    1    1    2    0    0  0.19663748527E+02 -0.69405032700E+01 -0.39928433301E+02  0.45045681010E+02  0.00000000000E+00 0. -1.
         11    1    3    3    0    0 -0.39991102681E+01 -0.56240637422E+00  0.63084349783E+01  0.74903628753E+01  0.51100000000E-03 0.  1.
        -11    1    3    3    0    0 -0.15527918737E+02  0.57585094364E+01  0.25946166174E+02  0.30781166817E+02  0.51100000000E-03 0. -1.
        -12    1    3    3    0    0 -0.13671952202E+00  0.17444002078E+01  0.76738321490E+01  0.78707892973E+01  0.00000000000E+00 0.  1.
</event>
<event>
 7    1  0.2438448E-008  0.4614232E+02  0.7816164E-02  0.1320468E+00
        -11   -1    0    0    0    0  0.00000000000E+00  0.00000000000E+00  0.45593999997E+02  0.45594000000E+02  0.51100000000E-03 0.  1.
         11   -1    0    0    0    0 -0.00000000000E+00 -0.00000000000E+00 -0.45593999997E+02  0.45594000000E+02  0.51100000000E-03 0. -1.
    9900012    2    1    2    0    0 -0.39163441043E+02 -0.79280328978E+01  0.20796251689E+02  0.46142324244E+02  0.10000059119E+02 0.  0.
         12    1    1    2    0    0  0.39163441043E+02  0.79280328978E+01 -0.20796251689E+02  0.45045675756E+02  0.00000000000E+00 0. -1.
         11    1    3    3    0    0 -0.22818459462E+01 -0.21636368491E+01  0.20206697318E+00  0.31510278735E+01  0.51100000000E-03 0. -1.
        -11    1    3    3    0    0 -0.26895447773E+02 -0.23449538600E+01  0.12848998036E+02  0.29899175077E+02  0.51100000000E-03 0.  1.
        -12    1    3    3    0    0 -0.99861473241E+01 -0.34194421887E+01  0.77451866799E+01  0.13092121294E+02  0.00000000000E+00 0.  1.
</event>
<event>
 7    1  0.2438448E-008  0.4614232E+02  0.7816164E-02  0.1320468E+00
        -11   -1    0    0    0    0  0.00000000000E+00  0.00000000000E+00  0.45593999997E+02  0.45594000000E+02  0.51100000000E-03 0.  1.
         11   -1    0    0    0    0 -0.00000000000E+00 -0.00000000000E+00 -0.45593999997E+02  0.45594000000E+02  0.51100000000E-03 0. -1.
    9900012    2    1    2    0    0 -0.14094389978E+02 -0.55454075089E+01  0.42422990929E+02  0.46142317269E+02  0.99999955147E+01 0.  0.
         12    1    1    2    0    0  0.14094389978E+02  0.55454075089E+01 -0.42422990929E+02  0.45045682731E+02  0.00000000000E+00 0. -1.
         11    1    3    3    0    0 -0.66550370082E+01 -0.18841320579E+01  0.14052593877E+02  0.15662530643E+02  0.51100000000E-03 0. -1.
        -11    1    3    3    0    0 -0.75749440254E+01 -0.49761524664E+01  0.19401632580E+02  0.21414135924E+02  0.51100000000E-03 0.  1.
         12    1    3    3    0    0  0.13559105546E+00  0.13148770154E+01  0.89687644720E+01  0.90656507022E+01  0.00000000000E+00 0. -1.
</event>
<event>
 7    1  0.2438448E-008  0.4614231E+02  0.7816164E-02  0.1320468E+00
        -11   -1    0    0    0    0  0.00000000000E+00  0.00000000000E+00  0.45593999997E+02  0.45594000000E+02  0.51100000000E-03 0.  1.
         11   -1    0    0    0    0 -0.00000000000E+00 -0.00000000000E+00 -0.45593999997E+02  0.45594000000E+02  0.51100000000E-03 0. -1.
    9900012    2    1    2    0    0 -0.36807494383E+02  0.56465296191E+01  0.25346376559E+02  0.46142314922E+02  0.99999741109E+01 0.  0.
         12    1    1    2    0    0  0.36807494383E+02 -0.56465296191E+01 -0.25346376559E+02  0.45045685078E+02  0.00000000000E+00 0. -1.
         11    1    3    3    0    0 -0.13566183147E+01 -0.80799541717E+00 -0.53839370018E+00  0.16682739234E+01  0.51100000000E-03 0. -1.
        -11    1    3    3    0    0 -0.67410559026E+01  0.17045049384E+01  0.36597382733E+01  0.78575349988E+01  0.51100000000E-03 0.  1.
         12    1    3    3    0    0 -0.28709820165E+02  0.47500200978E+01  0.22225031986E+02  0.36616506000E+02  0.00000000000E+00 0. -1.
</event>
<event>
 7    1  0.2438448E-008  0.4614232E+02  0.7816164E-02  0.1320468E+00
        -11   -1    0    0    0    0  0.00000000000E+00  0.00000000000E+00  0.45593999997E+02  0.45594000000E+02  0.51100000000E-03 0.  1.
         11   -1    0    0    0    0 -0.00000000000E+00 -0.00000000000E+00 -0.45593999997E+02  0.45594000000E+02  0.51100000000E-03 0. -1.
    9900012    2    1    2    0    0 -0.11783030246E+02 -0.44655603100E+01  0.43247342922E+02  0.46142315407E+02  0.99999785322E+01 0.  0.
         12    1    1    2    0    0  0.11783030246E+02  0.44655603100E+01 -0.43247342922E+02  0.45045684593E+02  0.00000000000E+00 0. -1.
         11    1    3    3    0    0 -0.48675750418E+01 -0.10674052875E+01  0.10207672371E+02  0.11359102796E+02  0.51100000000E-03 0.  1.
        -11    1    3    3    0    0 -0.36590789271E+01 -0.53863652090E+01  0.25687800205E+02  0.26500280535E+02  0.51100000000E-03 0. -1.
         12    1    3    3    0    0 -0.32563762770E+01  0.19882101865E+01  0.73518703461E+01  0.82829320768E+01  0.00000000000E+00 0. -1.
</event>
<event>
 7    1  0.2438448E-008  0.4614232E+02  0.7816164E-02  0.1320468E+00
        -11   -1    0    0    0    0  0.00000000000E+00  0.00000000000E+00  0.45593999997E+02  0.45594000000E+02  0.51100000000E-03 0.  1.
         11   -1    0    0    0    0 -0.00000000000E+00 -0.00000000000E+00 -0.45593999997E+02  0.45594000000E+02  0.51100000000E-03 0. -1.
    9900012    2    1    2    0    0 -0.32844164628E+02 -0.23588422822E+02  0.19848443069E+02  0.46142317259E+02  0.99999954191E+01 0.  0.
         12    1    1    2    0    0  0.32844164628E+02  0.23588422822E+02 -0.19848443069E+02  0.45045682741E+02  0.00000000000E+00 0. -1.
         11    1    3    3    0    0 -0.15221695717E+02 -0.97637219767E+01  0.40490884044E+01  0.18531740461E+02  0.51100000000E-03 0. -1.
        -11    1    3    3    0    0 -0.11481775545E+01 -0.14957852591E+01  0.24142060709E+01  0.30633439983E+01  0.51100000000E-03 0.  1.
         12    1    3    3    0    0 -0.16474291356E+02 -0.12328915587E+02  0.13385148594E+02  0.24547232799E+02  0.00000000000E+00 0. -1.
</event>
<event>
 7    1  0.2438448E-008  0.4614232E+02  0.7816164E-02  0.1320468E+00
        -11   -1    0    0    0    0  0.00000000000E+00  0.00000000000E+00  0.45593999997E+02  0.45594000000E+02  0.51100000000E-03 0.  1.
         11   -1    0    0    0    0 -0.00000000000E+00 -0.00000000000E+00 -0.45593999997E+02  0.45594000000E+02  0.51100000000E-03 0. -1.
    9900012    2    1    2    0    0  0.29048960386E+02 -0.30302698869E+02  0.16340678600E+02  0.46142318350E+02  0.10000005366E+02 0.  0.
         12    1    1    2    0    0 -0.29048960386E+02  0.30302698869E+02 -0.16340678600E+02  0.45045681650E+02  0.00000000000E+00 0. -1.
         11    1    3    3    0    0  0.45921967508E+01 -0.68048043620E+01  0.59379013299E+01  0.10131747424E+02  0.51100000000E-03 0.  1.
        -11    1    3    3    0    0  0.11972203036E-01 -0.16032007835E+01  0.93322523586E+00  0.18550756555E+01  0.51100000000E-03 0. -1.
        -12    1    3    3    0    0  0.24444791432E+02 -0.21894693723E+02  0.94695520343E+01  0.34155495270E+02  0.00000000000E+00 0.  1.
</event>
<event>
 7    1  0.2438448E-008  0.4614231E+02  0.7816164E-02  0.1320468E+00
        -11   -1    0    0    0    0  0.00000000000E+00  0.00000000000E+00  0.45593999997E+02  0.45594000000E+02  0.51100000000E-03 0.  1.
         11   -1    0    0    0    0 -0.00000000000E+00 -0.00000000000E+00 -0.45593999997E+02  0.45594000000E+02  0.51100000000E-03 0. -1.
    9900012    2    1    2    0    0  0.41789515029E+02  0.14154661748E+02  0.90772146174E+01  0.46142313850E+02  0.99999643360E+01 0.  0.
         12    1    1    2    0    0 -0.41789515029E+02 -0.14154661748E+02 -0.90772146174E+01  0.45045686150E+02  0.00000000000E+00 0. -1.
         11    1    3    3    0    0  0.26807496227E+02  0.60520151754E+01  0.49588394877E+01  0.27925952642E+02  0.51100000000E-03 0. -1.
        -11    1    3    3    0    0  0.10125056725E+02  0.30865447091E+01  0.37311537772E+01  0.11223414841E+02  0.51100000000E-03 0.  1.
        -12    1    3    3    0    0  0.48569620764E+01  0.50161018630E+01  0.38722135255E+00  0.69929463667E+01  0.00000000000E+00 0.  1.
</event>
<event>
 7    1  0.2438448E-008  0.4614232E+02  0.7816164E-02  0.1320468E+00
        -11   -1    0    0    0    0  0.00000000000E+00  0.00000000000E+00  0.45593999997E+02  0.45594000000E+02  0.51100000000E-03 0.  1.
         11   -1    0    0    0    0 -0.00000000000E+00 -0.00000000000E+00 -0.45593999997E+02  0.45594000000E+02  0.51100000000E-03 0. -1.
    9900012    2    1    2    0    0  0.12507939600E+02 -0.60717228854E+01  0.42846227012E+02  0.46142317177E+02  0.99999946759E+01 0.  0.
         12    1    1    2    0    0 -0.12507939600E+02  0.60717228854E+01 -0.42846227012E+02  0.45045682823E+02  0.00000000000E+00 0. -1.
         11    1    3    3    0    0  0.35025501562E+01 -0.26552114583E+01  0.70937575158E+01  0.83450225547E+01  0.51100000000E-03 0. -1.
        -11    1    3    3    0    0  0.71890487886E+01 -0.35566072805E+01  0.34856018764E+02  0.35766938954E+02  0.51100000000E-03 0.  1.
        -12    1    3    3    0    0  0.18163406556E+01  0.14009585339E+00  0.89645073216E+00  0.20303556685E+01  0.00000000000E+00 0.  1.
</event>
<event>
 7    1  0.2438448E-008  0.4614232E+02  0.7816164E-02  0.1320468E+00
        -11   -1    0    0    0    0  0.00000000000E+00  0.00000000000E+00  0.45593999997E+02  0.45594000000E+02  0.51100000000E-03 0.  1.
         11   -1    0    0    0    0 -0.00000000000E+00 -0.00000000000E+00 -0.45593999997E+02  0.45594000000E+02  0.51100000000E-03 0. -1.
    9900012    2    1    2    0    0  0.24053728441E+01 -0.86596199755E+01  0.44139991716E+02  0.46142315353E+02  0.99999780364E+01 0.  0.
         12    1    1    2    0    0 -0.24053728441E+01  0.86596199755E+01 -0.44139991716E+02  0.45045684647E+02  0.00000000000E+00 0. -1.
         11    1    3    3    0    0  0.76432057951E+00 -0.39007121893E+01  0.84908437070E+01  0.93751889928E+01  0.51100000000E-03 0.  1.
        -11    1    3    3    0    0  0.41891301402E+01 -0.46011287498E+01  0.21205912309E+02  0.22099998059E+02  0.51100000000E-03 0. -1.
        -12    1    3    3    0    0 -0.25480778757E+01 -0.15777903647E+00  0.14443235700E+02  0.14667128300E+02  0.00000000000E+00 0.  1.
</event>
<event>
 7    1  0.2438448E-008  0.4614232E+02  0.7816164E-02  0.1320468E+00
        -11   -1    0    0    0    0  0.00000000000E+00  0.00000000000E+00  0.45593999997E+02  0.45594000000E+02  0.51100000000E-03 0.  1.
         11   -1    0    0    0    0 -0.00000000000E+00 -0.00000000000E+00 -0.45593999997E+02  0.45594000000E+02  0.51100000000E-03 0. -1.
    9900012    2    1    2    0    0  0.26298834508E+00 -0.21358761717E+02  0.39659143429E+02  0.46142317383E+02  0.99999965500E+01 0.  0.
         12    1    1    2    0    0 -0.26298834508E+00  0.21358761717E+02 -0.39659143429E+02  0.45045682617E+02  0.00000000000E+00 0. -1.
         11    1    3    3    0    0  0.35289840532E+01 -0.99158163434E+01  0.22841547075E+02  0.25149819388E+02  0.51100000000E-03 0. -1.
        -11    1    3    3    0    0 -0.16752006855E+01 -0.77367955699E+01  0.13964739075E+02  0.16052359351E+02  0.51100000000E-03 0.  1.
         12    1    3    3    0    0 -0.15907950226E+01 -0.37061498036E+01  0.28528572786E+01  0.49401386441E+01  0.00000000000E+00 0. -1.
</event>
<event>
 7    1  0.2438448E-008  0.4614232E+02  0.7816164E-02  0.1320468E+00
        -11   -1    0    0    0    0  0.00000000000E+00  0.00000000000E+00  0.45593999997E+02  0.45594000000E+02  0.51100000000E-03 0.  1.
         11   -1    0    0    0    0 -0.00000000000E+00 -0.00000000000E+00 -0.45593999997E+02  0.45594000000E+02  0.51100000000E-03 0. -1.
    9900012    2    1    2    0    0 -0.35754994766E+02  0.57477357247E+01  0.26789128713E+02  0.46142317256E+02  0.99999953930E+01 0.  0.
         12    1    1    2    0    0  0.35754994766E+02 -0.57477357247E+01 -0.26789128713E+02  0.45045682744E+02  0.00000000000E+00 0. -1.
         11    1    3    3    0    0 -0.17463684723E+01 -0.89832898006E-01  0.36568032661E+01  0.40534039003E+01  0.51100000000E-03 0. -1.
        -11    1    3    3    0    0 -0.12676444411E+02 -0.74702781218E+00  0.66182428741E+01  0.14319617050E+02  0.51100000000E-03 0.  1.
        -12    1    3    3    0    0 -0.21332181883E+02  0.65845964349E+01  0.16514082573E+02  0.27769296306E+02  0.00000000000E+00 0.  1.
</event>
<event>
 7    1  0.2438448E-008  0.4614232E+02  0.7816164E-02  0.1320468E+00
        -11   -1    0    0    0    0  0.00000000000E+00  0.00000000000E+00  0.45593999997E+02  0.45594000000E+02  0.51100000000E-03 0. -1.
         11   -1    0    0    0    0 -0.00000000000E+00 -0.00000000000E+00 -0.45593999997E+02  0.45594000000E+02  0.51100000000E-03 0.  1.
    9900012    2    1    2    0    0  0.96849144137E+01 -0.23810395646E+02 -0.36991630950E+02  0.46142320204E+02  0.10000022273E+02 0.  0.
         12    1    1    2    0    0 -0.96849144137E+01  0.23810395646E+02  0.36991630950E+02  0.45045679796E+02  0.00000000000E+00 0. -1.
         11    1    3    3    0    0 -0.29127477196E+00 -0.45145634252E+01 -0.29866032455E+01  0.54208784454E+01  0.51100000000E-03 0. -1.
        -11    1    3    3    0    0  0.56535705663E+01 -0.12942261990E+02 -0.26224609889E+02  0.29785821621E+02  0.51100000000E-03 0.  1.
        -12    1    3    3    0    0  0.43226186194E+01 -0.63535702308E+01 -0.77804178151E+01  0.10935620137E+02  0.00000000000E+00 0.  1.
</event>
<event>
 7    1  0.2438448E-008  0.4614232E+02  0.7816164E-02  0.1320468E+00
        -11   -1    0    0    0    0  0.00000000000E+00  0.00000000000E+00  0.45593999997E+02  0.45594000000E+02  0.51100000000E-03 0.  1.
         11   -1    0    0    0    0 -0.00000000000E+00 -0.00000000000E+00 -0.45593999997E+02  0.45594000000E+02  0.51100000000E-03 0. -1.
    9900012    2    1    2    0    0  0.89158598042E+01  0.15082709013E+02  0.41498587800E+02  0.46142318114E+02  0.10000003216E+02 0.  0.
         12    1    1    2    0    0 -0.89158598042E+01 -0.15082709013E+02 -0.41498587800E+02  0.45045681886E+02  0.00000000000E+00 0. -1.
         11    1    3    3    0    0  0.15487139297E+01  0.39414984945E+01  0.17531091496E+02  0.18035329066E+02  0.51100000000E-03 0. -1.
        -11    1    3    3    0    0  0.64651846012E+01  0.67715399735E+01  0.20212113207E+02  0.22275140541E+02  0.51100000000E-03 0.  1.
         12    1    3    3    0    0  0.90196127325E+00  0.43696705447E+01  0.37553830968E+01  0.58318485072E+01  0.00000000000E+00 0. -1.
</event>
<event>
 7    1  0.2438448E-008  0.4614232E+02  0.7816164E-02  0.1320468E+00
        -11   -1    0    0    0    0  0.00000000000E+00  0.00000000000E+00  0.45593999997E+02  0.45594000000E+02  0.51100000000E-03 0.  1.
         11   -1    0    0    0    0 -0.00000000000E+00 -0.00000000000E+00 -0.45593999997E+02  0.45594000000E+02  0.51100000000E-03 0. -1.
    9900012    2    1    2    0    0  0.24432442178E+02 -0.15248620432E+02  0.34635947575E+02  0.46142317407E+02  0.99999967699E+01 0.  0.
         12    1    1    2    0    0 -0.24432442178E+02  0.15248620432E+02 -0.34635947575E+02  0.45045682593E+02  0.00000000000E+00 0. -1.
         11    1    3    3    0    0  0.13171839706E+02 -0.88205423349E+01  0.14218048910E+02  0.21294418128E+02  0.51100000000E-03 0. -1.
        -11    1    3    3    0    0  0.10734330436E+02 -0.49224951387E+01  0.19954483950E+02  0.23187027370E+02  0.51100000000E-03 0.  1.
        -12    1    3    3    0    0  0.52627203588E+00 -0.15055829583E+01  0.46341471507E+00  0.16608719090E+01  0.00000000000E+00 0.  1.
</event>
<event>
 7    1  0.2438448E-008  0.4614231E+02  0.7816164E-02  0.1320468E+00
        -11   -1    0    0    0    0  0.00000000000E+00  0.00000000000E+00  0.45593999997E+02  0.45594000000E+02  0.51100000000E-03 0.  1.
         11   -1    0    0    0    0 -0.00000000000E+00 -0.00000000000E+00 -0.45593999997E+02  0.45594000000E+02  0.51100000000E-03 0. -1.
    9900012    2    1    2    0    0 -0.14669215842E+02  0.42290450585E+02 -0.50444274994E+01  0.46142308165E+02  0.99999124974E+01 0.  0.
         12    1    1    2    0    0  0.14669215842E+02 -0.42290450585E+02  0.50444274994E+01  0.45045691835E+02  0.00000000000E+00 0. -1.
         11    1    3    3    0    0  0.49110251357E+00  0.19807835287E+01  0.49950226836E+00  0.21009968690E+01  0.51100000000E-03 0. -1.
        -11    1    3    3    0    0 -0.54478939811E+01  0.15148891989E+02  0.14939810020E+01  0.16167883499E+02  0.51100000000E-03 0.  1.
         12    1    3    3    0    0 -0.97124243741E+01  0.25160775067E+02 -0.70379107698E+01  0.27873427798E+02  0.00000000000E+00 0. -1.
</event>
<event>
 7    1  0.2438448E-008  0.4614231E+02  0.7816164E-02  0.1320468E+00
        -11   -1    0    0    0    0  0.00000000000E+00  0.00000000000E+00  0.45593999997E+02  0.45594000000E+02  0.51100000000E-03 0. -1.
         11   -1    0    0    0    0 -0.00000000000E+00 -0.00000000000E+00 -0.45593999997E+02  0.45594000000E+02  0.51100000000E-03 0.  1.
    9900012    2    1    2    0    0 -0.16656674566E+02  0.26646788345E+01 -0.41768035153E+02  0.46142311178E+02  0.99999399670E+01 0.  0.
         12    1    1    2    0    0  0.16656674566E+02 -0.26646788345E+01  0.41768035153E+02  0.45045688822E+02  0.00000000000E+00 0. -1.
         11    1    3    3    0    0  0.22816120185E+00  0.17069671062E+01 -0.34100020828E+01  0.38201974689E+01  0.51100000000E-03 0. -1.
        -11    1    3    3    0    0 -0.31634073292E+01  0.81079357084E+00 -0.13891506206E+02  0.14270195411E+02  0.51100000000E-03 0.  1.
         12    1    3    3    0    0 -0.13721428439E+02  0.14691815741E+00 -0.24466526865E+02  0.28051918298E+02  0.00000000000E+00 0. -1.
</event>
<event>
 7    1  0.2438448E-008  0.4614232E+02  0.7816164E-02  0.1320468E+00
        -11   -1    0    0    0    0  0.00000000000E+00  0.00000000000E+00  0.45593999997E+02  0.45594000000E+02  0.51100000000E-03 0.  1.
         11   -1    0    0    0    0 -0.00000000000E+00 -0.00000000000E+00 -0.45593999997E+02  0.45594000000E+02  0.51100000000E-03 0. -1.
    9900012    2    1    2    0    0 -0.22796483922E+02 -0.33653706085E+02  0.19412929594E+02  0.46142318211E+02  0.10000004103E+02 0.  0.
         12    1    1    2    0    0  0.22796483922E+02  0.33653706085E+02 -0.19412929594E+02  0.45045681789E+02  0.00000000000E+00 0. -1.
         11    1    3    3    0    0 -0.23931969308E+01 -0.26289515883E+01  0.25513152931E+01  0.43758414036E+01  0.51100000000E-03 0. -1.
        -11    1    3    3    0    0 -0.19809509843E+02 -0.24151176294E+02  0.12772983610E+02  0.33746779212E+02  0.51100000000E-03 0.  1.
         12    1    3    3    0    0 -0.59377714813E+00 -0.68735782020E+01  0.40886306905E+01  0.80196975955E+01  0.00000000000E+00 0. -1.
</event>
<event>
 7    1  0.2438448E-008  0.4614232E+02  0.7816164E-02  0.1320468E+00
        -11   -1    0    0    0    0  0.00000000000E+00  0.00000000000E+00  0.45593999997E+02  0.45594000000E+02  0.51100000000E-03 0.  1.
         11   -1    0    0    0    0 -0.00000000000E+00 -0.00000000000E+00 -0.45593999997E+02  0.45594000000E+02  0.51100000000E-03 0. -1.
    9900012    2    1    2    0    0 -0.20323483534E+02  0.16763011543E+02  0.36538624562E+02  0.46142316258E+02  0.99999862897E+01 0.  0.
         12    1    1    2    0    0  0.20323483534E+02 -0.16763011543E+02 -0.36538624562E+02  0.45045683742E+02  0.00000000000E+00 0. -1.
         11    1    3    3    0    0 -0.34061613118E+01  0.30264197732E+00  0.40139177051E+01  0.52730506021E+01  0.51100000000E-03 0.  1.
        -11    1    3    3    0    0 -0.44165747822E+01  0.15721956465E+01  0.10457752607E+02  0.11460476509E+02  0.51100000000E-03 0. -1.
         12    1    3    3    0    0 -0.12500747440E+02  0.14888173919E+02  0.22066954249E+02  0.29408789146E+02  0.00000000000E+00 0. -1.
</event>
<event>
 7    1  0.2438448E-008  0.4614232E+02  0.7816164E-02  0.1320468E+00
        -11   -1    0    0    0    0  0.00000000000E+00  0.00000000000E+00  0.45593999997E+02  0.45594000000E+02  0.51100000000E-03 0. -1.
         11   -1    0    0    0    0 -0.00000000000E+00 -0.00000000000E+00 -0.45593999997E+02  0.45594000000E+02  0.51100000000E-03 0.  1.
    9900012    2    1    2    0    0 -0.94120900137E+01  0.40631701045E+02  0.17017370978E+02  0.46142317818E+02  0.10000000521E+02 0.  0.
         12    1    1    2    0    0  0.94120900137E+01 -0.40631701045E+02 -0.17017370978E+02  0.45045682182E+02  0.00000000000E+00 0. -1.
         11    1    3    3    0    0 -0.23581819053E+01  0.48074720632E+01  0.48710865935E+01  0.72388047632E+01  0.51100000000E-03 0. -1.
        -11    1    3    3    0    0 -0.79885014733E+01  0.33366159091E+02  0.11604638390E+02  0.36218563758E+02  0.51100000000E-03 0.  1.
         12    1    3    3    0    0  0.93459336488E+00  0.24580698906E+01  0.54164599473E+00  0.26849492971E+01  0.00000000000E+00 0. -1.
</event>
<event>
 7    1  0.2438448E-008  0.4614232E+02  0.7816164E-02  0.1320468E+00
        -11   -1    0    0    0    0  0.00000000000E+00  0.00000000000E+00  0.45593999997E+02  0.45594000000E+02  0.51100000000E-03 0.  1.
         11   -1    0    0    0    0 -0.00000000000E+00 -0.00000000000E+00 -0.45593999997E+02  0.45594000000E+02  0.51100000000E-03 0. -1.
    9900012    2    1    2    0    0  0.14391043591E+02 -0.36730151591E+02  0.21746433123E+02  0.46142317353E+02  0.99999962785E+01 0.  0.
         12    1    1    2    0    0 -0.14391043591E+02  0.36730151591E+02 -0.21746433123E+02  0.45045682647E+02  0.00000000000E+00 0. -1.
         11    1    3    3    0    0  0.44376454693E+00 -0.53195854029E+01  0.18176422735E+01  0.56390371099E+01  0.51100000000E-03 0. -1.
        -11    1    3    3    0    0  0.11385276847E+02 -0.30476151844E+02  0.18461736346E+02  0.37406631354E+02  0.51100000000E-03 0.  1.
         12    1    3    3    0    0  0.25620021970E+01 -0.93441434456E+00  0.14670545038E+01  0.30966488890E+01  0.00000000000E+00 0. -1.
</event>
<event>
 7    1  0.2438448E-008  0.4614232E+02  0.7816164E-02  0.1320468E+00
        -11   -1    0    0    0    0  0.00000000000E+00  0.00000000000E+00  0.45593999997E+02  0.45594000000E+02  0.51100000000E-03 0.  1.
         11   -1    0    0    0    0 -0.00000000000E+00 -0.00000000000E+00 -0.45593999997E+02  0.45594000000E+02  0.51100000000E-03 0. -1.
    9900012    2    1    2    0    0 -0.43859271858E+02  0.99963435050E+00  0.10221472712E+02  0.46142317619E+02  0.99999987058E+01 0.  0.
         12    1    1    2    0    0  0.43859271858E+02 -0.99963435050E+00 -0.10221472712E+02  0.45045682381E+02  0.00000000000E+00 0. -1.
         11    1    3    3    0    0 -0.31678858263E+02  0.31220017662E+01  0.47838714183E+01  0.32189786919E+02  0.51100000000E-03 0. -1.
        -11    1    3    3    0    0 -0.60632811020E+01 -0.52589655646E+00  0.85834436319E+00  0.61462753125E+01  0.51100000000E-03 0.  1.
        -12    1    3    3    0    0 -0.61171324929E+01 -0.15964708592E+01  0.45792569309E+01  0.78062553878E+01  0.00000000000E+00 0.  1.
</event>
<event>
 7    1  0.2450486E-008  0.4614232E+02  0.7816164E-02  0.1320468E+00
        -11   -1    0    0    0    0  0.00000000000E+00  0.00000000000E+00  0.45593999997E+02  0.45594000000E+02  0.51100000000E-03 0. -1.
         11   -1    0    0    0    0 -0.00000000000E+00 -0.00000000000E+00 -0.45593999997E+02  0.45594000000E+02  0.51100000000E-03 0.  1.
    9900012    2    1    2    0    0  0.21266842949E+02  0.74255006429E+01 -0.39008932144E+02  0.46142318122E+02  0.10000003294E+02 0.  0.
         12    1    1    2    0    0 -0.21266842949E+02 -0.74255006429E+01  0.39008932144E+02  0.45045681878E+02  0.00000000000E+00 0. -1.
         11    1    3    3    0    0  0.44204849470E+01  0.27036337591E+01 -0.11011644175E+02  0.12169906752E+02  0.51100000000E-03 0. -1.
        -11    1    3    3    0    0  0.16208190602E+02  0.43891592258E+01 -0.28510799521E+02  0.33088303838E+02  0.51100000000E-03 0.  1.
         12    1    3    3    0    0  0.63816739935E+00  0.33270765812E+00  0.51351155108E+00  0.88410753218E+00  0.00000000000E+00 0. -1.
</event>
<event>
 7    1  0.2438448E-008  0.4614232E+02  0.7816164E-02  0.1320468E+00
        -11   -1    0    0    0    0  0.00000000000E+00  0.00000000000E+00  0.45593999997E+02  0.45594000000E+02  0.51100000000E-03 0.  1.
         11   -1    0    0    0    0 -0.00000000000E+00 -0.00000000000E+00 -0.45593999997E+02  0.45594000000E+02  0.51100000000E-03 0. -1.
    9900012    2    1    2    0    0 -0.22663513124E+02 -0.28568808320E+02  0.26444316385E+02  0.46142317576E+02  0.99999983114E+01 0.  0.
         12    1    1    2    0    0  0.22663513124E+02  0.28568808320E+02 -0.26444316385E+02  0.45045682424E+02  0.00000000000E+00 0. -1.
         11    1    3    3    0    0 -0.54580176768E+01 -0.61137090313E+01  0.79756216085E+01  0.11435818090E+02  0.51100000000E-03 0. -1.
        -11    1    3    3    0    0 -0.65776701649E+01 -0.57857516329E+01  0.97287948524E+01  0.13091604802E+02  0.51100000000E-03 0.  1.
        -12    1    3    3    0    0 -0.10627825283E+02 -0.16669347656E+02  0.87398999244E+01  0.21614894684E+02  0.00000000000E+00 0.  1.
</event>
<event>
 7    1  0.2534176E-008  0.4614232E+02  0.7816164E-02  0.1320468E+00
        -11   -1    0    0    0    0  0.00000000000E+00  0.00000000000E+00  0.45593999997E+02  0.45594000000E+02  0.51100000000E-03 0. -1.
         11   -1    0    0    0    0 -0.00000000000E+00 -0.00000000000E+00 -0.45593999997E+02  0.45594000000E+02  0.51100000000E-03 0.  1.
    9900012    2    1    2    0    0  0.39300760495E+02  0.19612097490E+02  0.99964684067E+01  0.46142317365E+02  0.99999963874E+01 0.  0.
         12    1    1    2    0    0 -0.39300760495E+02 -0.19612097490E+02 -0.99964684067E+01  0.45045682635E+02  0.00000000000E+00 0. -1.
         11    1    3    3    0    0  0.46288255461E+01  0.32054169471E+01  0.24292414630E+01  0.61320419183E+01  0.51100000000E-03 0. -1.
        -11    1    3    3    0    0  0.28400587597E+02  0.14731309983E+02  0.92504985544E+01  0.33304302927E+02  0.51100000000E-03 0.  1.
         12    1    3    3    0    0  0.62713473516E+01  0.16753705600E+01 -0.16832716107E+01  0.67059725195E+01  0.00000000000E+00 0. -1.
</event>
<event>
 7    1  0.2438448E-008  0.4614232E+02  0.7816164E-02  0.1320468E+00
        -11   -1    0    0    0    0  0.00000000000E+00  0.00000000000E+00  0.45593999997E+02  0.45594000000E+02  0.51100000000E-03 0.  1.
         11   -1    0    0    0    0 -0.00000000000E+00 -0.00000000000E+00 -0.45593999997E+02  0.45594000000E+02  0.51100000000E-03 0. -1.
    9900012    2    1    2    0    0 -0.64678473063E+00  0.25103356147E+02  0.37396746591E+02  0.46142317899E+02  0.10000001259E+02 0.  0.
         12    1    1    2    0    0  0.64678473063E+00 -0.25103356147E+02 -0.37396746591E+02  0.45045682101E+02  0.00000000000E+00 0. -1.
         11    1    3    3    0    0 -0.17518367496E+01  0.15520514854E+01  0.68641688314E+00  0.24390498579E+01  0.51100000000E-03 0. -1.
        -11    1    3    3    0    0  0.35447007669E-01  0.10968965515E+02  0.14917675458E+02  0.18516384698E+02  0.51100000000E-03 0.  1.
        -12    1    3    3    0    0  0.10696050113E+01  0.12582339147E+02  0.21792654250E+02  0.25186883343E+02  0.00000000000E+00 0.  1.
</event>
<event>
 7    1  0.2438448E-008  0.4614232E+02  0.7816164E-02  0.1320468E+00
        -11   -1    0    0    0    0  0.00000000000E+00  0.00000000000E+00  0.45593999997E+02  0.45594000000E+02  0.51100000000E-03 0.  1.
         11   -1    0    0    0    0 -0.00000000000E+00 -0.00000000000E+00 -0.45593999997E+02  0.45594000000E+02  0.51100000000E-03 0. -1.
    9900012    2    1    2    0    0  0.18123565430E+01 -0.11805572810E+01  0.44993721871E+02  0.46142319191E+02  0.10000013042E+02 0.  0.
         12    1    1    2    0    0 -0.18123565430E+01  0.11805572810E+01 -0.44993721871E+02  0.45045680809E+02  0.00000000000E+00 0. -1.
         11    1    3    3    0    0  0.36733658831E+01  0.32194530129E-01  0.10120994684E+02  0.10767041704E+02  0.51100000000E-03 0. -1.
        -11    1    3    3    0    0  0.16817458099E+00  0.34944852697E+00  0.28563549728E+02  0.28566182284E+02  0.51100000000E-03 0.  1.
         12    1    3    3    0    0 -0.20291839211E+01 -0.15622003381E+01  0.63091774586E+01  0.68090952032E+01  0.00000000000E+00 0. -1.
</event>
<event>
 7    1  0.2438448E-008  0.4614232E+02  0.7816164E-02  0.1320468E+00
        -11   -1    0    0    0    0  0.00000000000E+00  0.00000000000E+00  0.45593999997E+02  0.45594000000E+02  0.51100000000E-03 0.  1.
         11   -1    0    0    0    0 -0.00000000000E+00 -0.00000000000E+00 -0.45593999997E+02  0.45594000000E+02  0.51100000000E-03 0. -1.
    9900012    2    1    2    0    0  0.67775497094E+01 -0.11313663807E+02  0.43071793280E+02  0.46142317131E+02  0.99999942546E+01 0.  0.
         12    1    1    2    0    0 -0.67775497094E+01  0.11313663807E+02 -0.43071793280E+02  0.45045682869E+02  0.00000000000E+00 0. -1.
         11    1    3    3    0    0  0.22356383468E+01 -0.31245767021E+01  0.42482854103E+01  0.57279130207E+01  0.51100000000E-03 0. -1.
        -11    1    3    3    0    0 -0.10950196692E+01 -0.35824833031E+01  0.97927472510E+01  0.10484805848E+02  0.51100000000E-03 0.  1.
         12    1    3    3    0    0  0.56369310318E+01 -0.46066038021E+01  0.29030760618E+02  0.29929598262E+02  0.00000000000E+00 0. -1.
</event>
<event>
 7    1  0.2438448E-008  0.4614232E+02  0.7816164E-02  0.1320468E+00
        -11   -1    0    0    0    0  0.00000000000E+00  0.00000000000E+00  0.45593999997E+02  0.45594000000E+02  0.51100000000E-03 0.  1.
         11   -1    0    0    0    0 -0.00000000000E+00 -0.00000000000E+00 -0.45593999997E+02  0.45594000000E+02  0.51100000000E-03 0. -1.
    9900012    2    1    2    0    0 -0.13455749395E+01  0.37622183633E+02  0.24736094192E+02  0.46142316199E+02  0.99999857543E+01 0.  0.
         12    1    1    2    0    0  0.13455749395E+01 -0.37622183633E+02 -0.24736094192E+02  0.45045683801E+02  0.00000000000E+00 0. -1.
         11    1    3    3    0    0 -0.12994579942E+01  0.19975977239E+01  0.26713451745E+01  0.35798146667E+01  0.51100000000E-03 0. -1.
        -11    1    3    3    0    0 -0.33131890552E+01  0.94921209085E+01  0.64706889136E+01  0.11956061071E+02  0.51100000000E-03 0.  1.
        -12    1    3    3    0    0  0.32670721098E+01  0.26132465001E+02  0.15594060104E+02  0.30606440461E+02  0.00000000000E+00 0.  1.
</event>
<event>
 7    1  0.2438448E-008  0.4614231E+02  0.7816164E-02  0.1320468E+00
        -11   -1    0    0    0    0  0.00000000000E+00  0.00000000000E+00  0.45593999997E+02  0.45594000000E+02  0.51100000000E-03 0.  1.
         11   -1    0    0    0    0 -0.00000000000E+00 -0.00000000000E+00 -0.45593999997E+02  0.45594000000E+02  0.51100000000E-03 0. -1.
    9900012    2    1    2    0    0  0.16013114765E+01  0.21674870627E+02  0.39455669268E+02  0.46142311499E+02  0.99999429014E+01 0.  0.
         12    1    1    2    0    0 -0.16013114765E+01 -0.21674870627E+02 -0.39455669268E+02  0.45045688501E+02  0.00000000000E+00 0. -1.
         11    1    3    3    0    0 -0.93436309832E+00  0.12907607874E+01  0.12328285319E+01  0.20146871370E+01  0.51100000000E-03 0. -1.
        -11    1    3    3    0    0  0.33012686173E+01  0.31179542812E+01  0.56030537108E+01  0.72120887772E+01  0.51100000000E-03 0.  1.
         12    1    3    3    0    0 -0.76559404250E+00  0.17266155558E+02  0.32619787025E+02  0.36915535585E+02  0.00000000000E+00 0. -1.
</event>
<event>
 7    1  0.2438448E-008  0.4614232E+02  0.7816164E-02  0.1320468E+00
        -11   -1    0    0    0    0  0.00000000000E+00  0.00000000000E+00  0.45593999997E+02  0.45594000000E+02  0.51100000000E-03 0. -1.
         11   -1    0    0    0    0 -0.00000000000E+00 -0.00000000000E+00 -0.45593999997E+02  0.45594000000E+02  0.51100000000E-03 0.  1.
    9900012    2    1    2    0    0  0.38593859484E+02  0.21434419378E+01 -0.23130784715E+02  0.46142317246E+02  0.99999953014E+01 0.  0.
         12    1    1    2    0    0 -0.38593859484E+02 -0.21434419378E+01  0.23130784715E+02  0.45045682754E+02  0.00000000000E+00 0. -1.
         11    1    3    3    0    0  0.95348054302E+01 -0.17941061505E+01 -0.53947152677E+01  0.11101093845E+02  0.51100000000E-03 0.  1.
        -11    1    3    3    0    0  0.85470172529E+01 -0.21620557047E+01 -0.48807627117E+01  0.10077094507E+02  0.51100000000E-03 0. -1.
        -12    1    3    3    0    0  0.20512036801E+02  0.60996037930E+01 -0.12855306736E+02  0.24964128894E+02  0.00000000000E+00 0.  1.
</event>
<event>
 7    1  0.2438448E-008  0.4614232E+02  0.7816164E-02  0.1320468E+00
        -11   -1    0    0    0    0  0.00000000000E+00  0.00000000000E+00  0.45593999997E+02  0.45594000000E+02  0.51100000000E-03 0.  1.
         11   -1    0    0    0    0 -0.00000000000E+00 -0.00000000000E+00 -0.45593999997E+02  0.45594000000E+02  0.51100000000E-03 0. -1.
    9900012    2    1    2    0    0  0.13191614437E+02 -0.39957929057E+02  0.16076651981E+02  0.46142317356E+02  0.99999963020E+01 0.  0.
         12    1    1    2    0    0 -0.13191614437E+02  0.39957929057E+02 -0.16076651981E+02  0.45045682644E+02  0.00000000000E+00 0. -1.
         11    1    3    3    0    0  0.45873653177E+01 -0.78714476763E+01  0.37149101714E+01  0.98389108605E+01  0.51100000000E-03 0. -1.
        -11    1    3    3    0    0 -0.12706293593E+01 -0.50622277314E+01  0.31341354730E+01  0.60879761824E+01  0.51100000000E-03 0.  1.
         12    1    3    3    0    0  0.98748784786E+01 -0.27024253650E+02  0.92276063361E+01  0.30215430313E+02  0.00000000000E+00 0. -1.
</event>
<event>
 7    1  0.3057599E-008  0.4614232E+02  0.7816164E-02  0.1320468E+00
        -11   -1    0    0    0    0  0.00000000000E+00  0.00000000000E+00  0.45593999997E+02  0.45594000000E+02  0.51100000000E-03 0. -1.
         11   -1    0    0    0    0 -0.00000000000E+00 -0.00000000000E+00 -0.45593999997E+02  0.45594000000E+02  0.51100000000E-03 0.  1.
    9900012    2    1    2    0    0 -0.11132444379E+02  0.90091776169E+01 -0.42708509970E+02  0.46142318486E+02  0.10000006610E+02 0.  0.
         12    1    1    2    0    0  0.11132444379E+02 -0.90091776169E+01  0.42708509970E+02  0.45045681514E+02  0.00000000000E+00 0. -1.
         11    1    3    3    0    0 -0.36539892420E+01  0.22013899921E+01 -0.14828786412E+02  0.15430186712E+02  0.51100000000E-03 0. -1.
        -11    1    3    3    0    0 -0.58360536382E+01  0.38168959333E+01 -0.25778135101E+02  0.26704689966E+02  0.51100000000E-03 0.  1.
         12    1    3    3    0    0 -0.16424014992E+01  0.29908916915E+01 -0.21015884572E+01  0.40074418072E+01  0.00000000000E+00 0. -1.
</event>
<event>
 7    1  0.2438448E-008  0.4614232E+02  0.7816164E-02  0.1320468E+00
        -11   -1    0    0    0    0  0.00000000000E+00  0.00000000000E+00  0.45593999997E+02  0.45594000000E+02  0.51100000000E-03 0. -1.
         11   -1    0    0    0    0 -0.00000000000E+00 -0.00000000000E+00 -0.45593999997E+02  0.45594000000E+02  0.51100000000E-03 0.  1.
    9900012    2    1    2    0    0  0.43851315561E+02 -0.96405274546E+01  0.36381154460E+01  0.46142317299E+02  0.99999957861E+01 0.  0.
         12    1    1    2    0    0 -0.43851315561E+02  0.96405274546E+01 -0.36381154460E+01  0.45045682701E+02  0.00000000000E+00 0. -1.
         11    1    3    3    0    0  0.15514334524E+02 -0.24055186624E+00  0.36200133217E+01  0.15932888553E+02  0.51100000000E-03 0. -1.
        -11    1    3    3    0    0  0.73027931854E+01 -0.40584638339E+01  0.13664762698E+01  0.84657648595E+01  0.51100000000E-03 0.  1.
         12    1    3    3    0    0  0.21034187851E+02 -0.53415117544E+01 -0.13483741455E+01  0.21743663887E+02  0.00000000000E+00 0. -1.
</event>
<event>
 7    1  0.2556088E-008  0.4614232E+02  0.7816164E-02  0.1320468E+00
        -11   -1    0    0    0    0  0.00000000000E+00  0.00000000000E+00  0.45593999997E+02  0.45594000000E+02  0.51100000000E-03 0. -1.
         11   -1    0    0    0    0 -0.00000000000E+00 -0.00000000000E+00 -0.45593999997E+02  0.45594000000E+02  0.51100000000E-03 0.  1.
    9900012    2    1    2    0    0 -0.35978798141E+02  0.20204979121E+02 -0.18066498219E+02  0.46142318133E+02  0.10000003395E+02 0.  0.
         12    1    1    2    0    0  0.35978798141E+02 -0.20204979121E+02  0.18066498219E+02  0.45045681867E+02  0.00000000000E+00 0. -1.
         11    1    3    3    0    0 -0.10732187474E+01  0.79577763341E+00  0.88985289285E+00  0.16052722366E+01  0.51100000000E-03 0. -1.
        -11    1    3    3    0    0 -0.52344465101E+01  0.19652999771E+01 -0.87999820173E+00  0.56600557738E+01  0.51100000000E-03 0.  1.
        -12    1    3    3    0    0 -0.29671132883E+02  0.17443901510E+02 -0.18076352910E+02  0.38876990123E+02  0.00000000000E+00 0.  1.
</event>
<event>
 7    1  0.2438448E-008  0.4614232E+02  0.7816164E-02  0.1320468E+00
        -11   -1    0    0    0    0  0.00000000000E+00  0.00000000000E+00  0.45593999997E+02  0.45594000000E+02  0.51100000000E-03 0.  1.
         11   -1    0    0    0    0 -0.00000000000E+00 -0.00000000000E+00 -0.45593999997E+02  0.45594000000E+02  0.51100000000E-03 0. -1.
    9900012    2    1    2    0    0 -0.25379518719E+02  0.29673300444E+02  0.22460828507E+02  0.46142317112E+02  0.99999940790E+01 0.  0.
         12    1    1    2    0    0  0.25379518719E+02 -0.29673300444E+02 -0.22460828507E+02  0.45045682888E+02  0.00000000000E+00 0. -1.
         11    1    3    3    0    0 -0.13698235079E+02  0.14058801771E+02  0.13890018326E+02  0.24046292040E+02  0.51100000000E-03 0. -1.
        -11    1    3    3    0    0 -0.96973106188E+01  0.82276277244E+01  0.53543676186E+01  0.13798584857E+02  0.51100000000E-03 0.  1.
         12    1    3    3    0    0 -0.19839730214E+01  0.73868709482E+01  0.32164425625E+01  0.82974402145E+01  0.00000000000E+00 0. -1.
</event>
<event>
 7    1  0.2438448E-008  0.4614232E+02  0.7816164E-02  0.1320468E+00
        -11   -1    0    0    0    0  0.00000000000E+00  0.00000000000E+00  0.45593999997E+02  0.45594000000E+02  0.51100000000E-03 0.  1.
         11   -1    0    0    0    0 -0.00000000000E+00 -0.00000000000E+00 -0.45593999997E+02  0.45594000000E+02  0.51100000000E-03 0. -1.
    9900012    2    1    2    0    0 -0.39848836786E+02 -0.10628280236E+02  0.18116932436E+02  0.46142319021E+02  0.10000011490E+02 0.  0.
         12    1    1    2    0    0  0.39848836786E+02  0.10628280236E+02 -0.18116932436E+02  0.45045680979E+02  0.00000000000E+00 0. -1.
         11    1    3    3    0    0 -0.18608816511E+02 -0.36900168754E+01  0.42486607852E+01  0.19441074950E+02  0.51100000000E-03 0. -1.
        -11    1    3    3    0    0 -0.17693380584E+02 -0.43600479669E+01  0.96643819058E+01  0.20626827498E+02  0.51100000000E-03 0.  1.
         12    1    3    3    0    0 -0.35466396909E+01 -0.25782153935E+01  0.42038897447E+01  0.60744165726E+01  0.00000000000E+00 0. -1.
</event>
<event>
 7    1  0.2438448E-008  0.4614232E+02  0.7816164E-02  0.1320468E+00
        -11   -1    0    0    0    0  0.00000000000E+00  0.00000000000E+00  0.45593999997E+02  0.45594000000E+02  0.51100000000E-03 0. -1.
         11   -1    0    0    0    0 -0.00000000000E+00 -0.00000000000E+00 -0.45593999997E+02  0.45594000000E+02  0.51100000000E-03 0.  1.
    9900012    2    1    2    0    0 -0.84227597452E+01 -0.43017865264E+02 -0.10374675790E+02  0.46142317506E+02  0.99999976725E+01 0.  0.
         12    1    1    2    0    0  0.84227597452E+01  0.43017865264E+02  0.10374675790E+02  0.45045682494E+02  0.00000000000E+00 0. -1.
         11    1    3    3    0    0  0.92509690978E+00 -0.53521149612E+01  0.49235700874E+00  0.54537468346E+01  0.51100000000E-03 0. -1.
        -11    1    3    3    0    0 -0.94713712398E+01 -0.36827561618E+02 -0.11387204847E+02  0.39694390062E+02  0.51100000000E-03 0.  1.
        -12    1    3    3    0    0  0.12351458479E+00 -0.83818868454E+00  0.52017204830E+00  0.99418060904E+00  0.00000000000E+00 0.  1.
</event>
<event>
 7    1  0.2438448E-008  0.4614232E+02  0.7816164E-02  0.1320468E+00
        -11   -1    0    0    0    0  0.00000000000E+00  0.00000000000E+00  0.45593999997E+02  0.45594000000E+02  0.51100000000E-03 0.  1.
         11   -1    0    0    0    0 -0.00000000000E+00 -0.00000000000E+00 -0.45593999997E+02  0.45594000000E+02  0.51100000000E-03 0. -1.
    9900012    2    1    2    0    0  0.66625298933E+01 -0.12636936644E+02  0.42720393546E+02  0.46142317665E+02  0.99999991241E+01 0.  0.
         12    1    1    2    0    0 -0.66625298933E+01  0.12636936644E+02 -0.42720393546E+02  0.45045682335E+02  0.00000000000E+00 0. -1.
         11    1    3    3    0    0  0.18941715954E+00 -0.24443507406E+01  0.74043714893E+01  0.77997081238E+01  0.51100000000E-03 0. -1.
        -11    1    3    3    0    0  0.61113313646E+01 -0.10539797577E+02  0.35693134404E+02  0.37715189883E+02  0.51100000000E-03 0.  1.
         12    1    3    3    0    0  0.36178136910E+00  0.34721167354E+00 -0.37711234790E+00  0.62741965877E+00  0.00000000000E+00 0. -1.
</event>
<event>
 7    1  0.2438448E-008  0.4614232E+02  0.7816164E-02  0.1320468E+00
        -11   -1    0    0    0    0  0.00000000000E+00  0.00000000000E+00  0.45593999997E+02  0.45594000000E+02  0.51100000000E-03 0.  1.
         11   -1    0    0    0    0 -0.00000000000E+00 -0.00000000000E+00 -0.45593999997E+02  0.45594000000E+02  0.51100000000E-03 0. -1.
    9900012    2    1    2    0    0 -0.25163474400E+02 -0.32877822219E+02 -0.17747163674E+02  0.46142318118E+02  0.10000003257E+02 0.  0.
         12    1    1    2    0    0  0.25163474400E+02  0.32877822219E+02  0.17747163674E+02  0.45045681882E+02  0.00000000000E+00 0. -1.
         11    1    3    3    0    0 -0.38992492399E+01 -0.91683509553E+01 -0.20649689617E+01  0.10174816998E+02  0.51100000000E-03 0. -1.
        -11    1    3    3    0    0 -0.21327274177E+02 -0.23498607412E+02 -0.16032436352E+02  0.35553849155E+02  0.51100000000E-03 0.  1.
         12    1    3    3    0    0  0.63049016547E-01 -0.21086385128E+00  0.35024163922E+00  0.41365196495E+00  0.00000000000E+00 0. -1.
</event>
<event>
 7    1  0.2438448E-008  0.4614232E+02  0.7816164E-02  0.1320468E+00
        -11   -1    0    0    0    0  0.00000000000E+00  0.00000000000E+00  0.45593999997E+02  0.45594000000E+02  0.51100000000E-03 0.  1.
         11   -1    0    0    0    0 -0.00000000000E+00 -0.00000000000E+00 -0.45593999997E+02  0.45594000000E+02  0.51100000000E-03 0. -1.
    9900012    2    1    2    0    0 -0.42952420765E+02 -0.13447950673E+02  0.18318743017E+01  0.46142316629E+02  0.99999896771E+01 0.  0.
         12    1    1    2    0    0  0.42952420765E+02  0.13447950673E+02 -0.18318743017E+01  0.45045683371E+02  0.00000000000E+00 0. -1.
         11    1    3    3    0    0 -0.68311776190E+01 -0.13963858205E+01 -0.14405958519E+01  0.71197048879E+01  0.51100000000E-03 0. -1.
        -11    1    3    3    0    0 -0.22924606880E+02 -0.41593465592E+01 -0.13458844395E-01  0.23298882930E+02  0.51100000000E-03 0.  1.
         12    1    3    3    0    0 -0.13196636266E+02 -0.78922182934E+01  0.32859289980E+01  0.15723728811E+02  0.00000000000E+00 0. -1.
</event>
<event>
 7    1  0.2438448E-008  0.4614232E+02  0.7816164E-02  0.1320468E+00
        -11   -1    0    0    0    0  0.00000000000E+00  0.00000000000E+00  0.45593999997E+02  0.45594000000E+02  0.51100000000E-03 0.  1.
         11   -1    0    0    0    0 -0.00000000000E+00 -0.00000000000E+00 -0.45593999997E+02  0.45594000000E+02  0.51100000000E-03 0. -1.
    9900012    2    1    2    0    0  0.31462350679E+02 -0.72265256358E+01  0.31416736986E+02  0.46142317123E+02  0.99999941840E+01 0.  0.
         12    1    1    2    0    0 -0.31462350679E+02  0.72265256358E+01 -0.31416736986E+02  0.45045682877E+02  0.00000000000E+00 0. -1.
         11    1    3    3    0    0  0.13648645792E+02 -0.24598952427E+01  0.15581343196E+02  0.20859407293E+02  0.51100000000E-03 0. -1.
        -11    1    3    3    0    0  0.15666500159E+02 -0.25684801763E+01  0.10217217208E+02  0.18879296740E+02  0.51100000000E-03 0.  1.
         12    1    3    3    0    0  0.21472047286E+01 -0.21981502169E+01  0.56181765808E+01  0.64036130907E+01  0.00000000000E+00 0. -1.
</event>
<event>
 7    1  0.2438448E-008  0.4614232E+02  0.7816164E-02  0.1320468E+00
        -11   -1    0    0    0    0  0.00000000000E+00  0.00000000000E+00  0.45593999997E+02  0.45594000000E+02  0.51100000000E-03 0.  1.
         11   -1    0    0    0    0 -0.00000000000E+00 -0.00000000000E+00 -0.45593999997E+02  0.45594000000E+02  0.51100000000E-03 0. -1.
    9900012    2    1    2    0    0  0.26892194393E+02 -0.41523358707E+01  0.35898209853E+02  0.46142317819E+02  0.10000000532E+02 0.  0.
         12    1    1    2    0    0 -0.26892194393E+02  0.41523358707E+01 -0.35898209853E+02  0.45045682181E+02  0.00000000000E+00 0. -1.
         11    1    3    3    0    0  0.63122481466E+01 -0.15612349038E+01  0.48776367009E+01  0.81285466805E+01  0.51100000000E-03 0. -1.
        -11    1    3    3    0    0 -0.35200945124E+00 -0.70712301794E+00  0.22493882704E+01  0.23840472874E+01  0.51100000000E-03 0.  1.
        -12    1    3    3    0    0  0.20931955697E+02 -0.18839779489E+01  0.28771184882E+02  0.35629723852E+02  0.00000000000E+00 0.  1.
</event>
<event>
 7    1  0.2438448E-008  0.4614232E+02  0.7816164E-02  0.1320468E+00
        -11   -1    0    0    0    0  0.00000000000E+00  0.00000000000E+00  0.45593999997E+02  0.45594000000E+02  0.51100000000E-03 0.  1.
         11   -1    0    0    0    0 -0.00000000000E+00 -0.00000000000E+00 -0.45593999997E+02  0.45594000000E+02  0.51100000000E-03 0. -1.
    9900012    2    1    2    0    0  0.37221162827E+02 -0.14289874515E+02  0.20964207433E+02  0.46142317975E+02  0.10000001946E+02 0.  0.
         12    1    1    2    0    0 -0.37221162827E+02  0.14289874515E+02 -0.20964207433E+02  0.45045682025E+02  0.00000000000E+00 0. -1.
         11    1    3    3    0    0  0.10385187223E+02 -0.57365891906E+01  0.60623185876E+01  0.13323373301E+02  0.51100000000E-03 0. -1.
        -11    1    3    3    0    0  0.66844092670E+01 -0.32372935181E+00  0.69406987936E+01  0.96415469686E+01  0.51100000000E-03 0.  1.
        -12    1    3    3    0    0  0.20151566337E+02 -0.82295559722E+01  0.79611900516E+01  0.23177397705E+02  0.00000000000E+00 0.  1.
</event>
<event>
 7    1  0.2438448E-008  0.4614231E+02  0.7816164E-02  0.1320468E+00
        -11   -1    0    0    0    0  0.00000000000E+00  0.00000000000E+00  0.45593999997E+02  0.45594000000E+02  0.51100000000E-03 0.  1.
         11   -1    0    0    0    0 -0.00000000000E+00 -0.00000000000E+00 -0.45593999997E+02  0.45594000000E+02  0.51100000000E-03 0. -1.
    9900012    2    1    2    0    0  0.56988372552E+01  0.15037174433E+02  0.42077552319E+02  0.46142314634E+02  0.99999714809E+01 0.  0.
         12    1    1    2    0    0 -0.56988372552E+01 -0.15037174433E+02 -0.42077552319E+02  0.45045685366E+02  0.00000000000E+00 0. -1.
         11    1    3    3    0    0  0.31440047040E+01  0.18847157080E+01  0.13223213703E+02  0.13721891261E+02  0.51100000000E-03 0. -1.
        -11    1    3    3    0    0  0.42594307726E+01  0.71953495495E+01  0.19291651557E+02  0.21025784782E+02  0.51100000000E-03 0.  1.
        -12    1    3    3    0    0 -0.17045982214E+01  0.59571091757E+01  0.95626870583E+01  0.11394638590E+02  0.00000000000E+00 0.  1.
</event>
<event>
 7    1  0.2438448E-008  0.4614232E+02  0.7816164E-02  0.1320468E+00
        -11   -1    0    0    0    0  0.00000000000E+00  0.00000000000E+00  0.45593999997E+02  0.45594000000E+02  0.51100000000E-03 0.  1.
         11   -1    0    0    0    0 -0.00000000000E+00 -0.00000000000E+00 -0.45593999997E+02  0.45594000000E+02  0.51100000000E-03 0. -1.
    9900012    2    1    2    0    0  0.16482128192E+02  0.36017512320E+02  0.21452080615E+02  0.46142317564E+02  0.99999982004E+01 0.  0.
         12    1    1    2    0    0 -0.16482128192E+02 -0.36017512320E+02 -0.21452080615E+02  0.45045682436E+02  0.00000000000E+00 0. -1.
         11    1    3    3    0    0  0.63975706122E+01  0.86014948542E+01  0.41925523491E+01  0.11510522096E+02  0.51100000000E-03 0. -1.
        -11    1    3    3    0    0  0.10024800679E+01  0.11134205292E+02  0.45578823670E+01  0.12072687593E+02  0.51100000000E-03 0.  1.
        -12    1    3    3    0    0  0.90820775116E+01  0.16281812173E+02  0.12701645899E+02  0.22559107875E+02  0.00000000000E+00 0.  1.
</event>
<event>
 7    1  0.2438448E-008  0.4614232E+02  0.7816164E-02  0.1320468E+00
        -11   -1    0    0    0    0  0.00000000000E+00  0.00000000000E+00  0.45593999997E+02  0.45594000000E+02  0.51100000000E-03 0. -1.
         11   -1    0    0    0    0 -0.00000000000E+00 -0.00000000000E+00 -0.45593999997E+02  0.45594000000E+02  0.51100000000E-03 0.  1.
    9900012    2    1    2    0    0 -0.32606323645E+02  0.28333034880E+02 -0.12774189565E+02  0.46142321781E+02  0.10000036652E+02 0.  0.
         12    1    1    2    0    0  0.32606323645E+02 -0.28333034880E+02  0.12774189565E+02  0.45045678219E+02  0.00000000000E+00 0. -1.
         11    1    3    3    0    0 -0.70558476490E+01  0.36359791730E+01  0.85295612505E-01  0.79380480091E+01  0.51100000000E-03 0. -1.
        -11    1    3    3    0    0 -0.25549619982E+02  0.24438573548E+02 -0.12047222404E+02  0.37351874467E+02  0.51100000000E-03 0.  1.
         12    1    3    3    0    0 -0.85601395961E-03  0.25848215952E+00 -0.81226277432E+00  0.85239930437E+00  0.00000000000E+00 0. -1.
</event>
<event>
 7    1  0.2438448E-008  0.4614232E+02  0.7816164E-02  0.1320468E+00
        -11   -1    0    0    0    0  0.00000000000E+00  0.00000000000E+00  0.45593999997E+02  0.45594000000E+02  0.51100000000E-03 0.  1.
         11   -1    0    0    0    0 -0.00000000000E+00 -0.00000000000E+00 -0.45593999997E+02  0.45594000000E+02  0.51100000000E-03 0. -1.
    9900012    2    1    2    0    0  0.66088990848E+01  0.24813077925E+02  0.37010094588E+02  0.46142317803E+02  0.10000000380E+02 0.  0.
         12    1    1    2    0    0 -0.66088990848E+01 -0.24813077925E+02 -0.37010094588E+02  0.45045682197E+02  0.00000000000E+00 0. -1.
         11    1    3    3    0    0  0.73159292831E+00  0.56909525114E+01  0.92900323604E+01  0.10919105743E+02  0.51100000000E-03 0. -1.
        -11    1    3    3    0    0  0.70807582120E+01  0.18870971422E+02  0.27278228330E+02  0.33916845967E+02  0.51100000000E-03 0.  1.
         12    1    3    3    0    0 -0.12034520555E+01  0.25115399148E+00  0.44183389794E+00  0.13063660937E+01  0.00000000000E+00 0. -1.
</event>
<event>
 7    1  0.2438448E-008  0.4614232E+02  0.7816164E-02  0.1320468E+00
        -11   -1    0    0    0    0  0.00000000000E+00  0.00000000000E+00  0.45593999997E+02  0.45594000000E+02  0.51100000000E-03 0. -1.
         11   -1    0    0    0    0 -0.00000000000E+00 -0.00000000000E+00 -0.45593999997E+02  0.45594000000E+02  0.51100000000E-03 0.  1.
    9900012    2    1    2    0    0  0.40597190939E+02  0.12182837154E+02 -0.15249919044E+02  0.46142318030E+02  0.10000002454E+02 0.  0.
         12    1    1    2    0    0 -0.40597190939E+02 -0.12182837154E+02  0.15249919044E+02  0.45045681970E+02  0.00000000000E+00 0. -1.
         11    1    3    3    0    0  0.37262952306E+02  0.12547658870E+02 -0.13021796350E+02  0.41419060083E+02  0.51100000000E-03 0. -1.
        -11    1    3    3    0    0  0.35508588939E+01 -0.65325857203E+00 -0.14979872422E+01  0.39088760130E+01  0.51100000000E-03 0.  1.
         12    1    3    3    0    0 -0.21662026094E+00  0.28843685526E+00 -0.73013545175E+00  0.81438193425E+00  0.00000000000E+00 0. -1.
</event>
<event>
 7    1  0.2438448E-008  0.4614232E+02  0.7816164E-02  0.1320468E+00
        -11   -1    0    0    0    0  0.00000000000E+00  0.00000000000E+00  0.45593999997E+02  0.45594000000E+02  0.51100000000E-03 0. -1.
         11   -1    0    0    0    0 -0.00000000000E+00 -0.00000000000E+00 -0.45593999997E+02  0.45594000000E+02  0.51100000000E-03 0.  1.
    9900012    2    1    2    0    0 -0.28960700501E+02  0.30888403961E+02 -0.15371982364E+02  0.46142317470E+02  0.99999973481E+01 0.  0.
         12    1    1    2    0    0  0.28960700501E+02 -0.30888403961E+02  0.15371982364E+02  0.45045682530E+02  0.00000000000E+00 0. -1.
         11    1    3    3    0    0 -0.14131943845E+02  0.12052037042E+02 -0.54922163252E+01  0.19368218145E+02  0.51100000000E-03 0. -1.
        -11    1    3    3    0    0 -0.31120654315E+01  0.89641412987E+01 -0.47906375259E+01  0.10629721945E+02  0.51100000000E-03 0.  1.
        -12    1    3    3    0    0 -0.11716691224E+02  0.98722256203E+01 -0.50891285132E+01  0.16144377379E+02  0.00000000000E+00 0.  1.
</event>
<event>
 7    1  0.2438448E-008  0.4614232E+02  0.7816164E-02  0.1320468E+00
        -11   -1    0    0    0    0  0.00000000000E+00  0.00000000000E+00  0.45593999997E+02  0.45594000000E+02  0.51100000000E-03 0. -1.
         11   -1    0    0    0    0 -0.00000000000E+00 -0.00000000000E+00 -0.45593999997E+02  0.45594000000E+02  0.51100000000E-03 0.  1.
    9900012    2    1    2    0    0 -0.23753507332E+02 -0.40139962649E+01 -0.38062741838E+02  0.46142316601E+02  0.99999894237E+01 0.  0.
         12    1    1    2    0    0  0.23753507332E+02  0.40139962649E+01  0.38062741838E+02  0.45045683399E+02  0.00000000000E+00 0. -1.
         11    1    3    3    0    0 -0.31069330063E+01 -0.21450307357E+01 -0.28954221766E+01  0.47579049386E+01  0.51100000000E-03 0. -1.
        -11    1    3    3    0    0 -0.12649840411E+02 -0.44156513600E+01 -0.22577121252E+02  0.26253434892E+02  0.51100000000E-03 0.  1.
        -12    1    3    3    0    0 -0.79967339151E+01  0.25466858307E+01 -0.12590198410E+02  0.15130976770E+02  0.00000000000E+00 0.  1.
</event>
<event>
 7    1  0.2438448E-008  0.4614232E+02  0.7816164E-02  0.1320468E+00
        -11   -1    0    0    0    0  0.00000000000E+00  0.00000000000E+00  0.45593999997E+02  0.45594000000E+02  0.51100000000E-03 0.  1.
         11   -1    0    0    0    0 -0.00000000000E+00 -0.00000000000E+00 -0.45593999997E+02  0.45594000000E+02  0.51100000000E-03 0. -1.
    9900012    2    1    2    0    0 -0.33045899427E+00 -0.21778208055E+02  0.39429858533E+02  0.46142319927E+02  0.10000019753E+02 0.  0.
         12    1    1    2    0    0  0.33045899427E+00  0.21778208055E+02 -0.39429858533E+02  0.45045680073E+02  0.00000000000E+00 0. -1.
         11    1    3    3    0    0  0.21357035750E+00  0.89392114797E+00  0.94510764886E+00  0.13183080237E+01  0.51100000000E-03 0. -1.
        -11    1    3    3    0    0 -0.50272485165E+00 -0.11776535357E+02  0.23573158666E+02  0.26355897386E+02  0.51100000000E-03 0.  1.
        -12    1    3    3    0    0 -0.41304500120E-01 -0.10895593846E+02  0.14911592219E+02  0.18468114517E+02  0.00000000000E+00 0.  1.
</event>
<event>
 7    1  0.2438448E-008  0.4614232E+02  0.7816164E-02  0.1320468E+00
        -11   -1    0    0    0    0  0.00000000000E+00  0.00000000000E+00  0.45593999997E+02  0.45594000000E+02  0.51100000000E-03 0. -1.
         11   -1    0    0    0    0 -0.00000000000E+00 -0.00000000000E+00 -0.45593999997E+02  0.45594000000E+02  0.51100000000E-03 0.  1.
    9900012    2    1    2    0    0 -0.33381918129E+01 -0.42606701694E+02 -0.14235128549E+02  0.46142318313E+02  0.10000005034E+02 0.  0.
         12    1    1    2    0    0  0.33381918129E+01  0.42606701694E+02  0.14235128549E+02  0.45045681687E+02  0.00000000000E+00 0. -1.
         11    1    3    3    0    0  0.10656910142E+01 -0.91777579436E+00 -0.58366457507E-01  0.14076280229E+01  0.51100000000E-03 0. -1.
        -11    1    3    3    0    0 -0.36739368191E+01 -0.12561539131E+02 -0.64510221860E+01  0.14591290711E+02  0.51100000000E-03 0.  1.
         12    1    3    3    0    0 -0.72994600789E+00 -0.29127386768E+02 -0.77257399059E+01  0.30143399579E+02  0.00000000000E+00 0. -1.
</event>
<event>
 7    1  0.2438448E-008  0.4614232E+02  0.7816164E-02  0.1320468E+00
        -11   -1    0    0    0    0  0.00000000000E+00  0.00000000000E+00  0.45593999997E+02  0.45594000000E+02  0.51100000000E-03 0.  1.
         11   -1    0    0    0    0 -0.00000000000E+00 -0.00000000000E+00 -0.45593999997E+02  0.45594000000E+02  0.51100000000E-03 0. -1.
    9900012    2    1    2    0    0 -0.30338534760E+02 -0.26455086115E+02  0.20219182847E+02  0.46142316214E+02  0.99999858928E+01 0.  0.
         12    1    1    2    0    0  0.30338534760E+02  0.26455086115E+02 -0.20219182847E+02  0.45045683786E+02  0.00000000000E+00 0. -1.
         11    1    3    3    0    0 -0.63867552220E+01 -0.80026758883E+01  0.34846059829E+01  0.10815541723E+02  0.51100000000E-03 0. -1.
        -11    1    3    3    0    0 -0.24174389773E+02 -0.16875358293E+02  0.16241294080E+02  0.33659448481E+02  0.51100000000E-03 0.  1.
         12    1    3    3    0    0  0.22261023501E+00 -0.15770519336E+01  0.49328278430E+00  0.16673260099E+01  0.00000000000E+00 0. -1.
</event>
<event>
 7    1  0.2438448E-008  0.4614232E+02  0.7816164E-02  0.1320468E+00
        -11   -1    0    0    0    0  0.00000000000E+00  0.00000000000E+00  0.45593999997E+02  0.45594000000E+02  0.51100000000E-03 0.  1.
         11   -1    0    0    0    0 -0.00000000000E+00 -0.00000000000E+00 -0.45593999997E+02  0.45594000000E+02  0.51100000000E-03 0. -1.
    9900012    2    1    2    0    0  0.32950471439E+02 -0.29353976713E+02  0.90401301436E+01  0.46142317965E+02  0.10000001863E+02 0.  0.
         12    1    1    2    0    0 -0.32950471439E+02  0.29353976713E+02 -0.90401301436E+01  0.45045682035E+02  0.00000000000E+00 0. -1.
         11    1    3    3    0    0  0.10784584543E+02 -0.10400853429E+02 -0.12567104012E+01  0.15035436047E+02  0.51100000000E-03 0. -1.
        -11    1    3    3    0    0  0.14386028778E+02 -0.10916422224E+02  0.50487287483E+01  0.18751420224E+02  0.51100000000E-03 0.  1.
         12    1    3    3    0    0  0.77798581181E+01 -0.80367010600E+01  0.52481117965E+01  0.12355461695E+02  0.00000000000E+00 0. -1.
</event>
<event>
 7    1  0.2438448E-008  0.4614232E+02  0.7816164E-02  0.1320468E+00
        -11   -1    0    0    0    0  0.00000000000E+00  0.00000000000E+00  0.45593999997E+02  0.45594000000E+02  0.51100000000E-03 0.  1.
         11   -1    0    0    0    0 -0.00000000000E+00 -0.00000000000E+00 -0.45593999997E+02  0.45594000000E+02  0.51100000000E-03 0. -1.
    9900012    2    1    2    0    0  0.40451029546E+02 -0.19505213742E+02 -0.35177189557E+01  0.46142317620E+02  0.99999987124E+01 0.  0.
         12    1    1    2    0    0 -0.40451029546E+02  0.19505213742E+02  0.35177189557E+01  0.45045682380E+02  0.00000000000E+00 0. -1.
         11    1    3    3    0    0  0.13284955183E+02 -0.71655114650E+01  0.13036636838E+01  0.15150383759E+02  0.51100000000E-03 0. -1.
        -11    1    3    3    0    0  0.16493573410E+02 -0.69453066757E+01  0.49960998050E+00  0.17903208066E+02  0.51100000000E-03 0.  1.
        -12    1    3    3    0    0  0.10672500952E+02 -0.53943956017E+01 -0.53209926200E+01  0.13088725795E+02  0.00000000000E+00 0.  1.
</event>
<event>
 7    1  0.2438448E-008  0.4614232E+02  0.7816164E-02  0.1320468E+00
        -11   -1    0    0    0    0  0.00000000000E+00  0.00000000000E+00  0.45593999997E+02  0.45594000000E+02  0.51100000000E-03 0.  1.
         11   -1    0    0    0    0 -0.00000000000E+00 -0.00000000000E+00 -0.45593999997E+02  0.45594000000E+02  0.51100000000E-03 0. -1.
    9900012    2    1    2    0    0  0.32975699417E+02  0.24021727386E+02  0.19096422121E+02  0.46142317893E+02  0.10000001203E+02 0.  0.
         12    1    1    2    0    0 -0.32975699417E+02 -0.24021727386E+02 -0.19096422121E+02  0.45045682107E+02  0.00000000000E+00 0. -1.
         11    1    3    3    0    0  0.53292234524E+01  0.97963558169E+00  0.48837723976E+01  0.72946241556E+01  0.51100000000E-03 0. -1.
        -11    1    3    3    0    0  0.13801834317E+02  0.99756854272E+01  0.53606095757E+01  0.17853320855E+02  0.51100000000E-03 0.  1.
         12    1    3    3    0    0  0.13844641648E+02  0.13066406377E+02  0.88520401475E+01  0.20994372883E+02  0.00000000000E+00 0. -1.
</event>
<event>
 7    1  0.2438448E-008  0.4614232E+02  0.7816164E-02  0.1320468E+00
        -11   -1    0    0    0    0  0.00000000000E+00  0.00000000000E+00  0.45593999997E+02  0.45594000000E+02  0.51100000000E-03 0. -1.
         11   -1    0    0    0    0 -0.00000000000E+00 -0.00000000000E+00 -0.45593999997E+02  0.45594000000E+02  0.51100000000E-03 0.  1.
    9900012    2    1    2    0    0 -0.10796563647E+02 -0.15725489094E+01 -0.43704403875E+02  0.46142316359E+02  0.99999872142E+01 0.  0.
         12    1    1    2    0    0  0.10796563647E+02  0.15725489094E+01  0.43704403875E+02  0.45045683641E+02  0.00000000000E+00 0. -1.
         11    1    3    3    0    0 -0.61008559946E+01  0.79063926728E+00 -0.10288859489E+02  0.11987751422E+02  0.51100000000E-03 0. -1.
        -11    1    3    3    0    0 -0.52658935343E+01 -0.26109952405E+01 -0.23656760181E+02  0.24375997074E+02  0.51100000000E-03 0.  1.
         12    1    3    3    0    0  0.57018588184E+00  0.24780706383E+00 -0.97587842049E+01  0.97785678624E+01  0.00000000000E+00 0. -1.
</event>
<event>
 7    1  0.2438448E-008  0.4614232E+02  0.7816164E-02  0.1320468E+00
        -11   -1    0    0    0    0  0.00000000000E+00  0.00000000000E+00  0.45593999997E+02  0.45594000000E+02  0.51100000000E-03 0.  1.
         11   -1    0    0    0    0 -0.00000000000E+00 -0.00000000000E+00 -0.45593999997E+02  0.45594000000E+02  0.51100000000E-03 0. -1.
    9900012    2    1    2    0    0 -0.17295650073E+02 -0.18189913171E+02  0.37404559232E+02  0.46142317588E+02  0.99999984174E+01 0.  0.
         12    1    1    2    0    0  0.17295650073E+02  0.18189913171E+02 -0.37404559232E+02  0.45045682412E+02  0.00000000000E+00 0. -1.
         11    1    3    3    0    0 -0.82879927800E+01 -0.85365628826E+01  0.23160173217E+02  0.26037614212E+02  0.51100000000E-03 0. -1.
        -11    1    3    3    0    0 -0.51010862308E+01 -0.87719672162E+01  0.10841226975E+02  0.14849265711E+02  0.51100000000E-03 0.  1.
         12    1    3    3    0    0 -0.39065710625E+01 -0.88138307260E+00  0.34031590404E+01  0.52554376641E+01  0.00000000000E+00 0. -1.
</event>
<event>
 7    1  0.2438448E-008  0.4614232E+02  0.7816164E-02  0.1320468E+00
        -11   -1    0    0    0    0  0.00000000000E+00  0.00000000000E+00  0.45593999997E+02  0.45594000000E+02  0.51100000000E-03 0.  1.
         11   -1    0    0    0    0 -0.00000000000E+00 -0.00000000000E+00 -0.45593999997E+02  0.45594000000E+02  0.51100000000E-03 0. -1.
    9900012    2    1    2    0    0  0.11951239381E+02 -0.27359517923E+02  0.33730367218E+02  0.46142323000E+02  0.10000047773E+02 0.  0.
         12    1    1    2    0    0 -0.11951239381E+02  0.27359517923E+02 -0.33730367218E+02  0.45045677000E+02  0.00000000000E+00 0. -1.
         11    1    3    3    0    0  0.31006373193E+01 -0.57318454111E+01  0.92938532160E+01  0.11350934387E+02  0.51100000000E-03 0.  1.
        -11    1    3    3    0    0  0.12435346782E+01 -0.10622171066E+01  0.57620015931E+01  0.59896031836E+01  0.51100000000E-03 0. -1.
         12    1    3    3    0    0  0.76070673834E+01 -0.20565455405E+02  0.18674512409E+02  0.28801785429E+02  0.00000000000E+00 0. -1.
</event>
<event>
 7    1  0.2438448E-008  0.4614232E+02  0.7816164E-02  0.1320468E+00
        -11   -1    0    0    0    0  0.00000000000E+00  0.00000000000E+00  0.45593999997E+02  0.45594000000E+02  0.51100000000E-03 0.  1.
         11   -1    0    0    0    0 -0.00000000000E+00 -0.00000000000E+00 -0.45593999997E+02  0.45594000000E+02  0.51100000000E-03 0. -1.
    9900012    2    1    2    0    0 -0.14117185012E+02  0.41636591823E+02  0.98088097424E+01  0.46142318299E+02  0.10000004908E+02 0.  0.
         12    1    1    2    0    0  0.14117185012E+02 -0.41636591823E+02 -0.98088097424E+01  0.45045681701E+02  0.00000000000E+00 0. -1.
         11    1    3    3    0    0 -0.90011046159E+00  0.18720117836E+01  0.18901326488E+01  0.28084210248E+01  0.51100000000E-03 0. -1.
        -11    1    3    3    0    0 -0.48037329796E+01  0.13186148659E+02  0.63720563034E+01  0.15412769666E+02  0.51100000000E-03 0.  1.
         12    1    3    3    0    0 -0.84133415709E+01  0.26578431381E+02  0.15466207902E+01  0.27921127608E+02  0.00000000000E+00 0. -1.
</event>
<event>
 7    1  0.2438448E-008  0.4614232E+02  0.7816164E-02  0.1320468E+00
        -11   -1    0    0    0    0  0.00000000000E+00  0.00000000000E+00  0.45593999997E+02  0.45594000000E+02  0.51100000000E-03 0.  1.
         11   -1    0    0    0    0 -0.00000000000E+00 -0.00000000000E+00 -0.45593999997E+02  0.45594000000E+02  0.51100000000E-03 0. -1.
    9900012    2    1    2    0    0  0.42676797878E+01 -0.17959650241E+02  0.41089553337E+02  0.46142317399E+02  0.99999966956E+01 0.  0.
         12    1    1    2    0    0 -0.42676797878E+01  0.17959650241E+02 -0.41089553337E+02  0.45045682601E+02  0.00000000000E+00 0. -1.
         11    1    3    3    0    0  0.13890706153E+01  0.63952451221E+00  0.19476239430E+01  0.24762366729E+01  0.51100000000E-03 0. -1.
        -11    1    3    3    0    0  0.37992786521E+01 -0.13582195030E+02  0.31013929305E+02  0.34070138704E+02  0.51100000000E-03 0.  1.
        -12    1    3    3    0    0 -0.92066947957E+00 -0.50169797235E+01  0.81280000893E+01  0.95959420219E+01  0.00000000000E+00 0.  1.
</event>
<event>
 7    1  0.2438448E-008  0.4614232E+02  0.7816164E-02  0.1320468E+00
        -11   -1    0    0    0    0  0.00000000000E+00  0.00000000000E+00  0.45593999997E+02  0.45594000000E+02  0.51100000000E-03 0.  1.
         11   -1    0    0    0    0 -0.00000000000E+00 -0.00000000000E+00 -0.45593999997E+02  0.45594000000E+02  0.51100000000E-03 0. -1.
    9900012    2    1    2    0    0 -0.24307179370E+01 -0.12395330110E+02  0.43238419530E+02  0.46142317391E+02  0.99999966286E+01 0.  0.
         12    1    1    2    0    0  0.24307179370E+01  0.12395330110E+02 -0.43238419530E+02  0.45045682609E+02  0.00000000000E+00 0. -1.
         11    1    3    3    0    0  0.20067156172E+01 -0.24909376684E+01  0.64781359384E+01  0.72248130449E+01  0.51100000000E-03 0. -1.
        -11    1    3    3    0    0 -0.46128991077E+01 -0.23286017099E+01  0.13571087196E+02  0.14521557494E+02  0.51100000000E-03 0.  1.
        -12    1    3    3    0    0  0.17546555338E+00 -0.75757907315E+01  0.23189196396E+02  0.24395946853E+02  0.00000000000E+00 0.  1.
</event>
<event>
 7    1  0.2438448E-008  0.4614232E+02  0.7816164E-02  0.1320468E+00
        -11   -1    0    0    0    0  0.00000000000E+00  0.00000000000E+00  0.45593999997E+02  0.45594000000E+02  0.51100000000E-03 0.  1.
         11   -1    0    0    0    0 -0.00000000000E+00 -0.00000000000E+00 -0.45593999997E+02  0.45594000000E+02  0.51100000000E-03 0. -1.
    9900012    2    1    2    0    0 -0.64696448655E+01  0.63495009960E+01  0.44124155132E+02  0.46142317258E+02  0.99999954146E+01 0.  0.
         12    1    1    2    0    0  0.64696448655E+01 -0.63495009960E+01 -0.44124155132E+02  0.45045682742E+02  0.00000000000E+00 0. -1.
         11    1    3    3    0    0 -0.70438914704E+01  0.66209182053E+01  0.30308892485E+02  0.31813235121E+02  0.51100000000E-03 0. -1.
        -11    1    3    3    0    0  0.57370857876E-01 -0.16028552837E+01  0.28426644494E+01  0.32639206346E+01  0.51100000000E-03 0.  1.
        -12    1    3    3    0    0  0.51687574701E+00  0.13314380745E+01  0.10972598197E+02  0.11065161503E+02  0.00000000000E+00 0.  1.
</event>
<event>
 7    1  0.2438448E-008  0.4614232E+02  0.7816164E-02  0.1320468E+00
        -11   -1    0    0    0    0  0.00000000000E+00  0.00000000000E+00  0.45593999997E+02  0.45594000000E+02  0.51100000000E-03 0.  1.
         11   -1    0    0    0    0 -0.00000000000E+00 -0.00000000000E+00 -0.45593999997E+02  0.45594000000E+02  0.51100000000E-03 0. -1.
    9900012    2    1    2    0    0  0.96911278150E+01  0.42871829232E+02  0.98590971755E+01  0.46142317664E+02  0.99999991117E+01 0.  0.
         12    1    1    2    0    0 -0.96911278150E+01 -0.42871829232E+02 -0.98590971755E+01  0.45045682336E+02  0.00000000000E+00 0. -1.
         11    1    3    3    0    0 -0.12658863677E+01  0.79645063227E+01  0.27809525556E+00  0.80692729842E+01  0.51100000000E-03 0. -1.
        -11    1    3    3    0    0  0.44318007232E+01  0.21146020204E+02  0.61055498196E+01  0.22451564912E+02  0.51100000000E-03 0.  1.
        -12    1    3    3    0    0  0.65252134594E+01  0.13761302705E+02  0.34754521003E+01  0.15621479768E+02  0.00000000000E+00 0.  1.
</event>
<event>
 7    1  0.2438448E-008  0.4614232E+02  0.7816164E-02  0.1320468E+00
        -11   -1    0    0    0    0  0.00000000000E+00  0.00000000000E+00  0.45593999997E+02  0.45594000000E+02  0.51100000000E-03 0.  1.
         11   -1    0    0    0    0 -0.00000000000E+00 -0.00000000000E+00 -0.45593999997E+02  0.45594000000E+02  0.51100000000E-03 0. -1.
    9900012    2    1    2    0    0 -0.40918799864E+02  0.16351015407E+02 -0.93493065978E+01  0.46142318509E+02  0.10000006820E+02 0.  0.
         12    1    1    2    0    0  0.40918799864E+02 -0.16351015407E+02  0.93493065978E+01  0.45045681491E+02  0.00000000000E+00 0. -1.
         11    1    3    3    0    0 -0.24389977145E+02  0.12604679948E+02 -0.44824957709E+01  0.27818010539E+02  0.51100000000E-03 0. -1.
        -11    1    3    3    0    0 -0.67463503503E+01  0.28952264639E+01 -0.42561888476E+01  0.84859132151E+01  0.51100000000E-03 0.  1.
        -12    1    3    3    0    0 -0.97824723683E+01  0.85110899460E+00 -0.61062197935E+00  0.98383947552E+01  0.00000000000E+00 0.  1.
</event>
<event>
 7    1  0.2438448E-008  0.4614232E+02  0.7816164E-02  0.1320468E+00
        -11   -1    0    0    0    0  0.00000000000E+00  0.00000000000E+00  0.45593999997E+02  0.45594000000E+02  0.51100000000E-03 0. -1.
         11   -1    0    0    0    0 -0.00000000000E+00 -0.00000000000E+00 -0.45593999997E+02  0.45594000000E+02  0.51100000000E-03 0.  1.
    9900012    2    1    2    0    0  0.20664317167E+02  0.35827237009E+02 -0.17846807992E+02  0.46142317952E+02  0.10000001737E+02 0.  0.
         12    1    1    2    0    0 -0.20664317167E+02 -0.35827237009E+02  0.17846807992E+02  0.45045682048E+02  0.00000000000E+00 0. -1.
         11    1    3    3    0    0  0.54888316219E+01  0.79064231486E+01 -0.40847431895E+01  0.10455808279E+02  0.51100000000E-03 0. -1.
        -11    1    3    3    0    0  0.11432887509E+02  0.14444729077E+02 -0.46687198911E+01  0.19004159034E+02  0.51100000000E-03 0.  1.
         12    1    3    3    0    0  0.37425980361E+01  0.13476084784E+02 -0.90933449114E+01  0.16682350639E+02  0.00000000000E+00 0. -1.
</event>
<event>
 7    1  0.2438448E-008  0.4614232E+02  0.7816164E-02  0.1320468E+00
        -11   -1    0    0    0    0  0.00000000000E+00  0.00000000000E+00  0.45593999997E+02  0.45594000000E+02  0.51100000000E-03 0.  1.
         11   -1    0    0    0    0 -0.00000000000E+00 -0.00000000000E+00 -0.45593999997E+02  0.45594000000E+02  0.51100000000E-03 0. -1.
    9900012    2    1    2    0    0 -0.36187296625E+02  0.18978044330E+02  0.18958556495E+02  0.46142317988E+02  0.10000002067E+02 0.  0.
         12    1    1    2    0    0  0.36187296625E+02 -0.18978044330E+02 -0.18958556495E+02  0.45045682012E+02  0.00000000000E+00 0. -1.
         11    1    3    3    0    0 -0.71151990428E+01  0.26704249759E+01  0.24719097170E+01  0.79917185186E+01  0.51100000000E-03 0. -1.
        -11    1    3    3    0    0 -0.15078456616E+02  0.62035231226E+01  0.12206342313E+02  0.20367580759E+02  0.51100000000E-03 0.  1.
         12    1    3    3    0    0 -0.13993640966E+02  0.10104096231E+02  0.42803044646E+01  0.17783018710E+02  0.00000000000E+00 0. -1.
</event>
<event>
 7    1  0.2438448E-008  0.4614232E+02  0.7816164E-02  0.1320468E+00
        -11   -1    0    0    0    0  0.00000000000E+00  0.00000000000E+00  0.45593999997E+02  0.45594000000E+02  0.51100000000E-03 0.  1.
         11   -1    0    0    0    0 -0.00000000000E+00 -0.00000000000E+00 -0.45593999997E+02  0.45594000000E+02  0.51100000000E-03 0. -1.
    9900012    2    1    2    0    0 -0.16113969703E+02  0.11142406853E+02  0.40562301571E+02  0.46142316980E+02  0.99999928735E+01 0.  0.
         12    1    1    2    0    0  0.16113969703E+02 -0.11142406853E+02 -0.40562301571E+02  0.45045683020E+02  0.00000000000E+00 0. -1.
         11    1    3    3    0    0 -0.30495767606E+01  0.20905423272E+01  0.17716969638E+02  0.18098654620E+02  0.51100000000E-03 0. -1.
        -11    1    3    3    0    0 -0.18369517111E+01  0.22211420206E+00  0.39048433072E+01  0.43210563318E+01  0.51100000000E-03 0.  1.
        -12    1    3    3    0    0 -0.11227441231E+02  0.88297503237E+01  0.18940488626E+02  0.23722606028E+02  0.00000000000E+00 0.  1.
</event>
<event>
 7    1  0.2438448E-008  0.4614232E+02  0.7816164E-02  0.1320468E+00
        -11   -1    0    0    0    0  0.00000000000E+00  0.00000000000E+00  0.45593999997E+02  0.45594000000E+02  0.51100000000E-03 0.  1.
         11   -1    0    0    0    0 -0.00000000000E+00 -0.00000000000E+00 -0.45593999997E+02  0.45594000000E+02  0.51100000000E-03 0. -1.
    9900012    2    1    2    0    0  0.41409805092E+02  0.15653239158E+01  0.17660443688E+02  0.46142317987E+02  0.10000002059E+02 0.  0.
         12    1    1    2    0    0 -0.41409805092E+02 -0.15653239158E+01 -0.17660443688E+02  0.45045682013E+02  0.00000000000E+00 0. -1.
         11    1    3    3    0    0  0.58282954233E+01 -0.11225234850E+01  0.39929361610E+01  0.71535044533E+01  0.51100000000E-03 0. -1.
        -11    1    3    3    0    0  0.11880853105E+02 -0.21747075177E+01  0.66957383596E+01  0.13810030258E+02  0.51100000000E-03 0.  1.
         12    1    3    3    0    0  0.23700656564E+02  0.48625549184E+01  0.69717691675E+01  0.25178783276E+02  0.00000000000E+00 0. -1.
</event>
<event>
 7    1  0.2438448E-008  0.4614232E+02  0.7816164E-02  0.1320468E+00
        -11   -1    0    0    0    0  0.00000000000E+00  0.00000000000E+00  0.45593999997E+02  0.45594000000E+02  0.51100000000E-03 0.  1.
         11   -1    0    0    0    0 -0.00000000000E+00 -0.00000000000E+00 -0.45593999997E+02  0.45594000000E+02  0.51100000000E-03 0. -1.
    9900012    2    1    2    0    0  0.31545806316E+02 -0.17035318784E+02  0.27272208699E+02  0.46142319302E+02  0.10000014055E+02 0.  0.
         12    1    1    2    0    0 -0.31545806316E+02  0.17035318784E+02 -0.27272208699E+02  0.45045680698E+02  0.00000000000E+00 0. -1.
         11    1    3    3    0    0  0.14149038714E+00 -0.11768910393E+01  0.33013166944E+01  0.35076750457E+01  0.51100000000E-03 0. -1.
        -11    1    3    3    0    0  0.18086631154E+02 -0.10381460441E+02  0.13881991059E+02  0.25052158059E+02  0.51100000000E-03 0.  1.
         12    1    3    3    0    0  0.13317684775E+02 -0.54769673029E+01  0.10088900945E+02  0.17582486197E+02  0.00000000000E+00 0. -1.
</event>
<event>
 7    1  0.2438448E-008  0.4614232E+02  0.7816164E-02  0.1320468E+00
        -11   -1    0    0    0    0  0.00000000000E+00  0.00000000000E+00  0.45593999997E+02  0.45594000000E+02  0.51100000000E-03 0.  1.
         11   -1    0    0    0    0 -0.00000000000E+00 -0.00000000000E+00 -0.45593999997E+02  0.45594000000E+02  0.51100000000E-03 0. -1.
    9900012    2    1    2    0    0 -0.25704847520E+02 -0.22631797447E+02  0.29260486568E+02  0.46142317455E+02  0.99999972088E+01 0.  0.
         12    1    1    2    0    0  0.25704847520E+02  0.22631797447E+02 -0.29260486568E+02  0.45045682545E+02  0.00000000000E+00 0. -1.
         11    1    3    3    0    0 -0.98145831907E+01 -0.33966950093E+01  0.87223719223E+01  0.13562571747E+02  0.51100000000E-03 0. -1.
        -11    1    3    3    0    0 -0.14533735943E+02 -0.15720882219E+02  0.16292632874E+02  0.26904005361E+02  0.51100000000E-03 0.  1.
        -12    1    3    3    0    0 -0.13565283861E+01 -0.35142202190E+01  0.42454817718E+01  0.56757403468E+01  0.00000000000E+00 0.  1.
</event>
<event>
 7    1  0.2438448E-008  0.4614232E+02  0.7816164E-02  0.1320468E+00
        -11   -1    0    0    0    0  0.00000000000E+00  0.00000000000E+00  0.45593999997E+02  0.45594000000E+02  0.51100000000E-03 0.  1.
         11   -1    0    0    0    0 -0.00000000000E+00 -0.00000000000E+00 -0.45593999997E+02  0.45594000000E+02  0.51100000000E-03 0. -1.
    9900012    2    1    2    0    0 -0.30768691501E+02  0.22315186745E+02  0.24175057941E+02  0.46142319157E+02  0.10000012730E+02 0.  0.
         12    1    1    2    0    0  0.30768691501E+02 -0.22315186745E+02 -0.24175057941E+02  0.45045680843E+02  0.00000000000E+00 0. -1.
         11    1    3    3    0    0 -0.11505589665E+02  0.72213082230E+01  0.93291330682E+01  0.16479035471E+02  0.51100000000E-03 0. -1.
        -11    1    3    3    0    0 -0.13056617944E+02  0.87731582873E+01  0.13447995476E+02  0.20695220729E+02  0.51100000000E-03 0.  1.
         12    1    3    3    0    0 -0.62064838916E+01  0.63207202352E+01  0.13979293968E+01  0.89680629562E+01  0.00000000000E+00 0. -1.
</event>
<event>
 7    1  0.2438448E-008  0.4614232E+02  0.7816164E-02  0.1320468E+00
        -11   -1    0    0    0    0  0.00000000000E+00  0.00000000000E+00  0.45593999997E+02  0.45594000000E+02  0.51100000000E-03 0.  1.
         11   -1    0    0    0    0 -0.00000000000E+00 -0.00000000000E+00 -0.45593999997E+02  0.45594000000E+02  0.51100000000E-03 0. -1.
    9900012    2    1    2    0    0 -0.38397563907E+02  0.11394408967E+02  0.20613297993E+02  0.46142317368E+02  0.99999964136E+01 0.  0.
         12    1    1    2    0    0  0.38397563907E+02 -0.11394408967E+02 -0.20613297993E+02  0.45045682632E+02  0.00000000000E+00 0. -1.
         11    1    3    3    0    0 -0.19034372602E+01  0.18552897901E+00  0.17412667078E+01  0.25864076273E+01  0.51100000000E-03 0. -1.
        -11    1    3    3    0    0 -0.29867881803E+02  0.57453590646E+01  0.16694704860E+02  0.34696003874E+02  0.51100000000E-03 0.  1.
        -12    1    3    3    0    0 -0.66262448435E+01  0.54635209238E+01  0.21773264243E+01  0.88599058668E+01  0.00000000000E+00 0.  1.
</event>
<event>
 7    1  0.2438448E-008  0.4614232E+02  0.7816164E-02  0.1320468E+00
        -11   -1    0    0    0    0  0.00000000000E+00  0.00000000000E+00  0.45593999997E+02  0.45594000000E+02  0.51100000000E-03 0. -1.
         11   -1    0    0    0    0 -0.00000000000E+00 -0.00000000000E+00 -0.45593999997E+02  0.45594000000E+02  0.51100000000E-03 0.  1.
    9900012    2    1    2    0    0 -0.16148711974E+02 -0.39233726009E+02  0.15134313793E+02  0.46142316423E+02  0.99999877951E+01 0.  0.
         12    1    1    2    0    0  0.16148711974E+02  0.39233726009E+02 -0.15134313793E+02  0.45045683577E+02  0.00000000000E+00 0. -1.
         11    1    3    3    0    0  0.24387127170E+00 -0.18615844864E+01  0.22755716193E+01  0.29501180405E+01  0.51100000000E-03 0. -1.
        -11    1    3    3    0    0 -0.92223312278E+01 -0.18128949244E+02  0.35587629781E+01  0.20648849560E+02  0.51100000000E-03 0.  1.
         12    1    3    3    0    0 -0.71702520179E+01 -0.19243192279E+02  0.92999791953E+01  0.22543348822E+02  0.00000000000E+00 0. -1.
</event>
<event>
 7    1  0.2438448E-008  0.4614232E+02  0.7816164E-02  0.1320468E+00
        -11   -1    0    0    0    0  0.00000000000E+00  0.00000000000E+00  0.45593999997E+02  0.45594000000E+02  0.51100000000E-03 0.  1.
         11   -1    0    0    0    0 -0.00000000000E+00 -0.00000000000E+00 -0.45593999997E+02  0.45594000000E+02  0.51100000000E-03 0. -1.
    9900012    2    1    2    0    0 -0.36075385632E+02  0.13527138134E+02  0.23338734881E+02  0.46142318071E+02  0.10000002828E+02 0.  0.
         12    1    1    2    0    0  0.36075385632E+02 -0.13527138134E+02 -0.23338734881E+02  0.45045681929E+02  0.00000000000E+00 0. -1.
         11    1    3    3    0    0 -0.68227323791E+01  0.77155762770E+00  0.27894585683E+01  0.74112116186E+01  0.51100000000E-03 0. -1.
        -11    1    3    3    0    0 -0.15764983200E+02  0.29817137634E+01  0.83685300214E+01  0.18095789766E+02  0.51100000000E-03 0.  1.
        -12    1    3    3    0    0 -0.13487670053E+02  0.97738667432E+01  0.12180746291E+02  0.20635316687E+02  0.00000000000E+00 0.  1.
</event>
<event>
 7    1  0.2438448E-008  0.4614232E+02  0.7816164E-02  0.1320468E+00
        -11   -1    0    0    0    0  0.00000000000E+00  0.00000000000E+00  0.45593999997E+02  0.45594000000E+02  0.51100000000E-03 0. -1.
         11   -1    0    0    0    0 -0.00000000000E+00 -0.00000000000E+00 -0.45593999997E+02  0.45594000000E+02  0.51100000000E-03 0.  1.
    9900012    2    1    2    0    0  0.24125280435E+01 -0.36000932125E+02 -0.26967127829E+02  0.46142318867E+02  0.10000010083E+02 0.  0.
         12    1    1    2    0    0 -0.24125280435E+01  0.36000932125E+02  0.26967127829E+02  0.45045681133E+02  0.00000000000E+00 0. -1.
         11    1    3    3    0    0  0.30257472843E+01 -0.37813837979E+01 -0.37824793645E+01  0.61450110219E+01  0.51100000000E-03 0. -1.
        -11    1    3    3    0    0 -0.25484627858E+01 -0.11606613038E+02 -0.88123760371E+01  0.14794123849E+02  0.51100000000E-03 0.  1.
        -12    1    3    3    0    0  0.19352435450E+01 -0.20612935289E+02 -0.14372272427E+02  0.25203183996E+02  0.00000000000E+00 0.  1.
</event>
<event>
 7    1  0.2438448E-008  0.4614232E+02  0.7816164E-02  0.1320468E+00
        -11   -1    0    0    0    0  0.00000000000E+00  0.00000000000E+00  0.45593999997E+02  0.45594000000E+02  0.51100000000E-03 0.  1.
         11   -1    0    0    0    0 -0.00000000000E+00 -0.00000000000E+00 -0.45593999997E+02  0.45594000000E+02  0.51100000000E-03 0. -1.
    9900012    2    1    2    0    0 -0.40063081147E+01  0.44154310359E+02  0.79661630340E+01  0.46142318948E+02  0.10000010822E+02 0.  0.
         12    1    1    2    0    0  0.40063081147E+01 -0.44154310359E+02 -0.79661630340E+01  0.45045681052E+02  0.00000000000E+00 0. -1.
         11    1    3    3    0    0 -0.34605966773E+01  0.60812873453E+01  0.47119685736E+00  0.70128319443E+01  0.51100000000E-03 0. -1.
        -11    1    3    3    0    0 -0.24853419552E+01  0.18539494324E+02  0.24767203794E+01  0.18868596093E+02  0.51100000000E-03 0.  1.
         12    1    3    3    0    0  0.19396305178E+01  0.19533528689E+02  0.50182457973E+01  0.20260890910E+02  0.00000000000E+00 0. -1.
</event>
<event>
 7    1  0.2438448E-008  0.4614231E+02  0.7816164E-02  0.1320468E+00
        -11   -1    0    0    0    0  0.00000000000E+00  0.00000000000E+00  0.45593999997E+02  0.45594000000E+02  0.51100000000E-03 0.  1.
         11   -1    0    0    0    0 -0.00000000000E+00 -0.00000000000E+00 -0.45593999997E+02  0.45594000000E+02  0.51100000000E-03 0. -1.
    9900012    2    1    2    0    0  0.43543743887E+00 -0.22006720333E+02  0.39301763205E+02  0.46142312785E+02  0.99999546264E+01 0.  0.
         12    1    1    2    0    0 -0.43543743887E+00  0.22006720333E+02 -0.39301763205E+02  0.45045687215E+02  0.00000000000E+00 0. -1.
         11    1    3    3    0    0 -0.25308783239E+01 -0.33571202154E+01  0.51631346259E+01  0.66583451891E+01  0.51100000000E-03 0. -1.
        -11    1    3    3    0    0 -0.17510088968E+01 -0.64958525158E+01  0.13263962890E+02  0.14872620612E+02  0.51100000000E-03 0.  1.
        -12    1    3    3    0    0  0.47173246596E+01 -0.12153747602E+02  0.20874665689E+02  0.24611346984E+02  0.00000000000E+00 0.  1.
</event>
<event>
 7    1  0.2438448E-008  0.4614232E+02  0.7816164E-02  0.1320468E+00
        -11   -1    0    0    0    0  0.00000000000E+00  0.00000000000E+00  0.45593999997E+02  0.45594000000E+02  0.51100000000E-03 0. -1.
         11   -1    0    0    0    0 -0.00000000000E+00 -0.00000000000E+00 -0.45593999997E+02  0.45594000000E+02  0.51100000000E-03 0.  1.
    9900012    2    1    2    0    0  0.17207128749E+02 -0.22498298045E+02 -0.35026487822E+02  0.46142317145E+02  0.99999943858E+01 0.  0.
         12    1    1    2    0    0 -0.17207128749E+02  0.22498298045E+02  0.35026487822E+02  0.45045682855E+02  0.00000000000E+00 0. -1.
         11    1    3    3    0    0  0.64239845635E+01 -0.92216813319E+01 -0.15210138417E+02  0.18911776627E+02  0.51100000000E-03 0. -1.
        -11    1    3    3    0    0  0.37999289280E+01 -0.71200463032E+01 -0.14269639583E+02  0.16393813873E+02  0.51100000000E-03 0.  1.
         12    1    3    3    0    0  0.69832152576E+01 -0.61565704094E+01 -0.55467098223E+01  0.10836726646E+02  0.00000000000E+00 0. -1.
</event>
<event>
 7    1  0.2438448E-008  0.4614232E+02  0.7816164E-02  0.1320468E+00
        -11   -1    0    0    0    0  0.00000000000E+00  0.00000000000E+00  0.45593999997E+02  0.45594000000E+02  0.51100000000E-03 0. -1.
         11   -1    0    0    0    0 -0.00000000000E+00 -0.00000000000E+00 -0.45593999997E+02  0.45594000000E+02  0.51100000000E-03 0.  1.
    9900012    2    1    2    0    0  0.42522968511E+02  0.13684029276E+02  0.58015532693E+01  0.46142317315E+02  0.99999959349E+01 0.  0.
         12    1    1    2    0    0 -0.42522968511E+02 -0.13684029276E+02 -0.58015532693E+01  0.45045682685E+02  0.00000000000E+00 0. -1.
         11    1    3    3    0    0  0.10432461364E+02  0.35901495516E+01 -0.13769492896E+01  0.11118516696E+02  0.51100000000E-03 0. -1.
        -11    1    3    3    0    0  0.23360023513E+02  0.81488369560E+01  0.80980148539E+01  0.26032135661E+02  0.51100000000E-03 0.  1.
        -12    1    3    3    0    0  0.87304836342E+01  0.19450427680E+01 -0.91951229498E+00  0.89916649580E+01  0.00000000000E+00 0.  1.
</event>
<event>
 7    1  0.2438448E-008  0.4614232E+02  0.7816164E-02  0.1320468E+00
        -11   -1    0    0    0    0  0.00000000000E+00  0.00000000000E+00  0.45593999997E+02  0.45594000000E+02  0.51100000000E-03 0.  1.
         11   -1    0    0    0    0 -0.00000000000E+00 -0.00000000000E+00 -0.45593999997E+02  0.45594000000E+02  0.51100000000E-03 0. -1.
    9900012    2    1    2    0    0  0.35297954883E+02  0.19375459136E+02  0.20193055004E+02  0.46142317565E+02  0.99999982105E+01 0.  0.
         12    1    1    2    0    0 -0.35297954883E+02 -0.19375459136E+02 -0.20193055004E+02  0.45045682435E+02  0.00000000000E+00 0. -1.
         11    1    3    3    0    0  0.39629053822E+01  0.24756962595E+01 -0.39141789597E+00  0.46890190091E+01  0.51100000000E-03 0. -1.
        -11    1    3    3    0    0  0.93842281782E+01  0.76787592847E+01  0.79553231315E+01  0.14502215315E+02  0.51100000000E-03 0.  1.
         12    1    3    3    0    0  0.21950821323E+02  0.92210035914E+01  0.12629149768E+02  0.26951083241E+02  0.00000000000E+00 0. -1.
</event>
<event>
 7    1  0.2438448E-008  0.4614232E+02  0.7816164E-02  0.1320468E+00
        -11   -1    0    0    0    0  0.00000000000E+00  0.00000000000E+00  0.45593999997E+02  0.45594000000E+02  0.51100000000E-03 0. -1.
         11   -1    0    0    0    0 -0.00000000000E+00 -0.00000000000E+00 -0.45593999997E+02  0.45594000000E+02  0.51100000000E-03 0.  1.
    9900012    2    1    2    0    0 -0.23974790444E+02 -0.35173653050E+02 -0.14735575202E+02  0.46142316274E+02  0.99999864430E+01 0.  0.
         12    1    1    2    0    0  0.23974790444E+02  0.35173653050E+02  0.14735575202E+02  0.45045683726E+02  0.00000000000E+00 0. -1.
         11    1    3    3    0    0 -0.36441515140E+01 -0.23798463592E+01 -0.98563414199E+00  0.44626207405E+01  0.51100000000E-03 0. -1.
        -11    1    3    3    0    0 -0.15455052492E+02 -0.23100052487E+02 -0.13320058534E+02  0.30820367163E+02  0.51100000000E-03 0.  1.
         12    1    3    3    0    0 -0.48755864384E+01 -0.96937542039E+01 -0.42988252650E+00  0.10859328371E+02  0.00000000000E+00 0. -1.
</event>
<event>
 7    1  0.2438448E-008  0.4614232E+02  0.7816164E-02  0.1320468E+00
        -11   -1    0    0    0    0  0.00000000000E+00  0.00000000000E+00  0.45593999997E+02  0.45594000000E+02  0.51100000000E-03 0.  1.
         11   -1    0    0    0    0 -0.00000000000E+00 -0.00000000000E+00 -0.45593999997E+02  0.45594000000E+02  0.51100000000E-03 0. -1.
    9900012    2    1    2    0    0  0.21838082190E+00  0.44957618848E+02  0.28067734391E+01  0.46142321408E+02  0.10000033257E+02 0.  0.
         12    1    1    2    0    0 -0.21838082190E+00 -0.44957618848E+02 -0.28067734391E+01  0.45045678592E+02  0.00000000000E+00 0. -1.
         11    1    3    3    0    0  0.71387865104E+00  0.13708974032E+02  0.21851234416E+01  0.13900372529E+02  0.51100000000E-03 0. -1.
        -11    1    3    3    0    0  0.36952377118E+01  0.15885353373E+02  0.14094543185E+00  0.16310091949E+02  0.51100000000E-03 0.  1.
        -12    1    3    3    0    0 -0.41907355409E+01  0.15363291443E+02  0.48070456556E+00  0.15931856930E+02  0.00000000000E+00 0.  1.
</event>
<event>
 7    1  0.2438448E-008  0.4614231E+02  0.7816164E-02  0.1320468E+00
        -11   -1    0    0    0    0  0.00000000000E+00  0.00000000000E+00  0.45593999997E+02  0.45594000000E+02  0.51100000000E-03 0.  1.
         11   -1    0    0    0    0 -0.00000000000E+00 -0.00000000000E+00 -0.45593999997E+02  0.45594000000E+02  0.51100000000E-03 0. -1.
    9900012    2    1    2    0    0 -0.40864707833E+02  0.33137892586E+01  0.18660346803E+02  0.46142311102E+02  0.99999392743E+01 0.  0.
         12    1    1    2    0    0  0.40864707833E+02 -0.33137892586E+01 -0.18660346803E+02  0.45045688898E+02  0.00000000000E+00 0. -1.
         11    1    3    3    0    0 -0.67838316463E+01  0.29949744888E+01  0.61240709258E+01  0.96174055212E+01  0.51100000000E-03 0. -1.
        -11    1    3    3    0    0 -0.13599281383E+02  0.11027553772E+01  0.67783251319E+01  0.15234901228E+02  0.51100000000E-03 0.  1.
         12    1    3    3    0    0 -0.20481594803E+02 -0.78394060745E+00  0.57579507457E+01  0.21290004353E+02  0.00000000000E+00 0. -1.
</event>
<event>
 7    1  0.2438448E-008  0.4614232E+02  0.7816164E-02  0.1320468E+00
        -11   -1    0    0    0    0  0.00000000000E+00  0.00000000000E+00  0.45593999997E+02  0.45594000000E+02  0.51100000000E-03 0.  1.
         11   -1    0    0    0    0 -0.00000000000E+00 -0.00000000000E+00 -0.45593999997E+02  0.45594000000E+02  0.51100000000E-03 0. -1.
    9900012    2    1    2    0    0 -0.15315392130E+02 -0.28414522639E+00  0.42361202113E+02  0.46142318531E+02  0.10000007016E+02 0.  0.
         12    1    1    2    0    0  0.15315392130E+02  0.28414522639E+00 -0.42361202113E+02  0.45045681469E+02  0.00000000000E+00 0. -1.
         11    1    3    3    0    0 -0.95190394251E-01  0.24274998997E+00 -0.39372123533E+00  0.47223451913E+00  0.51100000000E-03 0. -1.
        -11    1    3    3    0    0 -0.40065739688E+01 -0.24205015784E+01  0.12144803290E+02  0.13015671710E+02  0.51100000000E-03 0.  1.
        -12    1    3    3    0    0 -0.11213627767E+02  0.18936063621E+01  0.30610120058E+02  0.32654412301E+02  0.00000000000E+00 0.  1.
</event>
<event>
 7    1  0.2438448E-008  0.4614232E+02  0.7816164E-02  0.1320468E+00
        -11   -1    0    0    0    0  0.00000000000E+00  0.00000000000E+00  0.45593999997E+02  0.45594000000E+02  0.51100000000E-03 0. -1.
         11   -1    0    0    0    0 -0.00000000000E+00 -0.00000000000E+00 -0.45593999997E+02  0.45594000000E+02  0.51100000000E-03 0.  1.
    9900012    2    1    2    0    0  0.34632130317E+02 -0.61107557164E+01 -0.28149374183E+02  0.46142322598E+02  0.10000044110E+02 0.  0.
         12    1    1    2    0    0 -0.34632130317E+02  0.61107557164E+01  0.28149374183E+02  0.45045677402E+02  0.00000000000E+00 0. -1.
         11    1    3    3    0    0  0.41204226520E+01 -0.27606795608E+01 -0.30101029455E+01  0.58017199581E+01  0.51100000000E-03 0. -1.
        -11    1    3    3    0    0 -0.21316689073E+00  0.50534007777E-01 -0.12605026187E+01  0.12793986564E+01  0.51100000000E-03 0.  1.
        -12    1    3    3    0    0  0.30724874556E+02 -0.34006101633E+01 -0.23878768618E+02  0.39061203984E+02  0.00000000000E+00 0.  1.
</event>
<event>
 7    1  0.2438448E-008  0.4614232E+02  0.7816164E-02  0.1320468E+00
        -11   -1    0    0    0    0  0.00000000000E+00  0.00000000000E+00  0.45593999997E+02  0.45594000000E+02  0.51100000000E-03 0.  1.
         11   -1    0    0    0    0 -0.00000000000E+00 -0.00000000000E+00 -0.45593999997E+02  0.45594000000E+02  0.51100000000E-03 0. -1.
    9900012    2    1    2    0    0  0.41020459175E+02 -0.51803039099E+01  0.17877358287E+02  0.46142316979E+02  0.99999928662E+01 0.  0.
         12    1    1    2    0    0 -0.41020459175E+02  0.51803039099E+01 -0.17877358287E+02  0.45045683021E+02  0.00000000000E+00 0. -1.
         11    1    3    3    0    0  0.10073458257E+02 -0.40456628949E+00  0.80448273327E+01  0.12897964266E+02  0.51100000000E-03 0. -1.
        -11    1    3    3    0    0  0.48607537428E+01 -0.23463361041E+01  0.29732642190E+01  0.61621847132E+01  0.51100000000E-03 0.  1.
        -12    1    3    3    0    0  0.26086247175E+02 -0.24294015162E+01  0.68592667358E+01  0.27082167999E+02  0.00000000000E+00 0.  1.
</event>
<event>
 7    1  0.2438448E-008  0.4614232E+02  0.7816164E-02  0.1320468E+00
        -11   -1    0    0    0    0  0.00000000000E+00  0.00000000000E+00  0.45593999997E+02  0.45594000000E+02  0.51100000000E-03 0.  1.
         11   -1    0    0    0    0 -0.00000000000E+00 -0.00000000000E+00 -0.45593999997E+02  0.45594000000E+02  0.51100000000E-03 0. -1.
    9900012    2    1    2    0    0  0.37781335622E+02  0.17288633425E+02  0.17400784324E+02  0.46142318052E+02  0.10000002655E+02 0.  0.
         12    1    1    2    0    0 -0.37781335622E+02 -0.17288633425E+02 -0.17400784324E+02  0.45045681948E+02  0.00000000000E+00 0. -1.
         11    1    3    3    0    0  0.36692973591E+01  0.23433149557E+01  0.84557076334E+00  0.44350713938E+01  0.51100000000E-03 0. -1.
        -11    1    3    3    0    0  0.25809339274E+02  0.14842878492E+02  0.14677240914E+02  0.33194192817E+02  0.51100000000E-03 0.  1.
        -12    1    3    3    0    0  0.83026989884E+01  0.10243997708E+00  0.18779726467E+01  0.85130538412E+01  0.00000000000E+00 0.  1.
</event>
<event>
 7    1  0.2438448E-008  0.4614232E+02  0.7816164E-02  0.1320468E+00
        -11   -1    0    0    0    0  0.00000000000E+00  0.00000000000E+00  0.45593999997E+02  0.45594000000E+02  0.51100000000E-03 0.  1.
         11   -1    0    0    0    0 -0.00000000000E+00 -0.00000000000E+00 -0.45593999997E+02  0.45594000000E+02  0.51100000000E-03 0. -1.
    9900012    2    1    2    0    0 -0.44235593353E+02 -0.74588762155E+01 -0.40854197868E+01  0.46142320867E+02  0.10000028325E+02 0.  0.
         12    1    1    2    0    0  0.44235593353E+02  0.74588762155E+01  0.40854197868E+01  0.45045679133E+02  0.00000000000E+00 0. -1.
         11    1    3    3    0    0 -0.13356269779E+02 -0.49890903268E+01  0.16543717631E+00  0.14258623160E+02  0.51100000000E-03 0. -1.
        -11    1    3    3    0    0 -0.29935035436E+02 -0.28975234181E+01 -0.29484902378E+01  0.30219126120E+02  0.51100000000E-03 0.  1.
         12    1    3    3    0    0 -0.94428813759E+00  0.42773752945E+00 -0.13023667253E+01  0.16645715870E+01  0.00000000000E+00 0. -1.
</event>
<event>
 7    1  0.2438448E-008  0.4614232E+02  0.7816164E-02  0.1320468E+00
        -11   -1    0    0    0    0  0.00000000000E+00  0.00000000000E+00  0.45593999997E+02  0.45594000000E+02  0.51100000000E-03 0.  1.
         11   -1    0    0    0    0 -0.00000000000E+00 -0.00000000000E+00 -0.45593999997E+02  0.45594000000E+02  0.51100000000E-03 0. -1.
    9900012    2    1    2    0    0  0.36912912035E+02  0.22628564262E+02  0.12429742352E+02  0.46142317739E+02  0.99999997971E+01 0.  0.
         12    1    1    2    0    0 -0.36912912035E+02 -0.22628564262E+02 -0.12429742352E+02  0.45045682261E+02  0.00000000000E+00 0. -1.
         11    1    3    3    0    0  0.30519546080E+00 -0.11854169861E+00 -0.73551393090E+00  0.80509465733E+00  0.51100000000E-03 0. -1.
        -11    1    3    3    0    0  0.22798077579E+02  0.11312073051E+02  0.74240319201E+01  0.26510971092E+02  0.51100000000E-03 0.  1.
         12    1    3    3    0    0  0.13809638995E+02  0.11435032909E+02  0.57412243625E+01  0.18826251990E+02  0.00000000000E+00 0. -1.
</event>
<event>
 7    1  0.2438448E-008  0.4614231E+02  0.7816164E-02  0.1320468E+00
        -11   -1    0    0    0    0  0.00000000000E+00  0.00000000000E+00  0.45593999997E+02  0.45594000000E+02  0.51100000000E-03 0. -1.
         11   -1    0    0    0    0 -0.00000000000E+00 -0.00000000000E+00 -0.45593999997E+02  0.45594000000E+02  0.51100000000E-03 0.  1.
    9900012    2    1    2    0    0 -0.76940967396E+01  0.43857654636E+02 -0.68132949600E+01  0.46142312271E+02  0.99999499344E+01 0.  0.
         12    1    1    2    0    0  0.76940967396E+01 -0.43857654636E+02  0.68132949600E+01  0.45045687729E+02  0.00000000000E+00 0. -1.
         11    1    3    3    0    0 -0.35253017318E+01  0.12764795551E+02  0.17079693585E+01  0.13352337524E+02  0.51100000000E-03 0. -1.
        -11    1    3    3    0    0 -0.50481895727E+01  0.27016630772E+02 -0.71300498030E+01  0.28394016389E+02  0.51100000000E-03 0.  1.
        -12    1    3    3    0    0  0.87939456481E+00  0.40762283124E+01 -0.13912145155E+01  0.43959583578E+01  0.00000000000E+00 0.  1.
</event>
<event>
 7    1  0.2438448E-008  0.4614232E+02  0.7816164E-02  0.1320468E+00
        -11   -1    0    0    0    0  0.00000000000E+00  0.00000000000E+00  0.45593999997E+02  0.45594000000E+02  0.51100000000E-03 0. -1.
         11   -1    0    0    0    0 -0.00000000000E+00 -0.00000000000E+00 -0.45593999997E+02  0.45594000000E+02  0.51100000000E-03 0.  1.
    9900012    2    1    2    0    0 -0.29378873316E+02 -0.28908118586E+02  0.18174596721E+02  0.46142317816E+02  0.10000000499E+02 0.  0.
         12    1    1    2    0    0  0.29378873316E+02  0.28908118586E+02 -0.18174596721E+02  0.45045682184E+02  0.00000000000E+00 0. -1.
         11    1    3    3    0    0 -0.91995400744E+01 -0.81251298228E+01  0.90436053866E+01  0.15245854219E+02  0.51100000000E-03 0. -1.
        -11    1    3    3    0    0 -0.18884025475E+02 -0.16831938876E+02  0.85254578625E+01  0.26694643966E+02  0.51100000000E-03 0.  1.
         12    1    3    3    0    0 -0.12953077658E+01 -0.39510498873E+01  0.60553347212E+00  0.42018196304E+01  0.00000000000E+00 0. -1.
</event>
<event>
 7    1  0.2438448E-008  0.4614232E+02  0.7816164E-02  0.1320468E+00
        -11   -1    0    0    0    0  0.00000000000E+00  0.00000000000E+00  0.45593999997E+02  0.45594000000E+02  0.51100000000E-03 0. -1.
         11   -1    0    0    0    0 -0.00000000000E+00 -0.00000000000E+00 -0.45593999997E+02  0.45594000000E+02  0.51100000000E-03 0.  1.
    9900012    2    1    2    0    0 -0.17582732973E+02  0.38487127725E+02 -0.15449964023E+02  0.46142324429E+02  0.10000060803E+02 0.  0.
         12    1    1    2    0    0  0.17582732973E+02 -0.38487127725E+02  0.15449964023E+02  0.45045675571E+02  0.00000000000E+00 0. -1.
         11    1    3    3    0    0 -0.68940467339E+01  0.17092389930E+02 -0.75159394358E+01  0.19903944829E+02  0.51100000000E-03 0.  1.
        -11    1    3    3    0    0 -0.77853783527E+01  0.82933491755E+01 -0.53595122191E+01  0.12574423570E+02  0.51100000000E-03 0. -1.
         12    1    3    3    0    0 -0.29033078865E+01  0.13101388619E+02 -0.25745123682E+01  0.13663956029E+02  0.00000000000E+00 0. -1.
</event>
<event>
 7    1  0.2438448E-008  0.4614232E+02  0.7816164E-02  0.1320468E+00
        -11   -1    0    0    0    0  0.00000000000E+00  0.00000000000E+00  0.45593999997E+02  0.45594000000E+02  0.51100000000E-03 0.  1.
         11   -1    0    0    0    0 -0.00000000000E+00 -0.00000000000E+00 -0.45593999997E+02  0.45594000000E+02  0.51100000000E-03 0. -1.
    9900012    2    1    2    0    0 -0.44082131741E+02 -0.61418821877E+01 -0.69394877808E+01  0.46142317118E+02  0.99999941358E+01 0.  0.
         12    1    1    2    0    0  0.44082131741E+02  0.61418821877E+01  0.69394877808E+01  0.45045682882E+02  0.00000000000E+00 0. -1.
         11    1    3    3    0    0 -0.18032956043E+02 -0.67490178068E+01 -0.11498788430E+01  0.19288830100E+02  0.51100000000E-03 0. -1.
        -11    1    3    3    0    0 -0.22075341406E+01  0.48258682796E+00  0.20651175844E+00  0.22690844841E+01  0.51100000000E-03 0.  1.
        -12    1    3    3    0    0 -0.23841641558E+02  0.12454879109E+00 -0.59961206963E+01  0.24584402534E+02  0.00000000000E+00 0.  1.
</event>
<event>
 7    1  0.2438448E-008  0.4614232E+02  0.7816164E-02  0.1320468E+00
        -11   -1    0    0    0    0  0.00000000000E+00  0.00000000000E+00  0.45593999997E+02  0.45594000000E+02  0.51100000000E-03 0.  1.
         11   -1    0    0    0    0 -0.00000000000E+00 -0.00000000000E+00 -0.45593999997E+02  0.45594000000E+02  0.51100000000E-03 0. -1.
    9900012    2    1    2    0    0  0.19289696252E+02 -0.31569207012E+02  0.25698371619E+02  0.46142317446E+02  0.99999971272E+01 0.  0.
         12    1    1    2    0    0 -0.19289696252E+02  0.31569207012E+02 -0.25698371619E+02  0.45045682554E+02  0.00000000000E+00 0. -1.
         11    1    3    3    0    0  0.84113146106E+00 -0.23856915407E+01  0.28736100727E+01  0.38284019346E+01  0.51100000000E-03 0. -1.
        -11    1    3    3    0    0  0.17061313447E+02 -0.21727903595E+02  0.20435831361E+02  0.34362965746E+02  0.51100000000E-03 0.  1.
         12    1    3    3    0    0  0.13872513435E+01 -0.74556118767E+01  0.23889301860E+01  0.79509497659E+01  0.00000000000E+00 0. -1.
</event>
<event>
 7    1  0.2438448E-008  0.4614231E+02  0.7816164E-02  0.1320468E+00
        -11   -1    0    0    0    0  0.00000000000E+00  0.00000000000E+00  0.45593999997E+02  0.45594000000E+02  0.51100000000E-03 0.  1.
         11   -1    0    0    0    0 -0.00000000000E+00 -0.00000000000E+00 -0.45593999997E+02  0.45594000000E+02  0.51100000000E-03 0. -1.
    9900012    2    1    2    0    0 -0.14630108480E+02 -0.17355994325E+02  0.38908138136E+02  0.46142314009E+02  0.99999657849E+01 0.  0.
         12    1    1    2    0    0  0.14630108480E+02  0.17355994325E+02 -0.38908138136E+02  0.45045685991E+02  0.00000000000E+00 0. -1.
         11    1    3    3    0    0 -0.21839595738E+00  0.74935263432E+00  0.47916188845E+01  0.48547747589E+01  0.51100000000E-03 0. -1.
        -11    1    3    3    0    0 -0.72652625275E+01 -0.73066987810E+01  0.15019113160E+02  0.18213886105E+02  0.51100000000E-03 0.  1.
         12    1    3    3    0    0 -0.71464499956E+01 -0.10798648179E+02  0.19097406092E+02  0.23073653145E+02  0.00000000000E+00 0. -1.
</event>
<event>
 7    1  0.2438448E-008  0.4614232E+02  0.7816164E-02  0.1320468E+00
        -11   -1    0    0    0    0  0.00000000000E+00  0.00000000000E+00  0.45593999997E+02  0.45594000000E+02  0.51100000000E-03 0.  1.
         11   -1    0    0    0    0 -0.00000000000E+00 -0.00000000000E+00 -0.45593999997E+02  0.45594000000E+02  0.51100000000E-03 0. -1.
    9900012    2    1    2    0    0  0.72128144255E+01 -0.14400891356E+02  0.42067840970E+02  0.46142316437E+02  0.99999879261E+01 0.  0.
         12    1    1    2    0    0 -0.72128144255E+01  0.14400891356E+02 -0.42067840970E+02  0.45045683563E+02  0.00000000000E+00 0. -1.
         11    1    3    3    0    0  0.65157480127E+01 -0.13937937969E+02  0.30860591800E+02  0.34483288902E+02  0.51100000000E-03 0. -1.
        -11    1    3    3    0    0  0.10813480755E+01 -0.65113671053E+00  0.11157029759E+02  0.11228205822E+02  0.51100000000E-03 0.  1.
         12    1    3    3    0    0 -0.38428166279E+00  0.18818332335E+00  0.50219411306E-01  0.43082171349E+00  0.00000000000E+00 0. -1.
</event>
<event>
 7    1  0.2438448E-008  0.4614232E+02  0.7816164E-02  0.1320468E+00
        -11   -1    0    0    0    0  0.00000000000E+00  0.00000000000E+00  0.45593999997E+02  0.45594000000E+02  0.51100000000E-03 0.  1.
         11   -1    0    0    0    0 -0.00000000000E+00 -0.00000000000E+00 -0.45593999997E+02  0.45594000000E+02  0.51100000000E-03 0. -1.
    9900012    2    1    2    0    0 -0.12150767960E+02  0.18666105337E+02  0.39154168240E+02  0.46142317177E+02  0.99999946713E+01 0.  0.
         12    1    1    2    0    0  0.12150767960E+02 -0.18666105337E+02 -0.39154168240E+02  0.45045682823E+02  0.00000000000E+00 0. -1.
         11    1    3    3    0    0 -0.89051582550E+01  0.17923039629E+02  0.33884959056E+02  0.39353877110E+02  0.51100000000E-03 0. -1.
        -11    1    3    3    0    0 -0.24004214242E+01  0.91901506038E+00  0.53357507168E+01  0.59225710353E+01  0.51100000000E-03 0.  1.
         12    1    3    3    0    0 -0.84518828075E+00 -0.17594935226E+00 -0.66541533008E-01  0.86586903172E+00  0.00000000000E+00 0. -1.
</event>
<event>
 7    1  0.2438448E-008  0.4614232E+02  0.7816164E-02  0.1320468E+00
        -11   -1    0    0    0    0  0.00000000000E+00  0.00000000000E+00  0.45593999997E+02  0.45594000000E+02  0.51100000000E-03 0. -1.
         11   -1    0    0    0    0 -0.00000000000E+00 -0.00000000000E+00 -0.45593999997E+02  0.45594000000E+02  0.51100000000E-03 0.  1.
    9900012    2    1    2    0    0 -0.34838612570E+02  0.12257529221E+02 -0.25790264502E+02  0.46142315507E+02  0.99999794425E+01 0.  0.
         12    1    1    2    0    0  0.34838612570E+02 -0.12257529221E+02  0.25790264502E+02  0.45045684493E+02  0.00000000000E+00 0. -1.
         11    1    3    3    0    0 -0.41822201426E+01  0.44683369597E+01 -0.19276311644E+01  0.64166005543E+01  0.51100000000E-03 0. -1.
        -11    1    3    3    0    0 -0.36074450221E+01  0.27039941373E+00 -0.35925739670E+01  0.50983686998E+01  0.51100000000E-03 0.  1.
        -12    1    3    3    0    0 -0.27048947405E+02  0.75187928478E+01 -0.20270059371E+02  0.34627346253E+02  0.00000000000E+00 0.  1.
</event>
<event>
 7    1  0.2438448E-008  0.4614232E+02  0.7816164E-02  0.1320468E+00
        -11   -1    0    0    0    0  0.00000000000E+00  0.00000000000E+00  0.45593999997E+02  0.45594000000E+02  0.51100000000E-03 0.  1.
         11   -1    0    0    0    0 -0.00000000000E+00 -0.00000000000E+00 -0.45593999997E+02  0.45594000000E+02  0.51100000000E-03 0. -1.
    9900012    2    1    2    0    0  0.14134980322E+02  0.69035815823E+01  0.42209672153E+02  0.46142317292E+02  0.99999957221E+01 0.  0.
         12    1    1    2    0    0 -0.14134980322E+02 -0.69035815823E+01 -0.42209672153E+02  0.45045682708E+02  0.00000000000E+00 0. -1.
         11    1    3    3    0    0  0.71379234230E+01  0.46539178479E+01  0.10775933346E+02  0.13737890736E+02  0.51100000000E-03 0. -1.
        -11    1    3    3    0    0  0.58179792580E+01  0.12895278858E+01  0.19966538147E+02  0.20836852225E+02  0.51100000000E-03 0.  1.
         12    1    3    3    0    0  0.11790776411E+01  0.96013584872E+00  0.11467200660E+02  0.11567574331E+02  0.00000000000E+00 0. -1.
</event>
<event>
 7    1  0.2438448E-008  0.4614233E+02  0.7816164E-02  0.1320468E+00
        -11   -1    0    0    0    0  0.00000000000E+00  0.00000000000E+00  0.45593999997E+02  0.45594000000E+02  0.51100000000E-03 0. -1.
         11   -1    0    0    0    0 -0.00000000000E+00 -0.00000000000E+00 -0.45593999997E+02  0.45594000000E+02  0.51100000000E-03 0.  1.
    9900012    2    1    2    0    0 -0.34415488571E+02  0.21440762946E+02 -0.19620910792E+02  0.46142330845E+02  0.10000119310E+02 0.  0.
         12    1    1    2    0    0  0.34415488571E+02 -0.21440762946E+02  0.19620910792E+02  0.45045669155E+02  0.00000000000E+00 0. -1.
         11    1    3    3    0    0 -0.54489178541E+01  0.41080403016E+00 -0.33600445152E+01  0.64147770918E+01  0.51100000000E-03 0.  1.
        -11    1    3    3    0    0 -0.93756562153E+01  0.73912857043E+01 -0.25804611927E+01  0.12214451034E+02  0.51100000000E-03 0. -1.
         12    1    3    3    0    0 -0.19590914502E+02  0.13638673212E+02 -0.13680405084E+02  0.27513102719E+02  0.00000000000E+00 0. -1.
</event>
<event>
 7    1  0.2438448E-008  0.4614232E+02  0.7816164E-02  0.1320468E+00
        -11   -1    0    0    0    0  0.00000000000E+00  0.00000000000E+00  0.45593999997E+02  0.45594000000E+02  0.51100000000E-03 0.  1.
         11   -1    0    0    0    0 -0.00000000000E+00 -0.00000000000E+00 -0.45593999997E+02  0.45594000000E+02  0.51100000000E-03 0. -1.
    9900012    2    1    2    0    0  0.95718115548E-01 -0.30207157896E+02  0.33416042809E+02  0.46142317997E+02  0.10000002152E+02 0.  0.
         12    1    1    2    0    0 -0.95718115548E-01  0.30207157896E+02 -0.33416042809E+02  0.45045682003E+02  0.00000000000E+00 0. -1.
         11    1    3    3    0    0 -0.22057633548E+01 -0.16076277876E+01  0.15638941121E+01  0.31457310972E+01  0.51100000000E-03 0. -1.
        -11    1    3    3    0    0  0.46282022804E+00 -0.51580806343E+01  0.39831721852E+01  0.65334263072E+01  0.51100000000E-03 0.  1.
        -12    1    3    3    0    0  0.18386612423E+01 -0.23441449474E+02  0.27868976512E+02  0.36463160593E+02  0.00000000000E+00 0.  1.
</event>
<event>
 7    1  0.2438448E-008  0.4614232E+02  0.7816164E-02  0.1320468E+00
        -11   -1    0    0    0    0  0.00000000000E+00  0.00000000000E+00  0.45593999997E+02  0.45594000000E+02  0.51100000000E-03 0.  1.
         11   -1    0    0    0    0 -0.00000000000E+00 -0.00000000000E+00 -0.45593999997E+02  0.45594000000E+02  0.51100000000E-03 0. -1.
    9900012    2    1    2    0    0 -0.51743892788E+01  0.22804801086E+02  0.38500391534E+02  0.46142318684E+02  0.10000008417E+02 0.  0.
         12    1    1    2    0    0  0.51743892788E+01 -0.22804801086E+02 -0.38500391534E+02  0.45045681316E+02  0.00000000000E+00 0. -1.
         11    1    3    3    0    0  0.57001606559E+00  0.67445560368E+01  0.14311759921E+02  0.15831627420E+02  0.51100000000E-03 0. -1.
        -11    1    3    3    0    0 -0.97192647731E+00  0.64318193892E+01  0.14287217690E+02  0.15698328934E+02  0.51100000000E-03 0.  1.
         12    1    3    3    0    0 -0.47724788671E+01  0.96284256598E+01  0.99014139222E+01  0.14612362331E+02  0.00000000000E+00 0. -1.
</event>
<event>
 7    1  0.2438448E-008  0.4614232E+02  0.7816164E-02  0.1320468E+00
        -11   -1    0    0    0    0  0.00000000000E+00  0.00000000000E+00  0.45593999997E+02  0.45594000000E+02  0.51100000000E-03 0. -1.
         11   -1    0    0    0    0 -0.00000000000E+00 -0.00000000000E+00 -0.45593999997E+02  0.45594000000E+02  0.51100000000E-03 0.  1.
    9900012    2    1    2    0    0  0.30244680465E+02 -0.14995632864E+02 -0.29824548987E+02  0.46142318479E+02  0.10000006545E+02 0.  0.
         12    1    1    2    0    0 -0.30244680465E+02  0.14995632864E+02  0.29824548987E+02  0.45045681521E+02  0.00000000000E+00 0. -1.
         11    1    3    3    0    0  0.80183209432E+01 -0.27891931595E+01 -0.81005274467E+01  0.11734207021E+02  0.51100000000E-03 0. -1.
        -11    1    3    3    0    0  0.19257331729E+02 -0.11992280668E+02 -0.21754575098E+02  0.31431213131E+02  0.51100000000E-03 0.  1.
         12    1    3    3    0    0  0.29690277929E+01 -0.21415903556E+00  0.30553557727E-01  0.29768983267E+01  0.00000000000E+00 0. -1.
</event>
<event>
 7    1  0.2438448E-008  0.4614232E+02  0.7816164E-02  0.1320468E+00
        -11   -1    0    0    0    0  0.00000000000E+00  0.00000000000E+00  0.45593999997E+02  0.45594000000E+02  0.51100000000E-03 0. -1.
         11   -1    0    0    0    0 -0.00000000000E+00 -0.00000000000E+00 -0.45593999997E+02  0.45594000000E+02  0.51100000000E-03 0.  1.
    9900012    2    1    2    0    0  0.12354450588E+02  0.38715866908E+02 -0.19430972329E+02  0.46142317794E+02  0.10000000298E+02 0.  0.
         12    1    1    2    0    0 -0.12354450588E+02 -0.38715866908E+02  0.19430972329E+02  0.45045682206E+02  0.00000000000E+00 0. -1.
         11    1    3    3    0    0  0.23514808464E+01  0.64977442144E+01 -0.72107194059E+00  0.69476677419E+01  0.51100000000E-03 0. -1.
        -11    1    3    3    0    0  0.10319371984E+02  0.29092794127E+02 -0.14959780688E+02  0.34302698826E+02  0.51100000000E-03 0.  1.
         12    1    3    3    0    0 -0.31640224267E+00  0.31253285670E+01 -0.37501197004E+01  0.48919512261E+01  0.00000000000E+00 0. -1.
</event>
<event>
 7    1  0.2438448E-008  0.4614232E+02  0.7816164E-02  0.1320468E+00
        -11   -1    0    0    0    0  0.00000000000E+00  0.00000000000E+00  0.45593999997E+02  0.45594000000E+02  0.51100000000E-03 0.  1.
         11   -1    0    0    0    0 -0.00000000000E+00 -0.00000000000E+00 -0.45593999997E+02  0.45594000000E+02  0.51100000000E-03 0. -1.
    9900012    2    1    2    0    0 -0.27563812567E+02  0.15694556109E+02  0.31984853443E+02  0.46142315363E+02  0.99999781304E+01 0.  0.
         12    1    1    2    0    0  0.27563812567E+02 -0.15694556109E+02 -0.31984853443E+02  0.45045684637E+02  0.00000000000E+00 0. -1.
         11    1    3    3    0    0 -0.11825279090E+01 -0.70664295766E+00  0.21445792241E+01  0.25489089499E+01  0.51100000000E-03 0. -1.
        -11    1    3    3    0    0 -0.23297004454E+02  0.15566319479E+02  0.23811469093E+02  0.36770188731E+02  0.51100000000E-03 0.  1.
        -12    1    3    3    0    0 -0.30842802044E+01  0.83487958764E+00  0.60288051250E+01  0.68232176823E+01  0.00000000000E+00 0.  1.
</event>
<event>
 7    1  0.2438448E-008  0.4614232E+02  0.7816164E-02  0.1320468E+00
        -11   -1    0    0    0    0  0.00000000000E+00  0.00000000000E+00  0.45593999997E+02  0.45594000000E+02  0.51100000000E-03 0. -1.
         11   -1    0    0    0    0 -0.00000000000E+00 -0.00000000000E+00 -0.45593999997E+02  0.45594000000E+02  0.51100000000E-03 0.  1.
    9900012    2    1    2    0    0 -0.43579315553E+01  0.44834365130E+02 -0.39694025305E-01  0.46142318302E+02  0.10000004929E+02 0.  0.
         12    1    1    2    0    0  0.43579315553E+01 -0.44834365130E+02  0.39694025305E-01  0.45045681698E+02  0.00000000000E+00 0. -1.
         11    1    3    3    0    0  0.91963403198E+00  0.20620966196E+01  0.74162517007E+00  0.23765473644E+01  0.51100000000E-03 0. -1.
        -11    1    3    3    0    0 -0.47553066288E+01  0.40964417212E+02  0.88977619815E+00  0.41249098421E+02  0.51100000000E-03 0.  1.
        -12    1    3    3    0    0 -0.52225895842E+00  0.18078512985E+01 -0.16710953935E+01  0.25166725157E+01  0.00000000000E+00 0.  1.
</event>
<event>
 7    1  0.2438448E-008  0.4614232E+02  0.7816164E-02  0.1320468E+00
        -11   -1    0    0    0    0  0.00000000000E+00  0.00000000000E+00  0.45593999997E+02  0.45594000000E+02  0.51100000000E-03 0. -1.
         11   -1    0    0    0    0 -0.00000000000E+00 -0.00000000000E+00 -0.45593999997E+02  0.45594000000E+02  0.51100000000E-03 0.  1.
    9900012    2    1    2    0    0 -0.36447098326E+00 -0.10250752790E+02 -0.43862315315E+02  0.46142317891E+02  0.10000001187E+02 0.  0.
         12    1    1    2    0    0  0.36447098326E+00  0.10250752790E+02  0.43862315315E+02  0.45045682109E+02  0.00000000000E+00 0. -1.
         11    1    3    3    0    0  0.27647017903E+01 -0.25825621584E+01 -0.14833954492E+02  0.15308801698E+02  0.51100000000E-03 0.  1.
        -11    1    3    3    0    0 -0.19334564537E+01 -0.61037403693E+01 -0.11233309358E+02  0.12929854591E+02  0.51100000000E-03 0. -1.
         12    1    3    3    0    0 -0.11957163199E+01 -0.15644502628E+01 -0.17795051464E+02  0.17903661602E+02  0.00000000000E+00 0. -1.
</event>
<event>
 7    1  0.2438448E-008  0.4614232E+02  0.7816164E-02  0.1320468E+00
        -11   -1    0    0    0    0  0.00000000000E+00  0.00000000000E+00  0.45593999997E+02  0.45594000000E+02  0.51100000000E-03 0.  1.
         11   -1    0    0    0    0 -0.00000000000E+00 -0.00000000000E+00 -0.45593999997E+02  0.45594000000E+02  0.51100000000E-03 0. -1.
    9900012    2    1    2    0    0 -0.21802961460E+02  0.19120717289E+02  0.34469443336E+02  0.46142317832E+02  0.10000000649E+02 0.  0.
         12    1    1    2    0    0  0.21802961460E+02 -0.19120717289E+02 -0.34469443336E+02  0.45045682168E+02  0.00000000000E+00 0. -1.
         11    1    3    3    0    0 -0.67048959736E+01  0.52382402974E+01  0.51776280849E+01  0.99600514194E+01  0.51100000000E-03 0. -1.
        -11    1    3    3    0    0 -0.98818759638E+00  0.20901238704E+01  0.64894828447E+01  0.68890144703E+01  0.51100000000E-03 0.  1.
        -12    1    3    3    0    0 -0.14109877890E+02  0.11792353121E+02  0.22802332406E+02  0.29293251943E+02  0.00000000000E+00 0.  1.
</event>
<event>
 7    1  0.2438448E-008  0.4614232E+02  0.7816164E-02  0.1320468E+00
        -11   -1    0    0    0    0  0.00000000000E+00  0.00000000000E+00  0.45593999997E+02  0.45594000000E+02  0.51100000000E-03 0.  1.
         11   -1    0    0    0    0 -0.00000000000E+00 -0.00000000000E+00 -0.45593999997E+02  0.45594000000E+02  0.51100000000E-03 0. -1.
    9900012    2    1    2    0    0 -0.82391245423E+01  0.35389931394E+02  0.26622979068E+02  0.46142318390E+02  0.10000005734E+02 0.  0.
         12    1    1    2    0    0  0.82391245423E+01 -0.35389931394E+02 -0.26622979068E+02  0.45045681610E+02  0.00000000000E+00 0. -1.
         11    1    3    3    0    0 -0.27063935420E-01  0.71239993318E+01  0.38115999952E+01  0.80796283158E+01  0.51100000000E-03 0. -1.
        -11    1    3    3    0    0 -0.32066701692E+01  0.17689292247E+02  0.94783298502E+01  0.20323201784E+02  0.51100000000E-03 0.  1.
         12    1    3    3    0    0 -0.50053904377E+01  0.10576639815E+02  0.13333049222E+02  0.17739488290E+02  0.00000000000E+00 0. -1.
</event>
<event>
 7    1  0.2438448E-008  0.4614232E+02  0.7816164E-02  0.1320468E+00
        -11   -1    0    0    0    0  0.00000000000E+00  0.00000000000E+00  0.45593999997E+02  0.45594000000E+02  0.51100000000E-03 0.  1.
         11   -1    0    0    0    0 -0.00000000000E+00 -0.00000000000E+00 -0.45593999997E+02  0.45594000000E+02  0.51100000000E-03 0. -1.
    9900012    2    1    2    0    0 -0.34059620280E+02  0.25384062831E+02  0.14990165362E+02  0.46142318331E+02  0.10000005197E+02 0.  0.
         12    1    1    2    0    0  0.34059620280E+02 -0.25384062831E+02 -0.14990165362E+02  0.45045681669E+02  0.00000000000E+00 0. -1.
         11    1    3    3    0    0 -0.27581809649E+01  0.38497999139E+01 -0.19077433760E+00  0.47397169453E+01  0.51100000000E-03 0. -1.
        -11    1    3    3    0    0 -0.35135790997E+01  0.44124593282E+00  0.60097818642E+00  0.35918116745E+01  0.51100000000E-03 0.  1.
        -12    1    3    3    0    0 -0.27787860216E+02  0.21093016984E+02  0.14579961513E+02  0.37810789711E+02  0.00000000000E+00 0.  1.
</event>
<event>
 7    1  0.2438448E-008  0.4614232E+02  0.7816164E-02  0.1320468E+00
        -11   -1    0    0    0    0  0.00000000000E+00  0.00000000000E+00  0.45593999997E+02  0.45594000000E+02  0.51100000000E-03 0.  1.
         11   -1    0    0    0    0 -0.00000000000E+00 -0.00000000000E+00 -0.45593999997E+02  0.45594000000E+02  0.51100000000E-03 0. -1.
    9900012    2    1    2    0    0  0.42821322314E+02  0.13781561792E+02  0.23486457703E+01  0.46142320661E+02  0.10000026443E+02 0.  0.
         12    1    1    2    0    0 -0.42821322314E+02 -0.13781561792E+02 -0.23486457703E+01  0.45045679339E+02  0.00000000000E+00 0. -1.
         11    1    3    3    0    0  0.45340287356E+01  0.12859331255E+01 -0.17826266010E+01  0.50387298437E+01  0.51100000000E-03 0. -1.
        -11    1    3    3    0    0  0.26724732529E+02  0.52334025065E+01  0.31598359480E+01  0.27415039559E+02  0.51100000000E-03 0.  1.
        -12    1    3    3    0    0  0.11562561049E+02  0.72622261598E+01  0.97143642327E+00  0.13688551258E+02  0.00000000000E+00 0.  1.
</event>
<event>
 7    1  0.2438448E-008  0.4614232E+02  0.7816164E-02  0.1320468E+00
        -11   -1    0    0    0    0  0.00000000000E+00  0.00000000000E+00  0.45593999997E+02  0.45594000000E+02  0.51100000000E-03 0.  1.
         11   -1    0    0    0    0 -0.00000000000E+00 -0.00000000000E+00 -0.45593999997E+02  0.45594000000E+02  0.51100000000E-03 0. -1.
    9900012    2    1    2    0    0 -0.29823330036E+02  0.31977158200E+02  0.10823299782E+02  0.46142317864E+02  0.10000000937E+02 0.  0.
         12    1    1    2    0    0  0.29823330036E+02 -0.31977158200E+02 -0.10823299782E+02  0.45045682136E+02  0.00000000000E+00 0. -1.
         11    1    3    3    0    0 -0.44076342375E+01  0.46085051585E+01  0.34173558587E+00  0.63861054516E+01  0.51100000000E-03 0. -1.
        -11    1    3    3    0    0 -0.18591715266E+02  0.23639671130E+02  0.10847721412E+02  0.31971221243E+02  0.51100000000E-03 0.  1.
         12    1    3    3    0    0 -0.68239805325E+01  0.37289819113E+01 -0.36615721622E+00  0.77849911696E+01  0.00000000000E+00 0. -1.
</event>
<event>
 7    1  0.2438448E-008  0.4614232E+02  0.7816164E-02  0.1320468E+00
        -11   -1    0    0    0    0  0.00000000000E+00  0.00000000000E+00  0.45593999997E+02  0.45594000000E+02  0.51100000000E-03 0.  1.
         11   -1    0    0    0    0 -0.00000000000E+00 -0.00000000000E+00 -0.45593999997E+02  0.45594000000E+02  0.51100000000E-03 0. -1.
    9900012    2    1    2    0    0  0.11164407459E+02 -0.18158572678E+02  0.39682941003E+02  0.46142316941E+02  0.99999925216E+01 0.  0.
         12    1    1    2    0    0 -0.11164407459E+02  0.18158572678E+02 -0.39682941003E+02  0.45045683059E+02  0.00000000000E+00 0. -1.
         11    1    3    3    0    0  0.34691191638E+01 -0.41366397112E+01  0.73792280910E+01  0.91432807762E+01  0.51100000000E-03 0. -1.
        -11    1    3    3    0    0  0.87289968856E+01 -0.14225781622E+02  0.31584886634E+02  0.35723568038E+02  0.51100000000E-03 0.  1.
         12    1    3    3    0    0 -0.10337085908E+01  0.20384865556E+00  0.71882627776E+00  0.12754681269E+01  0.00000000000E+00 0. -1.
</event>
<event>
 7    1  0.2438448E-008  0.4614232E+02  0.7816164E-02  0.1320468E+00
        -11   -1    0    0    0    0  0.00000000000E+00  0.00000000000E+00  0.45593999997E+02  0.45594000000E+02  0.51100000000E-03 0. -1.
         11   -1    0    0    0    0 -0.00000000000E+00 -0.00000000000E+00 -0.45593999997E+02  0.45594000000E+02  0.51100000000E-03 0.  1.
    9900012    2    1    2    0    0  0.91305887910E+01 -0.13532174407E+02 -0.41983641913E+02  0.46142316698E+02  0.99999903051E+01 0.  0.
         12    1    1    2    0    0 -0.91305887910E+01  0.13532174407E+02  0.41983641913E+02  0.45045683302E+02  0.00000000000E+00 0. -1.
         11    1    3    3    0    0  0.51258495407E+01 -0.44460826685E+01 -0.13888724965E+02  0.15457641023E+02  0.51100000000E-03 0.  1.
        -11    1    3    3    0    0  0.38036463527E+01 -0.32058276096E+01 -0.20402052188E+02  0.20999733093E+02  0.51100000000E-03 0. -1.
         12    1    3    3    0    0  0.20109289756E+00 -0.58802641285E+01 -0.76928647606E+01  0.96849425811E+01  0.00000000000E+00 0. -1.
</event>
<event>
 7    1  0.2438448E-008  0.4614232E+02  0.7816164E-02  0.1320468E+00
        -11   -1    0    0    0    0  0.00000000000E+00  0.00000000000E+00  0.45593999997E+02  0.45594000000E+02  0.51100000000E-03 0.  1.
         11   -1    0    0    0    0 -0.00000000000E+00 -0.00000000000E+00 -0.45593999997E+02  0.45594000000E+02  0.51100000000E-03 0. -1.
    9900012    2    1    2    0    0 -0.26761924447E+02 -0.29216173181E+02  0.21431941091E+02  0.46142317917E+02  0.10000001420E+02 0.  0.
         12    1    1    2    0    0  0.26761924447E+02  0.29216173181E+02 -0.21431941091E+02  0.45045682083E+02  0.00000000000E+00 0. -1.
         11    1    3    3    0    0 -0.18739959270E+02 -0.23094357304E+02  0.17540483606E+02  0.34528306911E+02  0.51100000000E-03 0.  1.
        -11    1    3    3    0    0  0.23953360587E+00  0.33513594801E+00  0.36806214637E+00  0.55241511266E+00  0.51100000000E-03 0. -1.
        -12    1    3    3    0    0 -0.82614987825E+01 -0.64569518251E+01  0.35233953383E+01  0.11061595894E+02  0.00000000000E+00 0.  1.
</event>
<event>
 7    1  0.2438448E-008  0.4614232E+02  0.7816164E-02  0.1320468E+00
        -11   -1    0    0    0    0  0.00000000000E+00  0.00000000000E+00  0.45593999997E+02  0.45594000000E+02  0.51100000000E-03 0.  1.
         11   -1    0    0    0    0 -0.00000000000E+00 -0.00000000000E+00 -0.45593999997E+02  0.45594000000E+02  0.51100000000E-03 0. -1.
    9900012    2    1    2    0    0 -0.41206285918E+02  0.81800675642E+01  0.16255521623E+02  0.46142317768E+02  0.10000000067E+02 0.  0.
         12    1    1    2    0    0  0.41206285918E+02 -0.81800675642E+01 -0.16255521623E+02  0.45045682232E+02  0.00000000000E+00 0. -1.
         11    1    3    3    0    0 -0.77695383108E+01  0.18624278100E+01 -0.28105090824E+00  0.79945827148E+01  0.51100000000E-03 0.  1.
        -11    1    3    3    0    0 -0.12273676416E+02  0.12139569136E+01  0.83272696286E+01  0.14881540374E+02  0.51100000000E-03 0. -1.
        -12    1    3    3    0    0 -0.21163071190E+02  0.51036828406E+01  0.82093029024E+01  0.23266194680E+02  0.00000000000E+00 0.  1.
</event>
<event>
 7    1  0.2438448E-008  0.4614232E+02  0.7816164E-02  0.1320468E+00
        -11   -1    0    0    0    0  0.00000000000E+00  0.00000000000E+00  0.45593999997E+02  0.45594000000E+02  0.51100000000E-03 0. -1.
         11   -1    0    0    0    0 -0.00000000000E+00 -0.00000000000E+00 -0.45593999997E+02  0.45594000000E+02  0.51100000000E-03 0.  1.
    9900012    2    1    2    0    0 -0.25295347465E+02 -0.27527651947E+02 -0.25129410924E+02  0.46142317427E+02  0.99999969512E+01 0.  0.
         12    1    1    2    0    0  0.25295347465E+02  0.27527651947E+02  0.25129410924E+02  0.45045682573E+02  0.00000000000E+00 0. -1.
         11    1    3    3    0    0 -0.61079471670E+01 -0.10974893348E+02 -0.62215082052E+01  0.14016506955E+02  0.51100000000E-03 0. -1.
        -11    1    3    3    0    0 -0.10576213562E+02 -0.63793982025E+01 -0.66999836357E+01  0.14051433938E+02  0.51100000000E-03 0.  1.
        -12    1    3    3    0    0 -0.86111867362E+01 -0.10173360396E+02 -0.12207919083E+02  0.18074376534E+02  0.00000000000E+00 0.  1.
</event>
<event>
 7    1  0.2438448E-008  0.4614232E+02  0.7816164E-02  0.1320468E+00
        -11   -1    0    0    0    0  0.00000000000E+00  0.00000000000E+00  0.45593999997E+02  0.45594000000E+02  0.51100000000E-03 0.  1.
         11   -1    0    0    0    0 -0.00000000000E+00 -0.00000000000E+00 -0.45593999997E+02  0.45594000000E+02  0.51100000000E-03 0. -1.
    9900012    2    1    2    0    0 -0.27583746813E+02  0.15521085346E+02  0.32052244606E+02  0.46142316934E+02  0.99999924579E+01 0.  0.
         12    1    1    2    0    0  0.27583746813E+02 -0.15521085346E+02 -0.32052244606E+02  0.45045683066E+02  0.00000000000E+00 0. -1.
         11    1    3    3    0    0 -0.61713606883E+01  0.58244261701E+01  0.43058918958E+01  0.95157941463E+01  0.51100000000E-03 0. -1.
        -11    1    3    3    0    0 -0.75129236419E+01  0.56926946593E+01  0.10251599608E+02  0.13926452848E+02  0.51100000000E-03 0.  1.
         12    1    3    3    0    0 -0.13899462483E+02  0.40039645169E+01  0.17494753102E+02  0.22700069940E+02  0.00000000000E+00 0. -1.
</event>
<event>
 7    1  0.2438448E-008  0.4614232E+02  0.7816164E-02  0.1320468E+00
        -11   -1    0    0    0    0  0.00000000000E+00  0.00000000000E+00  0.45593999997E+02  0.45594000000E+02  0.51100000000E-03 0.  1.
         11   -1    0    0    0    0 -0.00000000000E+00 -0.00000000000E+00 -0.45593999997E+02  0.45594000000E+02  0.51100000000E-03 0. -1.
    9900012    2    1    2    0    0 -0.15715074377E+02  0.38464429959E+02  0.17396474088E+02  0.46142320458E+02  0.10000024589E+02 0.  0.
         12    1    1    2    0    0  0.15715074377E+02 -0.38464429959E+02 -0.17396474088E+02  0.45045679542E+02  0.00000000000E+00 0. -1.
         11    1    3    3    0    0 -0.67306123711E+01  0.18539065555E+02  0.31412057985E+01  0.19971611570E+02  0.51100000000E-03 0. -1.
        -11    1    3    3    0    0 -0.35823896582E+01  0.76440748272E+01  0.43734712624E+01  0.95075047605E+01  0.51100000000E-03 0.  1.
         12    1    3    3    0    0 -0.54020723480E+01  0.12281289576E+02  0.98817970272E+01  0.16663204127E+02  0.00000000000E+00 0. -1.
</event>
<event>
 7    1  0.2438448E-008  0.4614232E+02  0.7816164E-02  0.1320468E+00
        -11   -1    0    0    0    0  0.00000000000E+00  0.00000000000E+00  0.45593999997E+02  0.45594000000E+02  0.51100000000E-03 0.  1.
         11   -1    0    0    0    0 -0.00000000000E+00 -0.00000000000E+00 -0.45593999997E+02  0.45594000000E+02  0.51100000000E-03 0. -1.
    9900012    2    1    2    0    0 -0.19134864579E+02  0.29978345739E+02  0.27645423486E+02  0.46142315463E+02  0.99999790436E+01 0.  0.
         12    1    1    2    0    0  0.19134864579E+02 -0.29978345739E+02 -0.27645423486E+02  0.45045684537E+02  0.00000000000E+00 0. -1.
         11    1    3    3    0    0 -0.25255900741E+00  0.79844922914E+00  0.25600018806E+01  0.26934953339E+01  0.51100000000E-03 0. -1.
        -11    1    3    3    0    0 -0.13504006524E+02  0.22367158891E+02  0.22249458564E+02  0.34317435739E+02  0.51100000000E-03 0.  1.
         12    1    3    3    0    0 -0.53782990476E+01  0.68127376190E+01  0.28359630415E+01  0.91313843903E+01  0.00000000000E+00 0. -1.
</event>
<event>
 7    1  0.2438448E-008  0.4614232E+02  0.7816164E-02  0.1320468E+00
        -11   -1    0    0    0    0  0.00000000000E+00  0.00000000000E+00  0.45593999997E+02  0.45594000000E+02  0.51100000000E-03 0.  1.
         11   -1    0    0    0    0 -0.00000000000E+00 -0.00000000000E+00 -0.45593999997E+02  0.45594000000E+02  0.51100000000E-03 0. -1.
    9900012    2    1    2    0    0  0.28906026539E+01  0.44221650499E+02 -0.80748723903E+01  0.46142317403E+02  0.99999967326E+01 0.  0.
         12    1    1    2    0    0 -0.28906026539E+01 -0.44221650499E+02  0.80748723903E+01  0.45045682597E+02  0.00000000000E+00 0. -1.
         11    1    3    3    0    0 -0.71694707748E+00  0.28253276986E+01 -0.25764224015E+01  0.38903010640E+01  0.51100000000E-03 0. -1.
        -11    1    3    3    0    0  0.17786503213E+01  0.17843841536E+02  0.27097645936E+00  0.17934316442E+02  0.51100000000E-03 0.  1.
         12    1    3    3    0    0  0.18288994101E+01  0.23552481264E+02 -0.57694264481E+01  0.24317699897E+02  0.00000000000E+00 0. -1.
</event>
<event>
 7    1  0.2438448E-008  0.4614232E+02  0.7816164E-02  0.1320468E+00
        -11   -1    0    0    0    0  0.00000000000E+00  0.00000000000E+00  0.45593999997E+02  0.45594000000E+02  0.51100000000E-03 0.  1.
         11   -1    0    0    0    0 -0.00000000000E+00 -0.00000000000E+00 -0.45593999997E+02  0.45594000000E+02  0.51100000000E-03 0. -1.
    9900012    2    1    2    0    0 -0.64127989229E+01  0.25717042396E+02  0.36422838665E+02  0.46142318342E+02  0.10000005295E+02 0.  0.
         12    1    1    2    0    0  0.64127989229E+01 -0.25717042396E+02 -0.36422838665E+02  0.45045681658E+02  0.00000000000E+00 0. -1.
         11    1    3    3    0    0 -0.10303128422E+01  0.37151703173E+01  0.64110030512E+01  0.74809755663E+01  0.51100000000E-03 0. -1.
        -11    1    3    3    0    0 -0.72659942347E+01  0.20420206484E+02  0.25063425361E+02  0.33135400951E+02  0.51100000000E-03 0.  1.
         12    1    3    3    0    0  0.18835081541E+01  0.15816655947E+01  0.49484102526E+01  0.55259418245E+01  0.00000000000E+00 0. -1.
</event>
<event>
 7    1  0.2438448E-008  0.4614232E+02  0.7816164E-02  0.1320468E+00
        -11   -1    0    0    0    0  0.00000000000E+00  0.00000000000E+00  0.45593999997E+02  0.45594000000E+02  0.51100000000E-03 0.  1.
         11   -1    0    0    0    0 -0.00000000000E+00 -0.00000000000E+00 -0.45593999997E+02  0.45594000000E+02  0.51100000000E-03 0. -1.
    9900012    2    1    2    0    0 -0.20262487191E+00  0.43421693486E+02 -0.11984530958E+02  0.46142317584E+02  0.99999983848E+01 0.  0.
         12    1    1    2    0    0  0.20262487191E+00 -0.43421693486E+02  0.11984530958E+02  0.45045682416E+02  0.00000000000E+00 0. -1.
         11    1    3    3    0    0 -0.23518061532E+01  0.15185570671E+02 -0.36132761289E+01  0.15785699650E+02  0.51100000000E-03 0.  1.
        -11    1    3    3    0    0 -0.40605643507E+00  0.82889064089E+01 -0.57044974320E+01  0.10070359601E+02  0.51100000000E-03 0. -1.
         12    1    3    3    0    0  0.25552377164E+01  0.19947216406E+02 -0.26667573975E+01  0.20286258333E+02  0.00000000000E+00 0. -1.
</event>
<event>
 7    1  0.2438448E-008  0.4614232E+02  0.7816164E-02  0.1320468E+00
        -11   -1    0    0    0    0  0.00000000000E+00  0.00000000000E+00  0.45593999997E+02  0.45594000000E+02  0.51100000000E-03 0. -1.
         11   -1    0    0    0    0 -0.00000000000E+00 -0.00000000000E+00 -0.45593999997E+02  0.45594000000E+02  0.51100000000E-03 0.  1.
    9900012    2    1    2    0    0 -0.87744636529E+01  0.10824315607E+02 -0.42836392218E+02  0.46142317421E+02  0.99999968979E+01 0.  0.
         12    1    1    2    0    0  0.87744636529E+01 -0.10824315607E+02  0.42836392218E+02  0.45045682579E+02  0.00000000000E+00 0. -1.
         11    1    3    3    0    0  0.34455627964E+00  0.78074596860E+00 -0.48827333292E+00  0.98320618696E+00  0.51100000000E-03 0. -1.
        -11    1    3    3    0    0  0.13998686491E+01  0.10999577198E+01 -0.34324560400E+01  0.38666903092E+01  0.51100000000E-03 0.  1.
         12    1    3    3    0    0 -0.10518888582E+02  0.89436119187E+01 -0.38915662845E+02  0.41292420925E+02  0.00000000000E+00 0. -1.
</event>
<event>
 7    1  0.2438448E-008  0.4614232E+02  0.7816164E-02  0.1320468E+00
        -11   -1    0    0    0    0  0.00000000000E+00  0.00000000000E+00  0.45593999997E+02  0.45594000000E+02  0.51100000000E-03 0. -1.
         11   -1    0    0    0    0 -0.00000000000E+00 -0.00000000000E+00 -0.45593999997E+02  0.45594000000E+02  0.51100000000E-03 0.  1.
    9900012    2    1    2    0    0  0.37301167122E+01  0.34966718450E+02 -0.28151878152E+02  0.46142318593E+02  0.10000007590E+02 0.  0.
         12    1    1    2    0    0 -0.37301167122E+01 -0.34966718450E+02  0.28151878152E+02  0.45045681407E+02  0.00000000000E+00 0. -1.
         11    1    3    3    0    0 -0.10746144036E+01  0.39779375164E+01 -0.10666376496E+01  0.42563480987E+01  0.51100000000E-03 0. -1.
        -11    1    3    3    0    0  0.53800074995E+00  0.16437625607E+02 -0.17125667166E+02  0.23743914095E+02  0.51100000000E-03 0.  1.
         12    1    3    3    0    0  0.42667303659E+01  0.14551155327E+02 -0.99595733366E+01  0.18142056400E+02  0.00000000000E+00 0. -1.
</event>
<event>
 7    1  0.2438448E-008  0.4614232E+02  0.7816164E-02  0.1320468E+00
        -11   -1    0    0    0    0  0.00000000000E+00  0.00000000000E+00  0.45593999997E+02  0.45594000000E+02  0.51100000000E-03 0. -1.
         11   -1    0    0    0    0 -0.00000000000E+00 -0.00000000000E+00 -0.45593999997E+02  0.45594000000E+02  0.51100000000E-03 0.  1.
    9900012    2    1    2    0    0  0.27012075302E+02  0.74515164186E+01 -0.35269479262E+02  0.46142317893E+02  0.10000001202E+02 0.  0.
         12    1    1    2    0    0 -0.27012075302E+02 -0.74515164186E+01  0.35269479262E+02  0.45045682107E+02  0.00000000000E+00 0. -1.
         11    1    3    3    0    0  0.16927893761E+01  0.20105120011E+01 -0.31944884344E+01  0.41367198354E+01  0.51100000000E-03 0. -1.
        -11    1    3    3    0    0  0.29409308338E+00  0.10658640628E+01 -0.22192501473E-01  0.11059157791E+01  0.51100000000E-03 0.  1.
        -12    1    3    3    0    0  0.25025192843E+02  0.43751403547E+01 -0.32052798326E+02  0.40899682278E+02  0.00000000000E+00 0.  1.
</event>
<event>
 7    1  0.2438448E-008  0.4614232E+02  0.7816164E-02  0.1320468E+00
        -11   -1    0    0    0    0  0.00000000000E+00  0.00000000000E+00  0.45593999997E+02  0.45594000000E+02  0.51100000000E-03 0.  1.
         11   -1    0    0    0    0 -0.00000000000E+00 -0.00000000000E+00 -0.45593999997E+02  0.45594000000E+02  0.51100000000E-03 0. -1.
    9900012    2    1    2    0    0  0.32557338858E+01 -0.55606743315E+01  0.44582424137E+02  0.46142318253E+02  0.10000004484E+02 0.  0.
         12    1    1    2    0    0 -0.32557338858E+01  0.55606743315E+01 -0.44582424137E+02  0.45045681747E+02  0.00000000000E+00 0. -1.
         11    1    3    3    0    0  0.29587720741E+01  0.73130476861E+00  0.13495300816E+02  0.13835182804E+02  0.51100000000E-03 0. -1.
        -11    1    3    3    0    0  0.19633810026E+01 -0.26771498995E+01  0.23556128156E+02  0.23788929579E+02  0.51100000000E-03 0.  1.
         12    1    3    3    0    0 -0.16664191909E+01 -0.36148292006E+01  0.75309951647E+01  0.85182058698E+01  0.00000000000E+00 0. -1.
</event>
<event>
 7    1  0.2438448E-008  0.4614232E+02  0.7816164E-02  0.1320468E+00
        -11   -1    0    0    0    0  0.00000000000E+00  0.00000000000E+00  0.45593999997E+02  0.45594000000E+02  0.51100000000E-03 0.  1.
         11   -1    0    0    0    0 -0.00000000000E+00 -0.00000000000E+00 -0.45593999997E+02  0.45594000000E+02  0.51100000000E-03 0. -1.
    9900012    2    1    2    0    0  0.44263328505E+01 -0.31541446054E+02  0.31853700040E+02  0.46142318209E+02  0.10000004089E+02 0.  0.
         12    1    1    2    0    0 -0.44263328505E+01  0.31541446054E+02 -0.31853700040E+02  0.45045681791E+02  0.00000000000E+00 0. -1.
         11    1    3    3    0    0  0.14245238781E+01 -0.25865660912E+01  0.31828949531E+01  0.43417062276E+01  0.51100000000E-03 0. -1.
        -11    1    3    3    0    0  0.39157545288E+01 -0.50732956587E+01  0.46658471007E+01  0.79272688739E+01  0.51100000000E-03 0.  1.
        -12    1    3    3    0    0 -0.91394555642E+00 -0.23881584305E+02  0.24004957987E+02  0.33873343108E+02  0.00000000000E+00 0.  1.
</event>
<event>
 7    1  0.2438448E-008  0.4614232E+02  0.7816164E-02  0.1320468E+00
        -11   -1    0    0    0    0  0.00000000000E+00  0.00000000000E+00  0.45593999997E+02  0.45594000000E+02  0.51100000000E-03 0.  1.
         11   -1    0    0    0    0 -0.00000000000E+00 -0.00000000000E+00 -0.45593999997E+02  0.45594000000E+02  0.51100000000E-03 0. -1.
    9900012    2    1    2    0    0 -0.17484755234E+02  0.26155710284E+02  0.32237800941E+02  0.46142315906E+02  0.99999830821E+01 0.  0.
         12    1    1    2    0    0  0.17484755234E+02 -0.26155710284E+02 -0.32237800941E+02  0.45045684094E+02  0.00000000000E+00 0. -1.
         11    1    3    3    0    0 -0.18073288613E-01 -0.25880134265E+00  0.24301604642E+00  0.35547410407E+00  0.51100000000E-03 0. -1.
        -11    1    3    3    0    0 -0.46064277815E+01  0.14329688057E+02  0.13422931780E+02  0.20167653174E+02  0.51100000000E-03 0.  1.
         12    1    3    3    0    0 -0.12860254164E+02  0.12084823570E+02  0.18571853114E+02  0.25619188628E+02  0.00000000000E+00 0. -1.
</event>
<event>
 7    1  0.2438448E-008  0.4614232E+02  0.7816164E-02  0.1320468E+00
        -11   -1    0    0    0    0  0.00000000000E+00  0.00000000000E+00  0.45593999997E+02  0.45594000000E+02  0.51100000000E-03 0. -1.
         11   -1    0    0    0    0 -0.00000000000E+00 -0.00000000000E+00 -0.45593999997E+02  0.45594000000E+02  0.51100000000E-03 0.  1.
    9900012    2    1    2    0    0 -0.32632986659E+02  0.23821278132E+02 -0.19918544951E+02  0.46142317154E+02  0.99999944597E+01 0.  0.
         12    1    1    2    0    0  0.32632986659E+02 -0.23821278132E+02  0.19918544951E+02  0.45045682846E+02  0.00000000000E+00 0. -1.
         11    1    3    3    0    0 -0.29736266775E+01  0.49503669136E+01 -0.53149824866E+00  0.57992308839E+01  0.51100000000E-03 0. -1.
        -11    1    3    3    0    0 -0.17093936730E+02  0.13151598767E+02 -0.11459649617E+02  0.24423160988E+02  0.51100000000E-03 0.  1.
         12    1    3    3    0    0 -0.12565423252E+02  0.57193124514E+01 -0.79273970852E+01  0.15919925281E+02  0.00000000000E+00 0. -1.
</event>
<event>
 7    1  0.2438448E-008  0.4614232E+02  0.7816164E-02  0.1320468E+00
        -11   -1    0    0    0    0  0.00000000000E+00  0.00000000000E+00  0.45593999997E+02  0.45594000000E+02  0.51100000000E-03 0.  1.
         11   -1    0    0    0    0 -0.00000000000E+00 -0.00000000000E+00 -0.45593999997E+02  0.45594000000E+02  0.51100000000E-03 0. -1.
    9900012    2    1    2    0    0  0.15556903914E+02  0.11080176076E+02  0.40796150258E+02  0.46142318330E+02  0.10000005185E+02 0.  0.
         12    1    1    2    0    0 -0.15556903914E+02 -0.11080176076E+02 -0.40796150258E+02  0.45045681670E+02  0.00000000000E+00 0. -1.
         11    1    3    3    0    0  0.98616877914E+01  0.30890122718E+01  0.21448890794E+02  0.23808607676E+02  0.51100000000E-03 0. -1.
        -11    1    3    3    0    0  0.51224262391E+01  0.29971598949E+01  0.83733054381E+01  0.10263257876E+02  0.51100000000E-03 0.  1.
         12    1    3    3    0    0  0.57278988360E+00  0.49940039093E+01  0.10973954026E+02  0.12070452777E+02  0.00000000000E+00 0. -1.
</event>
<event>
 7    1  0.2438448E-008  0.4614232E+02  0.7816164E-02  0.1320468E+00
        -11   -1    0    0    0    0  0.00000000000E+00  0.00000000000E+00  0.45593999997E+02  0.45594000000E+02  0.51100000000E-03 0.  1.
         11   -1    0    0    0    0 -0.00000000000E+00 -0.00000000000E+00 -0.45593999997E+02  0.45594000000E+02  0.51100000000E-03 0. -1.
    9900012    2    1    2    0    0  0.36376525364E+02 -0.74482705804E+01  0.25502650022E+02  0.46142317740E+02  0.99999998048E+01 0.  0.
         12    1    1    2    0    0 -0.36376525364E+02  0.74482705804E+01 -0.25502650022E+02  0.45045682260E+02  0.00000000000E+00 0. -1.
         11    1    3    3    0    0  0.77132785873E+01 -0.21311203953E+01  0.27286175615E+01  0.84546847820E+01  0.51100000000E-03 0. -1.
        -11    1    3    3    0    0  0.14339558553E+02 -0.50029655689E+00  0.74558844691E+01  0.16169831465E+02  0.51100000000E-03 0.  1.
         12    1    3    3    0    0  0.14323688224E+02 -0.48168536282E+01  0.15318147991E+02  0.21517801493E+02  0.00000000000E+00 0. -1.
</event>
<event>
 7    1  0.2438448E-008  0.4614232E+02  0.7816164E-02  0.1320468E+00
        -11   -1    0    0    0    0  0.00000000000E+00  0.00000000000E+00  0.45593999997E+02  0.45594000000E+02  0.51100000000E-03 0. -1.
         11   -1    0    0    0    0 -0.00000000000E+00 -0.00000000000E+00 -0.45593999997E+02  0.45594000000E+02  0.51100000000E-03 0.  1.
    9900012    2    1    2    0    0  0.32049649169E+02  0.10431490325E+02 -0.29885068132E+02  0.46142319858E+02  0.10000019118E+02 0.  0.
         12    1    1    2    0    0 -0.32049649169E+02 -0.10431490325E+02  0.29885068132E+02  0.45045680142E+02  0.00000000000E+00 0. -1.
         11    1    3    3    0    0  0.17866756747E+02  0.40278403194E+01 -0.10104908948E+02  0.20917783807E+02  0.51100000000E-03 0. -1.
        -11    1    3    3    0    0  0.24378388353E+01  0.62763434615E+00 -0.25081010286E+01  0.35535269930E+01  0.51100000000E-03 0.  1.
         12    1    3    3    0    0  0.11745053586E+02  0.57760156597E+01 -0.17272058155E+02  0.21671009057E+02  0.00000000000E+00 0. -1.
</event>
<event>
 7    1  0.2438448E-008  0.4614232E+02  0.7816164E-02  0.1320468E+00
        -11   -1    0    0    0    0  0.00000000000E+00  0.00000000000E+00  0.45593999997E+02  0.45594000000E+02  0.51100000000E-03 0.  1.
         11   -1    0    0    0    0 -0.00000000000E+00 -0.00000000000E+00 -0.45593999997E+02  0.45594000000E+02  0.51100000000E-03 0. -1.
    9900012    2    1    2    0    0 -0.76088749243E+01 -0.34296788005E+02  0.28194836957E+02  0.46142317897E+02  0.10000001236E+02 0.  0.
         12    1    1    2    0    0  0.76088749243E+01  0.34296788005E+02 -0.28194836957E+02  0.45045682103E+02  0.00000000000E+00 0. -1.
         11    1    3    3    0    0  0.11904451452E-02  0.16679121085E+00 -0.31780226163E+00  0.35891400612E+00  0.51100000000E-03 0. -1.
        -11    1    3    3    0    0 -0.51216346989E+01 -0.28283838048E+02  0.25679540243E+02  0.38544071192E+02  0.51100000000E-03 0.  1.
         12    1    3    3    0    0 -0.24884306705E+01 -0.61797411681E+01  0.28330989759E+01  0.72393326981E+01  0.00000000000E+00 0. -1.
</event>
<event>
 7    1  0.2438448E-008  0.4614232E+02  0.7816164E-02  0.1320468E+00
        -11   -1    0    0    0    0  0.00000000000E+00  0.00000000000E+00  0.45593999997E+02  0.45594000000E+02  0.51100000000E-03 0. -1.
         11   -1    0    0    0    0 -0.00000000000E+00 -0.00000000000E+00 -0.45593999997E+02  0.45594000000E+02  0.51100000000E-03 0.  1.
    9900012    2    1    2    0    0  0.36719687633E+02  0.19531544771E+02 -0.17300191474E+02  0.46142319564E+02  0.10000016436E+02 0.  0.
         12    1    1    2    0    0 -0.36719687633E+02 -0.19531544771E+02  0.17300191474E+02  0.45045680436E+02  0.00000000000E+00 0. -1.
         11    1    3    3    0    0  0.34249706598E+01  0.57391583888E+01 -0.30296557752E+01  0.73380636008E+01  0.51100000000E-03 0. -1.
        -11    1    3    3    0    0  0.95800174698E+01  0.47319349138E+01 -0.37464261584E+01  0.11322705153E+02  0.51100000000E-03 0.  1.
         12    1    3    3    0    0  0.23714699503E+02  0.90604514682E+01 -0.10524109540E+02  0.27481550810E+02  0.00000000000E+00 0. -1.
</event>
<event>
 7    1  0.2438448E-008  0.4614232E+02  0.7816164E-02  0.1320468E+00
        -11   -1    0    0    0    0  0.00000000000E+00  0.00000000000E+00  0.45593999997E+02  0.45594000000E+02  0.51100000000E-03 0. -1.
         11   -1    0    0    0    0 -0.00000000000E+00 -0.00000000000E+00 -0.45593999997E+02  0.45594000000E+02  0.51100000000E-03 0.  1.
    9900012    2    1    2    0    0  0.43501297942E+02  0.33779782191E+00 -0.11689159342E+02  0.46142317898E+02  0.10000001244E+02 0.  0.
         12    1    1    2    0    0 -0.43501297942E+02 -0.33779782191E+00  0.11689159342E+02  0.45045682102E+02  0.00000000000E+00 0. -1.
         11    1    3    3    0    0  0.12720063606E+02 -0.11380770553E+01  0.38511273241E+00  0.12776679913E+02  0.51100000000E-03 0. -1.
        -11    1    3    3    0    0  0.13624581754E+02 -0.69877299936E+00 -0.70512881862E+01  0.15357023703E+02  0.51100000000E-03 0.  1.
        -12    1    3    3    0    0  0.17156652582E+02  0.21746478765E+01 -0.50229838879E+01  0.18008614282E+02  0.00000000000E+00 0.  1.
</event>
<event>
 7    1  0.2438448E-008  0.4614232E+02  0.7816164E-02  0.1320468E+00
        -11   -1    0    0    0    0  0.00000000000E+00  0.00000000000E+00  0.45593999997E+02  0.45594000000E+02  0.51100000000E-03 0.  1.
         11   -1    0    0    0    0 -0.00000000000E+00 -0.00000000000E+00 -0.45593999997E+02  0.45594000000E+02  0.51100000000E-03 0. -1.
    9900012    2    1    2    0    0 -0.23299263248E+01 -0.43799216579E+02  0.10262243987E+02  0.46142316730E+02  0.99999905966E+01 0.  0.
         12    1    1    2    0    0  0.23299263248E+01  0.43799216579E+02 -0.10262243987E+02  0.45045683270E+02  0.00000000000E+00 0. -1.
         11    1    3    3    0    0 -0.27220405409E+01 -0.14585770893E+02  0.11810101224E+01  0.14884522244E+02  0.51100000000E-03 0. -1.
        -11    1    3    3    0    0  0.62965818994E+00 -0.23937259782E+01  0.27500693155E+01  0.36999020252E+01  0.51100000000E-03 0.  1.
        -12    1    3    3    0    0 -0.23754397382E+00 -0.26819719708E+02  0.63311645493E+01  0.27557892461E+02  0.00000000000E+00 0.  1.
</event>
<event>
 7    1  0.2438448E-008  0.4614232E+02  0.7816164E-02  0.1320468E+00
        -11   -1    0    0    0    0  0.00000000000E+00  0.00000000000E+00  0.45593999997E+02  0.45594000000E+02  0.51100000000E-03 0.  1.
         11   -1    0    0    0    0 -0.00000000000E+00 -0.00000000000E+00 -0.45593999997E+02  0.45594000000E+02  0.51100000000E-03 0. -1.
    9900012    2    1    2    0    0 -0.40483403199E+02  0.11471377744E+02  0.16081507063E+02  0.46142319726E+02  0.10000017914E+02 0.  0.
         12    1    1    2    0    0  0.40483403199E+02 -0.11471377744E+02 -0.16081507063E+02  0.45045680274E+02  0.00000000000E+00 0. -1.
         11    1    3    3    0    0 -0.54529512118E+01 -0.35851554932E+00  0.48806718548E+01  0.73269480913E+01  0.51100000000E-03 0. -1.
        -11    1    3    3    0    0 -0.70613934349E+01  0.13634424473E+01  0.10166977181E+01  0.72633275474E+01  0.51100000000E-03 0.  1.
        -12    1    3    3    0    0 -0.27969058553E+02  0.10466450846E+02  0.10184137491E+02  0.31552044087E+02  0.00000000000E+00 0.  1.
</event>
<event>
 7    1  0.2438448E-008  0.4614232E+02  0.7816164E-02  0.1320468E+00
        -11   -1    0    0    0    0  0.00000000000E+00  0.00000000000E+00  0.45593999997E+02  0.45594000000E+02  0.51100000000E-03 0.  1.
         11   -1    0    0    0    0 -0.00000000000E+00 -0.00000000000E+00 -0.45593999997E+02  0.45594000000E+02  0.51100000000E-03 0. -1.
    9900012    2    1    2    0    0 -0.33888877450E+02 -0.15102993196E+02  0.25545194319E+02  0.46142319062E+02  0.10000011867E+02 0.  0.
         12    1    1    2    0    0  0.33888877450E+02  0.15102993196E+02 -0.25545194319E+02  0.45045680938E+02  0.00000000000E+00 0. -1.
         11    1    3    3    0    0 -0.12809280154E+02 -0.37886483192E+01  0.86283823212E+01  0.15902216697E+02  0.51100000000E-03 0. -1.
        -11    1    3    3    0    0 -0.39787571582E+01 -0.58163530011E+01  0.38763217351E+01  0.80427819325E+01  0.51100000000E-03 0.  1.
        -12    1    3    3    0    0 -0.17100840138E+02 -0.54979918762E+01  0.13040490263E+02  0.22197320433E+02  0.00000000000E+00 0.  1.
</event>
<event>
 7    1  0.2438448E-008  0.4614231E+02  0.7816164E-02  0.1320468E+00
        -11   -1    0    0    0    0  0.00000000000E+00  0.00000000000E+00  0.45593999997E+02  0.45594000000E+02  0.51100000000E-03 0.  1.
         11   -1    0    0    0    0 -0.00000000000E+00 -0.00000000000E+00 -0.45593999997E+02  0.45594000000E+02  0.51100000000E-03 0. -1.
    9900012    2    1    2    0    0 -0.14611944640E+02  0.17373246411E+02  0.38907264927E+02  0.46142313402E+02  0.99999602491E+01 0.  0.
         12    1    1    2    0    0  0.14611944640E+02 -0.17373246411E+02 -0.38907264927E+02  0.45045686598E+02  0.00000000000E+00 0. -1.
         11    1    3    3    0    0 -0.23149576659E+00  0.40931762418E+01  0.96609055504E+01  0.10494797680E+02  0.51100000000E-03 0. -1.
        -11    1    3    3    0    0 -0.13021462406E+02  0.11155926153E+02  0.28003738482E+02  0.32836299133E+02  0.51100000000E-03 0.  1.
         12    1    3    3    0    0 -0.13589864665E+01  0.21241440167E+01  0.12426208942E+01  0.28112165884E+01  0.00000000000E+00 0. -1.
</event>
<event>
 7    1  0.2438448E-008  0.4614232E+02  0.7816164E-02  0.1320468E+00
        -11   -1    0    0    0    0  0.00000000000E+00  0.00000000000E+00  0.45593999997E+02  0.45594000000E+02  0.51100000000E-03 0.  1.
         11   -1    0    0    0    0 -0.00000000000E+00 -0.00000000000E+00 -0.45593999997E+02  0.45594000000E+02  0.51100000000E-03 0. -1.
    9900012    2    1    2    0    0 -0.18490796748E+02 -0.26320974809E+02  0.31534270490E+02  0.46142317692E+02  0.99999993656E+01 0.  0.
         12    1    1    2    0    0  0.18490796748E+02  0.26320974809E+02 -0.31534270490E+02  0.45045682308E+02  0.00000000000E+00 0. -1.
         11    1    3    3    0    0  0.19836257202E+00  0.42297189092E+00 -0.51363391357E-01  0.46999083989E+00  0.51100000000E-03 0. -1.
        -11    1    3    3    0    0 -0.84192066771E+01 -0.86932687666E+01  0.13536217595E+02  0.18157234095E+02  0.51100000000E-03 0.  1.
        -12    1    3    3    0    0 -0.10269952642E+02 -0.18050677934E+02  0.18049416286E+02  0.27515092757E+02  0.00000000000E+00 0.  1.
</event>
<event>
 7    1  0.2438448E-008  0.4614232E+02  0.7816164E-02  0.1320468E+00
        -11   -1    0    0    0    0  0.00000000000E+00  0.00000000000E+00  0.45593999997E+02  0.45594000000E+02  0.51100000000E-03 0.  1.
         11   -1    0    0    0    0 -0.00000000000E+00 -0.00000000000E+00 -0.45593999997E+02  0.45594000000E+02  0.51100000000E-03 0. -1.
    9900012    2    1    2    0    0 -0.20186164104E+02  0.11844608371E+01  0.40252072449E+02  0.46142317574E+02  0.99999982980E+01 0.  0.
         12    1    1    2    0    0  0.20186164104E+02 -0.11844608371E+01 -0.40252072449E+02  0.45045682426E+02  0.00000000000E+00 0. -1.
         11    1    3    3    0    0 -0.89856931576E+01 -0.28648998693E+01  0.13648427205E+02  0.16590054195E+02  0.51100000000E-03 0. -1.
        -11    1    3    3    0    0 -0.58428434353E+01  0.20223825689E+01  0.81495176295E+01  0.10229539995E+02  0.51100000000E-03 0.  1.
         12    1    3    3    0    0 -0.53576275111E+01  0.20269781375E+01  0.18454127615E+02  0.19322723384E+02  0.00000000000E+00 0. -1.
</event>
<event>
 7    1  0.2438448E-008  0.4614232E+02  0.7816164E-02  0.1320468E+00
        -11   -1    0    0    0    0  0.00000000000E+00  0.00000000000E+00  0.45593999997E+02  0.45594000000E+02  0.51100000000E-03 0.  1.
         11   -1    0    0    0    0 -0.00000000000E+00 -0.00000000000E+00 -0.45593999997E+02  0.45594000000E+02  0.51100000000E-03 0. -1.
    9900012    2    1    2    0    0 -0.34544913941E+02  0.19937852926E+02  0.20934279715E+02  0.46142321787E+02  0.10000036708E+02 0.  0.
         12    1    1    2    0    0  0.34544913941E+02 -0.19937852926E+02 -0.20934279715E+02  0.45045678213E+02  0.00000000000E+00 0. -1.
         11    1    3    3    0    0 -0.10755222814E+02  0.14711731415E+01  0.54819700422E+01  0.12161051106E+02  0.51100000000E-03 0. -1.
        -11    1    3    3    0    0 -0.82684012107E+01  0.75508999093E+01  0.44678971065E+01  0.12055897015E+02  0.51100000000E-03 0.  1.
        -12    1    3    3    0    0 -0.15521289916E+02  0.10915779876E+02  0.10984412567E+02  0.21925373666E+02  0.00000000000E+00 0.  1.
</event>
<event>
 7    1  0.2438448E-008  0.4614232E+02  0.7816164E-02  0.1320468E+00
        -11   -1    0    0    0    0  0.00000000000E+00  0.00000000000E+00  0.45593999997E+02  0.45594000000E+02  0.51100000000E-03 0.  1.
         11   -1    0    0    0    0 -0.00000000000E+00 -0.00000000000E+00 -0.45593999997E+02  0.45594000000E+02  0.51100000000E-03 0. -1.
    9900012    2    1    2    0    0 -0.23865583981E+02 -0.22302815695E+02  0.31018249818E+02  0.46142317539E+02  0.99999979712E+01 0.  0.
         12    1    1    2    0    0  0.23865583981E+02  0.22302815695E+02 -0.31018249818E+02  0.45045682461E+02  0.00000000000E+00 0. -1.
         11    1    3    3    0    0 -0.21509977680E+01 -0.18009371803E+01  0.36995365468E+00  0.28296699618E+01  0.51100000000E-03 0. -1.
        -11    1    3    3    0    0 -0.81247715269E+01 -0.11914268384E+02  0.12680177917E+02  0.19202828327E+02  0.51100000000E-03 0.  1.
        -12    1    3    3    0    0 -0.13589814686E+02 -0.85876101305E+01  0.17968118246E+02  0.24109819250E+02  0.00000000000E+00 0.  1.
</event>
<event>
 7    1  0.2438448E-008  0.4614232E+02  0.7816164E-02  0.1320468E+00
        -11   -1    0    0    0    0  0.00000000000E+00  0.00000000000E+00  0.45593999997E+02  0.45594000000E+02  0.51100000000E-03 0.  1.
         11   -1    0    0    0    0 -0.00000000000E+00 -0.00000000000E+00 -0.45593999997E+02  0.45594000000E+02  0.51100000000E-03 0. -1.
    9900012    2    1    2    0    0  0.36260304702E+02 -0.25332554472E+02 -0.85185370149E+01  0.46142317787E+02  0.10000000234E+02 0.  0.
         12    1    1    2    0    0 -0.36260304702E+02  0.25332554472E+02  0.85185370149E+01  0.45045682213E+02  0.00000000000E+00 0. -1.
         11    1    3    3    0    0  0.19069925460E+02 -0.13394386884E+02 -0.22268443061E+01  0.23410051108E+02  0.51100000000E-03 0.  1.
        -11    1    3    3    0    0  0.12961685202E+02 -0.11786986566E+02 -0.58837285507E+01  0.18481249890E+02  0.51100000000E-03 0. -1.
        -12    1    3    3    0    0  0.42286940399E+01 -0.15118102262E+00 -0.40796415811E+00  0.42510167888E+01  0.00000000000E+00 0.  1.
</event>
<event>
 7    1  0.2438448E-008  0.4614232E+02  0.7816164E-02  0.1320468E+00
        -11   -1    0    0    0    0  0.00000000000E+00  0.00000000000E+00  0.45593999997E+02  0.45594000000E+02  0.51100000000E-03 0.  1.
         11   -1    0    0    0    0 -0.00000000000E+00 -0.00000000000E+00 -0.45593999997E+02  0.45594000000E+02  0.51100000000E-03 0. -1.
    9900012    2    1    2    0    0  0.32879618316E+02 -0.19501911395E+02 -0.23826870229E+02  0.46142316594E+02  0.99999893544E+01 0.  0.
         12    1    1    2    0    0 -0.32879618316E+02  0.19501911395E+02  0.23826870229E+02  0.45045683406E+02  0.00000000000E+00 0. -1.
         11    1    3    3    0    0  0.32622656177E+01 -0.44613725056E+01 -0.27200494170E+01  0.61599424256E+01  0.51100000000E-03 0. -1.
        -11    1    3    3    0    0 -0.22005920471E+00  0.32691019787E+00 -0.27507471241E+00  0.48058577754E+00  0.51100000000E-03 0.  1.
        -12    1    3    3    0    0  0.29837411903E+02 -0.15367449087E+02 -0.20831746099E+02  0.39501788391E+02  0.00000000000E+00 0.  1.
</event>
<event>
 7    1  0.2438448E-008  0.4614232E+02  0.7816164E-02  0.1320468E+00
        -11   -1    0    0    0    0  0.00000000000E+00  0.00000000000E+00  0.45593999997E+02  0.45594000000E+02  0.51100000000E-03 0. -1.
         11   -1    0    0    0    0 -0.00000000000E+00 -0.00000000000E+00 -0.45593999997E+02  0.45594000000E+02  0.51100000000E-03 0.  1.
    9900012    2    1    2    0    0  0.42426109129E+02 -0.26044977984E+01 -0.14911585821E+02  0.46142317229E+02  0.99999951439E+01 0.  0.
         12    1    1    2    0    0 -0.42426109129E+02  0.26044977984E+01  0.14911585821E+02  0.45045682771E+02  0.00000000000E+00 0. -1.
         11    1    3    3    0    0  0.93244886647E+01 -0.20223966923E+00 -0.62464254454E+01  0.11225186896E+02  0.51100000000E-03 0. -1.
        -11    1    3    3    0    0  0.21541206165E+02 -0.27202105886E+01 -0.26261448430E+01  0.21870522300E+02  0.51100000000E-03 0.  1.
        -12    1    3    3    0    0  0.11560414300E+02  0.31795245942E+00 -0.60390155325E+01  0.13046608032E+02  0.00000000000E+00 0.  1.
</event>
<event>
 7    1  0.2438448E-008  0.4614232E+02  0.7816164E-02  0.1320468E+00
        -11   -1    0    0    0    0  0.00000000000E+00  0.00000000000E+00  0.45593999997E+02  0.45594000000E+02  0.51100000000E-03 0.  1.
         11   -1    0    0    0    0 -0.00000000000E+00 -0.00000000000E+00 -0.45593999997E+02  0.45594000000E+02  0.51100000000E-03 0. -1.
    9900012    2    1    2    0    0 -0.54084916401E+01 -0.44520158795E+02 -0.42210391977E+01  0.46142317711E+02  0.99999995407E+01 0.  0.
         12    1    1    2    0    0  0.54084916401E+01  0.44520158795E+02  0.42210391977E+01  0.45045682289E+02  0.00000000000E+00 0. -1.
         11    1    3    3    0    0 -0.33795648786E+01 -0.12467865534E+02  0.25606112057E+01  0.13169125246E+02  0.51100000000E-03 0. -1.
        -11    1    3    3    0    0 -0.13242905136E+01 -0.41328272998E+01 -0.88587018217E+00  0.44293084218E+01  0.51100000000E-03 0.  1.
         12    1    3    3    0    0 -0.70463624792E+00 -0.27919465962E+02 -0.58957802213E+01  0.28543884043E+02  0.00000000000E+00 0. -1.
</event>
<event>
 7    1  0.2438448E-008  0.4614232E+02  0.7816164E-02  0.1320468E+00
        -11   -1    0    0    0    0  0.00000000000E+00  0.00000000000E+00  0.45593999997E+02  0.45594000000E+02  0.51100000000E-03 0. -1.
         11   -1    0    0    0    0 -0.00000000000E+00 -0.00000000000E+00 -0.45593999997E+02  0.45594000000E+02  0.51100000000E-03 0.  1.
    9900012    2    1    2    0    0 -0.34755860338E+02 -0.23994824065E+02 -0.15664999698E+02  0.46142316241E+02  0.99999861405E+01 0.  0.
         12    1    1    2    0    0  0.34755860338E+02  0.23994824065E+02  0.15664999698E+02  0.45045683759E+02  0.00000000000E+00 0. -1.
         11    1    3    3    0    0 -0.44747265273E+01 -0.59160385240E+01 -0.24956273576E+01  0.78262919369E+01  0.51100000000E-03 0. -1.
        -11    1    3    3    0    0 -0.16851048415E+02 -0.59134784682E+01 -0.67602009837E+01  0.19095218718E+02  0.51100000000E-03 0.  1.
        -12    1    3    3    0    0 -0.13430085396E+02 -0.12165307073E+02 -0.64091713563E+01  0.19220805586E+02  0.00000000000E+00 0.  1.
</event>
<event>
 7    1  0.2438448E-008  0.4614232E+02  0.7816164E-02  0.1320468E+00
        -11   -1    0    0    0    0  0.00000000000E+00  0.00000000000E+00  0.45593999997E+02  0.45594000000E+02  0.51100000000E-03 0.  1.
         11   -1    0    0    0    0 -0.00000000000E+00 -0.00000000000E+00 -0.45593999997E+02  0.45594000000E+02  0.51100000000E-03 0. -1.
    9900012    2    1    2    0    0  0.37863430762E+02 -0.42028795177E+00  0.24398720962E+02  0.46142316349E+02  0.99999871216E+01 0.  0.
         12    1    1    2    0    0 -0.37863430762E+02  0.42028795177E+00 -0.24398720962E+02  0.45045683651E+02  0.00000000000E+00 0. -1.
         11    1    3    3    0    0  0.85920830470E+01 -0.39972826227E+00  0.61062858041E+01  0.10548478580E+02  0.51100000000E-03 0. -1.
        -11    1    3    3    0    0  0.12514971854E+02 -0.12395570647E+01  0.12734480395E+02  0.17897709725E+02  0.51100000000E-03 0.  1.
        -12    1    3    3    0    0  0.16756375860E+02  0.12189973752E+01  0.55579547634E+01  0.17696128043E+02  0.00000000000E+00 0.  1.
</event>
<event>
 7    1  0.2438448E-008  0.4614232E+02  0.7816164E-02  0.1320468E+00
        -11   -1    0    0    0    0  0.00000000000E+00  0.00000000000E+00  0.45593999997E+02  0.45594000000E+02  0.51100000000E-03 0.  1.
         11   -1    0    0    0    0 -0.00000000000E+00 -0.00000000000E+00 -0.45593999997E+02  0.45594000000E+02  0.51100000000E-03 0. -1.
    9900012    2    1    2    0    0  0.16429471998E+02  0.38987200280E+02  0.15465579659E+02  0.46142317743E+02  0.99999998318E+01 0.  0.
         12    1    1    2    0    0 -0.16429471998E+02 -0.38987200280E+02 -0.15465579659E+02  0.45045682257E+02  0.00000000000E+00 0. -1.
         11    1    3    3    0    0 -0.49913685298E+00  0.36857579748E+01  0.86886903317E-01  0.37204165146E+01  0.51100000000E-03 0. -1.
        -11    1    3    3    0    0  0.15850398577E+02  0.30376734742E+02  0.14883147651E+02  0.37356247575E+02  0.51100000000E-03 0.  1.
         12    1    3    3    0    0  0.10782102747E+01  0.49247075637E+01  0.49554510491E+00  0.50656536533E+01  0.00000000000E+00 0. -1.
</event>
<event>
 7    1  0.2438448E-008  0.4614231E+02  0.7816164E-02  0.1320468E+00
        -11   -1    0    0    0    0  0.00000000000E+00  0.00000000000E+00  0.45593999997E+02  0.45594000000E+02  0.51100000000E-03 0.  1.
         11   -1    0    0    0    0 -0.00000000000E+00 -0.00000000000E+00 -0.45593999997E+02  0.45594000000E+02  0.51100000000E-03 0. -1.
    9900012    2    1    2    0    0  0.18233368232E+02  0.19732668085E+02  0.36156325349E+02  0.46142314640E+02  0.99999715380E+01 0.  0.
         12    1    1    2    0    0 -0.18233368232E+02 -0.19732668085E+02 -0.36156325349E+02  0.45045685360E+02  0.00000000000E+00 0. -1.
         11    1    3    3    0    0  0.39530809974E+01  0.26911324156E+01  0.30829289530E+01  0.56897710183E+01  0.51100000000E-03 0. -1.
        -11    1    3    3    0    0  0.75277285169E+01  0.41691175448E+01  0.14582412319E+02  0.16932069780E+02  0.51100000000E-03 0.  1.
        -12    1    3    3    0    0  0.67525587178E+01  0.12872418125E+02  0.18490984077E+02  0.23520473842E+02  0.00000000000E+00 0.  1.
</event>
<event>
 7    1  0.2438448E-008  0.4614232E+02  0.7816164E-02  0.1320468E+00
        -11   -1    0    0    0    0  0.00000000000E+00  0.00000000000E+00  0.45593999997E+02  0.45594000000E+02  0.51100000000E-03 0. -1.
         11   -1    0    0    0    0 -0.00000000000E+00 -0.00000000000E+00 -0.45593999997E+02  0.45594000000E+02  0.51100000000E-03 0.  1.
    9900012    2    1    2    0    0  0.40153569825E+01  0.36787892472E+02 -0.25683483366E+02  0.46142318276E+02  0.10000004691E+02 0.  0.
         12    1    1    2    0    0 -0.40153569825E+01 -0.36787892472E+02  0.25683483366E+02  0.45045681724E+02  0.00000000000E+00 0. -1.
         11    1    3    3    0    0 -0.13945665258E+01  0.19547723193E+01 -0.35080229193E+01  0.42511381627E+01  0.51100000000E-03 0. -1.
        -11    1    3    3    0    0 -0.22444573338E-01  0.12039101958E+02 -0.87746784287E+01  0.14897498498E+02  0.51100000000E-03 0.  1.
        -12    1    3    3    0    0  0.54323680816E+01  0.22794018195E+02 -0.13400782018E+02  0.26993681615E+02  0.00000000000E+00 0.  1.
</event>
<event>
 7    1  0.2438448E-008  0.4614232E+02  0.7816164E-02  0.1320468E+00
        -11   -1    0    0    0    0  0.00000000000E+00  0.00000000000E+00  0.45593999997E+02  0.45594000000E+02  0.51100000000E-03 0. -1.
         11   -1    0    0    0    0 -0.00000000000E+00 -0.00000000000E+00 -0.45593999997E+02  0.45594000000E+02  0.51100000000E-03 0.  1.
    9900012    2    1    2    0    0  0.15650955665E+02 -0.24616351289E+00 -0.42238611769E+02  0.46142319475E+02  0.10000015633E+02 0.  0.
         12    1    1    2    0    0 -0.15650955665E+02  0.24616351289E+00  0.42238611769E+02  0.45045680525E+02  0.00000000000E+00 0. -1.
         11    1    3    3    0    0  0.11487863100E+02  0.33307528826E+00 -0.24196739003E+02  0.26787387263E+02  0.51100000000E-03 0. -1.
        -11    1    3    3    0    0  0.50380870750E+01 -0.92898820005E+00 -0.97897925388E+01  0.11049225252E+02  0.51100000000E-03 0.  1.
        -12    1    3    3    0    0 -0.87499450908E+00  0.34974939890E+00 -0.82520802273E+01  0.83057069604E+01  0.00000000000E+00 0.  1.
</event>
<event>
 7    1  0.2438448E-008  0.4614232E+02  0.7816164E-02  0.1320468E+00
        -11   -1    0    0    0    0  0.00000000000E+00  0.00000000000E+00  0.45593999997E+02  0.45594000000E+02  0.51100000000E-03 0.  1.
         11   -1    0    0    0    0 -0.00000000000E+00 -0.00000000000E+00 -0.45593999997E+02  0.45594000000E+02  0.51100000000E-03 0. -1.
    9900012    2    1    2    0    0 -0.40506522147E+02  0.40099434984E+01  0.19293924489E+02  0.46142317571E+02  0.99999982638E+01 0.  0.
         12    1    1    2    0    0  0.40506522147E+02 -0.40099434984E+01 -0.19293924489E+02  0.45045682429E+02  0.00000000000E+00 0. -1.
         11    1    3    3    0    0 -0.27923330700E+02  0.29940731522E+01  0.15574226814E+02  0.32112823180E+02  0.51100000000E-03 0. -1.
        -11    1    3    3    0    0 -0.21024313278E+01  0.20859069912E+01  0.12112199696E+01  0.31997311668E+01  0.51100000000E-03 0.  1.
         12    1    3    3    0    0 -0.10480760119E+02 -0.10700366450E+01  0.25084777052E+01  0.10829763224E+02  0.00000000000E+00 0. -1.
</event>
<event>
 7    1  0.2438448E-008  0.4614232E+02  0.7816164E-02  0.1320468E+00
        -11   -1    0    0    0    0  0.00000000000E+00  0.00000000000E+00  0.45593999997E+02  0.45594000000E+02  0.51100000000E-03 0.  1.
         11   -1    0    0    0    0 -0.00000000000E+00 -0.00000000000E+00 -0.45593999997E+02  0.45594000000E+02  0.51100000000E-03 0. -1.
    9900012    2    1    2    0    0 -0.16068098950E+02  0.18507364411E+02  0.37794273771E+02  0.46142317952E+02  0.10000001737E+02 0.  0.
         12    1    1    2    0    0  0.16068098950E+02 -0.18507364411E+02 -0.37794273771E+02  0.45045682048E+02  0.00000000000E+00 0. -1.
         11    1    3    3    0    0 -0.42562041604E+01  0.31184436401E+01  0.40370567338E+01  0.66436279188E+01  0.51100000000E-03 0. -1.
        -11    1    3    3    0    0 -0.50773233140E+00 -0.65787752474E+00  0.19892080039E+01  0.21558162496E+01  0.51100000000E-03 0.  1.
        -12    1    3    3    0    0 -0.11304162459E+02  0.16046798296E+02  0.31768009033E+02  0.37342873783E+02  0.00000000000E+00 0.  1.
</event>
<event>
 7    1  0.2438448E-008  0.4614232E+02  0.7816164E-02  0.1320468E+00
        -11   -1    0    0    0    0  0.00000000000E+00  0.00000000000E+00  0.45593999997E+02  0.45594000000E+02  0.51100000000E-03 0.  1.
         11   -1    0    0    0    0 -0.00000000000E+00 -0.00000000000E+00 -0.45593999997E+02  0.45594000000E+02  0.51100000000E-03 0. -1.
    9900012    2    1    2    0    0 -0.18375188410E+02  0.34306872047E+02  0.22682688375E+02  0.46142319067E+02  0.10000011908E+02 0.  0.
         12    1    1    2    0    0  0.18375188410E+02 -0.34306872047E+02 -0.22682688375E+02  0.45045680933E+02  0.00000000000E+00 0. -1.
         11    1    3    3    0    0 -0.52742408410E+00  0.26844919283E+01  0.71091414125E+00  0.28266715860E+01  0.51100000000E-03 0. -1.
        -11    1    3    3    0    0 -0.87584623672E+01  0.83694010834E+01  0.48852169454E+01  0.13062269420E+02  0.51100000000E-03 0.  1.
        -12    1    3    3    0    0 -0.90893019590E+01  0.23252979036E+02  0.17086557289E+02  0.30253378061E+02  0.00000000000E+00 0.  1.
</event>
<event>
 7    1  0.2438448E-008  0.4614232E+02  0.7816164E-02  0.1320468E+00
        -11   -1    0    0    0    0  0.00000000000E+00  0.00000000000E+00  0.45593999997E+02  0.45594000000E+02  0.51100000000E-03 0. -1.
         11   -1    0    0    0    0 -0.00000000000E+00 -0.00000000000E+00 -0.45593999997E+02  0.45594000000E+02  0.51100000000E-03 0.  1.
    9900012    2    1    2    0    0 -0.64592718929E+01 -0.89351966902E+00 -0.44571211440E+02  0.46142318076E+02  0.10000002869E+02 0.  0.
         12    1    1    2    0    0  0.64592718929E+01  0.89351966902E+00  0.44571211440E+02  0.45045681924E+02  0.00000000000E+00 0. -1.
         11    1    3    3    0    0 -0.11046587368E+00  0.21908933398E+01 -0.13450997346E+02  0.13628703027E+02  0.51100000000E-03 0. -1.
        -11    1    3    3    0    0 -0.14635016531E+01  0.13581543053E+01 -0.14383067550E+02  0.14520986627E+02  0.51100000000E-03 0.  1.
        -12    1    3    3    0    0 -0.48853043661E+01 -0.44425673142E+01 -0.16737146544E+02  0.17992628422E+02  0.00000000000E+00 0.  1.
</event>
<event>
 7    1  0.2438448E-008  0.4614232E+02  0.7816164E-02  0.1320468E+00
        -11   -1    0    0    0    0  0.00000000000E+00  0.00000000000E+00  0.45593999997E+02  0.45594000000E+02  0.51100000000E-03 0.  1.
         11   -1    0    0    0    0 -0.00000000000E+00 -0.00000000000E+00 -0.45593999997E+02  0.45594000000E+02  0.51100000000E-03 0. -1.
    9900012    2    1    2    0    0  0.21405113170E+02  0.36709125645E+02  0.14945724204E+02  0.46142318216E+02  0.10000004144E+02 0.  0.
         12    1    1    2    0    0 -0.21405113170E+02 -0.36709125645E+02 -0.14945724204E+02  0.45045681784E+02  0.00000000000E+00 0. -1.
         11    1    3    3    0    0  0.42832268278E+01  0.12214573467E+02  0.50682394953E+01  0.13900679440E+02  0.51100000000E-03 0. -1.
        -11    1    3    3    0    0  0.35871412745E+01  0.10148063011E+02  0.17292592935E+01  0.10901426666E+02  0.51100000000E-03 0.  1.
        -12    1    3    3    0    0  0.13534745067E+02  0.14346489167E+02  0.81482254149E+01  0.21340212110E+02  0.00000000000E+00 0.  1.
</event>
<event>
 7    1  0.2438448E-008  0.4614232E+02  0.7816164E-02  0.1320468E+00
        -11   -1    0    0    0    0  0.00000000000E+00  0.00000000000E+00  0.45593999997E+02  0.45594000000E+02  0.51100000000E-03 0.  1.
         11   -1    0    0    0    0 -0.00000000000E+00 -0.00000000000E+00 -0.45593999997E+02  0.45594000000E+02  0.51100000000E-03 0. -1.
    9900012    2    1    2    0    0  0.49327270513E+01 -0.28153686162E+02  0.34815968192E+02  0.46142317834E+02  0.10000000663E+02 0.  0.
         12    1    1    2    0    0 -0.49327270513E+01  0.28153686162E+02 -0.34815968192E+02  0.45045682166E+02  0.00000000000E+00 0. -1.
         11    1    3    3    0    0 -0.11679974955E+01 -0.66797397560E+01  0.54665355063E+01  0.87101177983E+01  0.51100000000E-03 0. -1.
        -11    1    3    3    0    0  0.43253321023E+01 -0.69721488351E+01  0.73034352278E+01  0.10984512896E+02  0.51100000000E-03 0.  1.
         12    1    3    3    0    0  0.17753924445E+01 -0.14501797571E+02  0.22045997458E+02  0.26447687140E+02  0.00000000000E+00 0. -1.
</event>
<event>
 7    1  0.2438448E-008  0.4614232E+02  0.7816164E-02  0.1320468E+00
        -11   -1    0    0    0    0  0.00000000000E+00  0.00000000000E+00  0.45593999997E+02  0.45594000000E+02  0.51100000000E-03 0.  1.
         11   -1    0    0    0    0 -0.00000000000E+00 -0.00000000000E+00 -0.45593999997E+02  0.45594000000E+02  0.51100000000E-03 0. -1.
    9900012    2    1    2    0    0  0.72542304462E+00 -0.52122526215E+01  0.44737229792E+02  0.46142317127E+02  0.99999942199E+01 0.  0.
         12    1    1    2    0    0 -0.72542304462E+00  0.52122526215E+01 -0.44737229792E+02  0.45045682873E+02  0.00000000000E+00 0. -1.
         11    1    3    3    0    0 -0.13265210457E+01  0.36611232471E+00  0.93520029206E+00  0.16638197517E+01  0.51100000000E-03 0. -1.
        -11    1    3    3    0    0 -0.87470383645E+00  0.47617463288E+00  0.50402249815E+01  0.51376762459E+01  0.51100000000E-03 0.  1.
        -12    1    3    3    0    0  0.29266479267E+01 -0.60545395791E+01  0.38761804519E+02  0.39340821130E+02  0.00000000000E+00 0.  1.
</event>
<event>
 7    1  0.2438448E-008  0.4614232E+02  0.7816164E-02  0.1320468E+00
        -11   -1    0    0    0    0  0.00000000000E+00  0.00000000000E+00  0.45593999997E+02  0.45594000000E+02  0.51100000000E-03 0.  1.
         11   -1    0    0    0    0 -0.00000000000E+00 -0.00000000000E+00 -0.45593999997E+02  0.45594000000E+02  0.51100000000E-03 0. -1.
    9900012    2    1    2    0    0 -0.18031729223E+02 -0.21711408449E+02  0.35108190196E+02  0.46142317250E+02  0.99999953391E+01 0.  0.
         12    1    1    2    0    0  0.18031729223E+02  0.21711408449E+02 -0.35108190196E+02  0.45045682750E+02  0.00000000000E+00 0. -1.
         11    1    3    3    0    0 -0.21389768082E+01 -0.75207103959E+01  0.90040277187E+01  0.11925134048E+02  0.51100000000E-03 0. -1.
        -11    1    3    3    0    0 -0.14202714645E+02 -0.14590526546E+02  0.23601985819E+02  0.31171369925E+02  0.51100000000E-03 0.  1.
         12    1    3    3    0    0 -0.16900377694E+01  0.39982849289E+00  0.25021766584E+01  0.30458132765E+01  0.00000000000E+00 0. -1.
</event>
<event>
 7    1  0.2438448E-008  0.4614232E+02  0.7816164E-02  0.1320468E+00
        -11   -1    0    0    0    0  0.00000000000E+00  0.00000000000E+00  0.45593999997E+02  0.45594000000E+02  0.51100000000E-03 0.  1.
         11   -1    0    0    0    0 -0.00000000000E+00 -0.00000000000E+00 -0.45593999997E+02  0.45594000000E+02  0.51100000000E-03 0. -1.
    9900012    2    1    2    0    0  0.11146031616E+02  0.29577839232E+02  0.32094094266E+02  0.46142317841E+02  0.10000000732E+02 0.  0.
         12    1    1    2    0    0 -0.11146031616E+02 -0.29577839232E+02 -0.32094094266E+02  0.45045682159E+02  0.00000000000E+00 0. -1.
         11    1    3    3    0    0 -0.73599029412E+00  0.22651800260E+01  0.44896583882E+01  0.50822981974E+01  0.51100000000E-03 0. -1.
        -11    1    3    3    0    0  0.13581936676E+01  0.28648782960E+00  0.14227390189E+01  0.19877001515E+01  0.51100000000E-03 0.  1.
        -12    1    3    3    0    0  0.10523828242E+02  0.27026171376E+02  0.26181696859E+02  0.39072319493E+02  0.00000000000E+00 0.  1.
</event>
<event>
 7    1  0.2438448E-008  0.4614232E+02  0.7816164E-02  0.1320468E+00
        -11   -1    0    0    0    0  0.00000000000E+00  0.00000000000E+00  0.45593999997E+02  0.45594000000E+02  0.51100000000E-03 0.  1.
         11   -1    0    0    0    0 -0.00000000000E+00 -0.00000000000E+00 -0.45593999997E+02  0.45594000000E+02  0.51100000000E-03 0. -1.
    9900012    2    1    2    0    0  0.12287064280E+02 -0.38821529057E+02  0.19262152358E+02  0.46142316739E+02  0.99999906812E+01 0.  0.
         12    1    1    2    0    0 -0.12287064280E+02  0.38821529057E+02 -0.19262152358E+02  0.45045683261E+02  0.00000000000E+00 0. -1.
         11    1    3    3    0    0 -0.39938859297E+00 -0.58055694505E+01  0.16245586935E+01  0.60417993266E+01  0.51100000000E-03 0. -1.
        -11    1    3    3    0    0  0.21811773300E+01 -0.34058891168E+01 -0.51358840233E-01  0.40447809845E+01  0.51100000000E-03 0.  1.
        -12    1    3    3    0    0  0.10505275543E+02 -0.29610070490E+02  0.17688952505E+02  0.36055736428E+02  0.00000000000E+00 0.  1.
</event>
<event>
 7    1  0.2438448E-008  0.4614232E+02  0.7816164E-02  0.1320468E+00
        -11   -1    0    0    0    0  0.00000000000E+00  0.00000000000E+00  0.45593999997E+02  0.45594000000E+02  0.51100000000E-03 0.  1.
         11   -1    0    0    0    0 -0.00000000000E+00 -0.00000000000E+00 -0.45593999997E+02  0.45594000000E+02  0.51100000000E-03 0. -1.
    9900012    2    1    2    0    0 -0.31431353648E+02  0.14759566965E+02  0.28693879150E+02  0.46142317522E+02  0.99999978240E+01 0.  0.
         12    1    1    2    0    0  0.31431353648E+02 -0.14759566965E+02 -0.28693879150E+02  0.45045682478E+02  0.00000000000E+00 0. -1.
         11    1    3    3    0    0 -0.12324887767E+02  0.24922403609E+01  0.92504994663E+01  0.15610440773E+02  0.51100000000E-03 0. -1.
        -11    1    3    3    0    0 -0.49563809081E+01  0.43160792381E+01  0.93142330999E+01  0.11399525876E+02  0.51100000000E-03 0.  1.
         12    1    3    3    0    0 -0.14150084974E+02  0.79512473664E+01  0.10129146584E+02  0.19132350874E+02  0.00000000000E+00 0. -1.
</event>
<event>
 7    1  0.2438448E-008  0.4614232E+02  0.7816164E-02  0.1320468E+00
        -11   -1    0    0    0    0  0.00000000000E+00  0.00000000000E+00  0.45593999997E+02  0.45594000000E+02  0.51100000000E-03 0.  1.
         11   -1    0    0    0    0 -0.00000000000E+00 -0.00000000000E+00 -0.45593999997E+02  0.45594000000E+02  0.51100000000E-03 0. -1.
    9900012    2    1    2    0    0  0.54576547585E+01 -0.60594224138E+01  0.44301364398E+02  0.46142317821E+02  0.10000000544E+02 0.  0.
         12    1    1    2    0    0 -0.54576547585E+01  0.60594224138E+01 -0.44301364398E+02  0.45045682179E+02  0.00000000000E+00 0. -1.
         11    1    3    3    0    0  0.46431042047E+01 -0.39715232918E+01  0.12366424851E+02  0.13793472288E+02  0.51100000000E-03 0. -1.
        -11    1    3    3    0    0  0.26681346906E+01 -0.11658617702E+01  0.22619215091E+02  0.22805856002E+02  0.51100000000E-03 0.  1.
         12    1    3    3    0    0 -0.18535841368E+01 -0.92203735180E+00  0.93157244564E+01  0.95429895305E+01  0.00000000000E+00 0. -1.
</event>
<event>
 7    1  0.2438448E-008  0.4614232E+02  0.7816164E-02  0.1320468E+00
        -11   -1    0    0    0    0  0.00000000000E+00  0.00000000000E+00  0.45593999997E+02  0.45594000000E+02  0.51100000000E-03 0.  1.
         11   -1    0    0    0    0 -0.00000000000E+00 -0.00000000000E+00 -0.45593999997E+02  0.45594000000E+02  0.51100000000E-03 0. -1.
    9900012    2    1    2    0    0  0.25229463507E+02  0.31235738199E+02  0.20418530048E+02  0.46142317199E+02  0.99999948756E+01 0.  0.
         12    1    1    2    0    0 -0.25229463507E+02 -0.31235738199E+02 -0.20418530048E+02  0.45045682801E+02  0.00000000000E+00 0. -1.
         11    1    3    3    0    0  0.13824807877E+02  0.11222339682E+02  0.11593822975E+02  0.21248128204E+02  0.51100000000E-03 0. -1.
        -11    1    3    3    0    0  0.96807451766E+01  0.14403482066E+02  0.73234381596E+01  0.18836397467E+02  0.51100000000E-03 0.  1.
         12    1    3    3    0    0  0.17239104533E+01  0.56099164513E+01  0.15012689139E+01  0.60577915277E+01  0.00000000000E+00 0. -1.
</event>
<event>
 7    1  0.2438448E-008  0.4614232E+02  0.7816164E-02  0.1320468E+00
        -11   -1    0    0    0    0  0.00000000000E+00  0.00000000000E+00  0.45593999997E+02  0.45594000000E+02  0.51100000000E-03 0. -1.
         11   -1    0    0    0    0 -0.00000000000E+00 -0.00000000000E+00 -0.45593999997E+02  0.45594000000E+02  0.51100000000E-03 0.  1.
    9900012    2    1    2    0    0 -0.25033482115E+02 -0.33916799489E+02 -0.15877307494E+02  0.46142318657E+02  0.10000008167E+02 0.  0.
         12    1    1    2    0    0  0.25033482115E+02  0.33916799489E+02  0.15877307494E+02  0.45045681343E+02  0.00000000000E+00 0. -1.
         11    1    3    3    0    0 -0.10415900340E+02 -0.99658114239E+01 -0.62854721158E+01  0.15726269017E+02  0.51100000000E-03 0. -1.
        -11    1    3    3    0    0 -0.80722178597E+01 -0.19029227777E+02 -0.71011771312E+01  0.21856324666E+02  0.51100000000E-03 0.  1.
         12    1    3    3    0    0 -0.65453639157E+01 -0.49217602881E+01 -0.24906582468E+01  0.85597249736E+01  0.00000000000E+00 0. -1.
</event>
<event>
 7    1  0.2438448E-008  0.4614232E+02  0.7816164E-02  0.1320468E+00
        -11   -1    0    0    0    0  0.00000000000E+00  0.00000000000E+00  0.45593999997E+02  0.45594000000E+02  0.51100000000E-03 0. -1.
         11   -1    0    0    0    0 -0.00000000000E+00 -0.00000000000E+00 -0.45593999997E+02  0.45594000000E+02  0.51100000000E-03 0.  1.
    9900012    2    1    2    0    0  0.21613902918E+02 -0.34300313610E+02 -0.19632653887E+02  0.46142318611E+02  0.10000007750E+02 0.  0.
         12    1    1    2    0    0 -0.21613902918E+02  0.34300313610E+02  0.19632653887E+02  0.45045681389E+02  0.00000000000E+00 0. -1.
         11    1    3    3    0    0  0.31502086477E+01 -0.49215014145E+01 -0.22990457624E+01  0.62793791393E+01  0.51100000000E-03 0. -1.
        -11    1    3    3    0    0  0.17897373465E+02 -0.22968588826E+02 -0.11958454306E+02  0.31478193710E+02  0.51100000000E-03 0.  1.
        -12    1    3    3    0    0  0.56632080554E+00 -0.64102233700E+01 -0.53751538186E+01  0.83847457613E+01  0.00000000000E+00 0.  1.
</event>
<event>
 7    1  0.2438448E-008  0.4614232E+02  0.7816164E-02  0.1320468E+00
        -11   -1    0    0    0    0  0.00000000000E+00  0.00000000000E+00  0.45593999997E+02  0.45594000000E+02  0.51100000000E-03 0. -1.
         11   -1    0    0    0    0 -0.00000000000E+00 -0.00000000000E+00 -0.45593999997E+02  0.45594000000E+02  0.51100000000E-03 0.  1.
    9900012    2    1    2    0    0 -0.33348279522E+01 -0.13097650329E+01 -0.44902972815E+02  0.46142317304E+02  0.99999958354E+01 0.  0.
         12    1    1    2    0    0  0.33348279522E+01  0.13097650329E+01  0.44902972815E+02  0.45045682696E+02  0.00000000000E+00 0. -1.
         11    1    3    3    0    0 -0.19114297845E+01 -0.21056259135E+01 -0.42817215130E+01  0.51400742879E+01  0.51100000000E-03 0. -1.
        -11    1    3    3    0    0 -0.22650228158E+00  0.17807217607E+01 -0.44586201738E+01  0.48064089909E+01  0.51100000000E-03 0.  1.
        -12    1    3    3    0    0 -0.11968958861E+01 -0.98486088009E+00 -0.36162631128E+02  0.36195834026E+02  0.00000000000E+00 0.  1.
</event>
<event>
 7    1  0.2438448E-008  0.4614232E+02  0.7816164E-02  0.1320468E+00
        -11   -1    0    0    0    0  0.00000000000E+00  0.00000000000E+00  0.45593999997E+02  0.45594000000E+02  0.51100000000E-03 0. -1.
         11   -1    0    0    0    0 -0.00000000000E+00 -0.00000000000E+00 -0.45593999997E+02  0.45594000000E+02  0.51100000000E-03 0.  1.
    9900012    2    1    2    0    0  0.59728585575E+01  0.21207822704E+02 -0.39289521813E+02  0.46142319769E+02  0.10000018305E+02 0.  0.
         12    1    1    2    0    0 -0.59728585575E+01 -0.21207822704E+02  0.39289521813E+02  0.45045680231E+02  0.00000000000E+00 0. -1.
         11    1    3    3    0    0  0.38839435033E+01  0.28308386040E+01 -0.83847529136E+01  0.96645096111E+01  0.51100000000E-03 0. -1.
        -11    1    3    3    0    0  0.10114090082E+01  0.28039573141E+01 -0.96942069441E+01  0.10142128639E+02  0.51100000000E-03 0.  1.
        -12    1    3    3    0    0  0.10775060460E+01  0.15573026786E+02 -0.21210561956E+02  0.26335681518E+02  0.00000000000E+00 0.  1.
</event>
<event>
 7    1  0.2438448E-008  0.4614232E+02  0.7816164E-02  0.1320468E+00
        -11   -1    0    0    0    0  0.00000000000E+00  0.00000000000E+00  0.45593999997E+02  0.45594000000E+02  0.51100000000E-03 0. -1.
         11   -1    0    0    0    0 -0.00000000000E+00 -0.00000000000E+00 -0.45593999997E+02  0.45594000000E+02  0.51100000000E-03 0.  1.
    9900012    2    1    2    0    0  0.12077618953E+02  0.43154469403E+02  0.45756310541E+01  0.46142317536E+02  0.99999979513E+01 0.  0.
         12    1    1    2    0    0 -0.12077618953E+02 -0.43154469403E+02 -0.45756310541E+01  0.45045682464E+02  0.00000000000E+00 0. -1.
         11    1    3    3    0    0  0.35206610908E+01  0.72990283476E+01  0.32770434288E+01  0.87412746914E+01  0.51100000000E-03 0. -1.
        -11    1    3    3    0    0  0.33834790107E+01  0.24078576611E+02  0.26873452153E+01  0.24463188802E+02  0.51100000000E-03 0.  1.
         12    1    3    3    0    0  0.51734788514E+01  0.11776864445E+02 -0.13887575899E+01  0.12937854043E+02  0.00000000000E+00 0. -1.
</event>
<event>
 7    1  0.2438448E-008  0.4614232E+02  0.7816164E-02  0.1320468E+00
        -11   -1    0    0    0    0  0.00000000000E+00  0.00000000000E+00  0.45593999997E+02  0.45594000000E+02  0.51100000000E-03 0. -1.
         11   -1    0    0    0    0 -0.00000000000E+00 -0.00000000000E+00 -0.45593999997E+02  0.45594000000E+02  0.51100000000E-03 0.  1.
    9900012    2    1    2    0    0  0.22532819853E+02  0.16052023381E+02 -0.35548810114E+02  0.46142319567E+02  0.10000016466E+02 0.  0.
         12    1    1    2    0    0 -0.22532819853E+02 -0.16052023381E+02  0.35548810114E+02  0.45045680433E+02  0.00000000000E+00 0. -1.
         11    1    3    3    0    0  0.24483509239E+01  0.31753702245E+01 -0.92692002879E+01  0.10099280794E+02  0.51100000000E-03 0. -1.
        -11    1    3    3    0    0  0.99180892267E+01  0.44280438162E+01 -0.80237615486E+01  0.13503955554E+02  0.51100000000E-03 0.  1.
        -12    1    3    3    0    0  0.10166379703E+02  0.84486093402E+01 -0.18255848278E+02  0.22539083219E+02  0.00000000000E+00 0.  1.
</event>
<event>
 7    1  0.2438448E-008  0.4614232E+02  0.7816164E-02  0.1320468E+00
        -11   -1    0    0    0    0  0.00000000000E+00  0.00000000000E+00  0.45593999997E+02  0.45594000000E+02  0.51100000000E-03 0.  1.
         11   -1    0    0    0    0 -0.00000000000E+00 -0.00000000000E+00 -0.45593999997E+02  0.45594000000E+02  0.51100000000E-03 0. -1.
    9900012    2    1    2    0    0 -0.26950904076E+01  0.41497350959E+02  0.17315308017E+02  0.46142317181E+02  0.99999947084E+01 0.  0.
         12    1    1    2    0    0  0.26950904076E+01 -0.41497350959E+02 -0.17315308017E+02  0.45045682819E+02  0.00000000000E+00 0. -1.
         11    1    3    3    0    0  0.14734568292E+01  0.12089552847E+02  0.58566210460E+01  0.13514006564E+02  0.51100000000E-03 0. -1.
        -11    1    3    3    0    0  0.93758629757E+00  0.14573760764E+02  0.76417175528E+01  0.16482397225E+02  0.51100000000E-03 0.  1.
         12    1    3    3    0    0 -0.51061335344E+01  0.14834037348E+02  0.38169694177E+01  0.16145913392E+02  0.00000000000E+00 0. -1.
</event>
<event>
 7    1  0.2438448E-008  0.4614232E+02  0.7816164E-02  0.1320468E+00
        -11   -1    0    0    0    0  0.00000000000E+00  0.00000000000E+00  0.45593999997E+02  0.45594000000E+02  0.51100000000E-03 0.  1.
         11   -1    0    0    0    0 -0.00000000000E+00 -0.00000000000E+00 -0.45593999997E+02  0.45594000000E+02  0.51100000000E-03 0. -1.
    9900012    2    1    2    0    0 -0.19365980668E+02  0.40051471893E+02  0.70676644938E+01  0.46142317750E+02  0.99999998966E+01 0.  0.
         12    1    1    2    0    0  0.19365980668E+02 -0.40051471893E+02 -0.70676644938E+01  0.45045682250E+02  0.00000000000E+00 0. -1.
         11    1    3    3    0    0 -0.10380853420E+01  0.50610992313E+01 -0.63766026911E-01  0.51668571659E+01  0.51100000000E-03 0. -1.
        -11    1    3    3    0    0 -0.15494144195E+02  0.33473377875E+02  0.77785775828E+01  0.37696708081E+02  0.51100000000E-03 0.  1.
         12    1    3    3    0    0 -0.28337511306E+01  0.15169947865E+01 -0.64714706214E+00  0.32787525025E+01  0.00000000000E+00 0. -1.
</event>
<event>
 7    1  0.2438448E-008  0.4614232E+02  0.7816164E-02  0.1320468E+00
        -11   -1    0    0    0    0  0.00000000000E+00  0.00000000000E+00  0.45593999997E+02  0.45594000000E+02  0.51100000000E-03 0.  1.
         11   -1    0    0    0    0 -0.00000000000E+00 -0.00000000000E+00 -0.45593999997E+02  0.45594000000E+02  0.51100000000E-03 0. -1.
    9900012    2    1    2    0    0  0.14007707188E+02  0.42806079729E+02  0.73291387337E+00  0.46142317797E+02  0.10000000328E+02 0.  0.
         12    1    1    2    0    0 -0.14007707188E+02 -0.42806079729E+02 -0.73291387337E+00  0.45045682203E+02  0.00000000000E+00 0. -1.
         11    1    3    3    0    0 -0.10101390893E+00  0.18109445849E+01 -0.14275579538E+00  0.18193690054E+01  0.51100000000E-03 0. -1.
        -11    1    3    3    0    0  0.30517339714E+01  0.63204825093E+01  0.34818699210E+01  0.78348578667E+01  0.51100000000E-03 0.  1.
        -12    1    3    3    0    0  0.11056987125E+02  0.34674652634E+02 -0.26062002523E+01  0.36488090925E+02  0.00000000000E+00 0.  1.
</event>
<event>
 7    1  0.2438448E-008  0.4614232E+02  0.7816164E-02  0.1320468E+00
        -11   -1    0    0    0    0  0.00000000000E+00  0.00000000000E+00  0.45593999997E+02  0.45594000000E+02  0.51100000000E-03 0. -1.
         11   -1    0    0    0    0 -0.00000000000E+00 -0.00000000000E+00 -0.45593999997E+02  0.45594000000E+02  0.51100000000E-03 0.  1.
    9900012    2    1    2    0    0  0.26928945403E+02 -0.33689551786E+02 -0.12998440514E+02  0.46142318122E+02  0.10000003292E+02 0.  0.
         12    1    1    2    0    0 -0.26928945403E+02  0.33689551786E+02  0.12998440514E+02  0.45045681878E+02  0.00000000000E+00 0. -1.
         11    1    3    3    0    0  0.51882467288E+01 -0.60407736086E+01  0.79393466273E-02  0.79629713803E+01  0.51100000000E-03 0. -1.
        -11    1    3    3    0    0  0.95452709224E+00 -0.33294427250E+01 -0.32064381142E+01  0.47199106422E+01  0.51100000000E-03 0.  1.
        -12    1    3    3    0    0  0.20786171582E+02 -0.24319335453E+02 -0.97999417462E+01  0.33459436100E+02  0.00000000000E+00 0.  1.
</event>
<event>
 7    1  0.2438448E-008  0.4614232E+02  0.7816164E-02  0.1320468E+00
        -11   -1    0    0    0    0  0.00000000000E+00  0.00000000000E+00  0.45593999997E+02  0.45594000000E+02  0.51100000000E-03 0.  1.
         11   -1    0    0    0    0 -0.00000000000E+00 -0.00000000000E+00 -0.45593999997E+02  0.45594000000E+02  0.51100000000E-03 0. -1.
    9900012    2    1    2    0    0  0.30457811699E+02 -0.33113471575E+02  0.22210837744E+01  0.46142317561E+02  0.99999981746E+01 0.  0.
         12    1    1    2    0    0 -0.30457811699E+02  0.33113471575E+02 -0.22210837744E+01  0.45045682439E+02  0.00000000000E+00 0. -1.
         11    1    3    3    0    0  0.18707618106E+01 -0.21423571178E+01  0.10654608724E+01  0.30372110404E+01  0.51100000000E-03 0. -1.
        -11    1    3    3    0    0  0.24773424084E+02 -0.22931171926E+02  0.33991135042E+01  0.33928088063E+02  0.51100000000E-03 0.  1.
         12    1    3    3    0    0  0.38136258049E+01 -0.80399425315E+01 -0.22434906022E+01  0.91770184576E+01  0.00000000000E+00 0. -1.
</event>
<event>
 7    1  0.2438448E-008  0.4614232E+02  0.7816164E-02  0.1320468E+00
        -11   -1    0    0    0    0  0.00000000000E+00  0.00000000000E+00  0.45593999997E+02  0.45594000000E+02  0.51100000000E-03 0.  1.
         11   -1    0    0    0    0 -0.00000000000E+00 -0.00000000000E+00 -0.45593999997E+02  0.45594000000E+02  0.51100000000E-03 0. -1.
    9900012    2    1    2    0    0  0.42499550763E+01  0.43254802637E+02  0.11835263876E+02  0.46142317185E+02  0.99999947446E+01 0.  0.
         12    1    1    2    0    0 -0.42499550763E+01 -0.43254802637E+02 -0.11835263876E+02  0.45045682815E+02  0.00000000000E+00 0. -1.
         11    1    3    3    0    0  0.10525461048E+01  0.73960719474E+01  0.65548242972E+00  0.74992927020E+01  0.51100000000E-03 0. -1.
        -11    1    3    3    0    0  0.58144050331E+01  0.17978376233E+02  0.64160267941E+01  0.19954816911E+02  0.51100000000E-03 0.  1.
         12    1    3    3    0    0 -0.26169960616E+01  0.17880354456E+02  0.47637546518E+01  0.18688207572E+02  0.00000000000E+00 0. -1.
</event>
<event>
 7    1  0.2438448E-008  0.4614232E+02  0.7816164E-02  0.1320468E+00
        -11   -1    0    0    0    0  0.00000000000E+00  0.00000000000E+00  0.45593999997E+02  0.45594000000E+02  0.51100000000E-03 0.  1.
         11   -1    0    0    0    0 -0.00000000000E+00 -0.00000000000E+00 -0.45593999997E+02  0.45594000000E+02  0.51100000000E-03 0. -1.
    9900012    2    1    2    0    0 -0.32451099816E+02  0.17117333693E+02  0.26134966423E+02  0.46142318054E+02  0.10000002673E+02 0.  0.
         12    1    1    2    0    0  0.32451099816E+02 -0.17117333693E+02 -0.26134966423E+02  0.45045681946E+02  0.00000000000E+00 0. -1.
         11    1    3    3    0    0 -0.79397552630E+01  0.66553443655E+01  0.30017946911E+01  0.10786291943E+02  0.51100000000E-03 0. -1.
        -11    1    3    3    0    0 -0.80333482707E+01  0.35432262926E+01  0.63133877199E+01  0.10814249940E+02  0.51100000000E-03 0.  1.
         12    1    3    3    0    0 -0.16477996282E+02  0.69187630350E+01  0.16819784012E+02  0.24541776171E+02  0.00000000000E+00 0. -1.
</event>
<event>
 7    1  0.2438448E-008  0.4614232E+02  0.7816164E-02  0.1320468E+00
        -11   -1    0    0    0    0  0.00000000000E+00  0.00000000000E+00  0.45593999997E+02  0.45594000000E+02  0.51100000000E-03 0. -1.
         11   -1    0    0    0    0 -0.00000000000E+00 -0.00000000000E+00 -0.45593999997E+02  0.45594000000E+02  0.51100000000E-03 0.  1.
    9900012    2    1    2    0    0 -0.16226141252E+02  0.18506775690E+02 -0.37726975563E+02  0.46142322166E+02  0.10000040171E+02 0.  0.
         12    1    1    2    0    0  0.16226141252E+02 -0.18506775690E+02  0.37726975563E+02  0.45045677834E+02  0.00000000000E+00 0. -1.
         11    1    3    3    0    0 -0.64584870292E+01  0.48206389916E+01 -0.11269503243E+02  0.13854685799E+02  0.51100000000E-03 0. -1.
        -11    1    3    3    0    0 -0.84211193928E+01  0.11001373675E+02 -0.25689875168E+02  0.29187585734E+02  0.51100000000E-03 0.  1.
         12    1    3    3    0    0 -0.13465348299E+01  0.26847630237E+01 -0.76759715197E+00  0.31000506333E+01  0.00000000000E+00 0. -1.
</event>
<event>
 7    1  0.2438448E-008  0.4614232E+02  0.7816164E-02  0.1320468E+00
        -11   -1    0    0    0    0  0.00000000000E+00  0.00000000000E+00  0.45593999997E+02  0.45594000000E+02  0.51100000000E-03 0.  1.
         11   -1    0    0    0    0 -0.00000000000E+00 -0.00000000000E+00 -0.45593999997E+02  0.45594000000E+02  0.51100000000E-03 0. -1.
    9900012    2    1    2    0    0 -0.34603311943E+02  0.45675419700E+01  0.28475636528E+02  0.46142317491E+02  0.99999975350E+01 0.  0.
         12    1    1    2    0    0  0.34603311943E+02 -0.45675419700E+01 -0.28475636528E+02  0.45045682509E+02  0.00000000000E+00 0. -1.
         11    1    3    3    0    0 -0.81225313698E+01 -0.13766498390E+01  0.64333687165E+01  0.10452698883E+02  0.51100000000E-03 0. -1.
        -11    1    3    3    0    0 -0.20762747802E+02  0.50217563819E+01  0.20696972248E+02  0.29743476493E+02  0.51100000000E-03 0.  1.
        -12    1    3    3    0    0 -0.57180327714E+01  0.92243542706E+00  0.13452955635E+01  0.59461421145E+01  0.00000000000E+00 0.  1.
</event>
<event>
 7    1  0.2438448E-008  0.4614232E+02  0.7816164E-02  0.1320468E+00
        -11   -1    0    0    0    0  0.00000000000E+00  0.00000000000E+00  0.45593999997E+02  0.45594000000E+02  0.51100000000E-03 0.  1.
         11   -1    0    0    0    0 -0.00000000000E+00 -0.00000000000E+00 -0.45593999997E+02  0.45594000000E+02  0.51100000000E-03 0. -1.
    9900012    2    1    2    0    0 -0.16197668842E+02  0.40991063223E+02 -0.92995654831E+01  0.46142315876E+02  0.99999828077E+01 0.  0.
         12    1    1    2    0    0  0.16197668842E+02 -0.40991063223E+02  0.92995654831E+01  0.45045684124E+02  0.00000000000E+00 0. -1.
         11    1    3    3    0    0 -0.34901910642E+01  0.10218645159E+02 -0.47287188488E+01  0.11788253678E+02  0.51100000000E-03 0. -1.
        -11    1    3    3    0    0 -0.11931773253E+02  0.28701923823E+02 -0.60863352820E+01  0.31673508198E+02  0.51100000000E-03 0.  1.
        -12    1    3    3    0    0 -0.77570452478E+00  0.20704942401E+01  0.15154886476E+01  0.26805540004E+01  0.00000000000E+00 0.  1.
</event>
<event>
 7    1  0.2438448E-008  0.4614232E+02  0.7816164E-02  0.1320468E+00
        -11   -1    0    0    0    0  0.00000000000E+00  0.00000000000E+00  0.45593999997E+02  0.45594000000E+02  0.51100000000E-03 0. -1.
         11   -1    0    0    0    0 -0.00000000000E+00 -0.00000000000E+00 -0.45593999997E+02  0.45594000000E+02  0.51100000000E-03 0.  1.
    9900012    2    1    2    0    0 -0.35771867955E+02  0.47761821086E+01 -0.26956912421E+02  0.46142316746E+02  0.99999907457E+01 0.  0.
         12    1    1    2    0    0  0.35771867955E+02 -0.47761821086E+01  0.26956912421E+02  0.45045683254E+02  0.00000000000E+00 0. -1.
         11    1    3    3    0    0 -0.49678597336E+00  0.80802056870E+00 -0.35411574847E+00  0.10124681561E+01  0.51100000000E-03 0. -1.
        -11    1    3    3    0    0 -0.10659244387E+02 -0.18946677933E+01 -0.10823528453E+02  0.15308756494E+02  0.51100000000E-03 0.  1.
        -12    1    3    3    0    0 -0.24615837595E+02  0.58628293332E+01 -0.15779268219E+02  0.29821092097E+02  0.00000000000E+00 0.  1.
</event>
<event>
 7    1  0.2438448E-008  0.4614232E+02  0.7816164E-02  0.1320468E+00
        -11   -1    0    0    0    0  0.00000000000E+00  0.00000000000E+00  0.45593999997E+02  0.45594000000E+02  0.51100000000E-03 0. -1.
         11   -1    0    0    0    0 -0.00000000000E+00 -0.00000000000E+00 -0.45593999997E+02  0.45594000000E+02  0.51100000000E-03 0.  1.
    9900012    2    1    2    0    0 -0.23901302907E+02  0.22119291347E+02 -0.31121989042E+02  0.46142317274E+02  0.99999955561E+01 0.  0.
         12    1    1    2    0    0  0.23901302907E+02 -0.22119291347E+02  0.31121989042E+02  0.45045682726E+02  0.00000000000E+00 0. -1.
         11    1    3    3    0    0 -0.84009222619E+01  0.95253844447E+01 -0.73214582925E+01  0.14659883883E+02  0.51100000000E-03 0. -1.
        -11    1    3    3    0    0 -0.12476444918E+00 -0.32054043057E+00 -0.12096458244E+01  0.12575991479E+01  0.51100000000E-03 0.  1.
        -12    1    3    3    0    0 -0.15375616196E+02  0.12914447333E+02 -0.22590884925E+02  0.30224834243E+02  0.00000000000E+00 0.  1.
</event>
<event>
 7    1  0.2438448E-008  0.4614231E+02  0.7816164E-02  0.1320468E+00
        -11   -1    0    0    0    0  0.00000000000E+00  0.00000000000E+00  0.45593999997E+02  0.45594000000E+02  0.51100000000E-03 0.  1.
         11   -1    0    0    0    0 -0.00000000000E+00 -0.00000000000E+00 -0.45593999997E+02  0.45594000000E+02  0.51100000000E-03 0. -1.
    9900012    2    1    2    0    0 -0.41375064831E+02  0.17007780037E+02  0.52870797915E+01  0.46142314477E+02  0.99999700506E+01 0.  0.
         12    1    1    2    0    0  0.41375064831E+02 -0.17007780037E+02 -0.52870797915E+01  0.45045685523E+02  0.00000000000E+00 0. -1.
         11    1    3    3    0    0 -0.74053867247E+01  0.53481164590E+01  0.34134734736E+01  0.97516103089E+01  0.51100000000E-03 0. -1.
        -11    1    3    3    0    0 -0.22397225490E+02  0.58369686020E+01 -0.81600254833E+00  0.23159701478E+02  0.51100000000E-03 0.  1.
        -12    1    3    3    0    0 -0.11572452616E+02  0.58226949764E+01  0.26896088663E+01  0.13231002690E+02  0.00000000000E+00 0.  1.
</event>
<event>
 7    1  0.2438448E-008  0.4614232E+02  0.7816164E-02  0.1320468E+00
        -11   -1    0    0    0    0  0.00000000000E+00  0.00000000000E+00  0.45593999997E+02  0.45594000000E+02  0.51100000000E-03 0.  1.
         11   -1    0    0    0    0 -0.00000000000E+00 -0.00000000000E+00 -0.45593999997E+02  0.45594000000E+02  0.51100000000E-03 0. -1.
    9900012    2    1    2    0    0  0.21086157996E+01 -0.40038034956E+02  0.20533458555E+02  0.46142318476E+02  0.10000006518E+02 0.  0.
         12    1    1    2    0    0 -0.21086157996E+01  0.40038034956E+02 -0.20533458555E+02  0.45045681524E+02  0.00000000000E+00 0. -1.
         11    1    3    3    0    0 -0.57605217827E+00  0.35133763188E+00  0.64991972535E+00  0.93684051694E+00  0.51100000000E-03 0. -1.
        -11    1    3    3    0    0  0.17571053516E+01 -0.26439491648E+02  0.14645075617E+02  0.30275606978E+02  0.51100000000E-03 0.  1.
         12    1    3    3    0    0  0.92756262636E+00 -0.13949880940E+02  0.52384632135E+01  0.14929870981E+02  0.00000000000E+00 0. -1.
</event>
<event>
 7    1  0.2438448E-008  0.4614232E+02  0.7816164E-02  0.1320468E+00
        -11   -1    0    0    0    0  0.00000000000E+00  0.00000000000E+00  0.45593999997E+02  0.45594000000E+02  0.51100000000E-03 0.  1.
         11   -1    0    0    0    0 -0.00000000000E+00 -0.00000000000E+00 -0.45593999997E+02  0.45594000000E+02  0.51100000000E-03 0. -1.
    9900012    2    1    2    0    0  0.35601445436E+02 -0.23616106005E+02  0.14280406874E+02  0.46142318737E+02  0.10000008897E+02 0.  0.
         12    1    1    2    0    0 -0.35601445436E+02  0.23616106005E+02 -0.14280406874E+02  0.45045681263E+02  0.00000000000E+00 0. -1.
         11    1    3    3    0    0  0.27680451685E+01 -0.70068472588E-01 -0.30068434628E+00  0.27852100428E+01  0.51100000000E-03 0. -1.
        -11    1    3    3    0    0  0.36326652289E+01 -0.86178301637E+00  0.23442128212E+01  0.44084306329E+01  0.51100000000E-03 0.  1.
        -12    1    3    3    0    0  0.29200735039E+02 -0.22684254516E+02  0.12236878399E+02  0.38948678061E+02  0.00000000000E+00 0.  1.
</event>
<event>
 7    1  0.2438448E-008  0.4614232E+02  0.7816164E-02  0.1320468E+00
        -11   -1    0    0    0    0  0.00000000000E+00  0.00000000000E+00  0.45593999997E+02  0.45594000000E+02  0.51100000000E-03 0.  1.
         11   -1    0    0    0    0 -0.00000000000E+00 -0.00000000000E+00 -0.45593999997E+02  0.45594000000E+02  0.51100000000E-03 0. -1.
    9900012    2    1    2    0    0 -0.21142059862E+02 -0.54186506061E+01  0.39405139241E+02  0.46142317985E+02  0.10000002042E+02 0.  0.
         12    1    1    2    0    0  0.21142059862E+02  0.54186506061E+01 -0.39405139241E+02  0.45045682015E+02  0.00000000000E+00 0. -1.
         11    1    3    3    0    0 -0.29628940135E+01 -0.23856387200E+01  0.10912642003E+02  0.11556633107E+02  0.51100000000E-03 0. -1.
        -11    1    3    3    0    0 -0.12622896012E+02 -0.49820779054E+01  0.21725637881E+02  0.25615658211E+02  0.51100000000E-03 0.  1.
         12    1    3    3    0    0 -0.55562698363E+01  0.19490660193E+01  0.67668593576E+01  0.89700266670E+01  0.00000000000E+00 0. -1.
</event>
<event>
 7    1  0.2438448E-008  0.4614232E+02  0.7816164E-02  0.1320468E+00
        -11   -1    0    0    0    0  0.00000000000E+00  0.00000000000E+00  0.45593999997E+02  0.45594000000E+02  0.51100000000E-03 0.  1.
         11   -1    0    0    0    0 -0.00000000000E+00 -0.00000000000E+00 -0.45593999997E+02  0.45594000000E+02  0.51100000000E-03 0. -1.
    9900012    2    1    2    0    0 -0.95839372465E+01 -0.29600668025E+02  0.32573950550E+02  0.46142315910E+02  0.99999831228E+01 0.  0.
         12    1    1    2    0    0  0.95839372465E+01  0.29600668025E+02 -0.32573950550E+02  0.45045684090E+02  0.00000000000E+00 0. -1.
         11    1    3    3    0    0 -0.10144553311E+01 -0.12700269773E+02  0.11799020441E+02  0.17364989363E+02  0.51100000000E-03 0. -1.
        -11    1    3    3    0    0 -0.61920690901E+01 -0.70032436080E+01  0.12781028686E+02  0.15834829812E+02  0.51100000000E-03 0.  1.
        -12    1    3    3    0    0 -0.23774128253E+01 -0.98971546443E+01  0.79939014224E+01  0.12942496735E+02  0.00000000000E+00 0.  1.
</event>
<event>
 7    1  0.2438448E-008  0.4614232E+02  0.7816164E-02  0.1320468E+00
        -11   -1    0    0    0    0  0.00000000000E+00  0.00000000000E+00  0.45593999997E+02  0.45594000000E+02  0.51100000000E-03 0.  1.
         11   -1    0    0    0    0 -0.00000000000E+00 -0.00000000000E+00 -0.45593999997E+02  0.45594000000E+02  0.51100000000E-03 0. -1.
    9900012    2    1    2    0    0  0.66760525073E+01  0.42478565049E+02  0.13420705079E+02  0.46142317737E+02  0.99999997797E+01 0.  0.
         12    1    1    2    0    0 -0.66760525073E+01 -0.42478565049E+02 -0.13420705079E+02  0.45045682263E+02  0.00000000000E+00 0. -1.
         11    1    3    3    0    0  0.32037776333E+01  0.87377742583E+01  0.16560210422E+01  0.94527930299E+01  0.51100000000E-03 0. -1.
        -11    1    3    3    0    0  0.87160335640E+00  0.21619262201E+02  0.10990103231E+02  0.24267973954E+02  0.51100000000E-03 0.  1.
        -12    1    3    3    0    0  0.26006715176E+01  0.12121528590E+02  0.77458080631E+00  0.12421550753E+02  0.00000000000E+00 0.  1.
</event>
<event>
 7    1  0.2438448E-008  0.4614232E+02  0.7816164E-02  0.1320468E+00
        -11   -1    0    0    0    0  0.00000000000E+00  0.00000000000E+00  0.45593999997E+02  0.45594000000E+02  0.51100000000E-03 0.  1.
         11   -1    0    0    0    0 -0.00000000000E+00 -0.00000000000E+00 -0.45593999997E+02  0.45594000000E+02  0.51100000000E-03 0. -1.
    9900012    2    1    2    0    0 -0.73654893362E+01 -0.13046752467E+02  0.42481117257E+02  0.46142317560E+02  0.99999981628E+01 0.  0.
         12    1    1    2    0    0  0.73654893362E+01  0.13046752467E+02 -0.42481117257E+02  0.45045682440E+02  0.00000000000E+00 0. -1.
         11    1    3    3    0    0  0.65108974257E+00  0.44077067263E+00  0.40434984732E+01  0.41192325502E+01  0.51100000000E-03 0. -1.
        -11    1    3    3    0    0 -0.82132318227E+01 -0.14106420281E+02  0.36632727423E+02  0.40104924746E+02  0.51100000000E-03 0.  1.
        -12    1    3    3    0    0  0.19665274394E+00  0.61889714156E+00  0.18048913605E+01  0.19181602636E+01  0.00000000000E+00 0.  1.
</event>
<event>
 7    1  0.2438448E-008  0.4614232E+02  0.7816164E-02  0.1320468E+00
        -11   -1    0    0    0    0  0.00000000000E+00  0.00000000000E+00  0.45593999997E+02  0.45594000000E+02  0.51100000000E-03 0. -1.
         11   -1    0    0    0    0 -0.00000000000E+00 -0.00000000000E+00 -0.45593999997E+02  0.45594000000E+02  0.51100000000E-03 0.  1.
    9900012    2    1    2    0    0 -0.30111603113E+02 -0.35440293217E+01 -0.33314331451E+02  0.46142318011E+02  0.10000002279E+02 0.  0.
         12    1    1    2    0    0  0.30111603113E+02  0.35440293217E+01  0.33314331451E+02  0.45045681989E+02  0.00000000000E+00 0. -1.
         11    1    3    3    0    0 -0.46276166313E+00  0.10644607816E+01 -0.22092872485E+01  0.24956312869E+01  0.51100000000E-03 0. -1.
        -11    1    3    3    0    0 -0.98296016465E+01  0.13222771863E+01 -0.94882256549E+01  0.13725739027E+02  0.51100000000E-03 0.  1.
        -12    1    3    3    0    0 -0.19819239803E+02 -0.59307672897E+01 -0.21616818547E+02  0.29920947698E+02  0.00000000000E+00 0.  1.
</event>
<event>
 7    1  0.2438448E-008  0.4614232E+02  0.7816164E-02  0.1320468E+00
        -11   -1    0    0    0    0  0.00000000000E+00  0.00000000000E+00  0.45593999997E+02  0.45594000000E+02  0.51100000000E-03 0.  1.
         11   -1    0    0    0    0 -0.00000000000E+00 -0.00000000000E+00 -0.45593999997E+02  0.45594000000E+02  0.51100000000E-03 0. -1.
    9900012    2    1    2    0    0 -0.22396172334E+02  0.38555383025E+02  0.64037025874E+01  0.46142317607E+02  0.99999985919E+01 0.  0.
         12    1    1    2    0    0  0.22396172334E+02 -0.38555383025E+02 -0.64037025874E+01  0.45045682393E+02  0.00000000000E+00 0. -1.
         11    1    3    3    0    0 -0.34047270888E+01  0.55046107181E+01 -0.32788121320E+00  0.64807724893E+01  0.51100000000E-03 0. -1.
        -11    1    3    3    0    0 -0.13940804498E+02  0.19452548762E+02  0.67395111312E+00  0.23941635152E+02  0.51100000000E-03 0.  1.
        -12    1    3    3    0    0 -0.50506407478E+01  0.13598223545E+02  0.60576326875E+01  0.15719909966E+02  0.00000000000E+00 0.  1.
</event>
<event>
 7    1  0.2438448E-008  0.4614232E+02  0.7816164E-02  0.1320468E+00
        -11   -1    0    0    0    0  0.00000000000E+00  0.00000000000E+00  0.45593999997E+02  0.45594000000E+02  0.51100000000E-03 0. -1.
         11   -1    0    0    0    0 -0.00000000000E+00 -0.00000000000E+00 -0.45593999997E+02  0.45594000000E+02  0.51100000000E-03 0.  1.
    9900012    2    1    2    0    0 -0.16355752324E+02 -0.39344727225E+01 -0.41786633326E+02  0.46142318360E+02  0.10000005464E+02 0.  0.
         12    1    1    2    0    0  0.16355752324E+02  0.39344727225E+01  0.41786633326E+02  0.45045681640E+02  0.00000000000E+00 0. -1.
         11    1    3    3    0    0 -0.23183724179E+01 -0.15723896620E+01 -0.43693887932E+01  0.51902619013E+01  0.51100000000E-03 0. -1.
        -11    1    3    3    0    0 -0.79105040764E+01  0.30312851881E+01 -0.18346273746E+02  0.20207684807E+02  0.51100000000E-03 0.  1.
        -12    1    3    3    0    0 -0.61268758301E+01 -0.53933682486E+01 -0.19070970787E+02  0.20744371652E+02  0.00000000000E+00 0.  1.
</event>
<event>
 7    1  0.2438448E-008  0.4614232E+02  0.7816164E-02  0.1320468E+00
        -11   -1    0    0    0    0  0.00000000000E+00  0.00000000000E+00  0.45593999997E+02  0.45594000000E+02  0.51100000000E-03 0. -1.
         11   -1    0    0    0    0 -0.00000000000E+00 -0.00000000000E+00 -0.45593999997E+02  0.45594000000E+02  0.51100000000E-03 0.  1.
    9900012    2    1    2    0    0 -0.11888253715E+02  0.24728808237E+02 -0.35724906920E+02  0.46142317547E+02  0.99999980489E+01 0.  0.
         12    1    1    2    0    0  0.11888253715E+02 -0.24728808237E+02  0.35724906920E+02  0.45045682453E+02  0.00000000000E+00 0. -1.
         11    1    3    3    0    0 -0.77008887716E+00  0.32936495199E+01 -0.78756713001E+01  0.85713104440E+01  0.51100000000E-03 0.  1.
        -11    1    3    3    0    0 -0.30863484994E+01  0.11849928554E+02 -0.17386905223E+02  0.21266189769E+02  0.51100000000E-03 0. -1.
         12    1    3    3    0    0 -0.80318163384E+01  0.95852301627E+01 -0.10462330397E+02  0.16304817334E+02  0.00000000000E+00 0. -1.
</event>
<event>
 7    1  0.2438448E-008  0.4614232E+02  0.7816164E-02  0.1320468E+00
        -11   -1    0    0    0    0  0.00000000000E+00  0.00000000000E+00  0.45593999997E+02  0.45594000000E+02  0.51100000000E-03 0.  1.
         11   -1    0    0    0    0 -0.00000000000E+00 -0.00000000000E+00 -0.45593999997E+02  0.45594000000E+02  0.51100000000E-03 0. -1.
    9900012    2    1    2    0    0  0.23469268860E+02 -0.30544610521E+02  0.23352379534E+02  0.46142318269E+02  0.10000004631E+02 0.  0.
         12    1    1    2    0    0 -0.23469268860E+02  0.30544610521E+02 -0.23352379534E+02  0.45045681731E+02  0.00000000000E+00 0. -1.
         11    1    3    3    0    0  0.42817135921E+01 -0.40853931258E+01  0.55586075915E+01  0.81192134407E+01  0.51100000000E-03 0. -1.
        -11    1    3    3    0    0  0.17190064809E+02 -0.25189879984E+02  0.18350662751E+02  0.35591785645E+02  0.51100000000E-03 0.  1.
         12    1    3    3    0    0  0.19974904586E+01 -0.12693374120E+01 -0.55689080903E+00  0.24313191833E+01  0.00000000000E+00 0. -1.
</event>
<event>
 7    1  0.2438448E-008  0.4614232E+02  0.7816164E-02  0.1320468E+00
        -11   -1    0    0    0    0  0.00000000000E+00  0.00000000000E+00  0.45593999997E+02  0.45594000000E+02  0.51100000000E-03 0.  1.
         11   -1    0    0    0    0 -0.00000000000E+00 -0.00000000000E+00 -0.45593999997E+02  0.45594000000E+02  0.51100000000E-03 0. -1.
    9900012    2    1    2    0    0 -0.23069507977E+02 -0.31250267808E+02  0.22810787517E+02  0.46142318037E+02  0.10000002516E+02 0.  0.
         12    1    1    2    0    0  0.23069507977E+02  0.31250267808E+02 -0.22810787517E+02  0.45045681963E+02  0.00000000000E+00 0. -1.
         11    1    3    3    0    0 -0.11594867136E+02 -0.17984030764E+02  0.11793857845E+02  0.24432793323E+02  0.51100000000E-03 0. -1.
        -11    1    3    3    0    0 -0.10996967501E+02 -0.13354935716E+02  0.87419039577E+01  0.19383201161E+02  0.51100000000E-03 0.  1.
         12    1    3    3    0    0 -0.47767333941E+00  0.88698671590E-01  0.22750257140E+01  0.23263235529E+01  0.00000000000E+00 0. -1.
</event>
<event>
 7    1  0.2438448E-008  0.4614232E+02  0.7816164E-02  0.1320468E+00
        -11   -1    0    0    0    0  0.00000000000E+00  0.00000000000E+00  0.45593999997E+02  0.45594000000E+02  0.51100000000E-03 0.  1.
         11   -1    0    0    0    0 -0.00000000000E+00 -0.00000000000E+00 -0.45593999997E+02  0.45594000000E+02  0.51100000000E-03 0. -1.
    9900012    2    1    2    0    0 -0.18685440057E+02  0.37835400914E+02  0.15762302790E+02  0.46142318501E+02  0.10000006751E+02 0.  0.
         12    1    1    2    0    0  0.18685440057E+02 -0.37835400914E+02 -0.15762302790E+02  0.45045681499E+02  0.00000000000E+00 0. -1.
         11    1    3    3    0    0 -0.84847710669E+01  0.24524000960E+02  0.11608293872E+02  0.28428338855E+02  0.51100000000E-03 0. -1.
        -11    1    3    3    0    0 -0.27884187204E+01  0.61893752326E+01  0.50909806219E+00  0.68075565240E+01  0.51100000000E-03 0.  1.
         12    1    3    3    0    0 -0.74122502699E+01  0.71220247208E+01  0.36449108552E+01  0.10906423123E+02  0.00000000000E+00 0. -1.
</event>
<event>
 7    1  0.2438448E-008  0.4614232E+02  0.7816164E-02  0.1320468E+00
        -11   -1    0    0    0    0  0.00000000000E+00  0.00000000000E+00  0.45593999997E+02  0.45594000000E+02  0.51100000000E-03 0. -1.
         11   -1    0    0    0    0 -0.00000000000E+00 -0.00000000000E+00 -0.45593999997E+02  0.45594000000E+02  0.51100000000E-03 0.  1.
    9900012    2    1    2    0    0 -0.44342631590E+02 -0.79139601008E+01 -0.46237584255E+00  0.46142317275E+02  0.99999955631E+01 0.  0.
         12    1    1    2    0    0  0.44342631590E+02  0.79139601008E+01  0.46237584255E+00  0.45045682725E+02  0.00000000000E+00 0. -1.
         11    1    3    3    0    0 -0.15569918891E+02 -0.25603100089E+01  0.20527722451E+01  0.15911990314E+02  0.51100000000E-03 0. -1.
        -11    1    3    3    0    0 -0.12118361862E+02 -0.10800019706E+01  0.22845746524E+01  0.12379029852E+02  0.51100000000E-03 0.  1.
         12    1    3    3    0    0 -0.16654350837E+02 -0.42736481214E+01 -0.47997227401E+01  0.17851297108E+02  0.00000000000E+00 0. -1.
</event>
<event>
 7    1  0.2438448E-008  0.4614232E+02  0.7816164E-02  0.1320468E+00
        -11   -1    0    0    0    0  0.00000000000E+00  0.00000000000E+00  0.45593999997E+02  0.45594000000E+02  0.51100000000E-03 0.  1.
         11   -1    0    0    0    0 -0.00000000000E+00 -0.00000000000E+00 -0.45593999997E+02  0.45594000000E+02  0.51100000000E-03 0. -1.
    9900012    2    1    2    0    0 -0.29864188667E+02 -0.29679922387E+02  0.16010802870E+02  0.46142319117E+02  0.10000012368E+02 0.  0.
         12    1    1    2    0    0  0.29864188667E+02  0.29679922387E+02 -0.16010802870E+02  0.45045680883E+02  0.00000000000E+00 0. -1.
         11    1    3    3    0    0 -0.25871126996E+01 -0.17982701808E+01  0.21688470890E+01  0.38250262378E+01  0.51100000000E-03 0. -1.
        -11    1    3    3    0    0 -0.14085931042E+02 -0.10678753778E+02  0.99759947330E+01  0.20297036896E+02  0.51100000000E-03 0.  1.
         12    1    3    3    0    0 -0.13191144925E+02 -0.17202898428E+02  0.38659610483E+01  0.22020255984E+02  0.00000000000E+00 0. -1.
</event>
<event>
 7    1  0.2438448E-008  0.4614232E+02  0.7816164E-02  0.1320468E+00
        -11   -1    0    0    0    0  0.00000000000E+00  0.00000000000E+00  0.45593999997E+02  0.45594000000E+02  0.51100000000E-03 0.  1.
         11   -1    0    0    0    0 -0.00000000000E+00 -0.00000000000E+00 -0.45593999997E+02  0.45594000000E+02  0.51100000000E-03 0. -1.
    9900012    2    1    2    0    0 -0.31472453053E+02 -0.25362064288E+01  0.32127337930E+02  0.46142317779E+02  0.10000000168E+02 0.  0.
         12    1    1    2    0    0  0.31472453053E+02  0.25362064288E+01 -0.32127337930E+02  0.45045682221E+02  0.00000000000E+00 0. -1.
         11    1    3    3    0    0 -0.91703962161E+01 -0.20797552774E+01  0.58534825097E+01  0.11076317372E+02  0.51100000000E-03 0. -1.
        -11    1    3    3    0    0 -0.43484246353E+01  0.17549250239E+01  0.29134165719E+01  0.55205574927E+01  0.51100000000E-03 0.  1.
        -12    1    3    3    0    0 -0.17953632202E+02 -0.22113761753E+01  0.23360438849E+02  0.29545442915E+02  0.00000000000E+00 0.  1.
</event>
<event>
 7    1  0.2438448E-008  0.4614232E+02  0.7816164E-02  0.1320468E+00
        -11   -1    0    0    0    0  0.00000000000E+00  0.00000000000E+00  0.45593999997E+02  0.45594000000E+02  0.51100000000E-03 0.  1.
         11   -1    0    0    0    0 -0.00000000000E+00 -0.00000000000E+00 -0.45593999997E+02  0.45594000000E+02  0.51100000000E-03 0. -1.
    9900012    2    1    2    0    0  0.14744766752E+02  0.34338044779E+02  0.25151620274E+02  0.46142317984E+02  0.10000002036E+02 0.  0.
         12    1    1    2    0    0 -0.14744766752E+02 -0.34338044779E+02 -0.25151620274E+02  0.45045682016E+02  0.00000000000E+00 0. -1.
         11    1    3    3    0    0  0.10020306228E+02  0.18096471644E+02  0.17643653950E+02  0.27188000071E+02  0.51100000000E-03 0. -1.
        -11    1    3    3    0    0  0.44446921257E+01  0.84975922946E+01  0.33352794477E+01  0.10153248355E+02  0.51100000000E-03 0.  1.
         12    1    3    3    0    0  0.27976839846E+00  0.77439808405E+01  0.41726868765E+01  0.88010695591E+01  0.00000000000E+00 0. -1.
</event>
<event>
 7    1  0.2438448E-008  0.4614232E+02  0.7816164E-02  0.1320468E+00
        -11   -1    0    0    0    0  0.00000000000E+00  0.00000000000E+00  0.45593999997E+02  0.45594000000E+02  0.51100000000E-03 0.  1.
         11   -1    0    0    0    0 -0.00000000000E+00 -0.00000000000E+00 -0.45593999997E+02  0.45594000000E+02  0.51100000000E-03 0. -1.
    9900012    2    1    2    0    0 -0.17029265599E+02  0.30264499722E+02  0.28691065582E+02  0.46142322355E+02  0.10000041889E+02 0.  0.
         12    1    1    2    0    0  0.17029265599E+02 -0.30264499722E+02 -0.28691065582E+02  0.45045677645E+02  0.00000000000E+00 0. -1.
         11    1    3    3    0    0 -0.91917377729E+00  0.14636403634E+01  0.38847510194E+01  0.42518718572E+01  0.51100000000E-03 0. -1.
        -11    1    3    3    0    0 -0.89816116692E+01  0.19901738555E+02  0.12697520062E+02  0.25258178114E+02  0.51100000000E-03 0.  1.
        -12    1    3    3    0    0 -0.71284801524E+01  0.88991208044E+01  0.12108794500E+02  0.16632272383E+02  0.00000000000E+00 0.  1.
</event>
<event>
 7    1  0.2438448E-008  0.4614231E+02  0.7816164E-02  0.1320468E+00
        -11   -1    0    0    0    0  0.00000000000E+00  0.00000000000E+00  0.45593999997E+02  0.45594000000E+02  0.51100000000E-03 0.  1.
         11   -1    0    0    0    0 -0.00000000000E+00 -0.00000000000E+00 -0.45593999997E+02  0.45594000000E+02  0.51100000000E-03 0. -1.
    9900012    2    1    2    0    0  0.16029573868E+02 -0.42002064707E+02 -0.28272594631E+01  0.46142311259E+02  0.99999407100E+01 0.  0.
         12    1    1    2    0    0 -0.16029573868E+02  0.42002064707E+02  0.28272594631E+01  0.45045688741E+02  0.00000000000E+00 0. -1.
         11    1    3    3    0    0  0.48105509302E+01 -0.10715610508E+02  0.73939620627E+00  0.11769129782E+02  0.51100000000E-03 0.  1.
        -11    1    3    3    0    0  0.71054503950E+01 -0.17027514093E+02  0.19217106138E+01  0.18550380951E+02  0.51100000000E-03 0. -1.
        -12    1    3    3    0    0  0.41135725423E+01 -0.14258940106E+02 -0.54883662832E+01  0.15822800526E+02  0.00000000000E+00 0.  1.
</event>
<event>
 7    1  0.2438448E-008  0.4614232E+02  0.7816164E-02  0.1320468E+00
        -11   -1    0    0    0    0  0.00000000000E+00  0.00000000000E+00  0.45593999997E+02  0.45594000000E+02  0.51100000000E-03 0.  1.
         11   -1    0    0    0    0 -0.00000000000E+00 -0.00000000000E+00 -0.45593999997E+02  0.45594000000E+02  0.51100000000E-03 0. -1.
    9900012    2    1    2    0    0 -0.20682656016E+02  0.37355044420E+02  0.14350676032E+02  0.46142317564E+02  0.99999982053E+01 0.  0.
         12    1    1    2    0    0  0.20682656016E+02 -0.37355044420E+02 -0.14350676032E+02  0.45045682436E+02  0.00000000000E+00 0. -1.
         11    1    3    3    0    0 -0.37614820183E+01  0.53772515555E+01 -0.39523934667E+00  0.65741764251E+01  0.51100000000E-03 0. -1.
        -11    1    3    3    0    0 -0.87734717163E+01  0.22191098356E+02  0.80713532474E+01  0.25190581488E+02  0.51100000000E-03 0.  1.
        -12    1    3    3    0    0 -0.81477022817E+01  0.97866945085E+01  0.66745621314E+01  0.14377559651E+02  0.00000000000E+00 0.  1.
</event>
<event>
 7    1  0.2438448E-008  0.4614232E+02  0.7816164E-02  0.1320468E+00
        -11   -1    0    0    0    0  0.00000000000E+00  0.00000000000E+00  0.45593999997E+02  0.45594000000E+02  0.51100000000E-03 0.  1.
         11   -1    0    0    0    0 -0.00000000000E+00 -0.00000000000E+00 -0.45593999997E+02  0.45594000000E+02  0.51100000000E-03 0. -1.
    9900012    2    1    2    0    0  0.10515064644E+02  0.27563957714E+02  0.34040786453E+02  0.46142317725E+02  0.99999996700E+01 0.  0.
         12    1    1    2    0    0 -0.10515064644E+02 -0.27563957714E+02 -0.34040786453E+02  0.45045682275E+02  0.00000000000E+00 0. -1.
         11    1    3    3    0    0  0.36746099098E+01  0.43702036569E+01  0.73448261322E+01  0.93031128751E+01  0.51100000000E-03 0. -1.
        -11    1    3    3    0    0  0.40601345770E+01  0.51080132209E+01  0.10712104047E+02  0.12542952811E+02  0.51100000000E-03 0.  1.
         12    1    3    3    0    0  0.27803201569E+01  0.18085740836E+02  0.15983856274E+02  0.24296252039E+02  0.00000000000E+00 0. -1.
</event>
<event>
 7    1  0.2438448E-008  0.4614231E+02  0.7816164E-02  0.1320468E+00
        -11   -1    0    0    0    0  0.00000000000E+00  0.00000000000E+00  0.45593999997E+02  0.45594000000E+02  0.51100000000E-03 0.  1.
         11   -1    0    0    0    0 -0.00000000000E+00 -0.00000000000E+00 -0.45593999997E+02  0.45594000000E+02  0.51100000000E-03 0. -1.
    9900012    2    1    2    0    0 -0.37297937190E+02 -0.85719738910E+01  0.23759186723E+02  0.46142314205E+02  0.99999675700E+01 0.  0.
         12    1    1    2    0    0  0.37297937190E+02  0.85719738910E+01 -0.23759186723E+02  0.45045685795E+02  0.00000000000E+00 0. -1.
         11    1    3    3    0    0 -0.23951010347E+00 -0.12496502671E+01  0.10120231860E+01  0.16257866003E+01  0.51100000000E-03 0. -1.
        -11    1    3    3    0    0 -0.15483906203E+02 -0.34797218850E-01  0.97069512446E+01  0.18275050339E+02  0.51100000000E-03 0.  1.
        -12    1    3    3    0    0 -0.21574520883E+02 -0.72875264051E+01  0.13040212293E+02  0.26241477266E+02  0.00000000000E+00 0.  1.
</event>
<event>
 7    1  0.2438448E-008  0.4614232E+02  0.7816164E-02  0.1320468E+00
        -11   -1    0    0    0    0  0.00000000000E+00  0.00000000000E+00  0.45593999997E+02  0.45594000000E+02  0.51100000000E-03 0. -1.
         11   -1    0    0    0    0 -0.00000000000E+00 -0.00000000000E+00 -0.45593999997E+02  0.45594000000E+02  0.51100000000E-03 0.  1.
    9900012    2    1    2    0    0  0.38684935622E+02 -0.17593654011E+02  0.14934946872E+02  0.46142317148E+02  0.99999944089E+01 0.  0.
         12    1    1    2    0    0 -0.38684935622E+02  0.17593654011E+02 -0.14934946872E+02  0.45045682852E+02  0.00000000000E+00 0. -1.
         11    1    3    3    0    0  0.97350730182E+01 -0.10101022016E+01  0.44353491111E+01  0.10745430430E+02  0.51100000000E-03 0.  1.
        -11    1    3    3    0    0  0.11187646929E+02 -0.64141926550E+01  0.13136521284E+01  0.12962676938E+02  0.51100000000E-03 0. -1.
         12    1    3    3    0    0  0.17762215675E+02 -0.10169359154E+02  0.91859456329E+01  0.22434209780E+02  0.00000000000E+00 0. -1.
</event>
<event>
 7    1  0.2438448E-008  0.4614233E+02  0.7816164E-02  0.1320468E+00
        -11   -1    0    0    0    0  0.00000000000E+00  0.00000000000E+00  0.45593999997E+02  0.45594000000E+02  0.51100000000E-03 0.  1.
         11   -1    0    0    0    0 -0.00000000000E+00 -0.00000000000E+00 -0.45593999997E+02  0.45594000000E+02  0.51100000000E-03 0. -1.
    9900012    2    1    2    0    0  0.30660703544E+02 -0.22693973318E+02  0.23958649163E+02  0.46142333877E+02  0.10000146956E+02 0.  0.
         12    1    1    2    0    0 -0.30660703544E+02  0.22693973318E+02 -0.23958649163E+02  0.45045666123E+02  0.00000000000E+00 0. -1.
         11    1    3    3    0    0  0.11047710131E+01 -0.21260639669E+01  0.34692442880E+00  0.24209551428E+01  0.51100000000E-03 0. -1.
        -11    1    3    3    0    0  0.15314607494E+02 -0.65399954582E+01  0.12734625846E+02  0.20963764905E+02  0.51100000000E-03 0.  1.
        -12    1    3    3    0    0  0.14241325036E+02 -0.14027913893E+02  0.10877098888E+02  0.22757613829E+02  0.00000000000E+00 0.  1.
</event>
<event>
 7    1  0.2438448E-008  0.4614232E+02  0.7816164E-02  0.1320468E+00
        -11   -1    0    0    0    0  0.00000000000E+00  0.00000000000E+00  0.45593999997E+02  0.45594000000E+02  0.51100000000E-03 0.  1.
         11   -1    0    0    0    0 -0.00000000000E+00 -0.00000000000E+00 -0.45593999997E+02  0.45594000000E+02  0.51100000000E-03 0. -1.
    9900012    2    1    2    0    0  0.24227068939E+02  0.68502858947E+01  0.37352861260E+02  0.46142317293E+02  0.99999957292E+01 0.  0.
         12    1    1    2    0    0 -0.24227068939E+02 -0.68502858947E+01 -0.37352861260E+02  0.45045682707E+02  0.00000000000E+00 0. -1.
         11    1    3    3    0    0  0.81352359783E+01  0.43766594114E+01  0.20802203594E+02  0.22761126656E+02  0.51100000000E-03 0. -1.
        -11    1    3    3    0    0  0.12339101138E+02  0.79365518722E+00  0.13097391265E+02  0.18011800678E+02  0.51100000000E-03 0.  1.
         12    1    3    3    0    0  0.37527318230E+01  0.16799712961E+01  0.34532664016E+01  0.53693899589E+01  0.00000000000E+00 0. -1.
</event>
<event>
 7    1  0.2438448E-008  0.4614232E+02  0.7816164E-02  0.1320468E+00
        -11   -1    0    0    0    0  0.00000000000E+00  0.00000000000E+00  0.45593999997E+02  0.45594000000E+02  0.51100000000E-03 0. -1.
         11   -1    0    0    0    0 -0.00000000000E+00 -0.00000000000E+00 -0.45593999997E+02  0.45594000000E+02  0.51100000000E-03 0.  1.
    9900012    2    1    2    0    0 -0.55789397629E+00 -0.42860236646E+02 -0.13849270857E+02  0.46142318361E+02  0.10000005469E+02 0.  0.
         12    1    1    2    0    0  0.55789397629E+00  0.42860236646E+02  0.13849270857E+02  0.45045681639E+02  0.00000000000E+00 0. -1.
         11    1    3    3    0    0 -0.30059254311E+01 -0.88564520864E+01 -0.15629938552E+01  0.94823668621E+01  0.51100000000E-03 0. -1.
        -11    1    3    3    0    0  0.25286627520E+01 -0.24123689309E+02 -0.11210332106E+02  0.26721116507E+02  0.51100000000E-03 0.  1.
        -12    1    3    3    0    0 -0.80631297204E-01 -0.98800952506E+01 -0.10759448955E+01  0.99388349913E+01  0.00000000000E+00 0.  1.
</event>
<event>
 7    1  0.2438448E-008  0.4614232E+02  0.7816164E-02  0.1320468E+00
        -11   -1    0    0    0    0  0.00000000000E+00  0.00000000000E+00  0.45593999997E+02  0.45594000000E+02  0.51100000000E-03 0.  1.
         11   -1    0    0    0    0 -0.00000000000E+00 -0.00000000000E+00 -0.45593999997E+02  0.45594000000E+02  0.51100000000E-03 0. -1.
    9900012    2    1    2    0    0 -0.97892750026E+01 -0.21023099966E+01  0.43918834667E+02  0.46142315957E+02  0.99999835473E+01 0.  0.
         12    1    1    2    0    0  0.97892750026E+01  0.21023099966E+01 -0.43918834667E+02  0.45045684043E+02  0.00000000000E+00 0. -1.
         11    1    3    3    0    0 -0.31583273972E+01  0.23348231184E+01  0.14127300139E+02  0.14663118373E+02  0.51100000000E-03 0. -1.
        -11    1    3    3    0    0 -0.50703413976E+01 -0.43976576524E+01  0.28925468251E+02  0.29693946665E+02  0.51100000000E-03 0.  1.
         12    1    3    3    0    0 -0.15606062078E+01 -0.39475462539E-01  0.86606627682E+00  0.17852509190E+01  0.00000000000E+00 0. -1.
</event>
<event>
 7    1  0.2438448E-008  0.4614232E+02  0.7816164E-02  0.1320468E+00
        -11   -1    0    0    0    0  0.00000000000E+00  0.00000000000E+00  0.45593999997E+02  0.45594000000E+02  0.51100000000E-03 0. -1.
         11   -1    0    0    0    0 -0.00000000000E+00 -0.00000000000E+00 -0.45593999997E+02  0.45594000000E+02  0.51100000000E-03 0.  1.
    9900012    2    1    2    0    0 -0.42751405319E+02 -0.31781068916E+01  0.13832227228E+02  0.46142317296E+02  0.99999957608E+01 0.  0.
         12    1    1    2    0    0  0.42751405319E+02  0.31781068916E+01 -0.13832227228E+02  0.45045682704E+02  0.00000000000E+00 0. -1.
         11    1    3    3    0    0 -0.10071030291E+02 -0.14582843826E+01 -0.70582092414E+00  0.10200511159E+02  0.51100000000E-03 0. -1.
        -11    1    3    3    0    0 -0.93886878903E+01 -0.18243481660E+01  0.37560960939E+01  0.10275405815E+02  0.51100000000E-03 0.  1.
        -12    1    3    3    0    0 -0.23291687138E+02  0.10452565700E+00  0.10781952058E+02  0.25666400322E+02  0.00000000000E+00 0.  1.
</event>
<event>
 7    1  0.2438448E-008  0.4614232E+02  0.7816164E-02  0.1320468E+00
        -11   -1    0    0    0    0  0.00000000000E+00  0.00000000000E+00  0.45593999997E+02  0.45594000000E+02  0.51100000000E-03 0.  1.
         11   -1    0    0    0    0 -0.00000000000E+00 -0.00000000000E+00 -0.45593999997E+02  0.45594000000E+02  0.51100000000E-03 0. -1.
    9900012    2    1    2    0    0  0.17296245822E+02  0.25816135189E+02  0.32611046996E+02  0.46142319388E+02  0.10000014840E+02 0.  0.
         12    1    1    2    0    0 -0.17296245822E+02 -0.25816135189E+02 -0.32611046996E+02  0.45045680612E+02  0.00000000000E+00 0. -1.
         11    1    3    3    0    0  0.27780525256E+01  0.26026916134E+01  0.51659787404E+01  0.64170800273E+01  0.51100000000E-03 0. -1.
        -11    1    3    3    0    0  0.15523818906E+02  0.21787958684E+02  0.26793985165E+02  0.37863197677E+02  0.51100000000E-03 0.  1.
        -12    1    3    3    0    0 -0.10056256100E+01  0.14254848912E+01  0.65108308992E+00  0.18620416839E+01  0.00000000000E+00 0.  1.
</event>
<event>
 7    1  0.2438448E-008  0.4614232E+02  0.7816164E-02  0.1320468E+00
        -11   -1    0    0    0    0  0.00000000000E+00  0.00000000000E+00  0.45593999997E+02  0.45594000000E+02  0.51100000000E-03 0.  1.
         11   -1    0    0    0    0 -0.00000000000E+00 -0.00000000000E+00 -0.45593999997E+02  0.45594000000E+02  0.51100000000E-03 0. -1.
    9900012    2    1    2    0    0 -0.24641917355E+02  0.34191469733E+02  0.15900715681E+02  0.46142318158E+02  0.10000003617E+02 0.  0.
         12    1    1    2    0    0  0.24641917355E+02 -0.34191469733E+02 -0.15900715681E+02  0.45045681842E+02  0.00000000000E+00 0. -1.
         11    1    3    3    0    0 -0.17574420647E+01  0.55970533909E+01  0.10828238777E+01  0.59655776822E+01  0.51100000000E-03 0. -1.
        -11    1    3    3    0    0 -0.16815496193E+02  0.23099010390E+02  0.84204387553E+01  0.29786389212E+02  0.51100000000E-03 0.  1.
        -12    1    3    3    0    0 -0.60689790981E+01  0.54954059519E+01  0.63974530481E+01  0.10390351263E+02  0.00000000000E+00 0.  1.
</event>
<event>
 7    1  0.2438448E-008  0.4614232E+02  0.7816164E-02  0.1320468E+00
        -11   -1    0    0    0    0  0.00000000000E+00  0.00000000000E+00  0.45593999997E+02  0.45594000000E+02  0.51100000000E-03 0.  1.
         11   -1    0    0    0    0 -0.00000000000E+00 -0.00000000000E+00 -0.45593999997E+02  0.45594000000E+02  0.51100000000E-03 0. -1.
    9900012    2    1    2    0    0 -0.15868895533E+02 -0.24469907648E+02  0.34329510044E+02  0.46142317792E+02  0.10000000283E+02 0.  0.
         12    1    1    2    0    0  0.15868895533E+02  0.24469907648E+02 -0.34329510044E+02  0.45045682208E+02  0.00000000000E+00 0. -1.
         11    1    3    3    0    0 -0.51049461741E+01 -0.16995751588E+01  0.57885810946E+01  0.79029553023E+01  0.51100000000E-03 0. -1.
        -11    1    3    3    0    0 -0.10569645851E+02 -0.21681070856E+02  0.28139470527E+02  0.37062326541E+02  0.51100000000E-03 0.  1.
         12    1    3    3    0    0 -0.19430350808E+00 -0.10892616334E+01  0.40145842200E+00  0.11770359484E+01  0.00000000000E+00 0. -1.
</event>
<event>
 7    1  0.2438448E-008  0.4614232E+02  0.7816164E-02  0.1320468E+00
        -11   -1    0    0    0    0  0.00000000000E+00  0.00000000000E+00  0.45593999997E+02  0.45594000000E+02  0.51100000000E-03 0.  1.
         11   -1    0    0    0    0 -0.00000000000E+00 -0.00000000000E+00 -0.45593999997E+02  0.45594000000E+02  0.51100000000E-03 0. -1.
    9900012    2    1    2    0    0  0.10487177714E+02 -0.11109924442E+02  0.42375725584E+02  0.46142318340E+02  0.10000005276E+02 0.  0.
         12    1    1    2    0    0 -0.10487177714E+02  0.11109924442E+02 -0.42375725584E+02  0.45045681660E+02  0.00000000000E+00 0. -1.
         11    1    3    3    0    0  0.20300078378E+01  0.11819075220E+01  0.59963931749E+01  0.64400751999E+01  0.51100000000E-03 0. -1.
        -11    1    3    3    0    0  0.48663981444E+01 -0.72967141943E+01  0.27761196704E+02  0.29113706594E+02  0.51100000000E-03 0.  1.
        -12    1    3    3    0    0  0.35907717316E+01 -0.49951177692E+01  0.86181357050E+01  0.10588536546E+02  0.00000000000E+00 0.  1.
</event>
<event>
 7    1  0.2438448E-008  0.4614232E+02  0.7816164E-02  0.1320468E+00
        -11   -1    0    0    0    0  0.00000000000E+00  0.00000000000E+00  0.45593999997E+02  0.45594000000E+02  0.51100000000E-03 0.  1.
         11   -1    0    0    0    0 -0.00000000000E+00 -0.00000000000E+00 -0.45593999997E+02  0.45594000000E+02  0.51100000000E-03 0. -1.
    9900012    2    1    2    0    0  0.40405838320E+02 -0.26160437784E+01  0.19739251044E+02  0.46142317774E+02  0.10000000119E+02 0.  0.
         12    1    1    2    0    0 -0.40405838320E+02  0.26160437784E+01 -0.19739251044E+02  0.45045682226E+02  0.00000000000E+00 0. -1.
         11    1    3    3    0    0  0.27352494823E+01 -0.20230587164E+01  0.15836744916E+01  0.37526499246E+01  0.51100000000E-03 0. -1.
        -11    1    3    3    0    0  0.23843251677E+02 -0.64636654914E+00  0.77334243734E+01  0.25074375227E+02  0.51100000000E-03 0.  1.
         12    1    3    3    0    0  0.13827337161E+02  0.53381487094E-01  0.10422152179E+02  0.17315292623E+02  0.00000000000E+00 0. -1.
</event>
<event>
 7    1  0.2438448E-008  0.4614232E+02  0.7816164E-02  0.1320468E+00
        -11   -1    0    0    0    0  0.00000000000E+00  0.00000000000E+00  0.45593999997E+02  0.45594000000E+02  0.51100000000E-03 0.  1.
         11   -1    0    0    0    0 -0.00000000000E+00 -0.00000000000E+00 -0.45593999997E+02  0.45594000000E+02  0.51100000000E-03 0. -1.
    9900012    2    1    2    0    0 -0.29378093127E+02  0.28083933594E+02  0.19425080981E+02  0.46142318154E+02  0.10000003579E+02 0.  0.
         12    1    1    2    0    0  0.29378093127E+02 -0.28083933594E+02 -0.19425080981E+02  0.45045681846E+02  0.00000000000E+00 0. -1.
         11    1    3    3    0    0 -0.11522605073E+02  0.15079585852E+02  0.78787387115E+01  0.20548451550E+02  0.51100000000E-03 0. -1.
        -11    1    3    3    0    0 -0.10627099133E+02  0.90375140318E+01  0.42488671060E+01  0.14583030131E+02  0.51100000000E-03 0.  1.
        -12    1    3    3    0    0 -0.72283889209E+01  0.39668337102E+01  0.72974751632E+01  0.11010836473E+02  0.00000000000E+00 0.  1.
</event>
<event>
 7    1  0.2438448E-008  0.4614232E+02  0.7816164E-02  0.1320468E+00
        -11   -1    0    0    0    0  0.00000000000E+00  0.00000000000E+00  0.45593999997E+02  0.45594000000E+02  0.51100000000E-03 0.  1.
         11   -1    0    0    0    0 -0.00000000000E+00 -0.00000000000E+00 -0.45593999997E+02  0.45594000000E+02  0.51100000000E-03 0. -1.
    9900012    2    1    2    0    0 -0.26884120972E+02 -0.80850120203E+01  0.35227690962E+02  0.46142316629E+02  0.99999896779E+01 0.  0.
         12    1    1    2    0    0  0.26884120972E+02  0.80850120203E+01 -0.35227690962E+02  0.45045683371E+02  0.00000000000E+00 0. -1.
         11    1    3    3    0    0 -0.24839170829E+00 -0.10525490345E+01  0.43147549443E+00  0.11643578806E+01  0.51100000000E-03 0. -1.
        -11    1    3    3    0    0 -0.15331830363E+02 -0.38522276610E+01  0.14102048750E+02  0.21184250268E+02  0.51100000000E-03 0.  1.
         12    1    3    3    0    0 -0.11303898901E+02 -0.31802353248E+01  0.20694166718E+02  0.23793708480E+02  0.00000000000E+00 0. -1.
</event>
<event>
 7    1  0.2438448E-008  0.4614232E+02  0.7816164E-02  0.1320468E+00
        -11   -1    0    0    0    0  0.00000000000E+00  0.00000000000E+00  0.45593999997E+02  0.45594000000E+02  0.51100000000E-03 0. -1.
         11   -1    0    0    0    0 -0.00000000000E+00 -0.00000000000E+00 -0.45593999997E+02  0.45594000000E+02  0.51100000000E-03 0.  1.
    9900012    2    1    2    0    0 -0.21795915245E+02 -0.36265710769E+02 -0.15454753620E+02  0.46142321979E+02  0.10000038459E+02 0.  0.
         12    1    1    2    0    0  0.21795915245E+02  0.36265710769E+02  0.15454753620E+02  0.45045678021E+02  0.00000000000E+00 0. -1.
         11    1    3    3    0    0 -0.13517442687E+01 -0.19138982966E+01  0.15001950898E+00  0.23479193708E+01  0.51100000000E-03 0. -1.
        -11    1    3    3    0    0 -0.15917999258E+02 -0.30245399883E+02 -0.10286098763E+02  0.35692726745E+02  0.51100000000E-03 0.  1.
         12    1    3    3    0    0 -0.45261717182E+01 -0.41064125896E+01 -0.53186743662E+01  0.81016758632E+01  0.00000000000E+00 0. -1.
</event>
<event>
 7    1  0.2438448E-008  0.4614232E+02  0.7816164E-02  0.1320468E+00
        -11   -1    0    0    0    0  0.00000000000E+00  0.00000000000E+00  0.45593999997E+02  0.45594000000E+02  0.51100000000E-03 0. -1.
         11   -1    0    0    0    0 -0.00000000000E+00 -0.00000000000E+00 -0.45593999997E+02  0.45594000000E+02  0.51100000000E-03 0.  1.
    9900012    2    1    2    0    0  0.66747043785E+01 -0.29497119212E+02 -0.33383852658E+02  0.46142319424E+02  0.10000015160E+02 0.  0.
         12    1    1    2    0    0 -0.66747043785E+01  0.29497119212E+02  0.33383852658E+02  0.45045680576E+02  0.00000000000E+00 0. -1.
         11    1    3    3    0    0  0.41017490231E+00 -0.18978066347E+01 -0.35910174080E+01  0.40823179395E+01  0.51100000000E-03 0. -1.
        -11    1    3    3    0    0  0.10634973905E+01 -0.10857924405E+02 -0.17596200637E+02  0.20703908477E+02  0.51100000000E-03 0.  1.
         12    1    3    3    0    0  0.52010320857E+01 -0.16741388171E+02 -0.12196634612E+02  0.21356093007E+02  0.00000000000E+00 0. -1.
</event>
<event>
 7    1  0.2438448E-008  0.4614232E+02  0.7816164E-02  0.1320468E+00
        -11   -1    0    0    0    0  0.00000000000E+00  0.00000000000E+00  0.45593999997E+02  0.45594000000E+02  0.51100000000E-03 0.  1.
         11   -1    0    0    0    0 -0.00000000000E+00 -0.00000000000E+00 -0.45593999997E+02  0.45594000000E+02  0.51100000000E-03 0. -1.
    9900012    2    1    2    0    0  0.16916407242E+02 -0.29092041867E+02  0.29943309143E+02  0.46142317671E+02  0.99999991823E+01 0.  0.
         12    1    1    2    0    0 -0.16916407242E+02  0.29092041867E+02 -0.29943309143E+02  0.45045682329E+02  0.00000000000E+00 0. -1.
         11    1    3    3    0    0  0.10442779103E+01  0.26889249153E+00  0.13413889285E+01  0.17210880409E+01  0.51100000000E-03 0. -1.
        -11    1    3    3    0    0 -0.41552947366E+00 -0.27897590486E+01  0.22629570776E+01  0.36161298772E+01  0.51100000000E-03 0.  1.
        -12    1    3    3    0    0  0.16287658805E+02 -0.26571175310E+02  0.26338963137E+02  0.40805099753E+02  0.00000000000E+00 0.  1.
</event>
<event>
 7    1  0.2438448E-008  0.4614232E+02  0.7816164E-02  0.1320468E+00
        -11   -1    0    0    0    0  0.00000000000E+00  0.00000000000E+00  0.45593999997E+02  0.45594000000E+02  0.51100000000E-03 0.  1.
         11   -1    0    0    0    0 -0.00000000000E+00 -0.00000000000E+00 -0.45593999997E+02  0.45594000000E+02  0.51100000000E-03 0. -1.
    9900012    2    1    2    0    0  0.24702347711E+01 -0.61847748737E+01  0.44550645128E+02  0.46142317839E+02  0.10000000707E+02 0.  0.
         12    1    1    2    0    0 -0.24702347711E+01  0.61847748737E+01 -0.44550645128E+02  0.45045682161E+02  0.00000000000E+00 0. -1.
         11    1    3    3    0    0  0.25283340860E+01 -0.11236138938E+01  0.49866442874E+01  0.57027715142E+01  0.51100000000E-03 0. -1.
        -11    1    3    3    0    0  0.25185497055E+01 -0.42979244738E+00  0.70986469627E+01  0.75444418700E+01  0.51100000000E-03 0.  1.
         12    1    3    3    0    0 -0.25766490204E+01 -0.46313685325E+01  0.32465353878E+02  0.32895104454E+02  0.00000000000E+00 0. -1.
</event>
<event>
 7    1  0.2438448E-008  0.4614232E+02  0.7816164E-02  0.1320468E+00
        -11   -1    0    0    0    0  0.00000000000E+00  0.00000000000E+00  0.45593999997E+02  0.45594000000E+02  0.51100000000E-03 0. -1.
         11   -1    0    0    0    0 -0.00000000000E+00 -0.00000000000E+00 -0.45593999997E+02  0.45594000000E+02  0.51100000000E-03 0.  1.
    9900012    2    1    2    0    0 -0.15009161501E+02 -0.42246105434E+02 -0.43709563299E+01  0.46142316383E+02  0.99999874327E+01 0.  0.
         12    1    1    2    0    0  0.15009161501E+02  0.42246105434E+02  0.43709563299E+01  0.45045683617E+02  0.00000000000E+00 0. -1.
         11    1    3    3    0    0 -0.47772080754E+01 -0.88863580165E+01 -0.26424870972E+01  0.10429372661E+02  0.51100000000E-03 0. -1.
        -11    1    3    3    0    0 -0.95679949978E+01 -0.18882958262E+02 -0.60214532857E+00  0.21177233537E+02  0.51100000000E-03 0.  1.
        -12    1    3    3    0    0 -0.66395842783E+00 -0.14476789155E+02 -0.11263239042E+01  0.14535710185E+02  0.00000000000E+00 0.  1.
</event>
<event>
 7    1  0.2438448E-008  0.4614232E+02  0.7816164E-02  0.1320468E+00
        -11   -1    0    0    0    0  0.00000000000E+00  0.00000000000E+00  0.45593999997E+02  0.45594000000E+02  0.51100000000E-03 0.  1.
         11   -1    0    0    0    0 -0.00000000000E+00 -0.00000000000E+00 -0.45593999997E+02  0.45594000000E+02  0.51100000000E-03 0. -1.
    9900012    2    1    2    0    0 -0.43208008987E+02 -0.80934143103E+00 -0.12709303212E+02  0.46142318051E+02  0.10000002640E+02 0.  0.
         12    1    1    2    0    0  0.43208008987E+02  0.80934143103E+00  0.12709303212E+02  0.45045681949E+02  0.00000000000E+00 0. -1.
         11    1    3    3    0    0 -0.27334272322E+01  0.62511824046E+00 -0.16029466380E+01  0.32298352022E+01  0.51100000000E-03 0. -1.
        -11    1    3    3    0    0 -0.11040948813E+02 -0.43086923000E+01 -0.25094933396E+01  0.12114657945E+02  0.51100000000E-03 0.  1.
        -12    1    3    3    0    0 -0.29433632942E+02  0.28742326285E+01 -0.85968632341E+01  0.30797824904E+02  0.00000000000E+00 0.  1.
</event>
<event>
 7    1  0.2438448E-008  0.4614231E+02  0.7816164E-02  0.1320468E+00
        -11   -1    0    0    0    0  0.00000000000E+00  0.00000000000E+00  0.45593999997E+02  0.45594000000E+02  0.51100000000E-03 0. -1.
         11   -1    0    0    0    0 -0.00000000000E+00 -0.00000000000E+00 -0.45593999997E+02  0.45594000000E+02  0.51100000000E-03 0.  1.
    9900012    2    1    2    0    0  0.83186036226E+00  0.33783251547E+02 -0.29784458589E+02  0.46142311525E+02  0.99999431325E+01 0.  0.
         12    1    1    2    0    0 -0.83186036226E+00 -0.33783251547E+02  0.29784458589E+02  0.45045688475E+02  0.00000000000E+00 0. -1.
         11    1    3    3    0    0  0.59266060229E+00  0.31575657677E+01 -0.49875599588E+01  0.59327247341E+01  0.51100000000E-03 0. -1.
        -11    1    3    3    0    0 -0.24562871119E+01  0.17915228370E+02 -0.10583422634E+02  0.20952269300E+02  0.51100000000E-03 0.  1.
        -12    1    3    3    0    0  0.26954868719E+01  0.12710457410E+02 -0.14213475996E+02  0.19257317490E+02  0.00000000000E+00 0.  1.
</event>
<event>
 7    1  0.2438448E-008  0.4614232E+02  0.7816164E-02  0.1320468E+00
        -11   -1    0    0    0    0  0.00000000000E+00  0.00000000000E+00  0.45593999997E+02  0.45594000000E+02  0.51100000000E-03 0.  1.
         11   -1    0    0    0    0 -0.00000000000E+00 -0.00000000000E+00 -0.45593999997E+02  0.45594000000E+02  0.51100000000E-03 0. -1.
    9900012    2    1    2    0    0  0.30122409914E+02 -0.22036047887E+02  0.25222342294E+02  0.46142317229E+02  0.99999951487E+01 0.  0.
         12    1    1    2    0    0 -0.30122409914E+02  0.22036047887E+02 -0.25222342294E+02  0.45045682771E+02  0.00000000000E+00 0. -1.
         11    1    3    3    0    0  0.40960599664E+01 -0.64763641972E+01  0.65089212276E+01  0.10054205900E+02  0.51100000000E-03 0. -1.
        -11    1    3    3    0    0  0.87093420465E+01 -0.48371053605E+01  0.31300838959E+01  0.10442588406E+02  0.51100000000E-03 0.  1.
        -12    1    3    3    0    0  0.17317007901E+02 -0.10722578329E+02  0.15583337171E+02  0.25645522924E+02  0.00000000000E+00 0.  1.
</event>
<event>
 7    1  0.2438448E-008  0.4614232E+02  0.7816164E-02  0.1320468E+00
        -11   -1    0    0    0    0  0.00000000000E+00  0.00000000000E+00  0.45593999997E+02  0.45594000000E+02  0.51100000000E-03 0.  1.
         11   -1    0    0    0    0 -0.00000000000E+00 -0.00000000000E+00 -0.45593999997E+02  0.45594000000E+02  0.51100000000E-03 0. -1.
    9900012    2    1    2    0    0 -0.65373808979E+01  0.42711970004E+02  0.12730427988E+02  0.46142317327E+02  0.99999960459E+01 0.  0.
         12    1    1    2    0    0  0.65373808979E+01 -0.42711970004E+02 -0.12730427988E+02  0.45045682673E+02  0.00000000000E+00 0. -1.
         11    1    3    3    0    0 -0.34105952519E+01  0.61197556280E+01  0.44431669812E+01  0.82961016148E+01  0.51100000000E-03 0. -1.
        -11    1    3    3    0    0 -0.28164326913E+01  0.18154787489E+02  0.56330557558E+01  0.19216136950E+02  0.51100000000E-03 0.  1.
         12    1    3    3    0    0 -0.31035295472E+00  0.18437426887E+02  0.26542052516E+01  0.18630078762E+02  0.00000000000E+00 0. -1.
</event>
<event>
 7    1  0.2438448E-008  0.4614232E+02  0.7816164E-02  0.1320468E+00
        -11   -1    0    0    0    0  0.00000000000E+00  0.00000000000E+00  0.45593999997E+02  0.45594000000E+02  0.51100000000E-03 0. -1.
         11   -1    0    0    0    0 -0.00000000000E+00 -0.00000000000E+00 -0.45593999997E+02  0.45594000000E+02  0.51100000000E-03 0.  1.
    9900012    2    1    2    0    0  0.19338914629E+02 -0.50641679897E+00 -0.40680011917E+02  0.46142318225E+02  0.10000004227E+02 0.  0.
         12    1    1    2    0    0 -0.19338914629E+02  0.50641679897E+00  0.40680011917E+02  0.45045681775E+02  0.00000000000E+00 0. -1.
         11    1    3    3    0    0 -0.42566300955E+00  0.28713498813E+00 -0.46870998152E+00  0.69521565503E+00  0.51100000000E-03 0. -1.
        -11    1    3    3    0    0  0.11395764876E+02  0.32116270775E+01 -0.20833282621E+02  0.23962547248E+02  0.51100000000E-03 0.  1.
         12    1    3    3    0    0  0.83688127624E+01 -0.40051788646E+01 -0.19378019315E+02  0.21484555322E+02  0.00000000000E+00 0. -1.
</event>
<event>
 7    1  0.2438448E-008  0.4614232E+02  0.7816164E-02  0.1320468E+00
        -11   -1    0    0    0    0  0.00000000000E+00  0.00000000000E+00  0.45593999997E+02  0.45594000000E+02  0.51100000000E-03 0.  1.
         11   -1    0    0    0    0 -0.00000000000E+00 -0.00000000000E+00 -0.45593999997E+02  0.45594000000E+02  0.51100000000E-03 0. -1.
    9900012    2    1    2    0    0  0.28042155953E+02 -0.60159302773E+00  0.35247539608E+02  0.46142317931E+02  0.10000001546E+02 0.  0.
         12    1    1    2    0    0 -0.28042155953E+02  0.60159302773E+00 -0.35247539608E+02  0.45045682069E+02  0.00000000000E+00 0. -1.
         11    1    3    3    0    0  0.16173606386E+02 -0.28339015576E+01  0.15417618822E+02  0.22523754393E+02  0.51100000000E-03 0. -1.
        -11    1    3    3    0    0  0.10959222135E+02  0.32800667877E+01  0.17517567877E+02  0.20921963878E+02  0.51100000000E-03 0.  1.
         12    1    3    3    0    0  0.90932743267E+00 -0.10477582578E+01  0.23123529097E+01  0.26965996599E+01  0.00000000000E+00 0. -1.
</event>
<event>
 7    1  0.2438448E-008  0.4614232E+02  0.7816164E-02  0.1320468E+00
        -11   -1    0    0    0    0  0.00000000000E+00  0.00000000000E+00  0.45593999997E+02  0.45594000000E+02  0.51100000000E-03 0. -1.
         11   -1    0    0    0    0 -0.00000000000E+00 -0.00000000000E+00 -0.45593999997E+02  0.45594000000E+02  0.51100000000E-03 0.  1.
    9900012    2    1    2    0    0  0.86300581573E+01 -0.11825495476E+02 -0.42600390005E+02  0.46142317902E+02  0.10000001286E+02 0.  0.
         12    1    1    2    0    0 -0.86300581573E+01  0.11825495476E+02  0.42600390005E+02  0.45045682098E+02  0.00000000000E+00 0. -1.
         11    1    3    3    0    0  0.44411075183E+01 -0.10990117384E+01 -0.14826274708E+02  0.15516110491E+02  0.51100000000E-03 0. -1.
        -11    1    3    3    0    0 -0.38276076176E+00  0.45792290660E+00 -0.44254537702E+00  0.74299788760E+00  0.51100000000E-03 0.  1.
        -12    1    3    3    0    0  0.45717114008E+01 -0.11184406645E+02 -0.27331569920E+02  0.29883209524E+02  0.00000000000E+00 0.  1.
</event>
<event>
 7    1  0.2438448E-008  0.4614232E+02  0.7816164E-02  0.1320468E+00
        -11   -1    0    0    0    0  0.00000000000E+00  0.00000000000E+00  0.45593999997E+02  0.45594000000E+02  0.51100000000E-03 0. -1.
         11   -1    0    0    0    0 -0.00000000000E+00 -0.00000000000E+00 -0.45593999997E+02  0.45594000000E+02  0.51100000000E-03 0.  1.
    9900012    2    1    2    0    0 -0.29531131052E+02 -0.71069250383E+01 -0.33264356091E+02  0.46142317955E+02  0.10000001771E+02 0.  0.
         12    1    1    2    0    0  0.29531131052E+02  0.71069250383E+01  0.33264356091E+02  0.45045682045E+02  0.00000000000E+00 0. -1.
         11    1    3    3    0    0 -0.67067135215E+01 -0.68879113483E+00 -0.37842603512E+01  0.77314336415E+01  0.51100000000E-03 0. -1.
        -11    1    3    3    0    0 -0.93466435359E+01 -0.13170633978E+01 -0.16535732477E+02  0.19040085352E+02  0.51100000000E-03 0.  1.
        -12    1    3    3    0    0 -0.13477773995E+02 -0.51010705057E+01 -0.12944363263E+02  0.19370798962E+02  0.00000000000E+00 0.  1.
</event>
<event>
 7    1  0.2438448E-008  0.4614232E+02  0.7816164E-02  0.1320468E+00
        -11   -1    0    0    0    0  0.00000000000E+00  0.00000000000E+00  0.45593999997E+02  0.45594000000E+02  0.51100000000E-03 0. -1.
         11   -1    0    0    0    0 -0.00000000000E+00 -0.00000000000E+00 -0.45593999997E+02  0.45594000000E+02  0.51100000000E-03 0.  1.
    9900012    2    1    2    0    0 -0.21776859185E+02  0.26363668706E+02  0.29323009319E+02  0.46142317641E+02  0.99999989093E+01 0.  0.
         12    1    1    2    0    0  0.21776859185E+02 -0.26363668706E+02 -0.29323009319E+02  0.45045682359E+02  0.00000000000E+00 0. -1.
         11    1    3    3    0    0 -0.84252050744E+01  0.10115942094E+02  0.70273935704E+01  0.14923157362E+02  0.51100000000E-03 0.  1.
        -11    1    3    3    0    0 -0.42482466320E+01  0.18329917482E+01  0.32300373153E+01  0.56427475147E+01  0.51100000000E-03 0. -1.
        -12    1    3    3    0    0 -0.91034074790E+01  0.14414734864E+02  0.19065578434E+02  0.25576412765E+02  0.00000000000E+00 0.  1.
</event>
<event>
 7    1  0.2438448E-008  0.4614232E+02  0.7816164E-02  0.1320468E+00
        -11   -1    0    0    0    0  0.00000000000E+00  0.00000000000E+00  0.45593999997E+02  0.45594000000E+02  0.51100000000E-03 0.  1.
         11   -1    0    0    0    0 -0.00000000000E+00 -0.00000000000E+00 -0.45593999997E+02  0.45594000000E+02  0.51100000000E-03 0. -1.
    9900012    2    1    2    0    0  0.33585291285E+02 -0.13088157301E+02  0.27015584420E+02  0.46142318145E+02  0.10000003504E+02 0.  0.
         12    1    1    2    0    0 -0.33585291285E+02  0.13088157301E+02 -0.27015584420E+02  0.45045681855E+02  0.00000000000E+00 0. -1.
         11    1    3    3    0    0  0.18347337049E+01  0.24499964075E+00  0.11827936696E+01  0.21966505680E+01  0.51100000000E-03 0. -1.
        -11    1    3    3    0    0  0.13100177877E+02 -0.71822792040E+01  0.61956745465E+01  0.16173626011E+02  0.51100000000E-03 0.  1.
        -12    1    3    3    0    0  0.18650379702E+02 -0.61508777374E+01  0.19637116204E+02  0.27772041567E+02  0.00000000000E+00 0.  1.
</event>
<event>
 7    1  0.2438448E-008  0.4614232E+02  0.7816164E-02  0.1320468E+00
        -11   -1    0    0    0    0  0.00000000000E+00  0.00000000000E+00  0.45593999997E+02  0.45594000000E+02  0.51100000000E-03 0.  1.
         11   -1    0    0    0    0 -0.00000000000E+00 -0.00000000000E+00 -0.45593999997E+02  0.45594000000E+02  0.51100000000E-03 0. -1.
    9900012    2    1    2    0    0 -0.41276657342E+02 -0.84984322250E+01  0.15909983377E+02  0.46142319156E+02  0.10000012721E+02 0.  0.
         12    1    1    2    0    0  0.41276657342E+02  0.84984322250E+01 -0.15909983377E+02  0.45045680844E+02  0.00000000000E+00 0. -1.
         11    1    3    3    0    0 -0.17798090611E+02 -0.25525167751E+01  0.10152997998E+02  0.20648746691E+02  0.51100000000E-03 0. -1.
        -11    1    3    3    0    0 -0.17045951005E+02 -0.20624218744E+01  0.52830477942E+01  0.17964649284E+02  0.51100000000E-03 0.  1.
        -12    1    3    3    0    0 -0.64326157258E+01 -0.38834935755E+01  0.47393758460E+00  0.75289231807E+01  0.00000000000E+00 0.  1.
</event>
<event>
 7    1  0.2438448E-008  0.4614232E+02  0.7816164E-02  0.1320468E+00
        -11   -1    0    0    0    0  0.00000000000E+00  0.00000000000E+00  0.45593999997E+02  0.45594000000E+02  0.51100000000E-03 0.  1.
         11   -1    0    0    0    0 -0.00000000000E+00 -0.00000000000E+00 -0.45593999997E+02  0.45594000000E+02  0.51100000000E-03 0. -1.
    9900012    2    1    2    0    0  0.98401553023E+01  0.39696466005E+02  0.18880544444E+02  0.46142322869E+02  0.10000046578E+02 0.  0.
         12    1    1    2    0    0 -0.98401553023E+01 -0.39696466005E+02 -0.18880544444E+02  0.45045677131E+02  0.00000000000E+00 0. -1.
         11    1    3    3    0    0  0.34306384974E+01  0.17297899713E+02  0.12289184285E+02  0.21494433364E+02  0.51100000000E-03 0. -1.
        -11    1    3    3    0    0  0.63085022512E+01  0.17096580375E+02  0.64882769057E+01  0.19343939584E+02  0.51100000000E-03 0.  1.
        -12    1    3    3    0    0  0.10101455371E+00  0.53019859170E+01  0.10308325325E+00  0.53039499207E+01  0.00000000000E+00 0.  1.
</event>
<event>
 7    1  0.2438448E-008  0.4614232E+02  0.7816164E-02  0.1320468E+00
        -11   -1    0    0    0    0  0.00000000000E+00  0.00000000000E+00  0.45593999997E+02  0.45594000000E+02  0.51100000000E-03 0.  1.
         11   -1    0    0    0    0 -0.00000000000E+00 -0.00000000000E+00 -0.45593999997E+02  0.45594000000E+02  0.51100000000E-03 0. -1.
    9900012    2    1    2    0    0 -0.12789232956E+02 -0.30961011068E+02  0.30115855499E+02  0.46142318315E+02  0.10000005054E+02 0.  0.
         12    1    1    2    0    0  0.12789232956E+02  0.30961011068E+02 -0.30115855499E+02  0.45045681685E+02  0.00000000000E+00 0. -1.
         11    1    3    3    0    0 -0.88541517440E+01 -0.12336617192E+02  0.14408511004E+02  0.20933067536E+02  0.51100000000E-03 0. -1.
        -11    1    3    3    0    0  0.12318152639E+01 -0.47789665380E+01  0.41638212223E+01  0.64570347256E+01  0.51100000000E-03 0.  1.
         12    1    3    3    0    0 -0.51668964760E+01 -0.13845427338E+02  0.11543523273E+02  0.18752216054E+02  0.00000000000E+00 0. -1.
</event>
<event>
 7    1  0.2438448E-008  0.4614232E+02  0.7816164E-02  0.1320468E+00
        -11   -1    0    0    0    0  0.00000000000E+00  0.00000000000E+00  0.45593999997E+02  0.45594000000E+02  0.51100000000E-03 0.  1.
         11   -1    0    0    0    0 -0.00000000000E+00 -0.00000000000E+00 -0.45593999997E+02  0.45594000000E+02  0.51100000000E-03 0. -1.
    9900012    2    1    2    0    0  0.28873004353E+02  0.24059940458E+02  0.24831075496E+02  0.46142318459E+02  0.10000006366E+02 0.  0.
         12    1    1    2    0    0 -0.28873004353E+02 -0.24059940458E+02 -0.24831075496E+02  0.45045681541E+02  0.00000000000E+00 0. -1.
         11    1    3    3    0    0  0.45019811056E+00 -0.75400232159E-01 -0.54642744767E+00  0.71200193149E+00  0.51100000000E-03 0. -1.
        -11    1    3    3    0    0  0.15088259513E+02  0.99701748506E+01  0.10256349367E+02  0.20790686961E+02  0.51100000000E-03 0.  1.
         12    1    3    3    0    0  0.13334546729E+02  0.14165165839E+02  0.15121153576E+02  0.24639629567E+02  0.00000000000E+00 0. -1.
</event>
<event>
 7    1  0.2438448E-008  0.4614232E+02  0.7816164E-02  0.1320468E+00
        -11   -1    0    0    0    0  0.00000000000E+00  0.00000000000E+00  0.45593999997E+02  0.45594000000E+02  0.51100000000E-03 0.  1.
         11   -1    0    0    0    0 -0.00000000000E+00 -0.00000000000E+00 -0.45593999997E+02  0.45594000000E+02  0.51100000000E-03 0. -1.
    9900012    2    1    2    0    0  0.60895355643E+01  0.24428159147E+02  0.37353653562E+02  0.46142324990E+02  0.10000065914E+02 0.  0.
         12    1    1    2    0    0 -0.60895355643E+01 -0.24428159147E+02 -0.37353653562E+02  0.45045675010E+02  0.00000000000E+00 0. -1.
         11    1    3    3    0    0  0.72572193289E+00  0.47108616397E+01  0.10877319727E+02  0.11875814684E+02  0.51100000000E-03 0. -1.
        -11    1    3    3    0    0  0.56024602153E+00  0.12478313123E+02  0.19342701256E+02  0.23025252792E+02  0.51100000000E-03 0.  1.
         12    1    3    3    0    0  0.48035676099E+01  0.72389843843E+01  0.71336325792E+01  0.11241257513E+02  0.00000000000E+00 0. -1.
</event>
<event>
 7    1  0.2438448E-008  0.4614232E+02  0.7816164E-02  0.1320468E+00
        -11   -1    0    0    0    0  0.00000000000E+00  0.00000000000E+00  0.45593999997E+02  0.45594000000E+02  0.51100000000E-03 0.  1.
         11   -1    0    0    0    0 -0.00000000000E+00 -0.00000000000E+00 -0.45593999997E+02  0.45594000000E+02  0.51100000000E-03 0. -1.
    9900012    2    1    2    0    0 -0.10592646588E+02  0.29667789122E+01  0.43681889669E+02  0.46142318476E+02  0.10000006523E+02 0.  0.
         12    1    1    2    0    0  0.10592646588E+02 -0.29667789122E+01 -0.43681889669E+02  0.45045681524E+02  0.00000000000E+00 0. -1.
         11    1    3    3    0    0 -0.61691650785E+01  0.26729254816E+01  0.13286620633E+02  0.14890850093E+02  0.51100000000E-03 0. -1.
        -11    1    3    3    0    0  0.22098689421E+00 -0.15692431937E+01  0.14518362699E+02  0.14604595685E+02  0.51100000000E-03 0.  1.
        -12    1    3    3    0    0 -0.46444684033E+01  0.18630966243E+01  0.15876906337E+02  0.16646872698E+02  0.00000000000E+00 0.  1.
</event>
<event>
 7    1  0.2438448E-008  0.4614232E+02  0.7816164E-02  0.1320468E+00
        -11   -1    0    0    0    0  0.00000000000E+00  0.00000000000E+00  0.45593999997E+02  0.45594000000E+02  0.51100000000E-03 0.  1.
         11   -1    0    0    0    0 -0.00000000000E+00 -0.00000000000E+00 -0.45593999997E+02  0.45594000000E+02  0.51100000000E-03 0. -1.
    9900012    2    1    2    0    0  0.27845641927E+02 -0.32368615813E+02  0.14352923959E+02  0.46142317741E+02  0.99999998180E+01 0.  0.
         12    1    1    2    0    0 -0.27845641927E+02  0.32368615813E+02 -0.14352923959E+02  0.45045682259E+02  0.00000000000E+00 0. -1.
         11    1    3    3    0    0  0.10987268192E+02 -0.93528608094E+01  0.16628906994E+01  0.14524505960E+02  0.51100000000E-03 0. -1.
        -11    1    3    3    0    0  0.12145189348E+02 -0.13087856749E+02  0.92085383946E+01  0.20089668942E+02  0.51100000000E-03 0.  1.
        -12    1    3    3    0    0  0.47131843874E+01 -0.99278982544E+01  0.34814948649E+01  0.11528142839E+02  0.00000000000E+00 0.  1.
</event>
<event>
 7    1  0.2438448E-008  0.4614232E+02  0.7816164E-02  0.1320468E+00
        -11   -1    0    0    0    0  0.00000000000E+00  0.00000000000E+00  0.45593999997E+02  0.45594000000E+02  0.51100000000E-03 0.  1.
         11   -1    0    0    0    0 -0.00000000000E+00 -0.00000000000E+00 -0.45593999997E+02  0.45594000000E+02  0.51100000000E-03 0. -1.
    9900012    2    1    2    0    0  0.17115317652E+02 -0.11046821154E+02  0.40176449669E+02  0.46142318032E+02  0.10000002473E+02 0.  0.
         12    1    1    2    0    0 -0.17115317652E+02  0.11046821154E+02 -0.40176449669E+02  0.45045681968E+02  0.00000000000E+00 0. -1.
         11    1    3    3    0    0 -0.92154974794E+00 -0.36677494423E+00  0.24270793771E+01  0.26219253157E+01  0.51100000000E-03 0. -1.
        -11    1    3    3    0    0  0.57228655591E+00 -0.17101483988E+01  0.52482542857E+01  0.55494407607E+01  0.51100000000E-03 0.  1.
        -12    1    3    3    0    0  0.17464580844E+02 -0.89698978112E+01  0.32501116006E+02  0.37970951956E+02  0.00000000000E+00 0.  1.
</event>
<event>
 7    1  0.2438448E-008  0.4614232E+02  0.7816164E-02  0.1320468E+00
        -11   -1    0    0    0    0  0.00000000000E+00  0.00000000000E+00  0.45593999997E+02  0.45594000000E+02  0.51100000000E-03 0.  1.
         11   -1    0    0    0    0 -0.00000000000E+00 -0.00000000000E+00 -0.45593999997E+02  0.45594000000E+02  0.51100000000E-03 0. -1.
    9900012    2    1    2    0    0  0.22752406240E+02 -0.14218023783E+02  0.36184102024E+02  0.46142318417E+02  0.10000005984E+02 0.  0.
         12    1    1    2    0    0 -0.22752406240E+02  0.14218023783E+02 -0.36184102024E+02  0.45045681583E+02  0.00000000000E+00 0. -1.
         11    1    3    3    0    0  0.15476953077E+02 -0.11182409473E+02  0.21714339878E+02  0.28915305891E+02  0.51100000000E-03 0.  1.
        -11    1    3    3    0    0  0.46634874472E+01  0.38627906926E+00  0.51343852291E+01  0.69468869741E+01  0.51100000000E-03 0. -1.
         12    1    3    3    0    0  0.26119657157E+01 -0.34218933786E+01  0.93353769163E+01  0.10280125552E+02  0.00000000000E+00 0. -1.
</event>
<event>
 7    1  0.2438448E-008  0.4614232E+02  0.7816164E-02  0.1320468E+00
        -11   -1    0    0    0    0  0.00000000000E+00  0.00000000000E+00  0.45593999997E+02  0.45594000000E+02  0.51100000000E-03 0. -1.
         11   -1    0    0    0    0 -0.00000000000E+00 -0.00000000000E+00 -0.45593999997E+02  0.45594000000E+02  0.51100000000E-03 0.  1.
    9900012    2    1    2    0    0  0.38352628753E+02 -0.23489877669E+02  0.25328045330E+01  0.46142316699E+02  0.99999903185E+01 0.  0.
         12    1    1    2    0    0 -0.38352628753E+02  0.23489877669E+02 -0.25328045330E+01  0.45045683301E+02  0.00000000000E+00 0. -1.
         11    1    3    3    0    0  0.26105424778E+01 -0.12685031303E+01  0.16497604140E+01  0.33385239111E+01  0.51100000000E-03 0. -1.
        -11    1    3    3    0    0  0.31468906321E+02 -0.18817682558E+02 -0.18147500296E+01  0.36710905189E+02  0.51100000000E-03 0.  1.
        -12    1    3    3    0    0  0.42731799550E+01 -0.34036919811E+01  0.26977941486E+01  0.60928875994E+01  0.00000000000E+00 0.  1.
</event>
<event>
 7    1  0.2438448E-008  0.4614233E+02  0.7816164E-02  0.1320468E+00
        -11   -1    0    0    0    0  0.00000000000E+00  0.00000000000E+00  0.45593999997E+02  0.45594000000E+02  0.51100000000E-03 0. -1.
         11   -1    0    0    0    0 -0.00000000000E+00 -0.00000000000E+00 -0.45593999997E+02  0.45594000000E+02  0.51100000000E-03 0.  1.
    9900012    2    1    2    0    0 -0.35390169644E+02  0.21753275688E+02 -0.17419633820E+02  0.46142325923E+02  0.10000074425E+02 0.  0.
         12    1    1    2    0    0  0.35390169644E+02 -0.21753275688E+02  0.17419633820E+02  0.45045674077E+02  0.00000000000E+00 0. -1.
         11    1    3    3    0    0 -0.24971468645E+02  0.15209051456E+02 -0.71780467902E+01  0.30106707699E+02  0.51100000000E-03 0.  1.
        -11    1    3    3    0    0 -0.57312837388E+01  0.41311593184E+01 -0.60052955802E+01  0.92724142420E+01  0.51100000000E-03 0. -1.
        -12    1    3    3    0    0 -0.46874172605E+01  0.24130649139E+01 -0.42362914501E+01  0.67632039821E+01  0.00000000000E+00 0.  1.
</event>
<event>
 7    1  0.2438448E-008  0.4614232E+02  0.7816164E-02  0.1320468E+00
        -11   -1    0    0    0    0  0.00000000000E+00  0.00000000000E+00  0.45593999997E+02  0.45594000000E+02  0.51100000000E-03 0.  1.
         11   -1    0    0    0    0 -0.00000000000E+00 -0.00000000000E+00 -0.45593999997E+02  0.45594000000E+02  0.51100000000E-03 0. -1.
    9900012    2    1    2    0    0 -0.31255428060E+02  0.32429845678E+02  0.71884620204E+00  0.46142318589E+02  0.10000007548E+02 0.  0.
         12    1    1    2    0    0  0.31255428060E+02 -0.32429845678E+02 -0.71884620204E+00  0.45045681411E+02  0.00000000000E+00 0. -1.
         11    1    3    3    0    0 -0.12322991625E+02  0.89997065047E+01  0.68194853408E+00  0.15274681464E+02  0.51100000000E-03 0. -1.
        -11    1    3    3    0    0 -0.82037730421E+00  0.25036838581E+00 -0.11407837525E+01  0.14272669971E+01  0.51100000000E-03 0.  1.
        -12    1    3    3    0    0 -0.18112059131E+02  0.23179770788E+02  0.11776814204E+01  0.29440370128E+02  0.00000000000E+00 0.  1.
</event>
<event>
 7    1  0.2438448E-008  0.4614232E+02  0.7816164E-02  0.1320468E+00
        -11   -1    0    0    0    0  0.00000000000E+00  0.00000000000E+00  0.45593999997E+02  0.45594000000E+02  0.51100000000E-03 0.  1.
         11   -1    0    0    0    0 -0.00000000000E+00 -0.00000000000E+00 -0.45593999997E+02  0.45594000000E+02  0.51100000000E-03 0. -1.
    9900012    2    1    2    0    0  0.12769301461E+02  0.40128516607E+02  0.15992516288E+02  0.46142317831E+02  0.10000000638E+02 0.  0.
         12    1    1    2    0    0 -0.12769301461E+02 -0.40128516607E+02 -0.15992516288E+02  0.45045682169E+02  0.00000000000E+00 0. -1.
         11    1    3    3    0    0  0.32898700671E+01  0.40827359908E+01  0.13367192495E+01  0.54109885272E+01  0.51100000000E-03 0. -1.
        -11    1    3    3    0    0  0.89045072069E+01  0.36298874655E+02  0.14413386457E+02  0.40058011174E+02  0.51100000000E-03 0.  1.
        -12    1    3    3    0    0  0.57492418725E+00 -0.25309403915E+00  0.24241058135E+00  0.67331812963E+00  0.00000000000E+00 0.  1.
</event>
<event>
 7    1  0.2438448E-008  0.4614232E+02  0.7816164E-02  0.1320468E+00
        -11   -1    0    0    0    0  0.00000000000E+00  0.00000000000E+00  0.45593999997E+02  0.45594000000E+02  0.51100000000E-03 0.  1.
         11   -1    0    0    0    0 -0.00000000000E+00 -0.00000000000E+00 -0.45593999997E+02  0.45594000000E+02  0.51100000000E-03 0. -1.
    9900012    2    1    2    0    0  0.32496152984E+02  0.37545271676E+01  0.30968000573E+02  0.46142317715E+02  0.99999995822E+01 0.  0.
         12    1    1    2    0    0 -0.32496152984E+02 -0.37545271676E+01 -0.30968000573E+02  0.45045682285E+02  0.00000000000E+00 0. -1.
         11    1    3    3    0    0  0.92934915350E+00  0.24509807290E-01  0.35339564093E+01  0.36541946779E+01  0.51100000000E-03 0. -1.
        -11    1    3    3    0    0  0.27532520810E+02  0.35314014823E+01  0.26425029759E+02  0.38324831332E+02  0.51100000000E-03 0.  1.
        -12    1    3    3    0    0  0.40342830208E+01  0.19861587794E+00  0.10090144044E+01  0.41632917058E+01  0.00000000000E+00 0.  1.
</event>
<event>
 7    1  0.2438448E-008  0.4614232E+02  0.7816164E-02  0.1320468E+00
        -11   -1    0    0    0    0  0.00000000000E+00  0.00000000000E+00  0.45593999997E+02  0.45594000000E+02  0.51100000000E-03 0.  1.
         11   -1    0    0    0    0 -0.00000000000E+00 -0.00000000000E+00 -0.45593999997E+02  0.45594000000E+02  0.51100000000E-03 0. -1.
    9900012    2    1    2    0    0 -0.35739880051E+01  0.33158009905E+02  0.30280134259E+02  0.46142317168E+02  0.99999945873E+01 0.  0.
         12    1    1    2    0    0  0.35739880051E+01 -0.33158009905E+02 -0.30280134259E+02  0.45045682832E+02  0.00000000000E+00 0. -1.
         11    1    3    3    0    0 -0.21003572092E+01  0.17158870740E+02  0.12486602116E+02  0.21324952008E+02  0.51100000000E-03 0.  1.
        -11    1    3    3    0    0  0.59311743025E+00  0.12558924882E+02  0.10051397599E+02  0.16096862316E+02  0.51100000000E-03 0. -1.
         12    1    3    3    0    0 -0.20667482261E+01  0.34402142828E+01  0.77421345441E+01  0.87205028434E+01  0.00000000000E+00 0. -1.
</event>
<event>
 7    1  0.2438448E-008  0.4614232E+02  0.7816164E-02  0.1320468E+00
        -11   -1    0    0    0    0  0.00000000000E+00  0.00000000000E+00  0.45593999997E+02  0.45594000000E+02  0.51100000000E-03 0. -1.
         11   -1    0    0    0    0 -0.00000000000E+00 -0.00000000000E+00 -0.45593999997E+02  0.45594000000E+02  0.51100000000E-03 0.  1.
    9900012    2    1    2    0    0  0.20831816843E+02 -0.33191539582E+02 -0.22214195772E+02  0.46142318891E+02  0.10000010302E+02 0.  0.
         12    1    1    2    0    0 -0.20831816843E+02  0.33191539582E+02  0.22214195772E+02  0.45045681109E+02  0.00000000000E+00 0. -1.
         11    1    3    3    0    0  0.35025380594E+01 -0.29639504324E+01 -0.21702029848E+00  0.45934598174E+01  0.51100000000E-03 0. -1.
        -11    1    3    3    0    0  0.34278119374E+01 -0.10753451095E+02 -0.79193085268E+01  0.13787750104E+02  0.51100000000E-03 0.  1.
         12    1    3    3    0    0  0.13901466847E+02 -0.19474138054E+02 -0.14077866946E+02  0.27761108969E+02  0.00000000000E+00 0. -1.
</event>
<event>
 7    1  0.2438448E-008  0.4614232E+02  0.7816164E-02  0.1320468E+00
        -11   -1    0    0    0    0  0.00000000000E+00  0.00000000000E+00  0.45593999997E+02  0.45594000000E+02  0.51100000000E-03 0.  1.
         11   -1    0    0    0    0 -0.00000000000E+00 -0.00000000000E+00 -0.45593999997E+02  0.45594000000E+02  0.51100000000E-03 0. -1.
    9900012    2    1    2    0    0 -0.15672904432E+02 -0.24949768346E+02  0.34073194408E+02  0.46142318176E+02  0.10000003781E+02 0.  0.
         12    1    1    2    0    0  0.15672904432E+02  0.24949768346E+02 -0.34073194408E+02  0.45045681824E+02  0.00000000000E+00 0. -1.
         11    1    3    3    0    0 -0.46790787377E+01 -0.10253662323E+02  0.11938752802E+02  0.16418440475E+02  0.51100000000E-03 0. -1.
        -11    1    3    3    0    0 -0.78640116558E+01 -0.13553180883E+02  0.14313737895E+02  0.21222970672E+02  0.51100000000E-03 0.  1.
         12    1    3    3    0    0 -0.31298140387E+01 -0.11429251399E+01  0.78207037100E+01  0.85009070288E+01  0.00000000000E+00 0. -1.
</event>
<event>
 7    1  0.2438448E-008  0.4614232E+02  0.7816164E-02  0.1320468E+00
        -11   -1    0    0    0    0  0.00000000000E+00  0.00000000000E+00  0.45593999997E+02  0.45594000000E+02  0.51100000000E-03 0.  1.
         11   -1    0    0    0    0 -0.00000000000E+00 -0.00000000000E+00 -0.45593999997E+02  0.45594000000E+02  0.51100000000E-03 0. -1.
    9900012    2    1    2    0    0  0.24144428452E+02 -0.35292450150E+02  0.14163441919E+02  0.46142317079E+02  0.99999937768E+01 0.  0.
         12    1    1    2    0    0 -0.24144428452E+02  0.35292450150E+02 -0.14163441919E+02  0.45045682921E+02  0.00000000000E+00 0. -1.
         11    1    3    3    0    0  0.16915836367E+02 -0.17098085486E+02  0.64824440549E+01  0.24910080861E+02  0.51100000000E-03 0. -1.
        -11    1    3    3    0    0  0.17986521547E+01 -0.33286715365E+01  0.26727642115E+01  0.46323722393E+01  0.51100000000E-03 0.  1.
         12    1    3    3    0    0  0.54299399300E+01 -0.14865693127E+02  0.50082336526E+01  0.16599863979E+02  0.00000000000E+00 0. -1.
</event>
<event>
 7    1  0.2438448E-008  0.4614232E+02  0.7816164E-02  0.1320468E+00
        -11   -1    0    0    0    0  0.00000000000E+00  0.00000000000E+00  0.45593999997E+02  0.45594000000E+02  0.51100000000E-03 0.  1.
         11   -1    0    0    0    0 -0.00000000000E+00 -0.00000000000E+00 -0.45593999997E+02  0.45594000000E+02  0.51100000000E-03 0. -1.
    9900012    2    1    2    0    0 -0.24619021577E+02 -0.82101988597E+01  0.36818609175E+02  0.46142316852E+02  0.99999917093E+01 0.  0.
         12    1    1    2    0    0  0.24619021577E+02  0.82101988597E+01 -0.36818609175E+02  0.45045683148E+02  0.00000000000E+00 0. -1.
         11    1    3    3    0    0 -0.48409581544E+01  0.11618031839E+01  0.55482484826E+01  0.74543761628E+01  0.51100000000E-03 0. -1.
        -11    1    3    3    0    0 -0.67232597870E+01 -0.13313233638E+01  0.58951903619E+01  0.90403492039E+01  0.51100000000E-03 0.  1.
         12    1    3    3    0    0 -0.13054803635E+02 -0.80406786797E+01  0.25375170330E+02  0.29647591485E+02  0.00000000000E+00 0. -1.
</event>
<event>
 7    1  0.2438448E-008  0.4614232E+02  0.7816164E-02  0.1320468E+00
        -11   -1    0    0    0    0  0.00000000000E+00  0.00000000000E+00  0.45593999997E+02  0.45594000000E+02  0.51100000000E-03 0.  1.
         11   -1    0    0    0    0 -0.00000000000E+00 -0.00000000000E+00 -0.45593999997E+02  0.45594000000E+02  0.51100000000E-03 0. -1.
    9900012    2    1    2    0    0  0.16058188479E+02 -0.19578905419E+02  0.37254725505E+02  0.46142317331E+02  0.99999960809E+01 0.  0.
         12    1    1    2    0    0 -0.16058188479E+02  0.19578905419E+02 -0.37254725505E+02  0.45045682669E+02  0.00000000000E+00 0. -1.
         11    1    3    3    0    0  0.34143815784E+01 -0.55609688322E+01  0.84655570753E+01  0.10688687140E+02  0.51100000000E-03 0. -1.
        -11    1    3    3    0    0  0.12979732892E+02 -0.10021468911E+02  0.25234090595E+02  0.30094229239E+02  0.51100000000E-03 0.  1.
        -12    1    3    3    0    0 -0.33592599146E+00 -0.39964676764E+01  0.35550778346E+01  0.53594009525E+01  0.00000000000E+00 0.  1.
</event>
<event>
 7    1  0.2438448E-008  0.4614232E+02  0.7816164E-02  0.1320468E+00
        -11   -1    0    0    0    0  0.00000000000E+00  0.00000000000E+00  0.45593999997E+02  0.45594000000E+02  0.51100000000E-03 0.  1.
         11   -1    0    0    0    0 -0.00000000000E+00 -0.00000000000E+00 -0.45593999997E+02  0.45594000000E+02  0.51100000000E-03 0. -1.
    9900012    2    1    2    0    0 -0.17545216998E+02 -0.54161920595E+01  0.41133243568E+02  0.46142317605E+02  0.99999985794E+01 0.  0.
         12    1    1    2    0    0  0.17545216998E+02  0.54161920595E+01 -0.41133243568E+02  0.45045682395E+02  0.00000000000E+00 0. -1.
         11    1    3    3    0    0 -0.22041677287E+01  0.18976067994E-01  0.14929005136E+02  0.15090855181E+02  0.51100000000E-03 0. -1.
        -11    1    3    3    0    0 -0.17147645673E+00 -0.13463274268E+00 -0.90035497194E-01  0.23587454821E+00  0.51100000000E-03 0.  1.
        -12    1    3    3    0    0 -0.15169572813E+02 -0.53005353848E+01  0.26294273929E+02  0.30815587876E+02  0.00000000000E+00 0.  1.
</event>
<event>
 7    1  0.2438448E-008  0.4614232E+02  0.7816164E-02  0.1320468E+00
        -11   -1    0    0    0    0  0.00000000000E+00  0.00000000000E+00  0.45593999997E+02  0.45594000000E+02  0.51100000000E-03 0.  1.
         11   -1    0    0    0    0 -0.00000000000E+00 -0.00000000000E+00 -0.45593999997E+02  0.45594000000E+02  0.51100000000E-03 0. -1.
    9900012    2    1    2    0    0  0.86188401064E+01 -0.25629293395E+02  0.36027329325E+02  0.46142317155E+02  0.99999944716E+01 0.  0.
         12    1    1    2    0    0 -0.86188401064E+01  0.25629293395E+02 -0.36027329325E+02  0.45045682845E+02  0.00000000000E+00 0. -1.
         11    1    3    3    0    0  0.12631831338E+01 -0.70801086748E+01  0.10612884010E+02  0.12820174638E+02  0.51100000000E-03 0. -1.
        -11    1    3    3    0    0  0.80810832777E+00 -0.73280363991E+01  0.14841898415E+02  0.16572118313E+02  0.51100000000E-03 0.  1.
         12    1    3    3    0    0  0.65475486449E+01 -0.11221148321E+02  0.10572546899E+02  0.16750024204E+02  0.00000000000E+00 0. -1.
</event>
<event>
 7    1  0.2438448E-008  0.4614232E+02  0.7816164E-02  0.1320468E+00
        -11   -1    0    0    0    0  0.00000000000E+00  0.00000000000E+00  0.45593999997E+02  0.45594000000E+02  0.51100000000E-03 0.  1.
         11   -1    0    0    0    0 -0.00000000000E+00 -0.00000000000E+00 -0.45593999997E+02  0.45594000000E+02  0.51100000000E-03 0. -1.
    9900012    2    1    2    0    0 -0.31669190387E+02 -0.17145547306E+02  0.27059306912E+02  0.46142317602E+02  0.99999985492E+01 0.  0.
         12    1    1    2    0    0  0.31669190387E+02  0.17145547306E+02 -0.27059306912E+02  0.45045682398E+02  0.00000000000E+00 0. -1.
         11    1    3    3    0    0 -0.11004697734E+02 -0.24768066319E+01  0.97780459802E+01  0.14928098564E+02  0.51100000000E-03 0. -1.
        -11    1    3    3    0    0 -0.15029865999E+01  0.40900716381E+00  0.58851276354E+00  0.16651135437E+01  0.51100000000E-03 0.  1.
        -12    1    3    3    0    0 -0.19161506053E+02 -0.15077747838E+02  0.16692748168E+02  0.29549105494E+02  0.00000000000E+00 0.  1.
</event>
<event>
 7    1  0.2438448E-008  0.4614232E+02  0.7816164E-02  0.1320468E+00
        -11   -1    0    0    0    0  0.00000000000E+00  0.00000000000E+00  0.45593999997E+02  0.45594000000E+02  0.51100000000E-03 0.  1.
         11   -1    0    0    0    0 -0.00000000000E+00 -0.00000000000E+00 -0.45593999997E+02  0.45594000000E+02  0.51100000000E-03 0. -1.
    9900012    2    1    2    0    0 -0.25247273000E+02 -0.24470276470E+01  0.37225001919E+02  0.46142317564E+02  0.99999982051E+01 0.  0.
         12    1    1    2    0    0  0.25247273000E+02  0.24470276470E+01 -0.37225001919E+02  0.45045682436E+02  0.00000000000E+00 0. -1.
         11    1    3    3    0    0 -0.88408751241E+01  0.85963086240E+00  0.88678744219E+01  0.12551463469E+02  0.51100000000E-03 0. -1.
        -11    1    3    3    0    0 -0.10208167558E+02  0.96089135406E+00  0.13668904152E+02  0.17087098586E+02  0.51100000000E-03 0.  1.
        -12    1    3    3    0    0 -0.61982303173E+01 -0.42675498635E+01  0.14688223345E+02  0.16503755510E+02  0.00000000000E+00 0.  1.
</event>
<event>
 7    1  0.2438448E-008  0.4614232E+02  0.7816164E-02  0.1320468E+00
        -11   -1    0    0    0    0  0.00000000000E+00  0.00000000000E+00  0.45593999997E+02  0.45594000000E+02  0.51100000000E-03 0. -1.
         11   -1    0    0    0    0 -0.00000000000E+00 -0.00000000000E+00 -0.45593999997E+02  0.45594000000E+02  0.51100000000E-03 0.  1.
    9900012    2    1    2    0    0  0.32574944506E+02  0.26911498633E+02 -0.15612745132E+02  0.46142316757E+02  0.99999908445E+01 0.  0.
         12    1    1    2    0    0 -0.32574944506E+02 -0.26911498633E+02  0.15612745132E+02  0.45045683243E+02  0.00000000000E+00 0. -1.
         11    1    3    3    0    0  0.22556500387E+02  0.22995971134E+02 -0.10436631179E+02  0.33860503078E+02  0.51100000000E-03 0. -1.
        -11    1    3    3    0    0  0.98759088024E+01  0.42042791508E+01 -0.47249491722E+01  0.11727518186E+02  0.51100000000E-03 0.  1.
         12    1    3    3    0    0  0.14253531728E+00 -0.28875165250E+00 -0.45116478152E+00  0.55429549301E+00  0.00000000000E+00 0. -1.
</event>
<event>
 7    1  0.2438448E-008  0.4614232E+02  0.7816164E-02  0.1320468E+00
        -11   -1    0    0    0    0  0.00000000000E+00  0.00000000000E+00  0.45593999997E+02  0.45594000000E+02  0.51100000000E-03 0. -1.
         11   -1    0    0    0    0 -0.00000000000E+00 -0.00000000000E+00 -0.45593999997E+02  0.45594000000E+02  0.51100000000E-03 0.  1.
    9900012    2    1    2    0    0 -0.10661572522E+02 -0.25888358898E+02 -0.35287918552E+02  0.46142318178E+02  0.10000003803E+02 0.  0.
         12    1    1    2    0    0  0.10661572522E+02  0.25888358898E+02  0.35287918552E+02  0.45045681822E+02  0.00000000000E+00 0. -1.
         11    1    3    3    0    0 -0.20764410448E+01 -0.40544414636E+01 -0.28031459781E+01  0.53486195069E+01  0.51100000000E-03 0. -1.
        -11    1    3    3    0    0 -0.53864097679E+01 -0.20426524139E+02 -0.26862233269E+02  0.34173613725E+02  0.51100000000E-03 0.  1.
        -12    1    3    3    0    0 -0.31987217089E+01 -0.14073932961E+01 -0.56225393045E+01  0.66200849460E+01  0.00000000000E+00 0.  1.
</event>
<event>
 7    1  0.2438448E-008  0.4614232E+02  0.7816164E-02  0.1320468E+00
        -11   -1    0    0    0    0  0.00000000000E+00  0.00000000000E+00  0.45593999997E+02  0.45594000000E+02  0.51100000000E-03 0.  1.
         11   -1    0    0    0    0 -0.00000000000E+00 -0.00000000000E+00 -0.45593999997E+02  0.45594000000E+02  0.51100000000E-03 0. -1.
    9900012    2    1    2    0    0  0.33793959140E+02  0.46370271971E+01  0.29420738847E+02  0.46142316857E+02  0.99999917522E+01 0.  0.
         12    1    1    2    0    0 -0.33793959140E+02 -0.46370271971E+01 -0.29420738847E+02  0.45045683143E+02  0.00000000000E+00 0. -1.
         11    1    3    3    0    0  0.77734842729E+01  0.19264193635E+01  0.50995866831E+01  0.94944159328E+01  0.51100000000E-03 0.  1.
        -11    1    3    3    0    0  0.11494794430E+02  0.15956852012E+01  0.54867493290E+01  0.12836702408E+02  0.51100000000E-03 0. -1.
         12    1    3    3    0    0  0.14525680437E+02  0.11149226324E+01  0.18834402835E+02  0.23811198516E+02  0.00000000000E+00 0. -1.
</event>
<event>
 7    1  0.2438448E-008  0.4614232E+02  0.7816164E-02  0.1320468E+00
        -11   -1    0    0    0    0  0.00000000000E+00  0.00000000000E+00  0.45593999997E+02  0.45594000000E+02  0.51100000000E-03 0.  1.
         11   -1    0    0    0    0 -0.00000000000E+00 -0.00000000000E+00 -0.45593999997E+02  0.45594000000E+02  0.51100000000E-03 0. -1.
    9900012    2    1    2    0    0 -0.43479662998E+01  0.21529741850E+02  0.39327839934E+02  0.46142316644E+02  0.99999898144E+01 0.  0.
         12    1    1    2    0    0  0.43479662998E+01 -0.21529741850E+02 -0.39327839934E+02  0.45045683356E+02  0.00000000000E+00 0. -1.
         11    1    3    3    0    0  0.32691373815E+00  0.31164498375E+01  0.11274094340E+02  0.11701467243E+02  0.51100000000E-03 0. -1.
        -11    1    3    3    0    0 -0.44122266259E+01  0.15737499107E+02  0.26982462599E+02  0.31546630725E+02  0.51100000000E-03 0.  1.
        -12    1    3    3    0    0 -0.26265341212E+00  0.26757929063E+01  0.10712829958E+01  0.28942186768E+01  0.00000000000E+00 0.  1.
</event>
<event>
 7    1  0.2438448E-008  0.4614233E+02  0.7816164E-02  0.1320468E+00
        -11   -1    0    0    0    0  0.00000000000E+00  0.00000000000E+00  0.45593999997E+02  0.45594000000E+02  0.51100000000E-03 0.  1.
         11   -1    0    0    0    0 -0.00000000000E+00 -0.00000000000E+00 -0.45593999997E+02  0.45594000000E+02  0.51100000000E-03 0. -1.
    9900012    2    1    2    0    0 -0.58574234159E-01 -0.36609014664E+02  0.26246689170E+02  0.46142333416E+02  0.10000142752E+02 0.  0.
         12    1    1    2    0    0  0.58574234159E-01  0.36609014664E+02 -0.26246689170E+02  0.45045666584E+02  0.00000000000E+00 0. -1.
         11    1    3    3    0    0 -0.26959001388E+01 -0.24367363618E+01  0.26413411901E+01  0.44924653809E+01  0.51100000000E-03 0. -1.
        -11    1    3    3    0    0  0.97138028306E+00 -0.58960649685E+01  0.45684536147E+01  0.75218302599E+01  0.51100000000E-03 0.  1.
        -12    1    3    3    0    0  0.16659456215E+01 -0.28276213334E+02  0.19036894365E+02  0.34128037775E+02  0.00000000000E+00 0.  1.
</event>
<event>
 7    1  0.2438448E-008  0.4614232E+02  0.7816164E-02  0.1320468E+00
        -11   -1    0    0    0    0  0.00000000000E+00  0.00000000000E+00  0.45593999997E+02  0.45594000000E+02  0.51100000000E-03 0.  1.
         11   -1    0    0    0    0 -0.00000000000E+00 -0.00000000000E+00 -0.45593999997E+02  0.45594000000E+02  0.51100000000E-03 0. -1.
    9900012    2    1    2    0    0  0.25788889411E+02  0.32192700122E+02  0.18101845669E+02  0.46142316802E+02  0.99999912523E+01 0.  0.
         12    1    1    2    0    0 -0.25788889411E+02 -0.32192700122E+02 -0.18101845669E+02  0.45045683198E+02  0.00000000000E+00 0. -1.
         11    1    3    3    0    0  0.99438385449E+01  0.94404577671E+01  0.33591529655E+01  0.14116872060E+02  0.51100000000E-03 0.  1.
        -11    1    3    3    0    0  0.83521633854E+01  0.83836123615E+01  0.36374541081E+01  0.12380414456E+02  0.51100000000E-03 0. -1.
         12    1    3    3    0    0  0.74928874806E+01  0.14368629993E+02  0.11105238595E+02  0.19645030286E+02  0.00000000000E+00 0. -1.
</event>
<event>
 7    1  0.2438448E-008  0.4614232E+02  0.7816164E-02  0.1320468E+00
        -11   -1    0    0    0    0  0.00000000000E+00  0.00000000000E+00  0.45593999997E+02  0.45594000000E+02  0.51100000000E-03 0.  1.
         11   -1    0    0    0    0 -0.00000000000E+00 -0.00000000000E+00 -0.45593999997E+02  0.45594000000E+02  0.51100000000E-03 0. -1.
    9900012    2    1    2    0    0 -0.28124082406E+02 -0.31724871471E+02  0.15221102367E+02  0.46142318317E+02  0.10000005069E+02 0.  0.
         12    1    1    2    0    0  0.28124082406E+02  0.31724871471E+02 -0.15221102367E+02  0.45045681683E+02  0.00000000000E+00 0. -1.
         11    1    3    3    0    0 -0.57548430457E+01 -0.58044302819E+01 -0.33358727974E+00  0.81805201615E+01  0.51100000000E-03 0. -1.
        -11    1    3    3    0    0 -0.11679270198E+02 -0.16497486878E+02  0.72849749127E+01  0.21485885725E+02  0.51100000000E-03 0.  1.
        -12    1    3    3    0    0 -0.10689969162E+02 -0.94229543109E+01  0.82697147336E+01  0.16475912430E+02  0.00000000000E+00 0.  1.
</event>
<event>
 7    1  0.2438448E-008  0.4614232E+02  0.7816164E-02  0.1320468E+00
        -11   -1    0    0    0    0  0.00000000000E+00  0.00000000000E+00  0.45593999997E+02  0.45594000000E+02  0.51100000000E-03 0.  1.
         11   -1    0    0    0    0 -0.00000000000E+00 -0.00000000000E+00 -0.45593999997E+02  0.45594000000E+02  0.51100000000E-03 0. -1.
    9900012    2    1    2    0    0  0.80070136845E+01 -0.41877839801E+02  0.14534365412E+02  0.46142317494E+02  0.99999975631E+01 0.  0.
         12    1    1    2    0    0 -0.80070136845E+01  0.41877839801E+02 -0.14534365412E+02  0.45045682506E+02  0.00000000000E+00 0. -1.
         11    1    3    3    0    0  0.44666584492E+01 -0.13158190113E+02  0.22855643555E+01  0.14082358092E+02  0.51100000000E-03 0. -1.
        -11    1    3    3    0    0  0.26185103518E+01 -0.34622456340E+01  0.21307423478E+01  0.48356803561E+01  0.51100000000E-03 0.  1.
        -12    1    3    3    0    0  0.92184488343E+00 -0.25257404054E+02  0.10118058709E+02  0.27224279046E+02  0.00000000000E+00 0.  1.
</event>
<event>
 7    1  0.2438448E-008  0.4614232E+02  0.7816164E-02  0.1320468E+00
        -11   -1    0    0    0    0  0.00000000000E+00  0.00000000000E+00  0.45593999997E+02  0.45594000000E+02  0.51100000000E-03 0. -1.
         11   -1    0    0    0    0 -0.00000000000E+00 -0.00000000000E+00 -0.45593999997E+02  0.45594000000E+02  0.51100000000E-03 0.  1.
    9900012    2    1    2    0    0 -0.40553242141E+02  0.10402166251E+02 -0.16623569478E+02  0.46142316821E+02  0.99999914293E+01 0.  0.
         12    1    1    2    0    0  0.40553242141E+02 -0.10402166251E+02  0.16623569478E+02  0.45045683179E+02  0.00000000000E+00 0. -1.
         11    1    3    3    0    0 -0.22180320723E+01  0.14805021004E+01 -0.32662584649E+01  0.42166334158E+01  0.51100000000E-03 0. -1.
        -11    1    3    3    0    0 -0.17831569893E+02  0.13546717208E+01 -0.62506012046E+01  0.18943865392E+02  0.51100000000E-03 0.  1.
        -12    1    3    3    0    0 -0.20503640176E+02  0.75669924298E+01 -0.71067098083E+01  0.22981818013E+02  0.00000000000E+00 0.  1.
</event>
<event>
 7    1  0.2438448E-008  0.4614232E+02  0.7816164E-02  0.1320468E+00
        -11   -1    0    0    0    0  0.00000000000E+00  0.00000000000E+00  0.45593999997E+02  0.45594000000E+02  0.51100000000E-03 0.  1.
         11   -1    0    0    0    0 -0.00000000000E+00 -0.00000000000E+00 -0.45593999997E+02  0.45594000000E+02  0.51100000000E-03 0. -1.
    9900012    2    1    2    0    0  0.94476210124E+00  0.24453826033E+02  0.37818397013E+02  0.46142319456E+02  0.10000015454E+02 0.  0.
         12    1    1    2    0    0 -0.94476210124E+00 -0.24453826033E+02 -0.37818397013E+02  0.45045680544E+02  0.00000000000E+00 0. -1.
         11    1    3    3    0    0 -0.65611868620E+00  0.28694022064E+01  0.49371290946E+01  0.57479739657E+01  0.51100000000E-03 0. -1.
        -11    1    3    3    0    0 -0.15654721474E+01  0.19183461972E+02  0.29230060482E+02  0.34997890684E+02  0.51100000000E-03 0.  1.
         12    1    3    3    0    0  0.31663529349E+01  0.24009618544E+01  0.36512074358E+01  0.53964548060E+01  0.00000000000E+00 0. -1.
</event>
<event>
 7    1  0.2438448E-008  0.4614232E+02  0.7816164E-02  0.1320468E+00
        -11   -1    0    0    0    0  0.00000000000E+00  0.00000000000E+00  0.45593999997E+02  0.45594000000E+02  0.51100000000E-03 0.  1.
         11   -1    0    0    0    0 -0.00000000000E+00 -0.00000000000E+00 -0.45593999997E+02  0.45594000000E+02  0.51100000000E-03 0. -1.
    9900012    2    1    2    0    0  0.47149278071E-01 -0.43601272948E+02  0.11315485933E+02  0.46142318213E+02  0.10000004118E+02 0.  0.
         12    1    1    2    0    0 -0.47149278071E-01  0.43601272948E+02 -0.11315485933E+02  0.45045681787E+02  0.00000000000E+00 0. -1.
         11    1    3    3    0    0 -0.76997624290E+00 -0.30556630967E+02  0.62925122585E+01  0.31207311167E+02  0.51100000000E-03 0. -1.
        -11    1    3    3    0    0 -0.27371942263E+00 -0.95218687619E+01  0.11629972835E+01  0.95965342694E+01  0.51100000000E-03 0.  1.
        -12    1    3    3    0    0  0.10908449436E+01 -0.35227732196E+01  0.38599763910E+01  0.53384727767E+01  0.00000000000E+00 0.  1.
</event>
<event>
 7    1  0.2438448E-008  0.4614232E+02  0.7816164E-02  0.1320468E+00
        -11   -1    0    0    0    0  0.00000000000E+00  0.00000000000E+00  0.45593999997E+02  0.45594000000E+02  0.51100000000E-03 0.  1.
         11   -1    0    0    0    0 -0.00000000000E+00 -0.00000000000E+00 -0.45593999997E+02  0.45594000000E+02  0.51100000000E-03 0. -1.
    9900012    2    1    2    0    0  0.13133460304E+02  0.33506109138E+02  0.27091814756E+02  0.46142317012E+02  0.99999931648E+01 0.  0.
         12    1    1    2    0    0 -0.13133460304E+02 -0.33506109138E+02 -0.27091814756E+02  0.45045682988E+02  0.00000000000E+00 0. -1.
         11    1    3    3    0    0  0.66631688368E+01  0.12103340300E+02  0.86164315233E+01  0.16282860861E+02  0.51100000000E-03 0.  1.
        -11    1    3    3    0    0  0.63403724797E+01  0.16739590600E+02  0.17618842773E+02  0.25116485374E+02  0.51100000000E-03 0. -1.
         12    1    3    3    0    0  0.12991898697E+00  0.46631782381E+01  0.85654045975E+00  0.47429707761E+01  0.00000000000E+00 0. -1.
</event>
<event>
 7    1  0.2438448E-008  0.4614232E+02  0.7816164E-02  0.1320468E+00
        -11   -1    0    0    0    0  0.00000000000E+00  0.00000000000E+00  0.45593999997E+02  0.45594000000E+02  0.51100000000E-03 0. -1.
         11   -1    0    0    0    0 -0.00000000000E+00 -0.00000000000E+00 -0.45593999997E+02  0.45594000000E+02  0.51100000000E-03 0.  1.
    9900012    2    1    2    0    0 -0.11486337189E+02 -0.32111541445E+02 -0.29428327011E+02  0.46142318002E+02  0.10000002200E+02 0.  0.
         12    1    1    2    0    0  0.11486337189E+02  0.32111541445E+02  0.29428327011E+02  0.45045681998E+02  0.00000000000E+00 0. -1.
         11    1    3    3    0    0 -0.14418460880E+01 -0.45929725746E+01 -0.15262324944E+01  0.50501191175E+01  0.51100000000E-03 0. -1.
        -11    1    3    3    0    0 -0.41573648279E+01 -0.17931971346E+02 -0.13552925201E+02  0.22858719571E+02  0.51100000000E-03 0.  1.
         12    1    3    3    0    0 -0.58871262727E+01 -0.95865975246E+01 -0.14349169316E+02  0.18233479314E+02  0.00000000000E+00 0. -1.
</event>
<event>
 7    1  0.2438448E-008  0.4614232E+02  0.7816164E-02  0.1320468E+00
        -11   -1    0    0    0    0  0.00000000000E+00  0.00000000000E+00  0.45593999997E+02  0.45594000000E+02  0.51100000000E-03 0.  1.
         11   -1    0    0    0    0 -0.00000000000E+00 -0.00000000000E+00 -0.45593999997E+02  0.45594000000E+02  0.51100000000E-03 0. -1.
    9900012    2    1    2    0    0  0.26872440632E+02  0.35620377766E+02  0.61785061523E+01  0.46142319674E+02  0.10000017444E+02 0.  0.
         12    1    1    2    0    0 -0.26872440632E+02 -0.35620377766E+02 -0.61785061523E+01  0.45045680326E+02  0.00000000000E+00 0. -1.
         11    1    3    3    0    0  0.51124522612E+01  0.40590031678E+01  0.20881195637E+01  0.68536791880E+01  0.51100000000E-03 0. -1.
        -11    1    3    3    0    0  0.10698722936E+02  0.91627232725E+01  0.10929128725E+01  0.14128433354E+02  0.51100000000E-03 0.  1.
        -12    1    3    3    0    0  0.11061265435E+02  0.22398651326E+02  0.29974737161E+01  0.25160207132E+02  0.00000000000E+00 0.  1.
</event>
<event>
 7    1  0.2438448E-008  0.4614232E+02  0.7816164E-02  0.1320468E+00
        -11   -1    0    0    0    0  0.00000000000E+00  0.00000000000E+00  0.45593999997E+02  0.45594000000E+02  0.51100000000E-03 0.  1.
         11   -1    0    0    0    0 -0.00000000000E+00 -0.00000000000E+00 -0.45593999997E+02  0.45594000000E+02  0.51100000000E-03 0. -1.
    9900012    2    1    2    0    0  0.88027470233E+01  0.17285896653E+02  0.40654924955E+02  0.46142317617E+02  0.99999986829E+01 0.  0.
         12    1    1    2    0    0 -0.88027470233E+01 -0.17285896653E+02 -0.40654924955E+02  0.45045682383E+02  0.00000000000E+00 0. -1.
         11    1    3    3    0    0  0.25533675376E+01 -0.90277693673E-01  0.25269060132E+01  0.35934788304E+01  0.51100000000E-03 0.  1.
        -11    1    3    3    0    0  0.26021626605E+01  0.82918079386E+01  0.13600329942E+02  0.16139835941E+02  0.51100000000E-03 0. -1.
        -12    1    3    3    0    0  0.36472168251E+01  0.90843664085E+01  0.24527689000E+02  0.26409002845E+02  0.00000000000E+00 0.  1.
</event>
<event>
 7    1  0.2438448E-008  0.4614232E+02  0.7816164E-02  0.1320468E+00
        -11   -1    0    0    0    0  0.00000000000E+00  0.00000000000E+00  0.45593999997E+02  0.45594000000E+02  0.51100000000E-03 0.  1.
         11   -1    0    0    0    0 -0.00000000000E+00 -0.00000000000E+00 -0.45593999997E+02  0.45594000000E+02  0.51100000000E-03 0. -1.
    9900012    2    1    2    0    0 -0.21763582090E+02  0.37161656979E+02  0.13208757961E+02  0.46142317170E+02  0.99999946065E+01 0.  0.
         12    1    1    2    0    0  0.21763582090E+02 -0.37161656979E+02 -0.13208757961E+02  0.45045682830E+02  0.00000000000E+00 0. -1.
         11    1    3    3    0    0 -0.51515485326E+01  0.41026832626E+01  0.26619207380E+01  0.71032587249E+01  0.51100000000E-03 0. -1.
        -11    1    3    3    0    0 -0.91404143665E+01  0.14405567289E+02  0.77958572796E+01  0.18757476768E+02  0.51100000000E-03 0.  1.
        -12    1    3    3    0    0 -0.74716191905E+01  0.18653406427E+02  0.27509799433E+01  0.20281581677E+02  0.00000000000E+00 0.  1.
</event>
<event>
 7    1  0.2438448E-008  0.4614232E+02  0.7816164E-02  0.1320468E+00
        -11   -1    0    0    0    0  0.00000000000E+00  0.00000000000E+00  0.45593999997E+02  0.45594000000E+02  0.51100000000E-03 0.  1.
         11   -1    0    0    0    0 -0.00000000000E+00 -0.00000000000E+00 -0.45593999997E+02  0.45594000000E+02  0.51100000000E-03 0. -1.
    9900012    2    1    2    0    0 -0.12778745398E+02 -0.38277840392E+02  0.20015596726E+02  0.46142317506E+02  0.99999976761E+01 0.  0.
         12    1    1    2    0    0  0.12778745398E+02  0.38277840392E+02 -0.20015596726E+02  0.45045682494E+02  0.00000000000E+00 0. -1.
         11    1    3    3    0    0 -0.55786856592E+01 -0.24635193954E+02  0.92911046370E+01  0.26913549385E+02  0.51100000000E-03 0. -1.
        -11    1    3    3    0    0 -0.55488091402E+01 -0.13087913191E+02  0.96640010095E+01  0.17189405759E+02  0.51100000000E-03 0.  1.
        -12    1    3    3    0    0 -0.16512505992E+01 -0.55473324661E+00  0.10604910800E+01  0.20393623628E+01  0.00000000000E+00 0.  1.
</event>
<event>
 7    1  0.2438448E-008  0.4614231E+02  0.7816164E-02  0.1320468E+00
        -11   -1    0    0    0    0  0.00000000000E+00  0.00000000000E+00  0.45593999997E+02  0.45594000000E+02  0.51100000000E-03 0.  1.
         11   -1    0    0    0    0 -0.00000000000E+00 -0.00000000000E+00 -0.45593999997E+02  0.45594000000E+02  0.51100000000E-03 0. -1.
    9900012    2    1    2    0    0  0.19125637817E+02 -0.24784344769E+01  0.40708491410E+02  0.46142312834E+02  0.99999550694E+01 0.  0.
         12    1    1    2    0    0 -0.19125637817E+02  0.24784344769E+01 -0.40708491410E+02  0.45045687166E+02  0.00000000000E+00 0. -1.
         11    1    3    3    0    0  0.77435875607E+01 -0.11383225405E+01  0.76419376932E+01  0.10938836249E+02  0.51100000000E-03 0. -1.
        -11    1    3    3    0    0  0.39959460204E+01  0.11326254347E+01  0.91008125718E+01  0.10003760028E+02  0.51100000000E-03 0.  1.
         12    1    3    3    0    0  0.73861042363E+01 -0.24727373711E+01  0.23965741145E+02  0.25199716557E+02  0.00000000000E+00 0. -1.
</event>
<event>
 7    1  0.2438448E-008  0.4614232E+02  0.7816164E-02  0.1320468E+00
        -11   -1    0    0    0    0  0.00000000000E+00  0.00000000000E+00  0.45593999997E+02  0.45594000000E+02  0.51100000000E-03 0.  1.
         11   -1    0    0    0    0 -0.00000000000E+00 -0.00000000000E+00 -0.45593999997E+02  0.45594000000E+02  0.51100000000E-03 0. -1.
    9900012    2    1    2    0    0  0.34135137006E+02 -0.26113082575E+02  0.13491212959E+02  0.46142317776E+02  0.10000000134E+02 0.  0.
         12    1    1    2    0    0 -0.34135137006E+02  0.26113082575E+02 -0.13491212959E+02  0.45045682224E+02  0.00000000000E+00 0. -1.
         11    1    3    3    0    0 -0.27641667296E+00  0.46711974898E+00 -0.30387690153E-01  0.54362736301E+00  0.51100000000E-03 0. -1.
        -11    1    3    3    0    0  0.27246137561E+02 -0.21041803236E+02  0.11713309101E+02  0.36363595886E+02  0.51100000000E-03 0.  1.
         12    1    3    3    0    0  0.71654161176E+01 -0.55383990882E+01  0.18082915475E+01  0.92350945268E+01  0.00000000000E+00 0. -1.
</event>
<event>
 7    1  0.2438448E-008  0.4614232E+02  0.7816164E-02  0.1320468E+00
        -11   -1    0    0    0    0  0.00000000000E+00  0.00000000000E+00  0.45593999997E+02  0.45594000000E+02  0.51100000000E-03 0.  1.
         11   -1    0    0    0    0 -0.00000000000E+00 -0.00000000000E+00 -0.45593999997E+02  0.45594000000E+02  0.51100000000E-03 0. -1.
    9900012    2    1    2    0    0 -0.93601668250E+01  0.22418647216E+02  0.37932903901E+02  0.46142315808E+02  0.99999821900E+01 0.  0.
         12    1    1    2    0    0  0.93601668250E+01 -0.22418647216E+02 -0.37932903901E+02  0.45045684192E+02  0.00000000000E+00 0. -1.
         11    1    3    3    0    0 -0.65521034224E+00  0.76943465901E+01  0.12487555790E+02  0.14682347220E+02  0.51100000000E-03 0. -1.
        -11    1    3    3    0    0 -0.44705073641E+01  0.13299984020E+02  0.19122841669E+02  0.23718306954E+02  0.51100000000E-03 0.  1.
         12    1    3    3    0    0 -0.42344491186E+01  0.14243166059E+01  0.63225064424E+01  0.77416616334E+01  0.00000000000E+00 0. -1.
</event>
<event>
 7    1  0.2438448E-008  0.4614232E+02  0.7816164E-02  0.1320468E+00
        -11   -1    0    0    0    0  0.00000000000E+00  0.00000000000E+00  0.45593999997E+02  0.45594000000E+02  0.51100000000E-03 0.  1.
         11   -1    0    0    0    0 -0.00000000000E+00 -0.00000000000E+00 -0.45593999997E+02  0.45594000000E+02  0.51100000000E-03 0. -1.
    9900012    2    1    2    0    0 -0.11734444891E+02  0.65029699965E+00  0.43485554565E+02  0.46142317200E+02  0.99999948815E+01 0.  0.
         12    1    1    2    0    0  0.11734444891E+02 -0.65029699965E+00 -0.43485554565E+02  0.45045682800E+02  0.00000000000E+00 0. -1.
         11    1    3    3    0    0 -0.29340147005E+01  0.68575034948E+00  0.29646794512E+01  0.42270581158E+01  0.51100000000E-03 0. -1.
        -11    1    3    3    0    0 -0.51149254211E+00  0.17561875648E+01  0.12686393542E+02  0.12817581705E+02  0.51100000000E-03 0.  1.
         12    1    3    3    0    0 -0.82889376481E+01 -0.17916409147E+01  0.27834481572E+02  0.29097677379E+02  0.00000000000E+00 0. -1.
</event>
<event>
 7    1  0.2438448E-008  0.4614232E+02  0.7816164E-02  0.1320468E+00
        -11   -1    0    0    0    0  0.00000000000E+00  0.00000000000E+00  0.45593999997E+02  0.45594000000E+02  0.51100000000E-03 0.  1.
         11   -1    0    0    0    0 -0.00000000000E+00 -0.00000000000E+00 -0.45593999997E+02  0.45594000000E+02  0.51100000000E-03 0. -1.
    9900012    2    1    2    0    0  0.14746039778E+02 -0.24141452734E+02  0.35055072192E+02  0.46142317459E+02  0.99999972465E+01 0.  0.
         12    1    1    2    0    0 -0.14746039778E+02  0.24141452734E+02 -0.35055072192E+02  0.45045682541E+02  0.00000000000E+00 0. -1.
         11    1    3    3    0    0  0.64517270809E+01 -0.62984914367E+01  0.64833604911E+01  0.11105392394E+02  0.51100000000E-03 0. -1.
        -11    1    3    3    0    0  0.37745246235E+01 -0.43156232155E+01  0.57139686633E+01  0.80945091277E+01  0.51100000000E-03 0.  1.
        -12    1    3    3    0    0  0.45197880732E+01 -0.13527338081E+02  0.22857743037E+02  0.26942415937E+02  0.00000000000E+00 0.  1.
</event>
<event>
 7    1  0.2438448E-008  0.4614232E+02  0.7816164E-02  0.1320468E+00
        -11   -1    0    0    0    0  0.00000000000E+00  0.00000000000E+00  0.45593999997E+02  0.45594000000E+02  0.51100000000E-03 0.  1.
         11   -1    0    0    0    0 -0.00000000000E+00 -0.00000000000E+00 -0.45593999997E+02  0.45594000000E+02  0.51100000000E-03 0. -1.
    9900012    2    1    2    0    0 -0.40530059333E+02  0.17858282896E+01  0.19576479886E+02  0.46142318110E+02  0.10000003183E+02 0.  0.
         12    1    1    2    0    0  0.40530059333E+02 -0.17858282896E+01 -0.19576479886E+02  0.45045681890E+02  0.00000000000E+00 0. -1.
         11    1    3    3    0    0 -0.13288817694E+01  0.14343986189E+01  0.10684574938E+01  0.22282342408E+01  0.51100000000E-03 0. -1.
        -11    1    3    3    0    0 -0.32900215045E+02 -0.88997429268E+00  0.12772717614E+02  0.35303803191E+02  0.51100000000E-03 0.  1.
        -12    1    3    3    0    0 -0.63009625185E+01  0.12414039634E+01  0.57353047785E+01  0.86102806785E+01  0.00000000000E+00 0.  1.
</event>
<event>
 7    1  0.2438448E-008  0.4614232E+02  0.7816164E-02  0.1320468E+00
        -11   -1    0    0    0    0  0.00000000000E+00  0.00000000000E+00  0.45593999997E+02  0.45594000000E+02  0.51100000000E-03 0.  1.
         11   -1    0    0    0    0 -0.00000000000E+00 -0.00000000000E+00 -0.45593999997E+02  0.45594000000E+02  0.51100000000E-03 0. -1.
    9900012    2    1    2    0    0 -0.14468774263E+02 -0.49823765455E+01  0.42366780888E+02  0.46142316217E+02  0.99999859190E+01 0.  0.
         12    1    1    2    0    0  0.14468774263E+02  0.49823765455E+01 -0.42366780888E+02  0.45045683783E+02  0.00000000000E+00 0. -1.
         11    1    3    3    0    0 -0.80641315934E+01 -0.82549591905E+00  0.31128411595E+02  0.32166592461E+02  0.51100000000E-03 0. -1.
        -11    1    3    3    0    0 -0.26801567821E+01  0.61048737710E-01  0.36345335629E+01  0.45162818563E+01  0.51100000000E-03 0.  1.
         12    1    3    3    0    0 -0.37244858874E+01 -0.42179293641E+01  0.76038357293E+01  0.94594418992E+01  0.00000000000E+00 0. -1.
</event>
<event>
 7    1  0.2438448E-008  0.4614232E+02  0.7816164E-02  0.1320468E+00
        -11   -1    0    0    0    0  0.00000000000E+00  0.00000000000E+00  0.45593999997E+02  0.45594000000E+02  0.51100000000E-03 0.  1.
         11   -1    0    0    0    0 -0.00000000000E+00 -0.00000000000E+00 -0.45593999997E+02  0.45594000000E+02  0.51100000000E-03 0. -1.
    9900012    2    1    2    0    0 -0.89695898437E+01  0.12885560884E+02  0.42221112450E+02  0.46142316991E+02  0.99999929756E+01 0.  0.
         12    1    1    2    0    0  0.89695898437E+01 -0.12885560884E+02 -0.42221112450E+02  0.45045683009E+02  0.00000000000E+00 0. -1.
         11    1    3    3    0    0  0.87366963964E+00  0.37687598051E+01  0.59439097574E+01  0.70920316252E+01  0.51100000000E-03 0. -1.
        -11    1    3    3    0    0 -0.15912428597E+01  0.47902884119E+01  0.10758333305E+02  0.11883629609E+02  0.51100000000E-03 0.  1.
        -12    1    3    3    0    0 -0.82520166236E+01  0.43265126674E+01  0.25518869387E+02  0.27166655757E+02  0.00000000000E+00 0.  1.
</event>
<event>
 7    1  0.2438448E-008  0.4614232E+02  0.7816164E-02  0.1320468E+00
        -11   -1    0    0    0    0  0.00000000000E+00  0.00000000000E+00  0.45593999997E+02  0.45594000000E+02  0.51100000000E-03 0.  1.
         11   -1    0    0    0    0 -0.00000000000E+00 -0.00000000000E+00 -0.45593999997E+02  0.45594000000E+02  0.51100000000E-03 0. -1.
    9900012    2    1    2    0    0 -0.40591630657E+02  0.19503819810E+02 -0.10168725272E+01  0.46142317673E+02  0.99999991966E+01 0.  0.
         12    1    1    2    0    0  0.40591630657E+02 -0.19503819810E+02  0.10168725272E+01  0.45045682327E+02  0.00000000000E+00 0. -1.
         11    1    3    3    0    0 -0.13729222819E+02  0.10601840347E+02 -0.92899854247E+00  0.17371056862E+02  0.51100000000E-03 0.  1.
        -11    1    3    3    0    0 -0.14535041559E+01  0.11213048692E+01 -0.11679720994E+01  0.21758120385E+01  0.51100000000E-03 0. -1.
        -12    1    3    3    0    0 -0.25408903682E+02  0.77806745937E+01  0.10800981146E+01  0.26595448773E+02  0.00000000000E+00 0.  1.
</event>
<event>
 7    1  0.2438448E-008  0.4614232E+02  0.7816164E-02  0.1320468E+00
        -11   -1    0    0    0    0  0.00000000000E+00  0.00000000000E+00  0.45593999997E+02  0.45594000000E+02  0.51100000000E-03 0.  1.
         11   -1    0    0    0    0 -0.00000000000E+00 -0.00000000000E+00 -0.45593999997E+02  0.45594000000E+02  0.51100000000E-03 0. -1.
    9900012    2    1    2    0    0  0.33811323700E+01 -0.42896625976E+02 -0.13325198023E+02  0.46142317870E+02  0.10000000994E+02 0.  0.
         12    1    1    2    0    0 -0.33811323700E+01  0.42896625976E+02  0.13325198023E+02  0.45045682130E+02  0.00000000000E+00 0. -1.
         11    1    3    3    0    0  0.43612523347E+00 -0.14123973438E+02 -0.70091906414E+01  0.15773572348E+02  0.51100000000E-03 0. -1.
        -11    1    3    3    0    0  0.25884540481E+01 -0.13404003108E+02 -0.62047864329E+01  0.14995558296E+02  0.51100000000E-03 0.  1.
        -12    1    3    3    0    0  0.35655308843E+00 -0.15368649429E+02 -0.11122094885E+00  0.15373187226E+02  0.00000000000E+00 0.  1.
</event>
<event>
 7    1  0.2438448E-008  0.4614232E+02  0.7816164E-02  0.1320468E+00
        -11   -1    0    0    0    0  0.00000000000E+00  0.00000000000E+00  0.45593999997E+02  0.45594000000E+02  0.51100000000E-03 0.  1.
         11   -1    0    0    0    0 -0.00000000000E+00 -0.00000000000E+00 -0.45593999997E+02  0.45594000000E+02  0.51100000000E-03 0. -1.
    9900012    2    1    2    0    0 -0.13376327956E+02  0.42309161020E+02  0.77538436891E+01  0.46142319322E+02  0.10000014232E+02 0.  0.
         12    1    1    2    0    0  0.13376327956E+02 -0.42309161020E+02 -0.77538436891E+01  0.45045680678E+02  0.00000000000E+00 0. -1.
         11    1    3    3    0    0  0.82985684769E+00  0.98276814056E+01  0.12736659316E+01  0.99445567707E+01  0.51100000000E-03 0. -1.
        -11    1    3    3    0    0 -0.12074956747E+01  0.55465370022E+01  0.15731025368E+01  0.58903964530E+01  0.51100000000E-03 0.  1.
        -12    1    3    3    0    0 -0.12998689129E+02  0.26934942612E+02  0.49070752206E+01  0.30307366098E+02  0.00000000000E+00 0.  1.
</event>
<event>
 7    1  0.2438448E-008  0.4614232E+02  0.7816164E-02  0.1320468E+00
        -11   -1    0    0    0    0  0.00000000000E+00  0.00000000000E+00  0.45593999997E+02  0.45594000000E+02  0.51100000000E-03 0.  1.
         11   -1    0    0    0    0 -0.00000000000E+00 -0.00000000000E+00 -0.45593999997E+02  0.45594000000E+02  0.51100000000E-03 0. -1.
    9900012    2    1    2    0    0  0.28246678939E+02 -0.29905940279E+01  0.34961335372E+02  0.46142317690E+02  0.99999993528E+01 0.  0.
         12    1    1    2    0    0 -0.28246678939E+02  0.29905940279E+01 -0.34961335372E+02  0.45045682310E+02  0.00000000000E+00 0. -1.
         11    1    3    3    0    0  0.11592271596E+02 -0.30410896848E+01  0.11611938798E+02  0.16687303860E+02  0.51100000000E-03 0. -1.
        -11    1    3    3    0    0  0.11473672417E+02  0.33599115289E+00  0.10339911237E+02  0.15449006876E+02  0.51100000000E-03 0.  1.
        -12    1    3    3    0    0  0.51807349264E+01 -0.28549549598E+00  0.13009485337E+02  0.14006006954E+02  0.00000000000E+00 0.  1.
</event>
<event>
 7    1  0.2438448E-008  0.4614232E+02  0.7816164E-02  0.1320468E+00
        -11   -1    0    0    0    0  0.00000000000E+00  0.00000000000E+00  0.45593999997E+02  0.45594000000E+02  0.51100000000E-03 0. -1.
         11   -1    0    0    0    0 -0.00000000000E+00 -0.00000000000E+00 -0.45593999997E+02  0.45594000000E+02  0.51100000000E-03 0.  1.
    9900012    2    1    2    0    0  0.35374911875E+02  0.19459408980E+02  0.19976498269E+02  0.46142317953E+02  0.10000001747E+02 0.  0.
         12    1    1    2    0    0 -0.35374911875E+02 -0.19459408980E+02 -0.19976498269E+02  0.45045682047E+02  0.00000000000E+00 0. -1.
         11    1    3    3    0    0  0.32757569363E+01  0.22633633945E+01  0.47124137995E+01  0.61692982940E+01  0.51100000000E-03 0. -1.
        -11    1    3    3    0    0  0.18680208963E+02  0.88910802717E+01  0.11798010531E+02  0.23815846994E+02  0.51100000000E-03 0.  1.
         12    1    3    3    0    0  0.13418945976E+02  0.83049653136E+01  0.34660739381E+01  0.16157172664E+02  0.00000000000E+00 0. -1.
</event>
<event>
 7    1  0.2438448E-008  0.4614232E+02  0.7816164E-02  0.1320468E+00
        -11   -1    0    0    0    0  0.00000000000E+00  0.00000000000E+00  0.45593999997E+02  0.45594000000E+02  0.51100000000E-03 0.  1.
         11   -1    0    0    0    0 -0.00000000000E+00 -0.00000000000E+00 -0.45593999997E+02  0.45594000000E+02  0.51100000000E-03 0. -1.
    9900012    2    1    2    0    0 -0.17392113716E+02 -0.28072120452E+01  0.41457778796E+02  0.46142317835E+02  0.10000000677E+02 0.  0.
         12    1    1    2    0    0  0.17392113716E+02  0.28072120452E+01 -0.41457778796E+02  0.45045682165E+02  0.00000000000E+00 0. -1.
         11    1    3    3    0    0 -0.11120123150E+01 -0.83974253850E-01  0.27800968756E+00  0.11493096674E+01  0.51100000000E-03 0. -1.
        -11    1    3    3    0    0 -0.14815390807E+02 -0.16443713678E+01  0.28303520157E+02  0.31988888939E+02  0.51100000000E-03 0.  1.
        -12    1    3    3    0    0 -0.14647105941E+01 -0.10788664235E+01  0.12876248951E+02  0.13004119229E+02  0.00000000000E+00 0.  1.
</event>
<event>
 7    1  0.2438448E-008  0.4614232E+02  0.7816164E-02  0.1320468E+00
        -11   -1    0    0    0    0  0.00000000000E+00  0.00000000000E+00  0.45593999997E+02  0.45594000000E+02  0.51100000000E-03 0. -1.
         11   -1    0    0    0    0 -0.00000000000E+00 -0.00000000000E+00 -0.45593999997E+02  0.45594000000E+02  0.51100000000E-03 0.  1.
    9900012    2    1    2    0    0 -0.35424822569E+02  0.27672388694E+02 -0.29041921304E+01  0.46142317832E+02  0.10000000642E+02 0.  0.
         12    1    1    2    0    0  0.35424822569E+02 -0.27672388694E+02  0.29041921304E+01  0.45045682168E+02  0.00000000000E+00 0. -1.
         11    1    3    3    0    0 -0.97806045517E+01  0.57290888168E+01 -0.28437749513E+01  0.11686305674E+02  0.51100000000E-03 0. -1.
        -11    1    3    3    0    0 -0.16565874152E+02  0.10363688637E+02 -0.18756836920E+01  0.19630395263E+02  0.51100000000E-03 0.  1.
         12    1    3    3    0    0 -0.90783438654E+01  0.11579611240E+02  0.18152665129E+01  0.14825616895E+02  0.00000000000E+00 0. -1.
</event>
<event>
 7    1  0.2438448E-008  0.4614232E+02  0.7816164E-02  0.1320468E+00
        -11   -1    0    0    0    0  0.00000000000E+00  0.00000000000E+00  0.45593999997E+02  0.45594000000E+02  0.51100000000E-03 0.  1.
         11   -1    0    0    0    0 -0.00000000000E+00 -0.00000000000E+00 -0.45593999997E+02  0.45594000000E+02  0.51100000000E-03 0. -1.
    9900012    2    1    2    0    0  0.19978729676E+02 -0.29119192841E+02  0.27964915252E+02  0.46142317452E+02  0.99999971772E+01 0.  0.
         12    1    1    2    0    0 -0.19978729676E+02  0.29119192841E+02 -0.27964915252E+02  0.45045682548E+02  0.00000000000E+00 0. -1.
         11    1    3    3    0    0  0.37866463552E+01 -0.15414924569E+01  0.44146452796E+01  0.60169745571E+01  0.51100000000E-03 0. -1.
        -11    1    3    3    0    0  0.13116459648E+02 -0.18035222832E+02  0.18049080150E+02  0.28689372088E+02  0.51100000000E-03 0.  1.
        -12    1    3    3    0    0  0.30756236726E+01 -0.95424775526E+01  0.55011898223E+01  0.11435970806E+02  0.00000000000E+00 0.  1.
</event>
<event>
 7    1  0.2438448E-008  0.4614232E+02  0.7816164E-02  0.1320468E+00
        -11   -1    0    0    0    0  0.00000000000E+00  0.00000000000E+00  0.45593999997E+02  0.45594000000E+02  0.51100000000E-03 0. -1.
         11   -1    0    0    0    0 -0.00000000000E+00 -0.00000000000E+00 -0.45593999997E+02  0.45594000000E+02  0.51100000000E-03 0.  1.
    9900012    2    1    2    0    0  0.37361457384E+02 -0.25111395644E+02 -0.16287463649E+01  0.46142317590E+02  0.99999984418E+01 0.  0.
         12    1    1    2    0    0 -0.37361457384E+02  0.25111395644E+02  0.16287463649E+01  0.45045682410E+02  0.00000000000E+00 0. -1.
         11    1    3    3    0    0  0.19067262063E+02 -0.11035352870E+02  0.74810745311E+00  0.22043120482E+02  0.51100000000E-03 0. -1.
        -11    1    3    3    0    0  0.16027171831E+02 -0.89267787918E+01 -0.15238744007E+01  0.18408688436E+02  0.51100000000E-03 0.  1.
         12    1    3    3    0    0  0.22670234900E+01 -0.51492639822E+01 -0.85297941736E+00  0.56905086722E+01  0.00000000000E+00 0. -1.
</event>
<event>
 7    1  0.2438448E-008  0.4614232E+02  0.7816164E-02  0.1320468E+00
        -11   -1    0    0    0    0  0.00000000000E+00  0.00000000000E+00  0.45593999997E+02  0.45594000000E+02  0.51100000000E-03 0.  1.
         11   -1    0    0    0    0 -0.00000000000E+00 -0.00000000000E+00 -0.45593999997E+02  0.45594000000E+02  0.51100000000E-03 0. -1.
    9900012    2    1    2    0    0 -0.47117763506E+01  0.38957423992E+02  0.22118583485E+02  0.46142318121E+02  0.10000003286E+02 0.  0.
         12    1    1    2    0    0  0.47117763506E+01 -0.38957423992E+02 -0.22118583485E+02  0.45045681879E+02  0.00000000000E+00 0. -1.
         11    1    3    3    0    0 -0.12335241217E+01  0.14917002890E+02  0.72772893581E+01  0.16643241801E+02  0.51100000000E-03 0. -1.
        -11    1    3    3    0    0  0.17713096785E+01  0.13767378309E+02  0.92363265735E+01  0.16672971310E+02  0.51100000000E-03 0.  1.
        -12    1    3    3    0    0 -0.52495619075E+01  0.10273042794E+02  0.56049675537E+01  0.12826105011E+02  0.00000000000E+00 0.  1.
</event>
<event>
 7    1  0.2438448E-008  0.4614232E+02  0.7816164E-02  0.1320468E+00
        -11   -1    0    0    0    0  0.00000000000E+00  0.00000000000E+00  0.45593999997E+02  0.45594000000E+02  0.51100000000E-03 0.  1.
         11   -1    0    0    0    0 -0.00000000000E+00 -0.00000000000E+00 -0.45593999997E+02  0.45594000000E+02  0.51100000000E-03 0. -1.
    9900012    2    1    2    0    0 -0.35347354807E+02 -0.27381440726E+02  0.54712633567E+01  0.46142317512E+02  0.99999977306E+01 0.  0.
         12    1    1    2    0    0  0.35347354807E+02  0.27381440726E+02 -0.54712633567E+01  0.45045682488E+02  0.00000000000E+00 0. -1.
         11    1    3    3    0    0 -0.64332505054E+01 -0.58691749741E+01 -0.23078393672E+01  0.90088872647E+01  0.51100000000E-03 0. -1.
        -11    1    3    3    0    0 -0.27993038687E+02 -0.21449076956E+02  0.70655297460E+01  0.35966579321E+02  0.51100000000E-03 0.  1.
         12    1    3    3    0    0 -0.92106561483E+00 -0.63188795774E-01  0.71357297794E+00  0.11668509269E+01  0.00000000000E+00 0. -1.
</event>
<event>
 7    1  0.2438448E-008  0.4614232E+02  0.7816164E-02  0.1320468E+00
        -11   -1    0    0    0    0  0.00000000000E+00  0.00000000000E+00  0.45593999997E+02  0.45594000000E+02  0.51100000000E-03 0.  1.
         11   -1    0    0    0    0 -0.00000000000E+00 -0.00000000000E+00 -0.45593999997E+02  0.45594000000E+02  0.51100000000E-03 0. -1.
    9900012    2    1    2    0    0  0.28495440172E+02 -0.28054634779E+02  0.20737907375E+02  0.46142318237E+02  0.10000004342E+02 0.  0.
         12    1    1    2    0    0 -0.28495440172E+02  0.28054634779E+02 -0.20737907375E+02  0.45045681763E+02  0.00000000000E+00 0. -1.
         11    1    3    3    0    0  0.10497152756E+02 -0.12513552051E+02  0.56889630119E+01  0.17295765416E+02  0.51100000000E-03 0. -1.
        -11    1    3    3    0    0  0.40274040275E+01 -0.71916529669E+01  0.62536268087E+01  0.10346386042E+02  0.51100000000E-03 0.  1.
         12    1    3    3    0    0  0.13970883388E+02 -0.83494297607E+01  0.87953175544E+01  0.18500166779E+02  0.00000000000E+00 0. -1.
</event>
<event>
 7    1  0.2438448E-008  0.4614232E+02  0.7816164E-02  0.1320468E+00
        -11   -1    0    0    0    0  0.00000000000E+00  0.00000000000E+00  0.45593999997E+02  0.45594000000E+02  0.51100000000E-03 0.  1.
         11   -1    0    0    0    0 -0.00000000000E+00 -0.00000000000E+00 -0.45593999997E+02  0.45594000000E+02  0.51100000000E-03 0. -1.
    9900012    2    1    2    0    0 -0.17506759921E+02  0.40414682237E+02  0.94488254957E+01  0.46142317782E+02  0.10000000191E+02 0.  0.
         12    1    1    2    0    0  0.17506759921E+02 -0.40414682237E+02 -0.94488254957E+01  0.45045682218E+02  0.00000000000E+00 0. -1.
         11    1    3    3    0    0 -0.10983104264E+02  0.15577224059E+02  0.17681247182E+01  0.19141701961E+02  0.51100000000E-03 0. -1.
        -11    1    3    3    0    0  0.82150754713E-01  0.21159815066E-01 -0.13300109552E+00  0.15775308810E+00  0.51100000000E-03 0.  1.
        -12    1    3    3    0    0 -0.66058064116E+01  0.24816298362E+02  0.78137018730E+01  0.26842862733E+02  0.00000000000E+00 0.  1.
</event>
<event>
 7    1  0.2438448E-008  0.4614232E+02  0.7816164E-02  0.1320468E+00
        -11   -1    0    0    0    0  0.00000000000E+00  0.00000000000E+00  0.45593999997E+02  0.45594000000E+02  0.51100000000E-03 0.  1.
         11   -1    0    0    0    0 -0.00000000000E+00 -0.00000000000E+00 -0.45593999997E+02  0.45594000000E+02  0.51100000000E-03 0. -1.
    9900012    2    1    2    0    0  0.33961543262E+01  0.10145743649E+01  0.44906016177E+02  0.46142317474E+02  0.99999973775E+01 0.  0.
         12    1    1    2    0    0 -0.33961543262E+01 -0.10145743649E+01 -0.44906016177E+02  0.45045682526E+02  0.00000000000E+00 0. -1.
         11    1    3    3    0    0  0.19901004019E+01 -0.17216926800E+01  0.11419365224E+02  0.11718644447E+02  0.51100000000E-03 0.  1.
        -11    1    3    3    0    0  0.14821104598E+01 -0.14359233038E+01  0.23632128134E+02  0.23722057406E+02  0.51100000000E-03 0. -1.
         12    1    3    3    0    0 -0.76056535460E-01  0.41721903486E+01  0.98545228195E+01  0.10701615621E+02  0.00000000000E+00 0. -1.
</event>
<event>
 7    1  0.2438448E-008  0.4614232E+02  0.7816164E-02  0.1320468E+00
        -11   -1    0    0    0    0  0.00000000000E+00  0.00000000000E+00  0.45593999997E+02  0.45594000000E+02  0.51100000000E-03 0. -1.
         11   -1    0    0    0    0 -0.00000000000E+00 -0.00000000000E+00 -0.45593999997E+02  0.45594000000E+02  0.51100000000E-03 0.  1.
    9900012    2    1    2    0    0  0.34961663826E+02 -0.67174178397E+01 -0.27598402831E+02  0.46142317868E+02  0.10000000973E+02 0.  0.
         12    1    1    2    0    0 -0.34961663826E+02  0.67174178397E+01  0.27598402831E+02  0.45045682132E+02  0.00000000000E+00 0. -1.
         11    1    3    3    0    0  0.32533917901E+01 -0.70782240935E-01 -0.59738521039E+01  0.68026816393E+01  0.51100000000E-03 0. -1.
        -11    1    3    3    0    0  0.13690467490E+00  0.37729394498E+00 -0.73338520977E+00  0.83603094319E+00  0.51100000000E-03 0.  1.
        -12    1    3    3    0    0  0.31571367361E+02 -0.70239295437E+01 -0.20891165518E+02  0.38503605285E+02  0.00000000000E+00 0.  1.
</event>
<event>
 7    1  0.2438448E-008  0.4614232E+02  0.7816164E-02  0.1320468E+00
        -11   -1    0    0    0    0  0.00000000000E+00  0.00000000000E+00  0.45593999997E+02  0.45594000000E+02  0.51100000000E-03 0. -1.
         11   -1    0    0    0    0 -0.00000000000E+00 -0.00000000000E+00 -0.45593999997E+02  0.45594000000E+02  0.51100000000E-03 0.  1.
    9900012    2    1    2    0    0 -0.42033695045E+02  0.84512637000E+01 -0.13815143780E+02  0.46142316800E+02  0.99999912398E+01 0.  0.
         12    1    1    2    0    0  0.42033695045E+02 -0.84512637000E+01  0.13815143780E+02  0.45045683200E+02  0.00000000000E+00 0. -1.
         11    1    3    3    0    0 -0.39078390248E+02  0.76724937180E+01 -0.12322290047E+02  0.41687247168E+02  0.51100000000E-03 0. -1.
        -11    1    3    3    0    0 -0.13831746119E+01  0.16131729121E+01 -0.16179865815E+01  0.26708387616E+01  0.51100000000E-03 0.  1.
         12    1    3    3    0    0 -0.15721301855E+01 -0.83440293015E+00  0.12513284885E+00  0.17842308707E+01  0.00000000000E+00 0. -1.
</event>
<event>
 7    1  0.2438448E-008  0.4614232E+02  0.7816164E-02  0.1320468E+00
        -11   -1    0    0    0    0  0.00000000000E+00  0.00000000000E+00  0.45593999997E+02  0.45594000000E+02  0.51100000000E-03 0. -1.
         11   -1    0    0    0    0 -0.00000000000E+00 -0.00000000000E+00 -0.45593999997E+02  0.45594000000E+02  0.51100000000E-03 0.  1.
    9900012    2    1    2    0    0  0.18701948554E+02  0.96469195636E+01 -0.39828227955E+02  0.46142315647E+02  0.99999807214E+01 0.  0.
         12    1    1    2    0    0 -0.18701948554E+02 -0.96469195636E+01  0.39828227955E+02  0.45045684353E+02  0.00000000000E+00 0. -1.
         11    1    3    3    0    0  0.59548824692E+01  0.32215797811E+01 -0.21583448761E+02  0.22620443457E+02  0.51100000000E-03 0. -1.
        -11    1    3    3    0    0  0.75706663463E+01  0.21530244983E+01 -0.12021093684E+02  0.14368618481E+02  0.51100000000E-03 0.  1.
         12    1    3    3    0    0  0.51763997382E+01  0.42723152842E+01 -0.62236855099E+01  0.91532537092E+01  0.00000000000E+00 0. -1.
</event>
<event>
 7    1  0.2438448E-008  0.4614232E+02  0.7816164E-02  0.1320468E+00
        -11   -1    0    0    0    0  0.00000000000E+00  0.00000000000E+00  0.45593999997E+02  0.45594000000E+02  0.51100000000E-03 0. -1.
         11   -1    0    0    0    0 -0.00000000000E+00 -0.00000000000E+00 -0.45593999997E+02  0.45594000000E+02  0.51100000000E-03 0.  1.
    9900012    2    1    2    0    0  0.37219908101E+02  0.18575439925E+02 -0.17284236443E+02  0.46142319220E+02  0.10000013304E+02 0.  0.
         12    1    1    2    0    0 -0.37219908101E+02 -0.18575439925E+02  0.17284236443E+02  0.45045680780E+02  0.00000000000E+00 0. -1.
         11    1    3    3    0    0  0.20185866736E+02  0.76436004737E+01 -0.10803936385E+02  0.24137499575E+02  0.51100000000E-03 0. -1.
        -11    1    3    3    0    0  0.25603355524E+01  0.12473716479E+01  0.10448760587E+01  0.30336480363E+01  0.51100000000E-03 0.  1.
        -12    1    3    3    0    0  0.14473705813E+02  0.96844678039E+01 -0.75251761169E+01  0.18971171608E+02  0.00000000000E+00 0.  1.
</event>
<event>
 7    1  0.2438448E-008  0.4614232E+02  0.7816164E-02  0.1320468E+00
        -11   -1    0    0    0    0  0.00000000000E+00  0.00000000000E+00  0.45593999997E+02  0.45594000000E+02  0.51100000000E-03 0. -1.
         11   -1    0    0    0    0 -0.00000000000E+00 -0.00000000000E+00 -0.45593999997E+02  0.45594000000E+02  0.51100000000E-03 0.  1.
    9900012    2    1    2    0    0 -0.28194460364E+02 -0.71678702295E+01 -0.34391967662E+02  0.46142318759E+02  0.10000009096E+02 0.  0.
         12    1    1    2    0    0  0.28194460364E+02  0.71678702295E+01  0.34391967662E+02  0.45045681241E+02  0.00000000000E+00 0. -1.
         11    1    3    3    0    0 -0.59900326169E+01 -0.21444175906E+01 -0.11940516322E+02  0.13529780037E+02  0.51100000000E-03 0. -1.
        -11    1    3    3    0    0 -0.11061612222E+01 -0.20726493633E+01 -0.23201225380E+01  0.33018838388E+01  0.51100000000E-03 0.  1.
        -12    1    3    3    0    0 -0.21098266525E+02 -0.29508032757E+01 -0.20131328802E+02  0.29310654883E+02  0.00000000000E+00 0.  1.
</event>
<event>
 7    1  0.2438448E-008  0.4614232E+02  0.7816164E-02  0.1320468E+00
        -11   -1    0    0    0    0  0.00000000000E+00  0.00000000000E+00  0.45593999997E+02  0.45594000000E+02  0.51100000000E-03 0.  1.
         11   -1    0    0    0    0 -0.00000000000E+00 -0.00000000000E+00 -0.45593999997E+02  0.45594000000E+02  0.51100000000E-03 0. -1.
    9900012    2    1    2    0    0 -0.17730480619E+02 -0.41090773662E+02  0.51275653813E+01  0.46142317078E+02  0.99999937720E+01 0.  0.
         12    1    1    2    0    0  0.17730480619E+02  0.41090773662E+02 -0.51275653813E+01  0.45045682922E+02  0.00000000000E+00 0. -1.
         11    1    3    3    0    0 -0.56157155368E+01 -0.17712059758E+02  0.24943164849E+01  0.18747664837E+02  0.51100000000E-03 0. -1.
        -11    1    3    3    0    0 -0.12615276086E+02 -0.21591575100E+02  0.11750542102E+01  0.25034417483E+02  0.51100000000E-03 0.  1.
         12    1    3    3    0    0  0.50051100403E+00 -0.17871388042E+01  0.14581946862E+01  0.23602347582E+01  0.00000000000E+00 0. -1.
</event>
<event>
 7    1  0.2438448E-008  0.4614232E+02  0.7816164E-02  0.1320468E+00
        -11   -1    0    0    0    0  0.00000000000E+00  0.00000000000E+00  0.45593999997E+02  0.45594000000E+02  0.51100000000E-03 0.  1.
         11   -1    0    0    0    0 -0.00000000000E+00 -0.00000000000E+00 -0.45593999997E+02  0.45594000000E+02  0.51100000000E-03 0. -1.
    9900012    2    1    2    0    0 -0.22252105181E+02 -0.87412389526E-01  0.39165669125E+02  0.46142318032E+02  0.10000002472E+02 0.  0.
         12    1    1    2    0    0  0.22252105181E+02  0.87412389526E-01 -0.39165669125E+02  0.45045681968E+02  0.00000000000E+00 0. -1.
         11    1    3    3    0    0 -0.11525576494E+02 -0.35009594486E+01  0.17679194851E+02  0.21392745532E+02  0.51100000000E-03 0.  1.
        -11    1    3    3    0    0 -0.28562628386E+01 -0.93524165450E+00  0.33120586928E+01  0.44724319336E+01  0.51100000000E-03 0. -1.
         12    1    3    3    0    0 -0.78702658481E+01  0.43487887136E+01  0.18174415582E+02  0.20277140566E+02  0.00000000000E+00 0. -1.
</event>
<event>
 7    1  0.2438448E-008  0.4614232E+02  0.7816164E-02  0.1320468E+00
        -11   -1    0    0    0    0  0.00000000000E+00  0.00000000000E+00  0.45593999997E+02  0.45594000000E+02  0.51100000000E-03 0.  1.
         11   -1    0    0    0    0 -0.00000000000E+00 -0.00000000000E+00 -0.45593999997E+02  0.45594000000E+02  0.51100000000E-03 0. -1.
    9900012    2    1    2    0    0 -0.18447304864E+02 -0.40326842984E+02  0.79092456694E+01  0.46142317756E+02  0.99999999519E+01 0.  0.
         12    1    1    2    0    0  0.18447304864E+02  0.40326842984E+02 -0.79092456694E+01  0.45045682244E+02  0.00000000000E+00 0. -1.
         11    1    3    3    0    0 -0.83762426137E+01 -0.20958488401E+02 -0.53304309434E+00  0.22576620907E+02  0.51100000000E-03 0. -1.
        -11    1    3    3    0    0 -0.32588873362E+01 -0.63585007372E+01  0.14076745407E+01  0.72823365872E+01  0.51100000000E-03 0.  1.
         12    1    3    3    0    0 -0.68121749142E+01 -0.13009853846E+02  0.70346142231E+01  0.16283360262E+02  0.00000000000E+00 0. -1.
</event>
<event>
 7    1  0.2438448E-008  0.4614232E+02  0.7816164E-02  0.1320468E+00
        -11   -1    0    0    0    0  0.00000000000E+00  0.00000000000E+00  0.45593999997E+02  0.45594000000E+02  0.51100000000E-03 0. -1.
         11   -1    0    0    0    0 -0.00000000000E+00 -0.00000000000E+00 -0.45593999997E+02  0.45594000000E+02  0.51100000000E-03 0.  1.
    9900012    2    1    2    0    0  0.32651293852E+02 -0.30985455522E+02  0.17052887257E+01  0.46142318146E+02  0.10000003506E+02 0.  0.
         12    1    1    2    0    0 -0.32651293852E+02  0.30985455522E+02 -0.17052887257E+01  0.45045681854E+02  0.00000000000E+00 0. -1.
         11    1    3    3    0    0  0.16550176974E+01 -0.51980658640E+01 -0.89894983824E+00  0.55287506164E+01  0.51100000000E-03 0. -1.
        -11    1    3    3    0    0  0.13924816097E+02 -0.12184081233E+02  0.31972978648E+01  0.18776981992E+02  0.51100000000E-03 0.  1.
         12    1    3    3    0    0  0.17071460058E+02 -0.13603308425E+02 -0.59305930078E+00  0.21836585538E+02  0.00000000000E+00 0. -1.
</event>
<event>
 7    1  0.2438448E-008  0.4614232E+02  0.7816164E-02  0.1320468E+00
        -11   -1    0    0    0    0  0.00000000000E+00  0.00000000000E+00  0.45593999997E+02  0.45594000000E+02  0.51100000000E-03 0. -1.
         11   -1    0    0    0    0 -0.00000000000E+00 -0.00000000000E+00 -0.45593999997E+02  0.45594000000E+02  0.51100000000E-03 0.  1.
    9900012    2    1    2    0    0  0.12032607318E+02  0.41678415348E+02 -0.12134230641E+02  0.46142317653E+02  0.99999990186E+01 0.  0.
         12    1    1    2    0    0 -0.12032607318E+02 -0.41678415348E+02  0.12134230641E+02  0.45045682347E+02  0.00000000000E+00 0. -1.
         11    1    3    3    0    0  0.41596916229E+01  0.12351246670E+02 -0.27417579150E+01  0.13318166744E+02  0.51100000000E-03 0. -1.
        -11    1    3    3    0    0  0.78396162373E+01  0.27672302366E+02 -0.64924931760E+01  0.29485053313E+02  0.51100000000E-03 0.  1.
         12    1    3    3    0    0  0.33299458181E-01  0.16548663122E+01 -0.28999795501E+01  0.33390975961E+01  0.00000000000E+00 0. -1.
</event>
<event>
 7    1  0.2438448E-008  0.4614232E+02  0.7816164E-02  0.1320468E+00
        -11   -1    0    0    0    0  0.00000000000E+00  0.00000000000E+00  0.45593999997E+02  0.45594000000E+02  0.51100000000E-03 0. -1.
         11   -1    0    0    0    0 -0.00000000000E+00 -0.00000000000E+00 -0.45593999997E+02  0.45594000000E+02  0.51100000000E-03 0.  1.
    9900012    2    1    2    0    0 -0.10326121300E+02  0.40441015223E+02 -0.16941338163E+02  0.46142318385E+02  0.10000005693E+02 0.  0.
         12    1    1    2    0    0  0.10326121300E+02 -0.40441015223E+02  0.16941338163E+02  0.45045681615E+02  0.00000000000E+00 0. -1.
         11    1    3    3    0    0 -0.71552894486E+01  0.24896068245E+02 -0.10171632289E+02  0.27829381682E+02  0.51100000000E-03 0. -1.
        -11    1    3    3    0    0 -0.29324157564E+00  0.13012084574E+02 -0.62702255201E+01  0.14447008822E+02  0.51100000000E-03 0.  1.
         12    1    3    3    0    0 -0.28775902758E+01  0.25328624041E+01 -0.49948035417E+00  0.38659278806E+01  0.00000000000E+00 0. -1.
</event>
<event>
 7    1  0.2438448E-008  0.4614232E+02  0.7816164E-02  0.1320468E+00
        -11   -1    0    0    0    0  0.00000000000E+00  0.00000000000E+00  0.45593999997E+02  0.45594000000E+02  0.51100000000E-03 0.  1.
         11   -1    0    0    0    0 -0.00000000000E+00 -0.00000000000E+00 -0.45593999997E+02  0.45594000000E+02  0.51100000000E-03 0. -1.
    9900012    2    1    2    0    0  0.15345932219E+02 -0.42347406818E+02 -0.55938776298E+00  0.46142318580E+02  0.10000007470E+02 0.  0.
         12    1    1    2    0    0 -0.15345932219E+02  0.42347406818E+02  0.55938776298E+00  0.45045681420E+02  0.00000000000E+00 0. -1.
         11    1    3    3    0    0 -0.70838601870E+00 -0.30731423880E+01  0.10619395221E+01  0.33277215476E+01  0.51100000000E-03 0. -1.
        -11    1    3    3    0    0  0.14140652693E+02 -0.33513906953E+02 -0.32787682258E+01  0.36522463487E+02  0.51100000000E-03 0.  1.
        -12    1    3    3    0    0  0.19136655441E+01 -0.57603574778E+01  0.16574409407E+01  0.62921335458E+01  0.00000000000E+00 0.  1.
</event>
<event>
 7    1  0.2438448E-008  0.4614232E+02  0.7816164E-02  0.1320468E+00
        -11   -1    0    0    0    0  0.00000000000E+00  0.00000000000E+00  0.45593999997E+02  0.45594000000E+02  0.51100000000E-03 0. -1.
         11   -1    0    0    0    0 -0.00000000000E+00 -0.00000000000E+00 -0.45593999997E+02  0.45594000000E+02  0.51100000000E-03 0.  1.
    9900012    2    1    2    0    0  0.19147607876E+02 -0.22563859752E+02 -0.33961079156E+02  0.46142317058E+02  0.99999935904E+01 0.  0.
         12    1    1    2    0    0 -0.19147607876E+02  0.22563859752E+02  0.33961079156E+02  0.45045682942E+02  0.00000000000E+00 0. -1.
         11    1    3    3    0    0  0.38668691276E+00 -0.25537066145E+01 -0.48724718893E+01  0.55147009724E+01  0.51100000000E-03 0. -1.
        -11    1    3    3    0    0  0.14471049727E+01 -0.51188697691E+01 -0.75521667984E+01  0.92375410217E+01  0.51100000000E-03 0.  1.
        -12    1    3    3    0    0  0.17313815990E+02 -0.14891283368E+02 -0.21536440468E+02  0.31390075064E+02  0.00000000000E+00 0.  1.
</event>
<event>
 7    1  0.2438448E-008  0.4614231E+02  0.7816164E-02  0.1320468E+00
        -11   -1    0    0    0    0  0.00000000000E+00  0.00000000000E+00  0.45593999997E+02  0.45594000000E+02  0.51100000000E-03 0.  1.
         11   -1    0    0    0    0 -0.00000000000E+00 -0.00000000000E+00 -0.45593999997E+02  0.45594000000E+02  0.51100000000E-03 0. -1.
    9900012    2    1    2    0    0 -0.10375511053E+02  0.13560839806E+02  0.41684126028E+02  0.46142312431E+02  0.99999513972E+01 0.  0.
         12    1    1    2    0    0  0.10375511053E+02 -0.13560839806E+02 -0.41684126028E+02  0.45045687569E+02  0.00000000000E+00 0. -1.
         11    1    3    3    0    0 -0.20255886523E+01  0.53873886217E+00  0.97153164266E+00  0.23102214058E+01  0.51100000000E-03 0. -1.
        -11    1    3    3    0    0 -0.29360237588E+01  0.44940888580E+01  0.83240808802E+01  0.99049176138E+01  0.51100000000E-03 0.  1.
        -12    1    3    3    0    0 -0.54138986416E+01  0.85280120856E+01  0.32388513505E+02  0.33927173412E+02  0.00000000000E+00 0.  1.
</event>
<event>
 7    1  0.2438448E-008  0.4614232E+02  0.7816164E-02  0.1320468E+00
        -11   -1    0    0    0    0  0.00000000000E+00  0.00000000000E+00  0.45593999997E+02  0.45594000000E+02  0.51100000000E-03 0.  1.
         11   -1    0    0    0    0 -0.00000000000E+00 -0.00000000000E+00 -0.45593999997E+02  0.45594000000E+02  0.51100000000E-03 0. -1.
    9900012    2    1    2    0    0  0.40417135621E+02  0.15683830044E+02 -0.12230537855E+02  0.46142318377E+02  0.10000005616E+02 0.  0.
         12    1    1    2    0    0 -0.40417135621E+02 -0.15683830044E+02  0.12230537855E+02  0.45045681623E+02  0.00000000000E+00 0. -1.
         11    1    3    3    0    0  0.12360173045E+02  0.17400011544E+01 -0.64678519170E+00  0.12498792464E+02  0.51100000000E-03 0. -1.
        -11    1    3    3    0    0  0.18358724026E+02  0.79134938240E+01 -0.56548977223E+01  0.20776043918E+02  0.51100000000E-03 0.  1.
         12    1    3    3    0    0  0.96982385501E+01  0.60303350657E+01 -0.59288549407E+01  0.12867481995E+02  0.00000000000E+00 0. -1.
</event>
<event>
 7    1  0.2438448E-008  0.4614232E+02  0.7816164E-02  0.1320468E+00
        -11   -1    0    0    0    0  0.00000000000E+00  0.00000000000E+00  0.45593999997E+02  0.45594000000E+02  0.51100000000E-03 0. -1.
         11   -1    0    0    0    0 -0.00000000000E+00 -0.00000000000E+00 -0.45593999997E+02  0.45594000000E+02  0.51100000000E-03 0.  1.
    9900012    2    1    2    0    0  0.42254659160E+02  0.12431817797E+02 -0.94396407187E+01  0.46142321724E+02  0.10000036137E+02 0.  0.
         12    1    1    2    0    0 -0.42254659160E+02 -0.12431817797E+02  0.94396407187E+01  0.45045678276E+02  0.00000000000E+00 0. -1.
         11    1    3    3    0    0  0.19602932611E+02  0.41136881655E+01 -0.71867344458E+00  0.20042801427E+02  0.51100000000E-03 0. -1.
        -11    1    3    3    0    0  0.18102437726E+02  0.47447118406E+01 -0.56401535581E+01  0.19545379876E+02  0.51100000000E-03 0.  1.
         12    1    3    3    0    0  0.45492888229E+01  0.35734177911E+01 -0.30808137160E+01  0.65541404208E+01  0.00000000000E+00 0. -1.
</event>
<event>
 7    1  0.2438448E-008  0.4614232E+02  0.7816164E-02  0.1320468E+00
        -11   -1    0    0    0    0  0.00000000000E+00  0.00000000000E+00  0.45593999997E+02  0.45594000000E+02  0.51100000000E-03 0.  1.
         11   -1    0    0    0    0 -0.00000000000E+00 -0.00000000000E+00 -0.45593999997E+02  0.45594000000E+02  0.51100000000E-03 0. -1.
    9900012    2    1    2    0    0  0.31506808943E+02  0.27171936297E+02 -0.17266168501E+02  0.46142315339E+02  0.99999779127E+01 0.  0.
         12    1    1    2    0    0 -0.31506808943E+02 -0.27171936297E+02  0.17266168501E+02  0.45045684661E+02  0.00000000000E+00 0. -1.
         11    1    3    3    0    0  0.16686505907E+01  0.15787656257E+01  0.12734422928E+01  0.26265093239E+01  0.51100000000E-03 0. -1.
        -11    1    3    3    0    0  0.17428896371E+02  0.13674088722E+02 -0.99518552307E+01  0.24285521487E+02  0.51100000000E-03 0.  1.
         12    1    3    3    0    0  0.12409261981E+02  0.11919081950E+02 -0.85877555630E+01  0.19230284528E+02  0.00000000000E+00 0. -1.
</event>
<event>
 7    1  0.2438448E-008  0.4614232E+02  0.7816164E-02  0.1320468E+00
        -11   -1    0    0    0    0  0.00000000000E+00  0.00000000000E+00  0.45593999997E+02  0.45594000000E+02  0.51100000000E-03 0.  1.
         11   -1    0    0    0    0 -0.00000000000E+00 -0.00000000000E+00 -0.45593999997E+02  0.45594000000E+02  0.51100000000E-03 0. -1.
    9900012    2    1    2    0    0  0.39659183708E+02 -0.17903870177E+02  0.11649634987E+02  0.46142318575E+02  0.10000007421E+02 0.  0.
         12    1    1    2    0    0 -0.39659183708E+02  0.17903870177E+02 -0.11649634987E+02  0.45045681425E+02  0.00000000000E+00 0. -1.
         11    1    3    3    0    0  0.58880065109E+01 -0.35247589256E+01  0.44167483065E+01  0.81608952953E+01  0.51100000000E-03 0. -1.
        -11    1    3    3    0    0  0.12569738406E+02 -0.24586494035E+01  0.85562683577E+00  0.12836486202E+02  0.51100000000E-03 0.  1.
        -12    1    3    3    0    0  0.21201438792E+02 -0.11920461848E+02  0.63772598449E+01  0.25144937077E+02  0.00000000000E+00 0.  1.
</event>
<event>
 7    1  0.2438448E-008  0.4614232E+02  0.7816164E-02  0.1320468E+00
        -11   -1    0    0    0    0  0.00000000000E+00  0.00000000000E+00  0.45593999997E+02  0.45594000000E+02  0.51100000000E-03 0.  1.
         11   -1    0    0    0    0 -0.00000000000E+00 -0.00000000000E+00 -0.45593999997E+02  0.45594000000E+02  0.51100000000E-03 0. -1.
    9900012    2    1    2    0    0  0.21238272237E+01 -0.44809878951E+02  0.40837970951E+01  0.46142319936E+02  0.10000019834E+02 0.  0.
         12    1    1    2    0    0 -0.21238272237E+01  0.44809878951E+02 -0.40837970951E+01  0.45045680064E+02  0.00000000000E+00 0. -1.
         11    1    3    3    0    0  0.95879986045E+00 -0.42524347396E+01  0.27743967072E+01  0.51671825724E+01  0.51100000000E-03 0. -1.
        -11    1    3    3    0    0  0.34136313100E+01 -0.26245721296E+02  0.79641594152E+00  0.26478765902E+02  0.51100000000E-03 0.  1.
         12    1    3    3    0    0 -0.22486039467E+01 -0.14311722915E+02  0.51298444636E+00  0.14496371462E+02  0.00000000000E+00 0. -1.
</event>
<event>
 7    1  0.2438448E-008  0.4614232E+02  0.7816164E-02  0.1320468E+00
        -11   -1    0    0    0    0  0.00000000000E+00  0.00000000000E+00  0.45593999997E+02  0.45594000000E+02  0.51100000000E-03 0.  1.
         11   -1    0    0    0    0 -0.00000000000E+00 -0.00000000000E+00 -0.45593999997E+02  0.45594000000E+02  0.51100000000E-03 0. -1.
    9900012    2    1    2    0    0 -0.77465020719E+00  0.38417594092E+00  0.45037382015E+02  0.46142318156E+02  0.10000003597E+02 0.  0.
         12    1    1    2    0    0  0.77465020719E+00 -0.38417594092E+00 -0.45037382015E+02  0.45045681844E+02  0.00000000000E+00 0. -1.
         11    1    3    3    0    0  0.16487142143E+01 -0.67970683767E+00  0.11875426479E+02  0.12008580860E+02  0.51100000000E-03 0.  1.
        -11    1    3    3    0    0  0.20690087658E+01 -0.68974590138E+00  0.38252852285E+01  0.44033344208E+01  0.51100000000E-03 0. -1.
         12    1    3    3    0    0 -0.44923731873E+01  0.17536286800E+01  0.29336670307E+02  0.29730402875E+02  0.00000000000E+00 0. -1.
</event>
<event>
 7    1  0.2438448E-008  0.4614232E+02  0.7816164E-02  0.1320468E+00
        -11   -1    0    0    0    0  0.00000000000E+00  0.00000000000E+00  0.45593999997E+02  0.45594000000E+02  0.51100000000E-03 0. -1.
         11   -1    0    0    0    0 -0.00000000000E+00 -0.00000000000E+00 -0.45593999997E+02  0.45594000000E+02  0.51100000000E-03 0.  1.
    9900012    2    1    2    0    0  0.25660820706E+02 -0.33732669893E+02  0.15255910126E+02  0.46142317286E+02  0.99999956659E+01 0.  0.
         12    1    1    2    0    0 -0.25660820706E+02  0.33732669893E+02 -0.15255910126E+02  0.45045682714E+02  0.00000000000E+00 0. -1.
         11    1    3    3    0    0  0.74412498395E+01 -0.13498201963E+02  0.83984386544E+01  0.17552989133E+02  0.51100000000E-03 0. -1.
        -11    1    3    3    0    0  0.11533963305E+02 -0.11285752046E+02  0.15172569563E+01  0.16208102223E+02  0.51100000000E-03 0.  1.
        -12    1    3    3    0    0  0.66856075620E+01 -0.89487158843E+01  0.53402145151E+01  0.12381225930E+02  0.00000000000E+00 0.  1.
</event>
<event>
 7    1  0.2438448E-008  0.4614231E+02  0.7816164E-02  0.1320468E+00
        -11   -1    0    0    0    0  0.00000000000E+00  0.00000000000E+00  0.45593999997E+02  0.45594000000E+02  0.51100000000E-03 0.  1.
         11   -1    0    0    0    0 -0.00000000000E+00 -0.00000000000E+00 -0.45593999997E+02  0.45594000000E+02  0.51100000000E-03 0. -1.
    9900012    2    1    2    0    0 -0.15961737744E+02 -0.41941251009E+02  0.39074967152E+01  0.46142310543E+02  0.99999341829E+01 0.  0.
         12    1    1    2    0    0  0.15961737744E+02  0.41941251009E+02 -0.39074967152E+01  0.45045689457E+02  0.00000000000E+00 0. -1.
         11    1    3    3    0    0 -0.56064537870E+00 -0.75011477099E+01  0.12624777278E+00  0.75231295993E+01  0.51100000000E-03 0. -1.
        -11    1    3    3    0    0 -0.12862881753E+02 -0.30503421218E+02  0.89367128291E+00  0.33116628476E+02  0.51100000000E-03 0.  1.
         12    1    3    3    0    0 -0.25382106127E+01 -0.39366820811E+01  0.28875776595E+01  0.55025524679E+01  0.00000000000E+00 0. -1.
</event>
<event>
 7    1  0.2438448E-008  0.4614232E+02  0.7816164E-02  0.1320468E+00
        -11   -1    0    0    0    0  0.00000000000E+00  0.00000000000E+00  0.45593999997E+02  0.45594000000E+02  0.51100000000E-03 0.  1.
         11   -1    0    0    0    0 -0.00000000000E+00 -0.00000000000E+00 -0.45593999997E+02  0.45594000000E+02  0.51100000000E-03 0. -1.
    9900012    2    1    2    0    0  0.33930570639E+02  0.25923390013E+02  0.14345999184E+02  0.46142318007E+02  0.10000002241E+02 0.  0.
         12    1    1    2    0    0 -0.33930570639E+02 -0.25923390013E+02 -0.14345999184E+02  0.45045681993E+02  0.00000000000E+00 0. -1.
         11    1    3    3    0    0  0.61373339579E+01  0.40775970184E+01  0.49826908888E+01  0.88949915295E+01  0.51100000000E-03 0. -1.
        -11    1    3    3    0    0  0.27486193103E+00  0.19669743165E+01 -0.15101830204E+00  0.19918192266E+01  0.51100000000E-03 0.  1.
        -12    1    3    3    0    0  0.27518374750E+02  0.19878818678E+02  0.95143265971E+01  0.35255507251E+02  0.00000000000E+00 0.  1.
</event>
<event>
 7    1  0.2438448E-008  0.4614231E+02  0.7816164E-02  0.1320468E+00
        -11   -1    0    0    0    0  0.00000000000E+00  0.00000000000E+00  0.45593999997E+02  0.45594000000E+02  0.51100000000E-03 0. -1.
         11   -1    0    0    0    0 -0.00000000000E+00 -0.00000000000E+00 -0.45593999997E+02  0.45594000000E+02  0.51100000000E-03 0.  1.
    9900012    2    1    2    0    0  0.20741264958E+02 -0.16495875163E+02 -0.36425263769E+02  0.46142314190E+02  0.99999674312E+01 0.  0.
         12    1    1    2    0    0 -0.20741264958E+02  0.16495875163E+02  0.36425263769E+02  0.45045685810E+02  0.00000000000E+00 0. -1.
         11    1    3    3    0    0  0.34465842159E+01 -0.45936493587E+01 -0.37387858678E+01  0.68526693496E+01  0.51100000000E-03 0. -1.
        -11    1    3    3    0    0  0.76029737904E+01 -0.65495940896E+01 -0.10679023194E+02  0.14654143777E+02  0.51100000000E-03 0.  1.
        -12    1    3    3    0    0  0.96917069515E+01 -0.53526317152E+01 -0.22007454708E+02  0.24635501063E+02  0.00000000000E+00 0.  1.
</event>
<event>
 7    1  0.2438448E-008  0.4614232E+02  0.7816164E-02  0.1320468E+00
        -11   -1    0    0    0    0  0.00000000000E+00  0.00000000000E+00  0.45593999997E+02  0.45594000000E+02  0.51100000000E-03 0.  1.
         11   -1    0    0    0    0 -0.00000000000E+00 -0.00000000000E+00 -0.45593999997E+02  0.45594000000E+02  0.51100000000E-03 0. -1.
    9900012    2    1    2    0    0  0.43960635418E+02 -0.97712184191E+01  0.10485143882E+01  0.46142316986E+02  0.99999929331E+01 0.  0.
         12    1    1    2    0    0 -0.43960635418E+02  0.97712184191E+01 -0.10485143882E+01  0.45045683014E+02  0.00000000000E+00 0. -1.
         11    1    3    3    0    0  0.14051807652E+02 -0.43582927681E+01  0.33239580991E+01  0.15082994128E+02  0.51100000000E-03 0. -1.
        -11    1    3    3    0    0  0.22504641693E+02 -0.27277332918E+01  0.59322396982E+00  0.22677110521E+02  0.51100000000E-03 0.  1.
         12    1    3    3    0    0  0.74041860731E+01 -0.26851923592E+01 -0.28686676808E+01  0.83822123377E+01  0.00000000000E+00 0. -1.
</event>
<event>
 7    1  0.2438448E-008  0.4614232E+02  0.7816164E-02  0.1320468E+00
        -11   -1    0    0    0    0  0.00000000000E+00  0.00000000000E+00  0.45593999997E+02  0.45594000000E+02  0.51100000000E-03 0. -1.
         11   -1    0    0    0    0 -0.00000000000E+00 -0.00000000000E+00 -0.45593999997E+02  0.45594000000E+02  0.51100000000E-03 0.  1.
    9900012    2    1    2    0    0 -0.19077879374E+02  0.18672115908E+02  0.36283604526E+02  0.46142319282E+02  0.10000013872E+02 0.  0.
         12    1    1    2    0    0  0.19077879374E+02 -0.18672115908E+02 -0.36283604526E+02  0.45045680718E+02  0.00000000000E+00 0. -1.
         11    1    3    3    0    0 -0.56630152818E+01  0.48969085751E+01  0.12784740142E+02  0.14815499871E+02  0.51100000000E-03 0. -1.
        -11    1    3    3    0    0 -0.55071121052E+01  0.84717556622E+01  0.70495022072E+01  0.12320487384E+02  0.51100000000E-03 0.  1.
        -12    1    3    3    0    0 -0.79077519871E+01  0.53034516711E+01  0.16449362177E+02  0.19006332028E+02  0.00000000000E+00 0.  1.
</event>
<event>
 7    1  0.2438448E-008  0.4614232E+02  0.7816164E-02  0.1320468E+00
        -11   -1    0    0    0    0  0.00000000000E+00  0.00000000000E+00  0.45593999997E+02  0.45594000000E+02  0.51100000000E-03 0.  1.
         11   -1    0    0    0    0 -0.00000000000E+00 -0.00000000000E+00 -0.45593999997E+02  0.45594000000E+02  0.51100000000E-03 0. -1.
    9900012    2    1    2    0    0 -0.14440188530E+02  0.20108596721E+02  0.37632947682E+02  0.46142318097E+02  0.10000003065E+02 0.  0.
         12    1    1    2    0    0  0.14440188530E+02 -0.20108596721E+02 -0.37632947682E+02  0.45045681903E+02  0.00000000000E+00 0. -1.
         11    1    3    3    0    0 -0.29331397231E+01  0.58318468945E+01  0.84655535293E+01  0.10690151713E+02  0.51100000000E-03 0. -1.
        -11    1    3    3    0    0 -0.70617312641E+01  0.12871362997E+02  0.25857035303E+02  0.29734261531E+02  0.51100000000E-03 0.  1.
         12    1    3    3    0    0 -0.44453175428E+01  0.14053868287E+01  0.33103588492E+01  0.57179048528E+01  0.00000000000E+00 0. -1.
</event>
<event>
 7    1  0.2438448E-008  0.4614232E+02  0.7816164E-02  0.1320468E+00
        -11   -1    0    0    0    0  0.00000000000E+00  0.00000000000E+00  0.45593999997E+02  0.45594000000E+02  0.51100000000E-03 0.  1.
         11   -1    0    0    0    0 -0.00000000000E+00 -0.00000000000E+00 -0.45593999997E+02  0.45594000000E+02  0.51100000000E-03 0. -1.
    9900012    2    1    2    0    0  0.34803732499E+01  0.18863054334E+02  0.40757645499E+02  0.46142317817E+02  0.10000000507E+02 0.  0.
         12    1    1    2    0    0 -0.34803732499E+01 -0.18863054334E+02 -0.40757645499E+02  0.45045682183E+02  0.00000000000E+00 0. -1.
         11    1    3    3    0    0  0.41764357104E+00  0.72690111662E+01  0.80471524157E+01  0.10852170831E+02  0.51100000000E-03 0. -1.
        -11    1    3    3    0    0  0.32331752955E+01  0.10300477871E+02  0.22060364822E+02  0.24560394199E+02  0.51100000000E-03 0.  1.
         12    1    3    3    0    0 -0.17044561658E+00  0.12935652961E+01  0.10650128261E+02  0.10729752786E+02  0.00000000000E+00 0. -1.
</event>
<event>
 7    1  0.2438448E-008  0.4614232E+02  0.7816164E-02  0.1320468E+00
        -11   -1    0    0    0    0  0.00000000000E+00  0.00000000000E+00  0.45593999997E+02  0.45594000000E+02  0.51100000000E-03 0.  1.
         11   -1    0    0    0    0 -0.00000000000E+00 -0.00000000000E+00 -0.45593999997E+02  0.45594000000E+02  0.51100000000E-03 0. -1.
    9900012    2    1    2    0    0 -0.14072419144E+02  0.21456505967E+02  0.37022950096E+02  0.46142318046E+02  0.10000002599E+02 0.  0.
         12    1    1    2    0    0  0.14072419144E+02 -0.21456505967E+02 -0.37022950096E+02  0.45045681954E+02  0.00000000000E+00 0. -1.
         11    1    3    3    0    0  0.33182944596E+00  0.32831066493E+01  0.40890933080E+01  0.52544823147E+01  0.51100000000E-03 0. -1.
        -11    1    3    3    0    0 -0.91852201405E+01  0.16249109522E+02  0.25068694901E+02  0.31254460379E+02  0.51100000000E-03 0.  1.
         12    1    3    3    0    0 -0.52190284491E+01  0.19242897955E+01  0.78651618872E+01  0.96333753525E+01  0.00000000000E+00 0. -1.
</event>
<event>
 7    1  0.2438448E-008  0.4614232E+02  0.7816164E-02  0.1320468E+00
        -11   -1    0    0    0    0  0.00000000000E+00  0.00000000000E+00  0.45593999997E+02  0.45594000000E+02  0.51100000000E-03 0. -1.
         11   -1    0    0    0    0 -0.00000000000E+00 -0.00000000000E+00 -0.45593999997E+02  0.45594000000E+02  0.51100000000E-03 0.  1.
    9900012    2    1    2    0    0 -0.22462250306E+02 -0.38568299926E+02 -0.60866253699E+01  0.46142318116E+02  0.10000003237E+02 0.  0.
         12    1    1    2    0    0  0.22462250306E+02  0.38568299926E+02  0.60866253699E+01  0.45045681884E+02  0.00000000000E+00 0. -1.
         11    1    3    3    0    0 -0.64143461976E+01 -0.19224535194E+02 -0.37626638877E+01  0.20612720110E+02  0.51100000000E-03 0. -1.
        -11    1    3    3    0    0 -0.45225351561E+01 -0.82172014691E+01 -0.13968034238E+01  0.94829733885E+01  0.51100000000E-03 0.  1.
        -12    1    3    3    0    0 -0.11525368953E+02 -0.11126563263E+02 -0.92715805845E+00  0.16046624617E+02  0.00000000000E+00 0.  1.
</event>
<event>
 7    1  0.2438448E-008  0.4614232E+02  0.7816164E-02  0.1320468E+00
        -11   -1    0    0    0    0  0.00000000000E+00  0.00000000000E+00  0.45593999997E+02  0.45594000000E+02  0.51100000000E-03 0.  1.
         11   -1    0    0    0    0 -0.00000000000E+00 -0.00000000000E+00 -0.45593999997E+02  0.45594000000E+02  0.51100000000E-03 0. -1.
    9900012    2    1    2    0    0 -0.60919303258E+01 -0.14774576506E+02  0.42115476960E+02  0.46142321788E+02  0.10000036717E+02 0.  0.
         12    1    1    2    0    0  0.60919303258E+01  0.14774576506E+02 -0.42115476960E+02  0.45045678212E+02  0.00000000000E+00 0. -1.
         11    1    3    3    0    0  0.95089742096E+00 -0.25742154344E+01  0.11516809420E+02  0.11839243662E+02  0.51100000000E-03 0. -1.
        -11    1    3    3    0    0 -0.62243576396E+00 -0.72750624835E+00 -0.44672172976E-01  0.95848186514E+00  0.51100000000E-03 0.  1.
        -12    1    3    3    0    0 -0.64203919828E+01 -0.11472854823E+02  0.30643339713E+02  0.33344596260E+02  0.00000000000E+00 0.  1.
</event>
<event>
 7    1  0.2438448E-008  0.4614232E+02  0.7816164E-02  0.1320468E+00
        -11   -1    0    0    0    0  0.00000000000E+00  0.00000000000E+00  0.45593999997E+02  0.45594000000E+02  0.51100000000E-03 0. -1.
         11   -1    0    0    0    0 -0.00000000000E+00 -0.00000000000E+00 -0.45593999997E+02  0.45594000000E+02  0.51100000000E-03 0.  1.
    9900012    2    1    2    0    0 -0.16884513309E+02 -0.29406048646E+02 -0.29653179359E+02  0.46142317268E+02  0.99999955049E+01 0.  0.
         12    1    1    2    0    0  0.16884513309E+02  0.29406048646E+02  0.29653179359E+02  0.45045682732E+02  0.00000000000E+00 0. -1.
         11    1    3    3    0    0 -0.25259064445E+00 -0.10490675727E+01  0.21572757478E+00  0.11004014964E+01  0.51100000000E-03 0. -1.
        -11    1    3    3    0    0 -0.74187496700E+01 -0.16412986262E+02 -0.20482095975E+02  0.27275267560E+02  0.51100000000E-03 0.  1.
         12    1    3    3    0    0 -0.92131729942E+01 -0.11943994812E+02 -0.93868109592E+01  0.17766648212E+02  0.00000000000E+00 0. -1.
</event>
<event>
 7    1  0.2438448E-008  0.4614232E+02  0.7816164E-02  0.1320468E+00
        -11   -1    0    0    0    0  0.00000000000E+00  0.00000000000E+00  0.45593999997E+02  0.45594000000E+02  0.51100000000E-03 0. -1.
         11   -1    0    0    0    0 -0.00000000000E+00 -0.00000000000E+00 -0.45593999997E+02  0.45594000000E+02  0.51100000000E-03 0.  1.
    9900012    2    1    2    0    0 -0.11608147982E+02 -0.40692737215E+02 -0.15442328119E+02  0.46142318083E+02  0.10000002938E+02 0.  0.
         12    1    1    2    0    0  0.11608147982E+02  0.40692737215E+02  0.15442328119E+02  0.45045681917E+02  0.00000000000E+00 0. -1.
         11    1    3    3    0    0 -0.15431245245E+01 -0.15841117202E+01 -0.27811621845E+00  0.22288993096E+01  0.51100000000E-03 0. -1.
        -11    1    3    3    0    0 -0.85552351030E+01 -0.17085900641E+02 -0.62077012513E+01  0.20091182232E+02  0.51100000000E-03 0.  1.
         12    1    3    3    0    0 -0.15097883549E+01 -0.22022724854E+02 -0.89565106497E+01  0.23822236542E+02  0.00000000000E+00 0. -1.
</event>
<event>
 7    1  0.2438448E-008  0.4614232E+02  0.7816164E-02  0.1320468E+00
        -11   -1    0    0    0    0  0.00000000000E+00  0.00000000000E+00  0.45593999997E+02  0.45594000000E+02  0.51100000000E-03 0.  1.
         11   -1    0    0    0    0 -0.00000000000E+00 -0.00000000000E+00 -0.45593999997E+02  0.45594000000E+02  0.51100000000E-03 0. -1.
    9900012    2    1    2    0    0  0.18190005906E+02 -0.77358947426E+01  0.40477069362E+02  0.46142317338E+02  0.99999961406E+01 0.  0.
         12    1    1    2    0    0 -0.18190005906E+02  0.77358947426E+01 -0.40477069362E+02  0.45045682662E+02  0.00000000000E+00 0. -1.
         11    1    3    3    0    0  0.13092556530E+01  0.52449304358E-01  0.38227668018E+01  0.40410948488E+01  0.51100000000E-03 0. -1.
        -11    1    3    3    0    0  0.14912131876E+02 -0.29818810303E+01  0.23876735503E+02  0.28308334287E+02  0.51100000000E-03 0.  1.
        -12    1    3    3    0    0  0.19686183772E+01 -0.48064630167E+01  0.12777567057E+02  0.13792888202E+02  0.00000000000E+00 0.  1.
</event>
<event>
 7    1  0.2438448E-008  0.4614232E+02  0.7816164E-02  0.1320468E+00
        -11   -1    0    0    0    0  0.00000000000E+00  0.00000000000E+00  0.45593999997E+02  0.45594000000E+02  0.51100000000E-03 0.  1.
         11   -1    0    0    0    0 -0.00000000000E+00 -0.00000000000E+00 -0.45593999997E+02  0.45594000000E+02  0.51100000000E-03 0. -1.
    9900012    2    1    2    0    0  0.23672658501E+02  0.89864631312E+01  0.37255364334E+02  0.46142318167E+02  0.10000003703E+02 0.  0.
         12    1    1    2    0    0 -0.23672658501E+02 -0.89864631312E+01 -0.37255364334E+02  0.45045681833E+02  0.00000000000E+00 0. -1.
         11    1    3    3    0    0  0.15953817957E+02  0.55473547011E+01  0.19471494050E+02  0.25776666432E+02  0.51100000000E-03 0. -1.
        -11    1    3    3    0    0  0.82757669642E+01  0.27213756599E+01  0.17214950221E+02  0.19293748099E+02  0.51100000000E-03 0.  1.
        -12    1    3    3    0    0 -0.55692641992E+00  0.71773277024E+00  0.56892006373E+00  0.10719036363E+01  0.00000000000E+00 0.  1.
</event>
<event>
 7    1  0.2438448E-008  0.4614232E+02  0.7816164E-02  0.1320468E+00
        -11   -1    0    0    0    0  0.00000000000E+00  0.00000000000E+00  0.45593999997E+02  0.45594000000E+02  0.51100000000E-03 0. -1.
         11   -1    0    0    0    0 -0.00000000000E+00 -0.00000000000E+00 -0.45593999997E+02  0.45594000000E+02  0.51100000000E-03 0.  1.
    9900012    2    1    2    0    0  0.26947003153E+02 -0.19739364581E+02 -0.30221350385E+02  0.46142317498E+02  0.99999976011E+01 0.  0.
         12    1    1    2    0    0 -0.26947003153E+02  0.19739364581E+02  0.30221350385E+02  0.45045682502E+02  0.00000000000E+00 0. -1.
         11    1    3    3    0    0 -0.21511147954E+00  0.50817918773E+00 -0.91552801274E+00  0.10689765380E+01  0.51100000000E-03 0. -1.
        -11    1    3    3    0    0  0.14621042403E+02 -0.10009026864E+02 -0.12148459660E+02  0.21483495341E+02  0.51100000000E-03 0.  1.
        -12    1    3    3    0    0  0.12541072230E+02 -0.10238516905E+02 -0.17157362712E+02  0.23589845619E+02  0.00000000000E+00 0.  1.
</event>
<event>
 7    1  0.2438448E-008  0.4614232E+02  0.7816164E-02  0.1320468E+00
        -11   -1    0    0    0    0  0.00000000000E+00  0.00000000000E+00  0.45593999997E+02  0.45594000000E+02  0.51100000000E-03 0. -1.
         11   -1    0    0    0    0 -0.00000000000E+00 -0.00000000000E+00 -0.45593999997E+02  0.45594000000E+02  0.51100000000E-03 0.  1.
    9900012    2    1    2    0    0 -0.41286975439E+02 -0.14651904420E+01 -0.17954171592E+02  0.46142318726E+02  0.10000008795E+02 0.  0.
         12    1    1    2    0    0  0.41286975439E+02  0.14651904420E+01  0.17954171592E+02  0.45045681274E+02  0.00000000000E+00 0. -1.
         11    1    3    3    0    0 -0.30858885676E+00 -0.53774700118E+00 -0.13679118504E+01  0.15018595179E+01  0.51100000000E-03 0. -1.
        -11    1    3    3    0    0 -0.25677482420E+02  0.18310072590E+01 -0.12191862165E+02  0.28483805826E+02  0.51100000000E-03 0.  1.
        -12    1    3    3    0    0 -0.15300904162E+02 -0.27584506998E+01 -0.43943975761E+01  0.16156653382E+02  0.00000000000E+00 0.  1.
</event>
<event>
 7    1  0.2438448E-008  0.4614232E+02  0.7816164E-02  0.1320468E+00
        -11   -1    0    0    0    0  0.00000000000E+00  0.00000000000E+00  0.45593999997E+02  0.45594000000E+02  0.51100000000E-03 0. -1.
         11   -1    0    0    0    0 -0.00000000000E+00 -0.00000000000E+00 -0.45593999997E+02  0.45594000000E+02  0.51100000000E-03 0.  1.
    9900012    2    1    2    0    0 -0.26151198541E+02  0.34603332962E+02 -0.12158825708E+02  0.46142324516E+02  0.10000061598E+02 0.  0.
         12    1    1    2    0    0  0.26151198541E+02 -0.34603332962E+02  0.12158825708E+02  0.45045675484E+02  0.00000000000E+00 0. -1.
         11    1    3    3    0    0 -0.99999477576E+01  0.16505408451E+02 -0.12181988156E+01  0.19336790631E+02  0.51100000000E-03 0. -1.
        -11    1    3    3    0    0 -0.80723527241E+01  0.11438422444E+02 -0.63981735312E+01  0.15392758404E+02  0.51100000000E-03 0.  1.
         12    1    3    3    0    0 -0.80788980593E+01  0.66595020669E+01 -0.45424533611E+01  0.11412775481E+02  0.00000000000E+00 0. -1.
</event>
<event>
 7    1  0.2438448E-008  0.4614232E+02  0.7816164E-02  0.1320468E+00
        -11   -1    0    0    0    0  0.00000000000E+00  0.00000000000E+00  0.45593999997E+02  0.45594000000E+02  0.51100000000E-03 0.  1.
         11   -1    0    0    0    0 -0.00000000000E+00 -0.00000000000E+00 -0.45593999997E+02  0.45594000000E+02  0.51100000000E-03 0. -1.
    9900012    2    1    2    0    0 -0.21825348175E+02  0.33691827910E+02  0.20435956812E+02  0.46142318501E+02  0.10000006749E+02 0.  0.
         12    1    1    2    0    0  0.21825348175E+02 -0.33691827910E+02 -0.20435956812E+02  0.45045681499E+02  0.00000000000E+00 0. -1.
         11    1    3    3    0    0 -0.11144849606E+01  0.14301166740E+01  0.24656952378E+01  0.30605495741E+01  0.51100000000E-03 0. -1.
        -11    1    3    3    0    0 -0.92640256411E+01  0.11550783903E+02  0.30824036146E+01  0.15124284848E+02  0.51100000000E-03 0.  1.
        -12    1    3    3    0    0 -0.11446837573E+02  0.20710927333E+02  0.14887857960E+02  0.27957484079E+02  0.00000000000E+00 0.  1.
</event>
<event>
 7    1  0.2438448E-008  0.4614232E+02  0.7816164E-02  0.1320468E+00
        -11   -1    0    0    0    0  0.00000000000E+00  0.00000000000E+00  0.45593999997E+02  0.45594000000E+02  0.51100000000E-03 0.  1.
         11   -1    0    0    0    0 -0.00000000000E+00 -0.00000000000E+00 -0.45593999997E+02  0.45594000000E+02  0.51100000000E-03 0. -1.
    9900012    2    1    2    0    0 -0.25011639303E+02  0.22688751932E+02  0.29811944120E+02  0.46142316777E+02  0.99999910221E+01 0.  0.
         12    1    1    2    0    0  0.25011639303E+02 -0.22688751932E+02 -0.29811944120E+02  0.45045683223E+02  0.00000000000E+00 0. -1.
         11    1    3    3    0    0 -0.35457369970E+01  0.76353236765E+00  0.45472186867E+01  0.58165651869E+01  0.51100000000E-03 0. -1.
        -11    1    3    3    0    0 -0.56405956164E+01  0.72228375286E+01  0.11528405996E+02  0.14727180516E+02  0.51100000000E-03 0.  1.
         12    1    3    3    0    0 -0.15825306690E+02  0.14702382036E+02  0.13736319437E+02  0.25598571074E+02  0.00000000000E+00 0. -1.
</event>
<event>
 7    1  0.2438448E-008  0.4614232E+02  0.7816164E-02  0.1320468E+00
        -11   -1    0    0    0    0  0.00000000000E+00  0.00000000000E+00  0.45593999997E+02  0.45594000000E+02  0.51100000000E-03 0. -1.
         11   -1    0    0    0    0 -0.00000000000E+00 -0.00000000000E+00 -0.45593999997E+02  0.45594000000E+02  0.51100000000E-03 0.  1.
    9900012    2    1    2    0    0 -0.41713469591E+02  0.11669076504E+02  0.12366595586E+02  0.46142316764E+02  0.99999909117E+01 0.  0.
         12    1    1    2    0    0  0.41713469591E+02 -0.11669076504E+02 -0.12366595586E+02  0.45045683236E+02  0.00000000000E+00 0. -1.
         11    1    3    3    0    0 -0.79659923458E+01  0.42862925183E+01  0.61748121811E+00  0.90670072748E+01  0.51100000000E-03 0. -1.
        -11    1    3    3    0    0 -0.65396514259E+01  0.15164821524E+01 -0.35866930142E+00  0.67227526222E+01  0.51100000000E-03 0.  1.
         12    1    3    3    0    0 -0.27207825819E+02  0.58663018334E+01  0.12107783669E+02  0.30352556867E+02  0.00000000000E+00 0. -1.
</event>
<event>
 7    1  0.2438448E-008  0.4614232E+02  0.7816164E-02  0.1320468E+00
        -11   -1    0    0    0    0  0.00000000000E+00  0.00000000000E+00  0.45593999997E+02  0.45594000000E+02  0.51100000000E-03 0.  1.
         11   -1    0    0    0    0 -0.00000000000E+00 -0.00000000000E+00 -0.45593999997E+02  0.45594000000E+02  0.51100000000E-03 0. -1.
    9900012    2    1    2    0    0  0.32163409458E+02 -0.26552138992E+02  0.17018009432E+02  0.46142316100E+02  0.99999848554E+01 0.  0.
         12    1    1    2    0    0 -0.32163409458E+02  0.26552138992E+02 -0.17018009432E+02  0.45045683900E+02  0.00000000000E+00 0. -1.
         11    1    3    3    0    0  0.20283753913E+01  0.21129211201E+00 -0.54351306681E+00  0.21105349558E+01  0.51100000000E-03 0. -1.
        -11    1    3    3    0    0  0.10615926019E+02 -0.78942055249E+01  0.56920100604E+01  0.14401921570E+02  0.51100000000E-03 0.  1.
         12    1    3    3    0    0  0.19519108048E+02 -0.18869225579E+02  0.11869512438E+02  0.29629859575E+02  0.00000000000E+00 0. -1.
</event>
<event>
 7    1  0.2438448E-008  0.4614232E+02  0.7816164E-02  0.1320468E+00
        -11   -1    0    0    0    0  0.00000000000E+00  0.00000000000E+00  0.45593999997E+02  0.45594000000E+02  0.51100000000E-03 0.  1.
         11   -1    0    0    0    0 -0.00000000000E+00 -0.00000000000E+00 -0.45593999997E+02  0.45594000000E+02  0.51100000000E-03 0. -1.
    9900012    2    1    2    0    0  0.19156015543E+02 -0.40012619604E+02  0.78199076524E+01  0.46142316359E+02  0.99999872112E+01 0.  0.
         12    1    1    2    0    0 -0.19156015543E+02  0.40012619604E+02 -0.78199076524E+01  0.45045683641E+02  0.00000000000E+00 0. -1.
         11    1    3    3    0    0  0.66947659719E+01 -0.85359339342E+01  0.96253503950E+00  0.10890754497E+02  0.51100000000E-03 0. -1.
        -11    1    3    3    0    0  0.13146598002E+02 -0.28446424738E+02  0.71121895908E+01  0.32134333048E+02  0.51100000000E-03 0.  1.
         12    1    3    3    0    0 -0.68534843126E+00 -0.30302609317E+01 -0.25481697788E+00  0.31172288139E+01  0.00000000000E+00 0. -1.
</event>
<event>
 7    1  0.2438448E-008  0.4614232E+02  0.7816164E-02  0.1320468E+00
        -11   -1    0    0    0    0  0.00000000000E+00  0.00000000000E+00  0.45593999997E+02  0.45594000000E+02  0.51100000000E-03 0.  1.
         11   -1    0    0    0    0 -0.00000000000E+00 -0.00000000000E+00 -0.45593999997E+02  0.45594000000E+02  0.51100000000E-03 0. -1.
    9900012    2    1    2    0    0  0.33088547718E+02 -0.93172580229E+01  0.29110995393E+02  0.46142319409E+02  0.10000015026E+02 0.  0.
         12    1    1    2    0    0 -0.33088547718E+02  0.93172580229E+01 -0.29110995393E+02  0.45045680591E+02  0.00000000000E+00 0. -1.
         11    1    3    3    0    0  0.33358404293E+01 -0.53654223647E+00  0.54122843784E+01  0.63803237688E+01  0.51100000000E-03 0. -1.
        -11    1    3    3    0    0  0.27943463113E+01 -0.32813379497E+01  0.43691147745E+01  0.61371584810E+01  0.51100000000E-03 0.  1.
         12    1    3    3    0    0  0.26958360977E+02 -0.54993778368E+01  0.19329596240E+02  0.33624837159E+02  0.00000000000E+00 0. -1.
</event>
<event>
 7    1  0.2438448E-008  0.4614232E+02  0.7816164E-02  0.1320468E+00
        -11   -1    0    0    0    0  0.00000000000E+00  0.00000000000E+00  0.45593999997E+02  0.45594000000E+02  0.51100000000E-03 0.  1.
         11   -1    0    0    0    0 -0.00000000000E+00 -0.00000000000E+00 -0.45593999997E+02  0.45594000000E+02  0.51100000000E-03 0. -1.
    9900012    2    1    2    0    0  0.43608594701E+01 -0.11156860068E+02  0.43423736961E+02  0.46142317038E+02  0.99999934050E+01 0.  0.
         12    1    1    2    0    0 -0.43608594701E+01  0.11156860068E+02 -0.43423736961E+02  0.45045682962E+02  0.00000000000E+00 0. -1.
         11    1    3    3    0    0  0.42958036015E+01 -0.69495415802E+01  0.17367136321E+02  0.19192901839E+02  0.51100000000E-03 0.  1.
        -11    1    3    3    0    0 -0.48145031897E+00  0.12165798031E+01  0.33218340938E+01  0.35702160768E+01  0.51100000000E-03 0. -1.
         12    1    3    3    0    0  0.54650618757E+00 -0.54238982908E+01  0.22734766546E+02  0.23379199122E+02  0.00000000000E+00 0. -1.
</event>
<event>
 7    1  0.2438448E-008  0.4614232E+02  0.7816164E-02  0.1320468E+00
        -11   -1    0    0    0    0  0.00000000000E+00  0.00000000000E+00  0.45593999997E+02  0.45594000000E+02  0.51100000000E-03 0. -1.
         11   -1    0    0    0    0 -0.00000000000E+00 -0.00000000000E+00 -0.45593999997E+02  0.45594000000E+02  0.51100000000E-03 0.  1.
    9900012    2    1    2    0    0 -0.81268700587E+01  0.42645790223E+02 -0.12016821806E+02  0.46142318220E+02  0.10000004187E+02 0.  0.
         12    1    1    2    0    0  0.81268700587E+01 -0.42645790223E+02  0.12016821806E+02  0.45045681780E+02  0.00000000000E+00 0. -1.
         11    1    3    3    0    0 -0.41168809629E+01  0.21683223692E+02 -0.17543607925E+01  0.22140205071E+02  0.51100000000E-03 0. -1.
        -11    1    3    3    0    0 -0.89868770396E+00  0.27057111167E+01 -0.46884454846E-01  0.28514401010E+01  0.51100000000E-03 0.  1.
        -12    1    3    3    0    0 -0.31113013919E+01  0.18256855414E+02 -0.10215576559E+02  0.21150673048E+02  0.00000000000E+00 0.  1.
</event>
<event>
 7    1  0.2438448E-008  0.4614232E+02  0.7816164E-02  0.1320468E+00
        -11   -1    0    0    0    0  0.00000000000E+00  0.00000000000E+00  0.45593999997E+02  0.45594000000E+02  0.51100000000E-03 0.  1.
         11   -1    0    0    0    0 -0.00000000000E+00 -0.00000000000E+00 -0.45593999997E+02  0.45594000000E+02  0.51100000000E-03 0. -1.
    9900012    2    1    2    0    0 -0.21025804079E+02  0.23796304051E+02  0.31949414190E+02  0.46142316625E+02  0.99999896439E+01 0.  0.
         12    1    1    2    0    0  0.21025804079E+02 -0.23796304051E+02 -0.31949414190E+02  0.45045683375E+02  0.00000000000E+00 0. -1.
         11    1    3    3    0    0 -0.11717250480E+02  0.17363962123E+02  0.15817885146E+02  0.26248935791E+02  0.51100000000E-03 0. -1.
        -11    1    3    3    0    0 -0.66588330942E+01  0.58525858906E+01  0.11423660983E+02  0.14460043233E+02  0.51100000000E-03 0.  1.
         12    1    3    3    0    0 -0.26497205040E+01  0.57975603712E+00  0.47078680604E+01  0.54333376010E+01  0.00000000000E+00 0. -1.
</event>
<event>
 7    1  0.2438448E-008  0.4614232E+02  0.7816164E-02  0.1320468E+00
        -11   -1    0    0    0    0  0.00000000000E+00  0.00000000000E+00  0.45593999997E+02  0.45594000000E+02  0.51100000000E-03 0.  1.
         11   -1    0    0    0    0 -0.00000000000E+00 -0.00000000000E+00 -0.45593999997E+02  0.45594000000E+02  0.51100000000E-03 0. -1.
    9900012    2    1    2    0    0  0.45754846810E+01  0.17662812613E+02  0.41184991180E+02  0.46142317544E+02  0.99999980164E+01 0.  0.
         12    1    1    2    0    0 -0.45754846810E+01 -0.17662812613E+02 -0.41184991180E+02  0.45045682456E+02  0.00000000000E+00 0. -1.
         11    1    3    3    0    0  0.20315679998E+00  0.51727006879E+01  0.48424300594E+01  0.70885283545E+01  0.51100000000E-03 0. -1.
        -11    1    3    3    0    0  0.95099084514E+00  0.25401941698E+01  0.27941878037E+01  0.38941566161E+01  0.51100000000E-03 0.  1.
        -12    1    3    3    0    0  0.34213370359E+01  0.99499177555E+01  0.33548373317E+02  0.35159632573E+02  0.00000000000E+00 0.  1.
</event>
<event>
 7    1  0.2438448E-008  0.4614232E+02  0.7816164E-02  0.1320468E+00
        -11   -1    0    0    0    0  0.00000000000E+00  0.00000000000E+00  0.45593999997E+02  0.45594000000E+02  0.51100000000E-03 0.  1.
         11   -1    0    0    0    0 -0.00000000000E+00 -0.00000000000E+00 -0.45593999997E+02  0.45594000000E+02  0.51100000000E-03 0. -1.
    9900012    2    1    2    0    0  0.20578391911E+02  0.20459017779E+02  0.34453909314E+02  0.46142317753E+02  0.99999999239E+01 0.  0.
         12    1    1    2    0    0 -0.20578391911E+02 -0.20459017779E+02 -0.34453909314E+02  0.45045682247E+02  0.00000000000E+00 0. -1.
         11    1    3    3    0    0  0.77881768661E+01  0.25156610081E+01  0.95861640357E+01  0.12604713023E+02  0.51100000000E-03 0. -1.
        -11    1    3    3    0    0  0.51398825083E+01  0.85683611104E+01  0.14464315161E+02  0.17579863983E+02  0.51100000000E-03 0.  1.
         12    1    3    3    0    0  0.76503325365E+01  0.93749956604E+01  0.10403430117E+02  0.15957740747E+02  0.00000000000E+00 0. -1.
</event>
<event>
 7    1  0.2438448E-008  0.4614232E+02  0.7816164E-02  0.1320468E+00
        -11   -1    0    0    0    0  0.00000000000E+00  0.00000000000E+00  0.45593999997E+02  0.45594000000E+02  0.51100000000E-03 0. -1.
         11   -1    0    0    0    0 -0.00000000000E+00 -0.00000000000E+00 -0.45593999997E+02  0.45594000000E+02  0.51100000000E-03 0.  1.
    9900012    2    1    2    0    0 -0.16579078814E+02 -0.27044659167E+02 -0.31981777440E+02  0.46142317277E+02  0.99999955818E+01 0.  0.
         12    1    1    2    0    0  0.16579078814E+02  0.27044659167E+02  0.31981777440E+02  0.45045682723E+02  0.00000000000E+00 0. -1.
         11    1    3    3    0    0 -0.14398206735E+02 -0.19782405956E+02 -0.25505377250E+02  0.35343687011E+02  0.51100000000E-03 0. -1.
        -11    1    3    3    0    0 -0.18325742961E+01 -0.12535671639E+01 -0.33427749516E+01  0.40129669602E+01  0.51100000000E-03 0.  1.
        -12    1    3    3    0    0 -0.34829778247E+00 -0.60086860474E+01 -0.31336252387E+01  0.67856633057E+01  0.00000000000E+00 0.  1.
</event>
<event>
 7    1  0.2438448E-008  0.4614232E+02  0.7816164E-02  0.1320468E+00
        -11   -1    0    0    0    0  0.00000000000E+00  0.00000000000E+00  0.45593999997E+02  0.45594000000E+02  0.51100000000E-03 0.  1.
         11   -1    0    0    0    0 -0.00000000000E+00 -0.00000000000E+00 -0.45593999997E+02  0.45594000000E+02  0.51100000000E-03 0. -1.
    9900012    2    1    2    0    0  0.11622779926E+02 -0.37007576345E+02  0.22901174948E+02  0.46142317253E+02  0.99999953653E+01 0.  0.
         12    1    1    2    0    0 -0.11622779926E+02  0.37007576345E+02 -0.22901174948E+02  0.45045682747E+02  0.00000000000E+00 0. -1.
         11    1    3    3    0    0  0.23548190793E+01 -0.13964126735E+01  0.82363182261E+00  0.28589352723E+01  0.51100000000E-03 0. -1.
        -11    1    3    3    0    0  0.48366540182E+01 -0.27644719293E+02  0.15695574458E+02  0.32155478300E+02  0.51100000000E-03 0.  1.
         12    1    3    3    0    0  0.44313068288E+01 -0.79664443784E+01  0.63819686674E+01  0.11127903680E+02  0.00000000000E+00 0. -1.
</event>
<event>
 7    1  0.2438448E-008  0.4614232E+02  0.7816164E-02  0.1320468E+00
        -11   -1    0    0    0    0  0.00000000000E+00  0.00000000000E+00  0.45593999997E+02  0.45594000000E+02  0.51100000000E-03 0.  1.
         11   -1    0    0    0    0 -0.00000000000E+00 -0.00000000000E+00 -0.45593999997E+02  0.45594000000E+02  0.51100000000E-03 0. -1.
    9900012    2    1    2    0    0 -0.28175478869E+02 -0.17023049992E+02  0.30748522167E+02  0.46142318121E+02  0.10000003277E+02 0.  0.
         12    1    1    2    0    0  0.28175478869E+02  0.17023049992E+02 -0.30748522167E+02  0.45045681879E+02  0.00000000000E+00 0. -1.
         11    1    3    3    0    0 -0.23986334620E+02 -0.14574469855E+02  0.21057677737E+02  0.35088248916E+02  0.51100000000E-03 0. -1.
        -11    1    3    3    0    0 -0.44716495926E+00 -0.94162368836E-01  0.29994851031E+01  0.30340952848E+01  0.51100000000E-03 0.  1.
         12    1    3    3    0    0 -0.37419792903E+01 -0.23544177683E+01  0.66913593266E+01  0.80199739198E+01  0.00000000000E+00 0. -1.
</event>
<event>
 7    1  0.2438448E-008  0.4614231E+02  0.7816164E-02  0.1320468E+00
        -11   -1    0    0    0    0  0.00000000000E+00  0.00000000000E+00  0.45593999997E+02  0.45594000000E+02  0.51100000000E-03 0.  1.
         11   -1    0    0    0    0 -0.00000000000E+00 -0.00000000000E+00 -0.45593999997E+02  0.45594000000E+02  0.51100000000E-03 0. -1.
    9900012    2    1    2    0    0  0.18635225920E+02 -0.39517905502E+02  0.10962572007E+02  0.46142306695E+02  0.99998990896E+01 0.  0.
         12    1    1    2    0    0 -0.18635225920E+02  0.39517905502E+02 -0.10962572007E+02  0.45045693305E+02  0.00000000000E+00 0. -1.
         11    1    3    3    0    0  0.56896444440E+01 -0.12779093003E+02  0.34656634693E+01  0.14411387699E+02  0.51100000000E-03 0. -1.
        -11    1    3    3    0    0  0.12981151655E+02 -0.25464755334E+02  0.88015336623E+01  0.29907040268E+02  0.51100000000E-03 0.  1.
         12    1    3    3    0    0 -0.35570179004E-01 -0.12740571649E+01 -0.13046251251E+01  0.18238787279E+01  0.00000000000E+00 0. -1.
</event>
<event>
 7    1  0.2438448E-008  0.4614232E+02  0.7816164E-02  0.1320468E+00
        -11   -1    0    0    0    0  0.00000000000E+00  0.00000000000E+00  0.45593999997E+02  0.45594000000E+02  0.51100000000E-03 0.  1.
         11   -1    0    0    0    0 -0.00000000000E+00 -0.00000000000E+00 -0.45593999997E+02  0.45594000000E+02  0.51100000000E-03 0. -1.
    9900012    2    1    2    0    0  0.14296603321E+02 -0.13303044843E+02  0.40592481402E+02  0.46142318575E+02  0.10000007425E+02 0.  0.
         12    1    1    2    0    0 -0.14296603321E+02  0.13303044843E+02 -0.40592481402E+02  0.45045681425E+02  0.00000000000E+00 0. -1.
         11    1    3    3    0    0  0.54259139327E+01 -0.19928050895E+00  0.13084315584E+02  0.14166141652E+02  0.51100000000E-03 0. -1.
        -11    1    3    3    0    0  0.39127200840E+01 -0.62777217736E+01  0.91035610761E+01  0.11730046618E+02  0.51100000000E-03 0.  1.
        -12    1    3    3    0    0  0.49579693040E+01 -0.68260425607E+01  0.18404604742E+02  0.20246130306E+02  0.00000000000E+00 0.  1.
</event>
<event>
 7    1  0.2438448E-008  0.4614232E+02  0.7816164E-02  0.1320468E+00
        -11   -1    0    0    0    0  0.00000000000E+00  0.00000000000E+00  0.45593999997E+02  0.45594000000E+02  0.51100000000E-03 0. -1.
         11   -1    0    0    0    0 -0.00000000000E+00 -0.00000000000E+00 -0.45593999997E+02  0.45594000000E+02  0.51100000000E-03 0.  1.
    9900012    2    1    2    0    0 -0.66372940741E+01 -0.36136127065E+02 -0.26062232871E+02  0.46142319473E+02  0.10000015609E+02 0.  0.
         12    1    1    2    0    0  0.66372940741E+01  0.36136127065E+02  0.26062232871E+02  0.45045680527E+02  0.00000000000E+00 0. -1.
         11    1    3    3    0    0 -0.16996452441E+00 -0.19003740711E+00 -0.84138523286E-01  0.26848036777E+00  0.51100000000E-03 0. -1.
        -11    1    3    3    0    0  0.12600138810E+01 -0.43520384438E+01 -0.66255114192E+01  0.80265357051E+01  0.51100000000E-03 0.  1.
        -12    1    3    3    0    0 -0.77273434308E+01 -0.31594051214E+02 -0.19352582929E+02  0.37847303400E+02  0.00000000000E+00 0.  1.
</event>
<event>
 7    1  0.2438448E-008  0.4614232E+02  0.7816164E-02  0.1320468E+00
        -11   -1    0    0    0    0  0.00000000000E+00  0.00000000000E+00  0.45593999997E+02  0.45594000000E+02  0.51100000000E-03 0.  1.
         11   -1    0    0    0    0 -0.00000000000E+00 -0.00000000000E+00 -0.45593999997E+02  0.45594000000E+02  0.51100000000E-03 0. -1.
    9900012    2    1    2    0    0  0.17016886133E+01  0.66201708515E+01  0.44524051410E+02  0.46142316963E+02  0.99999927251E+01 0.  0.
         12    1    1    2    0    0 -0.17016886133E+01 -0.66201708515E+01 -0.44524051410E+02  0.45045683037E+02  0.00000000000E+00 0. -1.
         11    1    3    3    0    0 -0.29603719935E+01  0.15252522348E+00  0.78991699653E+01  0.84370582957E+01  0.51100000000E-03 0. -1.
        -11    1    3    3    0    0  0.20434059174E+01  0.58433235995E+01  0.23099704844E+02  0.23914771640E+02  0.51100000000E-03 0.  1.
        -12    1    3    3    0    0  0.26186546894E+01  0.62432202854E+00  0.13525176601E+02  0.13790487028E+02  0.00000000000E+00 0.  1.
</event>
<event>
 7    1  0.2438448E-008  0.4614232E+02  0.7816164E-02  0.1320468E+00
        -11   -1    0    0    0    0  0.00000000000E+00  0.00000000000E+00  0.45593999997E+02  0.45594000000E+02  0.51100000000E-03 0. -1.
         11   -1    0    0    0    0 -0.00000000000E+00 -0.00000000000E+00 -0.45593999997E+02  0.45594000000E+02  0.51100000000E-03 0.  1.
    9900012    2    1    2    0    0  0.10370007721E+02 -0.14785528024E+02 -0.41266989356E+02  0.46142319746E+02  0.10000018096E+02 0.  0.
         12    1    1    2    0    0 -0.10370007721E+02  0.14785528024E+02  0.41266989356E+02  0.45045680254E+02  0.00000000000E+00 0. -1.
         11    1    3    3    0    0  0.48485411022E+01 -0.11611915625E+02 -0.19214396712E+02  0.22968194892E+02  0.51100000000E-03 0. -1.
        -11    1    3    3    0    0  0.44161619537E+01 -0.38217819934E+01 -0.17985132190E+02  0.18909613538E+02  0.51100000000E-03 0.  1.
         12    1    3    3    0    0  0.11053046652E+01  0.64816959359E+00 -0.40674604533E+01  0.42645113160E+01  0.00000000000E+00 0. -1.
</event>
<event>
 7    1  0.2438448E-008  0.4614232E+02  0.7816164E-02  0.1320468E+00
        -11   -1    0    0    0    0  0.00000000000E+00  0.00000000000E+00  0.45593999997E+02  0.45594000000E+02  0.51100000000E-03 0. -1.
         11   -1    0    0    0    0 -0.00000000000E+00 -0.00000000000E+00 -0.45593999997E+02  0.45594000000E+02  0.51100000000E-03 0.  1.
    9900012    2    1    2    0    0  0.10606126340E+02  0.21440518355E+02 -0.38169723383E+02  0.46142317339E+02  0.99999961481E+01 0.  0.
         12    1    1    2    0    0 -0.10606126340E+02 -0.21440518355E+02  0.38169723383E+02  0.45045682661E+02  0.00000000000E+00 0. -1.
         11    1    3    3    0    0  0.12014282034E+01  0.42143433132E-01 -0.26654690392E+00  0.12313623796E+01  0.51100000000E-03 0. -1.
        -11    1    3    3    0    0  0.33290916670E+01  0.13208429277E+02 -0.18288178374E+02  0.22803572611E+02  0.51100000000E-03 0.  1.
         12    1    3    3    0    0  0.60756064698E+01  0.81899456442E+01 -0.19614998105E+02  0.22107382348E+02  0.00000000000E+00 0. -1.
</event>
<event>
 7    1  0.2438448E-008  0.4614232E+02  0.7816164E-02  0.1320468E+00
        -11   -1    0    0    0    0  0.00000000000E+00  0.00000000000E+00  0.45593999997E+02  0.45594000000E+02  0.51100000000E-03 0. -1.
         11   -1    0    0    0    0 -0.00000000000E+00 -0.00000000000E+00 -0.45593999997E+02  0.45594000000E+02  0.51100000000E-03 0.  1.
    9900012    2    1    2    0    0  0.35327495459E+02  0.26934524922E+02 -0.74574042478E+01  0.46142318228E+02  0.10000004259E+02 0.  0.
         12    1    1    2    0    0 -0.35327495459E+02 -0.26934524922E+02  0.74574042478E+01  0.45045681772E+02  0.00000000000E+00 0. -1.
         11    1    3    3    0    0  0.43676435731E+00  0.78292619653E+00 -0.10343929295E+01  0.13688336374E+01  0.51100000000E-03 0. -1.
        -11    1    3    3    0    0  0.32679167955E+02  0.22959462301E+02 -0.77233063321E+01  0.40678180740E+02  0.51100000000E-03 0.  1.
         12    1    3    3    0    0  0.22115631464E+01  0.31921364248E+01  0.13002950138E+01  0.40953038505E+01  0.00000000000E+00 0. -1.
</event>
<event>
 7    1  0.2438448E-008  0.4614232E+02  0.7816164E-02  0.1320468E+00
        -11   -1    0    0    0    0  0.00000000000E+00  0.00000000000E+00  0.45593999997E+02  0.45594000000E+02  0.51100000000E-03 0. -1.
         11   -1    0    0    0    0 -0.00000000000E+00 -0.00000000000E+00 -0.45593999997E+02  0.45594000000E+02  0.51100000000E-03 0.  1.
    9900012    2    1    2    0    0 -0.27284885733E+02  0.58916423380E+01 -0.35354445790E+02  0.46142320118E+02  0.10000021494E+02 0.  0.
         12    1    1    2    0    0  0.27284885733E+02 -0.58916423380E+01  0.35354445790E+02  0.45045679882E+02  0.00000000000E+00 0. -1.
         11    1    3    3    0    0 -0.16540107955E+02  0.65684670844E+01 -0.23969809695E+02  0.29854174048E+02  0.51100000000E-03 0. -1.
        -11    1    3    3    0    0 -0.19685176777E+01  0.16504538005E+01 -0.25603118892E+01  0.36268797645E+01  0.51100000000E-03 0.  1.
        -12    1    3    3    0    0 -0.87762601002E+01 -0.23272785468E+01 -0.88243242056E+01  0.12661266306E+02  0.00000000000E+00 0.  1.
</event>
<event>
 7    1  0.2438448E-008  0.4614232E+02  0.7816164E-02  0.1320468E+00
        -11   -1    0    0    0    0  0.00000000000E+00  0.00000000000E+00  0.45593999997E+02  0.45594000000E+02  0.51100000000E-03 0. -1.
         11   -1    0    0    0    0 -0.00000000000E+00 -0.00000000000E+00 -0.45593999997E+02  0.45594000000E+02  0.51100000000E-03 0.  1.
    9900012    2    1    2    0    0  0.20672314510E+02  0.39247694173E+02  0.78350131911E+01  0.46142317446E+02  0.99999971224E+01 0.  0.
         12    1    1    2    0    0 -0.20672314510E+02 -0.39247694173E+02 -0.78350131911E+01  0.45045682554E+02  0.00000000000E+00 0. -1.
         11    1    3    3    0    0  0.61737151011E+01  0.78978500291E+01 -0.67019265799E+00  0.10046887662E+02  0.51100000000E-03 0. -1.
        -11    1    3    3    0    0  0.86274362973E+01  0.11483196157E+02  0.34976441789E+01  0.14782759083E+02  0.51100000000E-03 0.  1.
         12    1    3    3    0    0  0.58711631121E+01  0.19866647986E+02  0.50075616702E+01  0.21312670700E+02  0.00000000000E+00 0. -1.
</event>
<event>
 7    1  0.2438448E-008  0.4614232E+02  0.7816164E-02  0.1320468E+00
        -11   -1    0    0    0    0  0.00000000000E+00  0.00000000000E+00  0.45593999997E+02  0.45594000000E+02  0.51100000000E-03 0. -1.
         11   -1    0    0    0    0 -0.00000000000E+00 -0.00000000000E+00 -0.45593999997E+02  0.45594000000E+02  0.51100000000E-03 0.  1.
    9900012    2    1    2    0    0 -0.14441302773E+02  0.41037999905E+02 -0.11680956187E+02  0.46142318749E+02  0.10000009004E+02 0.  0.
         12    1    1    2    0    0  0.14441302773E+02 -0.41037999905E+02  0.11680956187E+02  0.45045681251E+02  0.00000000000E+00 0. -1.
         11    1    3    3    0    0  0.84288264517E-01 -0.33383940338E+00  0.20973843527E+00  0.40316712556E+00  0.51100000000E-03 0.  1.
        -11    1    3    3    0    0 -0.13441833397E+02  0.36941567794E+02 -0.89645660822E+01  0.40320289699E+02  0.51100000000E-03 0. -1.
        -12    1    3    3    0    0 -0.10837576398E+01  0.44302715148E+01 -0.29261285399E+01  0.54188619238E+01  0.00000000000E+00 0.  1.
</event>
<event>
 7    1  0.2438448E-008  0.4614232E+02  0.7816164E-02  0.1320468E+00
        -11   -1    0    0    0    0  0.00000000000E+00  0.00000000000E+00  0.45593999997E+02  0.45594000000E+02  0.51100000000E-03 0.  1.
         11   -1    0    0    0    0 -0.00000000000E+00 -0.00000000000E+00 -0.45593999997E+02  0.45594000000E+02  0.51100000000E-03 0. -1.
    9900012    2    1    2    0    0 -0.15254660799E+02  0.13238961304E+02  0.40263364796E+02  0.46142319661E+02  0.10000017325E+02 0.  0.
         12    1    1    2    0    0  0.15254660799E+02 -0.13238961304E+02 -0.40263364796E+02  0.45045680339E+02  0.00000000000E+00 0. -1.
         11    1    3    3    0    0 -0.56955923765E+01  0.45287349305E+01  0.11554293027E+02  0.13654702494E+02  0.51100000000E-03 0. -1.
        -11    1    3    3    0    0 -0.39247992983E+01  0.87280359891E+01  0.18336922332E+02  0.20683940210E+02  0.51100000000E-03 0.  1.
         12    1    3    3    0    0 -0.56342691241E+01 -0.17809615873E-01  0.10372149438E+02  0.11803676957E+02  0.00000000000E+00 0. -1.
</event>
<event>
 7    1  0.2438448E-008  0.4614232E+02  0.7816164E-02  0.1320468E+00
        -11   -1    0    0    0    0  0.00000000000E+00  0.00000000000E+00  0.45593999997E+02  0.45594000000E+02  0.51100000000E-03 0.  1.
         11   -1    0    0    0    0 -0.00000000000E+00 -0.00000000000E+00 -0.45593999997E+02  0.45594000000E+02  0.51100000000E-03 0. -1.
    9900012    2    1    2    0    0  0.18348334202E+02 -0.37614600405E+02 -0.16661150081E+02  0.46142318147E+02  0.10000003518E+02 0.  0.
         12    1    1    2    0    0 -0.18348334202E+02  0.37614600405E+02  0.16661150081E+02  0.45045681853E+02  0.00000000000E+00 0. -1.
         11    1    3    3    0    0  0.68169142284E+01 -0.17813696855E+02 -0.67242972103E+01  0.20224101672E+02  0.51100000000E-03 0. -1.
        -11    1    3    3    0    0  0.52353392963E+01 -0.13059156938E+02 -0.88702215353E+01  0.16632233398E+02  0.51100000000E-03 0.  1.
         12    1    3    3    0    0  0.62960806777E+01 -0.67417466124E+01 -0.10666313353E+01  0.92859830761E+01  0.00000000000E+00 0. -1.
</event>
<event>
 7    1  0.2438448E-008  0.4614232E+02  0.7816164E-02  0.1320468E+00
        -11   -1    0    0    0    0  0.00000000000E+00  0.00000000000E+00  0.45593999997E+02  0.45594000000E+02  0.51100000000E-03 0.  1.
         11   -1    0    0    0    0 -0.00000000000E+00 -0.00000000000E+00 -0.45593999997E+02  0.45594000000E+02  0.51100000000E-03 0. -1.
    9900012    2    1    2    0    0 -0.16939909650E+01 -0.41237647540E+01  0.44824528233E+02  0.46142319048E+02  0.10000011731E+02 0.  0.
         12    1    1    2    0    0  0.16939909650E+01  0.41237647540E+01 -0.44824528233E+02  0.45045680952E+02  0.00000000000E+00 0. -1.
         11    1    3    3    0    0 -0.21248464840E+01 -0.25577194913E+01  0.10474176211E+02  0.10989325235E+02  0.51100000000E-03 0. -1.
        -11    1    3    3    0    0  0.55935504989E-01 -0.14488349669E+01  0.91319096359E+00  0.17135254708E+01  0.51100000000E-03 0.  1.
        -12    1    3    3    0    0  0.37492001401E+00 -0.11721029585E+00  0.33437161059E+02  0.33439468341E+02  0.00000000000E+00 0.  1.
</event>
<event>
 7    1  0.2438448E-008  0.4614232E+02  0.7816164E-02  0.1320468E+00
        -11   -1    0    0    0    0  0.00000000000E+00  0.00000000000E+00  0.45593999997E+02  0.45594000000E+02  0.51100000000E-03 0.  1.
         11   -1    0    0    0    0 -0.00000000000E+00 -0.00000000000E+00 -0.45593999997E+02  0.45594000000E+02  0.51100000000E-03 0. -1.
    9900012    2    1    2    0    0  0.16871661792E+02  0.35410914441E+02  0.22147856362E+02  0.46142319023E+02  0.10000011511E+02 0.  0.
         12    1    1    2    0    0 -0.16871661792E+02 -0.35410914441E+02 -0.22147856362E+02  0.45045680977E+02  0.00000000000E+00 0. -1.
         11    1    3    3    0    0  0.13719725840E+02  0.23685610584E+02  0.18164126357E+02  0.32850791656E+02  0.51100000000E-03 0.  1.
        -11    1    3    3    0    0  0.28380055435E+01  0.38263836095E+01  0.12265679605E+01  0.49193451002E+01  0.51100000000E-03 0. -1.
        -12    1    3    3    0    0  0.31393040947E+00  0.78989202472E+01  0.27571620452E+01  0.83721822673E+01  0.00000000000E+00 0.  1.
</event>
<event>
 7    1  0.2438448E-008  0.4614232E+02  0.7816164E-02  0.1320468E+00
        -11   -1    0    0    0    0  0.00000000000E+00  0.00000000000E+00  0.45593999997E+02  0.45594000000E+02  0.51100000000E-03 0. -1.
         11   -1    0    0    0    0 -0.00000000000E+00 -0.00000000000E+00 -0.45593999997E+02  0.45594000000E+02  0.51100000000E-03 0.  1.
    9900012    2    1    2    0    0  0.11063578077E+02  0.21866899671E+02 -0.37796156418E+02  0.46142317620E+02  0.99999987101E+01 0.  0.
         12    1    1    2    0    0 -0.11063578077E+02 -0.21866899671E+02  0.37796156418E+02  0.45045682380E+02  0.00000000000E+00 0. -1.
         11    1    3    3    0    0  0.42695299021E+01  0.23237035978E+01 -0.10444660065E+02  0.11520390971E+02  0.51100000000E-03 0. -1.
        -11    1    3    3    0    0  0.44989682250E+01  0.65442778105E+01 -0.88004427323E+01  0.11853947853E+02  0.51100000000E-03 0.  1.
         12    1    3    3    0    0  0.22950799503E+01  0.12998918263E+02 -0.18551053621E+02  0.22767978795E+02  0.00000000000E+00 0. -1.
</event>
<event>
 7    1  0.2438448E-008  0.4614232E+02  0.7816164E-02  0.1320468E+00
        -11   -1    0    0    0    0  0.00000000000E+00  0.00000000000E+00  0.45593999997E+02  0.45594000000E+02  0.51100000000E-03 0.  1.
         11   -1    0    0    0    0 -0.00000000000E+00 -0.00000000000E+00 -0.45593999997E+02  0.45594000000E+02  0.51100000000E-03 0. -1.
    9900012    2    1    2    0    0  0.40360797746E+02  0.14421931095E+02  0.13861002746E+02  0.46142317761E+02  0.10000000001E+02 0.  0.
         12    1    1    2    0    0 -0.40360797746E+02 -0.14421931095E+02 -0.13861002746E+02  0.45045682239E+02  0.00000000000E+00 0. -1.
         11    1    3    3    0    0  0.23927307000E+02  0.69786750706E+01  0.33337514350E+01  0.25146208956E+02  0.51100000000E-03 0.  1.
        -11    1    3    3    0    0  0.11620493242E+02  0.46519416357E+01  0.63295987616E+01  0.14026412403E+02  0.51100000000E-03 0. -1.
        -12    1    3    3    0    0  0.48129975047E+01  0.27913143887E+01  0.41976525499E+01  0.69696964013E+01  0.00000000000E+00 0.  1.
</event>
<event>
 7    1  0.2438448E-008  0.4614232E+02  0.7816164E-02  0.1320468E+00
        -11   -1    0    0    0    0  0.00000000000E+00  0.00000000000E+00  0.45593999997E+02  0.45594000000E+02  0.51100000000E-03 0.  1.
         11   -1    0    0    0    0 -0.00000000000E+00 -0.00000000000E+00 -0.45593999997E+02  0.45594000000E+02  0.51100000000E-03 0. -1.
    9900012    2    1    2    0    0  0.26364736860E+02  0.32949401391E+02  0.15759159246E+02  0.46142317611E+02  0.99999986291E+01 0.  0.
         12    1    1    2    0    0 -0.26364736860E+02 -0.32949401391E+02 -0.15759159246E+02  0.45045682389E+02  0.00000000000E+00 0. -1.
         11    1    3    3    0    0  0.25096387656E+01  0.56791294309E+01  0.74714719629E+00  0.62537210539E+01  0.51100000000E-03 0. -1.
        -11    1    3    3    0    0  0.18295044909E+02  0.24517243914E+02  0.11041574256E+02  0.32522611821E+02  0.51100000000E-03 0.  1.
        -12    1    3    3    0    0  0.55600531855E+01  0.27530280468E+01  0.39704377939E+01  0.73659847357E+01  0.00000000000E+00 0.  1.
</event>
<event>
 7    1  0.2438448E-008  0.4614232E+02  0.7816164E-02  0.1320468E+00
        -11   -1    0    0    0    0  0.00000000000E+00  0.00000000000E+00  0.45593999997E+02  0.45594000000E+02  0.51100000000E-03 0.  1.
         11   -1    0    0    0    0 -0.00000000000E+00 -0.00000000000E+00 -0.45593999997E+02  0.45594000000E+02  0.51100000000E-03 0. -1.
    9900012    2    1    2    0    0  0.18511504809E+01 -0.19563862918E+02  0.40533220628E+02  0.46142318022E+02  0.10000002383E+02 0.  0.
         12    1    1    2    0    0 -0.18511504809E+01  0.19563862918E+02 -0.40533220628E+02  0.45045681978E+02  0.00000000000E+00 0. -1.
         11    1    3    3    0    0  0.48461694275E+01 -0.63077779886E+01  0.16065458964E+02  0.17926862337E+02  0.51100000000E-03 0. -1.
        -11    1    3    3    0    0 -0.14979010525E+01 -0.17842938667E+01  0.58391782124E+01  0.62867650365E+01  0.51100000000E-03 0.  1.
         12    1    3    3    0    0 -0.14971178941E+01 -0.11471791063E+02  0.18628583452E+02  0.21928690649E+02  0.00000000000E+00 0. -1.
</event>
<event>
 7    1  0.2438448E-008  0.4614232E+02  0.7816164E-02  0.1320468E+00
        -11   -1    0    0    0    0  0.00000000000E+00  0.00000000000E+00  0.45593999997E+02  0.45594000000E+02  0.51100000000E-03 0.  1.
         11   -1    0    0    0    0 -0.00000000000E+00 -0.00000000000E+00 -0.45593999997E+02  0.45594000000E+02  0.51100000000E-03 0. -1.
    9900012    2    1    2    0    0 -0.36867457201E+02 -0.58976591355E+01  0.25201619961E+02  0.46142318383E+02  0.10000005668E+02 0.  0.
         12    1    1    2    0    0  0.36867457201E+02  0.58976591355E+01 -0.25201619961E+02  0.45045681617E+02  0.00000000000E+00 0. -1.
         11    1    3    3    0    0 -0.65511225753E+01 -0.25972366023E+01  0.26325969158E+01  0.75228592801E+01  0.51100000000E-03 0. -1.
        -11    1    3    3    0    0 -0.23733154452E+00 -0.95669847381E+00  0.15953010848E+01  0.18752557277E+01  0.51100000000E-03 0.  1.
        -12    1    3    3    0    0 -0.30079003081E+02 -0.23437240594E+01  0.20973721960E+02  0.36744203375E+02  0.00000000000E+00 0.  1.
</event>
<event>
 7    1  0.2438448E-008  0.4614232E+02  0.7816164E-02  0.1320468E+00
        -11   -1    0    0    0    0  0.00000000000E+00  0.00000000000E+00  0.45593999997E+02  0.45594000000E+02  0.51100000000E-03 0.  1.
         11   -1    0    0    0    0 -0.00000000000E+00 -0.00000000000E+00 -0.45593999997E+02  0.45594000000E+02  0.51100000000E-03 0. -1.
    9900012    2    1    2    0    0 -0.26715654802E+02 -0.20857960033E+02  0.29670402334E+02  0.46142317821E+02  0.10000000550E+02 0.  0.
         12    1    1    2    0    0  0.26715654802E+02  0.20857960033E+02 -0.29670402334E+02  0.45045682179E+02  0.00000000000E+00 0. -1.
         11    1    3    3    0    0 -0.10790076107E+01 -0.30931879667E+01  0.33523271094E+01  0.46872344224E+01  0.51100000000E-03 0. -1.
        -11    1    3    3    0    0 -0.31380667730E+01 -0.21602562121E+01  0.69205660468E+01  0.78998990274E+01  0.51100000000E-03 0.  1.
        -12    1    3    3    0    0 -0.22498580419E+02 -0.15604515854E+02  0.19397509178E+02  0.33555184372E+02  0.00000000000E+00 0.  1.
</event>
<event>
 7    1  0.2438448E-008  0.4614232E+02  0.7816164E-02  0.1320468E+00
        -11   -1    0    0    0    0  0.00000000000E+00  0.00000000000E+00  0.45593999997E+02  0.45594000000E+02  0.51100000000E-03 0.  1.
         11   -1    0    0    0    0 -0.00000000000E+00 -0.00000000000E+00 -0.45593999997E+02  0.45594000000E+02  0.51100000000E-03 0. -1.
    9900012    2    1    2    0    0  0.65045650721E+01  0.44442123551E+02 -0.34208014765E+01  0.46142316575E+02  0.99999891815E+01 0.  0.
         12    1    1    2    0    0 -0.65045650721E+01 -0.44442123551E+02  0.34208014765E+01  0.45045683425E+02  0.00000000000E+00 0. -1.
         11    1    3    3    0    0  0.19885745675E+01  0.20985719391E+02 -0.18834674093E+01  0.21163702344E+02  0.51100000000E-03 0.  1.
        -11    1    3    3    0    0  0.29956307486E+01  0.38640649798E+01 -0.20956357582E+01  0.53194446367E+01  0.51100000000E-03 0. -1.
         12    1    3    3    0    0  0.15203597560E+01  0.19592339180E+02  0.55830169102E+00  0.19659169594E+02  0.00000000000E+00 0. -1.
</event>
<event>
 7    1  0.2438448E-008  0.4614232E+02  0.7816164E-02  0.1320468E+00
        -11   -1    0    0    0    0  0.00000000000E+00  0.00000000000E+00  0.45593999997E+02  0.45594000000E+02  0.51100000000E-03 0. -1.
         11   -1    0    0    0    0 -0.00000000000E+00 -0.00000000000E+00 -0.45593999997E+02  0.45594000000E+02  0.51100000000E-03 0.  1.
    9900012    2    1    2    0    0 -0.71442283838E+01 -0.38373590383E+02 -0.22484240847E+02  0.46142317360E+02  0.99999963436E+01 0.  0.
         12    1    1    2    0    0  0.71442283838E+01  0.38373590383E+02  0.22484240847E+02  0.45045682640E+02  0.00000000000E+00 0. -1.
         11    1    3    3    0    0 -0.11441119749E+01 -0.12318950109E+02 -0.27452041998E+01  0.12672871433E+02  0.51100000000E-03 0. -1.
        -11    1    3    3    0    0 -0.42075795417E+01 -0.15254997675E+02 -0.93685027518E+01  0.18389875577E+02  0.51100000000E-03 0.  1.
        -12    1    3    3    0    0 -0.17925368672E+01 -0.10799642598E+02 -0.10370533895E+02  0.15079570350E+02  0.00000000000E+00 0.  1.
</event>
<event>
 7    1  0.2438448E-008  0.4614232E+02  0.7816164E-02  0.1320468E+00
        -11   -1    0    0    0    0  0.00000000000E+00  0.00000000000E+00  0.45593999997E+02  0.45594000000E+02  0.51100000000E-03 0.  1.
         11   -1    0    0    0    0 -0.00000000000E+00 -0.00000000000E+00 -0.45593999997E+02  0.45594000000E+02  0.51100000000E-03 0. -1.
    9900012    2    1    2    0    0 -0.11574142023E+02 -0.99019823467E+01  0.42392257236E+02  0.46142317726E+02  0.99999996807E+01 0.  0.
         12    1    1    2    0    0  0.11574142023E+02  0.99019823467E+01 -0.42392257236E+02  0.45045682274E+02  0.00000000000E+00 0. -1.
         11    1    3    3    0    0 -0.87353254896E+00  0.18294481126E+01  0.48557860278E+01  0.52619956024E+01  0.51100000000E-03 0. -1.
        -11    1    3    3    0    0 -0.21851171243E+01 -0.16654406018E+01  0.96595325202E+01  0.10042658912E+02  0.51100000000E-03 0.  1.
        -12    1    3    3    0    0 -0.85154923502E+01 -0.10065989858E+02  0.27876938688E+02  0.30837663212E+02  0.00000000000E+00 0.  1.
</event>
<event>
 7    1  0.2438448E-008  0.4614232E+02  0.7816164E-02  0.1320468E+00
        -11   -1    0    0    0    0  0.00000000000E+00  0.00000000000E+00  0.45593999997E+02  0.45594000000E+02  0.51100000000E-03 0.  1.
         11   -1    0    0    0    0 -0.00000000000E+00 -0.00000000000E+00 -0.45593999997E+02  0.45594000000E+02  0.51100000000E-03 0. -1.
    9900012    2    1    2    0    0 -0.21700959188E+02 -0.39170021762E+02  0.48878759028E+01  0.46142316907E+02  0.99999922100E+01 0.  0.
         12    1    1    2    0    0  0.21700959188E+02  0.39170021762E+02 -0.48878759028E+01  0.45045683093E+02  0.00000000000E+00 0. -1.
         11    1    3    3    0    0 -0.20591696359E+01 -0.51520996905E+01  0.98050280829E+00  0.56343319771E+01  0.51100000000E-03 0. -1.
        -11    1    3    3    0    0 -0.19888796530E+02 -0.34456308695E+02  0.40359633817E+01  0.39988628846E+02  0.51100000000E-03 0.  1.
         12    1    3    3    0    0  0.24700697780E+00  0.43838662430E+00 -0.12859028718E+00  0.51935608344E+00  0.00000000000E+00 0. -1.
</event>
<event>
 7    1  0.2438448E-008  0.4614232E+02  0.7816164E-02  0.1320468E+00
        -11   -1    0    0    0    0  0.00000000000E+00  0.00000000000E+00  0.45593999997E+02  0.45594000000E+02  0.51100000000E-03 0.  1.
         11   -1    0    0    0    0 -0.00000000000E+00 -0.00000000000E+00 -0.45593999997E+02  0.45594000000E+02  0.51100000000E-03 0. -1.
    9900012    2    1    2    0    0  0.25852228792E+02  0.19164831040E+02  0.31519594569E+02  0.46142319585E+02  0.10000016629E+02 0.  0.
         12    1    1    2    0    0 -0.25852228792E+02 -0.19164831040E+02 -0.31519594569E+02  0.45045680415E+02  0.00000000000E+00 0. -1.
         11    1    3    3    0    0  0.58843664543E+01  0.61447869403E+01  0.10806767329E+02  0.13753922912E+02  0.51100000000E-03 0. -1.
        -11    1    3    3    0    0  0.19081462633E+02  0.11041178107E+02  0.20669220016E+02  0.30219637432E+02  0.51100000000E-03 0.  1.
        -12    1    3    3    0    0  0.88639970505E+00  0.19788659926E+01  0.43607223790E-01  0.21687592406E+01  0.00000000000E+00 0.  1.
</event>
<event>
 7    1  0.2438448E-008  0.4614232E+02  0.7816164E-02  0.1320468E+00
        -11   -1    0    0    0    0  0.00000000000E+00  0.00000000000E+00  0.45593999997E+02  0.45594000000E+02  0.51100000000E-03 0.  1.
         11   -1    0    0    0    0 -0.00000000000E+00 -0.00000000000E+00 -0.45593999997E+02  0.45594000000E+02  0.51100000000E-03 0. -1.
    9900012    2    1    2    0    0  0.29617408603E+02  0.18880133234E+02  0.28203956208E+02  0.46142317975E+02  0.10000001953E+02 0.  0.
         12    1    1    2    0    0 -0.29617408603E+02 -0.18880133234E+02 -0.28203956208E+02  0.45045682025E+02  0.00000000000E+00 0. -1.
         11    1    3    3    0    0  0.10338833310E+02  0.21775758693E+01  0.99628815566E+01  0.14522132077E+02  0.51100000000E-03 0. -1.
        -11    1    3    3    0    0  0.46368218485E+00  0.83156340417E+00 -0.49970019526E-01  0.95341288415E+00  0.51100000000E-03 0.  1.
         12    1    3    3    0    0  0.18814893108E+02  0.15870993960E+02  0.18291044671E+02  0.30666773014E+02  0.00000000000E+00 0. -1.
</event>
<event>
 7    1  0.2438448E-008  0.4614232E+02  0.7816164E-02  0.1320468E+00
        -11   -1    0    0    0    0  0.00000000000E+00  0.00000000000E+00  0.45593999997E+02  0.45594000000E+02  0.51100000000E-03 0.  1.
         11   -1    0    0    0    0 -0.00000000000E+00 -0.00000000000E+00 -0.45593999997E+02  0.45594000000E+02  0.51100000000E-03 0. -1.
    9900012    2    1    2    0    0 -0.15644916483E+02  0.38717556859E+02  0.16890846623E+02  0.46142319624E+02  0.10000016987E+02 0.  0.
         12    1    1    2    0    0  0.15644916483E+02 -0.38717556859E+02 -0.16890846623E+02  0.45045680376E+02  0.00000000000E+00 0. -1.
         11    1    3    3    0    0 -0.24117178676E+01  0.14139906066E+02  0.90216412690E+01  0.16945304308E+02  0.51100000000E-03 0. -1.
        -11    1    3    3    0    0 -0.71317958134E+01  0.11724851663E+02  0.54461669649E+01  0.14764667044E+02  0.51100000000E-03 0.  1.
        -12    1    3    3    0    0 -0.61014028018E+01  0.12852799130E+02  0.24230383893E+01  0.14432348273E+02  0.00000000000E+00 0.  1.
</event>
<event>
 7    1  0.2438448E-008  0.4614232E+02  0.7816164E-02  0.1320468E+00
        -11   -1    0    0    0    0  0.00000000000E+00  0.00000000000E+00  0.45593999997E+02  0.45594000000E+02  0.51100000000E-03 0.  1.
         11   -1    0    0    0    0 -0.00000000000E+00 -0.00000000000E+00 -0.45593999997E+02  0.45594000000E+02  0.51100000000E-03 0. -1.
    9900012    2    1    2    0    0 -0.34249173550E+01  0.24680188185E+02  0.37526948766E+02  0.46142316173E+02  0.99999855204E+01 0.  0.
         12    1    1    2    0    0  0.34249173550E+01 -0.24680188185E+02 -0.37526948766E+02  0.45045683827E+02  0.00000000000E+00 0. -1.
         11    1    3    3    0    0 -0.56938009736E+00  0.12796591114E+02  0.19001713655E+02  0.22915978267E+02  0.51100000000E-03 0. -1.
        -11    1    3    3    0    0 -0.81154631811E+00  0.10566602730E+02  0.17752121838E+02  0.20674852616E+02  0.51100000000E-03 0.  1.
         12    1    3    3    0    0 -0.20439909395E+01  0.13169943406E+01  0.77311327308E+00  0.25514852904E+01  0.00000000000E+00 0. -1.
</event>
<event>
 7    1  0.2438448E-008  0.4614232E+02  0.7816164E-02  0.1320468E+00
        -11   -1    0    0    0    0  0.00000000000E+00  0.00000000000E+00  0.45593999997E+02  0.45594000000E+02  0.51100000000E-03 0.  1.
         11   -1    0    0    0    0 -0.00000000000E+00 -0.00000000000E+00 -0.45593999997E+02  0.45594000000E+02  0.51100000000E-03 0. -1.
    9900012    2    1    2    0    0  0.18908181215E+02 -0.40616462245E+02  0.46794324237E+01  0.46142318631E+02  0.10000007935E+02 0.  0.
         12    1    1    2    0    0 -0.18908181215E+02  0.40616462245E+02 -0.46794324237E+01  0.45045681369E+02  0.00000000000E+00 0. -1.
         11    1    3    3    0    0  0.77234038362E+01 -0.11122442414E+02  0.67904648911E+00  0.13558052828E+02  0.51100000000E-03 0. -1.
        -11    1    3    3    0    0  0.56639944670E+01 -0.12042792427E+02  0.50894240929E+01  0.14248225174E+02  0.51100000000E-03 0.  1.
        -12    1    3    3    0    0  0.55207829122E+01 -0.17451227403E+02 -0.10890381584E+01  0.18336040629E+02  0.00000000000E+00 0.  1.
</event>
<event>
 7    1  0.2438448E-008  0.4614232E+02  0.7816164E-02  0.1320468E+00
        -11   -1    0    0    0    0  0.00000000000E+00  0.00000000000E+00  0.45593999997E+02  0.45594000000E+02  0.51100000000E-03 0.  1.
         11   -1    0    0    0    0 -0.00000000000E+00 -0.00000000000E+00 -0.45593999997E+02  0.45594000000E+02  0.51100000000E-03 0. -1.
    9900012    2    1    2    0    0 -0.21883644145E+02  0.17828298896E+02  0.35105148309E+02  0.46142316962E+02  0.99999927138E+01 0.  0.
         12    1    1    2    0    0  0.21883644145E+02 -0.17828298896E+02 -0.35105148309E+02  0.45045683038E+02  0.00000000000E+00 0. -1.
         11    1    3    3    0    0 -0.17792585435E+00  0.27799012657E+01  0.19834691578E+01  0.34195992189E+01  0.51100000000E-03 0. -1.
        -11    1    3    3    0    0 -0.14583480773E+02  0.68120043065E+01  0.19830902951E+02  0.25541065488E+02  0.51100000000E-03 0.  1.
        -12    1    3    3    0    0 -0.71222375176E+01  0.82363933233E+01  0.13290776200E+02  0.17181652255E+02  0.00000000000E+00 0.  1.
</event>
<event>
 7    1  0.2438448E-008  0.4614232E+02  0.7816164E-02  0.1320468E+00
        -11   -1    0    0    0    0  0.00000000000E+00  0.00000000000E+00  0.45593999997E+02  0.45594000000E+02  0.51100000000E-03 0. -1.
         11   -1    0    0    0    0 -0.00000000000E+00 -0.00000000000E+00 -0.45593999997E+02  0.45594000000E+02  0.51100000000E-03 0.  1.
    9900012    2    1    2    0    0 -0.72252522840E+01  0.38110658183E+01 -0.44298814980E+02  0.46142317611E+02  0.99999986338E+01 0.  0.
         12    1    1    2    0    0  0.72252522840E+01 -0.38110658183E+01  0.44298814980E+02  0.45045682389E+02  0.00000000000E+00 0. -1.
         11    1    3    3    0    0  0.24276377929E+00  0.16171821061E+01 -0.25728727212E+01  0.30485876267E+01  0.51100000000E-03 0. -1.
        -11    1    3    3    0    0 -0.22564115532E+01 -0.17535350147E+01 -0.24547155244E+02  0.24712934042E+02  0.51100000000E-03 0.  1.
        -12    1    3    3    0    0 -0.52116045101E+01  0.39474187269E+01 -0.17178787015E+02  0.18380795942E+02  0.00000000000E+00 0.  1.
</event>
<event>
 7    1  0.2438448E-008  0.4614232E+02  0.7816164E-02  0.1320468E+00
        -11   -1    0    0    0    0  0.00000000000E+00  0.00000000000E+00  0.45593999997E+02  0.45594000000E+02  0.51100000000E-03 0.  1.
         11   -1    0    0    0    0 -0.00000000000E+00 -0.00000000000E+00 -0.45593999997E+02  0.45594000000E+02  0.51100000000E-03 0. -1.
    9900012    2    1    2    0    0  0.20485731722E+02 -0.32910648939E+02  0.22942046254E+02  0.46142317586E+02  0.99999984038E+01 0.  0.
         12    1    1    2    0    0 -0.20485731722E+02  0.32910648939E+02 -0.22942046254E+02  0.45045682414E+02  0.00000000000E+00 0. -1.
         11    1    3    3    0    0  0.78823974924E-01 -0.47072662559E+01  0.38860428339E+01  0.61045800831E+01  0.51100000000E-03 0. -1.
        -11    1    3    3    0    0  0.63662070604E+01 -0.12250469708E+02  0.93525110969E+01  0.16675492930E+02  0.51100000000E-03 0.  1.
        -12    1    3    3    0    0  0.14040700687E+02 -0.15952912976E+02  0.97034923230E+01  0.23362244573E+02  0.00000000000E+00 0.  1.
</event>
<event>
 7    1  0.2438448E-008  0.4614232E+02  0.7816164E-02  0.1320468E+00
        -11   -1    0    0    0    0  0.00000000000E+00  0.00000000000E+00  0.45593999997E+02  0.45594000000E+02  0.51100000000E-03 0.  1.
         11   -1    0    0    0    0 -0.00000000000E+00 -0.00000000000E+00 -0.45593999997E+02  0.45594000000E+02  0.51100000000E-03 0. -1.
    9900012    2    1    2    0    0 -0.40197579190E+02 -0.72164434865E+01 -0.19005027998E+02  0.46142317426E+02  0.99999969441E+01 0.  0.
         12    1    1    2    0    0  0.40197579190E+02  0.72164434865E+01  0.19005027998E+02  0.45045682574E+02  0.00000000000E+00 0. -1.
         11    1    3    3    0    0 -0.35923786079E-01 -0.10109188218E+01 -0.12932564519E-01  0.10116397061E+01  0.51100000000E-03 0. -1.
        -11    1    3    3    0    0 -0.15100576240E+02 -0.46172115640E+01 -0.63911055482E+01  0.17035030843E+02  0.51100000000E-03 0.  1.
        -12    1    3    3    0    0 -0.25061079164E+02 -0.15883131007E+01 -0.12600989886E+02  0.28095646877E+02  0.00000000000E+00 0.  1.
</event>
<event>
 7    1  0.2438448E-008  0.4614232E+02  0.7816164E-02  0.1320468E+00
        -11   -1    0    0    0    0  0.00000000000E+00  0.00000000000E+00  0.45593999997E+02  0.45594000000E+02  0.51100000000E-03 0.  1.
         11   -1    0    0    0    0 -0.00000000000E+00 -0.00000000000E+00 -0.45593999997E+02  0.45594000000E+02  0.51100000000E-03 0. -1.
    9900012    2    1    2    0    0  0.15817043383E+02 -0.32425093614E+02  0.26973096366E+02  0.46142317801E+02  0.10000000360E+02 0.  0.
         12    1    1    2    0    0 -0.15817043383E+02  0.32425093614E+02 -0.26973096366E+02  0.45045682199E+02  0.00000000000E+00 0. -1.
         11    1    3    3    0    0  0.83687508772E+01 -0.71392798407E+01  0.90442364306E+01  0.14240910110E+02  0.51100000000E-03 0. -1.
        -11    1    3    3    0    0  0.54386886429E+01 -0.16490699758E+02  0.11889393090E+02  0.21044718601E+02  0.51100000000E-03 0.  1.
         12    1    3    3    0    0  0.20096038628E+01 -0.87951140152E+01  0.60394668450E+01  0.10856689090E+02  0.00000000000E+00 0. -1.
</event>
<event>
 7    1  0.2438448E-008  0.4614232E+02  0.7816164E-02  0.1320468E+00
        -11   -1    0    0    0    0  0.00000000000E+00  0.00000000000E+00  0.45593999997E+02  0.45594000000E+02  0.51100000000E-03 0. -1.
         11   -1    0    0    0    0 -0.00000000000E+00 -0.00000000000E+00 -0.45593999997E+02  0.45594000000E+02  0.51100000000E-03 0.  1.
    9900012    2    1    2    0    0 -0.70090159413E+01 -0.37585143219E+02 -0.23818989601E+02  0.46142316956E+02  0.99999926623E+01 0.  0.
         12    1    1    2    0    0  0.70090159413E+01  0.37585143219E+02  0.23818989601E+02  0.45045683044E+02  0.00000000000E+00 0. -1.
         11    1    3    3    0    0 -0.29934484883E+01 -0.89662148298E+01 -0.71097467016E+01  0.11828027758E+02  0.51100000000E-03 0. -1.
        -11    1    3    3    0    0 -0.25496008643E+01 -0.24754060597E+02 -0.17051642635E+02  0.30166579147E+02  0.51100000000E-03 0.  1.
         12    1    3    3    0    0 -0.14659665888E+01 -0.38648677919E+01  0.34239973611E+00  0.41477100511E+01  0.00000000000E+00 0. -1.
</event>
<event>
 7    1  0.2438448E-008  0.4614232E+02  0.7816164E-02  0.1320468E+00
        -11   -1    0    0    0    0  0.00000000000E+00  0.00000000000E+00  0.45593999997E+02  0.45594000000E+02  0.51100000000E-03 0.  1.
         11   -1    0    0    0    0 -0.00000000000E+00 -0.00000000000E+00 -0.45593999997E+02  0.45594000000E+02  0.51100000000E-03 0. -1.
    9900012    2    1    2    0    0  0.74615352317E+01 -0.35656498922E+02  0.26496282211E+02  0.46142318804E+02  0.10000009511E+02 0.  0.
         12    1    1    2    0    0 -0.74615352317E+01  0.35656498922E+02 -0.26496282211E+02  0.45045681196E+02  0.00000000000E+00 0. -1.
         11    1    3    3    0    0  0.11834393572E+01 -0.83038325043E+01  0.25379171053E+01  0.87632862824E+01  0.51100000000E-03 0. -1.
        -11    1    3    3    0    0  0.70946321893E+01 -0.24401828145E+02  0.19800832624E+02  0.32215772466E+02  0.51100000000E-03 0.  1.
         12    1    3    3    0    0 -0.81653631481E+00 -0.29508382730E+01  0.41575324819E+01  0.51632600560E+01  0.00000000000E+00 0. -1.
</event>
<event>
 7    1  0.2438448E-008  0.4614232E+02  0.7816164E-02  0.1320468E+00
        -11   -1    0    0    0    0  0.00000000000E+00  0.00000000000E+00  0.45593999997E+02  0.45594000000E+02  0.51100000000E-03 0. -1.
         11   -1    0    0    0    0 -0.00000000000E+00 -0.00000000000E+00 -0.45593999997E+02  0.45594000000E+02  0.51100000000E-03 0.  1.
    9900012    2    1    2    0    0  0.10772464063E+02  0.43491660047E+02  0.46414439577E+01  0.46142317880E+02  0.10000001083E+02 0.  0.
         12    1    1    2    0    0 -0.10772464063E+02 -0.43491660047E+02 -0.46414439577E+01  0.45045682120E+02  0.00000000000E+00 0. -1.
         11    1    3    3    0    0  0.17943445776E+01  0.37079325544E+01  0.20739700381E+01  0.46119180685E+01  0.51100000000E-03 0. -1.
        -11    1    3    3    0    0  0.72381855660E+01  0.15521476548E+02  0.11206218104E+01  0.17162848191E+02  0.51100000000E-03 0.  1.
         12    1    3    3    0    0  0.17399339196E+01  0.24262250945E+02  0.14468521092E+01  0.24367551620E+02  0.00000000000E+00 0. -1.
</event>
<event>
 7    1  0.2438448E-008  0.4614232E+02  0.7816164E-02  0.1320468E+00
        -11   -1    0    0    0    0  0.00000000000E+00  0.00000000000E+00  0.45593999997E+02  0.45594000000E+02  0.51100000000E-03 0. -1.
         11   -1    0    0    0    0 -0.00000000000E+00 -0.00000000000E+00 -0.45593999997E+02  0.45594000000E+02  0.51100000000E-03 0.  1.
    9900012    2    1    2    0    0 -0.21996365534E+02 -0.38954892536E+02  0.52715910086E+01  0.46142318509E+02  0.10000006818E+02 0.  0.
         12    1    1    2    0    0  0.21996365534E+02  0.38954892536E+02 -0.52715910086E+01  0.45045681491E+02  0.00000000000E+00 0. -1.
         11    1    3    3    0    0 -0.52040383702E+01 -0.18000983848E+02  0.44798933043E+01  0.19266210814E+02  0.51100000000E-03 0. -1.
        -11    1    3    3    0    0 -0.66889387611E+01 -0.80714124652E+01  0.66285306150E+00  0.10503760059E+02  0.51100000000E-03 0.  1.
         12    1    3    3    0    0 -0.10103388403E+02 -0.12882496223E+02  0.12884464271E+00  0.16372347636E+02  0.00000000000E+00 0. -1.
</event>
<event>
 7    1  0.2438448E-008  0.4614232E+02  0.7816164E-02  0.1320468E+00
        -11   -1    0    0    0    0  0.00000000000E+00  0.00000000000E+00  0.45593999997E+02  0.45594000000E+02  0.51100000000E-03 0.  1.
         11   -1    0    0    0    0 -0.00000000000E+00 -0.00000000000E+00 -0.45593999997E+02  0.45594000000E+02  0.51100000000E-03 0. -1.
    9900012    2    1    2    0    0  0.22273288507E+02 -0.11707312384E+02  0.37362453231E+02  0.46142318124E+02  0.10000003312E+02 0.  0.
         12    1    1    2    0    0 -0.22273288507E+02  0.11707312384E+02 -0.37362453231E+02  0.45045681876E+02  0.00000000000E+00 0. -1.
         11    1    3    3    0    0  0.30843392438E+01 -0.34800548143E+01  0.70196135071E+01  0.84201487001E+01  0.51100000000E-03 0. -1.
        -11    1    3    3    0    0  0.25430080409E+01 -0.46664822015E+01  0.85825462216E+01  0.10094703856E+02  0.51100000000E-03 0.  1.
        -12    1    3    3    0    0  0.16645941222E+02 -0.35607753686E+01  0.21760293503E+02  0.27627465568E+02  0.00000000000E+00 0.  1.
</event>
<event>
 7    1  0.2438448E-008  0.4614232E+02  0.7816164E-02  0.1320468E+00
        -11   -1    0    0    0    0  0.00000000000E+00  0.00000000000E+00  0.45593999997E+02  0.45594000000E+02  0.51100000000E-03 0.  1.
         11   -1    0    0    0    0 -0.00000000000E+00 -0.00000000000E+00 -0.45593999997E+02  0.45594000000E+02  0.51100000000E-03 0. -1.
    9900012    2    1    2    0    0 -0.20881796662E+02 -0.14737489035E+02  0.37092729446E+02  0.46142316604E+02  0.99999894446E+01 0.  0.
         12    1    1    2    0    0  0.20881796662E+02  0.14737489035E+02 -0.37092729446E+02  0.45045683396E+02  0.00000000000E+00 0. -1.
         11    1    3    3    0    0 -0.11798975017E+02 -0.58885797678E+01  0.13584465902E+02  0.18932218497E+02  0.51100000000E-03 0. -1.
        -11    1    3    3    0    0  0.43815537231E-01  0.25424143599E+00  0.28388681486E+01  0.28505668095E+01  0.51100000000E-03 0.  1.
        -12    1    3    3    0    0 -0.91266371828E+01 -0.91031507029E+01  0.20669395395E+02  0.24359531297E+02  0.00000000000E+00 0.  1.
</event>
<event>
 7    1  0.2438448E-008  0.4614232E+02  0.7816164E-02  0.1320468E+00
        -11   -1    0    0    0    0  0.00000000000E+00  0.00000000000E+00  0.45593999997E+02  0.45594000000E+02  0.51100000000E-03 0.  1.
         11   -1    0    0    0    0 -0.00000000000E+00 -0.00000000000E+00 -0.45593999997E+02  0.45594000000E+02  0.51100000000E-03 0. -1.
    9900012    2    1    2    0    0 -0.28133125816E+01  0.19548962873E+02  0.40485019124E+02  0.46142318181E+02  0.10000003827E+02 0.  0.
         12    1    1    2    0    0  0.28133125816E+01 -0.19548962873E+02 -0.40485019124E+02  0.45045681819E+02  0.00000000000E+00 0. -1.
         11    1    3    3    0    0 -0.12440906525E+01 -0.78391391419E-01  0.11970140089E+01  0.17282215022E+01  0.51100000000E-03 0. -1.
        -11    1    3    3    0    0 -0.35902186355E+01  0.15971476995E+02  0.33385939341E+02  0.37183312026E+02  0.51100000000E-03 0.  1.
        -12    1    3    3    0    0  0.20209967065E+01  0.36558772692E+01  0.59020657738E+01  0.72307846527E+01  0.00000000000E+00 0.  1.
</event>
<event>
 7    1  0.2438448E-008  0.4614232E+02  0.7816164E-02  0.1320468E+00
        -11   -1    0    0    0    0  0.00000000000E+00  0.00000000000E+00  0.45593999997E+02  0.45594000000E+02  0.51100000000E-03 0. -1.
         11   -1    0    0    0    0 -0.00000000000E+00 -0.00000000000E+00 -0.45593999997E+02  0.45594000000E+02  0.51100000000E-03 0.  1.
    9900012    2    1    2    0    0  0.43311808293E+02  0.86678831241E+01  0.88356443738E+01  0.46142317111E+02  0.99999940715E+01 0.  0.
         12    1    1    2    0    0 -0.43311808293E+02 -0.86678831241E+01 -0.88356443738E+01  0.45045682889E+02  0.00000000000E+00 0. -1.
         11    1    3    3    0    0  0.14976126826E+02 -0.80858195961E+00  0.23323197166E+01  0.15178204605E+02  0.51100000000E-03 0. -1.
        -11    1    3    3    0    0  0.10509304758E+02  0.18515449553E+01  0.40803614283E+01  0.11424668698E+02  0.51100000000E-03 0.  1.
        -12    1    3    3    0    0  0.17826376709E+02  0.76249201284E+01  0.24229632289E+01  0.19539443808E+02  0.00000000000E+00 0.  1.
</event>
<event>
 7    1  0.2438448E-008  0.4614232E+02  0.7816164E-02  0.1320468E+00
        -11   -1    0    0    0    0  0.00000000000E+00  0.00000000000E+00  0.45593999997E+02  0.45594000000E+02  0.51100000000E-03 0.  1.
         11   -1    0    0    0    0 -0.00000000000E+00 -0.00000000000E+00 -0.45593999997E+02  0.45594000000E+02  0.51100000000E-03 0. -1.
    9900012    2    1    2    0    0  0.10629283290E+02 -0.47339713407E+01  0.43516909100E+02  0.46142317349E+02  0.99999962389E+01 0.  0.
         12    1    1    2    0    0 -0.10629283290E+02  0.47339713407E+01 -0.43516909100E+02  0.45045682651E+02  0.00000000000E+00 0. -1.
         11    1    3    3    0    0  0.22549147697E+01 -0.17799092371E+00  0.13349756068E+02  0.13540026172E+02  0.51100000000E-03 0.  1.
        -11    1    3    3    0    0  0.28559229775E+01  0.82721991053E+00  0.25109810572E+01  0.38917367543E+01  0.51100000000E-03 0. -1.
         12    1    3    3    0    0  0.55184455428E+01 -0.53832003275E+01  0.27656171974E+02  0.28710554423E+02  0.00000000000E+00 0. -1.
</event>
<event>
 7    1  0.2438448E-008  0.4614232E+02  0.7816164E-02  0.1320468E+00
        -11   -1    0    0    0    0  0.00000000000E+00  0.00000000000E+00  0.45593999997E+02  0.45594000000E+02  0.51100000000E-03 0.  1.
         11   -1    0    0    0    0 -0.00000000000E+00 -0.00000000000E+00 -0.45593999997E+02  0.45594000000E+02  0.51100000000E-03 0. -1.
    9900012    2    1    2    0    0  0.15289977883E+02 -0.29847169583E+02  0.30074516990E+02  0.46142317322E+02  0.99999959914E+01 0.  0.
         12    1    1    2    0    0 -0.15289977883E+02  0.29847169583E+02 -0.30074516990E+02  0.45045682678E+02  0.00000000000E+00 0. -1.
         11    1    3    3    0    0  0.12929550457E+02 -0.21524401141E+02  0.20739523648E+02  0.32566869068E+02  0.51100000000E-03 0. -1.
        -11    1    3    3    0    0  0.31117118776E+01 -0.71776050575E+01  0.56667409817E+01  0.96598508676E+01  0.51100000000E-03 0.  1.
         12    1    3    3    0    0 -0.75128445202E+00 -0.11451633846E+01  0.36682523606E+01  0.39155973856E+01  0.00000000000E+00 0. -1.
</event>
<event>
 7    1  0.2438448E-008  0.4614232E+02  0.7816164E-02  0.1320468E+00
        -11   -1    0    0    0    0  0.00000000000E+00  0.00000000000E+00  0.45593999997E+02  0.45594000000E+02  0.51100000000E-03 0. -1.
         11   -1    0    0    0    0 -0.00000000000E+00 -0.00000000000E+00 -0.45593999997E+02  0.45594000000E+02  0.51100000000E-03 0.  1.
    9900012    2    1    2    0    0 -0.89802341585E+00  0.29368714604E+02 -0.34143603139E+02  0.46142317866E+02  0.10000000960E+02 0.  0.
         12    1    1    2    0    0  0.89802341585E+00 -0.29368714604E+02  0.34143603139E+02  0.45045682134E+02  0.00000000000E+00 0. -1.
         11    1    3    3    0    0  0.45320852124E+00  0.18184141651E+02 -0.16022089393E+02  0.24239961929E+02  0.51100000000E-03 0. -1.
        -11    1    3    3    0    0 -0.10477406984E+01  0.18325320699E+01 -0.88310336895E+00  0.22881884057E+01  0.51100000000E-03 0.  1.
        -12    1    3    3    0    0 -0.30349123867E+00  0.93520408829E+01 -0.17238410378E+02  0.19614167531E+02  0.00000000000E+00 0.  1.
</event>
<event>
 7    1  0.2438448E-008  0.4614232E+02  0.7816164E-02  0.1320468E+00
        -11   -1    0    0    0    0  0.00000000000E+00  0.00000000000E+00  0.45593999997E+02  0.45594000000E+02  0.51100000000E-03 0. -1.
         11   -1    0    0    0    0 -0.00000000000E+00 -0.00000000000E+00 -0.45593999997E+02  0.45594000000E+02  0.51100000000E-03 0.  1.
    9900012    2    1    2    0    0  0.15852327064E+02 -0.12467724407E+02 -0.40278691527E+02  0.46142318560E+02  0.10000007289E+02 0.  0.
         12    1    1    2    0    0 -0.15852327064E+02  0.12467724407E+02  0.40278691527E+02  0.45045681440E+02  0.00000000000E+00 0. -1.
         11    1    3    3    0    0  0.84655428550E+01 -0.80622742716E+01 -0.15215089286E+02  0.19187616437E+02  0.51100000000E-03 0. -1.
        -11    1    3    3    0    0  0.53329454728E+00  0.10373430079E+01 -0.29227566580E+01  0.31469017038E+01  0.51100000000E-03 0.  1.
        -12    1    3    3    0    0  0.68534896620E+01 -0.54427931437E+01 -0.22140845582E+02  0.23807800420E+02  0.00000000000E+00 0.  1.
</event>
<event>
 7    1  0.2438448E-008  0.4614232E+02  0.7816164E-02  0.1320468E+00
        -11   -1    0    0    0    0  0.00000000000E+00  0.00000000000E+00  0.45593999997E+02  0.45594000000E+02  0.51100000000E-03 0.  1.
         11   -1    0    0    0    0 -0.00000000000E+00 -0.00000000000E+00 -0.45593999997E+02  0.45594000000E+02  0.51100000000E-03 0. -1.
    9900012    2    1    2    0    0 -0.41144316672E+02  0.33890767650E+01  0.18021455647E+02  0.46142317639E+02  0.99999988861E+01 0.  0.
         12    1    1    2    0    0  0.41144316672E+02 -0.33890767650E+01 -0.18021455647E+02  0.45045682361E+02  0.00000000000E+00 0. -1.
         11    1    3    3    0    0 -0.11128862142E+02  0.36257645501E+00  0.54243665720E+01  0.12385749361E+02  0.51100000000E-03 0.  1.
        -11    1    3    3    0    0 -0.14034779155E+02  0.69446620261E+00  0.14358395651E+01  0.14125117513E+02  0.51100000000E-03 0. -1.
        -12    1    3    3    0    0 -0.15980675375E+02  0.23320341074E+01  0.11161249510E+02  0.19631450765E+02  0.00000000000E+00 0.  1.
</event>
<event>
 7    1  0.2438448E-008  0.4614232E+02  0.7816164E-02  0.1320468E+00
        -11   -1    0    0    0    0  0.00000000000E+00  0.00000000000E+00  0.45593999997E+02  0.45594000000E+02  0.51100000000E-03 0.  1.
         11   -1    0    0    0    0 -0.00000000000E+00 -0.00000000000E+00 -0.45593999997E+02  0.45594000000E+02  0.51100000000E-03 0. -1.
    9900012    2    1    2    0    0  0.11420498836E+02  0.20069946618E+02  0.38676645779E+02  0.46142317858E+02  0.10000000883E+02 0.  0.
         12    1    1    2    0    0 -0.11420498836E+02 -0.20069946618E+02 -0.38676645779E+02  0.45045682142E+02  0.00000000000E+00 0. -1.
         11    1    3    3    0    0  0.12782148859E+01  0.28816613906E-03  0.34589772929E+01  0.36875950905E+01  0.51100000000E-03 0. -1.
        -11    1    3    3    0    0  0.80491295800E+01  0.76198611282E+01  0.16299583344E+02  0.19711093020E+02  0.51100000000E-03 0.  1.
        -12    1    3    3    0    0  0.20931543700E+01  0.12449797324E+02  0.18918085143E+02  0.22743629747E+02  0.00000000000E+00 0.  1.
</event>
<event>
 7    1  0.2438448E-008  0.4614232E+02  0.7816164E-02  0.1320468E+00
        -11   -1    0    0    0    0  0.00000000000E+00  0.00000000000E+00  0.45593999997E+02  0.45594000000E+02  0.51100000000E-03 0.  1.
         11   -1    0    0    0    0 -0.00000000000E+00 -0.00000000000E+00 -0.45593999997E+02  0.45594000000E+02  0.51100000000E-03 0. -1.
    9900012    2    1    2    0    0  0.14533103608E+02 -0.42309115482E+02 -0.52764655373E+01  0.46142318277E+02  0.10000004701E+02 0.  0.
         12    1    1    2    0    0 -0.14533103608E+02  0.42309115482E+02  0.52764655373E+01  0.45045681723E+02  0.00000000000E+00 0. -1.
         11    1    3    3    0    0  0.83426044716E+00 -0.10305826395E+01  0.13468780657E+01  0.18900190093E+01  0.51100000000E-03 0. -1.
        -11    1    3    3    0    0  0.26091343435E+01 -0.36181466441E+01 -0.15255959681E+00  0.44633890545E+01  0.51100000000E-03 0.  1.
        -12    1    3    3    0    0  0.11089708817E+02 -0.37660386199E+02 -0.64707840061E+01  0.39788910213E+02  0.00000000000E+00 0.  1.
</event>
<event>
 7    1  0.2438448E-008  0.4614232E+02  0.7816164E-02  0.1320468E+00
        -11   -1    0    0    0    0  0.00000000000E+00  0.00000000000E+00  0.45593999997E+02  0.45594000000E+02  0.51100000000E-03 0. -1.
         11   -1    0    0    0    0 -0.00000000000E+00 -0.00000000000E+00 -0.45593999997E+02  0.45594000000E+02  0.51100000000E-03 0.  1.
    9900012    2    1    2    0    0  0.24971124919E+02 -0.32074510284E+02 -0.19410876827E+02  0.46142318422E+02  0.10000006022E+02 0.  0.
         12    1    1    2    0    0 -0.24971124919E+02  0.32074510284E+02  0.19410876827E+02  0.45045681578E+02  0.00000000000E+00 0. -1.
         11    1    3    3    0    0  0.69483132923E+00 -0.48864121627E+00 -0.26097168543E+01  0.27444823073E+01  0.51100000000E-03 0. -1.
        -11    1    3    3    0    0  0.11620496330E+01 -0.47445226032E+00 -0.56147117200E+00  0.13750325215E+01  0.51100000000E-03 0.  1.
        -12    1    3    3    0    0  0.23114243957E+02 -0.31111416807E+02 -0.16239688801E+02  0.42022803593E+02  0.00000000000E+00 0.  1.
</event>
<event>
 7    1  0.2438448E-008  0.4614232E+02  0.7816164E-02  0.1320468E+00
        -11   -1    0    0    0    0  0.00000000000E+00  0.00000000000E+00  0.45593999997E+02  0.45594000000E+02  0.51100000000E-03 0.  1.
         11   -1    0    0    0    0 -0.00000000000E+00 -0.00000000000E+00 -0.45593999997E+02  0.45594000000E+02  0.51100000000E-03 0. -1.
    9900012    2    1    2    0    0 -0.15131203019E+02 -0.16787565249E+02  0.38965855169E+02  0.46142317400E+02  0.99999967106E+01 0.  0.
         12    1    1    2    0    0  0.15131203019E+02  0.16787565249E+02 -0.38965855169E+02  0.45045682600E+02  0.00000000000E+00 0. -1.
         11    1    3    3    0    0 -0.29896118208E+01 -0.54680521587E+00  0.84127880481E+01  0.89449302841E+01  0.51100000000E-03 0. -1.
        -11    1    3    3    0    0 -0.78451675660E+01 -0.59225558443E+01  0.16922292275E+02  0.19570061266E+02  0.51100000000E-03 0.  1.
        -12    1    3    3    0    0 -0.42964236323E+01 -0.10318204189E+02  0.13630774846E+02  0.17627325850E+02  0.00000000000E+00 0.  1.
</event>
<event>
 7    1  0.2438448E-008  0.4614232E+02  0.7816164E-02  0.1320468E+00
        -11   -1    0    0    0    0  0.00000000000E+00  0.00000000000E+00  0.45593999997E+02  0.45594000000E+02  0.51100000000E-03 0.  1.
         11   -1    0    0    0    0 -0.00000000000E+00 -0.00000000000E+00 -0.45593999997E+02  0.45594000000E+02  0.51100000000E-03 0. -1.
    9900012    2    1    2    0    0 -0.13606324630E+02 -0.37823513695E+02  0.20331336609E+02  0.46142317560E+02  0.99999981695E+01 0.  0.
         12    1    1    2    0    0  0.13606324630E+02  0.37823513695E+02 -0.20331336609E+02  0.45045682440E+02  0.00000000000E+00 0. -1.
         11    1    3    3    0    0 -0.58776527376E+01 -0.15724447068E+02  0.88409598307E+01  0.18972812345E+02  0.51100000000E-03 0. -1.
        -11    1    3    3    0    0 -0.63994727334E+01 -0.21570590635E+02  0.12176111635E+02  0.25583223534E+02  0.51100000000E-03 0.  1.
         12    1    3    3    0    0 -0.13291991592E+01 -0.52847599224E+00 -0.68573485646E+00  0.15862816813E+01  0.00000000000E+00 0. -1.
</event>
<event>
 7    1  0.2438448E-008  0.4614232E+02  0.7816164E-02  0.1320468E+00
        -11   -1    0    0    0    0  0.00000000000E+00  0.00000000000E+00  0.45593999997E+02  0.45594000000E+02  0.51100000000E-03 0.  1.
         11   -1    0    0    0    0 -0.00000000000E+00 -0.00000000000E+00 -0.45593999997E+02  0.45594000000E+02  0.51100000000E-03 0. -1.
    9900012    2    1    2    0    0 -0.45045364646E+01  0.73251600891E-01  0.44819832438E+02  0.46142316585E+02  0.99999892762E+01 0.  0.
         12    1    1    2    0    0  0.45045364646E+01 -0.73251600891E-01 -0.44819832438E+02  0.45045683415E+02  0.00000000000E+00 0. -1.
         11    1    3    3    0    0  0.24009962069E+01  0.14764249816E+00  0.42905340424E+01  0.49188681343E+01  0.51100000000E-03 0.  1.
        -11    1    3    3    0    0 -0.15245809901E+01 -0.10900624734E+00  0.37024568210E+01  0.40055481935E+01  0.51100000000E-03 0. -1.
        -12    1    3    3    0    0 -0.53809516813E+01  0.34615350074E-01  0.36826841574E+02  0.37217900257E+02  0.00000000000E+00 0.  1.
</event>
<event>
 7    1  0.2438448E-008  0.4614232E+02  0.7816164E-02  0.1320468E+00
        -11   -1    0    0    0    0  0.00000000000E+00  0.00000000000E+00  0.45593999997E+02  0.45594000000E+02  0.51100000000E-03 0.  1.
         11   -1    0    0    0    0 -0.00000000000E+00 -0.00000000000E+00 -0.45593999997E+02  0.45594000000E+02  0.51100000000E-03 0. -1.
    9900012    2    1    2    0    0  0.30865842422E+01  0.44371879391E+02  0.71219960151E+01  0.46142317519E+02  0.99999977882E+01 0.  0.
         12    1    1    2    0    0 -0.30865842422E+01 -0.44371879391E+02 -0.71219960151E+01  0.45045682481E+02  0.00000000000E+00 0. -1.
         11    1    3    3    0    0 -0.82947944217E+00  0.12424081094E+01  0.14246386013E+01  0.20642697161E+01  0.51100000000E-03 0. -1.
        -11    1    3    3    0    0  0.37850062584E+01  0.13754315463E+02  0.30120335801E+01  0.14580117036E+02  0.51100000000E-03 0.  1.
        -12    1    3    3    0    0  0.13105742592E+00  0.29375155818E+02  0.26853238337E+01  0.29497930766E+02  0.00000000000E+00 0.  1.
</event>
<event>
 7    1  0.2438448E-008  0.4614232E+02  0.7816164E-02  0.1320468E+00
        -11   -1    0    0    0    0  0.00000000000E+00  0.00000000000E+00  0.45593999997E+02  0.45594000000E+02  0.51100000000E-03 0.  1.
         11   -1    0    0    0    0 -0.00000000000E+00 -0.00000000000E+00 -0.45593999997E+02  0.45594000000E+02  0.51100000000E-03 0. -1.
    9900012    2    1    2    0    0  0.23956285143E+02  0.25347859889E+02  0.28507823468E+02  0.46142316548E+02  0.99999889400E+01 0.  0.
         12    1    1    2    0    0 -0.23956285143E+02 -0.25347859889E+02 -0.28507823468E+02  0.45045683452E+02  0.00000000000E+00 0. -1.
         11    1    3    3    0    0  0.10714263755E+01  0.48480364340E+01  0.61158879540E+01  0.78775311786E+01  0.51100000000E-03 0. -1.
        -11    1    3    3    0    0  0.68930978848E+01  0.37782279891E+01  0.49485804038E+01  0.92886088012E+01  0.51100000000E-03 0.  1.
         12    1    3    3    0    0  0.15991760883E+02  0.16721595465E+02  0.17443355110E+02  0.28976176568E+02  0.00000000000E+00 0. -1.
</event>
<event>
 7    1  0.2438448E-008  0.4614232E+02  0.7816164E-02  0.1320468E+00
        -11   -1    0    0    0    0  0.00000000000E+00  0.00000000000E+00  0.45593999997E+02  0.45594000000E+02  0.51100000000E-03 0.  1.
         11   -1    0    0    0    0 -0.00000000000E+00 -0.00000000000E+00 -0.45593999997E+02  0.45594000000E+02  0.51100000000E-03 0. -1.
    9900012    2    1    2    0    0  0.29651503114E+02 -0.33874922758E+02  0.15464368084E+01  0.46142317680E+02  0.99999992649E+01 0.  0.
         12    1    1    2    0    0 -0.29651503114E+02  0.33874922758E+02 -0.15464368084E+01  0.45045682320E+02  0.00000000000E+00 0. -1.
         11    1    3    3    0    0  0.18723454232E-01 -0.12059586399E+01 -0.45476113064E+00  0.12889898199E+01  0.51100000000E-03 0. -1.
        -11    1    3    3    0    0  0.19221087238E+02 -0.15552225410E+02  0.61231078471E-01  0.24725000694E+02  0.51100000000E-03 0.  1.
        -12    1    3    3    0    0  0.10411692422E+02 -0.17116738708E+02  0.19399668606E+01  0.20128327166E+02  0.00000000000E+00 0.  1.
</event>
<event>
 7    1  0.2438448E-008  0.4614232E+02  0.7816164E-02  0.1320468E+00
        -11   -1    0    0    0    0  0.00000000000E+00  0.00000000000E+00  0.45593999997E+02  0.45594000000E+02  0.51100000000E-03 0.  1.
         11   -1    0    0    0    0 -0.00000000000E+00 -0.00000000000E+00 -0.45593999997E+02  0.45594000000E+02  0.51100000000E-03 0. -1.
    9900012    2    1    2    0    0 -0.12872566343E+02 -0.23479705480E+02  0.36223114486E+02  0.46142317002E+02  0.99999930771E+01 0.  0.
         12    1    1    2    0    0  0.12872566343E+02  0.23479705480E+02 -0.36223114486E+02  0.45045682998E+02  0.00000000000E+00 0. -1.
         11    1    3    3    0    0 -0.65647706611E+01 -0.85333145138E+01  0.12981673817E+02  0.16865275740E+02  0.51100000000E-03 0. -1.
        -11    1    3    3    0    0 -0.36967136246E+01 -0.12354384804E+02  0.21793972489E+02  0.25323383515E+02  0.51100000000E-03 0.  1.
        -12    1    3    3    0    0 -0.26110820569E+01 -0.25920061621E+01  0.14474681801E+01  0.39536577475E+01  0.00000000000E+00 0.  1.
</event>
<event>
 7    1  0.2438448E-008  0.4614232E+02  0.7816164E-02  0.1320468E+00
        -11   -1    0    0    0    0  0.00000000000E+00  0.00000000000E+00  0.45593999997E+02  0.45594000000E+02  0.51100000000E-03 0. -1.
         11   -1    0    0    0    0 -0.00000000000E+00 -0.00000000000E+00 -0.45593999997E+02  0.45594000000E+02  0.51100000000E-03 0.  1.
    9900012    2    1    2    0    0  0.30489635281E+02 -0.17958774856E+02 -0.27874327557E+02  0.46142316626E+02  0.99999896450E+01 0.  0.
         12    1    1    2    0    0 -0.30489635281E+02  0.17958774856E+02  0.27874327557E+02  0.45045683374E+02  0.00000000000E+00 0. -1.
         11    1    3    3    0    0  0.79925934489E+01 -0.84690415155E+01 -0.62551311356E+01  0.13218656513E+02  0.51100000000E-03 0. -1.
        -11    1    3    3    0    0  0.76876096107E+01 -0.51752002301E+01 -0.98265164766E+01  0.13507126462E+02  0.51100000000E-03 0.  1.
         12    1    3    3    0    0  0.14809432222E+02 -0.43145331101E+01 -0.11792679945E+02  0.19416533650E+02  0.00000000000E+00 0. -1.
</event>
<event>
 7    1  0.2438448E-008  0.4614232E+02  0.7816164E-02  0.1320468E+00
        -11   -1    0    0    0    0  0.00000000000E+00  0.00000000000E+00  0.45593999997E+02  0.45594000000E+02  0.51100000000E-03 0.  1.
         11   -1    0    0    0    0 -0.00000000000E+00 -0.00000000000E+00 -0.45593999997E+02  0.45594000000E+02  0.51100000000E-03 0. -1.
    9900012    2    1    2    0    0  0.99093412510E+01  0.43810012332E+02  0.34060649216E+01  0.46142317601E+02  0.99999985361E+01 0.  0.
         12    1    1    2    0    0 -0.99093412510E+01 -0.43810012332E+02 -0.34060649216E+01  0.45045682399E+02  0.00000000000E+00 0. -1.
         11    1    3    3    0    0  0.44446051495E+01  0.11264957001E+02  0.64689615571E+00  0.12127334665E+02  0.51100000000E-03 0.  1.
        -11    1    3    3    0    0  0.19135991012E+01  0.51069555345E+01  0.32406106273E+01  0.63438485047E+01  0.51100000000E-03 0. -1.
         12    1    3    3    0    0  0.35511370003E+01  0.27438099797E+02 -0.48144186143E+00  0.27671134431E+02  0.00000000000E+00 0. -1.
</event>
<event>
 7    1  0.2438448E-008  0.4614232E+02  0.7816164E-02  0.1320468E+00
        -11   -1    0    0    0    0  0.00000000000E+00  0.00000000000E+00  0.45593999997E+02  0.45594000000E+02  0.51100000000E-03 0.  1.
         11   -1    0    0    0    0 -0.00000000000E+00 -0.00000000000E+00 -0.45593999997E+02  0.45594000000E+02  0.51100000000E-03 0. -1.
    9900012    2    1    2    0    0 -0.12510357771E+02 -0.52475226729E+01  0.42954254341E+02  0.46142317502E+02  0.99999976376E+01 0.  0.
         12    1    1    2    0    0  0.12510357771E+02  0.52475226729E+01 -0.42954254341E+02  0.45045682498E+02  0.00000000000E+00 0. -1.
         11    1    3    3    0    0 -0.10775867007E+02 -0.34779420430E+01  0.34041690401E+02  0.35875508027E+02  0.51100000000E-03 0. -1.
        -11    1    3    3    0    0 -0.83267307622E+00 -0.13275263388E+01  0.91095387179E+01  0.92433417413E+01  0.51100000000E-03 0.  1.
         12    1    3    3    0    0 -0.90181768766E+00 -0.44205429109E+00 -0.19697477832E+00  0.10234677334E+01  0.00000000000E+00 0. -1.
</event>
<event>
 7    1  0.2438448E-008  0.4614232E+02  0.7816164E-02  0.1320468E+00
        -11   -1    0    0    0    0  0.00000000000E+00  0.00000000000E+00  0.45593999997E+02  0.45594000000E+02  0.51100000000E-03 0.  1.
         11   -1    0    0    0    0 -0.00000000000E+00 -0.00000000000E+00 -0.45593999997E+02  0.45594000000E+02  0.51100000000E-03 0. -1.
    9900012    2    1    2    0    0  0.12123167274E+02  0.19637017901E+02  0.38685009414E+02  0.46142316409E+02  0.99999876696E+01 0.  0.
         12    1    1    2    0    0 -0.12123167274E+02 -0.19637017901E+02 -0.38685009414E+02  0.45045683591E+02  0.00000000000E+00 0. -1.
         11    1    3    3    0    0  0.22073107664E+01  0.21090924009E+01  0.14329034485E+01  0.33724922726E+01  0.51100000000E-03 0. -1.
        -11    1    3    3    0    0  0.37706323150E+01  0.12511579888E+02  0.22453455025E+02  0.25979125123E+02  0.51100000000E-03 0.  1.
        -12    1    3    3    0    0  0.61452241927E+01  0.50163456124E+01  0.14798650941E+02  0.16790699013E+02  0.00000000000E+00 0.  1.
</event>
<event>
 7    1  0.2438448E-008  0.4614232E+02  0.7816164E-02  0.1320468E+00
        -11   -1    0    0    0    0  0.00000000000E+00  0.00000000000E+00  0.45593999997E+02  0.45594000000E+02  0.51100000000E-03 0.  1.
         11   -1    0    0    0    0 -0.00000000000E+00 -0.00000000000E+00 -0.45593999997E+02  0.45594000000E+02  0.51100000000E-03 0. -1.
    9900012    2    1    2    0    0 -0.31090394969E+02 -0.50665993766E+01  0.32199851320E+02  0.46142317481E+02  0.99999974467E+01 0.  0.
         12    1    1    2    0    0  0.31090394969E+02  0.50665993766E+01 -0.32199851320E+02  0.45045682519E+02  0.00000000000E+00 0. -1.
         11    1    3    3    0    0 -0.29216428870E+01  0.17353621604E+01  0.36826580114E+01  0.50109329747E+01  0.51100000000E-03 0. -1.
        -11    1    3    3    0    0 -0.26299368931E+02 -0.52992393021E+01  0.27786186089E+02  0.38623967701E+02  0.51100000000E-03 0.  1.
        -12    1    3    3    0    0 -0.18693831507E+01 -0.15027222349E+01  0.73100721959E+00  0.25074168051E+01  0.00000000000E+00 0.  1.
</event>
<event>
 7    1  0.2438448E-008  0.4614231E+02  0.7816164E-02  0.1320468E+00
        -11   -1    0    0    0    0  0.00000000000E+00  0.00000000000E+00  0.45593999997E+02  0.45594000000E+02  0.51100000000E-03 0. -1.
         11   -1    0    0    0    0 -0.00000000000E+00 -0.00000000000E+00 -0.45593999997E+02  0.45594000000E+02  0.51100000000E-03 0.  1.
    9900012    2    1    2    0    0  0.22929888860E+02 -0.35592266871E+02 -0.15379353306E+02  0.46142314610E+02  0.99999712632E+01 0.  0.
         12    1    1    2    0    0 -0.22929888860E+02  0.35592266871E+02  0.15379353306E+02  0.45045685390E+02  0.00000000000E+00 0. -1.
         11    1    3    3    0    0  0.32398972587E+01 -0.30983829774E+01  0.12262593796E+01  0.46476471089E+01  0.51100000000E-03 0. -1.
        -11    1    3    3    0    0  0.24288136618E+01 -0.44960286644E+01 -0.17192007414E+01  0.53915731476E+01  0.51100000000E-03 0.  1.
         12    1    3    3    0    0  0.17261177940E+02 -0.27997855229E+02 -0.14886411944E+02  0.36103094353E+02  0.00000000000E+00 0. -1.
</event>
<event>
 7    1  0.2438448E-008  0.4614233E+02  0.7816164E-02  0.1320468E+00
        -11   -1    0    0    0    0  0.00000000000E+00  0.00000000000E+00  0.45593999997E+02  0.45594000000E+02  0.51100000000E-03 0.  1.
         11   -1    0    0    0    0 -0.00000000000E+00 -0.00000000000E+00 -0.45593999997E+02  0.45594000000E+02  0.51100000000E-03 0. -1.
    9900012    2    1    2    0    0  0.25092798192E+02  0.37099752921E+02  0.48033776430E+01  0.46142327348E+02  0.10000087419E+02 0.  0.
         12    1    1    2    0    0 -0.25092798192E+02 -0.37099752921E+02 -0.48033776430E+01  0.45045672652E+02  0.00000000000E+00 0. -1.
         11    1    3    3    0    0  0.17343467792E+01  0.59537725356E+01  0.14743627478E+01  0.63740969501E+01  0.51100000000E-03 0. -1.
        -11    1    3    3    0    0  0.12856015304E+02  0.21654647824E+02 -0.18004891563E+00  0.25183989354E+02  0.51100000000E-03 0.  1.
        -12    1    3    3    0    0  0.10502436108E+02  0.94913325615E+01  0.35090638108E+01  0.14584241044E+02  0.00000000000E+00 0.  1.
</event>
<event>
 7    1  0.2438448E-008  0.4614232E+02  0.7816164E-02  0.1320468E+00
        -11   -1    0    0    0    0  0.00000000000E+00  0.00000000000E+00  0.45593999997E+02  0.45594000000E+02  0.51100000000E-03 0.  1.
         11   -1    0    0    0    0 -0.00000000000E+00 -0.00000000000E+00 -0.45593999997E+02  0.45594000000E+02  0.51100000000E-03 0. -1.
    9900012    2    1    2    0    0  0.28326130721E+02  0.23213307492E+02  0.26227584285E+02  0.46142317590E+02  0.99999984354E+01 0.  0.
         12    1    1    2    0    0 -0.28326130721E+02 -0.23213307492E+02 -0.26227584285E+02  0.45045682410E+02  0.00000000000E+00 0. -1.
         11    1    3    3    0    0  0.21738862104E+02  0.14603686525E+02  0.16379926526E+02  0.30889282590E+02  0.51100000000E-03 0. -1.
        -11    1    3    3    0    0  0.51661215434E+01  0.36023464831E+01  0.65744663076E+01  0.91043571699E+01  0.51100000000E-03 0.  1.
         12    1    3    3    0    0  0.14211470742E+01  0.50072744846E+01  0.32731914516E+01  0.61486778294E+01  0.00000000000E+00 0. -1.
</event>
<event>
 7    1  0.2438448E-008  0.4614232E+02  0.7816164E-02  0.1320468E+00
        -11   -1    0    0    0    0  0.00000000000E+00  0.00000000000E+00  0.45593999997E+02  0.45594000000E+02  0.51100000000E-03 0.  1.
         11   -1    0    0    0    0 -0.00000000000E+00 -0.00000000000E+00 -0.45593999997E+02  0.45594000000E+02  0.51100000000E-03 0. -1.
    9900012    2    1    2    0    0  0.23556264727E+02  0.69929971307E+01  0.37753329303E+02  0.46142317741E+02  0.99999998137E+01 0.  0.
         12    1    1    2    0    0 -0.23556264727E+02 -0.69929971307E+01 -0.37753329303E+02  0.45045682259E+02  0.00000000000E+00 0. -1.
         11    1    3    3    0    0  0.12036765600E+01  0.38079279998E+00  0.82824236187E+00  0.15099092982E+01  0.51100000000E-03 0. -1.
        -11    1    3    3    0    0  0.18628681147E+02  0.59994443453E+01  0.22974084832E+02  0.30179954735E+02  0.51100000000E-03 0.  1.
        -12    1    3    3    0    0  0.37239070198E+01  0.61275998539E+00  0.13951002110E+02  0.14452453707E+02  0.00000000000E+00 0.  1.
</event>
<event>
 7    1  0.2438448E-008  0.4614232E+02  0.7816164E-02  0.1320468E+00
        -11   -1    0    0    0    0  0.00000000000E+00  0.00000000000E+00  0.45593999997E+02  0.45594000000E+02  0.51100000000E-03 0.  1.
         11   -1    0    0    0    0 -0.00000000000E+00 -0.00000000000E+00 -0.45593999997E+02  0.45594000000E+02  0.51100000000E-03 0. -1.
    9900012    2    1    2    0    0 -0.53726140009E+01 -0.28001918007E+02  0.34873214861E+02  0.46142317543E+02  0.99999980149E+01 0.  0.
         12    1    1    2    0    0  0.53726140009E+01  0.28001918007E+02 -0.34873214861E+02  0.45045682457E+02  0.00000000000E+00 0. -1.
         11    1    3    3    0    0 -0.28057831210E+01 -0.11619006253E+02  0.17516560785E+02  0.21206216712E+02  0.51100000000E-03 0. -1.
        -11    1    3    3    0    0  0.14057993984E+00 -0.99942866660E+01  0.14068714205E+02  0.17257874965E+02  0.51100000000E-03 0.  1.
         12    1    3    3    0    0 -0.27074108198E+01 -0.63886250876E+01  0.32879398705E+01  0.76782258660E+01  0.00000000000E+00 0. -1.
</event>
<event>
 7    1  0.2438448E-008  0.4614232E+02  0.7816164E-02  0.1320468E+00
        -11   -1    0    0    0    0  0.00000000000E+00  0.00000000000E+00  0.45593999997E+02  0.45594000000E+02  0.51100000000E-03 0.  1.
         11   -1    0    0    0    0 -0.00000000000E+00 -0.00000000000E+00 -0.45593999997E+02  0.45594000000E+02  0.51100000000E-03 0. -1.
    9900012    2    1    2    0    0  0.34619881766E+02  0.60944508355E+01  0.28167975610E+02  0.46142318803E+02  0.10000009503E+02 0.  0.
         12    1    1    2    0    0 -0.34619881766E+02 -0.60944508355E+01 -0.28167975610E+02  0.45045681197E+02  0.00000000000E+00 0. -1.
         11    1    3    3    0    0  0.14218860169E+02  0.53933143236E+01  0.14222874369E+02  0.20821959069E+02  0.51100000000E-03 0. -1.
        -11    1    3    3    0    0  0.14260499646E+02  0.29290614588E+01  0.10368645659E+02  0.17873166039E+02  0.51100000000E-03 0.  1.
         12    1    3    3    0    0  0.61405219513E+01 -0.22279249469E+01  0.35764555817E+01  0.74471936951E+01  0.00000000000E+00 0. -1.
</event>
<event>
 7    1  0.2438448E-008  0.4614232E+02  0.7816164E-02  0.1320468E+00
        -11   -1    0    0    0    0  0.00000000000E+00  0.00000000000E+00  0.45593999997E+02  0.45594000000E+02  0.51100000000E-03 0.  1.
         11   -1    0    0    0    0 -0.00000000000E+00 -0.00000000000E+00 -0.45593999997E+02  0.45594000000E+02  0.51100000000E-03 0. -1.
    9900012    2    1    2    0    0 -0.12744585275E+02  0.33434740491E+02  0.27364340949E+02  0.46142317841E+02  0.10000000731E+02 0.  0.
         12    1    1    2    0    0  0.12744585275E+02 -0.33434740491E+02 -0.27364340949E+02  0.45045682159E+02  0.00000000000E+00 0. -1.
         11    1    3    3    0    0  0.96791505824E+00  0.62698975018E+01  0.43434834509E+01  0.76885839393E+01  0.51100000000E-03 0. -1.
        -11    1    3    3    0    0  0.28400041014E+00  0.14788903237E+01  0.71195661895E+00  0.16657296632E+01  0.51100000000E-03 0.  1.
        -12    1    3    3    0    0 -0.13996500744E+02  0.25685952666E+02  0.22308900879E+02  0.36788004239E+02  0.00000000000E+00 0.  1.
</event>
<event>
 7    1  0.2438448E-008  0.4614232E+02  0.7816164E-02  0.1320468E+00
        -11   -1    0    0    0    0  0.00000000000E+00  0.00000000000E+00  0.45593999997E+02  0.45594000000E+02  0.51100000000E-03 0.  1.
         11   -1    0    0    0    0 -0.00000000000E+00 -0.00000000000E+00 -0.45593999997E+02  0.45594000000E+02  0.51100000000E-03 0. -1.
    9900012    2    1    2    0    0  0.27040816072E+00  0.82313022527E+01  0.44286408369E+02  0.46142318480E+02  0.10000006557E+02 0.  0.
         12    1    1    2    0    0 -0.27040816072E+00 -0.82313022527E+01 -0.44286408369E+02  0.45045681520E+02  0.00000000000E+00 0. -1.
         11    1    3    3    0    0  0.16321802954E+01  0.17390152901E+01  0.58287486296E+01  0.62978168872E+01  0.51100000000E-03 0. -1.
        -11    1    3    3    0    0  0.13778108341E+01  0.58729508084E+01  0.34303862262E+02  0.34830229402E+02  0.51100000000E-03 0.  1.
         12    1    3    3    0    0 -0.27395829688E+01  0.61933615412E+00  0.41537974778E+01  0.50142721905E+01  0.00000000000E+00 0. -1.
</event>
<event>
 7    1  0.2438448E-008  0.4614232E+02  0.7816164E-02  0.1320468E+00
        -11   -1    0    0    0    0  0.00000000000E+00  0.00000000000E+00  0.45593999997E+02  0.45594000000E+02  0.51100000000E-03 0.  1.
         11   -1    0    0    0    0 -0.00000000000E+00 -0.00000000000E+00 -0.45593999997E+02  0.45594000000E+02  0.51100000000E-03 0. -1.
    9900012    2    1    2    0    0 -0.35085972528E+02  0.42265799066E+01  0.27932491744E+02  0.46142317177E+02  0.99999946770E+01 0.  0.
         12    1    1    2    0    0  0.35085972528E+02 -0.42265799066E+01 -0.27932491744E+02  0.45045682823E+02  0.00000000000E+00 0. -1.
         11    1    3    3    0    0 -0.59698222444E+01 -0.16463010347E+01  0.17107167434E+01  0.64246117987E+01  0.51100000000E-03 0. -1.
        -11    1    3    3    0    0 -0.88559024366E+01  0.18702879697E+01  0.63389751407E+01  0.11050230366E+02  0.51100000000E-03 0.  1.
        -12    1    3    3    0    0 -0.20260247847E+02  0.40025929716E+01  0.19882799859E+02  0.28667475012E+02  0.00000000000E+00 0.  1.
</event>
<event>
 7    1  0.2438448E-008  0.4614232E+02  0.7816164E-02  0.1320468E+00
        -11   -1    0    0    0    0  0.00000000000E+00  0.00000000000E+00  0.45593999997E+02  0.45594000000E+02  0.51100000000E-03 0.  1.
         11   -1    0    0    0    0 -0.00000000000E+00 -0.00000000000E+00 -0.45593999997E+02  0.45594000000E+02  0.51100000000E-03 0. -1.
    9900012    2    1    2    0    0 -0.26676024253E+02 -0.27912365783E+02  0.23203514935E+02  0.46142317200E+02  0.99999948865E+01 0.  0.
         12    1    1    2    0    0  0.26676024253E+02  0.27912365783E+02 -0.23203514935E+02  0.45045682800E+02  0.00000000000E+00 0. -1.
         11    1    3    3    0    0 -0.45148007390E+01 -0.71754862736E+01  0.73742860333E+01  0.11236152533E+02  0.51100000000E-03 0. -1.
        -11    1    3    3    0    0 -0.16085155290E+02 -0.14734748470E+02  0.77503757352E+01  0.23149802536E+02  0.51100000000E-03 0.  1.
        -12    1    3    3    0    0 -0.60760682241E+01 -0.60021310397E+01  0.80788531667E+01  0.11756362132E+02  0.00000000000E+00 0.  1.
</event>
<event>
 7    1  0.2438448E-008  0.4614232E+02  0.7816164E-02  0.1320468E+00
        -11   -1    0    0    0    0  0.00000000000E+00  0.00000000000E+00  0.45593999997E+02  0.45594000000E+02  0.51100000000E-03 0.  1.
         11   -1    0    0    0    0 -0.00000000000E+00 -0.00000000000E+00 -0.45593999997E+02  0.45594000000E+02  0.51100000000E-03 0. -1.
    9900012    2    1    2    0    0 -0.33118891333E+02 -0.24808406078E+02  0.17798751096E+02  0.46142317456E+02  0.99999972204E+01 0.  0.
         12    1    1    2    0    0  0.33118891333E+02  0.24808406078E+02 -0.17798751096E+02  0.45045682544E+02  0.00000000000E+00 0. -1.
         11    1    3    3    0    0 -0.32501140033E+01 -0.49433005971E+01  0.41400927178E+01  0.72207914941E+01  0.51100000000E-03 0.  1.
        -11    1    3    3    0    0 -0.12573072639E+01 -0.92012686727E+00  0.22947365683E+01  0.27736746721E+01  0.51100000000E-03 0. -1.
        -12    1    3    3    0    0 -0.28611470066E+02 -0.18944978614E+02  0.11363921810E+02  0.36147851290E+02  0.00000000000E+00 0.  1.
</event>
<event>
 7    1  0.2438448E-008  0.4614232E+02  0.7816164E-02  0.1320468E+00
        -11   -1    0    0    0    0  0.00000000000E+00  0.00000000000E+00  0.45593999997E+02  0.45594000000E+02  0.51100000000E-03 0. -1.
         11   -1    0    0    0    0 -0.00000000000E+00 -0.00000000000E+00 -0.45593999997E+02  0.45594000000E+02  0.51100000000E-03 0.  1.
    9900012    2    1    2    0    0  0.26324725647E+02 -0.19395266138E+02 -0.30982994087E+02  0.46142318170E+02  0.10000003724E+02 0.  0.
         12    1    1    2    0    0 -0.26324725647E+02  0.19395266138E+02  0.30982994087E+02  0.45045681830E+02  0.00000000000E+00 0. -1.
         11    1    3    3    0    0 -0.54287611668E+00  0.23563158863E-01 -0.29461468044E+00  0.61811630909E+00  0.51100000000E-03 0. -1.
        -11    1    3    3    0    0  0.16902577641E+02 -0.14441414535E+02 -0.23008059320E+02  0.31994099122E+02  0.51100000000E-03 0.  1.
        -12    1    3    3    0    0  0.99650241228E+01 -0.49774147623E+01 -0.76803200862E+01  0.13530102738E+02  0.00000000000E+00 0.  1.
</event>
<event>
 7    1  0.2438448E-008  0.4614232E+02  0.7816164E-02  0.1320468E+00
        -11   -1    0    0    0    0  0.00000000000E+00  0.00000000000E+00  0.45593999997E+02  0.45594000000E+02  0.51100000000E-03 0.  1.
         11   -1    0    0    0    0 -0.00000000000E+00 -0.00000000000E+00 -0.45593999997E+02  0.45594000000E+02  0.51100000000E-03 0. -1.
    9900012    2    1    2    0    0  0.14124456972E+02 -0.34720118377E+02  0.24982530533E+02  0.46142315005E+02  0.99999748668E+01 0.  0.
         12    1    1    2    0    0 -0.14124456972E+02  0.34720118377E+02 -0.24982530533E+02  0.45045684995E+02  0.00000000000E+00 0. -1.
         11    1    3    3    0    0  0.86891839738E+01 -0.16192474349E+02  0.11651734446E+02  0.21759160359E+02  0.51100000000E-03 0. -1.
        -11    1    3    3    0    0  0.27978927858E+01 -0.15661667159E+02  0.12865538124E+02  0.20460647442E+02  0.51100000000E-03 0.  1.
         12    1    3    3    0    0  0.26373802120E+01 -0.28659768688E+01  0.46525796271E+00  0.39225072042E+01  0.00000000000E+00 0. -1.
</event>
<event>
 7    1  0.2438448E-008  0.4614232E+02  0.7816164E-02  0.1320468E+00
        -11   -1    0    0    0    0  0.00000000000E+00  0.00000000000E+00  0.45593999997E+02  0.45594000000E+02  0.51100000000E-03 0.  1.
         11   -1    0    0    0    0 -0.00000000000E+00 -0.00000000000E+00 -0.45593999997E+02  0.45594000000E+02  0.51100000000E-03 0. -1.
    9900012    2    1    2    0    0 -0.31816221765E+02  0.13165880556E+02  0.29043091704E+02  0.46142317033E+02  0.99999933638E+01 0.  0.
         12    1    1    2    0    0  0.31816221765E+02 -0.13165880556E+02 -0.29043091704E+02  0.45045682967E+02  0.00000000000E+00 0. -1.
         11    1    3    3    0    0 -0.18431003069E+02  0.49822872482E+01  0.18632351626E+02  0.26677510898E+02  0.51100000000E-03 0. -1.
        -11    1    3    3    0    0 -0.13759827514E+02  0.75357952037E+01  0.97877719372E+01  0.18491120634E+02  0.51100000000E-03 0.  1.
        -12    1    3    3    0    0  0.37460881785E+00  0.64779810380E+00  0.62296814146E+00  0.97368550106E+00  0.00000000000E+00 0.  1.
</event>
<event>
 7    1  0.2438448E-008  0.4614232E+02  0.7816164E-02  0.1320468E+00
        -11   -1    0    0    0    0  0.00000000000E+00  0.00000000000E+00  0.45593999997E+02  0.45594000000E+02  0.51100000000E-03 0.  1.
         11   -1    0    0    0    0 -0.00000000000E+00 -0.00000000000E+00 -0.45593999997E+02  0.45594000000E+02  0.51100000000E-03 0. -1.
    9900012    2    1    2    0    0 -0.88765832609E+01  0.14171427479E+02  0.41826911648E+02  0.46142316243E+02  0.99999861527E+01 0.  0.
         12    1    1    2    0    0  0.88765832609E+01 -0.14171427479E+02 -0.41826911648E+02  0.45045683757E+02  0.00000000000E+00 0. -1.
         11    1    3    3    0    0 -0.23024638834E+01  0.11667071786E+01  0.14276683247E+01  0.29497089147E+01  0.51100000000E-03 0. -1.
        -11    1    3    3    0    0 -0.25772544601E+01  0.24065875680E+01  0.58131070929E+01  0.67989792328E+01  0.51100000000E-03 0.  1.
        -12    1    3    3    0    0 -0.39968649174E+01  0.10598132733E+02  0.34586136230E+02  0.36393628095E+02  0.00000000000E+00 0.  1.
</event>
<event>
 7    1  0.2438448E-008  0.4614232E+02  0.7816164E-02  0.1320468E+00
        -11   -1    0    0    0    0  0.00000000000E+00  0.00000000000E+00  0.45593999997E+02  0.45594000000E+02  0.51100000000E-03 0.  1.
         11   -1    0    0    0    0 -0.00000000000E+00 -0.00000000000E+00 -0.45593999997E+02  0.45594000000E+02  0.51100000000E-03 0. -1.
    9900012    2    1    2    0    0 -0.28409510694E+02 -0.21429693403E+02  0.27618495993E+02  0.46142318985E+02  0.10000011163E+02 0.  0.
         12    1    1    2    0    0  0.28409510694E+02  0.21429693403E+02 -0.27618495993E+02  0.45045681015E+02  0.00000000000E+00 0. -1.
         11    1    3    3    0    0 -0.16199886370E+02 -0.75799077820E+01  0.14635263279E+02  0.23110219642E+02  0.51100000000E-03 0.  1.
        -11    1    3    3    0    0 -0.26006144725E+01 -0.11445556500E+01  0.72646404896E+00  0.29327382335E+01  0.51100000000E-03 0. -1.
        -12    1    3    3    0    0 -0.96090098509E+01 -0.12705229971E+02  0.12256768664E+02  0.20099361110E+02  0.00000000000E+00 0.  1.
</event>
<event>
 7    1  0.2438448E-008  0.4614232E+02  0.7816164E-02  0.1320468E+00
        -11   -1    0    0    0    0  0.00000000000E+00  0.00000000000E+00  0.45593999997E+02  0.45594000000E+02  0.51100000000E-03 0. -1.
         11   -1    0    0    0    0 -0.00000000000E+00 -0.00000000000E+00 -0.45593999997E+02  0.45594000000E+02  0.51100000000E-03 0.  1.
    9900012    2    1    2    0    0 -0.21892282828E+02  0.63787828993E+01 -0.38847812609E+02  0.46142318041E+02  0.10000002548E+02 0.  0.
         12    1    1    2    0    0  0.21892282828E+02 -0.63787828993E+01  0.38847812609E+02  0.45045681959E+02  0.00000000000E+00 0. -1.
         11    1    3    3    0    0 -0.64469807188E+01 -0.21189890088E+01 -0.75494097444E+01  0.10151219757E+02  0.51100000000E-03 0. -1.
        -11    1    3    3    0    0 -0.92571589364E+00  0.54613535578E+00 -0.10149803884E+01  0.14783095726E+01  0.51100000000E-03 0.  1.
        -12    1    3    3    0    0 -0.14519586216E+02  0.79516365523E+01 -0.30283422476E+02  0.34512788711E+02  0.00000000000E+00 0.  1.
</event>
<event>
 7    1  0.2438448E-008  0.4614232E+02  0.7816164E-02  0.1320468E+00
        -11   -1    0    0    0    0  0.00000000000E+00  0.00000000000E+00  0.45593999997E+02  0.45594000000E+02  0.51100000000E-03 0.  1.
         11   -1    0    0    0    0 -0.00000000000E+00 -0.00000000000E+00 -0.45593999997E+02  0.45594000000E+02  0.51100000000E-03 0. -1.
    9900012    2    1    2    0    0  0.17193401835E+02  0.23647957175E+02  0.34267691025E+02  0.46142316595E+02  0.99999893685E+01 0.  0.
         12    1    1    2    0    0 -0.17193401835E+02 -0.23647957175E+02 -0.34267691025E+02  0.45045683405E+02  0.00000000000E+00 0. -1.
         11    1    3    3    0    0  0.46221965896E+01  0.12633615991E+02  0.19066077802E+02  0.23334272591E+02  0.51100000000E-03 0. -1.
        -11    1    3    3    0    0  0.10393959465E+02  0.95889073362E+01  0.14138326397E+02  0.19996845022E+02  0.51100000000E-03 0.  1.
         12    1    3    3    0    0  0.21772457809E+01  0.14254338474E+01  0.10632868254E+01  0.28111989821E+01  0.00000000000E+00 0. -1.
</event>
<event>
 7    1  0.2438448E-008  0.4614232E+02  0.7816164E-02  0.1320468E+00
        -11   -1    0    0    0    0  0.00000000000E+00  0.00000000000E+00  0.45593999997E+02  0.45594000000E+02  0.51100000000E-03 0.  1.
         11   -1    0    0    0    0 -0.00000000000E+00 -0.00000000000E+00 -0.45593999997E+02  0.45594000000E+02  0.51100000000E-03 0. -1.
    9900012    2    1    2    0    0 -0.39785734438E+02  0.10317234912E+02  0.18432675319E+02  0.46142317406E+02  0.99999967573E+01 0.  0.
         12    1    1    2    0    0  0.39785734438E+02 -0.10317234912E+02 -0.18432675319E+02  0.45045682594E+02  0.00000000000E+00 0. -1.
         11    1    3    3    0    0 -0.37925170251E+01  0.38603075320E+01  0.40333375048E+01  0.67492941347E+01  0.51100000000E-03 0. -1.
        -11    1    3    3    0    0 -0.28774902914E+02  0.55331899296E+01  0.12602805403E+02  0.31897365609E+02  0.51100000000E-03 0.  1.
         12    1    3    3    0    0 -0.72183144989E+01  0.92373745029E+00  0.17965324116E+01  0.74956576621E+01  0.00000000000E+00 0. -1.
</event>
<event>
 7    1  0.2438448E-008  0.4614232E+02  0.7816164E-02  0.1320468E+00
        -11   -1    0    0    0    0  0.00000000000E+00  0.00000000000E+00  0.45593999997E+02  0.45594000000E+02  0.51100000000E-03 0. -1.
         11   -1    0    0    0    0 -0.00000000000E+00 -0.00000000000E+00 -0.45593999997E+02  0.45594000000E+02  0.51100000000E-03 0.  1.
    9900012    2    1    2    0    0  0.28882901280E+02  0.75371104750E+01 -0.33735494288E+02  0.46142316571E+02  0.99999891516E+01 0.  0.
         12    1    1    2    0    0 -0.28882901280E+02 -0.75371104750E+01  0.33735494288E+02  0.45045683429E+02  0.00000000000E+00 0. -1.
         11    1    3    3    0    0  0.14293619065E+01 -0.70293263223E-02 -0.41235350632E+01  0.43642486810E+01  0.51100000000E-03 0. -1.
        -11    1    3    3    0    0  0.10476078459E+02  0.67451982952E+01 -0.13185647910E+02  0.18141312824E+02  0.51100000000E-03 0.  1.
        -12    1    3    3    0    0  0.16977460914E+02  0.79894150609E+00 -0.16426311315E+02  0.23636755066E+02  0.00000000000E+00 0.  1.
</event>
<event>
 7    1  0.2438448E-008  0.4614232E+02  0.7816164E-02  0.1320468E+00
        -11   -1    0    0    0    0  0.00000000000E+00  0.00000000000E+00  0.45593999997E+02  0.45594000000E+02  0.51100000000E-03 0. -1.
         11   -1    0    0    0    0 -0.00000000000E+00 -0.00000000000E+00 -0.45593999997E+02  0.45594000000E+02  0.51100000000E-03 0.  1.
    9900012    2    1    2    0    0 -0.37738210361E+02 -0.21977097344E+02 -0.11043016170E+02  0.46142317243E+02  0.99999952732E+01 0.  0.
         12    1    1    2    0    0  0.37738210361E+02  0.21977097344E+02  0.11043016170E+02  0.45045682757E+02  0.00000000000E+00 0. -1.
         11    1    3    3    0    0 -0.10694812453E+02 -0.22495699493E+01 -0.11194540501E+01  0.10986025487E+02  0.51100000000E-03 0. -1.
        -11    1    3    3    0    0 -0.14977483070E+02 -0.84950685636E+01 -0.44240616646E+01  0.17778175128E+02  0.51100000000E-03 0.  1.
         12    1    3    3    0    0 -0.12065914838E+02 -0.11232458831E+02 -0.54995004557E+01  0.17378116628E+02  0.00000000000E+00 0. -1.
</event>
<event>
 7    1  0.2438448E-008  0.4614231E+02  0.7816164E-02  0.1320468E+00
        -11   -1    0    0    0    0  0.00000000000E+00  0.00000000000E+00  0.45593999997E+02  0.45594000000E+02  0.51100000000E-03 0.  1.
         11   -1    0    0    0    0 -0.00000000000E+00 -0.00000000000E+00 -0.45593999997E+02  0.45594000000E+02  0.51100000000E-03 0. -1.
    9900012    2    1    2    0    0 -0.11631195150E+02 -0.67901908985E+01  0.42985143634E+02  0.46142312456E+02  0.99999516274E+01 0.  0.
         12    1    1    2    0    0  0.11631195150E+02  0.67901908985E+01 -0.42985143634E+02  0.45045687544E+02  0.00000000000E+00 0. -1.
         11    1    3    3    0    0 -0.31032272787E+01 -0.24701202404E+01  0.72213497817E+01  0.82388959501E+01  0.51100000000E-03 0. -1.
        -11    1    3    3    0    0 -0.16675912795E+01 -0.53615832635E+01  0.15787850301E+02  0.16756600286E+02  0.51100000000E-03 0.  1.
         12    1    3    3    0    0 -0.68603765919E+01  0.10415126053E+01  0.19975943551E+02  0.21146816220E+02  0.00000000000E+00 0. -1.
</event>
<event>
 7    1  0.2438448E-008  0.4614232E+02  0.7816164E-02  0.1320468E+00
        -11   -1    0    0    0    0  0.00000000000E+00  0.00000000000E+00  0.45593999997E+02  0.45594000000E+02  0.51100000000E-03 0.  1.
         11   -1    0    0    0    0 -0.00000000000E+00 -0.00000000000E+00 -0.45593999997E+02  0.45594000000E+02  0.51100000000E-03 0. -1.
    9900012    2    1    2    0    0 -0.21390526882E+02  0.28259161448E+02  0.27802492546E+02  0.46142318322E+02  0.10000005116E+02 0.  0.
         12    1    1    2    0    0  0.21390526882E+02 -0.28259161448E+02 -0.27802492546E+02  0.45045681678E+02  0.00000000000E+00 0. -1.
         11    1    3    3    0    0 -0.36030745333E+01  0.36853997079E+01  0.72748766443E+00  0.52051470356E+01  0.51100000000E-03 0. -1.
        -11    1    3    3    0    0 -0.17075080342E+02  0.21500340271E+02  0.23239098597E+02  0.35970525494E+02  0.51100000000E-03 0.  1.
        -12    1    3    3    0    0 -0.71237200743E+00  0.30734214684E+01  0.38359062851E+01  0.49666457925E+01  0.00000000000E+00 0.  1.
</event>
<event>
 7    1  0.2438448E-008  0.4614232E+02  0.7816164E-02  0.1320468E+00
        -11   -1    0    0    0    0  0.00000000000E+00  0.00000000000E+00  0.45593999997E+02  0.45594000000E+02  0.51100000000E-03 0.  1.
         11   -1    0    0    0    0 -0.00000000000E+00 -0.00000000000E+00 -0.45593999997E+02  0.45594000000E+02  0.51100000000E-03 0. -1.
    9900012    2    1    2    0    0 -0.50941717771E+01 -0.23770215069E+02  0.37922814851E+02  0.46142316559E+02  0.99999890349E+01 0.  0.
         12    1    1    2    0    0  0.50941717771E+01  0.23770215069E+02 -0.37922814851E+02  0.45045683441E+02  0.00000000000E+00 0. -1.
         11    1    3    3    0    0 -0.15412774904E+01 -0.59251313481E+01  0.75454040817E+01  0.97167814018E+01  0.51100000000E-03 0. -1.
        -11    1    3    3    0    0  0.89954185981E+00 -0.11126958692E+02  0.22690769021E+02  0.25288127339E+02  0.51100000000E-03 0.  1.
         12    1    3    3    0    0 -0.44524361466E+01 -0.67181250287E+01  0.76866417484E+01  0.11137407818E+02  0.00000000000E+00 0. -1.
</event>
<event>
 7    1  0.2438448E-008  0.4614232E+02  0.7816164E-02  0.1320468E+00
        -11   -1    0    0    0    0  0.00000000000E+00  0.00000000000E+00  0.45593999997E+02  0.45594000000E+02  0.51100000000E-03 0. -1.
         11   -1    0    0    0    0 -0.00000000000E+00 -0.00000000000E+00 -0.45593999997E+02  0.45594000000E+02  0.51100000000E-03 0.  1.
    9900012    2    1    2    0    0 -0.18048153062E+02  0.37812907820E+02 -0.16539693571E+02  0.46142319961E+02  0.10000020060E+02 0.  0.
         12    1    1    2    0    0  0.18048153062E+02 -0.37812907820E+02  0.16539693571E+02  0.45045680039E+02  0.00000000000E+00 0. -1.
         11    1    3    3    0    0 -0.10712208611E+01  0.39124700570E+00 -0.42013641716E+00  0.12153613548E+01  0.51100000000E-03 0. -1.
        -11    1    3    3    0    0 -0.16648894005E+02  0.29811015842E+02 -0.14715095625E+02  0.37180860354E+02  0.51100000000E-03 0.  1.
        -12    1    3    3    0    0 -0.32803819590E+00  0.76106449721E+01 -0.14044615293E+01  0.77460982524E+01  0.00000000000E+00 0.  1.
</event>
<event>
 7    1  0.2438448E-008  0.4614232E+02  0.7816164E-02  0.1320468E+00
        -11   -1    0    0    0    0  0.00000000000E+00  0.00000000000E+00  0.45593999997E+02  0.45594000000E+02  0.51100000000E-03 0.  1.
         11   -1    0    0    0    0 -0.00000000000E+00 -0.00000000000E+00 -0.45593999997E+02  0.45594000000E+02  0.51100000000E-03 0. -1.
    9900012    2    1    2    0    0  0.32191708341E+02 -0.95170929874E+01  0.30037180104E+02  0.46142319481E+02  0.10000015679E+02 0.  0.
         12    1    1    2    0    0 -0.32191708341E+02  0.95170929874E+01 -0.30037180104E+02  0.45045680519E+02  0.00000000000E+00 0. -1.
         11    1    3    3    0    0  0.10824289228E+02 -0.15701507732E+01  0.75462574448E+01  0.13288213290E+02  0.51100000000E-03 0. -1.
        -11    1    3    3    0    0  0.12717628922E+02 -0.22169238408E+01  0.85825893109E+01  0.15502053937E+02  0.51100000000E-03 0.  1.
         12    1    3    3    0    0  0.86497901909E+01 -0.57300183734E+01  0.13908333348E+02  0.17352052254E+02  0.00000000000E+00 0. -1.
</event>
<event>
 7    1  0.2438448E-008  0.4614232E+02  0.7816164E-02  0.1320468E+00
        -11   -1    0    0    0    0  0.00000000000E+00  0.00000000000E+00  0.45593999997E+02  0.45594000000E+02  0.51100000000E-03 0.  1.
         11   -1    0    0    0    0 -0.00000000000E+00 -0.00000000000E+00 -0.45593999997E+02  0.45594000000E+02  0.51100000000E-03 0. -1.
    9900012    2    1    2    0    0  0.77153560692E+01 -0.30533476493E+02  0.32207043637E+02  0.46142316901E+02  0.99999921589E+01 0.  0.
         12    1    1    2    0    0 -0.77153560692E+01  0.30533476493E+02 -0.32207043637E+02  0.45045683099E+02  0.00000000000E+00 0. -1.
         11    1    3    3    0    0 -0.59043443242E+00 -0.14007943768E+01  0.11603269795E+01  0.19123798434E+01  0.51100000000E-03 0. -1.
        -11    1    3    3    0    0 -0.97029852653E+00 -0.65856681534E+01  0.10047614806E+02  0.12052678864E+02  0.51100000000E-03 0.  1.
        -12    1    3    3    0    0  0.92760890281E+01 -0.22547013963E+02  0.20999101852E+02  0.32177258194E+02  0.00000000000E+00 0.  1.
</event>
<event>
 7    1  0.2438448E-008  0.4614232E+02  0.7816164E-02  0.1320468E+00
        -11   -1    0    0    0    0  0.00000000000E+00  0.00000000000E+00  0.45593999997E+02  0.45594000000E+02  0.51100000000E-03 0.  1.
         11   -1    0    0    0    0 -0.00000000000E+00 -0.00000000000E+00 -0.45593999997E+02  0.45594000000E+02  0.51100000000E-03 0. -1.
    9900012    2    1    2    0    0  0.42965953832E+02  0.96606759670E+01  0.94716223885E+01  0.46142317859E+02  0.10000000894E+02 0.  0.
         12    1    1    2    0    0 -0.42965953832E+02 -0.96606759670E+01 -0.94716223885E+01  0.45045682141E+02  0.00000000000E+00 0. -1.
         11    1    3    3    0    0  0.30472267513E+02  0.10223843717E+02  0.54650818528E+01  0.32602962866E+02  0.51100000000E-03 0.  1.
        -11    1    3    3    0    0  0.63332078438E+01  0.49436741759E+00  0.35379003690E+01  0.72712213567E+01  0.51100000000E-03 0. -1.
        -12    1    3    3    0    0  0.61604784758E+01 -0.10575351673E+01  0.46864016673E+00  0.62681336367E+01  0.00000000000E+00 0.  1.
</event>
<event>
 7    1  0.2438448E-008  0.4614232E+02  0.7816164E-02  0.1320468E+00
        -11   -1    0    0    0    0  0.00000000000E+00  0.00000000000E+00  0.45593999997E+02  0.45594000000E+02  0.51100000000E-03 0.  1.
         11   -1    0    0    0    0 -0.00000000000E+00 -0.00000000000E+00 -0.45593999997E+02  0.45594000000E+02  0.51100000000E-03 0. -1.
    9900012    2    1    2    0    0 -0.12752863378E+02  0.25416256907E+02  0.34935538424E+02  0.46142317804E+02  0.10000000391E+02 0.  0.
         12    1    1    2    0    0  0.12752863378E+02 -0.25416256907E+02 -0.34935538424E+02  0.45045682196E+02  0.00000000000E+00 0. -1.
         11    1    3    3    0    0 -0.32875426203E+01  0.21329943119E+01  0.98530320756E+01  0.10603765490E+02  0.51100000000E-03 0. -1.
        -11    1    3    3    0    0 -0.22518311046E+01  0.62443630292E+01  0.74723454822E+01  0.99949367297E+01  0.51100000000E-03 0.  1.
         12    1    3    3    0    0 -0.72134896527E+01  0.17038899566E+02  0.17610160867E+02  0.25543615585E+02  0.00000000000E+00 0. -1.
</event>
<event>
 7    1  0.2438448E-008  0.4614232E+02  0.7816164E-02  0.1320468E+00
        -11   -1    0    0    0    0  0.00000000000E+00  0.00000000000E+00  0.45593999997E+02  0.45594000000E+02  0.51100000000E-03 0.  1.
         11   -1    0    0    0    0 -0.00000000000E+00 -0.00000000000E+00 -0.45593999997E+02  0.45594000000E+02  0.51100000000E-03 0. -1.
    9900012    2    1    2    0    0  0.31194382745E+01 -0.42061262751E+02  0.15818751773E+02  0.46142316222E+02  0.99999859642E+01 0.  0.
         12    1    1    2    0    0 -0.31194382745E+01  0.42061262751E+02 -0.15818751773E+02  0.45045683778E+02  0.00000000000E+00 0. -1.
         11    1    3    3    0    0  0.24735776158E+01 -0.22028712513E+02  0.65953032565E+01  0.23127489844E+02  0.51100000000E-03 0. -1.
        -11    1    3    3    0    0 -0.11544067556E+01 -0.18632149127E+02  0.89969262435E+01  0.20722797064E+02  0.51100000000E-03 0.  1.
         12    1    3    3    0    0  0.18002674143E+01 -0.14004011117E+01  0.22652227296E+00  0.22920293141E+01  0.00000000000E+00 0. -1.
</event>
<event>
 7    1  0.2438448E-008  0.4614232E+02  0.7816164E-02  0.1320468E+00
        -11   -1    0    0    0    0  0.00000000000E+00  0.00000000000E+00  0.45593999997E+02  0.45594000000E+02  0.51100000000E-03 0. -1.
         11   -1    0    0    0    0 -0.00000000000E+00 -0.00000000000E+00 -0.45593999997E+02  0.45594000000E+02  0.51100000000E-03 0.  1.
    9900012    2    1    2    0    0 -0.38779014612E+02 -0.22460889012E+02 -0.45618107081E+01  0.46142316228E+02  0.99999860238E+01 0.  0.
         12    1    1    2    0    0  0.38779014612E+02  0.22460889012E+02  0.45618107081E+01  0.45045683772E+02  0.00000000000E+00 0. -1.
         11    1    3    3    0    0 -0.15137483098E+02 -0.94115563127E+01 -0.10573818026E+01  0.17856059008E+02  0.51100000000E-03 0. -1.
        -11    1    3    3    0    0 -0.13627293109E+02 -0.11517816679E+02 -0.11145670332E+01  0.17877513207E+02  0.51100000000E-03 0.  1.
         12    1    3    3    0    0 -0.10014238406E+02 -0.15315160197E+01 -0.23898618723E+01  0.10408744013E+02  0.00000000000E+00 0. -1.
</event>
<event>
 7    1  0.2438448E-008  0.4614232E+02  0.7816164E-02  0.1320468E+00
        -11   -1    0    0    0    0  0.00000000000E+00  0.00000000000E+00  0.45593999997E+02  0.45594000000E+02  0.51100000000E-03 0.  1.
         11   -1    0    0    0    0 -0.00000000000E+00 -0.00000000000E+00 -0.45593999997E+02  0.45594000000E+02  0.51100000000E-03 0. -1.
    9900012    2    1    2    0    0  0.38544072098E+02  0.23206758579E+02  0.22168204591E+01  0.46142318402E+02  0.10000005842E+02 0.  0.
         12    1    1    2    0    0 -0.38544072098E+02 -0.23206758579E+02 -0.22168204591E+01  0.45045681598E+02  0.00000000000E+00 0. -1.
         11    1    3    3    0    0  0.57384361863E+01  0.33592318758E+00  0.12455989358E+00  0.57496095241E+01  0.51100000000E-03 0. -1.
        -11    1    3    3    0    0  0.12369041368E+02  0.11496813119E+02 -0.23571173832E+00  0.16888619142E+02  0.51100000000E-03 0.  1.
        -12    1    3    3    0    0  0.20436594545E+02  0.11374022273E+02  0.23279723039E+01  0.23504089735E+02  0.00000000000E+00 0.  1.
</event>
<event>
 7    1  0.2438448E-008  0.4614232E+02  0.7816164E-02  0.1320468E+00
        -11   -1    0    0    0    0  0.00000000000E+00  0.00000000000E+00  0.45593999997E+02  0.45594000000E+02  0.51100000000E-03 0.  1.
         11   -1    0    0    0    0 -0.00000000000E+00 -0.00000000000E+00 -0.45593999997E+02  0.45594000000E+02  0.51100000000E-03 0. -1.
    9900012    2    1    2    0    0  0.44853217660E+02 -0.35955174187E+01  0.20915443354E+01  0.46142318324E+02  0.10000005131E+02 0.  0.
         12    1    1    2    0    0 -0.44853217660E+02  0.35955174187E+01 -0.20915443354E+01  0.45045681676E+02  0.00000000000E+00 0. -1.
         11    1    3    3    0    0  0.31976921378E+01  0.13238796785E+01 -0.12287764823E+01  0.36725718939E+01  0.51100000000E-03 0. -1.
        -11    1    3    3    0    0  0.27925014971E+02 -0.13837167076E+01  0.23872864023E+00  0.27960295504E+02  0.51100000000E-03 0.  1.
         12    1    3    3    0    0  0.13730510552E+02 -0.35356803895E+01  0.30815921775E+01  0.14509450926E+02  0.00000000000E+00 0. -1.
</event>
<event>
 7    1  0.2438448E-008  0.4614232E+02  0.7816164E-02  0.1320468E+00
        -11   -1    0    0    0    0  0.00000000000E+00  0.00000000000E+00  0.45593999997E+02  0.45594000000E+02  0.51100000000E-03 0.  1.
         11   -1    0    0    0    0 -0.00000000000E+00 -0.00000000000E+00 -0.45593999997E+02  0.45594000000E+02  0.51100000000E-03 0. -1.
    9900012    2    1    2    0    0 -0.10044383130E+02  0.12227835567E+02  0.42174679340E+02  0.46142321266E+02  0.10000031965E+02 0.  0.
         12    1    1    2    0    0  0.10044383130E+02 -0.12227835567E+02 -0.42174679340E+02  0.45045678734E+02  0.00000000000E+00 0. -1.
         11    1    3    3    0    0 -0.18798493734E+01 -0.12153327301E-01  0.10855849240E+02  0.11017415502E+02  0.51100000000E-03 0. -1.
        -11    1    3    3    0    0 -0.72901023648E+01  0.90110940249E+01  0.28441063530E+02  0.30712204463E+02  0.51100000000E-03 0.  1.
         12    1    3    3    0    0 -0.87443139182E+00  0.32288948697E+01  0.28777665703E+01  0.44127013010E+01  0.00000000000E+00 0. -1.
</event>
<event>
 7    1  0.2438448E-008  0.4614232E+02  0.7816164E-02  0.1320468E+00
        -11   -1    0    0    0    0  0.00000000000E+00  0.00000000000E+00  0.45593999997E+02  0.45594000000E+02  0.51100000000E-03 0. -1.
         11   -1    0    0    0    0 -0.00000000000E+00 -0.00000000000E+00 -0.45593999997E+02  0.45594000000E+02  0.51100000000E-03 0.  1.
    9900012    2    1    2    0    0  0.15956742971E+02  0.38358011366E+02 -0.17411456208E+02  0.46142317749E+02  0.99999998900E+01 0.  0.
         12    1    1    2    0    0 -0.15956742971E+02 -0.38358011366E+02  0.17411456208E+02  0.45045682251E+02  0.00000000000E+00 0. -1.
         11    1    3    3    0    0  0.11600054779E+02  0.23172510968E+02 -0.87926132516E+01  0.27364878650E+02  0.51100000000E-03 0.  1.
        -11    1    3    3    0    0  0.89051109347E+00  0.10455917544E+02 -0.37102467351E+01  0.11130370739E+02  0.51100000000E-03 0. -1.
         12    1    3    3    0    0  0.34661770976E+01  0.47295828533E+01 -0.49085962210E+01  0.76470683598E+01  0.00000000000E+00 0. -1.
</event>
<event>
 7    1  0.2438448E-008  0.4614232E+02  0.7816164E-02  0.1320468E+00
        -11   -1    0    0    0    0  0.00000000000E+00  0.00000000000E+00  0.45593999997E+02  0.45594000000E+02  0.51100000000E-03 0.  1.
         11   -1    0    0    0    0 -0.00000000000E+00 -0.00000000000E+00 -0.45593999997E+02  0.45594000000E+02  0.51100000000E-03 0. -1.
    9900012    2    1    2    0    0  0.12869632976E+02  0.14486329867E+01  0.43143800247E+02  0.46142317740E+02  0.99999998095E+01 0.  0.
         12    1    1    2    0    0 -0.12869632976E+02 -0.14486329867E+01 -0.43143800247E+02  0.45045682260E+02  0.00000000000E+00 0. -1.
         11    1    3    3    0    0  0.90764727356E+01  0.19383538914E+01  0.17992143823E+02  0.20244920665E+02  0.51100000000E-03 0.  1.
        -11    1    3    3    0    0  0.24755413649E+01 -0.26571855035E+01  0.15118547191E+02  0.15548614385E+02  0.51100000000E-03 0. -1.
         12    1    3    3    0    0  0.13176188752E+01  0.21674645988E+01  0.10033109233E+02  0.10348782691E+02  0.00000000000E+00 0. -1.
</event>
<event>
 7    1  0.2438448E-008  0.4614232E+02  0.7816164E-02  0.1320468E+00
        -11   -1    0    0    0    0  0.00000000000E+00  0.00000000000E+00  0.45593999997E+02  0.45594000000E+02  0.51100000000E-03 0.  1.
         11   -1    0    0    0    0 -0.00000000000E+00 -0.00000000000E+00 -0.45593999997E+02  0.45594000000E+02  0.51100000000E-03 0. -1.
    9900012    2    1    2    0    0 -0.18831703030E+02 -0.40219705766E+02 -0.75402740440E+01  0.46142317592E+02  0.99999984608E+01 0.  0.
         12    1    1    2    0    0  0.18831703030E+02  0.40219705766E+02  0.75402740440E+01  0.45045682408E+02  0.00000000000E+00 0. -1.
         11    1    3    3    0    0 -0.11070489611E+02 -0.21808497108E+02 -0.62714507858E+01  0.25248710493E+02  0.51100000000E-03 0. -1.
        -11    1    3    3    0    0 -0.85087021009E+01 -0.15500246101E+02 -0.20162624980E+01  0.17796655735E+02  0.51100000000E-03 0.  1.
         12    1    3    3    0    0  0.74748868126E+00 -0.29109625569E+01  0.74743923978E+00  0.30969513644E+01  0.00000000000E+00 0. -1.
</event>
<event>
 7    1  0.2438448E-008  0.4614232E+02  0.7816164E-02  0.1320468E+00
        -11   -1    0    0    0    0  0.00000000000E+00  0.00000000000E+00  0.45593999997E+02  0.45594000000E+02  0.51100000000E-03 0.  1.
         11   -1    0    0    0    0 -0.00000000000E+00 -0.00000000000E+00 -0.45593999997E+02  0.45594000000E+02  0.51100000000E-03 0. -1.
    9900012    2    1    2    0    0  0.31591629373E+02 -0.32108149742E+02  0.38622077429E+00  0.46142317711E+02  0.99999995475E+01 0.  0.
         12    1    1    2    0    0 -0.31591629373E+02  0.32108149742E+02 -0.38622077429E+00  0.45045682289E+02  0.00000000000E+00 0. -1.
         11    1    3    3    0    0  0.78625375892E+01 -0.91374794187E+01  0.94846783536E+00  0.12091841008E+02  0.51100000000E-03 0. -1.
        -11    1    3    3    0    0  0.40108866526E+01 -0.64159207148E+01  0.28370120395E+01  0.80808346061E+01  0.51100000000E-03 0.  1.
         12    1    3    3    0    0  0.19718205132E+02 -0.16554749609E+02 -0.33992591005E+01  0.25969642097E+02  0.00000000000E+00 0. -1.
</event>
<event>
 7    1  0.2438448E-008  0.4614232E+02  0.7816164E-02  0.1320468E+00
        -11   -1    0    0    0    0  0.00000000000E+00  0.00000000000E+00  0.45593999997E+02  0.45594000000E+02  0.51100000000E-03 0.  1.
         11   -1    0    0    0    0 -0.00000000000E+00 -0.00000000000E+00 -0.45593999997E+02  0.45594000000E+02  0.51100000000E-03 0. -1.
    9900012    2    1    2    0    0 -0.44056489806E+02  0.33191388734E+01 -0.87819498165E+01  0.46142316306E+02  0.99999867291E+01 0.  0.
         12    1    1    2    0    0  0.44056489806E+02 -0.33191388734E+01  0.87819498165E+01  0.45045683694E+02  0.00000000000E+00 0. -1.
         11    1    3    3    0    0 -0.17263534084E+01 -0.10966522512E+01 -0.20303625413E+01  0.28818942661E+01  0.51100000000E-03 0. -1.
        -11    1    3    3    0    0 -0.81821309711E+01  0.20728968695E+01 -0.41711146374E+00  0.84509260376E+01  0.51100000000E-03 0.  1.
         12    1    3    3    0    0 -0.34148005427E+02  0.23428942551E+01 -0.63344758115E+01  0.34809496002E+02  0.00000000000E+00 0. -1.
</event>
<event>
 7    1  0.2438448E-008  0.4614232E+02  0.7816164E-02  0.1320468E+00
        -11   -1    0    0    0    0  0.00000000000E+00  0.00000000000E+00  0.45593999997E+02  0.45594000000E+02  0.51100000000E-03 0.  1.
         11   -1    0    0    0    0 -0.00000000000E+00 -0.00000000000E+00 -0.45593999997E+02  0.45594000000E+02  0.51100000000E-03 0. -1.
    9900012    2    1    2    0    0 -0.25714558448E+02 -0.32265343747E+02  0.18078234535E+02  0.46142317775E+02  0.10000000124E+02 0.  0.
         12    1    1    2    0    0  0.25714558448E+02  0.32265343747E+02 -0.18078234535E+02  0.45045682225E+02  0.00000000000E+00 0. -1.
         11    1    3    3    0    0 -0.81663200618E+01 -0.78943497736E+01  0.36110958404E+01  0.11918454393E+02  0.51100000000E-03 0.  1.
        -11    1    3    3    0    0 -0.16948300801E+02 -0.20549825939E+02  0.14556015131E+02  0.30354864896E+02  0.51100000000E-03 0. -1.
         12    1    3    3    0    0 -0.59993758511E+00 -0.38211680345E+01 -0.88876436282E-01  0.38689984848E+01  0.00000000000E+00 0. -1.
</event>
<event>
 7    1  0.2438448E-008  0.4614232E+02  0.7816164E-02  0.1320468E+00
        -11   -1    0    0    0    0  0.00000000000E+00  0.00000000000E+00  0.45593999997E+02  0.45594000000E+02  0.51100000000E-03 0. -1.
         11   -1    0    0    0    0 -0.00000000000E+00 -0.00000000000E+00 -0.45593999997E+02  0.45594000000E+02  0.51100000000E-03 0.  1.
    9900012    2    1    2    0    0 -0.36923352737E+02  0.25798966963E+02 -0.43911181883E+00  0.46142317711E+02  0.99999995390E+01 0.  0.
         12    1    1    2    0    0  0.36923352737E+02 -0.25798966963E+02  0.43911181883E+00  0.45045682289E+02  0.00000000000E+00 0. -1.
         11    1    3    3    0    0 -0.46613668941E+01  0.26498289898E+01 -0.30685090238E+01  0.61778380431E+01  0.51100000000E-03 0. -1.
        -11    1    3    3    0    0 -0.69473934938E+01  0.52846698578E+01  0.20936976778E+01  0.89765016622E+01  0.51100000000E-03 0.  1.
        -12    1    3    3    0    0 -0.25314592349E+02  0.17864468116E+02  0.53569952718E+00  0.30987978005E+02  0.00000000000E+00 0.  1.
</event>
<event>
 7    1  0.2438448E-008  0.4614232E+02  0.7816164E-02  0.1320468E+00
        -11   -1    0    0    0    0  0.00000000000E+00  0.00000000000E+00  0.45593999997E+02  0.45594000000E+02  0.51100000000E-03 0. -1.
         11   -1    0    0    0    0 -0.00000000000E+00 -0.00000000000E+00 -0.45593999997E+02  0.45594000000E+02  0.51100000000E-03 0.  1.
    9900012    2    1    2    0    0  0.42584226682E+02 -0.38415348149E+01 -0.14175303915E+02  0.46142323260E+02  0.10000050146E+02 0.  0.
         12    1    1    2    0    0 -0.42584226682E+02  0.38415348149E+01  0.14175303915E+02  0.45045676740E+02  0.00000000000E+00 0. -1.
         11    1    3    3    0    0  0.10973047325E+02 -0.32086252449E+01 -0.65112341584E+01  0.13156717451E+02  0.51100000000E-03 0. -1.
        -11    1    3    3    0    0  0.27747069490E+01  0.93199051633E+00 -0.20304185550E+01  0.35623313638E+01  0.51100000000E-03 0.  1.
         12    1    3    3    0    0  0.28836472409E+02 -0.15649000863E+01 -0.56336512012E+01  0.29423274446E+02  0.00000000000E+00 0. -1.
</event>
<event>
 7    1  0.2438448E-008  0.4614232E+02  0.7816164E-02  0.1320468E+00
        -11   -1    0    0    0    0  0.00000000000E+00  0.00000000000E+00  0.45593999997E+02  0.45594000000E+02  0.51100000000E-03 0. -1.
         11   -1    0    0    0    0 -0.00000000000E+00 -0.00000000000E+00 -0.45593999997E+02  0.45594000000E+02  0.51100000000E-03 0.  1.
    9900012    2    1    2    0    0 -0.45005769755E+02 -0.48103921508E+00  0.18337984547E+01  0.46142317335E+02  0.99999961123E+01 0.  0.
         12    1    1    2    0    0  0.45005769755E+02  0.48103921508E+00 -0.18337984547E+01  0.45045682665E+02  0.00000000000E+00 0. -1.
         11    1    3    3    0    0 -0.72800211444E+01  0.99472973741E+00 -0.22247047379E+01  0.76770766926E+01  0.51100000000E-03 0. -1.
        -11    1    3    3    0    0 -0.13781722700E+02 -0.25408312268E+01 -0.69294864491E+00  0.14031104090E+02  0.51100000000E-03 0.  1.
        -12    1    3    3    0    0 -0.23944025911E+02  0.10650622743E+01  0.47514518375E+01  0.24434136552E+02  0.00000000000E+00 0.  1.
</event>
<event>
 7    1  0.2438448E-008  0.4614232E+02  0.7816164E-02  0.1320468E+00
        -11   -1    0    0    0    0  0.00000000000E+00  0.00000000000E+00  0.45593999997E+02  0.45594000000E+02  0.51100000000E-03 0.  1.
         11   -1    0    0    0    0 -0.00000000000E+00 -0.00000000000E+00 -0.45593999997E+02  0.45594000000E+02  0.51100000000E-03 0. -1.
    9900012    2    1    2    0    0 -0.31439083304E+02 -0.22313170814E+02  0.23298496541E+02  0.46142317722E+02  0.99999996443E+01 0.  0.
         12    1    1    2    0    0  0.31439083304E+02  0.22313170814E+02 -0.23298496541E+02  0.45045682278E+02  0.00000000000E+00 0. -1.
         11    1    3    3    0    0 -0.22094943206E+02 -0.12837312254E+02  0.13976381913E+02  0.29125973853E+02  0.51100000000E-03 0. -1.
        -11    1    3    3    0    0 -0.77016757773E+01 -0.73733561204E+01  0.46413442470E+01  0.11628596946E+02  0.51100000000E-03 0.  1.
         12    1    3    3    0    0 -0.16424643207E+01 -0.21025024393E+01  0.46807703808E+01  0.53877469233E+01  0.00000000000E+00 0. -1.
</event>
<event>
 7    1  0.2438448E-008  0.4614232E+02  0.7816164E-02  0.1320468E+00
        -11   -1    0    0    0    0  0.00000000000E+00  0.00000000000E+00  0.45593999997E+02  0.45594000000E+02  0.51100000000E-03 0.  1.
         11   -1    0    0    0    0 -0.00000000000E+00 -0.00000000000E+00 -0.45593999997E+02  0.45594000000E+02  0.51100000000E-03 0. -1.
    9900012    2    1    2    0    0  0.12806332148E+02 -0.43089409924E+02  0.29006976739E+01  0.46142318324E+02  0.10000005129E+02 0.  0.
         12    1    1    2    0    0 -0.12806332148E+02  0.43089409924E+02 -0.29006976739E+01  0.45045681676E+02  0.00000000000E+00 0. -1.
         11    1    3    3    0    0  0.28325688650E+01 -0.22652576254E+01  0.16717011338E+01  0.39936729243E+01  0.51100000000E-03 0. -1.
        -11    1    3    3    0    0  0.98441863076E+01 -0.38178451258E+02  0.62667196502E+00  0.39432155185E+02  0.51100000000E-03 0.  1.
         12    1    3    3    0    0  0.12957697488E+00 -0.26457010407E+01  0.60232457514E+00  0.27164902140E+01  0.00000000000E+00 0. -1.
</event>
<event>
 7    1  0.2438448E-008  0.4614232E+02  0.7816164E-02  0.1320468E+00
        -11   -1    0    0    0    0  0.00000000000E+00  0.00000000000E+00  0.45593999997E+02  0.45594000000E+02  0.51100000000E-03 0.  1.
         11   -1    0    0    0    0 -0.00000000000E+00 -0.00000000000E+00 -0.45593999997E+02  0.45594000000E+02  0.51100000000E-03 0. -1.
    9900012    2    1    2    0    0  0.37048015931E+02 -0.23627358239E+02  0.99149341693E+01  0.46142318061E+02  0.10000002737E+02 0.  0.
         12    1    1    2    0    0 -0.37048015931E+02  0.23627358239E+02 -0.99149341693E+01  0.45045681939E+02  0.00000000000E+00 0. -1.
         11    1    3    3    0    0  0.14723072986E+02 -0.71025413485E+01  0.14095717635E+01  0.16407372263E+02  0.51100000000E-03 0. -1.
        -11    1    3    3    0    0  0.14769451275E+02 -0.72604018429E+01  0.38212334780E+01  0.16895323360E+02  0.51100000000E-03 0.  1.
         12    1    3    3    0    0  0.75554916697E+01 -0.92644150477E+01  0.46841289278E+01  0.12839622438E+02  0.00000000000E+00 0. -1.
</event>
<event>
 7    1  0.2438448E-008  0.4614232E+02  0.7816164E-02  0.1320468E+00
        -11   -1    0    0    0    0  0.00000000000E+00  0.00000000000E+00  0.45593999997E+02  0.45594000000E+02  0.51100000000E-03 0.  1.
         11   -1    0    0    0    0 -0.00000000000E+00 -0.00000000000E+00 -0.45593999997E+02  0.45594000000E+02  0.51100000000E-03 0. -1.
    9900012    2    1    2    0    0 -0.14158257482E+02  0.35098035229E+02  0.24429186363E+02  0.46142317874E+02  0.10000001030E+02 0.  0.
         12    1    1    2    0    0  0.14158257482E+02 -0.35098035229E+02 -0.24429186363E+02  0.45045682126E+02  0.00000000000E+00 0. -1.
         11    1    3    3    0    0  0.32499660933E+00  0.23200060067E+01  0.24561998588E+01  0.33942552460E+01  0.51100000000E-03 0. -1.
        -11    1    3    3    0    0 -0.10327944865E+02  0.14040371002E+02  0.11526673012E+02  0.20896474678E+02  0.51100000000E-03 0.  1.
         12    1    3    3    0    0 -0.41553092265E+01  0.18737658220E+02  0.10446313492E+02  0.21851587950E+02  0.00000000000E+00 0. -1.
</event>
<event>
 7    1  0.2438448E-008  0.4614230E+02  0.7816164E-02  0.1320468E+00
        -11   -1    0    0    0    0  0.00000000000E+00  0.00000000000E+00  0.45593999997E+02  0.45594000000E+02  0.51100000000E-03 0.  1.
         11   -1    0    0    0    0 -0.00000000000E+00 -0.00000000000E+00 -0.45593999997E+02  0.45594000000E+02  0.51100000000E-03 0. -1.
    9900012    2    1    2    0    0  0.13494499528E+02 -0.39069609623E+02 -0.17904715406E+02  0.46142303787E+02  0.99998725680E+01 0.  0.
         12    1    1    2    0    0 -0.13494499528E+02  0.39069609623E+02  0.17904715406E+02  0.45045696213E+02  0.00000000000E+00 0. -1.
         11    1    3    3    0    0  0.23424597275E+01 -0.86366212431E+01 -0.46866838196E+01  0.10101650833E+02  0.51100000000E-03 0. -1.
        -11    1    3    3    0    0  0.96592761723E+01 -0.24178412969E+02 -0.14002155985E+02  0.29562774605E+02  0.51100000000E-03 0.  1.
        -12    1    3    3    0    0  0.14927636286E+01 -0.62545754106E+01  0.78412439887E+00  0.64778783479E+01  0.00000000000E+00 0.  1.
</event>
<event>
 7    1  0.2438448E-008  0.4614232E+02  0.7816164E-02  0.1320468E+00
        -11   -1    0    0    0    0  0.00000000000E+00  0.00000000000E+00  0.45593999997E+02  0.45594000000E+02  0.51100000000E-03 0.  1.
         11   -1    0    0    0    0 -0.00000000000E+00 -0.00000000000E+00 -0.45593999997E+02  0.45594000000E+02  0.51100000000E-03 0. -1.
    9900012    2    1    2    0    0  0.35731565340E+01 -0.17218156372E+02  0.41471449713E+02  0.46142317657E+02  0.99999990522E+01 0.  0.
         12    1    1    2    0    0 -0.35731565340E+01  0.17218156372E+02 -0.41471449713E+02  0.45045682343E+02  0.00000000000E+00 0. -1.
         11    1    3    3    0    0  0.13909734397E+01 -0.59980767707E+01  0.60973376216E+01  0.86654058410E+01  0.51100000000E-03 0. -1.
        -11    1    3    3    0    0  0.10826065001E+00 -0.75816369088E+01  0.16727716005E+02  0.18365985451E+02  0.51100000000E-03 0.  1.
         12    1    3    3    0    0  0.20739224444E+01 -0.36384426923E+01  0.18646396086E+02  0.19110926365E+02  0.00000000000E+00 0. -1.
</event>
<event>
 7    1  0.2438448E-008  0.4614232E+02  0.7816164E-02  0.1320468E+00
        -11   -1    0    0    0    0  0.00000000000E+00  0.00000000000E+00  0.45593999997E+02  0.45594000000E+02  0.51100000000E-03 0.  1.
         11   -1    0    0    0    0 -0.00000000000E+00 -0.00000000000E+00 -0.45593999997E+02  0.45594000000E+02  0.51100000000E-03 0. -1.
    9900012    2    1    2    0    0  0.27077808398E+02 -0.15265014053E+02  0.32601919308E+02  0.46142317584E+02  0.99999983872E+01 0.  0.
         12    1    1    2    0    0 -0.27077808398E+02  0.15265014053E+02 -0.32601919308E+02  0.45045682416E+02  0.00000000000E+00 0. -1.
         11    1    3    3    0    0  0.51037936834E+00 -0.30326304353E+00  0.25864524691E+01  0.26537129101E+01  0.51100000000E-03 0. -1.
        -11    1    3    3    0    0  0.19975524522E+02 -0.13073188481E+02  0.26873314216E+02  0.35945860043E+02  0.51100000000E-03 0.  1.
         12    1    3    3    0    0  0.65919045081E+01 -0.18885625287E+01  0.31421526234E+01  0.75427446316E+01  0.00000000000E+00 0. -1.
</event>
<event>
 7    1  0.2438448E-008  0.4614232E+02  0.7816164E-02  0.1320468E+00
        -11   -1    0    0    0    0  0.00000000000E+00  0.00000000000E+00  0.45593999997E+02  0.45594000000E+02  0.51100000000E-03 0. -1.
         11   -1    0    0    0    0 -0.00000000000E+00 -0.00000000000E+00 -0.45593999997E+02  0.45594000000E+02  0.51100000000E-03 0.  1.
    9900012    2    1    2    0    0 -0.42758894318E+02  0.13350146412E+02  0.47501227235E+01  0.46142321868E+02  0.10000037448E+02 0.  0.
         12    1    1    2    0    0  0.42758894318E+02 -0.13350146412E+02 -0.47501227235E+01  0.45045678132E+02  0.00000000000E+00 0. -1.
         11    1    3    3    0    0 -0.14143202832E+02  0.11297290186E+01  0.35474353893E+01  0.14625005029E+02  0.51100000000E-03 0. -1.
        -11    1    3    3    0    0 -0.20018344891E+02  0.93149172354E+01  0.29498511822E+01  0.22275624290E+02  0.51100000000E-03 0.  1.
         12    1    3    3    0    0 -0.85973465950E+01  0.29055001578E+01 -0.17471638480E+01  0.92416925481E+01  0.00000000000E+00 0. -1.
</event>
<event>
 7    1  0.2438448E-008  0.4614232E+02  0.7816164E-02  0.1320468E+00
        -11   -1    0    0    0    0  0.00000000000E+00  0.00000000000E+00  0.45593999997E+02  0.45594000000E+02  0.51100000000E-03 0.  1.
         11   -1    0    0    0    0 -0.00000000000E+00 -0.00000000000E+00 -0.45593999997E+02  0.45594000000E+02  0.51100000000E-03 0. -1.
    9900012    2    1    2    0    0  0.78418943826E+01 -0.43914870702E+02  0.62531878377E+01  0.46142317250E+02  0.99999953416E+01 0.  0.
         12    1    1    2    0    0 -0.78418943826E+01  0.43914870702E+02 -0.62531878377E+01  0.45045682750E+02  0.00000000000E+00 0. -1.
         11    1    3    3    0    0 -0.13947972299E+01 -0.11377116362E+02 -0.40496104528E+00  0.11469447664E+02  0.51100000000E-03 0. -1.
        -11    1    3    3    0    0  0.45133563383E+01 -0.21293575129E+02  0.52913395571E+01  0.22400558069E+02  0.51100000000E-03 0.  1.
         12    1    3    3    0    0  0.47233352742E+01 -0.11244179211E+02  0.13668093258E+01  0.12272311517E+02  0.00000000000E+00 0. -1.
</event>
<event>
 7    1  0.2438448E-008  0.4614232E+02  0.7816164E-02  0.1320468E+00
        -11   -1    0    0    0    0  0.00000000000E+00  0.00000000000E+00  0.45593999997E+02  0.45594000000E+02  0.51100000000E-03 0.  1.
         11   -1    0    0    0    0 -0.00000000000E+00 -0.00000000000E+00 -0.45593999997E+02  0.45594000000E+02  0.51100000000E-03 0. -1.
    9900012    2    1    2    0    0 -0.20331470982E+02  0.30248394352E+02  0.26472238186E+02  0.46142317990E+02  0.10000002087E+02 0.  0.
         12    1    1    2    0    0  0.20331470982E+02 -0.30248394352E+02 -0.26472238186E+02  0.45045682010E+02  0.00000000000E+00 0. -1.
         11    1    3    3    0    0 -0.12835431994E+02  0.15672355647E+02  0.17962041317E+02  0.27074083079E+02  0.51100000000E-03 0. -1.
        -11    1    3    3    0    0 -0.44042401920E+01  0.12711245921E+02  0.66457264026E+01  0.15004625427E+02  0.51100000000E-03 0.  1.
        -12    1    3    3    0    0 -0.30917987956E+01  0.18647927846E+01  0.18644704656E+01  0.40636094841E+01  0.00000000000E+00 0.  1.
</event>
<event>
 7    1  0.2438448E-008  0.4614232E+02  0.7816164E-02  0.1320468E+00
        -11   -1    0    0    0    0  0.00000000000E+00  0.00000000000E+00  0.45593999997E+02  0.45594000000E+02  0.51100000000E-03 0.  1.
         11   -1    0    0    0    0 -0.00000000000E+00 -0.00000000000E+00 -0.45593999997E+02  0.45594000000E+02  0.51100000000E-03 0. -1.
    9900012    2    1    2    0    0 -0.12875563853E+02  0.44210223814E+01  0.42939349720E+02  0.46142319433E+02  0.10000015243E+02 0.  0.
         12    1    1    2    0    0  0.12875563853E+02 -0.44210223814E+01 -0.42939349720E+02  0.45045680567E+02  0.00000000000E+00 0. -1.
         11    1    3    3    0    0 -0.88815977629E+00 -0.13251892049E+01  0.83016924413E+01  0.84535821914E+01  0.51100000000E-03 0. -1.
        -11    1    3    3    0    0 -0.29751949775E+01  0.67480319275E+00  0.16762200136E+02  0.17037561391E+02  0.51100000000E-03 0.  1.
         12    1    3    3    0    0 -0.90122090989E+01  0.50714083936E+01  0.17875457143E+02  0.20651175850E+02  0.00000000000E+00 0. -1.
</event>
<event>
 7    1  0.2438448E-008  0.4614232E+02  0.7816164E-02  0.1320468E+00
        -11   -1    0    0    0    0  0.00000000000E+00  0.00000000000E+00  0.45593999997E+02  0.45594000000E+02  0.51100000000E-03 0.  1.
         11   -1    0    0    0    0 -0.00000000000E+00 -0.00000000000E+00 -0.45593999997E+02  0.45594000000E+02  0.51100000000E-03 0. -1.
    9900012    2    1    2    0    0 -0.11883826253E+02 -0.35724019687E+02  0.24732213745E+02  0.46142319788E+02  0.10000018482E+02 0.  0.
         12    1    1    2    0    0  0.11883826253E+02  0.35724019687E+02 -0.24732213745E+02  0.45045680212E+02  0.00000000000E+00 0. -1.
         11    1    3    3    0    0 -0.26553353250E+00 -0.82331990491E+01  0.60440639989E+01  0.10216985099E+02  0.51100000000E-03 0. -1.
        -11    1    3    3    0    0 -0.70250045791E+01 -0.14514361778E+02  0.60025033069E+01  0.17206028983E+02  0.51100000000E-03 0.  1.
        -12    1    3    3    0    0 -0.45932881414E+01 -0.12976458860E+02  0.12685646440E+02  0.18719305705E+02  0.00000000000E+00 0.  1.
</event>
<event>
 7    1  0.2438448E-008  0.4614232E+02  0.7816164E-02  0.1320468E+00
        -11   -1    0    0    0    0  0.00000000000E+00  0.00000000000E+00  0.45593999997E+02  0.45594000000E+02  0.51100000000E-03 0. -1.
         11   -1    0    0    0    0 -0.00000000000E+00 -0.00000000000E+00 -0.45593999997E+02  0.45594000000E+02  0.51100000000E-03 0.  1.
    9900012    2    1    2    0    0  0.29640539304E+02  0.21549604510E+01 -0.33851265423E+02  0.46142316571E+02  0.99999891501E+01 0.  0.
         12    1    1    2    0    0 -0.29640539304E+02 -0.21549604510E+01  0.33851265423E+02  0.45045683429E+02  0.00000000000E+00 0. -1.
         11    1    3    3    0    0  0.15261055689E+02  0.13426529249E+01 -0.19251930042E+02  0.24603645019E+02  0.51100000000E-03 0.  1.
        -11    1    3    3    0    0  0.12148495420E+02  0.35106174980E+00 -0.79824593600E+01  0.14540592939E+02  0.51100000000E-03 0. -1.
        -12    1    3    3    0    0  0.22309881951E+01  0.46124577632E+00 -0.66168760211E+01  0.69980786128E+01  0.00000000000E+00 0.  1.
</event>
<event>
 7    1  0.2438448E-008  0.4614232E+02  0.7816164E-02  0.1320468E+00
        -11   -1    0    0    0    0  0.00000000000E+00  0.00000000000E+00  0.45593999997E+02  0.45594000000E+02  0.51100000000E-03 0.  1.
         11   -1    0    0    0    0 -0.00000000000E+00 -0.00000000000E+00 -0.45593999997E+02  0.45594000000E+02  0.51100000000E-03 0. -1.
    9900012    2    1    2    0    0  0.27375919406E+01  0.87848103816E+00  0.44953836337E+02  0.46142317188E+02  0.99999947762E+01 0.  0.
         12    1    1    2    0    0 -0.27375919406E+01 -0.87848103816E+00 -0.44953836337E+02  0.45045682812E+02  0.00000000000E+00 0. -1.
         11    1    3    3    0    0  0.35872968070E+01 -0.72463833959E+00  0.27176370583E+02  0.27421686991E+02  0.51100000000E-03 0. -1.
        -11    1    3    3    0    0 -0.10691495565E+01 -0.17113727486E+01  0.10873074935E+02  0.11058735745E+02  0.51100000000E-03 0.  1.
        -12    1    3    3    0    0  0.21944469005E+00  0.33144921264E+01  0.69043908188E+01  0.76618944529E+01  0.00000000000E+00 0.  1.
</event>
<event>
 7    1  0.2438448E-008  0.4614232E+02  0.7816164E-02  0.1320468E+00
        -11   -1    0    0    0    0  0.00000000000E+00  0.00000000000E+00  0.45593999997E+02  0.45594000000E+02  0.51100000000E-03 0.  1.
         11   -1    0    0    0    0 -0.00000000000E+00 -0.00000000000E+00 -0.45593999997E+02  0.45594000000E+02  0.51100000000E-03 0. -1.
    9900012    2    1    2    0    0 -0.43909129737E+02  0.14317611783E+01 -0.99524788892E+01  0.46142318183E+02  0.10000003844E+02 0.  0.
         12    1    1    2    0    0  0.43909129737E+02 -0.14317611783E+01  0.99524788892E+01  0.45045681817E+02  0.00000000000E+00 0. -1.
         11    1    3    3    0    0 -0.15037942085E+02 -0.30125347523E+01 -0.82811113325E+00  0.15359063647E+02  0.51100000000E-03 0. -1.
        -11    1    3    3    0    0 -0.16999791878E+01 -0.41133470962E+00 -0.13327532123E+00  0.17541060557E+01  0.51100000000E-03 0.  1.
        -12    1    3    3    0    0 -0.27171208464E+02  0.48556306402E+01 -0.89910924347E+01  0.29029148480E+02  0.00000000000E+00 0.  1.
</event>
<event>
 7    1  0.2438448E-008  0.4614232E+02  0.7816164E-02  0.1320468E+00
        -11   -1    0    0    0    0  0.00000000000E+00  0.00000000000E+00  0.45593999997E+02  0.45594000000E+02  0.51100000000E-03 0. -1.
         11   -1    0    0    0    0 -0.00000000000E+00 -0.00000000000E+00 -0.45593999997E+02  0.45594000000E+02  0.51100000000E-03 0.  1.
    9900012    2    1    2    0    0 -0.23243795365E+02 -0.28978224059E+02 -0.25477478762E+02  0.46142318557E+02  0.10000007259E+02 0.  0.
         12    1    1    2    0    0  0.23243795365E+02  0.28978224059E+02  0.25477478762E+02  0.45045681443E+02  0.00000000000E+00 0. -1.
         11    1    3    3    0    0 -0.82363957040E+01 -0.13179708324E+02 -0.11111424633E+02  0.19105148084E+02  0.51100000000E-03 0. -1.
        -11    1    3    3    0    0 -0.15358580888E+02 -0.15099184206E+02 -0.12242426519E+02  0.24773945547E+02  0.51100000000E-03 0.  1.
        -12    1    3    3    0    0  0.35118122744E+00 -0.69933152923E+00 -0.21236276100E+01  0.22632249266E+01  0.00000000000E+00 0.  1.
</event>
<event>
 7    1  0.2438448E-008  0.4614232E+02  0.7816164E-02  0.1320468E+00
        -11   -1    0    0    0    0  0.00000000000E+00  0.00000000000E+00  0.45593999997E+02  0.45594000000E+02  0.51100000000E-03 0.  1.
         11   -1    0    0    0    0 -0.00000000000E+00 -0.00000000000E+00 -0.45593999997E+02  0.45594000000E+02  0.51100000000E-03 0. -1.
    9900012    2    1    2    0    0 -0.26958047057E+02 -0.76584650281E+01  0.35266487757E+02  0.46142317117E+02  0.99999941236E+01 0.  0.
         12    1    1    2    0    0  0.26958047057E+02  0.76584650281E+01 -0.35266487757E+02  0.45045682883E+02  0.00000000000E+00 0. -1.
         11    1    3    3    0    0 -0.13474649530E+02 -0.37570811642E+01  0.15099867228E+02  0.20583678714E+02  0.51100000000E-03 0. -1.
        -11    1    3    3    0    0 -0.13992201904E+02 -0.38887938906E+01  0.20364688421E+02  0.25012496213E+02  0.51100000000E-03 0.  1.
         12    1    3    3    0    0  0.50880437674E+00 -0.12589973340E-01 -0.19806789279E+00  0.54614218970E+00  0.00000000000E+00 0. -1.
</event>
<event>
 7    1  0.2438448E-008  0.4614231E+02  0.7816164E-02  0.1320468E+00
        -11   -1    0    0    0    0  0.00000000000E+00  0.00000000000E+00  0.45593999997E+02  0.45594000000E+02  0.51100000000E-03 0. -1.
         11   -1    0    0    0    0 -0.00000000000E+00 -0.00000000000E+00 -0.45593999997E+02  0.45594000000E+02  0.51100000000E-03 0.  1.
    9900012    2    1    2    0    0  0.12026734712E+02 -0.35669611763E+02 -0.24741672539E+02  0.46142313068E+02  0.99999572033E+01 0.  0.
         12    1    1    2    0    0 -0.12026734712E+02  0.35669611763E+02  0.24741672539E+02  0.45045686932E+02  0.00000000000E+00 0. -1.
         11    1    3    3    0    0  0.88789227690E+00 -0.48131894148E+01 -0.30267173812E+01  0.57546644910E+01  0.51100000000E-03 0. -1.
        -11    1    3    3    0    0  0.98554107863E+00 -0.12585309282E+02 -0.11690447382E+02  0.17205460214E+02  0.51100000000E-03 0.  1.
         12    1    3    3    0    0  0.10153301357E+02 -0.18271113067E+02 -0.10024507775E+02  0.23182188362E+02  0.00000000000E+00 0. -1.
</event>
<event>
 7    1  0.2438448E-008  0.4614232E+02  0.7816164E-02  0.1320468E+00
        -11   -1    0    0    0    0  0.00000000000E+00  0.00000000000E+00  0.45593999997E+02  0.45594000000E+02  0.51100000000E-03 0. -1.
         11   -1    0    0    0    0 -0.00000000000E+00 -0.00000000000E+00 -0.45593999997E+02  0.45594000000E+02  0.51100000000E-03 0.  1.
    9900012    2    1    2    0    0 -0.62075064755E+01  0.18698367698E+02 -0.40508657849E+02  0.46142318166E+02  0.10000003689E+02 0.  0.
         12    1    1    2    0    0  0.62075064755E+01 -0.18698367698E+02  0.40508657849E+02  0.45045681834E+02  0.00000000000E+00 0. -1.
         11    1    3    3    0    0  0.12028583436E+01  0.53346424080E+01 -0.59894323990E+01  0.81103994069E+01  0.51100000000E-03 0. -1.
        -11    1    3    3    0    0 -0.38922376160E+01  0.67082767020E+01 -0.12003870861E+02  0.14291375227E+02  0.51100000000E-03 0.  1.
         12    1    3    3    0    0 -0.35181272031E+01  0.66554485878E+01 -0.22515354589E+02  0.23740543532E+02  0.00000000000E+00 0. -1.
</event>
<event>
 7    1  0.2438448E-008  0.4614232E+02  0.7816164E-02  0.1320468E+00
        -11   -1    0    0    0    0  0.00000000000E+00  0.00000000000E+00  0.45593999997E+02  0.45594000000E+02  0.51100000000E-03 0.  1.
         11   -1    0    0    0    0 -0.00000000000E+00 -0.00000000000E+00 -0.45593999997E+02  0.45594000000E+02  0.51100000000E-03 0. -1.
    9900012    2    1    2    0    0 -0.47452001797E+01 -0.17046646157E+02  0.41424732255E+02  0.46142317495E+02  0.99999975695E+01 0.  0.
         12    1    1    2    0    0  0.47452001797E+01  0.17046646157E+02 -0.41424732255E+02  0.45045682505E+02  0.00000000000E+00 0. -1.
         11    1    3    3    0    0 -0.26795098784E+01 -0.74297398270E+01  0.28299684916E+02  0.29381166990E+02  0.51100000000E-03 0. -1.
        -11    1    3    3    0    0  0.13936459585E+00 -0.31858575807E+00 -0.17076454258E+00  0.38740181458E+00  0.51100000000E-03 0.  1.
        -12    1    3    3    0    0 -0.22050548972E+01 -0.92983205724E+01  0.13295811882E+02  0.16373748690E+02  0.00000000000E+00 0.  1.
</event>
<event>
 7    1  0.2438448E-008  0.4614232E+02  0.7816164E-02  0.1320468E+00
        -11   -1    0    0    0    0  0.00000000000E+00  0.00000000000E+00  0.45593999997E+02  0.45594000000E+02  0.51100000000E-03 0.  1.
         11   -1    0    0    0    0 -0.00000000000E+00 -0.00000000000E+00 -0.45593999997E+02  0.45594000000E+02  0.51100000000E-03 0. -1.
    9900012    2    1    2    0    0  0.44937755171E+02 -0.18395521600E+01  0.25154777543E+01  0.46142318516E+02  0.10000006887E+02 0.  0.
         12    1    1    2    0    0 -0.44937755171E+02  0.18395521600E+01 -0.25154777543E+01  0.45045681484E+02  0.00000000000E+00 0. -1.
         11    1    3    3    0    0  0.97932518001E+01  0.15420513771E+01  0.13207953970E+01  0.10001510087E+02  0.51100000000E-03 0. -1.
        -11    1    3    3    0    0  0.30966594444E+02 -0.40136044822E+00  0.60499804416E+00  0.30975104270E+02  0.51100000000E-03 0.  1.
        -12    1    3    3    0    0  0.41779089274E+01 -0.29802430888E+01  0.58968431311E+00  0.51657041595E+01  0.00000000000E+00 0.  1.
</event>
<event>
 7    1  0.2438448E-008  0.4614232E+02  0.7816164E-02  0.1320468E+00
        -11   -1    0    0    0    0  0.00000000000E+00  0.00000000000E+00  0.45593999997E+02  0.45594000000E+02  0.51100000000E-03 0.  1.
         11   -1    0    0    0    0 -0.00000000000E+00 -0.00000000000E+00 -0.45593999997E+02  0.45594000000E+02  0.51100000000E-03 0. -1.
    9900012    2    1    2    0    0 -0.70956019562E+01 -0.44463383773E+02 -0.13317043074E+01  0.46142317632E+02  0.99999988194E+01 0.  0.
         12    1    1    2    0    0  0.70956019562E+01  0.44463383773E+02  0.13317043074E+01  0.45045682368E+02  0.00000000000E+00 0. -1.
         11    1    3    3    0    0  0.18146827035E+00 -0.12543946106E+02 -0.19601353743E+01  0.12697466109E+02  0.51100000000E-03 0. -1.
        -11    1    3    3    0    0 -0.56656214490E+00 -0.60850447201E+01 -0.24336176381E+01  0.65780891586E+01  0.51100000000E-03 0.  1.
         12    1    3    3    0    0 -0.67105080816E+01 -0.25834392947E+02  0.30620487050E+01  0.26866762364E+02  0.00000000000E+00 0. -1.
</event>
<event>
 7    1  0.2438448E-008  0.4614232E+02  0.7816164E-02  0.1320468E+00
        -11   -1    0    0    0    0  0.00000000000E+00  0.00000000000E+00  0.45593999997E+02  0.45594000000E+02  0.51100000000E-03 0. -1.
         11   -1    0    0    0    0 -0.00000000000E+00 -0.00000000000E+00 -0.45593999997E+02  0.45594000000E+02  0.51100000000E-03 0.  1.
    9900012    2    1    2    0    0 -0.10274241889E+02 -0.10900198668E+02 -0.42482220466E+02  0.46142318374E+02  0.10000005589E+02 0.  0.
         12    1    1    2    0    0  0.10274241889E+02  0.10900198668E+02  0.42482220466E+02  0.45045681626E+02  0.00000000000E+00 0. -1.
         11    1    3    3    0    0 -0.41727452471E+01 -0.65676111036E+00 -0.17514481751E+02  0.18016664767E+02  0.51100000000E-03 0. -1.
        -11    1    3    3    0    0 -0.33439424245E+01 -0.54357794903E+01 -0.18699393575E+02  0.19758465779E+02  0.51100000000E-03 0.  1.
         12    1    3    3    0    0 -0.27575542176E+01 -0.48076580673E+01 -0.62683451405E+01  0.83671878284E+01  0.00000000000E+00 0. -1.
</event>
<event>
 7    1  0.2438448E-008  0.4614232E+02  0.7816164E-02  0.1320468E+00
        -11   -1    0    0    0    0  0.00000000000E+00  0.00000000000E+00  0.45593999997E+02  0.45594000000E+02  0.51100000000E-03 0.  1.
         11   -1    0    0    0    0 -0.00000000000E+00 -0.00000000000E+00 -0.45593999997E+02  0.45594000000E+02  0.51100000000E-03 0. -1.
    9900012    2    1    2    0    0 -0.39675583740E+02 -0.74026851808E+01  0.20004043469E+02  0.46142318208E+02  0.10000004072E+02 0.  0.
         12    1    1    2    0    0  0.39675583740E+02  0.74026851808E+01 -0.20004043469E+02  0.45045681792E+02  0.00000000000E+00 0. -1.
         11    1    3    3    0    0  0.22570434872E+00 -0.10020462171E+01  0.26720451745E+00  0.10613376416E+01  0.51100000000E-03 0. -1.
        -11    1    3    3    0    0 -0.11068060460E+02 -0.27368389860E+01  0.44314216557E+01  0.12232323906E+02  0.51100000000E-03 0.  1.
         12    1    3    3    0    0 -0.28833227629E+02 -0.36637999778E+01  0.15305417296E+02  0.32848656660E+02  0.00000000000E+00 0. -1.
</event>
<event>
 7    1  0.2438448E-008  0.4614232E+02  0.7816164E-02  0.1320468E+00
        -11   -1    0    0    0    0  0.00000000000E+00  0.00000000000E+00  0.45593999997E+02  0.45594000000E+02  0.51100000000E-03 0.  1.
         11   -1    0    0    0    0 -0.00000000000E+00 -0.00000000000E+00 -0.45593999997E+02  0.45594000000E+02  0.51100000000E-03 0. -1.
    9900012    2    1    2    0    0 -0.27722799871E+02  0.35401942829E+02  0.26948610636E+01  0.46142318021E+02  0.10000002370E+02 0.  0.
         12    1    1    2    0    0  0.27722799871E+02 -0.35401942829E+02 -0.26948610636E+01  0.45045681979E+02  0.00000000000E+00 0. -1.
         11    1    3    3    0    0 -0.41340620453E+01  0.10474875548E+01 -0.38379780890E+00  0.42819388355E+01  0.51100000000E-03 0. -1.
        -11    1    3    3    0    0 -0.37777200215E+01  0.43673461940E+01  0.99640843079E+00  0.58598388512E+01  0.51100000000E-03 0.  1.
        -12    1    3    3    0    0 -0.19811017805E+02  0.29987109081E+02  0.20822504417E+01  0.36000540334E+02  0.00000000000E+00 0.  1.
</event>
<event>
 7    1  0.2438448E-008  0.4614232E+02  0.7816164E-02  0.1320468E+00
        -11   -1    0    0    0    0  0.00000000000E+00  0.00000000000E+00  0.45593999997E+02  0.45594000000E+02  0.51100000000E-03 0.  1.
         11   -1    0    0    0    0 -0.00000000000E+00 -0.00000000000E+00 -0.45593999997E+02  0.45594000000E+02  0.51100000000E-03 0. -1.
    9900012    2    1    2    0    0  0.18331406940E+02  0.14677083859E+02  0.38440293446E+02  0.46142318396E+02  0.10000005785E+02 0.  0.
         12    1    1    2    0    0 -0.18331406940E+02 -0.14677083859E+02 -0.38440293446E+02  0.45045681604E+02  0.00000000000E+00 0. -1.
         11    1    3    3    0    0  0.52781376458E+01  0.93699358197E+01  0.14182136213E+02  0.17798523032E+02  0.51100000000E-03 0. -1.
        -11    1    3    3    0    0  0.50832243125E+01  0.40989958095E+01  0.12232126516E+02  0.13865996373E+02  0.51100000000E-03 0.  1.
        -12    1    3    3    0    0  0.79700449813E+01  0.12081522298E+01  0.12026030717E+02  0.14477798991E+02  0.00000000000E+00 0.  1.
</event>
<event>
 7    1  0.2438448E-008  0.4614232E+02  0.7816164E-02  0.1320468E+00
        -11   -1    0    0    0    0  0.00000000000E+00  0.00000000000E+00  0.45593999997E+02  0.45594000000E+02  0.51100000000E-03 0.  1.
         11   -1    0    0    0    0 -0.00000000000E+00 -0.00000000000E+00 -0.45593999997E+02  0.45594000000E+02  0.51100000000E-03 0. -1.
    9900012    2    1    2    0    0 -0.33692709657E+01 -0.42896861510E+02  0.13327443067E+02  0.46142318154E+02  0.10000003587E+02 0.  0.
         12    1    1    2    0    0  0.33692709657E+01  0.42896861510E+02 -0.13327443067E+02  0.45045681846E+02  0.00000000000E+00 0. -1.
         11    1    3    3    0    0  0.14439245825E+00 -0.10287361359E+01  0.25220490241E+01  0.27276141150E+01  0.51100000000E-03 0. -1.
        -11    1    3    3    0    0 -0.11553712208E+01 -0.18255335753E+02  0.54672910345E+01  0.19091449333E+02  0.51100000000E-03 0.  1.
         12    1    3    3    0    0 -0.23582922032E+01 -0.23612789621E+02  0.53381030082E+01  0.24323254707E+02  0.00000000000E+00 0. -1.
</event>
<event>
 7    1  0.2438448E-008  0.4614232E+02  0.7816164E-02  0.1320468E+00
        -11   -1    0    0    0    0  0.00000000000E+00  0.00000000000E+00  0.45593999997E+02  0.45594000000E+02  0.51100000000E-03 0. -1.
         11   -1    0    0    0    0 -0.00000000000E+00 -0.00000000000E+00 -0.45593999997E+02  0.45594000000E+02  0.51100000000E-03 0.  1.
    9900012    2    1    2    0    0 -0.12920803854E+02  0.43144700579E+02 -0.83725253680E+00  0.46142319273E+02  0.10000013789E+02 0.  0.
         12    1    1    2    0    0  0.12920803854E+02 -0.43144700579E+02  0.83725253680E+00  0.45045680727E+02  0.00000000000E+00 0. -1.
         11    1    3    3    0    0 -0.85378593627E+01  0.30258944212E+02 -0.15276920995E+01  0.31477493400E+02  0.51100000000E-03 0. -1.
        -11    1    3    3    0    0 -0.24511981937E+01  0.99610166530E+01 -0.17329688888E+01  0.10403528573E+02  0.51100000000E-03 0.  1.
         12    1    3    3    0    0 -0.19317462981E+01  0.29247397142E+01  0.24234084516E+01  0.42612973000E+01  0.00000000000E+00 0. -1.
</event>
<event>
 7    1  0.2438448E-008  0.4614232E+02  0.7816164E-02  0.1320468E+00
        -11   -1    0    0    0    0  0.00000000000E+00  0.00000000000E+00  0.45593999997E+02  0.45594000000E+02  0.51100000000E-03 0.  1.
         11   -1    0    0    0    0 -0.00000000000E+00 -0.00000000000E+00 -0.45593999997E+02  0.45594000000E+02  0.51100000000E-03 0. -1.
    9900012    2    1    2    0    0  0.41632959960E+02 -0.14530152838E+02 -0.92024326858E+01  0.46142318033E+02  0.10000002479E+02 0.  0.
         12    1    1    2    0    0 -0.41632959960E+02  0.14530152838E+02  0.92024326858E+01  0.45045681967E+02  0.00000000000E+00 0. -1.
         11    1    3    3    0    0  0.18189275477E+02 -0.32746023951E+01 -0.93378139132E+00  0.18505261716E+02  0.51100000000E-03 0.  1.
        -11    1    3    3    0    0  0.23063102792E+01 -0.23108671321E+01 -0.20588848924E+01  0.38598162220E+01  0.51100000000E-03 0. -1.
        -12    1    3    3    0    0  0.21137374204E+02 -0.89446833110E+01 -0.62097664020E+01  0.23777240095E+02  0.00000000000E+00 0.  1.
</event>
<event>
 7    1  0.2438448E-008  0.4614232E+02  0.7816164E-02  0.1320468E+00
        -11   -1    0    0    0    0  0.00000000000E+00  0.00000000000E+00  0.45593999997E+02  0.45594000000E+02  0.51100000000E-03 0.  1.
         11   -1    0    0    0    0 -0.00000000000E+00 -0.00000000000E+00 -0.45593999997E+02  0.45594000000E+02  0.51100000000E-03 0. -1.
    9900012    2    1    2    0    0  0.38006204085E+02  0.24178016202E+02 -0.25598837731E+00  0.46142317116E+02  0.99999941211E+01 0.  0.
         12    1    1    2    0    0 -0.38006204085E+02 -0.24178016202E+02  0.25598837731E+00  0.45045682884E+02  0.00000000000E+00 0. -1.
         11    1    3    3    0    0  0.31189548262E+01  0.15198857390E+00 -0.57011949526E+00  0.31742741272E+01  0.51100000000E-03 0. -1.
        -11    1    3    3    0    0  0.27822291607E+02  0.16499825903E+02 -0.19292707249E+01  0.32404417151E+02  0.51100000000E-03 0.  1.
        -12    1    3    3    0    0  0.70649576515E+01  0.75262017248E+01  0.22434018429E+01  0.10563625838E+02  0.00000000000E+00 0.  1.
</event>
<event>
 7    1  0.2438448E-008  0.4614232E+02  0.7816164E-02  0.1320468E+00
        -11   -1    0    0    0    0  0.00000000000E+00  0.00000000000E+00  0.45593999997E+02  0.45594000000E+02  0.51100000000E-03 0.  1.
         11   -1    0    0    0    0 -0.00000000000E+00 -0.00000000000E+00 -0.45593999997E+02  0.45594000000E+02  0.51100000000E-03 0. -1.
    9900012    2    1    2    0    0 -0.13196351824E+02  0.31927515000E+02  0.28906805423E+02  0.46142319682E+02  0.10000017517E+02 0.  0.
         12    1    1    2    0    0  0.13196351824E+02 -0.31927515000E+02 -0.28906805423E+02  0.45045680318E+02  0.00000000000E+00 0. -1.
         11    1    3    3    0    0  0.53323239861E+00  0.45165876226E+01  0.61756804682E+01  0.76696108148E+01  0.51100000000E-03 0. -1.
        -11    1    3    3    0    0 -0.14076130197E+02  0.25831175372E+02  0.21691387302E+02  0.36550011570E+02  0.51100000000E-03 0.  1.
        -12    1    3    3    0    0  0.34654597433E+00  0.15797520049E+01  0.10397376531E+01  0.19226972972E+01  0.00000000000E+00 0.  1.
</event>
<event>
 7    1  0.2438448E-008  0.4614231E+02  0.7816164E-02  0.1320468E+00
        -11   -1    0    0    0    0  0.00000000000E+00  0.00000000000E+00  0.45593999997E+02  0.45594000000E+02  0.51100000000E-03 0.  1.
         11   -1    0    0    0    0 -0.00000000000E+00 -0.00000000000E+00 -0.45593999997E+02  0.45594000000E+02  0.51100000000E-03 0. -1.
    9900012    2    1    2    0    0  0.33419370924E+02 -0.18985083670E+02  0.23490980651E+02  0.46142312894E+02  0.99999556192E+01 0.  0.
         12    1    1    2    0    0 -0.33419370924E+02  0.18985083670E+02 -0.23490980651E+02  0.45045687106E+02  0.00000000000E+00 0. -1.
         11    1    3    3    0    0  0.14143966742E+02 -0.78974285094E+01  0.12700187688E+02  0.20584361536E+02  0.51100000000E-03 0. -1.
        -11    1    3    3    0    0  0.10140586217E+02 -0.23865565456E+01  0.62577434503E+01  0.12152633226E+02  0.51100000000E-03 0.  1.
         12    1    3    3    0    0  0.91348179645E+01 -0.87010986149E+01  0.45330495131E+01  0.13405318133E+02  0.00000000000E+00 0. -1.
</event>
<event>
 7    1  0.2438448E-008  0.4614232E+02  0.7816164E-02  0.1320468E+00
        -11   -1    0    0    0    0  0.00000000000E+00  0.00000000000E+00  0.45593999997E+02  0.45594000000E+02  0.51100000000E-03 0.  1.
         11   -1    0    0    0    0 -0.00000000000E+00 -0.00000000000E+00 -0.45593999997E+02  0.45594000000E+02  0.51100000000E-03 0. -1.
    9900012    2    1    2    0    0 -0.15941259906E+02 -0.26817080811E+01  0.42045192053E+02  0.46142317628E+02  0.99999987829E+01 0.  0.
         12    1    1    2    0    0  0.15941259906E+02  0.26817080811E+01 -0.42045192053E+02  0.45045682372E+02  0.00000000000E+00 0. -1.
         11    1    3    3    0    0 -0.47695353521E+01  0.13500516747E+01  0.62880430617E+01  0.80069090670E+01  0.51100000000E-03 0. -1.
        -11    1    3    3    0    0 -0.11354120176E+02 -0.24244539432E+01  0.32151616521E+02  0.34183628641E+02  0.51100000000E-03 0.  1.
        -12    1    3    3    0    0  0.18239562254E+00 -0.16073058126E+01  0.36055324707E+01  0.39517799200E+01  0.00000000000E+00 0.  1.
</event>
<event>
 7    1  0.2438448E-008  0.4614232E+02  0.7816164E-02  0.1320468E+00
        -11   -1    0    0    0    0  0.00000000000E+00  0.00000000000E+00  0.45593999997E+02  0.45594000000E+02  0.51100000000E-03 0. -1.
         11   -1    0    0    0    0 -0.00000000000E+00 -0.00000000000E+00 -0.45593999997E+02  0.45594000000E+02  0.51100000000E-03 0.  1.
    9900012    2    1    2    0    0  0.39008695007E+02  0.22350026398E+02  0.28127404997E+01  0.46142317907E+02  0.10000001329E+02 0.  0.
         12    1    1    2    0    0 -0.39008695007E+02 -0.22350026398E+02 -0.28127404997E+01  0.45045682093E+02  0.00000000000E+00 0. -1.
         11    1    3    3    0    0  0.84470190150E+00  0.15849951493E+01 -0.14278590327E+01  0.22944525718E+01  0.51100000000E-03 0. -1.
        -11    1    3    3    0    0  0.16351404791E+02  0.83533126392E+01 -0.19346150907E+00  0.18362562411E+02  0.51100000000E-03 0.  1.
         12    1    3    3    0    0  0.21812588315E+02  0.12411718609E+02  0.44340610415E+01  0.25485302924E+02  0.00000000000E+00 0. -1.
</event>
<event>
 7    1  0.2438448E-008  0.4614232E+02  0.7816164E-02  0.1320468E+00
        -11   -1    0    0    0    0  0.00000000000E+00  0.00000000000E+00  0.45593999997E+02  0.45594000000E+02  0.51100000000E-03 0. -1.
         11   -1    0    0    0    0 -0.00000000000E+00 -0.00000000000E+00 -0.45593999997E+02  0.45594000000E+02  0.51100000000E-03 0.  1.
    9900012    2    1    2    0    0  0.12268461129E+01  0.44921928649E+02  0.31030036786E+01  0.46142318112E+02  0.10000003198E+02 0.  0.
         12    1    1    2    0    0 -0.12268461129E+01 -0.44921928649E+02 -0.31030036786E+01  0.45045681888E+02  0.00000000000E+00 0. -1.
         11    1    3    3    0    0  0.18789306915E+01  0.39489403590E+01  0.70671020077E+00  0.44298927833E+01  0.51100000000E-03 0. -1.
        -11    1    3    3    0    0  0.52690761213E+00  0.25108159807E+02 -0.20413299172E+01  0.25196514613E+02  0.51100000000E-03 0.  1.
        -12    1    3    3    0    0 -0.11789921908E+01  0.15864828483E+02  0.44376233951E+01  0.16515910716E+02  0.00000000000E+00 0.  1.
</event>
<event>
 7    1  0.2438448E-008  0.4614232E+02  0.7816164E-02  0.1320468E+00
        -11   -1    0    0    0    0  0.00000000000E+00  0.00000000000E+00  0.45593999997E+02  0.45594000000E+02  0.51100000000E-03 0. -1.
         11   -1    0    0    0    0 -0.00000000000E+00 -0.00000000000E+00 -0.45593999997E+02  0.45594000000E+02  0.51100000000E-03 0.  1.
    9900012    2    1    2    0    0  0.21421435588E+02 -0.39359599909E+02 -0.45888351465E+01  0.46142318569E+02  0.10000007363E+02 0.  0.
         12    1    1    2    0    0 -0.21421435588E+02  0.39359599909E+02  0.45888351465E+01  0.45045681431E+02  0.00000000000E+00 0. -1.
         11    1    3    3    0    0  0.62684804475E+01 -0.73484537739E+01 -0.55257139264E+00  0.96746553114E+01  0.51100000000E-03 0.  1.
        -11    1    3    3    0    0  0.30371552931E+01 -0.65815845229E+01 -0.40419351022E+01  0.82993256797E+01  0.51100000000E-03 0. -1.
         12    1    3    3    0    0  0.12115799848E+02 -0.25429561612E+02  0.56713483353E-02  0.28168337577E+02  0.00000000000E+00 0. -1.
</event>
<event>
 7    1  0.2438448E-008  0.4614232E+02  0.7816164E-02  0.1320468E+00
        -11   -1    0    0    0    0  0.00000000000E+00  0.00000000000E+00  0.45593999997E+02  0.45594000000E+02  0.51100000000E-03 0. -1.
         11   -1    0    0    0    0 -0.00000000000E+00 -0.00000000000E+00 -0.45593999997E+02  0.45594000000E+02  0.51100000000E-03 0.  1.
    9900012    2    1    2    0    0  0.23698791078E+02 -0.18554647245E+02 -0.33514262814E+02  0.46142318243E+02  0.10000004398E+02 0.  0.
         12    1    1    2    0    0 -0.23698791078E+02  0.18554647245E+02  0.33514262814E+02  0.45045681757E+02  0.00000000000E+00 0. -1.
         11    1    3    3    0    0  0.75120036638E+01 -0.42120589344E+01 -0.85003255898E+01  0.12100709686E+02  0.51100000000E-03 0. -1.
        -11    1    3    3    0    0  0.87776314459E+01 -0.12447018178E+02 -0.14407504241E+02  0.20965477673E+02  0.51100000000E-03 0.  1.
         12    1    3    3    0    0  0.74091559685E+01 -0.18955701324E+01 -0.10606432983E+02  0.13076130885E+02  0.00000000000E+00 0. -1.
</event>
<event>
 7    1  0.2438448E-008  0.4614232E+02  0.7816164E-02  0.1320468E+00
        -11   -1    0    0    0    0  0.00000000000E+00  0.00000000000E+00  0.45593999997E+02  0.45594000000E+02  0.51100000000E-03 0.  1.
         11   -1    0    0    0    0 -0.00000000000E+00 -0.00000000000E+00 -0.45593999997E+02  0.45594000000E+02  0.51100000000E-03 0. -1.
    9900012    2    1    2    0    0 -0.74099425716E+01 -0.55605172921E+01  0.44082726832E+02  0.46142318670E+02  0.10000008291E+02 0.  0.
         12    1    1    2    0    0  0.74099425716E+01  0.55605172921E+01 -0.44082726832E+02  0.45045681330E+02  0.00000000000E+00 0. -1.
         11    1    3    3    0    0 -0.17999574898E+01  0.31162353398E+00  0.33217707177E+01  0.37909256329E+01  0.51100000000E-03 0. -1.
        -11    1    3    3    0    0  0.14573418621E+01  0.38545381785E+00  0.23073522486E+01  0.27561376252E+01  0.51100000000E-03 0.  1.
        -12    1    3    3    0    0 -0.70673269439E+01 -0.62575946440E+01  0.38453603866E+02  0.39595255412E+02  0.00000000000E+00 0.  1.
</event>
<event>
 7    1  0.2438448E-008  0.4614232E+02  0.7816164E-02  0.1320468E+00
        -11   -1    0    0    0    0  0.00000000000E+00  0.00000000000E+00  0.45593999997E+02  0.45594000000E+02  0.51100000000E-03 0.  1.
         11   -1    0    0    0    0 -0.00000000000E+00 -0.00000000000E+00 -0.45593999997E+02  0.45594000000E+02  0.51100000000E-03 0. -1.
    9900012    2    1    2    0    0  0.21130315694E+02 -0.23347448959E+02  0.32210555443E+02  0.46142317675E+02  0.99999992105E+01 0.  0.
         12    1    1    2    0    0 -0.21130315694E+02  0.23347448959E+02 -0.32210555443E+02  0.45045682325E+02  0.00000000000E+00 0. -1.
         11    1    3    3    0    0  0.82404545611E+00 -0.21631168328E+01  0.21093819540E+00  0.23243537875E+01  0.51100000000E-03 0. -1.
        -11    1    3    3    0    0  0.89676512549E+01 -0.76540938784E+01  0.16791998241E+02  0.20517678409E+02  0.51100000000E-03 0.  1.
        -12    1    3    3    0    0  0.11338618983E+02 -0.13530238248E+02  0.15207619006E+02  0.23300285478E+02  0.00000000000E+00 0.  1.
</event>
<event>
 7    1  0.2438448E-008  0.4614232E+02  0.7816164E-02  0.1320468E+00
        -11   -1    0    0    0    0  0.00000000000E+00  0.00000000000E+00  0.45593999997E+02  0.45594000000E+02  0.51100000000E-03 0.  1.
         11   -1    0    0    0    0 -0.00000000000E+00 -0.00000000000E+00 -0.45593999997E+02  0.45594000000E+02  0.51100000000E-03 0. -1.
    9900012    2    1    2    0    0  0.17185400452E+02 -0.78527661658E+01  0.40891434008E+02  0.46142319848E+02  0.10000019030E+02 0.  0.
         12    1    1    2    0    0 -0.17185400452E+02  0.78527661658E+01 -0.40891434008E+02  0.45045680152E+02  0.00000000000E+00 0. -1.
         11    1    3    3    0    0  0.15389866592E+01 -0.14771047397E+01  0.60640757573E+00  0.22176674138E+01  0.51100000000E-03 0. -1.
        -11    1    3    3    0    0  0.10910205531E+02 -0.26621133585E+01  0.22463351315E+02  0.25114170996E+02  0.51100000000E-03 0.  1.
         12    1    3    3    0    0  0.47362082611E+01 -0.37135480676E+01  0.17821675117E+02  0.18810481438E+02  0.00000000000E+00 0. -1.
</event>
<event>
 7    1  0.2438448E-008  0.4614232E+02  0.7816164E-02  0.1320468E+00
        -11   -1    0    0    0    0  0.00000000000E+00  0.00000000000E+00  0.45593999997E+02  0.45594000000E+02  0.51100000000E-03 0.  1.
         11   -1    0    0    0    0 -0.00000000000E+00 -0.00000000000E+00 -0.45593999997E+02  0.45594000000E+02  0.51100000000E-03 0. -1.
    9900012    2    1    2    0    0 -0.21807523053E+02 -0.38003976249E+02 -0.10451956242E+02  0.46142315837E+02  0.99999824547E+01 0.  0.
         12    1    1    2    0    0  0.21807523053E+02  0.38003976249E+02  0.10451956242E+02  0.45045684163E+02  0.00000000000E+00 0. -1.
         11    1    3    3    0    0 -0.62408172533E+01 -0.11122541724E+02 -0.19910303631E+01  0.12908250717E+02  0.51100000000E-03 0. -1.
        -11    1    3    3    0    0 -0.44363677106E+01 -0.24431625190E+01 -0.28115666932E+01  0.57926944584E+01  0.51100000000E-03 0.  1.
         12    1    3    3    0    0 -0.11130338089E+02 -0.24438272005E+02 -0.56493591852E+01  0.27441370662E+02  0.00000000000E+00 0. -1.
</event>
<event>
 7    1  0.2438448E-008  0.4614232E+02  0.7816164E-02  0.1320468E+00
        -11   -1    0    0    0    0  0.00000000000E+00  0.00000000000E+00  0.45593999997E+02  0.45594000000E+02  0.51100000000E-03 0. -1.
         11   -1    0    0    0    0 -0.00000000000E+00 -0.00000000000E+00 -0.45593999997E+02  0.45594000000E+02  0.51100000000E-03 0.  1.
    9900012    2    1    2    0    0 -0.23233224938E+02 -0.37703197476E+02 -0.82340492825E+01  0.46142318647E+02  0.10000008077E+02 0.  0.
         12    1    1    2    0    0  0.23233224938E+02  0.37703197476E+02  0.82340492825E+01  0.45045681353E+02  0.00000000000E+00 0. -1.
         11    1    3    3    0    0 -0.42556330388E+01 -0.78313314207E+01 -0.16709246221E+00  0.89144873399E+01  0.51100000000E-03 0. -1.
        -11    1    3    3    0    0 -0.12519366867E+02 -0.19886247923E+02 -0.92994600952E+01  0.25272066823E+02  0.51100000000E-03 0.  1.
        -12    1    3    3    0    0 -0.64582250320E+01 -0.99856181333E+01  0.12325032749E+01  0.11955764484E+02  0.00000000000E+00 0.  1.
</event>
<event>
 7    1  0.2438448E-008  0.4614232E+02  0.7816164E-02  0.1320468E+00
        -11   -1    0    0    0    0  0.00000000000E+00  0.00000000000E+00  0.45593999997E+02  0.45594000000E+02  0.51100000000E-03 0.  1.
         11   -1    0    0    0    0 -0.00000000000E+00 -0.00000000000E+00 -0.45593999997E+02  0.45594000000E+02  0.51100000000E-03 0. -1.
    9900012    2    1    2    0    0  0.18177469925E+02  0.82441815840E+01  0.40382256347E+02  0.46142316849E+02  0.99999916852E+01 0.  0.
         12    1    1    2    0    0 -0.18177469925E+02 -0.82441815840E+01 -0.40382256347E+02  0.45045683151E+02  0.00000000000E+00 0. -1.
         11    1    3    3    0    0  0.54127900057E+00  0.21585062143E+01  0.32022136946E+01  0.38995262328E+01  0.51100000000E-03 0. -1.
        -11    1    3    3    0    0  0.13002339463E+02  0.75691410054E+01  0.25799851702E+02  0.29866119185E+02  0.51100000000E-03 0.  1.
        -12    1    3    3    0    0  0.46338514613E+01 -0.14834656357E+01  0.11380190950E+02  0.12376671431E+02  0.00000000000E+00 0.  1.
</event>
<event>
 7    1  0.2438448E-008  0.4614232E+02  0.7816164E-02  0.1320468E+00
        -11   -1    0    0    0    0  0.00000000000E+00  0.00000000000E+00  0.45593999997E+02  0.45594000000E+02  0.51100000000E-03 0.  1.
         11   -1    0    0    0    0 -0.00000000000E+00 -0.00000000000E+00 -0.45593999997E+02  0.45594000000E+02  0.51100000000E-03 0. -1.
    9900012    2    1    2    0    0 -0.37244650108E+02 -0.35099035591E+01  0.25092430142E+02  0.46142318353E+02  0.10000005396E+02 0.  0.
         12    1    1    2    0    0  0.37244650108E+02  0.35099035591E+01 -0.25092430142E+02  0.45045681647E+02  0.00000000000E+00 0. -1.
         11    1    3    3    0    0 -0.14363355314E+02 -0.28842912158E+01  0.96566869973E+01  0.17546416037E+02  0.51100000000E-03 0. -1.
        -11    1    3    3    0    0 -0.50676327572E+01  0.25960422567E+01  0.56333537236E+01  0.80096823655E+01  0.51100000000E-03 0.  1.
        -12    1    3    3    0    0 -0.17813662036E+02 -0.32216545999E+01  0.98023894209E+01  0.20586219951E+02  0.00000000000E+00 0.  1.
</event>
<event>
 7    1  0.2438448E-008  0.4614232E+02  0.7816164E-02  0.1320468E+00
        -11   -1    0    0    0    0  0.00000000000E+00  0.00000000000E+00  0.45593999997E+02  0.45594000000E+02  0.51100000000E-03 0.  1.
         11   -1    0    0    0    0 -0.00000000000E+00 -0.00000000000E+00 -0.45593999997E+02  0.45594000000E+02  0.51100000000E-03 0. -1.
    9900012    2    1    2    0    0 -0.36877724087E+02 -0.14328938847E+02  0.21536678491E+02  0.46142317157E+02  0.99999944955E+01 0.  0.
         12    1    1    2    0    0  0.36877724087E+02  0.14328938847E+02 -0.21536678491E+02  0.45045682843E+02  0.00000000000E+00 0. -1.
         11    1    3    3    0    0 -0.13321183076E+02 -0.46861214689E+01  0.33358345692E+01  0.14510046364E+02  0.51100000000E-03 0. -1.
        -11    1    3    3    0    0 -0.80886101753E+01 -0.37889260663E+01  0.91167430697E+01  0.12763094443E+02  0.51100000000E-03 0.  1.
         12    1    3    3    0    0 -0.15467930836E+02 -0.58538913118E+01  0.90841008517E+01  0.18869176350E+02  0.00000000000E+00 0. -1.
</event>
<event>
 7    1  0.2438448E-008  0.4614232E+02  0.7816164E-02  0.1320468E+00
        -11   -1    0    0    0    0  0.00000000000E+00  0.00000000000E+00  0.45593999997E+02  0.45594000000E+02  0.51100000000E-03 0. -1.
         11   -1    0    0    0    0 -0.00000000000E+00 -0.00000000000E+00 -0.45593999997E+02  0.45594000000E+02  0.51100000000E-03 0.  1.
    9900012    2    1    2    0    0  0.33994333067E+02  0.29411700095E+02  0.29070087419E+01  0.46142317821E+02  0.10000000547E+02 0.  0.
         12    1    1    2    0    0 -0.33994333067E+02 -0.29411700095E+02 -0.29070087419E+01  0.45045682179E+02  0.00000000000E+00 0. -1.
         11    1    3    3    0    0  0.47701033685E+01  0.11363604598E+01 -0.13987964093E+01  0.50991992407E+01  0.51100000000E-03 0. -1.
        -11    1    3    3    0    0  0.16505860303E+02  0.18344262395E+02  0.28553540698E+01  0.24841667301E+02  0.51100000000E-03 0.  1.
        -12    1    3    3    0    0  0.12718369395E+02  0.99310772399E+01  0.14504510813E+01  0.16201451280E+02  0.00000000000E+00 0.  1.
</event>
<event>
 7    1  0.2438448E-008  0.4614232E+02  0.7816164E-02  0.1320468E+00
        -11   -1    0    0    0    0  0.00000000000E+00  0.00000000000E+00  0.45593999997E+02  0.45594000000E+02  0.51100000000E-03 0.  1.
         11   -1    0    0    0    0 -0.00000000000E+00 -0.00000000000E+00 -0.45593999997E+02  0.45594000000E+02  0.51100000000E-03 0. -1.
    9900012    2    1    2    0    0  0.24796483388E+02 -0.16934180767E+02  0.33577989989E+02  0.46142317872E+02  0.10000001014E+02 0.  0.
         12    1    1    2    0    0 -0.24796483388E+02  0.16934180767E+02 -0.33577989989E+02  0.45045682128E+02  0.00000000000E+00 0. -1.
         11    1    3    3    0    0  0.57997388354E+01 -0.29681873818E+01  0.11658382727E+02  0.13355335824E+02  0.51100000000E-03 0. -1.
        -11    1    3    3    0    0  0.59572539967E+01 -0.71645089542E+01  0.11303851558E+02  0.14649099769E+02  0.51100000000E-03 0.  1.
        -12    1    3    3    0    0  0.13039490556E+02 -0.68014844305E+01  0.10615755703E+02  0.18137882279E+02  0.00000000000E+00 0.  1.
</event>
<event>
 7    1  0.2438448E-008  0.4614232E+02  0.7816164E-02  0.1320468E+00
        -11   -1    0    0    0    0  0.00000000000E+00  0.00000000000E+00  0.45593999997E+02  0.45594000000E+02  0.51100000000E-03 0. -1.
         11   -1    0    0    0    0 -0.00000000000E+00 -0.00000000000E+00 -0.45593999997E+02  0.45594000000E+02  0.51100000000E-03 0.  1.
    9900012    2    1    2    0    0 -0.23052251920E+02  0.57438541756E+01 -0.38271598929E+02  0.46142318032E+02  0.10000002473E+02 0.  0.
         12    1    1    2    0    0  0.23052251920E+02 -0.57438541756E+01  0.38271598929E+02  0.45045681968E+02  0.00000000000E+00 0. -1.
         11    1    3    3    0    0 -0.12048553168E+02  0.17162155828E+01 -0.23307633801E+02  0.26293703106E+02  0.51100000000E-03 0. -1.
        -11    1    3    3    0    0 -0.11054484234E+02  0.39592942347E+01 -0.15421631910E+02  0.19383094788E+02  0.51100000000E-03 0.  1.
         12    1    3    3    0    0  0.50785482552E-01  0.68344358132E-01  0.45766678167E+00  0.46552013874E+00  0.00000000000E+00 0. -1.
</event>
<event>
 7    1  0.2438448E-008  0.4614232E+02  0.7816164E-02  0.1320468E+00
        -11   -1    0    0    0    0  0.00000000000E+00  0.00000000000E+00  0.45593999997E+02  0.45594000000E+02  0.51100000000E-03 0. -1.
         11   -1    0    0    0    0 -0.00000000000E+00 -0.00000000000E+00 -0.45593999997E+02  0.45594000000E+02  0.51100000000E-03 0.  1.
    9900012    2    1    2    0    0 -0.29447418927E+02 -0.22986844862E+02 -0.25170775373E+02  0.46142318176E+02  0.10000003780E+02 0.  0.
         12    1    1    2    0    0  0.29447418927E+02  0.22986844862E+02  0.25170775373E+02  0.45045681824E+02  0.00000000000E+00 0. -1.
         11    1    3    3    0    0 -0.11792829842E+02 -0.45480983616E+01 -0.56412293965E+01  0.13841224792E+02  0.51100000000E-03 0. -1.
        -11    1    3    3    0    0 -0.47232113263E+01 -0.70509838567E+01 -0.60046569147E+01  0.10396201398E+02  0.51100000000E-03 0.  1.
         12    1    3    3    0    0 -0.12931377759E+02 -0.11387762643E+02 -0.13524889061E+02  0.21904891985E+02  0.00000000000E+00 0. -1.
</event>
<event>
 7    1  0.2438448E-008  0.4614231E+02  0.7816164E-02  0.1320468E+00
        -11   -1    0    0    0    0  0.00000000000E+00  0.00000000000E+00  0.45593999997E+02  0.45594000000E+02  0.51100000000E-03 0.  1.
         11   -1    0    0    0    0 -0.00000000000E+00 -0.00000000000E+00 -0.45593999997E+02  0.45594000000E+02  0.51100000000E-03 0. -1.
    9900012    2    1    2    0    0  0.16883429366E+02  0.16752228699E+02  0.38254759973E+02  0.46142311925E+02  0.99999467839E+01 0.  0.
         12    1    1    2    0    0 -0.16883429366E+02 -0.16752228699E+02 -0.38254759973E+02  0.45045688075E+02  0.00000000000E+00 0. -1.
         11    1    3    3    0    0  0.11065546057E+02  0.46133305372E+01  0.18578803203E+02  0.22111107094E+02  0.51100000000E-03 0. -1.
        -11    1    3    3    0    0  0.36444787733E+01  0.49981486743E+01  0.71943723935E+01  0.94880298322E+01  0.51100000000E-03 0.  1.
         12    1    3    3    0    0  0.21734045356E+01  0.71407494877E+01  0.12481584376E+02  0.14543174999E+02  0.00000000000E+00 0. -1.
</event>
<event>
 7    1  0.2438448E-008  0.4614231E+02  0.7816164E-02  0.1320468E+00
        -11   -1    0    0    0    0  0.00000000000E+00  0.00000000000E+00  0.45593999997E+02  0.45594000000E+02  0.51100000000E-03 0.  1.
         11   -1    0    0    0    0 -0.00000000000E+00 -0.00000000000E+00 -0.45593999997E+02  0.45594000000E+02  0.51100000000E-03 0. -1.
    9900012    2    1    2    0    0 -0.73855452479E+01 -0.25038487497E+00  0.44435401211E+02  0.46142313725E+02  0.99999631929E+01 0.  0.
         12    1    1    2    0    0  0.73855452479E+01  0.25038487497E+00 -0.44435401211E+02  0.45045686275E+02  0.00000000000E+00 0. -1.
         11    1    3    3    0    0  0.68341740623E+00  0.98041210514E+00  0.84083910312E+01  0.84928974586E+01  0.51100000000E-03 0. -1.
        -11    1    3    3    0    0 -0.87668857254E+00  0.59490528658E+00  0.22059645389E+00  0.10822006329E+01  0.51100000000E-03 0.  1.
        -12    1    3    3    0    0 -0.71922740816E+01 -0.18257022667E+01  0.35806413726E+02  0.36567215633E+02  0.00000000000E+00 0.  1.
</event>
<event>
 7    1  0.2438448E-008  0.4614232E+02  0.7816164E-02  0.1320468E+00
        -11   -1    0    0    0    0  0.00000000000E+00  0.00000000000E+00  0.45593999997E+02  0.45594000000E+02  0.51100000000E-03 0.  1.
         11   -1    0    0    0    0 -0.00000000000E+00 -0.00000000000E+00 -0.45593999997E+02  0.45594000000E+02  0.51100000000E-03 0. -1.
    9900012    2    1    2    0    0  0.60715084780E+01  0.33642218198E+02  0.29333453790E+02  0.46142316835E+02  0.99999915595E+01 0.  0.
         12    1    1    2    0    0 -0.60715084780E+01 -0.33642218198E+02 -0.29333453790E+02  0.45045683165E+02  0.00000000000E+00 0. -1.
         11    1    3    3    0    0 -0.18687717206E+01  0.42787611070E+01  0.64973118194E+01  0.80009477872E+01  0.51100000000E-03 0. -1.
        -11    1    3    3    0    0  0.20762065872E+01  0.13035211574E+02  0.99950741848E+01  0.16556837947E+02  0.51100000000E-03 0.  1.
         12    1    3    3    0    0  0.58640736115E+01  0.16328245517E+02  0.12841067786E+02  0.21584531101E+02  0.00000000000E+00 0. -1.
</event>
<event>
 7    1  0.2438448E-008  0.4614232E+02  0.7816164E-02  0.1320468E+00
        -11   -1    0    0    0    0  0.00000000000E+00  0.00000000000E+00  0.45593999997E+02  0.45594000000E+02  0.51100000000E-03 0.  1.
         11   -1    0    0    0    0 -0.00000000000E+00 -0.00000000000E+00 -0.45593999997E+02  0.45594000000E+02  0.51100000000E-03 0. -1.
    9900012    2    1    2    0    0 -0.20931082386E+02  0.19672869839E+02  0.34698436650E+02  0.46142317371E+02  0.99999964408E+01 0.  0.
         12    1    1    2    0    0  0.20931082386E+02 -0.19672869839E+02 -0.34698436650E+02  0.45045682629E+02  0.00000000000E+00 0. -1.
         11    1    3    3    0    0 -0.29538837924E+01  0.45251366472E+01  0.45519170983E+01  0.70655672572E+01  0.51100000000E-03 0. -1.
        -11    1    3    3    0    0 -0.14315669742E+02  0.11355863009E+02  0.17184296542E+02  0.25083741203E+02  0.51100000000E-03 0.  1.
        -12    1    3    3    0    0 -0.36615288524E+01  0.37918701827E+01  0.12962223010E+02  0.13993008911E+02  0.00000000000E+00 0.  1.
</event>
<event>
 7    1  0.2438448E-008  0.4614232E+02  0.7816164E-02  0.1320468E+00
        -11   -1    0    0    0    0  0.00000000000E+00  0.00000000000E+00  0.45593999997E+02  0.45594000000E+02  0.51100000000E-03 0.  1.
         11   -1    0    0    0    0 -0.00000000000E+00 -0.00000000000E+00 -0.45593999997E+02  0.45594000000E+02  0.51100000000E-03 0. -1.
    9900012    2    1    2    0    0  0.19042961549E+02  0.87114926196E+01  0.39882188528E+02  0.46142318187E+02  0.10000003881E+02 0.  0.
         12    1    1    2    0    0 -0.19042961549E+02 -0.87114926196E+01 -0.39882188528E+02  0.45045681813E+02  0.00000000000E+00 0. -1.
         11    1    3    3    0    0  0.36853754350E+01  0.64491464358E+01  0.12508142486E+02  0.14547409067E+02  0.51100000000E-03 0. -1.
        -11    1    3    3    0    0  0.11971717997E+01  0.98403763688E-01  0.92602941468E+00  0.15167182852E+01  0.51100000000E-03 0.  1.
        -12    1    3    3    0    0  0.14160414315E+02  0.21639424201E+01  0.26448016627E+02  0.30078190834E+02  0.00000000000E+00 0.  1.
</event>
<event>
 7    1  0.2438448E-008  0.4614232E+02  0.7816164E-02  0.1320468E+00
        -11   -1    0    0    0    0  0.00000000000E+00  0.00000000000E+00  0.45593999997E+02  0.45594000000E+02  0.51100000000E-03 0.  1.
         11   -1    0    0    0    0 -0.00000000000E+00 -0.00000000000E+00 -0.45593999997E+02  0.45594000000E+02  0.51100000000E-03 0. -1.
    9900012    2    1    2    0    0  0.25516532350E+02 -0.48612650721E+00  0.37118512339E+02  0.46142315407E+02  0.99999785371E+01 0.  0.
         12    1    1    2    0    0 -0.25516532350E+02  0.48612650721E+00 -0.37118512339E+02  0.45045684593E+02  0.00000000000E+00 0. -1.
         11    1    3    3    0    0  0.53863740031E+00  0.63714038139E-01 -0.46040777930E+00  0.71145295841E+00  0.51100000000E-03 0. -1.
        -11    1    3    3    0    0  0.16249060990E+02  0.14019755912E+01  0.20959953059E+02  0.26557807724E+02  0.51100000000E-03 0.  1.
         12    1    3    3    0    0  0.87288339595E+01 -0.19518161366E+01  0.16618967059E+02  0.18873054725E+02  0.00000000000E+00 0. -1.
</event>
<event>
 7    1  0.2438448E-008  0.4614232E+02  0.7816164E-02  0.1320468E+00
        -11   -1    0    0    0    0  0.00000000000E+00  0.00000000000E+00  0.45593999997E+02  0.45594000000E+02  0.51100000000E-03 0.  1.
         11   -1    0    0    0    0 -0.00000000000E+00 -0.00000000000E+00 -0.45593999997E+02  0.45594000000E+02  0.51100000000E-03 0. -1.
    9900012    2    1    2    0    0  0.14389408532E+02 -0.38010239976E+02  0.19423699378E+02  0.46142317427E+02  0.99999969497E+01 0.  0.
         12    1    1    2    0    0 -0.14389408532E+02  0.38010239976E+02 -0.19423699378E+02  0.45045682573E+02  0.00000000000E+00 0. -1.
         11    1    3    3    0    0  0.76496290174E+01 -0.16460241784E+02  0.41815439224E+01  0.18626370917E+02  0.51100000000E-03 0. -1.
        -11    1    3    3    0    0  0.33244737965E+01 -0.16107688953E+02  0.11645380286E+02  0.20152534622E+02  0.51100000000E-03 0.  1.
         12    1    3    3    0    0  0.34153057180E+01 -0.54423092395E+01  0.35967751698E+01  0.73634118877E+01  0.00000000000E+00 0. -1.
</event>
<event>
 7    1  0.2438448E-008  0.4614232E+02  0.7816164E-02  0.1320468E+00
        -11   -1    0    0    0    0  0.00000000000E+00  0.00000000000E+00  0.45593999997E+02  0.45594000000E+02  0.51100000000E-03 0. -1.
         11   -1    0    0    0    0 -0.00000000000E+00 -0.00000000000E+00 -0.45593999997E+02  0.45594000000E+02  0.51100000000E-03 0.  1.
    9900012    2    1    2    0    0  0.40893240450E+02  0.17895143111E+02 -0.60514568981E+01  0.46142318831E+02  0.10000009754E+02 0.  0.
         12    1    1    2    0    0 -0.40893240450E+02 -0.17895143111E+02  0.60514568981E+01  0.45045681169E+02  0.00000000000E+00 0. -1.
         11    1    3    3    0    0  0.12846993240E+02  0.36891993020E+01 -0.10531681004E+01  0.13407631786E+02  0.51100000000E-03 0. -1.
        -11    1    3    3    0    0  0.19647183541E+02  0.68131451959E+01 -0.55793130021E+01  0.21530432006E+02  0.51100000000E-03 0.  1.
         12    1    3    3    0    0  0.83990636688E+01  0.73927986127E+01  0.58102420440E+00  0.11204255038E+02  0.00000000000E+00 0. -1.
</event>
<event>
 7    1  0.2438448E-008  0.4614232E+02  0.7816164E-02  0.1320468E+00
        -11   -1    0    0    0    0  0.00000000000E+00  0.00000000000E+00  0.45593999997E+02  0.45594000000E+02  0.51100000000E-03 0.  1.
         11   -1    0    0    0    0 -0.00000000000E+00 -0.00000000000E+00 -0.45593999997E+02  0.45594000000E+02  0.51100000000E-03 0. -1.
    9900012    2    1    2    0    0 -0.19477300048E+02 -0.20811151194E+02  0.34880428703E+02  0.46142317214E+02  0.99999950088E+01 0.  0.
         12    1    1    2    0    0  0.19477300048E+02  0.20811151194E+02 -0.34880428703E+02  0.45045682786E+02  0.00000000000E+00 0. -1.
         11    1    3    3    0    0 -0.63111573204E+01 -0.20301864485E+01  0.63219349650E+01  0.91607437308E+01  0.51100000000E-03 0. -1.
        -11    1    3    3    0    0 -0.17916333477E+01 -0.31289548305E+01  0.20019794928E+01  0.41241036037E+01  0.51100000000E-03 0.  1.
        -12    1    3    3    0    0 -0.11374509380E+02 -0.15652009915E+02  0.26556514245E+02  0.32857469879E+02  0.00000000000E+00 0.  1.
</event>
<event>
 7    1  0.2438448E-008  0.4614232E+02  0.7816164E-02  0.1320468E+00
        -11   -1    0    0    0    0  0.00000000000E+00  0.00000000000E+00  0.45593999997E+02  0.45594000000E+02  0.51100000000E-03 0. -1.
         11   -1    0    0    0    0 -0.00000000000E+00 -0.00000000000E+00 -0.45593999997E+02  0.45594000000E+02  0.51100000000E-03 0.  1.
    9900012    2    1    2    0    0 -0.27193759763E+02 -0.34348743323E+02  0.10477441146E+02  0.46142317511E+02  0.99999977198E+01 0.  0.
         12    1    1    2    0    0  0.27193759763E+02  0.34348743323E+02 -0.10477441146E+02  0.45045682489E+02  0.00000000000E+00 0. -1.
         11    1    3    3    0    0 -0.20160980912E+02 -0.20148928278E+02  0.69702779068E+01  0.29343299686E+02  0.51100000000E-03 0. -1.
        -11    1    3    3    0    0 -0.73285270068E+01 -0.13214007243E+02  0.40387690245E+01  0.15640618626E+02  0.51100000000E-03 0.  1.
         12    1    3    3    0    0  0.29574815596E+00 -0.98580780239E+00 -0.53160578497E+00  0.11583991996E+01  0.00000000000E+00 0. -1.
</event>
<event>
 7    1  0.2438448E-008  0.4614232E+02  0.7816164E-02  0.1320468E+00
        -11   -1    0    0    0    0  0.00000000000E+00  0.00000000000E+00  0.45593999997E+02  0.45594000000E+02  0.51100000000E-03 0. -1.
         11   -1    0    0    0    0 -0.00000000000E+00 -0.00000000000E+00 -0.45593999997E+02  0.45594000000E+02  0.51100000000E-03 0.  1.
    9900012    2    1    2    0    0 -0.35989138257E+02 -0.17916208123E+02 -0.20320061250E+02  0.46142317907E+02  0.10000001330E+02 0.  0.
         12    1    1    2    0    0  0.35989138257E+02  0.17916208123E+02  0.20320061250E+02  0.45045682093E+02  0.00000000000E+00 0. -1.
         11    1    3    3    0    0 -0.48163362860E+01 -0.11164425734E+01 -0.50152037051E+01  0.70424291054E+01  0.51100000000E-03 0. -1.
        -11    1    3    3    0    0 -0.27882243458E+02 -0.12624775445E+02 -0.12241231072E+02  0.32964407983E+02  0.51100000000E-03 0.  1.
         12    1    3    3    0    0 -0.32905585137E+01 -0.41749901044E+01 -0.30636264732E+01  0.61354808182E+01  0.00000000000E+00 0. -1.
</event>
<event>
 7    1  0.2438448E-008  0.4614232E+02  0.7816164E-02  0.1320468E+00
        -11   -1    0    0    0    0  0.00000000000E+00  0.00000000000E+00  0.45593999997E+02  0.45594000000E+02  0.51100000000E-03 0.  1.
         11   -1    0    0    0    0 -0.00000000000E+00 -0.00000000000E+00 -0.45593999997E+02  0.45594000000E+02  0.51100000000E-03 0. -1.
    9900012    2    1    2    0    0 -0.42448288166E+02 -0.12461053549E+02 -0.84840088531E+01  0.46142318409E+02  0.10000005911E+02 0.  0.
         12    1    1    2    0    0  0.42448288166E+02  0.12461053549E+02  0.84840088531E+01  0.45045681591E+02  0.00000000000E+00 0. -1.
         11    1    3    3    0    0 -0.31160363278E+01 -0.10606583246E+01  0.79472187619E+00  0.33861868820E+01  0.51100000000E-03 0. -1.
        -11    1    3    3    0    0 -0.59515253926E+01  0.10543556311E+01 -0.21935042374E+01  0.64299130162E+01  0.51100000000E-03 0.  1.
         12    1    3    3    0    0 -0.33380726445E+02 -0.12454750855E+02 -0.70852264919E+01  0.36326218511E+02  0.00000000000E+00 0. -1.
</event>
<event>
 7    1  0.2438448E-008  0.4614232E+02  0.7816164E-02  0.1320468E+00
        -11   -1    0    0    0    0  0.00000000000E+00  0.00000000000E+00  0.45593999997E+02  0.45594000000E+02  0.51100000000E-03 0.  1.
         11   -1    0    0    0    0 -0.00000000000E+00 -0.00000000000E+00 -0.45593999997E+02  0.45594000000E+02  0.51100000000E-03 0. -1.
    9900012    2    1    2    0    0  0.42692908848E+02  0.12430280407E+02 -0.72053550194E+01  0.46142317878E+02  0.10000001065E+02 0.  0.
         12    1    1    2    0    0 -0.42692908848E+02 -0.12430280407E+02  0.72053550194E+01  0.45045682122E+02  0.00000000000E+00 0. -1.
         11    1    3    3    0    0  0.39453110462E+01  0.25741781078E+01  0.46735294775E+00  0.47339509103E+01  0.51100000000E-03 0. -1.
        -11    1    3    3    0    0  0.50139397970E+01 -0.29563471068E+00 -0.30554007875E+01  0.58789851508E+01  0.51100000000E-03 0.  1.
        -12    1    3    3    0    0  0.33733658005E+02  0.10151737010E+02 -0.46173071796E+01  0.35529381817E+02  0.00000000000E+00 0.  1.
</event>
<event>
 7    1  0.2438448E-008  0.4614232E+02  0.7816164E-02  0.1320468E+00
        -11   -1    0    0    0    0  0.00000000000E+00  0.00000000000E+00  0.45593999997E+02  0.45594000000E+02  0.51100000000E-03 0.  1.
         11   -1    0    0    0    0 -0.00000000000E+00 -0.00000000000E+00 -0.45593999997E+02  0.45594000000E+02  0.51100000000E-03 0. -1.
    9900012    2    1    2    0    0 -0.78042628720E+00 -0.17418420278E+01  0.45005225962E+02  0.46142318268E+02  0.10000004622E+02 0.  0.
         12    1    1    2    0    0  0.78042628720E+00  0.17418420278E+01 -0.45005225962E+02  0.45045681732E+02  0.00000000000E+00 0. -1.
         11    1    3    3    0    0  0.24985228351E+01 -0.25276468628E+01  0.15689772469E+02  0.16087279926E+02  0.51100000000E-03 0. -1.
        -11    1    3    3    0    0 -0.11944377646E+01 -0.24788304501E+01  0.11866569461E+02  0.12181410140E+02  0.51100000000E-03 0.  1.
        -12    1    3    3    0    0 -0.20845113578E+01  0.32646352850E+01  0.17448884032E+02  0.17873628202E+02  0.00000000000E+00 0.  1.
</event>
<event>
 7    1  0.2438448E-008  0.4614232E+02  0.7816164E-02  0.1320468E+00
        -11   -1    0    0    0    0  0.00000000000E+00  0.00000000000E+00  0.45593999997E+02  0.45594000000E+02  0.51100000000E-03 0.  1.
         11   -1    0    0    0    0 -0.00000000000E+00 -0.00000000000E+00 -0.45593999997E+02  0.45594000000E+02  0.51100000000E-03 0. -1.
    9900012    2    1    2    0    0 -0.85422392304E+01 -0.19567805485E+02  0.39664144358E+02  0.46142320848E+02  0.10000028150E+02 0.  0.
         12    1    1    2    0    0  0.85422392304E+01  0.19567805485E+02 -0.39664144358E+02  0.45045679152E+02  0.00000000000E+00 0. -1.
         11    1    3    3    0    0 -0.33803690506E+01 -0.11527375384E+02  0.14418672109E+02  0.18767135738E+02  0.51100000000E-03 0. -1.
        -11    1    3    3    0    0 -0.16040526670E+01 -0.64745654511E+01  0.16904102776E+02  0.18172552756E+02  0.51100000000E-03 0.  1.
        -12    1    3    3    0    0 -0.35578175128E+01 -0.15658646497E+01  0.83413694733E+01  0.92026323542E+01  0.00000000000E+00 0.  1.
</event>
<event>
 7    1  0.2438448E-008  0.4614232E+02  0.7816164E-02  0.1320468E+00
        -11   -1    0    0    0    0  0.00000000000E+00  0.00000000000E+00  0.45593999997E+02  0.45594000000E+02  0.51100000000E-03 0.  1.
         11   -1    0    0    0    0 -0.00000000000E+00 -0.00000000000E+00 -0.45593999997E+02  0.45594000000E+02  0.51100000000E-03 0. -1.
    9900012    2    1    2    0    0 -0.14650578516E+02 -0.42591099150E+02 -0.68723797764E+00  0.46142317924E+02  0.10000001486E+02 0.  0.
         12    1    1    2    0    0  0.14650578516E+02  0.42591099150E+02  0.68723797764E+00  0.45045682076E+02  0.00000000000E+00 0. -1.
         11    1    3    3    0    0 -0.33513435762E+01 -0.31211173541E+01 -0.46639823688E+00  0.46033036919E+01  0.51100000000E-03 0. -1.
        -11    1    3    3    0    0  0.76415065913E+00 -0.27879884647E+01 -0.43742706876E+00  0.29237217055E+01  0.51100000000E-03 0.  1.
        -12    1    3    3    0    0 -0.12063385599E+02 -0.36681993331E+02  0.21658732800E+00  0.38615292527E+02  0.00000000000E+00 0.  1.
</event>
<event>
 7    1  0.2438448E-008  0.4614231E+02  0.7816164E-02  0.1320468E+00
        -11   -1    0    0    0    0  0.00000000000E+00  0.00000000000E+00  0.45593999997E+02  0.45594000000E+02  0.51100000000E-03 0.  1.
         11   -1    0    0    0    0 -0.00000000000E+00 -0.00000000000E+00 -0.45593999997E+02  0.45594000000E+02  0.51100000000E-03 0. -1.
    9900012    2    1    2    0    0 -0.18850930056E+02  0.36432674508E+02  0.18612264902E+02  0.46142314962E+02  0.99999744757E+01 0.  0.
         12    1    1    2    0    0  0.18850930056E+02 -0.36432674508E+02 -0.18612264902E+02  0.45045685038E+02  0.00000000000E+00 0. -1.
         11    1    3    3    0    0  0.15428050454E-01  0.24301010161E+01  0.30435582135E+00  0.24491348882E+01  0.51100000000E-03 0. -1.
        -11    1    3    3    0    0 -0.13770825465E+02  0.28078788111E+02  0.11473155127E+02  0.33311968789E+02  0.51100000000E-03 0.  1.
         12    1    3    3    0    0 -0.50955326420E+01  0.59237853804E+01  0.68347539532E+01  0.10381211285E+02  0.00000000000E+00 0. -1.
</event>
<event>
 7    1  0.2438448E-008  0.4614232E+02  0.7816164E-02  0.1320468E+00
        -11   -1    0    0    0    0  0.00000000000E+00  0.00000000000E+00  0.45593999997E+02  0.45594000000E+02  0.51100000000E-03 0.  1.
         11   -1    0    0    0    0 -0.00000000000E+00 -0.00000000000E+00 -0.45593999997E+02  0.45594000000E+02  0.51100000000E-03 0. -1.
    9900012    2    1    2    0    0 -0.42471651527E+02 -0.13139278217E+02 -0.72547685119E+01  0.46142317835E+02  0.10000000675E+02 0.  0.
         12    1    1    2    0    0  0.42471651527E+02  0.13139278217E+02  0.72547685119E+01  0.45045682165E+02  0.00000000000E+00 0. -1.
         11    1    3    3    0    0 -0.82355335923E+01 -0.47990717412E+01  0.61657800762E-01  0.95319937617E+01  0.51100000000E-03 0. -1.
        -11    1    3    3    0    0 -0.29508552726E+02 -0.60061901395E+01 -0.39911199410E+01  0.30376932738E+02  0.51100000000E-03 0.  1.
        -12    1    3    3    0    0 -0.47275652096E+01 -0.23340163366E+01 -0.33253063716E+01  0.62333913350E+01  0.00000000000E+00 0.  1.
</event>
<event>
 7    1  0.2438448E-008  0.4614232E+02  0.7816164E-02  0.1320468E+00
        -11   -1    0    0    0    0  0.00000000000E+00  0.00000000000E+00  0.45593999997E+02  0.45594000000E+02  0.51100000000E-03 0. -1.
         11   -1    0    0    0    0 -0.00000000000E+00 -0.00000000000E+00 -0.45593999997E+02  0.45594000000E+02  0.51100000000E-03 0.  1.
    9900012    2    1    2    0    0  0.34674970484E+02  0.10949396170E+02  0.26587039593E+02  0.46142317311E+02  0.99999958977E+01 0.  0.
         12    1    1    2    0    0 -0.34674970484E+02 -0.10949396170E+02 -0.26587039593E+02  0.45045682689E+02  0.00000000000E+00 0. -1.
         11    1    3    3    0    0  0.16200814098E+02  0.33227227427E+01  0.12895718264E+02  0.20971562022E+02  0.51100000000E-03 0. -1.
        -11    1    3    3    0    0  0.18391602146E+02  0.84515248835E+01  0.13469267106E+02  0.24312557640E+02  0.51100000000E-03 0.  1.
         12    1    3    3    0    0  0.82554240915E-01 -0.82485145628E+00  0.22205422353E+00  0.85819764962E+00  0.00000000000E+00 0. -1.
</event>
<event>
 7    1  0.2438448E-008  0.4614232E+02  0.7816164E-02  0.1320468E+00
        -11   -1    0    0    0    0  0.00000000000E+00  0.00000000000E+00  0.45593999997E+02  0.45594000000E+02  0.51100000000E-03 0.  1.
         11   -1    0    0    0    0 -0.00000000000E+00 -0.00000000000E+00 -0.45593999997E+02  0.45594000000E+02  0.51100000000E-03 0. -1.
    9900012    2    1    2    0    0 -0.37959080880E+02 -0.22598827851E+02  0.88042426537E+01  0.46142317297E+02  0.99999957657E+01 0.  0.
         12    1    1    2    0    0  0.37959080880E+02  0.22598827851E+02 -0.88042426537E+01  0.45045682703E+02  0.00000000000E+00 0. -1.
         11    1    3    3    0    0 -0.12335890685E+02 -0.77333005964E+01  0.61564433217E+01  0.15807590953E+02  0.51100000000E-03 0. -1.
        -11    1    3    3    0    0 -0.10717274222E+02 -0.59512717105E+01  0.40491583188E+01  0.12910200814E+02  0.51100000000E-03 0.  1.
         12    1    3    3    0    0 -0.14905915974E+02 -0.89142555437E+01 -0.14013589868E+01  0.17424525530E+02  0.00000000000E+00 0. -1.
</event>
<event>
 7    1  0.2438448E-008  0.4614232E+02  0.7816164E-02  0.1320468E+00
        -11   -1    0    0    0    0  0.00000000000E+00  0.00000000000E+00  0.45593999997E+02  0.45594000000E+02  0.51100000000E-03 0. -1.
         11   -1    0    0    0    0 -0.00000000000E+00 -0.00000000000E+00 -0.45593999997E+02  0.45594000000E+02  0.51100000000E-03 0.  1.
    9900012    2    1    2    0    0  0.36219990923E+01 -0.26968931600E+02 -0.35898069204E+02  0.46142317391E+02  0.99999966283E+01 0.  0.
         12    1    1    2    0    0 -0.36219990923E+01  0.26968931600E+02  0.35898069204E+02  0.45045682609E+02  0.00000000000E+00 0. -1.
         11    1    3    3    0    0  0.25802674329E+01 -0.57109690258E+01 -0.10028376723E+02  0.11825450824E+02  0.51100000000E-03 0. -1.
        -11    1    3    3    0    0 -0.25935292443E+01 -0.14730810442E+02 -0.15544001143E+02  0.21571720887E+02  0.51100000000E-03 0.  1.
        -12    1    3    3    0    0  0.36352609038E+01 -0.65271521320E+01 -0.10325691338E+02  0.12745145680E+02  0.00000000000E+00 0.  1.
</event>
<event>
 7    1  0.2438448E-008  0.4614232E+02  0.7816164E-02  0.1320468E+00
        -11   -1    0    0    0    0  0.00000000000E+00  0.00000000000E+00  0.45593999997E+02  0.45594000000E+02  0.51100000000E-03 0.  1.
         11   -1    0    0    0    0 -0.00000000000E+00 -0.00000000000E+00 -0.45593999997E+02  0.45594000000E+02  0.51100000000E-03 0. -1.
    9900012    2    1    2    0    0 -0.23065227525E+02 -0.31114357782E+02  0.23000118057E+02  0.46142318613E+02  0.10000007769E+02 0.  0.
         12    1    1    2    0    0  0.23065227525E+02  0.31114357782E+02 -0.23000118057E+02  0.45045681387E+02  0.00000000000E+00 0. -1.
         11    1    3    3    0    0 -0.94785886721E+01 -0.16641189997E+02  0.82310353589E+01  0.20845210267E+02  0.51100000000E-03 0. -1.
        -11    1    3    3    0    0 -0.12668558982E+01 -0.45076715226E+01  0.37061625551E+01  0.59715716163E+01  0.51100000000E-03 0.  1.
         12    1    3    3    0    0 -0.12319782955E+02 -0.99654962627E+01  0.11062920143E+02  0.19325536730E+02  0.00000000000E+00 0. -1.
</event>
<event>
 7    1  0.2438448E-008  0.4614232E+02  0.7816164E-02  0.1320468E+00
        -11   -1    0    0    0    0  0.00000000000E+00  0.00000000000E+00  0.45593999997E+02  0.45594000000E+02  0.51100000000E-03 0.  1.
         11   -1    0    0    0    0 -0.00000000000E+00 -0.00000000000E+00 -0.45593999997E+02  0.45594000000E+02  0.51100000000E-03 0. -1.
    9900012    2    1    2    0    0 -0.17903376178E+02  0.35884422808E+02  0.20515621897E+02  0.46142318513E+02  0.10000006856E+02 0.  0.
         12    1    1    2    0    0  0.17903376178E+02 -0.35884422808E+02 -0.20515621897E+02  0.45045681487E+02  0.00000000000E+00 0. -1.
         11    1    3    3    0    0 -0.67443482340E+01  0.12280144549E+02  0.43235836125E+01  0.14662249444E+02  0.51100000000E-03 0. -1.
        -11    1    3    3    0    0 -0.11221490707E+02  0.21518182251E+02  0.12646340762E+02  0.27365744207E+02  0.51100000000E-03 0.  1.
        -12    1    3    3    0    0  0.62462762243E-01  0.20860960070E+01  0.35456975223E+01  0.41143248615E+01  0.00000000000E+00 0.  1.
</event>
<event>
 7    1  0.2438448E-008  0.4614232E+02  0.7816164E-02  0.1320468E+00
        -11   -1    0    0    0    0  0.00000000000E+00  0.00000000000E+00  0.45593999997E+02  0.45594000000E+02  0.51100000000E-03 0. -1.
         11   -1    0    0    0    0 -0.00000000000E+00 -0.00000000000E+00 -0.45593999997E+02  0.45594000000E+02  0.51100000000E-03 0.  1.
    9900012    2    1    2    0    0  0.39895154879E+02 -0.18686695096E+02  0.93966803573E+01  0.46142316987E+02  0.99999929373E+01 0.  0.
         12    1    1    2    0    0 -0.39895154879E+02  0.18686695096E+02 -0.93966803573E+01  0.45045683013E+02  0.00000000000E+00 0. -1.
         11    1    3    3    0    0  0.92436465773E+01 -0.53393886447E+01  0.46753533684E+00  0.10685160864E+02  0.51100000000E-03 0. -1.
        -11    1    3    3    0    0  0.23610535550E+02 -0.12106526393E+02  0.41465496264E+01  0.26855525396E+02  0.51100000000E-03 0.  1.
         12    1    3    3    0    0  0.70409727513E+01 -0.12407800588E+01  0.47825953940E+01  0.86016307257E+01  0.00000000000E+00 0. -1.
</event>
<event>
 7    1  0.2438448E-008  0.4614231E+02  0.7816164E-02  0.1320468E+00
        -11   -1    0    0    0    0  0.00000000000E+00  0.00000000000E+00  0.45593999997E+02  0.45594000000E+02  0.51100000000E-03 0.  1.
         11   -1    0    0    0    0 -0.00000000000E+00 -0.00000000000E+00 -0.45593999997E+02  0.45594000000E+02  0.51100000000E-03 0. -1.
    9900012    2    1    2    0    0 -0.37797806025E+02 -0.16468889279E+02  0.18144292739E+02  0.46142314154E+02  0.99999671067E+01 0.  0.
         12    1    1    2    0    0  0.37797806025E+02  0.16468889279E+02 -0.18144292739E+02  0.45045685846E+02  0.00000000000E+00 0. -1.
         11    1    3    3    0    0 -0.15165571005E+02 -0.72421694155E+01  0.53564398986E+01  0.17639019542E+02  0.51100000000E-03 0. -1.
        -11    1    3    3    0    0 -0.13335722142E+02 -0.29306482940E+01  0.39483806344E+01  0.14213370267E+02  0.51100000000E-03 0.  1.
        -12    1    3    3    0    0 -0.92965128777E+01 -0.62960715696E+01  0.88394722058E+01  0.14289924344E+02  0.00000000000E+00 0.  1.
</event>
<event>
 7    1  0.2438448E-008  0.4614232E+02  0.7816164E-02  0.1320468E+00
        -11   -1    0    0    0    0  0.00000000000E+00  0.00000000000E+00  0.45593999997E+02  0.45594000000E+02  0.51100000000E-03 0. -1.
         11   -1    0    0    0    0 -0.00000000000E+00 -0.00000000000E+00 -0.45593999997E+02  0.45594000000E+02  0.51100000000E-03 0.  1.
    9900012    2    1    2    0    0  0.21986761877E+02 -0.34734002185E+02 -0.18418601422E+02  0.46142317810E+02  0.10000000448E+02 0.  0.
         12    1    1    2    0    0 -0.21986761877E+02  0.34734002185E+02  0.18418601422E+02  0.45045682190E+02  0.00000000000E+00 0. -1.
         11    1    3    3    0    0  0.76627460720E+01 -0.84107799527E+01 -0.24979535166E+01  0.11648977157E+02  0.51100000000E-03 0. -1.
        -11    1    3    3    0    0  0.13165825495E+02 -0.19726231615E+02 -0.10786184994E+02  0.26053885731E+02  0.51100000000E-03 0.  1.
         12    1    3    3    0    0  0.11581903099E+01 -0.65969906171E+01 -0.51344629115E+01  0.84394549223E+01  0.00000000000E+00 0. -1.
</event>
<event>
 7    1  0.2438448E-008  0.4614232E+02  0.7816164E-02  0.1320468E+00
        -11   -1    0    0    0    0  0.00000000000E+00  0.00000000000E+00  0.45593999997E+02  0.45594000000E+02  0.51100000000E-03 0.  1.
         11   -1    0    0    0    0 -0.00000000000E+00 -0.00000000000E+00 -0.45593999997E+02  0.45594000000E+02  0.51100000000E-03 0. -1.
    9900012    2    1    2    0    0  0.26161200492E+02 -0.19375706362E+02  0.31133372790E+02  0.46142319746E+02  0.10000018104E+02 0.  0.
         12    1    1    2    0    0 -0.26161200492E+02  0.19375706362E+02 -0.31133372790E+02  0.45045680254E+02  0.00000000000E+00 0. -1.
         11    1    3    3    0    0  0.48932319244E+00 -0.24474438020E+00 -0.45673148461E+00  0.71269973232E+00  0.51100000000E-03 0. -1.
        -11    1    3    3    0    0  0.59674511884E+00 -0.24693054017E+01  0.25926522460E+01  0.36297961146E+01  0.51100000000E-03 0.  1.
        -12    1    3    3    0    0  0.25075132181E+02 -0.16661656580E+02  0.28997452029E+02  0.41799823900E+02  0.00000000000E+00 0.  1.
</event>
<event>
 7    1  0.2438448E-008  0.4614232E+02  0.7816164E-02  0.1320468E+00
        -11   -1    0    0    0    0  0.00000000000E+00  0.00000000000E+00  0.45593999997E+02  0.45594000000E+02  0.51100000000E-03 0.  1.
         11   -1    0    0    0    0 -0.00000000000E+00 -0.00000000000E+00 -0.45593999997E+02  0.45594000000E+02  0.51100000000E-03 0. -1.
    9900012    2    1    2    0    0  0.76908681023E+01  0.14120831825E+02  0.42078095943E+02  0.46142317612E+02  0.99999986376E+01 0.  0.
         12    1    1    2    0    0 -0.76908681023E+01 -0.14120831825E+02 -0.42078095943E+02  0.45045682388E+02  0.00000000000E+00 0. -1.
         11    1    3    3    0    0 -0.23758985737E+00  0.33695107949E+01  0.57095922095E+01  0.66339652846E+01  0.51100000000E-03 0. -1.
        -11    1    3    3    0    0  0.51846832281E+01  0.11254019180E+02  0.32107666993E+02  0.34415638420E+02  0.51100000000E-03 0.  1.
         12    1    3    3    0    0  0.27437747316E+01 -0.50269814899E+00  0.42608367409E+01  0.50927139070E+01  0.00000000000E+00 0. -1.
</event>
<event>
 7    1  0.2438448E-008  0.4614232E+02  0.7816164E-02  0.1320468E+00
        -11   -1    0    0    0    0  0.00000000000E+00  0.00000000000E+00  0.45593999997E+02  0.45594000000E+02  0.51100000000E-03 0. -1.
         11   -1    0    0    0    0 -0.00000000000E+00 -0.00000000000E+00 -0.45593999997E+02  0.45594000000E+02  0.51100000000E-03 0.  1.
    9900012    2    1    2    0    0  0.10145044833E+02  0.73890825887E+01 -0.43261910513E+02  0.46142318993E+02  0.10000011236E+02 0.  0.
         12    1    1    2    0    0 -0.10145044833E+02 -0.73890825887E+01  0.43261910513E+02  0.45045681007E+02  0.00000000000E+00 0. -1.
         11    1    3    3    0    0  0.38267245045E+01 -0.18732737070E+01 -0.11992519803E+02  0.12726881248E+02  0.51100000000E-03 0. -1.
        -11    1    3    3    0    0  0.30899660483E+01  0.25846665399E+01 -0.74695053642E+01  0.84865718608E+01  0.51100000000E-03 0.  1.
         12    1    3    3    0    0  0.32283542800E+01  0.66776897558E+01 -0.23799885345E+02  0.24928865885E+02  0.00000000000E+00 0. -1.
</event>
<event>
 7    1  0.2438448E-008  0.4614232E+02  0.7816164E-02  0.1320468E+00
        -11   -1    0    0    0    0  0.00000000000E+00  0.00000000000E+00  0.45593999997E+02  0.45594000000E+02  0.51100000000E-03 0.  1.
         11   -1    0    0    0    0 -0.00000000000E+00 -0.00000000000E+00 -0.45593999997E+02  0.45594000000E+02  0.51100000000E-03 0. -1.
    9900012    2    1    2    0    0  0.42690494175E+02 -0.41337217013E+01  0.13767625254E+02  0.46142318152E+02  0.10000003562E+02 0.  0.
         12    1    1    2    0    0 -0.42690494175E+02  0.41337217013E+01 -0.13767625254E+02  0.45045681848E+02  0.00000000000E+00 0. -1.
         11    1    3    3    0    0  0.11380177382E+02 -0.18818208447E+01 -0.24445295862E+00  0.11537306638E+02  0.51100000000E-03 0.  1.
        -11    1    3    3    0    0  0.20573694365E+02  0.34384616195E+00  0.85474423966E+01  0.22281245517E+02  0.51100000000E-03 0. -1.
        -12    1    3    3    0    0  0.10736622428E+02 -0.25957470186E+01  0.54646358156E+01  0.12323765997E+02  0.00000000000E+00 0.  1.
</event>
<event>
 7    1  0.2438448E-008  0.4614232E+02  0.7816164E-02  0.1320468E+00
        -11   -1    0    0    0    0  0.00000000000E+00  0.00000000000E+00  0.45593999997E+02  0.45594000000E+02  0.51100000000E-03 0.  1.
         11   -1    0    0    0    0 -0.00000000000E+00 -0.00000000000E+00 -0.45593999997E+02  0.45594000000E+02  0.51100000000E-03 0. -1.
    9900012    2    1    2    0    0 -0.69962459458E+01 -0.94514231891E+01  0.43483749952E+02  0.46142319103E+02  0.10000012233E+02 0.  0.
         12    1    1    2    0    0  0.69962459458E+01  0.94514231891E+01 -0.43483749952E+02  0.45045680897E+02  0.00000000000E+00 0. -1.
         11    1    3    3    0    0 -0.22796039642E+01 -0.30055760091E+01  0.10948944439E+02  0.11580564147E+02  0.51100000000E-03 0. -1.
        -11    1    3    3    0    0 -0.51407127930E+01 -0.58848091878E+01  0.32867622352E+02  0.33783701789E+02  0.51100000000E-03 0.  1.
        -12    1    3    3    0    0  0.42407081138E+00 -0.56103799216E+00 -0.33281683937E+00  0.77805316675E+00  0.00000000000E+00 0.  1.
</event>
<event>
 7    1  0.2438448E-008  0.4614232E+02  0.7816164E-02  0.1320468E+00
        -11   -1    0    0    0    0  0.00000000000E+00  0.00000000000E+00  0.45593999997E+02  0.45594000000E+02  0.51100000000E-03 0.  1.
         11   -1    0    0    0    0 -0.00000000000E+00 -0.00000000000E+00 -0.45593999997E+02  0.45594000000E+02  0.51100000000E-03 0. -1.
    9900012    2    1    2    0    0 -0.42332276216E+02  0.13795736986E+02 -0.68388202070E+01  0.46142318404E+02  0.10000005866E+02 0.  0.
         12    1    1    2    0    0  0.42332276216E+02 -0.13795736986E+02  0.68388202070E+01  0.45045681596E+02  0.00000000000E+00 0. -1.
         11    1    3    3    0    0 -0.33634967512E+02  0.89603079092E+01 -0.28578830987E+01  0.34925143571E+02  0.51100000000E-03 0. -1.
        -11    1    3    3    0    0 -0.46084550197E+01  0.23258144814E+01 -0.30114965546E+00  0.51708763326E+01  0.51100000000E-03 0.  1.
         12    1    3    3    0    0 -0.40888536834E+01  0.25096145956E+01 -0.36797874529E+01  0.60462985008E+01  0.00000000000E+00 0. -1.
</event>
<event>
 7    1  0.2438448E-008  0.4614232E+02  0.7816164E-02  0.1320468E+00
        -11   -1    0    0    0    0  0.00000000000E+00  0.00000000000E+00  0.45593999997E+02  0.45594000000E+02  0.51100000000E-03 0. -1.
         11   -1    0    0    0    0 -0.00000000000E+00 -0.00000000000E+00 -0.45593999997E+02  0.45594000000E+02  0.51100000000E-03 0.  1.
    9900012    2    1    2    0    0 -0.31592361716E+02  0.19062417058E+02 -0.25839118000E+02  0.46142322273E+02  0.10000041143E+02 0.  0.
         12    1    1    2    0    0  0.31592361716E+02 -0.19062417058E+02  0.25839118000E+02  0.45045677727E+02  0.00000000000E+00 0. -1.
         11    1    3    3    0    0 -0.22448858080E+01 -0.14374862911E+00 -0.81933684556E+00  0.23940528580E+01  0.51100000000E-03 0. -1.
        -11    1    3    3    0    0 -0.13589994692E+02  0.11595997665E+02 -0.89122677740E+01  0.19964559467E+02  0.51100000000E-03 0.  1.
         12    1    3    3    0    0 -0.15757481215E+02  0.76101680221E+01 -0.16107513380E+02  0.23783709948E+02  0.00000000000E+00 0. -1.
</event>
<event>
 7    1  0.2438448E-008  0.4614231E+02  0.7816164E-02  0.1320468E+00
        -11   -1    0    0    0    0  0.00000000000E+00  0.00000000000E+00  0.45593999997E+02  0.45594000000E+02  0.51100000000E-03 0. -1.
         11   -1    0    0    0    0 -0.00000000000E+00 -0.00000000000E+00 -0.45593999997E+02  0.45594000000E+02  0.51100000000E-03 0.  1.
    9900012    2    1    2    0    0 -0.20779587644E+02  0.30645024999E+02 -0.25655518298E+02  0.46142307210E+02  0.99999037818E+01 0.  0.
         12    1    1    2    0    0  0.20779587644E+02 -0.30645024999E+02  0.25655518298E+02  0.45045692790E+02  0.00000000000E+00 0. -1.
         11    1    3    3    0    0 -0.53544271872E+01  0.20517858954E+01 -0.26462913549E+01  0.63152651615E+01  0.51100000000E-03 0. -1.
        -11    1    3    3    0    0 -0.99966201545E+01  0.18661624290E+02 -0.15640003090E+02  0.26321062528E+02  0.51100000000E-03 0.  1.
         12    1    3    3    0    0 -0.54285403022E+01  0.99316148131E+01 -0.73692238534E+01  0.13505979521E+02  0.00000000000E+00 0. -1.
</event>
<event>
 7    1  0.2438448E-008  0.4614232E+02  0.7816164E-02  0.1320468E+00
        -11   -1    0    0    0    0  0.00000000000E+00  0.00000000000E+00  0.45593999997E+02  0.45594000000E+02  0.51100000000E-03 0.  1.
         11   -1    0    0    0    0 -0.00000000000E+00 -0.00000000000E+00 -0.45593999997E+02  0.45594000000E+02  0.51100000000E-03 0. -1.
    9900012    2    1    2    0    0  0.10056803511E+02 -0.97920681230E+00  0.43897783096E+02  0.46142317592E+02  0.99999984579E+01 0.  0.
         12    1    1    2    0    0 -0.10056803511E+02  0.97920681230E+00 -0.43897783096E+02  0.45045682408E+02  0.00000000000E+00 0. -1.
         11    1    3    3    0    0 -0.57297110304E-02  0.34819681801E+00 -0.45118277561E+00  0.56994737633E+00  0.51100000000E-03 0. -1.
        -11    1    3    3    0    0  0.42991628674E+01  0.59372660209E+00  0.15876450957E+02  0.16458949173E+02  0.51100000000E-03 0.  1.
         12    1    3    3    0    0  0.57633703550E+01 -0.19211302324E+01  0.28472514915E+02  0.29113421043E+02  0.00000000000E+00 0. -1.
</event>
<event>
 7    1  0.2438448E-008  0.4614232E+02  0.7816164E-02  0.1320468E+00
        -11   -1    0    0    0    0  0.00000000000E+00  0.00000000000E+00  0.45593999997E+02  0.45594000000E+02  0.51100000000E-03 0. -1.
         11   -1    0    0    0    0 -0.00000000000E+00 -0.00000000000E+00 -0.45593999997E+02  0.45594000000E+02  0.51100000000E-03 0.  1.
    9900012    2    1    2    0    0  0.36130923165E+02 -0.14672557816E+02 -0.22547414255E+02  0.46142318174E+02  0.10000003765E+02 0.  0.
         12    1    1    2    0    0 -0.36130923165E+02  0.14672557816E+02  0.22547414255E+02  0.45045681826E+02  0.00000000000E+00 0. -1.
         11    1    3    3    0    0  0.14188746756E+01  0.27273309260E+00 -0.23011480017E+01  0.27171439181E+01  0.51100000000E-03 0. -1.
        -11    1    3    3    0    0  0.15637399354E+02 -0.82857490709E+01 -0.13010235568E+02  0.21964701820E+02  0.51100000000E-03 0.  1.
         12    1    3    3    0    0  0.19074649135E+02 -0.66595418377E+01 -0.72360306847E+01  0.21460472436E+02  0.00000000000E+00 0. -1.
</event>
<event>
 7    1  0.2438448E-008  0.4614232E+02  0.7816164E-02  0.1320468E+00
        -11   -1    0    0    0    0  0.00000000000E+00  0.00000000000E+00  0.45593999997E+02  0.45594000000E+02  0.51100000000E-03 0.  1.
         11   -1    0    0    0    0 -0.00000000000E+00 -0.00000000000E+00 -0.45593999997E+02  0.45594000000E+02  0.51100000000E-03 0. -1.
    9900012    2    1    2    0    0  0.26918812794E+02  0.22086260671E+01  0.36050145443E+02  0.46142317656E+02  0.99999990410E+01 0.  0.
         12    1    1    2    0    0 -0.26918812794E+02 -0.22086260671E+01 -0.36050145443E+02  0.45045682344E+02  0.00000000000E+00 0. -1.
         11    1    3    3    0    0  0.18178001052E+02  0.47004347574E+01  0.18512345525E+02  0.26367418270E+02  0.51100000000E-03 0. -1.
        -11    1    3    3    0    0  0.42319504327E+01 -0.14736657158E+01  0.94700044986E+01  0.10476739978E+02  0.51100000000E-03 0.  1.
         12    1    3    3    0    0  0.45088613095E+01 -0.10181429745E+01  0.80677954199E+01  0.92981594073E+01  0.00000000000E+00 0. -1.
</event>
<event>
 7    1  0.2438448E-008  0.4614232E+02  0.7816164E-02  0.1320468E+00
        -11   -1    0    0    0    0  0.00000000000E+00  0.00000000000E+00  0.45593999997E+02  0.45594000000E+02  0.51100000000E-03 0.  1.
         11   -1    0    0    0    0 -0.00000000000E+00 -0.00000000000E+00 -0.45593999997E+02  0.45594000000E+02  0.51100000000E-03 0. -1.
    9900012    2    1    2    0    0 -0.74436388901E+01 -0.36188985248E+02  0.25769422846E+02  0.46142316888E+02  0.99999920361E+01 0.  0.
         12    1    1    2    0    0  0.74436388901E+01  0.36188985248E+02 -0.25769422846E+02  0.45045683112E+02  0.00000000000E+00 0. -1.
         11    1    3    3    0    0  0.18503086066E+01 -0.72920038241E+01  0.47090474041E+01  0.88753641855E+01  0.51100000000E-03 0. -1.
        -11    1    3    3    0    0 -0.50879662187E+00 -0.33409016372E+01  0.42941939802E+01  0.54644853328E+01  0.51100000000E-03 0.  1.
        -12    1    3    3    0    0 -0.87851508748E+01 -0.25556079787E+02  0.16766181462E+02  0.31802467369E+02  0.00000000000E+00 0.  1.
</event>
<event>
 7    1  0.2438448E-008  0.4614232E+02  0.7816164E-02  0.1320468E+00
        -11   -1    0    0    0    0  0.00000000000E+00  0.00000000000E+00  0.45593999997E+02  0.45594000000E+02  0.51100000000E-03 0. -1.
         11   -1    0    0    0    0 -0.00000000000E+00 -0.00000000000E+00 -0.45593999997E+02  0.45594000000E+02  0.51100000000E-03 0.  1.
    9900012    2    1    2    0    0  0.55336607539E+01  0.44252799680E+02 -0.63389134232E+01  0.46142317585E+02  0.99999983967E+01 0.  0.
         12    1    1    2    0    0 -0.55336607539E+01 -0.44252799680E+02  0.63389134232E+01  0.45045682415E+02  0.00000000000E+00 0. -1.
         11    1    3    3    0    0  0.16282495552E+01  0.16545594972E+02  0.12059926626E+01  0.16669202985E+02  0.51100000000E-03 0. -1.
        -11    1    3    3    0    0  0.24314691341E+01  0.25608988904E+02 -0.57952375500E+01  0.26368866744E+02  0.51100000000E-03 0.  1.
         12    1    3    3    0    0  0.14739420645E+01  0.20982158032E+01 -0.17496685358E+01  0.31042478560E+01  0.00000000000E+00 0. -1.
</event>
<event>
 7    1  0.2438448E-008  0.4614232E+02  0.7816164E-02  0.1320468E+00
        -11   -1    0    0    0    0  0.00000000000E+00  0.00000000000E+00  0.45593999997E+02  0.45594000000E+02  0.51100000000E-03 0.  1.
         11   -1    0    0    0    0 -0.00000000000E+00 -0.00000000000E+00 -0.45593999997E+02  0.45594000000E+02  0.51100000000E-03 0. -1.
    9900012    2    1    2    0    0 -0.10341642252E+02 -0.21690254569E+02  0.38101137968E+02  0.46142318496E+02  0.10000006699E+02 0.  0.
         12    1    1    2    0    0  0.10341642252E+02  0.21690254569E+02 -0.38101137968E+02  0.45045681504E+02  0.00000000000E+00 0. -1.
         11    1    3    3    0    0 -0.11670291445E+01 -0.54680347729E+01  0.13651392986E+02  0.14752013152E+02  0.51100000000E-03 0. -1.
        -11    1    3    3    0    0 -0.65266073557E+01 -0.15675563593E+02  0.21269290966E+02  0.27215852660E+02  0.51100000000E-03 0.  1.
         12    1    3    3    0    0 -0.26480057517E+01 -0.54665620226E+00  0.31804540155E+01  0.41744526838E+01  0.00000000000E+00 0. -1.
</event>
<event>
 7    1  0.2438448E-008  0.4614232E+02  0.7816164E-02  0.1320468E+00
        -11   -1    0    0    0    0  0.00000000000E+00  0.00000000000E+00  0.45593999997E+02  0.45594000000E+02  0.51100000000E-03 0.  1.
         11   -1    0    0    0    0 -0.00000000000E+00 -0.00000000000E+00 -0.45593999997E+02  0.45594000000E+02  0.51100000000E-03 0. -1.
    9900012    2    1    2    0    0  0.41571047739E+02  0.14097225064E+02  0.10110856037E+02  0.46142321246E+02  0.10000031776E+02 0.  0.
         12    1    1    2    0    0 -0.41571047739E+02 -0.14097225064E+02 -0.10110856037E+02  0.45045678754E+02  0.00000000000E+00 0. -1.
         11    1    3    3    0    0  0.58539545168E+01  0.48654470887E-01  0.84516212495E+00  0.59148499576E+01  0.51100000000E-03 0. -1.
        -11    1    3    3    0    0  0.71273136466E+01  0.49021645634E+01 -0.49123979808E+00  0.86643599893E+01  0.51100000000E-03 0.  1.
        -12    1    3    3    0    0  0.28589779576E+02  0.91464060292E+01  0.97569337103E+01  0.31563111299E+02  0.00000000000E+00 0.  1.
</event>
<event>
 7    1  0.2438448E-008  0.4614233E+02  0.7816164E-02  0.1320468E+00
        -11   -1    0    0    0    0  0.00000000000E+00  0.00000000000E+00  0.45593999997E+02  0.45594000000E+02  0.51100000000E-03 0. -1.
         11   -1    0    0    0    0 -0.00000000000E+00 -0.00000000000E+00 -0.45593999997E+02  0.45594000000E+02  0.51100000000E-03 0.  1.
    9900012    2    1    2    0    0 -0.10568652711E+02 -0.12181494322E+02 -0.42059806750E+02  0.46142327979E+02  0.10000093171E+02 0.  0.
         12    1    1    2    0    0  0.10568652711E+02  0.12181494322E+02  0.42059806750E+02  0.45045672021E+02  0.00000000000E+00 0. -1.
         11    1    3    3    0    0 -0.43651205242E+01 -0.57600232201E+01 -0.23819052556E+02  0.24891352105E+02  0.51100000000E-03 0. -1.
        -11    1    3    3    0    0 -0.24224944815E+01 -0.45605311603E+01 -0.15202869873E+02  0.16055970124E+02  0.51100000000E-03 0.  1.
         12    1    3    3    0    0 -0.37810377052E+01 -0.18609399420E+01 -0.30378843205E+01  0.51950057498E+01  0.00000000000E+00 0. -1.
</event>
<event>
 7    1  0.2438448E-008  0.4614232E+02  0.7816164E-02  0.1320468E+00
        -11   -1    0    0    0    0  0.00000000000E+00  0.00000000000E+00  0.45593999997E+02  0.45594000000E+02  0.51100000000E-03 0.  1.
         11   -1    0    0    0    0 -0.00000000000E+00 -0.00000000000E+00 -0.45593999997E+02  0.45594000000E+02  0.51100000000E-03 0. -1.
    9900012    2    1    2    0    0  0.29941498679E+02 -0.94554137061E+01  0.32298843886E+02  0.46142317545E+02  0.99999980273E+01 0.  0.
         12    1    1    2    0    0 -0.29941498679E+02  0.94554137061E+01 -0.32298843886E+02  0.45045682455E+02  0.00000000000E+00 0. -1.
         11    1    3    3    0    0  0.37859202337E+01 -0.10253392479E+01  0.80113974317E+01  0.89200337252E+01  0.51100000000E-03 0. -1.
        -11    1    3    3    0    0  0.15443485015E+02 -0.50999351941E+01  0.18385553610E+02  0.24546672895E+02  0.51100000000E-03 0.  1.
         12    1    3    3    0    0  0.10712093430E+02 -0.33301392640E+01  0.59018928445E+01  0.12675610925E+02  0.00000000000E+00 0. -1.
</event>
<event>
 7    1  0.2438448E-008  0.4614232E+02  0.7816164E-02  0.1320468E+00
        -11   -1    0    0    0    0  0.00000000000E+00  0.00000000000E+00  0.45593999997E+02  0.45594000000E+02  0.51100000000E-03 0. -1.
         11   -1    0    0    0    0 -0.00000000000E+00 -0.00000000000E+00 -0.45593999997E+02  0.45594000000E+02  0.51100000000E-03 0.  1.
    9900012    2    1    2    0    0  0.17744997758E+02 -0.87470448257E+01 -0.40468728388E+02  0.46142315235E+02  0.99999769630E+01 0.  0.
         12    1    1    2    0    0 -0.17744997758E+02  0.87470448257E+01  0.40468728388E+02  0.45045684765E+02  0.00000000000E+00 0. -1.
         11    1    3    3    0    0  0.78034122530E+01 -0.42197292548E+01 -0.13916986946E+02  0.16503995992E+02  0.51100000000E-03 0. -1.
        -11    1    3    3    0    0  0.10827189180E+02 -0.40519011252E+01 -0.20776177477E+02  0.23775943285E+02  0.51100000000E-03 0.  1.
         12    1    3    3    0    0 -0.88560367457E+00 -0.47541444569E+00 -0.57755639652E+01  0.58623759586E+01  0.00000000000E+00 0. -1.
</event>
<event>
 7    1  0.2438448E-008  0.4614233E+02  0.7816164E-02  0.1320468E+00
        -11   -1    0    0    0    0  0.00000000000E+00  0.00000000000E+00  0.45593999997E+02  0.45594000000E+02  0.51100000000E-03 0. -1.
         11   -1    0    0    0    0 -0.00000000000E+00 -0.00000000000E+00 -0.45593999997E+02  0.45594000000E+02  0.51100000000E-03 0.  1.
    9900012    2    1    2    0    0  0.14900062871E+02 -0.14895041967E+02 -0.39815055147E+02  0.46142325788E+02  0.10000073200E+02 0.  0.
         12    1    1    2    0    0 -0.14900062871E+02  0.14895041967E+02  0.39815055147E+02  0.45045674212E+02  0.00000000000E+00 0. -1.
         11    1    3    3    0    0  0.53133478088E+01 -0.51430326888E+01 -0.20140352387E+02  0.21454981816E+02  0.51100000000E-03 0. -1.
        -11    1    3    3    0    0  0.10024826039E+02 -0.96877775993E+01 -0.19810602100E+02  0.24224164129E+02  0.51100000000E-03 0.  1.
         12    1    3    3    0    0 -0.43811097673E+00 -0.64231679170E-01  0.13589934002E+00  0.46317984322E+00  0.00000000000E+00 0. -1.
</event>
<event>
 7    1  0.2438448E-008  0.4614233E+02  0.7816164E-02  0.1320468E+00
        -11   -1    0    0    0    0  0.00000000000E+00  0.00000000000E+00  0.45593999997E+02  0.45594000000E+02  0.51100000000E-03 0.  1.
         11   -1    0    0    0    0 -0.00000000000E+00 -0.00000000000E+00 -0.45593999997E+02  0.45594000000E+02  0.51100000000E-03 0. -1.
    9900012    2    1    2    0    0 -0.13104932769E+02  0.14950825161E+02  0.40420864163E+02  0.46142326561E+02  0.10000080241E+02 0.  0.
         12    1    1    2    0    0  0.13104932769E+02 -0.14950825161E+02 -0.40420864163E+02  0.45045673439E+02  0.00000000000E+00 0. -1.
         11    1    3    3    0    0 -0.48522252778E+01  0.24303755071E+01  0.65582199247E+01  0.85124064808E+01  0.51100000000E-03 0. -1.
        -11    1    3    3    0    0  0.85242734908E+00  0.34334375859E+01  0.67785176553E+01  0.76461381041E+01  0.51100000000E-03 0.  1.
        -12    1    3    3    0    0 -0.91051348404E+01  0.90870120682E+01  0.27084126583E+02  0.29983781976E+02  0.00000000000E+00 0.  1.
</event>
<event>
 7    1  0.2438448E-008  0.4614232E+02  0.7816164E-02  0.1320468E+00
        -11   -1    0    0    0    0  0.00000000000E+00  0.00000000000E+00  0.45593999997E+02  0.45594000000E+02  0.51100000000E-03 0. -1.
         11   -1    0    0    0    0 -0.00000000000E+00 -0.00000000000E+00 -0.45593999997E+02  0.45594000000E+02  0.51100000000E-03 0.  1.
    9900012    2    1    2    0    0  0.81758190702E+01  0.33766426925E+02 -0.28672249806E+02  0.46142317480E+02  0.99999974360E+01 0.  0.
         12    1    1    2    0    0 -0.81758190702E+01 -0.33766426925E+02  0.28672249806E+02  0.45045682520E+02  0.00000000000E+00 0. -1.
         11    1    3    3    0    0  0.37171898869E+01  0.18496129477E+02 -0.16120802990E+02  0.24815410446E+02  0.51100000000E-03 0. -1.
        -11    1    3    3    0    0  0.43216036797E+01  0.57741176845E+01 -0.80772092785E+01  0.10828573470E+02  0.51100000000E-03 0.  1.
        -12    1    3    3    0    0  0.13702550365E+00  0.94961797631E+01 -0.44742375375E+01  0.10498333564E+02  0.00000000000E+00 0.  1.
</event>
<event>
 7    1  0.2438448E-008  0.4614232E+02  0.7816164E-02  0.1320468E+00
        -11   -1    0    0    0    0  0.00000000000E+00  0.00000000000E+00  0.45593999997E+02  0.45594000000E+02  0.51100000000E-03 0.  1.
         11   -1    0    0    0    0 -0.00000000000E+00 -0.00000000000E+00 -0.45593999997E+02  0.45594000000E+02  0.51100000000E-03 0. -1.
    9900012    2    1    2    0    0 -0.14843113371E+02 -0.42526601866E+02 -0.53236321940E+00  0.46142319947E+02  0.10000019936E+02 0.  0.
         12    1    1    2    0    0  0.14843113371E+02  0.42526601866E+02  0.53236321940E+00  0.45045680053E+02  0.00000000000E+00 0. -1.
         11    1    3    3    0    0 -0.36755880105E+01 -0.54660517780E+01 -0.17485822429E+01  0.68150722215E+01  0.51100000000E-03 0. -1.
        -11    1    3    3    0    0 -0.10747828724E+02 -0.36233254091E+02  0.23447509002E+01  0.37866375339E+02  0.51100000000E-03 0.  1.
        -12    1    3    3    0    0 -0.41969663641E+00 -0.82729599726E+00 -0.11285318767E+01  0.14608723868E+01  0.00000000000E+00 0.  1.
</event>
<event>
 7    1  0.2438448E-008  0.4614232E+02  0.7816164E-02  0.1320468E+00
        -11   -1    0    0    0    0  0.00000000000E+00  0.00000000000E+00  0.45593999997E+02  0.45594000000E+02  0.51100000000E-03 0.  1.
         11   -1    0    0    0    0 -0.00000000000E+00 -0.00000000000E+00 -0.45593999997E+02  0.45594000000E+02  0.51100000000E-03 0. -1.
    9900012    2    1    2    0    0  0.48021020513E+01 -0.44675178544E+02 -0.31908726761E+01  0.46142318404E+02  0.10000005860E+02 0.  0.
         12    1    1    2    0    0 -0.48021020513E+01  0.44675178544E+02  0.31908726761E+01  0.45045681596E+02  0.00000000000E+00 0. -1.
         11    1    3    3    0    0  0.12939603471E+01 -0.17203738964E+01  0.36059066384E+00  0.21826693774E+01  0.51100000000E-03 0. -1.
        -11    1    3    3    0    0 -0.45213760563E+00 -0.78467182575E+01 -0.35612561272E+01  0.86289026702E+01  0.51100000000E-03 0.  1.
         12    1    3    3    0    0  0.39602793098E+01 -0.35108086390E+02  0.97927872450E-02  0.35330746356E+02  0.00000000000E+00 0. -1.
</event>
<event>
 7    1  0.2438448E-008  0.4614232E+02  0.7816164E-02  0.1320468E+00
        -11   -1    0    0    0    0  0.00000000000E+00  0.00000000000E+00  0.45593999997E+02  0.45594000000E+02  0.51100000000E-03 0.  1.
         11   -1    0    0    0    0 -0.00000000000E+00 -0.00000000000E+00 -0.45593999997E+02  0.45594000000E+02  0.51100000000E-03 0. -1.
    9900012    2    1    2    0    0 -0.15585372698E+02  0.18306447370E+02  0.38093091798E+02  0.46142317630E+02  0.99999988055E+01 0.  0.
         12    1    1    2    0    0  0.15585372698E+02 -0.18306447370E+02 -0.38093091798E+02  0.45045682370E+02  0.00000000000E+00 0. -1.
         11    1    3    3    0    0 -0.12340256530E+01 -0.74723148301E-01 -0.23874175168E+00  0.12591269778E+01  0.51100000000E-03 0. -1.
        -11    1    3    3    0    0 -0.11463924465E+01  0.12630972617E+01  0.33644707768E+01  0.37721736709E+01  0.51100000000E-03 0.  1.
         12    1    3    3    0    0 -0.13204954598E+02  0.17118073257E+02  0.34967362773E+02  0.41111016981E+02  0.00000000000E+00 0. -1.
</event>
<event>
 7    1  0.2438448E-008  0.4614232E+02  0.7816164E-02  0.1320468E+00
        -11   -1    0    0    0    0  0.00000000000E+00  0.00000000000E+00  0.45593999997E+02  0.45594000000E+02  0.51100000000E-03 0. -1.
         11   -1    0    0    0    0 -0.00000000000E+00 -0.00000000000E+00 -0.45593999997E+02  0.45594000000E+02  0.51100000000E-03 0.  1.
    9900012    2    1    2    0    0 -0.11971875926E+02  0.33216827353E+02 -0.27971951208E+02  0.46142317777E+02  0.10000000142E+02 0.  0.
         12    1    1    2    0    0  0.11971875926E+02 -0.33216827353E+02  0.27971951208E+02  0.45045682223E+02  0.00000000000E+00 0. -1.
         11    1    3    3    0    0 -0.10513644693E+01  0.10679483999E+02 -0.93398168362E+01  0.14226346141E+02  0.51100000000E-03 0. -1.
        -11    1    3    3    0    0 -0.38418573610E+01  0.62639494627E+01 -0.93400194090E+01  0.11884144634E+02  0.51100000000E-03 0.  1.
        -12    1    3    3    0    0 -0.70786540961E+01  0.16273393891E+02 -0.92921149625E+01  0.20031827002E+02  0.00000000000E+00 0.  1.
</event>
<event>
 7    1  0.2438448E-008  0.4614232E+02  0.7816164E-02  0.1320468E+00
        -11   -1    0    0    0    0  0.00000000000E+00  0.00000000000E+00  0.45593999997E+02  0.45594000000E+02  0.51100000000E-03 0.  1.
         11   -1    0    0    0    0 -0.00000000000E+00 -0.00000000000E+00 -0.45593999997E+02  0.45594000000E+02  0.51100000000E-03 0. -1.
    9900012    2    1    2    0    0  0.55645676880E+01 -0.39780598390E+02  0.20387570476E+02  0.46142318168E+02  0.10000003713E+02 0.  0.
         12    1    1    2    0    0 -0.55645676880E+01  0.39780598390E+02 -0.20387570476E+02  0.45045681832E+02  0.00000000000E+00 0. -1.
         11    1    3    3    0    0  0.72766106690E+01 -0.28385082560E+02  0.14628700869E+02  0.32751501708E+02  0.51100000000E-03 0.  1.
        -11    1    3    3    0    0 -0.65547191481E+00 -0.94431965261E-01 -0.18394432044E-02  0.66224200398E+00  0.51100000000E-03 0. -1.
        -12    1    3    3    0    0 -0.10565710662E+01 -0.11301083865E+02  0.57607090496E+01  0.12728574456E+02  0.00000000000E+00 0.  1.
</event>
<event>
 7    1  0.2438448E-008  0.4614232E+02  0.7816164E-02  0.1320468E+00
        -11   -1    0    0    0    0  0.00000000000E+00  0.00000000000E+00  0.45593999997E+02  0.45594000000E+02  0.51100000000E-03 0.  1.
         11   -1    0    0    0    0 -0.00000000000E+00 -0.00000000000E+00 -0.45593999997E+02  0.45594000000E+02  0.51100000000E-03 0. -1.
    9900012    2    1    2    0    0  0.28876056669E+02  0.12093938741E+02  0.32388631792E+02  0.46142317939E+02  0.10000001619E+02 0.  0.
         12    1    1    2    0    0 -0.28876056669E+02 -0.12093938741E+02 -0.32388631792E+02  0.45045682061E+02  0.00000000000E+00 0. -1.
         11    1    3    3    0    0  0.12295705984E+02  0.81967577606E+01  0.20607530108E+02  0.25358263364E+02  0.51100000000E-03 0.  1.
        -11    1    3    3    0    0  0.76072705874E+01  0.93838276302E+00  0.56185363992E+01  0.95036350692E+01  0.51100000000E-03 0. -1.
        -12    1    3    3    0    0  0.89730800973E+01  0.29587982173E+01  0.61625652850E+01  0.11280419505E+02  0.00000000000E+00 0.  1.
</event>
<event>
 7    1  0.2438448E-008  0.4614232E+02  0.7816164E-02  0.1320468E+00
        -11   -1    0    0    0    0  0.00000000000E+00  0.00000000000E+00  0.45593999997E+02  0.45594000000E+02  0.51100000000E-03 0. -1.
         11   -1    0    0    0    0 -0.00000000000E+00 -0.00000000000E+00 -0.45593999997E+02  0.45594000000E+02  0.51100000000E-03 0.  1.
    9900012    2    1    2    0    0  0.17092192055E+01 -0.44405491449E+02 -0.73718653944E+01  0.46142317626E+02  0.99999987715E+01 0.  0.
         12    1    1    2    0    0 -0.17092192055E+01  0.44405491449E+02  0.73718653944E+01  0.45045682374E+02  0.00000000000E+00 0. -1.
         11    1    3    3    0    0  0.12072269555E+01 -0.13391446139E+02  0.16924130011E+01  0.13551844474E+02  0.51100000000E-03 0.  1.
        -11    1    3    3    0    0  0.37954124430E+00 -0.85100231580E+01 -0.57398031140E+00  0.85377982739E+01  0.51100000000E-03 0. -1.
         12    1    3    3    0    0  0.12245100573E+00 -0.22504022152E+02 -0.84902980841E+01  0.24052674878E+02  0.00000000000E+00 0. -1.
</event>
<event>
 7    1  0.2438448E-008  0.4614232E+02  0.7816164E-02  0.1320468E+00
        -11   -1    0    0    0    0  0.00000000000E+00  0.00000000000E+00  0.45593999997E+02  0.45594000000E+02  0.51100000000E-03 0.  1.
         11   -1    0    0    0    0 -0.00000000000E+00 -0.00000000000E+00 -0.45593999997E+02  0.45594000000E+02  0.51100000000E-03 0. -1.
    9900012    2    1    2    0    0  0.15153518339E+01  0.23221799850E+02  0.38568969070E+02  0.46142315916E+02  0.99999831786E+01 0.  0.
         12    1    1    2    0    0 -0.15153518339E+01 -0.23221799850E+02 -0.38568969070E+02  0.45045684084E+02  0.00000000000E+00 0. -1.
         11    1    3    3    0    0 -0.10718070085E+01  0.69631725424E+01  0.14498559373E+02  0.16119639148E+02  0.51100000000E-03 0. -1.
        -11    1    3    3    0    0  0.13984840428E-01  0.15091738515E+02  0.20846253189E+02  0.25735715247E+02  0.51100000000E-03 0.  1.
         12    1    3    3    0    0  0.25731740020E+01  0.11668887925E+01  0.32241565079E+01  0.42869615214E+01  0.00000000000E+00 0. -1.
</event>
<event>
 7    1  0.2438448E-008  0.4614232E+02  0.7816164E-02  0.1320468E+00
        -11   -1    0    0    0    0  0.00000000000E+00  0.00000000000E+00  0.45593999997E+02  0.45594000000E+02  0.51100000000E-03 0.  1.
         11   -1    0    0    0    0 -0.00000000000E+00 -0.00000000000E+00 -0.45593999997E+02  0.45594000000E+02  0.51100000000E-03 0. -1.
    9900012    2    1    2    0    0 -0.23129256891E+02  0.23232763378E+02  0.30893197986E+02  0.46142317629E+02  0.99999987922E+01 0.  0.
         12    1    1    2    0    0  0.23129256891E+02 -0.23232763378E+02 -0.30893197986E+02  0.45045682371E+02  0.00000000000E+00 0. -1.
         11    1    3    3    0    0 -0.38005331239E+01  0.21366147879E+01  0.54099914117E+01  0.69481783306E+01  0.51100000000E-03 0. -1.
        -11    1    3    3    0    0 -0.77752604927E+01  0.71767794296E+01  0.14773994721E+02  0.18172279962E+02  0.51100000000E-03 0.  1.
        -12    1    3    3    0    0 -0.11553463275E+02  0.13919369160E+02  0.10709211853E+02  0.21021859337E+02  0.00000000000E+00 0.  1.
</event>
<event>
 7    1  0.2438448E-008  0.4614232E+02  0.7816164E-02  0.1320468E+00
        -11   -1    0    0    0    0  0.00000000000E+00  0.00000000000E+00  0.45593999997E+02  0.45594000000E+02  0.51100000000E-03 0.  1.
         11   -1    0    0    0    0 -0.00000000000E+00 -0.00000000000E+00 -0.45593999997E+02  0.45594000000E+02  0.51100000000E-03 0. -1.
    9900012    2    1    2    0    0  0.29596969512E+02 -0.31825063362E+02  0.11844756171E+02  0.46142317510E+02  0.99999977059E+01 0.  0.
         12    1    1    2    0    0 -0.29596969512E+02  0.31825063362E+02 -0.11844756171E+02  0.45045682490E+02  0.00000000000E+00 0. -1.
         11    1    3    3    0    0  0.11491484410E+02 -0.12046447725E+02  0.77936326147E+01  0.18382378147E+02  0.51100000000E-03 0. -1.
        -11    1    3    3    0    0  0.14286967946E+02 -0.16502123612E+02  0.55271302571E+01  0.22516365292E+02  0.51100000000E-03 0.  1.
        -12    1    3    3    0    0  0.38185171561E+01 -0.32764920245E+01 -0.14760067010E+01  0.52435740711E+01  0.00000000000E+00 0.  1.
</event>
<event>
 7    1  0.2438448E-008  0.4614232E+02  0.7816164E-02  0.1320468E+00
        -11   -1    0    0    0    0  0.00000000000E+00  0.00000000000E+00  0.45593999997E+02  0.45594000000E+02  0.51100000000E-03 0.  1.
         11   -1    0    0    0    0 -0.00000000000E+00 -0.00000000000E+00 -0.45593999997E+02  0.45594000000E+02  0.51100000000E-03 0. -1.
    9900012    2    1    2    0    0  0.32084727868E+02 -0.31040574662E+02  0.60138545815E+01  0.46142317802E+02  0.10000000375E+02 0.  0.
         12    1    1    2    0    0 -0.32084727868E+02  0.31040574662E+02 -0.60138545815E+01  0.45045682198E+02  0.00000000000E+00 0. -1.
         11    1    3    3    0    0  0.59379864446E+01 -0.27396781995E+01  0.67955707234E+00  0.65747484917E+01  0.51100000000E-03 0. -1.
        -11    1    3    3    0    0  0.23892907843E+02 -0.21934772845E+02  0.48713244988E+01  0.32798400991E+02  0.51100000000E-03 0.  1.
         12    1    3    3    0    0  0.22538335807E+01 -0.63661236178E+01  0.46297301036E+00  0.67691683193E+01  0.00000000000E+00 0. -1.
</event>
<event>
 7    1  0.2507773E-008  0.4614232E+02  0.7816164E-02  0.1320468E+00
        -11   -1    0    0    0    0  0.00000000000E+00  0.00000000000E+00  0.45593999997E+02  0.45594000000E+02  0.51100000000E-03 0.  1.
         11   -1    0    0    0    0 -0.00000000000E+00 -0.00000000000E+00 -0.45593999997E+02  0.45594000000E+02  0.51100000000E-03 0. -1.
    9900012    2    1    2    0    0 -0.26256083203E+02 -0.36578146815E+02  0.13307210780E+01  0.46142317097E+02  0.99999939449E+01 0.  0.
         12    1    1    2    0    0  0.26256083203E+02  0.36578146815E+02 -0.13307210780E+01  0.45045682903E+02  0.00000000000E+00 0. -1.
         11    1    3    3    0    0 -0.10986842806E+02 -0.16103401520E+02 -0.23341889990E+00  0.19495762103E+02  0.51100000000E-03 0. -1.
        -11    1    3    3    0    0 -0.14740739702E+02 -0.18479785016E+02 -0.61296863493E+00  0.23646724763E+02  0.51100000000E-03 0.  1.
         12    1    3    3    0    0 -0.52850069493E+00 -0.19949602797E+01  0.21771086129E+01  0.29998302309E+01  0.00000000000E+00 0. -1.
</event>
<event>
 7    1  0.2438448E-008  0.4614232E+02  0.7816164E-02  0.1320468E+00
        -11   -1    0    0    0    0  0.00000000000E+00  0.00000000000E+00  0.45593999997E+02  0.45594000000E+02  0.51100000000E-03 0.  1.
         11   -1    0    0    0    0 -0.00000000000E+00 -0.00000000000E+00 -0.45593999997E+02  0.45594000000E+02  0.51100000000E-03 0. -1.
    9900012    2    1    2    0    0  0.19686152577E+02  0.13709654493E+02  0.38126292851E+02  0.46142318340E+02  0.10000005282E+02 0.  0.
         12    1    1    2    0    0 -0.19686152577E+02 -0.13709654493E+02 -0.38126292851E+02  0.45045681660E+02  0.00000000000E+00 0. -1.
         11    1    3    3    0    0  0.85243640806E+01  0.31391894342E+01  0.18608029475E+02  0.20706956668E+02  0.51100000000E-03 0.  1.
        -11    1    3    3    0    0  0.46146235306E+01  0.19238981038E+01  0.35484744212E+01  0.61308894316E+01  0.51100000000E-03 0. -1.
         12    1    3    3    0    0  0.65471649661E+01  0.86465669546E+01  0.15969788955E+02  0.19304472240E+02  0.00000000000E+00 0. -1.
</event>
<event>
 7    1  0.2438448E-008  0.4614232E+02  0.7816164E-02  0.1320468E+00
        -11   -1    0    0    0    0  0.00000000000E+00  0.00000000000E+00  0.45593999997E+02  0.45594000000E+02  0.51100000000E-03 0.  1.
         11   -1    0    0    0    0 -0.00000000000E+00 -0.00000000000E+00 -0.45593999997E+02  0.45594000000E+02  0.51100000000E-03 0. -1.
    9900012    2    1    2    0    0 -0.12303980666E+02 -0.39901759194E+02  0.16898969133E+02  0.46142317801E+02  0.10000000364E+02 0.  0.
         12    1    1    2    0    0  0.12303980666E+02  0.39901759194E+02 -0.16898969133E+02  0.45045682199E+02  0.00000000000E+00 0. -1.
         11    1    3    3    0    0  0.57247482736E+00 -0.42596250468E+01  0.36858788685E+01  0.56619639933E+01  0.51100000000E-03 0. -1.
        -11    1    3    3    0    0  0.34114161408E+00 -0.25960913922E+01  0.37889116300E+00  0.26456807993E+01  0.51100000000E-03 0.  1.
        -12    1    3    3    0    0 -0.13217597107E+02 -0.33046042755E+02  0.12834199101E+02  0.37834673008E+02  0.00000000000E+00 0.  1.
</event>
<event>
 7    1  0.2438448E-008  0.4614232E+02  0.7816164E-02  0.1320468E+00
        -11   -1    0    0    0    0  0.00000000000E+00  0.00000000000E+00  0.45593999997E+02  0.45594000000E+02  0.51100000000E-03 0.  1.
         11   -1    0    0    0    0 -0.00000000000E+00 -0.00000000000E+00 -0.45593999997E+02  0.45594000000E+02  0.51100000000E-03 0. -1.
    9900012    2    1    2    0    0  0.38236368633E+02  0.23683701123E+02 -0.24851463326E+01  0.46142317217E+02  0.99999950363E+01 0.  0.
         12    1    1    2    0    0 -0.38236368633E+02 -0.23683701123E+02  0.24851463326E+01  0.45045682783E+02  0.00000000000E+00 0. -1.
         11    1    3    3    0    0  0.48163186435E+01  0.31015817278E+01 -0.16437439151E+01  0.59597507338E+01  0.51100000000E-03 0. -1.
        -11    1    3    3    0    0  0.26947539488E+02  0.12194660672E+02 -0.73926716208E+00  0.29587601281E+02  0.51100000000E-03 0.  1.
         12    1    3    3    0    0  0.64725105013E+01  0.83874587228E+01 -0.10213525548E+00  0.10594965202E+02  0.00000000000E+00 0. -1.
</event>
<event>
 7    1  0.2438448E-008  0.4614232E+02  0.7816164E-02  0.1320468E+00
        -11   -1    0    0    0    0  0.00000000000E+00  0.00000000000E+00  0.45593999997E+02  0.45594000000E+02  0.51100000000E-03 0.  1.
         11   -1    0    0    0    0 -0.00000000000E+00 -0.00000000000E+00 -0.45593999997E+02  0.45594000000E+02  0.51100000000E-03 0. -1.
    9900012    2    1    2    0    0 -0.18623861813E+02  0.26310026141E+02  0.31465024933E+02  0.46142317649E+02  0.99999989811E+01 0.  0.
         12    1    1    2    0    0  0.18623861813E+02 -0.26310026141E+02 -0.31465024933E+02  0.45045682351E+02  0.00000000000E+00 0. -1.
         11    1    3    3    0    0 -0.24487583530E+01 -0.33031800530E+00  0.16759819843E+01  0.29857065041E+01  0.51100000000E-03 0. -1.
        -11    1    3    3    0    0 -0.11361758300E+02  0.18864681783E+02  0.19808348416E+02  0.29619865592E+02  0.51100000000E-03 0.  1.
        -12    1    3    3    0    0 -0.48133451598E+01  0.77756623633E+01  0.99806945323E+01  0.13536745553E+02  0.00000000000E+00 0.  1.
</event>
<event>
 7    1  0.2438448E-008  0.4614232E+02  0.7816164E-02  0.1320468E+00
        -11   -1    0    0    0    0  0.00000000000E+00  0.00000000000E+00  0.45593999997E+02  0.45594000000E+02  0.51100000000E-03 0.  1.
         11   -1    0    0    0    0 -0.00000000000E+00 -0.00000000000E+00 -0.45593999997E+02  0.45594000000E+02  0.51100000000E-03 0. -1.
    9900012    2    1    2    0    0 -0.82639188255E+01  0.34730155676E+02  0.27470663846E+02  0.46142318300E+02  0.10000004915E+02 0.  0.
         12    1    1    2    0    0  0.82639188255E+01 -0.34730155676E+02 -0.27470663846E+02  0.45045681700E+02  0.00000000000E+00 0. -1.
         11    1    3    3    0    0  0.51792695600E+00 -0.42539589925E-01  0.99782755280E+00  0.11250413480E+01  0.51100000000E-03 0. -1.
        -11    1    3    3    0    0 -0.40086747928E+00  0.11149596462E+02  0.60938496081E+01  0.12712560690E+02  0.51100000000E-03 0.  1.
        -12    1    3    3    0    0 -0.83809783023E+01  0.23623098804E+02  0.20378986686E+02  0.32304716262E+02  0.00000000000E+00 0.  1.
</event>
<event>
 7    1  0.2438448E-008  0.4614232E+02  0.7816164E-02  0.1320468E+00
        -11   -1    0    0    0    0  0.00000000000E+00  0.00000000000E+00  0.45593999997E+02  0.45594000000E+02  0.51100000000E-03 0. -1.
         11   -1    0    0    0    0 -0.00000000000E+00 -0.00000000000E+00 -0.45593999997E+02  0.45594000000E+02  0.51100000000E-03 0.  1.
    9900012    2    1    2    0    0 -0.15380291213E+02  0.18663197343E+02 -0.38003226692E+02  0.46142317279E+02  0.99999956010E+01 0.  0.
         12    1    1    2    0    0  0.15380291213E+02 -0.18663197343E+02  0.38003226692E+02  0.45045682721E+02  0.00000000000E+00 0. -1.
         11    1    3    3    0    0 -0.38875751831E+01  0.85626752868E+01 -0.15378613036E+02  0.18025936538E+02  0.51100000000E-03 0. -1.
        -11    1    3    3    0    0 -0.48653634529E+01  0.79239258595E+01 -0.97472977208E+01  0.13471086655E+02  0.51100000000E-03 0.  1.
         12    1    3    3    0    0 -0.66273525774E+01  0.21765961962E+01 -0.12877315934E+02  0.14645294086E+02  0.00000000000E+00 0. -1.
</event>
<event>
 7    1  0.2438448E-008  0.4614232E+02  0.7816164E-02  0.1320468E+00
        -11   -1    0    0    0    0  0.00000000000E+00  0.00000000000E+00  0.45593999997E+02  0.45594000000E+02  0.51100000000E-03 0. -1.
         11   -1    0    0    0    0 -0.00000000000E+00 -0.00000000000E+00 -0.45593999997E+02  0.45594000000E+02  0.51100000000E-03 0.  1.
    9900012    2    1    2    0    0  0.36683829376E+02 -0.53274091916E+01 -0.25593530924E+02  0.46142318170E+02  0.10000003731E+02 0.  0.
         12    1    1    2    0    0 -0.36683829376E+02  0.53274091916E+01  0.25593530924E+02  0.45045681830E+02  0.00000000000E+00 0. -1.
         11    1    3    3    0    0  0.55286301417E+01 -0.22748334383E+01 -0.46066706075E+01  0.75473195748E+01  0.51100000000E-03 0.  1.
        -11    1    3    3    0    0  0.24883998278E+02 -0.48103262266E+01 -0.19329694614E+02  0.31874593375E+02  0.51100000000E-03 0. -1.
        -12    1    3    3    0    0  0.62712009565E+01  0.17577504732E+01 -0.16571657016E+01  0.67204052204E+01  0.00000000000E+00 0.  1.
</event>
<event>
 7    1  0.2438448E-008  0.4614232E+02  0.7816164E-02  0.1320468E+00
        -11   -1    0    0    0    0  0.00000000000E+00  0.00000000000E+00  0.45593999997E+02  0.45594000000E+02  0.51100000000E-03 0.  1.
         11   -1    0    0    0    0 -0.00000000000E+00 -0.00000000000E+00 -0.45593999997E+02  0.45594000000E+02  0.51100000000E-03 0. -1.
    9900012    2    1    2    0    0  0.42649767757E+02 -0.71442634001E+01  0.12612310170E+02  0.46142316999E+02  0.99999930479E+01 0.  0.
         12    1    1    2    0    0 -0.42649767757E+02  0.71442634001E+01 -0.12612310170E+02  0.45045683001E+02  0.00000000000E+00 0. -1.
         11    1    3    3    0    0 -0.42098436169E+00 -0.11646076989E+00  0.25726219735E+00  0.50692705887E+00  0.51100000000E-03 0. -1.
        -11    1    3    3    0    0  0.26029915960E+02 -0.53142216298E+01  0.98117615513E+01  0.28320807570E+02  0.51100000000E-03 0.  1.
        -12    1    3    3    0    0  0.17040836158E+02 -0.17135810003E+01  0.25432864213E+01  0.17314582370E+02  0.00000000000E+00 0.  1.
</event>
<event>
 7    1  0.2438448E-008  0.4614232E+02  0.7816164E-02  0.1320468E+00
        -11   -1    0    0    0    0  0.00000000000E+00  0.00000000000E+00  0.45593999997E+02  0.45594000000E+02  0.51100000000E-03 0.  1.
         11   -1    0    0    0    0 -0.00000000000E+00 -0.00000000000E+00 -0.45593999997E+02  0.45594000000E+02  0.51100000000E-03 0. -1.
    9900012    2    1    2    0    0 -0.24701537195E+02 -0.35741207124E+02  0.11895953867E+02  0.46142317134E+02  0.99999942793E+01 0.  0.
         12    1    1    2    0    0  0.24701537195E+02  0.35741207124E+02 -0.11895953867E+02  0.45045682866E+02  0.00000000000E+00 0. -1.
         11    1    3    3    0    0 -0.31364945475E+01 -0.35366701220E+01  0.19563505905E+01  0.51159497156E+01  0.51100000000E-03 0. -1.
        -11    1    3    3    0    0 -0.21878896932E+02 -0.32224366076E+02  0.10538073352E+02  0.40350302232E+02  0.51100000000E-03 0.  1.
        -12    1    3    3    0    0  0.31385428451E+00  0.19829073976E-01 -0.59847007606E+00  0.67606518622E+00  0.00000000000E+00 0.  1.
</event>
<event>
 7    1  0.2438448E-008  0.4614232E+02  0.7816164E-02  0.1320468E+00
        -11   -1    0    0    0    0  0.00000000000E+00  0.00000000000E+00  0.45593999997E+02  0.45594000000E+02  0.51100000000E-03 0.  1.
         11   -1    0    0    0    0 -0.00000000000E+00 -0.00000000000E+00 -0.45593999997E+02  0.45594000000E+02  0.51100000000E-03 0. -1.
    9900012    2    1    2    0    0 -0.38448740066E+02  0.11769790760E+02  0.20304676841E+02  0.46142317756E+02  0.99999999517E+01 0.  0.
         12    1    1    2    0    0  0.38448740066E+02 -0.11769790760E+02 -0.20304676841E+02  0.45045682244E+02  0.00000000000E+00 0. -1.
         11    1    3    3    0    0 -0.40811911990E+01  0.91556937830E+00  0.49698858146E+01  0.64957027457E+01  0.51100000000E-03 0. -1.
        -11    1    3    3    0    0 -0.24052064609E+02  0.51448532262E+01  0.85275880604E+01  0.26032500553E+02  0.51100000000E-03 0.  1.
         12    1    3    3    0    0 -0.10315484258E+02  0.57093681552E+01  0.68072029665E+01  0.13614114457E+02  0.00000000000E+00 0. -1.
</event>
<event>
 7    1  0.2438448E-008  0.4614232E+02  0.7816164E-02  0.1320468E+00
        -11   -1    0    0    0    0  0.00000000000E+00  0.00000000000E+00  0.45593999997E+02  0.45594000000E+02  0.51100000000E-03 0.  1.
         11   -1    0    0    0    0 -0.00000000000E+00 -0.00000000000E+00 -0.45593999997E+02  0.45594000000E+02  0.51100000000E-03 0. -1.
    9900012    2    1    2    0    0  0.41323567387E+02  0.94733527424E+01 -0.15222740725E+02  0.46142317977E+02  0.10000001967E+02 0.  0.
         12    1    1    2    0    0 -0.41323567387E+02 -0.94733527424E+01  0.15222740725E+02  0.45045682023E+02  0.00000000000E+00 0. -1.
         11    1    3    3    0    0  0.93901170132E+01  0.67287847212E+00 -0.15102245299E+01  0.95345603649E+01  0.51100000000E-03 0.  1.
        -11    1    3    3    0    0  0.31336848768E+02  0.84486485675E+01 -0.11734479261E+02  0.34511965420E+02  0.51100000000E-03 0. -1.
         12    1    3    3    0    0  0.59660160522E+00  0.35182570275E+00 -0.19780369340E+01  0.20957921922E+01  0.00000000000E+00 0. -1.
</event>
<event>
 7    1  0.2438448E-008  0.4614232E+02  0.7816164E-02  0.1320468E+00
        -11   -1    0    0    0    0  0.00000000000E+00  0.00000000000E+00  0.45593999997E+02  0.45594000000E+02  0.51100000000E-03 0. -1.
         11   -1    0    0    0    0 -0.00000000000E+00 -0.00000000000E+00 -0.45593999997E+02  0.45594000000E+02  0.51100000000E-03 0.  1.
    9900012    2    1    2    0    0  0.20315488835E+02  0.39657572406E+02 -0.66084230338E+01  0.46142318845E+02  0.10000009884E+02 0.  0.
         12    1    1    2    0    0 -0.20315488835E+02 -0.39657572406E+02  0.66084230338E+01  0.45045681155E+02  0.00000000000E+00 0. -1.
         11    1    3    3    0    0  0.13635255576E+01  0.21932226287E+01  0.37593518231E+00  0.26097423182E+01  0.51100000000E-03 0. -1.
        -11    1    3    3    0    0  0.13690474703E+02  0.25590100682E+02 -0.90084643685E+01  0.30388069716E+02  0.51100000000E-03 0.  1.
        -12    1    3    3    0    0  0.52614885741E+01  0.11874249095E+02  0.20241061525E+01  0.13144506810E+02  0.00000000000E+00 0.  1.
</event>
<event>
 7    1  0.2438448E-008  0.4614232E+02  0.7816164E-02  0.1320468E+00
        -11   -1    0    0    0    0  0.00000000000E+00  0.00000000000E+00  0.45593999997E+02  0.45594000000E+02  0.51100000000E-03 0.  1.
         11   -1    0    0    0    0 -0.00000000000E+00 -0.00000000000E+00 -0.45593999997E+02  0.45594000000E+02  0.51100000000E-03 0. -1.
    9900012    2    1    2    0    0 -0.16420403210E+02 -0.23059695605E+01  0.41882768100E+02  0.46142318732E+02  0.10000008849E+02 0.  0.
         12    1    1    2    0    0  0.16420403210E+02  0.23059695605E+01 -0.41882768100E+02  0.45045681268E+02  0.00000000000E+00 0. -1.
         11    1    3    3    0    0 -0.12352733730E+01 -0.20783137336E+01  0.22970907844E+01  0.33349534651E+01  0.51100000000E-03 0. -1.
        -11    1    3    3    0    0 -0.14122816206E+02  0.61299956495E+00  0.30444016174E+02  0.33565872954E+02  0.51100000000E-03 0.  1.
        -12    1    3    3    0    0 -0.10623136308E+01 -0.84065539189E+00  0.91416611418E+01  0.92414923129E+01  0.00000000000E+00 0.  1.
</event>
<event>
 7    1  0.2438448E-008  0.4614232E+02  0.7816164E-02  0.1320468E+00
        -11   -1    0    0    0    0  0.00000000000E+00  0.00000000000E+00  0.45593999997E+02  0.45594000000E+02  0.51100000000E-03 0.  1.
         11   -1    0    0    0    0 -0.00000000000E+00 -0.00000000000E+00 -0.45593999997E+02  0.45594000000E+02  0.51100000000E-03 0. -1.
    9900012    2    1    2    0    0 -0.51359050246E+01  0.40001011647E+02 -0.20066268114E+02  0.46142316863E+02  0.99999918148E+01 0.  0.
         12    1    1    2    0    0  0.51359050246E+01 -0.40001011647E+02  0.20066268114E+02  0.45045683137E+02  0.00000000000E+00 0. -1.
         11    1    3    3    0    0 -0.46346887148E+01  0.11482127173E+02 -0.47035812748E+01  0.13245499650E+02  0.51100000000E-03 0. -1.
        -11    1    3    3    0    0  0.14088926828E+00  0.42167782537E+01 -0.15612970320E+00  0.42220191108E+01  0.51100000000E-03 0.  1.
         12    1    3    3    0    0 -0.64210557815E+00  0.24302106221E+02 -0.15206557136E+02  0.28674798103E+02  0.00000000000E+00 0. -1.
</event>
<event>
 7    1  0.2438448E-008  0.4614232E+02  0.7816164E-02  0.1320468E+00
        -11   -1    0    0    0    0  0.00000000000E+00  0.00000000000E+00  0.45593999997E+02  0.45594000000E+02  0.51100000000E-03 0.  1.
         11   -1    0    0    0    0 -0.00000000000E+00 -0.00000000000E+00 -0.45593999997E+02  0.45594000000E+02  0.51100000000E-03 0. -1.
    9900012    2    1    2    0    0 -0.29387929997E+01 -0.42499662064E+02  0.14637473211E+02  0.46142318721E+02  0.10000008756E+02 0.  0.
         12    1    1    2    0    0  0.29387929997E+01  0.42499662064E+02 -0.14637473211E+02  0.45045681279E+02  0.00000000000E+00 0. -1.
         11    1    3    3    0    0 -0.61343961478E-01 -0.73950518732E+01  0.52959833802E+01  0.90960428491E+01  0.51100000000E-03 0.  1.
        -11    1    3    3    0    0  0.17170093301E+01 -0.15392151034E+02  0.55591501257E+01  0.16455108170E+02  0.51100000000E-03 0. -1.
         12    1    3    3    0    0 -0.45944583683E+01 -0.19712459157E+02  0.37823397048E+01  0.20591167702E+02  0.00000000000E+00 0. -1.
</event>
<event>
 7    1  0.2438448E-008  0.4614232E+02  0.7816164E-02  0.1320468E+00
        -11   -1    0    0    0    0  0.00000000000E+00  0.00000000000E+00  0.45593999997E+02  0.45594000000E+02  0.51100000000E-03 0. -1.
         11   -1    0    0    0    0 -0.00000000000E+00 -0.00000000000E+00 -0.45593999997E+02  0.45594000000E+02  0.51100000000E-03 0.  1.
    9900012    2    1    2    0    0 -0.35526630621E+02 -0.26981916018E+02  0.62408485621E+01  0.46142318009E+02  0.10000002259E+02 0.  0.
         12    1    1    2    0    0  0.35526630621E+02  0.26981916018E+02 -0.62408485621E+01  0.45045681991E+02  0.00000000000E+00 0. -1.
         11    1    3    3    0    0 -0.49398362065E+00 -0.77995045170E+00  0.17543967780E+01  0.19824860252E+01  0.51100000000E-03 0. -1.
        -11    1    3    3    0    0 -0.53278980444E+01 -0.24506396522E+01  0.11934948592E+01  0.59846940202E+01  0.51100000000E-03 0.  1.
         12    1    3    3    0    0 -0.29704748956E+02 -0.23751325914E+02  0.32929569250E+01  0.38175137963E+02  0.00000000000E+00 0. -1.
</event>
<event>
 7    1  0.3842681E-008  0.4614232E+02  0.7816164E-02  0.1320468E+00
        -11   -1    0    0    0    0  0.00000000000E+00  0.00000000000E+00  0.45593999997E+02  0.45594000000E+02  0.51100000000E-03 0.  1.
         11   -1    0    0    0    0 -0.00000000000E+00 -0.00000000000E+00 -0.45593999997E+02  0.45594000000E+02  0.51100000000E-03 0. -1.
    9900012    2    1    2    0    0 -0.42452969254E+02  0.63857817850E+01  0.13641141624E+02  0.46142317052E+02  0.99999935326E+01 0.  0.
         12    1    1    2    0    0  0.42452969254E+02 -0.63857817850E+01 -0.13641141624E+02  0.45045682948E+02  0.00000000000E+00 0. -1.
         11    1    3    3    0    0 -0.12829882679E+02  0.35291382986E+01  0.56269796200E+01  0.14447269867E+02  0.51100000000E-03 0. -1.
        -11    1    3    3    0    0 -0.25186943726E+02  0.23946376207E+01  0.94526400321E+01  0.27008680594E+02  0.51100000000E-03 0.  1.
         12    1    3    3    0    0 -0.44361428479E+01  0.46200586574E+00 -0.14384780279E+01  0.46863665908E+01  0.00000000000E+00 0. -1.
</event>
<event>
 7    1  0.2438448E-008  0.4614232E+02  0.7816164E-02  0.1320468E+00
        -11   -1    0    0    0    0  0.00000000000E+00  0.00000000000E+00  0.45593999997E+02  0.45594000000E+02  0.51100000000E-03 0. -1.
         11   -1    0    0    0    0 -0.00000000000E+00 -0.00000000000E+00 -0.45593999997E+02  0.45594000000E+02  0.51100000000E-03 0.  1.
    9900012    2    1    2    0    0 -0.14091540853E+02 -0.32862538082E+02  0.27396999542E+02  0.46142317446E+02  0.99999971311E+01 0.  0.
         12    1    1    2    0    0  0.14091540853E+02  0.32862538082E+02 -0.27396999542E+02  0.45045682554E+02  0.00000000000E+00 0. -1.
         11    1    3    3    0    0 -0.13324145603E+01 -0.74859810191E+01  0.85983005449E+01  0.11478066601E+02  0.51100000000E-03 0. -1.
        -11    1    3    3    0    0 -0.32075985076E+01 -0.12777616176E+02  0.10242160075E+02  0.16687061053E+02  0.51100000000E-03 0.  1.
        -12    1    3    3    0    0 -0.95515277849E+01 -0.12598940887E+02  0.85565389221E+01  0.17977189792E+02  0.00000000000E+00 0.  1.
</event>
<event>
 7    1  0.2438448E-008  0.4614232E+02  0.7816164E-02  0.1320468E+00
        -11   -1    0    0    0    0  0.00000000000E+00  0.00000000000E+00  0.45593999997E+02  0.45594000000E+02  0.51100000000E-03 0.  1.
         11   -1    0    0    0    0 -0.00000000000E+00 -0.00000000000E+00 -0.45593999997E+02  0.45594000000E+02  0.51100000000E-03 0. -1.
    9900012    2    1    2    0    0  0.20337535460E+02 -0.22706679114E+02  0.33164810310E+02  0.46142320208E+02  0.10000022314E+02 0.  0.
         12    1    1    2    0    0 -0.20337535460E+02  0.22706679114E+02 -0.33164810310E+02  0.45045679792E+02  0.00000000000E+00 0. -1.
         11    1    3    3    0    0  0.29618301593E+01 -0.30122613164E+01  0.22682360980E+01  0.47948984753E+01  0.51100000000E-03 0. -1.
        -11    1    3    3    0    0  0.15491071897E+02 -0.12263882823E+02  0.23393568962E+02  0.30620829503E+02  0.51100000000E-03 0.  1.
         12    1    3    3    0    0  0.18846334040E+01 -0.74305349748E+01  0.75030052506E+01  0.10726592230E+02  0.00000000000E+00 0. -1.
</event>
<event>
 7    1  0.2438448E-008  0.4614232E+02  0.7816164E-02  0.1320468E+00
        -11   -1    0    0    0    0  0.00000000000E+00  0.00000000000E+00  0.45593999997E+02  0.45594000000E+02  0.51100000000E-03 0. -1.
         11   -1    0    0    0    0 -0.00000000000E+00 -0.00000000000E+00 -0.45593999997E+02  0.45594000000E+02  0.51100000000E-03 0.  1.
    9900012    2    1    2    0    0  0.30517460997E+02  0.22302910353E+02 -0.24502617738E+02  0.46142317500E+02  0.99999976165E+01 0.  0.
         12    1    1    2    0    0 -0.30517460997E+02 -0.22302910353E+02  0.24502617738E+02  0.45045682500E+02  0.00000000000E+00 0. -1.
         11    1    3    3    0    0  0.62756003366E-01 -0.15804006900E+00 -0.98524262762E+00  0.99980911967E+00  0.51100000000E-03 0. -1.
        -11    1    3    3    0    0  0.74257779381E+01  0.90248145487E+01 -0.51824143617E+01  0.12784634312E+02  0.51100000000E-03 0.  1.
        -12    1    3    3    0    0  0.23028927055E+02  0.13436135873E+02 -0.18334960749E+02  0.32357874068E+02  0.00000000000E+00 0.  1.
</event>
<event>
 7    1  0.2438448E-008  0.4614232E+02  0.7816164E-02  0.1320468E+00
        -11   -1    0    0    0    0  0.00000000000E+00  0.00000000000E+00  0.45593999997E+02  0.45594000000E+02  0.51100000000E-03 0. -1.
         11   -1    0    0    0    0 -0.00000000000E+00 -0.00000000000E+00 -0.45593999997E+02  0.45594000000E+02  0.51100000000E-03 0.  1.
    9900012    2    1    2    0    0 -0.32403009009E+02 -0.25437385864E+02 -0.18223550628E+02  0.46142318853E+02  0.10000009959E+02 0.  0.
         12    1    1    2    0    0  0.32403009009E+02  0.25437385864E+02  0.18223550628E+02  0.45045681147E+02  0.00000000000E+00 0. -1.
         11    1    3    3    0    0 -0.31386981437E+02 -0.23293036598E+02 -0.15233678482E+02  0.41949649796E+02  0.51100000000E-03 0. -1.
        -11    1    3    3    0    0 -0.14161034266E+01 -0.20774863403E+01 -0.27278249215E+01  0.37097611072E+01  0.51100000000E-03 0.  1.
         12    1    3    3    0    0  0.40007585425E+00 -0.66862926418E-01 -0.26204722462E+00  0.48290794983E+00  0.00000000000E+00 0. -1.
</event>
<event>
 7    1  0.2438448E-008  0.4614232E+02  0.7816164E-02  0.1320468E+00
        -11   -1    0    0    0    0  0.00000000000E+00  0.00000000000E+00  0.45593999997E+02  0.45594000000E+02  0.51100000000E-03 0.  1.
         11   -1    0    0    0    0 -0.00000000000E+00 -0.00000000000E+00 -0.45593999997E+02  0.45594000000E+02  0.51100000000E-03 0. -1.
    9900012    2    1    2    0    0  0.25286397524E+01  0.37052170612E+02  0.25492275673E+02  0.46142317798E+02  0.10000000335E+02 0.  0.
         12    1    1    2    0    0 -0.25286397524E+01 -0.37052170612E+02 -0.25492275673E+02  0.45045682202E+02  0.00000000000E+00 0. -1.
         11    1    3    3    0    0 -0.43195178351E+00  0.32526792454E+01  0.15298351335E+01  0.36203453445E+01  0.51100000000E-03 0. -1.
        -11    1    3    3    0    0 -0.18845721801E+01  0.23541114114E+02  0.14214178003E+02  0.27564080296E+02  0.51100000000E-03 0.  1.
         12    1    3    3    0    0  0.48451637160E+01  0.10258377253E+02  0.97482625368E+01  0.14957892157E+02  0.00000000000E+00 0. -1.
</event>
<event>
 7    1  0.2438448E-008  0.4614232E+02  0.7816164E-02  0.1320468E+00
        -11   -1    0    0    0    0  0.00000000000E+00  0.00000000000E+00  0.45593999997E+02  0.45594000000E+02  0.51100000000E-03 0.  1.
         11   -1    0    0    0    0 -0.00000000000E+00 -0.00000000000E+00 -0.45593999997E+02  0.45594000000E+02  0.51100000000E-03 0. -1.
    9900012    2    1    2    0    0 -0.18608487784E+02  0.28047501588E+02  0.29936187432E+02  0.46142317844E+02  0.10000000757E+02 0.  0.
         12    1    1    2    0    0  0.18608487784E+02 -0.28047501588E+02 -0.29936187432E+02  0.45045682156E+02  0.00000000000E+00 0. -1.
         11    1    3    3    0    0 -0.37560296817E+01  0.12975651461E+02  0.13671952722E+02  0.19219718554E+02  0.51100000000E-03 0. -1.
        -11    1    3    3    0    0 -0.37798214659E+00  0.15443930311E+01  0.74339702709E+00  0.17551808279E+01  0.51100000000E-03 0.  1.
        -12    1    3    3    0    0 -0.14474475956E+02  0.13527457096E+02  0.15520837682E+02  0.25167418462E+02  0.00000000000E+00 0.  1.
</event>
<event>
 7    1  0.2438448E-008  0.4614232E+02  0.7816164E-02  0.1320468E+00
        -11   -1    0    0    0    0  0.00000000000E+00  0.00000000000E+00  0.45593999997E+02  0.45594000000E+02  0.51100000000E-03 0.  1.
         11   -1    0    0    0    0 -0.00000000000E+00 -0.00000000000E+00 -0.45593999997E+02  0.45594000000E+02  0.51100000000E-03 0. -1.
    9900012    2    1    2    0    0  0.12177724478E+02 -0.43349560178E+02  0.12774886573E+01  0.46142319648E+02  0.10000017205E+02 0.  0.
         12    1    1    2    0    0 -0.12177724478E+02  0.43349560178E+02 -0.12774886573E+01  0.45045680352E+02  0.00000000000E+00 0. -1.
         11    1    3    3    0    0  0.11759295964E+01 -0.10392775883E+02 -0.10323074982E+01  0.10509912464E+02  0.51100000000E-03 0. -1.
        -11    1    3    3    0    0  0.63863562914E+01 -0.25243822906E+02 -0.98859643827E+00  0.26057886806E+02  0.51100000000E-03 0.  1.
         12    1    3    3    0    0  0.46154385903E+01 -0.77129613892E+01  0.32983925938E+01  0.95745203783E+01  0.00000000000E+00 0. -1.
</event>
<event>
 7    1  0.2438448E-008  0.4614232E+02  0.7816164E-02  0.1320468E+00
        -11   -1    0    0    0    0  0.00000000000E+00  0.00000000000E+00  0.45593999997E+02  0.45594000000E+02  0.51100000000E-03 0.  1.
         11   -1    0    0    0    0 -0.00000000000E+00 -0.00000000000E+00 -0.45593999997E+02  0.45594000000E+02  0.51100000000E-03 0. -1.
    9900012    2    1    2    0    0 -0.35416765633E+01  0.44811720767E+02  0.29119691887E+01  0.46142319236E+02  0.10000013446E+02 0.  0.
         12    1    1    2    0    0  0.35416765633E+01 -0.44811720767E+02 -0.29119691887E+01  0.45045680764E+02  0.00000000000E+00 0. -1.
         11    1    3    3    0    0  0.14616027472E+01  0.87559955459E+00 -0.46038858842E+00  0.17649122030E+01  0.51100000000E-03 0. -1.
        -11    1    3    3    0    0 -0.15566928399E+01  0.89804181750E+01  0.10678772910E+01  0.91766859686E+01  0.51100000000E-03 0.  1.
         12    1    3    3    0    0 -0.34465864706E+01  0.34955703037E+02  0.23044804861E+01  0.35200721064E+02  0.00000000000E+00 0. -1.
</event>
<event>
 7    1  0.2438448E-008  0.4614232E+02  0.7816164E-02  0.1320468E+00
        -11   -1    0    0    0    0  0.00000000000E+00  0.00000000000E+00  0.45593999997E+02  0.45594000000E+02  0.51100000000E-03 0.  1.
         11   -1    0    0    0    0 -0.00000000000E+00 -0.00000000000E+00 -0.45593999997E+02  0.45594000000E+02  0.51100000000E-03 0. -1.
    9900012    2    1    2    0    0  0.14282363129E+02 -0.80972469364E+00  0.42713832586E+02  0.46142322685E+02  0.10000044899E+02 0.  0.
         12    1    1    2    0    0 -0.14282363129E+02  0.80972469364E+00 -0.42713832586E+02  0.45045677315E+02  0.00000000000E+00 0. -1.
         11    1    3    3    0    0  0.68387353303E+01  0.19173352929E+01  0.14854462495E+02  0.16465100420E+02  0.51100000000E-03 0. -1.
        -11    1    3    3    0    0 -0.57753515878E-01  0.14375762819E+01  0.22678059807E+01  0.26856852500E+01  0.51100000000E-03 0.  1.
        -12    1    3    3    0    0  0.75013813143E+01 -0.41646362685E+01  0.25591564110E+02  0.26991537015E+02  0.00000000000E+00 0.  1.
</event>
<event>
 7    1  0.2438448E-008  0.4614232E+02  0.7816164E-02  0.1320468E+00
        -11   -1    0    0    0    0  0.00000000000E+00  0.00000000000E+00  0.45593999997E+02  0.45594000000E+02  0.51100000000E-03 0.  1.
         11   -1    0    0    0    0 -0.00000000000E+00 -0.00000000000E+00 -0.45593999997E+02  0.45594000000E+02  0.51100000000E-03 0. -1.
    9900012    2    1    2    0    0  0.10035688798E+01  0.17612927634E+02  0.41447450488E+02  0.46142317385E+02  0.99999965670E+01 0.  0.
         12    1    1    2    0    0 -0.10035688798E+01 -0.17612927634E+02 -0.41447450488E+02  0.45045682615E+02  0.00000000000E+00 0. -1.
         11    1    3    3    0    0 -0.38277911528E+01  0.35562504207E+01  0.97079407068E+01  0.11024654879E+02  0.51100000000E-03 0. -1.
        -11    1    3    3    0    0 -0.57236888235E-02  0.24179073489E+00  0.15286880190E+01  0.15477024393E+01  0.51100000000E-03 0.  1.
         12    1    3    3    0    0  0.48370837215E+01  0.13814886478E+02  0.30210821762E+02  0.33569960067E+02  0.00000000000E+00 0. -1.
</event>
<event>
 7    1  0.2438448E-008  0.4614232E+02  0.7816164E-02  0.1320468E+00
        -11   -1    0    0    0    0  0.00000000000E+00  0.00000000000E+00  0.45593999997E+02  0.45594000000E+02  0.51100000000E-03 0.  1.
         11   -1    0    0    0    0 -0.00000000000E+00 -0.00000000000E+00 -0.45593999997E+02  0.45594000000E+02  0.51100000000E-03 0. -1.
    9900012    2    1    2    0    0  0.29995072114E+01 -0.42236370613E+02  0.15368977974E+02  0.46142317299E+02  0.99999957839E+01 0.  0.
         12    1    1    2    0    0 -0.29995072114E+01  0.42236370613E+02 -0.15368977974E+02  0.45045682701E+02  0.00000000000E+00 0. -1.
         11    1    3    3    0    0 -0.22861297700E+01 -0.14739193980E+02  0.46500325586E+01  0.15623476936E+02  0.51100000000E-03 0. -1.
        -11    1    3    3    0    0  0.10418107390E+00 -0.12459967108E+02  0.28882794162E+01  0.12790769808E+02  0.51100000000E-03 0.  1.
        -12    1    3    3    0    0  0.51814559075E+01 -0.15037209524E+02  0.78306659996E+01  0.17728070555E+02  0.00000000000E+00 0.  1.
</event>
<event>
 7    1  0.2438448E-008  0.4614232E+02  0.7816164E-02  0.1320468E+00
        -11   -1    0    0    0    0  0.00000000000E+00  0.00000000000E+00  0.45593999997E+02  0.45594000000E+02  0.51100000000E-03 0.  1.
         11   -1    0    0    0    0 -0.00000000000E+00 -0.00000000000E+00 -0.45593999997E+02  0.45594000000E+02  0.51100000000E-03 0. -1.
    9900012    2    1    2    0    0 -0.22870076346E+02  0.23723956618E+02  0.30712325423E+02  0.46142318269E+02  0.10000004635E+02 0.  0.
         12    1    1    2    0    0  0.22870076346E+02 -0.23723956618E+02 -0.30712325423E+02  0.45045681731E+02  0.00000000000E+00 0. -1.
         11    1    3    3    0    0 -0.17085089544E+01  0.56764975182E+01  0.31604054529E+01  0.67178709283E+01  0.51100000000E-03 0. -1.
        -11    1    3    3    0    0 -0.16867026645E+02  0.16543965213E+02  0.22507239165E+02  0.32630893152E+02  0.51100000000E-03 0.  1.
        -12    1    3    3    0    0 -0.42945407470E+01  0.15034938864E+01  0.50446808050E+01  0.67935541889E+01  0.00000000000E+00 0.  1.
</event>
<event>
 7    1  0.2438448E-008  0.4614232E+02  0.7816164E-02  0.1320468E+00
        -11   -1    0    0    0    0  0.00000000000E+00  0.00000000000E+00  0.45593999997E+02  0.45594000000E+02  0.51100000000E-03 0.  1.
         11   -1    0    0    0    0 -0.00000000000E+00 -0.00000000000E+00 -0.45593999997E+02  0.45594000000E+02  0.51100000000E-03 0. -1.
    9900012    2    1    2    0    0 -0.32426781482E+02  0.48171290618E+01  0.30893571806E+02  0.46142315761E+02  0.99999817581E+01 0.  0.
         12    1    1    2    0    0  0.32426781482E+02 -0.48171290618E+01 -0.30893571806E+02  0.45045684239E+02  0.00000000000E+00 0. -1.
         11    1    3    3    0    0 -0.10348797043E+02  0.89907161968E+00  0.46981082927E+01  0.11400796104E+02  0.51100000000E-03 0. -1.
        -11    1    3    3    0    0 -0.19531024779E+02  0.22371534191E+01  0.23751986975E+02  0.30832169399E+02  0.51100000000E-03 0.  1.
        -12    1    3    3    0    0 -0.25469596603E+01  0.16809040230E+01  0.24434765382E+01  0.39093502579E+01  0.00000000000E+00 0.  1.
</event>
<event>
 7    1  0.2438448E-008  0.4614232E+02  0.7816164E-02  0.1320468E+00
        -11   -1    0    0    0    0  0.00000000000E+00  0.00000000000E+00  0.45593999997E+02  0.45594000000E+02  0.51100000000E-03 0. -1.
         11   -1    0    0    0    0 -0.00000000000E+00 -0.00000000000E+00 -0.45593999997E+02  0.45594000000E+02  0.51100000000E-03 0.  1.
    9900012    2    1    2    0    0 -0.37608986607E+02  0.21173995029E+02 -0.12897267918E+02  0.46142318089E+02  0.10000002986E+02 0.  0.
         12    1    1    2    0    0  0.37608986607E+02 -0.21173995029E+02  0.12897267918E+02  0.45045681911E+02  0.00000000000E+00 0. -1.
         11    1    3    3    0    0 -0.13250468889E+02  0.50839034975E+01 -0.27922150870E+01  0.14464351555E+02  0.51100000000E-03 0. -1.
        -11    1    3    3    0    0 -0.12832032565E+02  0.43793349884E+01 -0.53034170808E+01  0.14559047622E+02  0.51100000000E-03 0.  1.
        -12    1    3    3    0    0 -0.11526485154E+02  0.11710756543E+02 -0.48016357504E+01  0.17118918911E+02  0.00000000000E+00 0.  1.
</event>
<event>
 7    1  0.2438448E-008  0.4614232E+02  0.7816164E-02  0.1320468E+00
        -11   -1    0    0    0    0  0.00000000000E+00  0.00000000000E+00  0.45593999997E+02  0.45594000000E+02  0.51100000000E-03 0.  1.
         11   -1    0    0    0    0 -0.00000000000E+00 -0.00000000000E+00 -0.45593999997E+02  0.45594000000E+02  0.51100000000E-03 0. -1.
    9900012    2    1    2    0    0 -0.10487372137E+02  0.24908462996E+02  0.36037437684E+02  0.46142318542E+02  0.10000007123E+02 0.  0.
         12    1    1    2    0    0  0.10487372137E+02 -0.24908462996E+02 -0.36037437684E+02  0.45045681458E+02  0.00000000000E+00 0. -1.
         11    1    3    3    0    0 -0.11309969687E+01  0.51435867175E+01  0.25258413972E+01  0.58408486960E+01  0.51100000000E-03 0. -1.
        -11    1    3    3    0    0 -0.95547277557E+00  0.23595883657E+01  0.73284750154E+01  0.77580365939E+01  0.51100000000E-03 0.  1.
         12    1    3    3    0    0 -0.84009023924E+01  0.17405287913E+02  0.26183121272E+02  0.32543433252E+02  0.00000000000E+00 0. -1.
</event>
<event>
 7    1  0.2438448E-008  0.4614232E+02  0.7816164E-02  0.1320468E+00
        -11   -1    0    0    0    0  0.00000000000E+00  0.00000000000E+00  0.45593999997E+02  0.45594000000E+02  0.51100000000E-03 0.  1.
         11   -1    0    0    0    0 -0.00000000000E+00 -0.00000000000E+00 -0.45593999997E+02  0.45594000000E+02  0.51100000000E-03 0. -1.
    9900012    2    1    2    0    0  0.66583749971E+01  0.66273867611E+01  0.44055161668E+02  0.46142317827E+02  0.10000000597E+02 0.  0.
         12    1    1    2    0    0 -0.66583749971E+01 -0.66273867611E+01 -0.44055161668E+02  0.45045682173E+02  0.00000000000E+00 0. -1.
         11    1    3    3    0    0 -0.70420333299E+00  0.29838996992E+01  0.82899257934E+01  0.88386893639E+01  0.51100000000E-03 0. -1.
        -11    1    3    3    0    0  0.52069264239E+01  0.55767643255E+01  0.27817352555E+02  0.28844713321E+02  0.51100000000E-03 0.  1.
        -12    1    3    3    0    0  0.21556519062E+01 -0.19332772635E+01  0.79478833194E+01  0.84589151418E+01  0.00000000000E+00 0.  1.
</event>
<event>
 7    1  0.2438448E-008  0.4614232E+02  0.7816164E-02  0.1320468E+00
        -11   -1    0    0    0    0  0.00000000000E+00  0.00000000000E+00  0.45593999997E+02  0.45594000000E+02  0.51100000000E-03 0.  1.
         11   -1    0    0    0    0 -0.00000000000E+00 -0.00000000000E+00 -0.45593999997E+02  0.45594000000E+02  0.51100000000E-03 0. -1.
    9900012    2    1    2    0    0  0.34292257681E+01 -0.39437901934E+02  0.21494319375E+02  0.46142318035E+02  0.10000002496E+02 0.  0.
         12    1    1    2    0    0 -0.34292257681E+01  0.39437901934E+02 -0.21494319375E+02  0.45045681965E+02  0.00000000000E+00 0. -1.
         11    1    3    3    0    0  0.36953020916E+01 -0.85448280309E+01  0.27679555131E+01  0.97124107002E+01  0.51100000000E-03 0.  1.
        -11    1    3    3    0    0  0.15939513640E+01 -0.55386955538E+01  0.43785370737E+01  0.72380533678E+01  0.51100000000E-03 0. -1.
         12    1    3    3    0    0 -0.18600276875E+01 -0.25354378349E+02  0.14347826788E+02  0.29191853967E+02  0.00000000000E+00 0. -1.
</event>
<event>
 7    1  0.2438448E-008  0.4614232E+02  0.7816164E-02  0.1320468E+00
        -11   -1    0    0    0    0  0.00000000000E+00  0.00000000000E+00  0.45593999997E+02  0.45594000000E+02  0.51100000000E-03 0. -1.
         11   -1    0    0    0    0 -0.00000000000E+00 -0.00000000000E+00 -0.45593999997E+02  0.45594000000E+02  0.51100000000E-03 0.  1.
    9900012    2    1    2    0    0  0.38963024940E+02  0.17911737505E+02 -0.13790054747E+02  0.46142320264E+02  0.10000022822E+02 0.  0.
         12    1    1    2    0    0 -0.38963024940E+02 -0.17911737505E+02  0.13790054747E+02  0.45045679736E+02  0.00000000000E+00 0. -1.
         11    1    3    3    0    0  0.16840068880E+01  0.17346645688E+01 -0.24652939412E+00  0.24301681769E+01  0.51100000000E-03 0. -1.
        -11    1    3    3    0    0  0.22897844633E+02  0.53703988745E+01 -0.87648549641E+01  0.25099305881E+02  0.51100000000E-03 0.  1.
         12    1    3    3    0    0  0.14381173420E+02  0.10806674062E+02 -0.47786703892E+01  0.18612846206E+02  0.00000000000E+00 0. -1.
</event>
<event>
 7    1  0.2438448E-008  0.4614232E+02  0.7816164E-02  0.1320468E+00
        -11   -1    0    0    0    0  0.00000000000E+00  0.00000000000E+00  0.45593999997E+02  0.45594000000E+02  0.51100000000E-03 0.  1.
         11   -1    0    0    0    0 -0.00000000000E+00 -0.00000000000E+00 -0.45593999997E+02  0.45594000000E+02  0.51100000000E-03 0. -1.
    9900012    2    1    2    0    0  0.93604898591E+00  0.13528108856E+02  0.42956112865E+02  0.46142317084E+02  0.99999938217E+01 0.  0.
         12    1    1    2    0    0 -0.93604898591E+00 -0.13528108856E+02 -0.42956112865E+02  0.45045682916E+02  0.00000000000E+00 0. -1.
         11    1    3    3    0    0 -0.14592062837E+01  0.14799704386E+01  0.81381417546E+01  0.83993420550E+01  0.51100000000E-03 0. -1.
        -11    1    3    3    0    0 -0.15115422251E+00 -0.11332975850E+01  0.27489775500E+01  0.29772619714E+01  0.51100000000E-03 0.  1.
        -12    1    3    3    0    0  0.25464094921E+01  0.13181436002E+02  0.32068993561E+02  0.34765713057E+02  0.00000000000E+00 0.  1.
</event>
<event>
 7    1  0.2438448E-008  0.4614232E+02  0.7816164E-02  0.1320468E+00
        -11   -1    0    0    0    0  0.00000000000E+00  0.00000000000E+00  0.45593999997E+02  0.45594000000E+02  0.51100000000E-03 0. -1.
         11   -1    0    0    0    0 -0.00000000000E+00 -0.00000000000E+00 -0.45593999997E+02  0.45594000000E+02  0.51100000000E-03 0.  1.
    9900012    2    1    2    0    0 -0.42235372996E+02 -0.71896991494E+01  0.13913837697E+02  0.46142318904E+02  0.10000010422E+02 0.  0.
         12    1    1    2    0    0  0.42235372996E+02  0.71896991494E+01 -0.13913837697E+02  0.45045681096E+02  0.00000000000E+00 0. -1.
         11    1    3    3    0    0 -0.12965139535E+02 -0.46121881319E+01  0.36378161196E+01  0.14233791797E+02  0.51100000000E-03 0. -1.
        -11    1    3    3    0    0 -0.67863366587E+01 -0.12892739396E+01  0.56348555941E+01  0.89144932758E+01  0.51100000000E-03 0.  1.
        -12    1    3    3    0    0 -0.22483896802E+02 -0.12882370779E+01  0.46411659836E+01  0.22994033831E+02  0.00000000000E+00 0.  1.
</event>
<event>
 7    1  0.2438448E-008  0.4614232E+02  0.7816164E-02  0.1320468E+00
        -11   -1    0    0    0    0  0.00000000000E+00  0.00000000000E+00  0.45593999997E+02  0.45594000000E+02  0.51100000000E-03 0. -1.
         11   -1    0    0    0    0 -0.00000000000E+00 -0.00000000000E+00 -0.45593999997E+02  0.45594000000E+02  0.51100000000E-03 0.  1.
    9900012    2    1    2    0    0 -0.23447013110E+02  0.28887724525E+02  0.25393906199E+02  0.46142317365E+02  0.99999963875E+01 0.  0.
         12    1    1    2    0    0  0.23447013110E+02 -0.28887724525E+02 -0.25393906199E+02  0.45045682635E+02  0.00000000000E+00 0. -1.
         11    1    3    3    0    0 -0.11758152191E+01  0.46751357556E+01  0.55939737790E+01  0.73845770809E+01  0.51100000000E-03 0. -1.
        -11    1    3    3    0    0 -0.46784725109E+01  0.64688406416E+01  0.24971270003E+01  0.83647861777E+01  0.51100000000E-03 0.  1.
         12    1    3    3    0    0 -0.17592725380E+02  0.17743748128E+02  0.17302805420E+02  0.30392954106E+02  0.00000000000E+00 0. -1.
</event>
<event>
 7    1  0.2438448E-008  0.4614232E+02  0.7816164E-02  0.1320468E+00
        -11   -1    0    0    0    0  0.00000000000E+00  0.00000000000E+00  0.45593999997E+02  0.45594000000E+02  0.51100000000E-03 0.  1.
         11   -1    0    0    0    0 -0.00000000000E+00 -0.00000000000E+00 -0.45593999997E+02  0.45594000000E+02  0.51100000000E-03 0. -1.
    9900012    2    1    2    0    0  0.53475974018E+01 -0.18656748277E+02  0.40650245079E+02  0.46142317863E+02  0.10000000930E+02 0.  0.
         12    1    1    2    0    0 -0.53475974018E+01  0.18656748277E+02 -0.40650245079E+02  0.45045682137E+02  0.00000000000E+00 0. -1.
         11    1    3    3    0    0 -0.32985332770E+00 -0.26656776681E+01  0.47803580352E+01  0.54832895103E+01  0.51100000000E-03 0. -1.
        -11    1    3    3    0    0  0.58152096118E+01 -0.86972602801E+01  0.28179498603E+02  0.30058994345E+02  0.51100000000E-03 0.  1.
        -12    1    3    3    0    0 -0.13775888233E+00 -0.72938103283E+01  0.76903884401E+01  0.10600034008E+02  0.00000000000E+00 0.  1.
</event>
<event>
 7    1  0.2438448E-008  0.4614232E+02  0.7816164E-02  0.1320468E+00
        -11   -1    0    0    0    0  0.00000000000E+00  0.00000000000E+00  0.45593999997E+02  0.45594000000E+02  0.51100000000E-03 0. -1.
         11   -1    0    0    0    0 -0.00000000000E+00 -0.00000000000E+00 -0.45593999997E+02  0.45594000000E+02  0.51100000000E-03 0.  1.
    9900012    2    1    2    0    0  0.29883075255E+02 -0.30549292430E+02 -0.14242755769E+02  0.46142317115E+02  0.99999941127E+01 0.  0.
         12    1    1    2    0    0 -0.29883075255E+02  0.30549292430E+02  0.14242755769E+02  0.45045682885E+02  0.00000000000E+00 0. -1.
         11    1    3    3    0    0  0.80649415149E+01 -0.86519227048E+01 -0.98038027873E+00  0.11868453727E+02  0.51100000000E-03 0. -1.
        -11    1    3    3    0    0  0.39568170496E+01 -0.57201641651E+01 -0.42202224048E+00  0.69681261665E+01  0.51100000000E-03 0.  1.
        -12    1    3    3    0    0  0.17861316690E+02 -0.16177205560E+02 -0.12840353250E+02  0.27305737221E+02  0.00000000000E+00 0.  1.
</event>
<event>
 7    1  0.2438448E-008  0.4614232E+02  0.7816164E-02  0.1320468E+00
        -11   -1    0    0    0    0  0.00000000000E+00  0.00000000000E+00  0.45593999997E+02  0.45594000000E+02  0.51100000000E-03 0.  1.
         11   -1    0    0    0    0 -0.00000000000E+00 -0.00000000000E+00 -0.45593999997E+02  0.45594000000E+02  0.51100000000E-03 0. -1.
    9900012    2    1    2    0    0 -0.90764516414E+01  0.43543151174E+02  0.71221850625E+01  0.46142317536E+02  0.99999979515E+01 0.  0.
         12    1    1    2    0    0  0.90764516414E+01 -0.43543151174E+02 -0.71221850625E+01  0.45045682464E+02  0.00000000000E+00 0. -1.
         11    1    3    3    0    0 -0.11936301341E+01  0.40271226145E+01 -0.21772920806E+01  0.47310749852E+01  0.51100000000E-03 0. -1.
        -11    1    3    3    0    0 -0.20720540249E+01  0.70866490513E+01  0.22625929747E+01  0.77222619671E+01  0.51100000000E-03 0.  1.
         12    1    3    3    0    0 -0.58107674824E+01  0.32429379508E+02  0.70368841684E+01  0.33688980584E+02  0.00000000000E+00 0. -1.
</event>
<event>
 7    1  0.2438448E-008  0.4614232E+02  0.7816164E-02  0.1320468E+00
        -11   -1    0    0    0    0  0.00000000000E+00  0.00000000000E+00  0.45593999997E+02  0.45594000000E+02  0.51100000000E-03 0.  1.
         11   -1    0    0    0    0 -0.00000000000E+00 -0.00000000000E+00 -0.45593999997E+02  0.45594000000E+02  0.51100000000E-03 0. -1.
    9900012    2    1    2    0    0 -0.17435166421E+02 -0.27254014012E+02  0.31342417999E+02  0.46142317921E+02  0.10000001462E+02 0.  0.
         12    1    1    2    0    0  0.17435166421E+02  0.27254014012E+02 -0.31342417999E+02  0.45045682079E+02  0.00000000000E+00 0. -1.
         11    1    3    3    0    0 -0.90949970338E+01 -0.93751451831E+01  0.15476043409E+02  0.20251425582E+02  0.51100000000E-03 0. -1.
        -11    1    3    3    0    0 -0.68353722334E+01 -0.85440121177E+01  0.95160991795E+01  0.14500986190E+02  0.51100000000E-03 0.  1.
         12    1    3    3    0    0 -0.15047971535E+01 -0.93348567112E+01  0.63502754106E+01  0.11389906149E+02  0.00000000000E+00 0. -1.
</event>
<event>
 7    1  0.2438448E-008  0.4614232E+02  0.7816164E-02  0.1320468E+00
        -11   -1    0    0    0    0  0.00000000000E+00  0.00000000000E+00  0.45593999997E+02  0.45594000000E+02  0.51100000000E-03 0. -1.
         11   -1    0    0    0    0 -0.00000000000E+00 -0.00000000000E+00 -0.45593999997E+02  0.45594000000E+02  0.51100000000E-03 0.  1.
    9900012    2    1    2    0    0 -0.41980976535E+02  0.63871337816E+01  0.15030490258E+02  0.46142317563E+02  0.99999981971E+01 0.  0.
         12    1    1    2    0    0  0.41980976535E+02 -0.63871337816E+01 -0.15030490258E+02  0.45045682437E+02  0.00000000000E+00 0. -1.
         11    1    3    3    0    0  0.38236436016E+00  0.74489105079E-01  0.59851371422E+00  0.71412187890E+00  0.51100000000E-03 0. -1.
        -11    1    3    3    0    0 -0.79445447080E+01 -0.17281744044E+00  0.39169186869E+01  0.88593401981E+01  0.51100000000E-03 0.  1.
        -12    1    3    3    0    0 -0.34418796187E+02  0.64854621170E+01  0.10515057857E+02  0.36568855486E+02  0.00000000000E+00 0.  1.
</event>
<event>
 7    1  0.2438448E-008  0.4614232E+02  0.7816164E-02  0.1320468E+00
        -11   -1    0    0    0    0  0.00000000000E+00  0.00000000000E+00  0.45593999997E+02  0.45594000000E+02  0.51100000000E-03 0.  1.
         11   -1    0    0    0    0 -0.00000000000E+00 -0.00000000000E+00 -0.45593999997E+02  0.45594000000E+02  0.51100000000E-03 0. -1.
    9900012    2    1    2    0    0  0.15078752055E+02 -0.83392913271E+01  0.41619718513E+02  0.46142317494E+02  0.99999975614E+01 0.  0.
         12    1    1    2    0    0 -0.15078752055E+02  0.83392913271E+01 -0.41619718513E+02  0.45045682506E+02  0.00000000000E+00 0. -1.
         11    1    3    3    0    0  0.57579911956E+01 -0.77529636703E+01  0.17233023481E+02  0.19754493333E+02  0.51100000000E-03 0.  1.
        -11    1    3    3    0    0  0.56393338212E+01 -0.58799338628E+00  0.95963743881E+01  0.11146220159E+02  0.51100000000E-03 0. -1.
         12    1    3    3    0    0  0.36814270385E+01  0.16657294554E-02  0.14790320644E+02  0.15241604002E+02  0.00000000000E+00 0. -1.
</event>
<event>
 7    1  0.2438448E-008  0.4614232E+02  0.7816164E-02  0.1320468E+00
        -11   -1    0    0    0    0  0.00000000000E+00  0.00000000000E+00  0.45593999997E+02  0.45594000000E+02  0.51100000000E-03 0.  1.
         11   -1    0    0    0    0 -0.00000000000E+00 -0.00000000000E+00 -0.45593999997E+02  0.45594000000E+02  0.51100000000E-03 0. -1.
    9900012    2    1    2    0    0  0.18360912097E+02  0.13067238841E+02  0.39003048260E+02  0.46142316549E+02  0.99999889466E+01 0.  0.
         12    1    1    2    0    0 -0.18360912097E+02 -0.13067238841E+02 -0.39003048260E+02  0.45045683451E+02  0.00000000000E+00 0. -1.
         11    1    3    3    0    0  0.47027074952E+01 -0.93269086040E+00  0.60901129398E+01  0.77507964692E+01  0.51100000000E-03 0. -1.
        -11    1    3    3    0    0  0.25061550546E+01  0.37330087660E+01  0.93324055477E+01  0.10359052137E+02  0.51100000000E-03 0.  1.
         12    1    3    3    0    0  0.11152049547E+02  0.10266920936E+02  0.23580529773E+02  0.28032467943E+02  0.00000000000E+00 0. -1.
</event>
<event>
 7    1  0.2438448E-008  0.4614232E+02  0.7816164E-02  0.1320468E+00
        -11   -1    0    0    0    0  0.00000000000E+00  0.00000000000E+00  0.45593999997E+02  0.45594000000E+02  0.51100000000E-03 0.  1.
         11   -1    0    0    0    0 -0.00000000000E+00 -0.00000000000E+00 -0.45593999997E+02  0.45594000000E+02  0.51100000000E-03 0. -1.
    9900012    2    1    2    0    0  0.42582969001E+01  0.18942862507E+02  0.40646628311E+02  0.46142317349E+02  0.99999962459E+01 0.  0.
         12    1    1    2    0    0 -0.42582969001E+01 -0.18942862507E+02 -0.40646628311E+02  0.45045682651E+02  0.00000000000E+00 0. -1.
         11    1    3    3    0    0  0.14669558398E+01  0.16275336695E+02  0.36300823584E+02  0.39809400110E+02  0.51100000000E-03 0.  1.
        -11    1    3    3    0    0  0.16979186414E+01  0.28954251258E+01  0.25386613001E+01  0.42084695353E+01  0.51100000000E-03 0. -1.
        -12    1    3    3    0    0  0.10934224189E+01 -0.22789931436E+00  0.18071434267E+01  0.21244477043E+01  0.00000000000E+00 0.  1.
</event>
<event>
 7    1  0.2438448E-008  0.4614232E+02  0.7816164E-02  0.1320468E+00
        -11   -1    0    0    0    0  0.00000000000E+00  0.00000000000E+00  0.45593999997E+02  0.45594000000E+02  0.51100000000E-03 0.  1.
         11   -1    0    0    0    0 -0.00000000000E+00 -0.00000000000E+00 -0.45593999997E+02  0.45594000000E+02  0.51100000000E-03 0. -1.
    9900012    2    1    2    0    0  0.22918178705E+02  0.14871467356E+02  0.35814938662E+02  0.46142319987E+02  0.10000020302E+02 0.  0.
         12    1    1    2    0    0 -0.22918178705E+02 -0.14871467356E+02 -0.35814938662E+02  0.45045680013E+02  0.00000000000E+00 0. -1.
         11    1    3    3    0    0  0.86970943216E+00  0.10997147204E+01 -0.10469118072E+00  0.14059614031E+01  0.51100000000E-03 0. -1.
        -11    1    3    3    0    0  0.22429758738E+02  0.13526230211E+02  0.35512024384E+02  0.44126600332E+02  0.51100000000E-03 0.  1.
        -12    1    3    3    0    0 -0.38128946481E+00  0.24552242416E+00  0.40760545838E+00  0.60975825246E+00  0.00000000000E+00 0.  1.
</event>
<event>
 7    1  0.2438448E-008  0.4614232E+02  0.7816164E-02  0.1320468E+00
        -11   -1    0    0    0    0  0.00000000000E+00  0.00000000000E+00  0.45593999997E+02  0.45594000000E+02  0.51100000000E-03 0.  1.
         11   -1    0    0    0    0 -0.00000000000E+00 -0.00000000000E+00 -0.45593999997E+02  0.45594000000E+02  0.51100000000E-03 0. -1.
    9900012    2    1    2    0    0  0.30906723575E+02 -0.75038055698E+01  0.31899542051E+02  0.46142318262E+02  0.10000004569E+02 0.  0.
         12    1    1    2    0    0 -0.30906723575E+02  0.75038055698E+01 -0.31899542051E+02  0.45045681738E+02  0.00000000000E+00 0. -1.
         11    1    3    3    0    0  0.68422076087E+00  0.45967433273E+00  0.13379301047E+01  0.15714693023E+01  0.51100000000E-03 0. -1.
        -11    1    3    3    0    0  0.24593303576E+02 -0.36347343116E+01  0.26722398416E+02  0.36498334916E+02  0.51100000000E-03 0.  1.
        -12    1    3    3    0    0  0.56291992387E+01 -0.43287455909E+01  0.38392135298E+01  0.80725140438E+01  0.00000000000E+00 0.  1.
</event>
<event>
 7    1  0.2438448E-008  0.4614232E+02  0.7816164E-02  0.1320468E+00
        -11   -1    0    0    0    0  0.00000000000E+00  0.00000000000E+00  0.45593999997E+02  0.45594000000E+02  0.51100000000E-03 0.  1.
         11   -1    0    0    0    0 -0.00000000000E+00 -0.00000000000E+00 -0.45593999997E+02  0.45594000000E+02  0.51100000000E-03 0. -1.
    9900012    2    1    2    0    0 -0.16022790843E+02 -0.13730868080E+02  0.39797574607E+02  0.46142317529E+02  0.99999978838E+01 0.  0.
         12    1    1    2    0    0  0.16022790843E+02  0.13730868080E+02 -0.39797574607E+02  0.45045682471E+02  0.00000000000E+00 0. -1.
         11    1    3    3    0    0 -0.65604217990E+01 -0.23686428268E+01  0.11649728835E+02  0.13578136294E+02  0.51100000000E-03 0. -1.
        -11    1    3    3    0    0 -0.10168895995E+02 -0.10751771027E+02  0.23122407332E+02  0.27452736605E+02  0.51100000000E-03 0.  1.
         12    1    3    3    0    0  0.70652695104E+00 -0.61045422576E+00  0.50254384404E+01  0.51114446307E+01  0.00000000000E+00 0. -1.
</event>
<event>
 7    1  0.2438448E-008  0.4614232E+02  0.7816164E-02  0.1320468E+00
        -11   -1    0    0    0    0  0.00000000000E+00  0.00000000000E+00  0.45593999997E+02  0.45594000000E+02  0.51100000000E-03 0. -1.
         11   -1    0    0    0    0 -0.00000000000E+00 -0.00000000000E+00 -0.45593999997E+02  0.45594000000E+02  0.51100000000E-03 0.  1.
    9900012    2    1    2    0    0  0.29034613504E+02  0.30749526220E+02  0.15510363321E+02  0.46142317471E+02  0.99999973587E+01 0.  0.
         12    1    1    2    0    0 -0.29034613504E+02 -0.30749526220E+02 -0.15510363321E+02  0.45045682529E+02  0.00000000000E+00 0. -1.
         11    1    3    3    0    0  0.10179418292E+02  0.83639632824E+01  0.14585924491E+01  0.13255335935E+02  0.51100000000E-03 0. -1.
        -11    1    3    3    0    0  0.11930163533E+02  0.11491182476E+02  0.10037379082E+02  0.19368145387E+02  0.51100000000E-03 0.  1.
        -12    1    3    3    0    0  0.69250316787E+01  0.10894380461E+02  0.40143917903E+01  0.13518836149E+02  0.00000000000E+00 0.  1.
</event>
<event>
 7    1  0.2438448E-008  0.4614232E+02  0.7816164E-02  0.1320468E+00
        -11   -1    0    0    0    0  0.00000000000E+00  0.00000000000E+00  0.45593999997E+02  0.45594000000E+02  0.51100000000E-03 0.  1.
         11   -1    0    0    0    0 -0.00000000000E+00 -0.00000000000E+00 -0.45593999997E+02  0.45594000000E+02  0.51100000000E-03 0. -1.
    9900012    2    1    2    0    0  0.14181533807E+02 -0.21699655647E+02  0.36839144952E+02  0.46142316998E+02  0.99999930447E+01 0.  0.
         12    1    1    2    0    0 -0.14181533807E+02  0.21699655647E+02 -0.36839144952E+02  0.45045683002E+02  0.00000000000E+00 0. -1.
         11    1    3    3    0    0  0.12483809025E+02 -0.17220696913E+02  0.27800392908E+02  0.35003710318E+02  0.51100000000E-03 0. -1.
        -11    1    3    3    0    0  0.17784692481E+00 -0.31119376666E+01  0.17628249822E+01  0.35809688282E+01  0.51100000000E-03 0.  1.
         12    1    3    3    0    0  0.15198778573E+01 -0.13670210678E+01  0.72759270617E+01  0.75576378524E+01  0.00000000000E+00 0. -1.
</event>
<event>
 7    1  0.2438448E-008  0.4614232E+02  0.7816164E-02  0.1320468E+00
        -11   -1    0    0    0    0  0.00000000000E+00  0.00000000000E+00  0.45593999997E+02  0.45594000000E+02  0.51100000000E-03 0. -1.
         11   -1    0    0    0    0 -0.00000000000E+00 -0.00000000000E+00 -0.45593999997E+02  0.45594000000E+02  0.51100000000E-03 0.  1.
    9900012    2    1    2    0    0 -0.39677072469E+02  0.10542562131E+02 -0.18539093777E+02  0.46142315478E+02  0.99999791828E+01 0.  0.
         12    1    1    2    0    0  0.39677072469E+02 -0.10542562131E+02  0.18539093777E+02  0.45045684522E+02  0.00000000000E+00 0. -1.
         11    1    3    3    0    0 -0.12304643462E+02  0.27018160631E+01 -0.98147334766E+01  0.15969754357E+02  0.51100000000E-03 0. -1.
        -11    1    3    3    0    0 -0.52192899205E+01  0.35181356553E+01 -0.23514114875E+01  0.67191816472E+01  0.51100000000E-03 0.  1.
         12    1    3    3    0    0 -0.22153139086E+02  0.43226104122E+01 -0.63729488129E+01  0.23453379474E+02  0.00000000000E+00 0. -1.
</event>
<event>
 7    1  0.2438448E-008  0.4614232E+02  0.7816164E-02  0.1320468E+00
        -11   -1    0    0    0    0  0.00000000000E+00  0.00000000000E+00  0.45593999997E+02  0.45594000000E+02  0.51100000000E-03 0. -1.
         11   -1    0    0    0    0 -0.00000000000E+00 -0.00000000000E+00 -0.45593999997E+02  0.45594000000E+02  0.51100000000E-03 0.  1.
    9900012    2    1    2    0    0  0.30181682772E+02  0.27806796538E+02 -0.18573142778E+02  0.46142317173E+02  0.99999946409E+01 0.  0.
         12    1    1    2    0    0 -0.30181682772E+02 -0.27806796538E+02  0.18573142778E+02  0.45045682827E+02  0.00000000000E+00 0. -1.
         11    1    3    3    0    0  0.52399142524E+01  0.40483711928E+01 -0.42772723985E+01  0.78829607458E+01  0.51100000000E-03 0.  1.
        -11    1    3    3    0    0  0.83024757532E+01  0.70939757830E+01 -0.89292802919E+01  0.14106297985E+02  0.51100000000E-03 0. -1.
        -12    1    3    3    0    0  0.16639292767E+02  0.16664449562E+02 -0.53665900878E+01  0.24153058443E+02  0.00000000000E+00 0.  1.
</event>
<event>
 7    1  0.2438448E-008  0.4614232E+02  0.7816164E-02  0.1320468E+00
        -11   -1    0    0    0    0  0.00000000000E+00  0.00000000000E+00  0.45593999997E+02  0.45594000000E+02  0.51100000000E-03 0. -1.
         11   -1    0    0    0    0 -0.00000000000E+00 -0.00000000000E+00 -0.45593999997E+02  0.45594000000E+02  0.51100000000E-03 0.  1.
    9900012    2    1    2    0    0 -0.50195677803E+01 -0.18649330792E+02 -0.40695452529E+02  0.46142318118E+02  0.10000003257E+02 0.  0.
         12    1    1    2    0    0  0.50195677803E+01  0.18649330792E+02  0.40695452529E+02  0.45045681882E+02  0.00000000000E+00 0. -1.
         11    1    3    3    0    0  0.39124413643E+00 -0.46299293215E+01 -0.56894008893E+01  0.73456517912E+01  0.51100000000E-03 0. -1.
        -11    1    3    3    0    0 -0.17078704896E+01 -0.38900955526E+00 -0.93213359234E+01  0.94844848938E+01  0.51100000000E-03 0.  1.
        -12    1    3    3    0    0 -0.37029414272E+01 -0.13630391915E+02 -0.25684715716E+02  0.29312181433E+02  0.00000000000E+00 0.  1.
</event>
<event>
 7    1  0.2438448E-008  0.4614232E+02  0.7816164E-02  0.1320468E+00
        -11   -1    0    0    0    0  0.00000000000E+00  0.00000000000E+00  0.45593999997E+02  0.45594000000E+02  0.51100000000E-03 0.  1.
         11   -1    0    0    0    0 -0.00000000000E+00 -0.00000000000E+00 -0.45593999997E+02  0.45594000000E+02  0.51100000000E-03 0. -1.
    9900012    2    1    2    0    0  0.36645141332E+02  0.38617102740E+01  0.25910118109E+02  0.46142318632E+02  0.10000007943E+02 0.  0.
         12    1    1    2    0    0 -0.36645141332E+02 -0.38617102740E+01 -0.25910118109E+02  0.45045681368E+02  0.00000000000E+00 0. -1.
         11    1    3    3    0    0  0.54716050570E+01 -0.18601624460E+01  0.16393994144E+01  0.60071871060E+01  0.51100000000E-03 0. -1.
        -11    1    3    3    0    0  0.15126434164E+02  0.29845264381E+01  0.14403699644E+02  0.21099359522E+02  0.51100000000E-03 0.  1.
        -12    1    3    3    0    0  0.16047102111E+02  0.27373462819E+01  0.98670190507E+01  0.19035772004E+02  0.00000000000E+00 0.  1.
</event>
<event>
 7    1  0.2438448E-008  0.4614232E+02  0.7816164E-02  0.1320468E+00
        -11   -1    0    0    0    0  0.00000000000E+00  0.00000000000E+00  0.45593999997E+02  0.45594000000E+02  0.51100000000E-03 0.  1.
         11   -1    0    0    0    0 -0.00000000000E+00 -0.00000000000E+00 -0.45593999997E+02  0.45594000000E+02  0.51100000000E-03 0. -1.
    9900012    2    1    2    0    0  0.93432789700E+01  0.67716017915E+01  0.43542646513E+02  0.46142317431E+02  0.99999969942E+01 0.  0.
         12    1    1    2    0    0 -0.93432789700E+01 -0.67716017915E+01 -0.43542646513E+02  0.45045682569E+02  0.00000000000E+00 0. -1.
         11    1    3    3    0    0  0.32190694302E+01 -0.21658736039E+01  0.79006374029E+01  0.88019025271E+01  0.51100000000E-03 0. -1.
        -11    1    3    3    0    0  0.24818077573E+01  0.24570266681E+01  0.14982180465E+02  0.15383825322E+02  0.51100000000E-03 0.  1.
         12    1    3    3    0    0  0.36424017825E+01  0.64804487273E+01  0.20659828645E+02  0.21956589583E+02  0.00000000000E+00 0. -1.
</event>
<event>
 7    1  0.2438448E-008  0.4614232E+02  0.7816164E-02  0.1320468E+00
        -11   -1    0    0    0    0  0.00000000000E+00  0.00000000000E+00  0.45593999997E+02  0.45594000000E+02  0.51100000000E-03 0.  1.
         11   -1    0    0    0    0 -0.00000000000E+00 -0.00000000000E+00 -0.45593999997E+02  0.45594000000E+02  0.51100000000E-03 0. -1.
    9900012    2    1    2    0    0 -0.29066712850E+02 -0.13072274507E+02  0.31833242518E+02  0.46142317789E+02  0.10000000251E+02 0.  0.
         12    1    1    2    0    0  0.29066712850E+02  0.13072274507E+02 -0.31833242518E+02  0.45045682211E+02  0.00000000000E+00 0. -1.
         11    1    3    3    0    0 -0.16260212558E+02 -0.62379033173E+01  0.20957446878E+02  0.27249229899E+02  0.51100000000E-03 0. -1.
        -11    1    3    3    0    0 -0.27217429587E+00  0.72926808224E-01 -0.52483892345E+00  0.59569566339E+00  0.51100000000E-03 0.  1.
        -12    1    3    3    0    0 -0.12534325996E+02 -0.69072979983E+01  0.11400634564E+02  0.18297392226E+02  0.00000000000E+00 0.  1.
</event>
<event>
 7    1  0.2438448E-008  0.4614232E+02  0.7816164E-02  0.1320468E+00
        -11   -1    0    0    0    0  0.00000000000E+00  0.00000000000E+00  0.45593999997E+02  0.45594000000E+02  0.51100000000E-03 0.  1.
         11   -1    0    0    0    0 -0.00000000000E+00 -0.00000000000E+00 -0.45593999997E+02  0.45594000000E+02  0.51100000000E-03 0. -1.
    9900012    2    1    2    0    0  0.19473241396E+02 -0.19018025664E+02  0.35891793226E+02  0.46142320389E+02  0.10000023965E+02 0.  0.
         12    1    1    2    0    0 -0.19473241396E+02  0.19018025664E+02 -0.35891793226E+02  0.45045679611E+02  0.00000000000E+00 0. -1.
         11    1    3    3    0    0  0.41878890301E+01 -0.93188845860E+01  0.15909513756E+02  0.18907476105E+02  0.51100000000E-03 0. -1.
        -11    1    3    3    0    0  0.59613182619E+01 -0.56094706453E+01  0.72700807725E+01  0.10947947344E+02  0.51100000000E-03 0.  1.
         12    1    3    3    0    0  0.93240341037E+01 -0.40896704330E+01  0.12712198697E+02  0.16286896940E+02  0.00000000000E+00 0. -1.
</event>
<event>
 7    1  0.2438448E-008  0.4614232E+02  0.7816164E-02  0.1320468E+00
        -11   -1    0    0    0    0  0.00000000000E+00  0.00000000000E+00  0.45593999997E+02  0.45594000000E+02  0.51100000000E-03 0.  1.
         11   -1    0    0    0    0 -0.00000000000E+00 -0.00000000000E+00 -0.45593999997E+02  0.45594000000E+02  0.51100000000E-03 0. -1.
    9900012    2    1    2    0    0  0.44073320996E+02  0.60563564012E+01  0.70693903496E+01  0.46142319226E+02  0.10000013359E+02 0.  0.
         12    1    1    2    0    0 -0.44073320996E+02 -0.60563564012E+01 -0.70693903496E+01  0.45045680774E+02  0.00000000000E+00 0. -1.
         11    1    3    3    0    0  0.16823062296E+02  0.50322791062E+01  0.12809602071E+01  0.17606252222E+02  0.51100000000E-03 0.  1.
        -11    1    3    3    0    0  0.10688438461E+02 -0.24480514970E+01  0.13983330389E+01  0.11054004180E+02  0.51100000000E-03 0. -1.
         12    1    3    3    0    0  0.16561820240E+02  0.34721287920E+01  0.43900971035E+01  0.17482062824E+02  0.00000000000E+00 0. -1.
</event>
<event>
 7    1  0.2438448E-008  0.4614232E+02  0.7816164E-02  0.1320468E+00
        -11   -1    0    0    0    0  0.00000000000E+00  0.00000000000E+00  0.45593999997E+02  0.45594000000E+02  0.51100000000E-03 0. -1.
         11   -1    0    0    0    0 -0.00000000000E+00 -0.00000000000E+00 -0.45593999997E+02  0.45594000000E+02  0.51100000000E-03 0.  1.
    9900012    2    1    2    0    0 -0.21081736830E+01  0.17031702796E+02 -0.41648411565E+02  0.46142317829E+02  0.10000000615E+02 0.  0.
         12    1    1    2    0    0  0.21081736830E+01 -0.17031702796E+02  0.41648411565E+02  0.45045682171E+02  0.00000000000E+00 0. -1.
         11    1    3    3    0    0  0.23253887757E+01  0.58916487203E+01 -0.14078946134E+02  0.15438124307E+02  0.51100000000E-03 0.  1.
        -11    1    3    3    0    0 -0.47426573689E+01  0.94194962387E+01 -0.17105534008E+02  0.20095248251E+02  0.51100000000E-03 0. -1.
        -12    1    3    3    0    0  0.30909491018E+00  0.17205578366E+01 -0.10463931423E+02  0.10608945271E+02  0.00000000000E+00 0.  1.
</event>
<event>
 7    1  0.2438448E-008  0.4614232E+02  0.7816164E-02  0.1320468E+00
        -11   -1    0    0    0    0  0.00000000000E+00  0.00000000000E+00  0.45593999997E+02  0.45594000000E+02  0.51100000000E-03 0.  1.
         11   -1    0    0    0    0 -0.00000000000E+00 -0.00000000000E+00 -0.45593999997E+02  0.45594000000E+02  0.51100000000E-03 0. -1.
    9900012    2    1    2    0    0 -0.37801401305E+02  0.23731934155E+02  0.60797104173E+01  0.46142317431E+02  0.99999969882E+01 0.  0.
         12    1    1    2    0    0  0.37801401305E+02 -0.23731934155E+02 -0.60797104173E+01  0.45045682569E+02  0.00000000000E+00 0. -1.
         11    1    3    3    0    0 -0.24706925701E+02  0.12792087136E+02  0.52578785092E+01  0.28314571471E+02  0.51100000000E-03 0.  1.
        -11    1    3    3    0    0 -0.73727187095E+01  0.32625570750E+01  0.16060832262E+01  0.82207519989E+01  0.51100000000E-03 0. -1.
        -12    1    3    3    0    0 -0.57217568950E+01  0.76772899437E+01 -0.78425131816E+00  0.96069939614E+01  0.00000000000E+00 0.  1.
</event>
<event>
 7    1  0.2438448E-008  0.4614232E+02  0.7816164E-02  0.1320468E+00
        -11   -1    0    0    0    0  0.00000000000E+00  0.00000000000E+00  0.45593999997E+02  0.45594000000E+02  0.51100000000E-03 0.  1.
         11   -1    0    0    0    0 -0.00000000000E+00 -0.00000000000E+00 -0.45593999997E+02  0.45594000000E+02  0.51100000000E-03 0. -1.
    9900012    2    1    2    0    0 -0.19872851399E+02  0.40115889703E+02 -0.49898564776E+01  0.46142317665E+02  0.99999991193E+01 0.  0.
         12    1    1    2    0    0  0.19872851399E+02 -0.40115889703E+02  0.49898564776E+01  0.45045682335E+02  0.00000000000E+00 0. -1.
         11    1    3    3    0    0  0.13769215877E+00 -0.28234598557E+00 -0.31436745762E+00  0.44441596020E+00  0.51100000000E-03 0. -1.
        -11    1    3    3    0    0 -0.90955828317E+01  0.24034826611E+02 -0.40721964683E+01  0.26018941209E+02  0.51100000000E-03 0.  1.
        -12    1    3    3    0    0 -0.10914960726E+02  0.16363409077E+02 -0.60329255174E+00  0.19678960496E+02  0.00000000000E+00 0.  1.
</event>
<event>
 7    1  0.2438448E-008  0.4614232E+02  0.7816164E-02  0.1320468E+00
        -11   -1    0    0    0    0  0.00000000000E+00  0.00000000000E+00  0.45593999997E+02  0.45594000000E+02  0.51100000000E-03 0.  1.
         11   -1    0    0    0    0 -0.00000000000E+00 -0.00000000000E+00 -0.45593999997E+02  0.45594000000E+02  0.51100000000E-03 0. -1.
    9900012    2    1    2    0    0 -0.20287862052E+02 -0.32257228889E+02  0.24020560076E+02  0.46142317980E+02  0.10000001997E+02 0.  0.
         12    1    1    2    0    0  0.20287862052E+02  0.32257228889E+02 -0.24020560076E+02  0.45045682020E+02  0.00000000000E+00 0. -1.
         11    1    3    3    0    0 -0.12247076100E+02 -0.15686687837E+02  0.75143627655E+01  0.21272721884E+02  0.51100000000E-03 0. -1.
        -11    1    3    3    0    0 -0.12368120155E+01 -0.46376502725E+01  0.33837915810E+01  0.58726101298E+01  0.51100000000E-03 0.  1.
        -12    1    3    3    0    0 -0.68039739371E+01 -0.11932890779E+02  0.13122405729E+02  0.18996985967E+02  0.00000000000E+00 0.  1.
</event>
<event>
 7    1  0.2438448E-008  0.4614232E+02  0.7816164E-02  0.1320468E+00
        -11   -1    0    0    0    0  0.00000000000E+00  0.00000000000E+00  0.45593999997E+02  0.45594000000E+02  0.51100000000E-03 0.  1.
         11   -1    0    0    0    0 -0.00000000000E+00 -0.00000000000E+00 -0.45593999997E+02  0.45594000000E+02  0.51100000000E-03 0. -1.
    9900012    2    1    2    0    0  0.44428244191E+02 -0.33341924803E+01  0.66428593577E+01  0.46142319832E+02  0.10000018880E+02 0.  0.
         12    1    1    2    0    0 -0.44428244191E+02  0.33341924803E+01 -0.66428593577E+01  0.45045680168E+02  0.00000000000E+00 0. -1.
         11    1    3    3    0    0  0.28787242844E+00  0.14789621564E+00  0.70928081619E+00  0.77963027327E+00  0.51100000000E-03 0. -1.
        -11    1    3    3    0    0  0.37636994790E+02 -0.53934231219E+01  0.64497188569E+01  0.38564637473E+02  0.51100000000E-03 0.  1.
         12    1    3    3    0    0  0.65033769725E+01  0.19113344259E+01 -0.51614031538E+00  0.67980520856E+01  0.00000000000E+00 0. -1.
</event>
<event>
 7    1  0.2438448E-008  0.4614232E+02  0.7816164E-02  0.1320468E+00
        -11   -1    0    0    0    0  0.00000000000E+00  0.00000000000E+00  0.45593999997E+02  0.45594000000E+02  0.51100000000E-03 0. -1.
         11   -1    0    0    0    0 -0.00000000000E+00 -0.00000000000E+00 -0.45593999997E+02  0.45594000000E+02  0.51100000000E-03 0.  1.
    9900012    2    1    2    0    0 -0.24807235082E+02  0.91969009716E+01 -0.36457256900E+02  0.46142317848E+02  0.10000000790E+02 0.  0.
         12    1    1    2    0    0  0.24807235082E+02 -0.91969009716E+01  0.36457256900E+02  0.45045682152E+02  0.00000000000E+00 0. -1.
         11    1    3    3    0    0 -0.15319697762E+02  0.27162883911E+01 -0.18505356658E+02  0.24176839898E+02  0.51100000000E-03 0. -1.
        -11    1    3    3    0    0 -0.86770549949E+01  0.74078916878E+01 -0.16519907118E+02  0.20076739628E+02  0.51100000000E-03 0.  1.
        -12    1    3    3    0    0 -0.81048232575E+00 -0.92727910732E+00 -0.14319931235E+01  0.18887383220E+01  0.00000000000E+00 0.  1.
</event>
<event>
 7    1  0.2438448E-008  0.4614232E+02  0.7816164E-02  0.1320468E+00
        -11   -1    0    0    0    0  0.00000000000E+00  0.00000000000E+00  0.45593999997E+02  0.45594000000E+02  0.51100000000E-03 0.  1.
         11   -1    0    0    0    0 -0.00000000000E+00 -0.00000000000E+00 -0.45593999997E+02  0.45594000000E+02  0.51100000000E-03 0. -1.
    9900012    2    1    2    0    0 -0.74947363072E+01 -0.40424544244E+01  0.44233481342E+02  0.46142318945E+02  0.10000010798E+02 0.  0.
         12    1    1    2    0    0  0.74947363072E+01  0.40424544244E+01 -0.44233481342E+02  0.45045681055E+02  0.00000000000E+00 0. -1.
         11    1    3    3    0    0 -0.33007041761E+01 -0.18653278034E+01  0.14324694026E+02  0.14817926814E+02  0.51100000000E-03 0. -1.
        -11    1    3    3    0    0 -0.57795318389E+01 -0.17206689963E+01  0.28570549084E+02  0.29199999406E+02  0.51100000000E-03 0.  1.
         12    1    3    3    0    0  0.15854997079E+01 -0.45645762466E+00  0.13382382315E+01  0.21243927252E+01  0.00000000000E+00 0. -1.
</event>
<event>
 7    1  0.2438448E-008  0.4614232E+02  0.7816164E-02  0.1320468E+00
        -11   -1    0    0    0    0  0.00000000000E+00  0.00000000000E+00  0.45593999997E+02  0.45594000000E+02  0.51100000000E-03 0. -1.
         11   -1    0    0    0    0 -0.00000000000E+00 -0.00000000000E+00 -0.45593999997E+02  0.45594000000E+02  0.51100000000E-03 0.  1.
    9900012    2    1    2    0    0 -0.26983668426E+02 -0.37961221985E+01 -0.35868991737E+02  0.46142317924E+02  0.10000001485E+02 0.  0.
         12    1    1    2    0    0  0.26983668426E+02  0.37961221985E+01  0.35868991737E+02  0.45045682076E+02  0.00000000000E+00 0. -1.
         11    1    3    3    0    0 -0.10535744336E+02  0.30929078634E+01 -0.14279924556E+02  0.18013445905E+02  0.51100000000E-03 0. -1.
        -11    1    3    3    0    0 -0.11078275583E+01 -0.12908033293E+01 -0.21282217340E+01  0.27244785087E+01  0.51100000000E-03 0.  1.
        -12    1    3    3    0    0 -0.15340096531E+02 -0.55982267326E+01 -0.19460845447E+02  0.25404393511E+02  0.00000000000E+00 0.  1.
</event>
<event>
 7    1  0.2438448E-008  0.4614232E+02  0.7816164E-02  0.1320468E+00
        -11   -1    0    0    0    0  0.00000000000E+00  0.00000000000E+00  0.45593999997E+02  0.45594000000E+02  0.51100000000E-03 0.  1.
         11   -1    0    0    0    0 -0.00000000000E+00 -0.00000000000E+00 -0.45593999997E+02  0.45594000000E+02  0.51100000000E-03 0. -1.
    9900012    2    1    2    0    0  0.13668250886E+02 -0.17719072649E+02  0.39093820530E+02  0.46142318504E+02  0.10000006773E+02 0.  0.
         12    1    1    2    0    0 -0.13668250886E+02  0.17719072649E+02 -0.39093820530E+02  0.45045681496E+02  0.00000000000E+00 0. -1.
         11    1    3    3    0    0  0.12462085221E+02 -0.12893143673E+02  0.30302645799E+02  0.35210610112E+02  0.51100000000E-03 0. -1.
        -11    1    3    3    0    0  0.36387910506E+00 -0.38191182735E+01  0.88205120952E+01  0.96187060602E+01  0.51100000000E-03 0.  1.
         12    1    3    3    0    0  0.84228656016E+00 -0.10068107029E+01 -0.29337364281E-01  0.13130023312E+01  0.00000000000E+00 0. -1.
</event>
<event>
 7    1  0.2438448E-008  0.4614231E+02  0.7816164E-02  0.1320468E+00
        -11   -1    0    0    0    0  0.00000000000E+00  0.00000000000E+00  0.45593999997E+02  0.45594000000E+02  0.51100000000E-03 0. -1.
         11   -1    0    0    0    0 -0.00000000000E+00 -0.00000000000E+00 -0.45593999997E+02  0.45594000000E+02  0.51100000000E-03 0.  1.
    9900012    2    1    2    0    0  0.23731551741E+01 -0.30107847071E+02 -0.33421551436E+02  0.46142307407E+02  0.99999055870E+01 0.  0.
         12    1    1    2    0    0 -0.23731551741E+01  0.30107847071E+02  0.33421551436E+02  0.45045692593E+02  0.00000000000E+00 0. -1.
         11    1    3    3    0    0 -0.10549394100E+01 -0.69705587043E+01 -0.10333787947E+02  0.12509546730E+02  0.51100000000E-03 0. -1.
        -11    1    3    3    0    0  0.10485404735E+01 -0.10853224887E+02 -0.59749703613E+01  0.12433511115E+02  0.51100000000E-03 0.  1.
        -12    1    3    3    0    0  0.23795541106E+01 -0.12284063479E+02 -0.17112793128E+02  0.21199249562E+02  0.00000000000E+00 0.  1.
</event>
<event>
 7    1  0.2438448E-008  0.4614232E+02  0.7816164E-02  0.1320468E+00
        -11   -1    0    0    0    0  0.00000000000E+00  0.00000000000E+00  0.45593999997E+02  0.45594000000E+02  0.51100000000E-03 0.  1.
         11   -1    0    0    0    0 -0.00000000000E+00 -0.00000000000E+00 -0.45593999997E+02  0.45594000000E+02  0.51100000000E-03 0. -1.
    9900012    2    1    2    0    0  0.10735881681E+02 -0.37141155703E+02  0.23116852908E+02  0.46142317734E+02  0.99999997559E+01 0.  0.
         12    1    1    2    0    0 -0.10735881681E+02  0.37141155703E+02 -0.23116852908E+02  0.45045682266E+02  0.00000000000E+00 0. -1.
         11    1    3    3    0    0  0.47372379993E+01 -0.13235473814E+02  0.55545827069E+01  0.15115309466E+02  0.51100000000E-03 0. -1.
        -11    1    3    3    0    0  0.80330457717E+00 -0.23651811834E+01 -0.36560827124E+00  0.25244900363E+01  0.51100000000E-03 0.  1.
        -12    1    3    3    0    0  0.51953391046E+01 -0.21540500705E+02  0.17927878473E+02  0.28502518232E+02  0.00000000000E+00 0.  1.
</event>
<event>
 7    1  0.2438448E-008  0.4614232E+02  0.7816164E-02  0.1320468E+00
        -11   -1    0    0    0    0  0.00000000000E+00  0.00000000000E+00  0.45593999997E+02  0.45594000000E+02  0.51100000000E-03 0.  1.
         11   -1    0    0    0    0 -0.00000000000E+00 -0.00000000000E+00 -0.45593999997E+02  0.45594000000E+02  0.51100000000E-03 0. -1.
    9900012    2    1    2    0    0 -0.28677200063E+02 -0.18459308687E+01  0.34688964304E+02  0.46142317535E+02  0.99999979395E+01 0.  0.
         12    1    1    2    0    0  0.28677200063E+02  0.18459308687E+01 -0.34688964304E+02  0.45045682465E+02  0.00000000000E+00 0. -1.
         11    1    3    3    0    0 -0.29332435896E+01  0.51040934996E+00  0.11596764027E+01  0.31951972209E+01  0.51100000000E-03 0.  1.
        -11    1    3    3    0    0 -0.27223404916E+01 -0.24115466010E+01  0.64473982718E+01  0.74024076825E+01  0.51100000000E-03 0. -1.
        -12    1    3    3    0    0 -0.23021615982E+02  0.55206382428E-01  0.27081889630E+02  0.35544712632E+02  0.00000000000E+00 0.  1.
</event>
<event>
 7    1  0.2438448E-008  0.4614232E+02  0.7816164E-02  0.1320468E+00
        -11   -1    0    0    0    0  0.00000000000E+00  0.00000000000E+00  0.45593999997E+02  0.45594000000E+02  0.51100000000E-03 0. -1.
         11   -1    0    0    0    0 -0.00000000000E+00 -0.00000000000E+00 -0.45593999997E+02  0.45594000000E+02  0.51100000000E-03 0.  1.
    9900012    2    1    2    0    0  0.29817114459E+02  0.12213166067E+02 -0.31478430473E+02  0.46142319574E+02  0.10000016528E+02 0.  0.
         12    1    1    2    0    0 -0.29817114459E+02 -0.12213166067E+02  0.31478430473E+02  0.45045680426E+02  0.00000000000E+00 0. -1.
         11    1    3    3    0    0  0.95964537758E+01  0.25281948268E+01 -0.59827582266E+01  0.11587799205E+02  0.51100000000E-03 0. -1.
        -11    1    3    3    0    0  0.10009236241E+02  0.50916658315E+01 -0.80205557614E+01  0.13799970509E+02  0.51100000000E-03 0.  1.
        -12    1    3    3    0    0  0.10211424442E+02  0.45933054088E+01 -0.17475116485E+02  0.20754549859E+02  0.00000000000E+00 0.  1.
</event>
<event>
 7    1  0.2438448E-008  0.4614232E+02  0.7816164E-02  0.1320468E+00
        -11   -1    0    0    0    0  0.00000000000E+00  0.00000000000E+00  0.45593999997E+02  0.45594000000E+02  0.51100000000E-03 0.  1.
         11   -1    0    0    0    0 -0.00000000000E+00 -0.00000000000E+00 -0.45593999997E+02  0.45594000000E+02  0.51100000000E-03 0. -1.
    9900012    2    1    2    0    0 -0.76655506757E+01 -0.18545930232E+02  0.40328666364E+02  0.46142317343E+02  0.99999961906E+01 0.  0.
         12    1    1    2    0    0  0.76655506757E+01  0.18545930232E+02 -0.40328666364E+02  0.45045682657E+02  0.00000000000E+00 0. -1.
         11    1    3    3    0    0 -0.15090866066E+01 -0.25393395967E+01  0.50765800251E+01  0.58734362162E+01  0.51100000000E-03 0. -1.
        -11    1    3    3    0    0 -0.26351165293E+01 -0.12803798462E+02  0.17223191631E+02  0.21622197492E+02  0.51100000000E-03 0.  1.
         12    1    3    3    0    0 -0.35213475398E+01 -0.32027921734E+01  0.18028894707E+02  0.18646683635E+02  0.00000000000E+00 0. -1.
</event>
<event>
 7    1  0.2438448E-008  0.4614232E+02  0.7816164E-02  0.1320468E+00
        -11   -1    0    0    0    0  0.00000000000E+00  0.00000000000E+00  0.45593999997E+02  0.45594000000E+02  0.51100000000E-03 0. -1.
         11   -1    0    0    0    0 -0.00000000000E+00 -0.00000000000E+00 -0.45593999997E+02  0.45594000000E+02  0.51100000000E-03 0.  1.
    9900012    2    1    2    0    0  0.44393122700E+02  0.51054412372E+01 -0.56831983356E+01  0.46142316337E+02  0.99999870156E+01 0.  0.
         12    1    1    2    0    0 -0.44393122700E+02 -0.51054412372E+01  0.56831983356E+01  0.45045683663E+02  0.00000000000E+00 0. -1.
         11    1    3    3    0    0  0.98296992598E+00 -0.20689623214E+00 -0.46187575715E+00  0.11056063506E+01  0.51100000000E-03 0. -1.
        -11    1    3    3    0    0  0.24735769117E+02  0.77370143902E+00  0.11927640561E+01  0.24776593270E+02  0.51100000000E-03 0.  1.
        -12    1    3    3    0    0  0.18674383658E+02  0.45386360303E+01 -0.64140866346E+01  0.20260116716E+02  0.00000000000E+00 0.  1.
</event>
<event>
 7    1  0.2438448E-008  0.4614232E+02  0.7816164E-02  0.1320468E+00
        -11   -1    0    0    0    0  0.00000000000E+00  0.00000000000E+00  0.45593999997E+02  0.45594000000E+02  0.51100000000E-03 0.  1.
         11   -1    0    0    0    0 -0.00000000000E+00 -0.00000000000E+00 -0.45593999997E+02  0.45594000000E+02  0.51100000000E-03 0. -1.
    9900012    2    1    2    0    0  0.39165361117E+01 -0.16938669958E+02  0.41555453224E+02  0.46142317768E+02  0.10000000066E+02 0.  0.
         12    1    1    2    0    0 -0.39165361117E+01  0.16938669958E+02 -0.41555453224E+02  0.45045682232E+02  0.00000000000E+00 0. -1.
         11    1    3    3    0    0  0.17672456647E+01 -0.47270587610E+01  0.57025861613E+01  0.76149675611E+01  0.51100000000E-03 0.  1.
        -11    1    3    3    0    0  0.11700035436E+01  0.19453790981E+00  0.11160420925E+01  0.16285894215E+01  0.51100000000E-03 0. -1.
         12    1    3    3    0    0  0.97928690345E+00 -0.12406149106E+02  0.34736824970E+02  0.36898760786E+02  0.00000000000E+00 0. -1.
</event>
<event>
 7    1  0.2438448E-008  0.4614232E+02  0.7816164E-02  0.1320468E+00
        -11   -1    0    0    0    0  0.00000000000E+00  0.00000000000E+00  0.45593999997E+02  0.45594000000E+02  0.51100000000E-03 0.  1.
         11   -1    0    0    0    0 -0.00000000000E+00 -0.00000000000E+00 -0.45593999997E+02  0.45594000000E+02  0.51100000000E-03 0. -1.
    9900012    2    1    2    0    0 -0.42154574437E+01  0.63417204696E+01  0.44397363021E+02  0.46142319373E+02  0.10000014697E+02 0.  0.
         12    1    1    2    0    0  0.42154574437E+01 -0.63417204696E+01 -0.44397363021E+02  0.45045680627E+02  0.00000000000E+00 0. -1.
         11    1    3    3    0    0  0.26549078474E+01  0.17181797721E+01  0.13839867162E+02  0.14196570034E+02  0.51100000000E-03 0. -1.
        -11    1    3    3    0    0 -0.18626236414E+01  0.31566401941E+01  0.17588492281E+02  0.17966324196E+02  0.51100000000E-03 0.  1.
         12    1    3    3    0    0 -0.50077416497E+01  0.14669005035E+01  0.12969003577E+02  0.13979425142E+02  0.00000000000E+00 0. -1.
</event>
<event>
 7    1  0.2438448E-008  0.4614232E+02  0.7816164E-02  0.1320468E+00
        -11   -1    0    0    0    0  0.00000000000E+00  0.00000000000E+00  0.45593999997E+02  0.45594000000E+02  0.51100000000E-03 0. -1.
         11   -1    0    0    0    0 -0.00000000000E+00 -0.00000000000E+00 -0.45593999997E+02  0.45594000000E+02  0.51100000000E-03 0.  1.
    9900012    2    1    2    0    0 -0.31928312322E+02  0.23327474803E+02  0.21576029873E+02  0.46142320146E+02  0.10000021751E+02 0.  0.
         12    1    1    2    0    0  0.31928312322E+02 -0.23327474803E+02 -0.21576029873E+02  0.45045679854E+02  0.00000000000E+00 0. -1.
         11    1    3    3    0    0 -0.22340379053E+01 -0.25565642352E+00  0.36198923703E+00  0.22775693267E+01  0.51100000000E-03 0. -1.
        -11    1    3    3    0    0 -0.14893367651E+02  0.84477012087E+01  0.79041716951E+01  0.18858737660E+02  0.51100000000E-03 0.  1.
         12    1    3    3    0    0 -0.14800906766E+02  0.15135430018E+02  0.13309868941E+02  0.25006013159E+02  0.00000000000E+00 0. -1.
</event>
<event>
 7    1  0.2438448E-008  0.4614232E+02  0.7816164E-02  0.1320468E+00
        -11   -1    0    0    0    0  0.00000000000E+00  0.00000000000E+00  0.45593999997E+02  0.45594000000E+02  0.51100000000E-03 0.  1.
         11   -1    0    0    0    0 -0.00000000000E+00 -0.00000000000E+00 -0.45593999997E+02  0.45594000000E+02  0.51100000000E-03 0. -1.
    9900012    2    1    2    0    0 -0.22214403551E+01 -0.37342922252E+02  0.25093519452E+02  0.46142319207E+02  0.10000013186E+02 0.  0.
         12    1    1    2    0    0  0.22214403551E+01  0.37342922252E+02 -0.25093519452E+02  0.45045680793E+02  0.00000000000E+00 0. -1.
         11    1    3    3    0    0 -0.27492323753E+01 -0.45475278058E+01  0.19251703303E+01  0.56519526590E+01  0.51100000000E-03 0. -1.
        -11    1    3    3    0    0  0.78527224312E+00 -0.13444536401E+01  0.21783007846E+01  0.26775366768E+01  0.51100000000E-03 0.  1.
        -12    1    3    3    0    0 -0.25748022287E+00 -0.31450940806E+02  0.20990048337E+02  0.37812829871E+02  0.00000000000E+00 0.  1.
</event>
<event>
 7    1  0.2438448E-008  0.4614233E+02  0.7816164E-02  0.1320468E+00
        -11   -1    0    0    0    0  0.00000000000E+00  0.00000000000E+00  0.45593999997E+02  0.45594000000E+02  0.51100000000E-03 0.  1.
         11   -1    0    0    0    0 -0.00000000000E+00 -0.00000000000E+00 -0.45593999997E+02  0.45594000000E+02  0.51100000000E-03 0. -1.
    9900012    2    1    2    0    0  0.19155804006E+02 -0.40628856923E+01  0.40566741635E+02  0.46142329906E+02  0.10000110750E+02 0.  0.
         12    1    1    2    0    0 -0.19155804006E+02  0.40628856923E+01 -0.40566741635E+02  0.45045670094E+02  0.00000000000E+00 0. -1.
         11    1    3    3    0    0 -0.32286935991E+00 -0.10782565408E+01  0.49395154347E+01  0.50661321324E+01  0.51100000000E-03 0. -1.
        -11    1    3    3    0    0  0.12182769607E+02 -0.84474657585E-01  0.25510677536E+02  0.28270509013E+02  0.51100000000E-03 0.  1.
        -12    1    3    3    0    0  0.72959037598E+01 -0.29001544939E+01  0.10116548664E+02  0.12805688761E+02  0.00000000000E+00 0.  1.
</event>
<event>
 7    1  0.2438448E-008  0.4614232E+02  0.7816164E-02  0.1320468E+00
        -11   -1    0    0    0    0  0.00000000000E+00  0.00000000000E+00  0.45593999997E+02  0.45594000000E+02  0.51100000000E-03 0.  1.
         11   -1    0    0    0    0 -0.00000000000E+00 -0.00000000000E+00 -0.45593999997E+02  0.45594000000E+02  0.51100000000E-03 0. -1.
    9900012    2    1    2    0    0  0.42205829878E+02  0.89829801744E+01  0.12926230624E+02  0.46142318224E+02  0.10000004224E+02 0.  0.
         12    1    1    2    0    0 -0.42205829878E+02 -0.89829801744E+01 -0.12926230624E+02  0.45045681776E+02  0.00000000000E+00 0. -1.
         11    1    3    3    0    0  0.29328072041E+01  0.19202675218E+01 -0.98643753529E+00  0.36416815792E+01  0.51100000000E-03 0. -1.
        -11    1    3    3    0    0  0.20973344513E+02  0.37755460654E+01  0.50343809719E+01  0.21897052774E+02  0.51100000000E-03 0.  1.
         12    1    3    3    0    0  0.18299678161E+02  0.32871665872E+01  0.88782871870E+01  0.20603583871E+02  0.00000000000E+00 0. -1.
</event>
<event>
 7    1  0.2438448E-008  0.4614232E+02  0.7816164E-02  0.1320468E+00
        -11   -1    0    0    0    0  0.00000000000E+00  0.00000000000E+00  0.45593999997E+02  0.45594000000E+02  0.51100000000E-03 0.  1.
         11   -1    0    0    0    0 -0.00000000000E+00 -0.00000000000E+00 -0.45593999997E+02  0.45594000000E+02  0.51100000000E-03 0. -1.
    9900012    2    1    2    0    0  0.39803392290E+02 -0.94360517155E+01 -0.18861717212E+02  0.46142317788E+02  0.10000000246E+02 0.  0.
         12    1    1    2    0    0 -0.39803392290E+02  0.94360517155E+01  0.18861717212E+02  0.45045682212E+02  0.00000000000E+00 0. -1.
         11    1    3    3    0    0  0.12438825074E+02 -0.38463460806E+01 -0.62262171626E+01  0.14432065958E+02  0.51100000000E-03 0. -1.
        -11    1    3    3    0    0  0.19248868273E+02 -0.14561554835E+01 -0.11656043987E+02  0.22550003997E+02  0.51100000000E-03 0.  1.
         12    1    3    3    0    0  0.81156989428E+01 -0.41335501514E+01 -0.97945606230E+00  0.91602478330E+01  0.00000000000E+00 0. -1.
</event>
<event>
 7    1  0.2438448E-008  0.4614232E+02  0.7816164E-02  0.1320468E+00
        -11   -1    0    0    0    0  0.00000000000E+00  0.00000000000E+00  0.45593999997E+02  0.45594000000E+02  0.51100000000E-03 0. -1.
         11   -1    0    0    0    0 -0.00000000000E+00 -0.00000000000E+00 -0.45593999997E+02  0.45594000000E+02  0.51100000000E-03 0.  1.
    9900012    2    1    2    0    0 -0.18802678044E+01 -0.25726481501E+02 -0.36928663633E+02  0.46142318129E+02  0.10000003359E+02 0.  0.
         12    1    1    2    0    0  0.18802678044E+01  0.25726481501E+02  0.36928663633E+02  0.45045681871E+02  0.00000000000E+00 0. -1.
         11    1    3    3    0    0  0.23379259854E+01 -0.93273126666E+01 -0.10586577254E+02  0.14301757854E+02  0.51100000000E-03 0. -1.
        -11    1    3    3    0    0 -0.15748961531E+01 -0.12897464975E+02 -0.22623902831E+02  0.26089574168E+02  0.51100000000E-03 0.  1.
         12    1    3    3    0    0 -0.26432976367E+01 -0.35017038597E+01 -0.37181835485E+01  0.57509861083E+01  0.00000000000E+00 0. -1.
</event>
<event>
 7    1  0.2438448E-008  0.4614231E+02  0.7816164E-02  0.1320468E+00
        -11   -1    0    0    0    0  0.00000000000E+00  0.00000000000E+00  0.45593999997E+02  0.45594000000E+02  0.51100000000E-03 0. -1.
         11   -1    0    0    0    0 -0.00000000000E+00 -0.00000000000E+00 -0.45593999997E+02  0.45594000000E+02  0.51100000000E-03 0.  1.
    9900012    2    1    2    0    0 -0.17313533792E+02 -0.38384801234E+02 -0.15998833480E+02  0.46142311073E+02  0.99999390111E+01 0.  0.
         12    1    1    2    0    0  0.17313533792E+02  0.38384801234E+02  0.15998833480E+02  0.45045688927E+02  0.00000000000E+00 0. -1.
         11    1    3    3    0    0 -0.32787029475E+01 -0.11417978010E+02 -0.47463375045E+00  0.11888876831E+02  0.51100000000E-03 0. -1.
        -11    1    3    3    0    0 -0.72063017254E+01 -0.13221337778E+02 -0.61243039883E+01  0.16255511582E+02  0.51100000000E-03 0.  1.
         12    1    3    3    0    0 -0.68285291195E+01 -0.13745485446E+02 -0.93998957416E+01  0.17997922659E+02  0.00000000000E+00 0. -1.
</event>
<event>
 7    1  0.2438448E-008  0.4614232E+02  0.7816164E-02  0.1320468E+00
        -11   -1    0    0    0    0  0.00000000000E+00  0.00000000000E+00  0.45593999997E+02  0.45594000000E+02  0.51100000000E-03 0. -1.
         11   -1    0    0    0    0 -0.00000000000E+00 -0.00000000000E+00 -0.45593999997E+02  0.45594000000E+02  0.51100000000E-03 0.  1.
    9900012    2    1    2    0    0 -0.41043764695E+02 -0.17671594982E+02  0.56778051084E+01  0.46142319182E+02  0.10000012953E+02 0.  0.
         12    1    1    2    0    0  0.41043764695E+02  0.17671594982E+02 -0.56778051084E+01  0.45045680818E+02  0.00000000000E+00 0. -1.
         11    1    3    3    0    0 -0.18805196616E+01  0.37666258822E+00 -0.53000696118E+00  0.19897579106E+01  0.51100000000E-03 0. -1.
        -11    1    3    3    0    0 -0.84284505002E+01 -0.58397120423E+01  0.40059333209E+01  0.11008565602E+02  0.51100000000E-03 0.  1.
        -12    1    3    3    0    0 -0.30734794533E+02 -0.12208545528E+02  0.22018787486E+01  0.33143995669E+02  0.00000000000E+00 0.  1.
</event>
<event>
 7    1  0.2438448E-008  0.4614232E+02  0.7816164E-02  0.1320468E+00
        -11   -1    0    0    0    0  0.00000000000E+00  0.00000000000E+00  0.45593999997E+02  0.45594000000E+02  0.51100000000E-03 0.  1.
         11   -1    0    0    0    0 -0.00000000000E+00 -0.00000000000E+00 -0.45593999997E+02  0.45594000000E+02  0.51100000000E-03 0. -1.
    9900012    2    1    2    0    0 -0.28572461024E+02 -0.33912882034E+02  0.79148216910E+01  0.46142317640E+02  0.99999988999E+01 0.  0.
         12    1    1    2    0    0  0.28572461024E+02  0.33912882034E+02 -0.79148216910E+01  0.45045682360E+02  0.00000000000E+00 0. -1.
         11    1    3    3    0    0 -0.12439462836E+02 -0.10160441102E+02 -0.52573254718E+00  0.16070195830E+02  0.51100000000E-03 0. -1.
        -11    1    3    3    0    0 -0.74931078071E+01 -0.13494001659E+02  0.40106519867E+01  0.15947415935E+02  0.51100000000E-03 0.  1.
        -12    1    3    3    0    0 -0.86398903808E+01 -0.10258439273E+02  0.44299022515E+01  0.14124705876E+02  0.00000000000E+00 0.  1.
</event>
<event>
 7    1  0.2438448E-008  0.4614232E+02  0.7816164E-02  0.1320468E+00
        -11   -1    0    0    0    0  0.00000000000E+00  0.00000000000E+00  0.45593999997E+02  0.45594000000E+02  0.51100000000E-03 0.  1.
         11   -1    0    0    0    0 -0.00000000000E+00 -0.00000000000E+00 -0.45593999997E+02  0.45594000000E+02  0.51100000000E-03 0. -1.
    9900012    2    1    2    0    0  0.91595096948E+00 -0.26848108172E+02  0.36158728538E+02  0.46142317320E+02  0.99999959784E+01 0.  0.
         12    1    1    2    0    0 -0.91595096948E+00  0.26848108172E+02 -0.36158728538E+02  0.45045682680E+02  0.00000000000E+00 0. -1.
         11    1    3    3    0    0 -0.18140762151E+01 -0.11744949851E+02  0.10264519283E+02  0.15703346009E+02  0.51100000000E-03 0. -1.
        -11    1    3    3    0    0  0.38840420319E+01 -0.12333347357E+02  0.19835324705E+02  0.23677781694E+02  0.51100000000E-03 0.  1.
         12    1    3    3    0    0 -0.11540148473E+01 -0.27698109648E+01  0.60588845495E+01  0.67611896167E+01  0.00000000000E+00 0. -1.
</event>
<event>
 7    1  0.2438448E-008  0.4614232E+02  0.7816164E-02  0.1320468E+00
        -11   -1    0    0    0    0  0.00000000000E+00  0.00000000000E+00  0.45593999997E+02  0.45594000000E+02  0.51100000000E-03 0.  1.
         11   -1    0    0    0    0 -0.00000000000E+00 -0.00000000000E+00 -0.45593999997E+02  0.45594000000E+02  0.51100000000E-03 0. -1.
    9900012    2    1    2    0    0  0.32725117633E+02  0.28804354303E+02 -0.11335313552E+02  0.46142317807E+02  0.10000000421E+02 0.  0.
         12    1    1    2    0    0 -0.32725117633E+02 -0.28804354303E+02  0.11335313552E+02  0.45045682193E+02  0.00000000000E+00 0. -1.
         11    1    3    3    0    0  0.19266750553E+02  0.18070561398E+02 -0.10264017510E+02  0.28339070588E+02  0.51100000000E-03 0. -1.
        -11    1    3    3    0    0  0.56739281994E+01  0.59902158140E+01 -0.23958870109E+01  0.85916483599E+01  0.51100000000E-03 0.  1.
        -12    1    3    3    0    0  0.77844388803E+01  0.47435770912E+01  0.13245909694E+01  0.92115988589E+01  0.00000000000E+00 0.  1.
</event>
<event>
 7    1  0.2438448E-008  0.4614232E+02  0.7816164E-02  0.1320468E+00
        -11   -1    0    0    0    0  0.00000000000E+00  0.00000000000E+00  0.45593999997E+02  0.45594000000E+02  0.51100000000E-03 0.  1.
         11   -1    0    0    0    0 -0.00000000000E+00 -0.00000000000E+00 -0.45593999997E+02  0.45594000000E+02  0.51100000000E-03 0. -1.
    9900012    2    1    2    0    0 -0.38116320201E+02 -0.18304908361E+02  0.15530292202E+02  0.46142317503E+02  0.99999976433E+01 0.  0.
         12    1    1    2    0    0  0.38116320201E+02  0.18304908361E+02 -0.15530292202E+02  0.45045682497E+02  0.00000000000E+00 0. -1.
         11    1    3    3    0    0  0.35351592997E+00  0.78904296225E-01 -0.18637088063E+00  0.40734968636E+00  0.51100000000E-03 0. -1.
        -11    1    3    3    0    0 -0.15003088797E+02 -0.47959536600E+01  0.44213775366E+01  0.16359780700E+02  0.51100000000E-03 0.  1.
        -12    1    3    3    0    0 -0.23466747334E+02 -0.13587858998E+02  0.11295285546E+02  0.29375187117E+02  0.00000000000E+00 0.  1.
</event>
<event>
 7    1  0.2438448E-008  0.4614232E+02  0.7816164E-02  0.1320468E+00
        -11   -1    0    0    0    0  0.00000000000E+00  0.00000000000E+00  0.45593999997E+02  0.45594000000E+02  0.51100000000E-03 0. -1.
         11   -1    0    0    0    0 -0.00000000000E+00 -0.00000000000E+00 -0.45593999997E+02  0.45594000000E+02  0.51100000000E-03 0.  1.
    9900012    2    1    2    0    0 -0.77278310167E+01 -0.39620234131E+02 -0.19990778378E+02  0.46142317132E+02  0.99999942667E+01 0.  0.
         12    1    1    2    0    0  0.77278310167E+01  0.39620234131E+02  0.19990778378E+02  0.45045682868E+02  0.00000000000E+00 0. -1.
         11    1    3    3    0    0 -0.24427323367E+01 -0.17047357062E+02 -0.10567158836E+02  0.20205053086E+02  0.51100000000E-03 0.  1.
        -11    1    3    3    0    0 -0.18219825490E+01 -0.17138239943E+02 -0.44586783869E+01  0.17802210592E+02  0.51100000000E-03 0. -1.
         12    1    3    3    0    0 -0.34631161310E+01 -0.54346371264E+01 -0.49649411551E+01  0.81350534544E+01  0.00000000000E+00 0. -1.
</event>
<event>
 7    1  0.2438448E-008  0.4614232E+02  0.7816164E-02  0.1320468E+00
        -11   -1    0    0    0    0  0.00000000000E+00  0.00000000000E+00  0.45593999997E+02  0.45594000000E+02  0.51100000000E-03 0.  1.
         11   -1    0    0    0    0 -0.00000000000E+00 -0.00000000000E+00 -0.45593999997E+02  0.45594000000E+02  0.51100000000E-03 0. -1.
    9900012    2    1    2    0    0  0.99887536748E+01  0.71039719313E+01  0.43345957924E+02  0.46142315572E+02  0.99999800409E+01 0.  0.
         12    1    1    2    0    0 -0.99887536748E+01 -0.71039719313E+01 -0.43345957924E+02  0.45045684428E+02  0.00000000000E+00 0. -1.
         11    1    3    3    0    0  0.45556941239E+01 -0.46265123763E-01  0.98539454577E+01  0.10856183987E+02  0.51100000000E-03 0. -1.
        -11    1    3    3    0    0  0.35312221897E+01  0.56635261023E+01  0.12630961120E+02  0.14285875441E+02  0.51100000000E-03 0.  1.
        -12    1    3    3    0    0  0.19018373612E+01  0.14867109527E+01  0.20861051347E+02  0.21000256144E+02  0.00000000000E+00 0.  1.
</event>
<event>
 7    1  0.2438448E-008  0.4614232E+02  0.7816164E-02  0.1320468E+00
        -11   -1    0    0    0    0  0.00000000000E+00  0.00000000000E+00  0.45593999997E+02  0.45594000000E+02  0.51100000000E-03 0.  1.
         11   -1    0    0    0    0 -0.00000000000E+00 -0.00000000000E+00 -0.45593999997E+02  0.45594000000E+02  0.51100000000E-03 0. -1.
    9900012    2    1    2    0    0  0.11681878187E+01 -0.92245628162E+01  0.44075574188E+02  0.46142318054E+02  0.10000002672E+02 0.  0.
         12    1    1    2    0    0 -0.11681878187E+01  0.92245628162E+01 -0.44075574188E+02  0.45045681946E+02  0.00000000000E+00 0. -1.
         11    1    3    3    0    0 -0.12138997138E+01  0.15693626274E+00  0.46554027751E+01  0.48136220006E+01  0.51100000000E-03 0. -1.
        -11    1    3    3    0    0  0.46850109271E+01 -0.57624691807E+01  0.17801679018E+02  0.19288731284E+02  0.51100000000E-03 0.  1.
         12    1    3    3    0    0 -0.23029233947E+01 -0.36190298982E+01  0.21618492396E+02  0.22039964769E+02  0.00000000000E+00 0. -1.
</event>
<event>
 7    1  0.2438448E-008  0.4614232E+02  0.7816164E-02  0.1320468E+00
        -11   -1    0    0    0    0  0.00000000000E+00  0.00000000000E+00  0.45593999997E+02  0.45594000000E+02  0.51100000000E-03 0.  1.
         11   -1    0    0    0    0 -0.00000000000E+00 -0.00000000000E+00 -0.45593999997E+02  0.45594000000E+02  0.51100000000E-03 0. -1.
    9900012    2    1    2    0    0 -0.37390922291E+02 -0.25078433648E+02  0.14507049376E+01  0.46142318200E+02  0.10000004001E+02 0.  0.
         12    1    1    2    0    0  0.37390922291E+02  0.25078433648E+02 -0.14507049376E+01  0.45045681800E+02  0.00000000000E+00 0. -1.
         11    1    3    3    0    0 -0.15579126171E+01 -0.18321183641E+01  0.21985770228E+01  0.32584491110E+01  0.51100000000E-03 0. -1.
        -11    1    3    3    0    0 -0.13795001245E+02 -0.70987172102E+01  0.64508794778E+00  0.15527716642E+02  0.51100000000E-03 0.  1.
         12    1    3    3    0    0 -0.22038008429E+02 -0.16147598073E+02 -0.13929600330E+01  0.27356152447E+02  0.00000000000E+00 0. -1.
</event>
<event>
 7    1  0.2438448E-008  0.4614232E+02  0.7816164E-02  0.1320468E+00
        -11   -1    0    0    0    0  0.00000000000E+00  0.00000000000E+00  0.45593999997E+02  0.45594000000E+02  0.51100000000E-03 0.  1.
         11   -1    0    0    0    0 -0.00000000000E+00 -0.00000000000E+00 -0.45593999997E+02  0.45594000000E+02  0.51100000000E-03 0. -1.
    9900012    2    1    2    0    0  0.36083268125E+02  0.86083406450E+01 -0.25554015885E+02  0.46142317686E+02  0.99999993196E+01 0.  0.
         12    1    1    2    0    0 -0.36083268125E+02 -0.86083406450E+01  0.25554015885E+02  0.45045682314E+02  0.00000000000E+00 0. -1.
         11    1    3    3    0    0  0.64003760267E+01  0.49857163940E+01 -0.65472605917E+01  0.10425392211E+02  0.51100000000E-03 0. -1.
        -11    1    3    3    0    0  0.14941099663E+02  0.40585284748E+01 -0.10169532107E+02  0.18523700927E+02  0.51100000000E-03 0.  1.
         12    1    3    3    0    0  0.14741792435E+02 -0.43590422378E+00 -0.88372231870E+01  0.17193224548E+02  0.00000000000E+00 0. -1.
</event>
<event>
 7    1  0.2438448E-008  0.4614232E+02  0.7816164E-02  0.1320468E+00
        -11   -1    0    0    0    0  0.00000000000E+00  0.00000000000E+00  0.45593999997E+02  0.45594000000E+02  0.51100000000E-03 0.  1.
         11   -1    0    0    0    0 -0.00000000000E+00 -0.00000000000E+00 -0.45593999997E+02  0.45594000000E+02  0.51100000000E-03 0. -1.
    9900012    2    1    2    0    0  0.24725747668E+02 -0.19769849229E+02  0.32045342079E+02  0.46142317796E+02  0.10000000315E+02 0.  0.
         12    1    1    2    0    0 -0.24725747668E+02  0.19769849229E+02 -0.32045342079E+02  0.45045682204E+02  0.00000000000E+00 0. -1.
         11    1    3    3    0    0  0.75120175855E+01 -0.84339379938E+01  0.12010519794E+02  0.16486791813E+02  0.51100000000E-03 0. -1.
        -11    1    3    3    0    0  0.17340119480E+02 -0.11591808686E+02  0.17852787305E+02  0.27454904607E+02  0.51100000000E-03 0.  1.
         12    1    3    3    0    0 -0.12638939722E+00  0.25589745033E+00  0.21820349797E+01  0.22006213753E+01  0.00000000000E+00 0. -1.
</event>
<event>
 7    1  0.2438448E-008  0.4614232E+02  0.7816164E-02  0.1320468E+00
        -11   -1    0    0    0    0  0.00000000000E+00  0.00000000000E+00  0.45593999997E+02  0.45594000000E+02  0.51100000000E-03 0. -1.
         11   -1    0    0    0    0 -0.00000000000E+00 -0.00000000000E+00 -0.45593999997E+02  0.45594000000E+02  0.51100000000E-03 0.  1.
    9900012    2    1    2    0    0  0.15422276689E+02  0.26472441126E+02 -0.33022366428E+02  0.46142318277E+02  0.10000004701E+02 0.  0.
         12    1    1    2    0    0 -0.15422276689E+02 -0.26472441126E+02  0.33022366428E+02  0.45045681723E+02  0.00000000000E+00 0. -1.
         11    1    3    3    0    0  0.98211037633E-01  0.41378612227E+01 -0.64503547785E+01  0.76641123384E+01  0.51100000000E-03 0. -1.
        -11    1    3    3    0    0  0.14324774667E+02  0.19818425643E+02 -0.20801152967E+02  0.32103849135E+02  0.51100000000E-03 0.  1.
        -12    1    3    3    0    0  0.99929098457E+00  0.25161542599E+01 -0.57708586818E+01  0.63743568033E+01  0.00000000000E+00 0.  1.
</event>
<event>
 7    1  0.2438448E-008  0.4614232E+02  0.7816164E-02  0.1320468E+00
        -11   -1    0    0    0    0  0.00000000000E+00  0.00000000000E+00  0.45593999997E+02  0.45594000000E+02  0.51100000000E-03 0. -1.
         11   -1    0    0    0    0 -0.00000000000E+00 -0.00000000000E+00 -0.45593999997E+02  0.45594000000E+02  0.51100000000E-03 0.  1.
    9900012    2    1    2    0    0  0.58091920950E+01 -0.27794361384E+02 -0.34969133492E+02  0.46142317247E+02  0.99999953075E+01 0.  0.
         12    1    1    2    0    0 -0.58091920950E+01  0.27794361384E+02  0.34969133492E+02  0.45045682753E+02  0.00000000000E+00 0. -1.
         11    1    3    3    0    0  0.45163078759E+01 -0.21685705660E+02 -0.30373496131E+02  0.37592767047E+02  0.51100000000E-03 0.  1.
        -11    1    3    3    0    0  0.22046496822E+01 -0.58631867350E+01 -0.39414810263E+01  0.74008588591E+01  0.51100000000E-03 0. -1.
        -12    1    3    3    0    0 -0.91176546312E+00 -0.24546898891E+00 -0.65415633525E+00  0.11486913403E+01  0.00000000000E+00 0.  1.
</event>
<event>
 7    1  0.2438448E-008  0.4614232E+02  0.7816164E-02  0.1320468E+00
        -11   -1    0    0    0    0  0.00000000000E+00  0.00000000000E+00  0.45593999997E+02  0.45594000000E+02  0.51100000000E-03 0.  1.
         11   -1    0    0    0    0 -0.00000000000E+00 -0.00000000000E+00 -0.45593999997E+02  0.45594000000E+02  0.51100000000E-03 0. -1.
    9900012    2    1    2    0    0 -0.44924985784E+02  0.94431844548E+00 -0.31571448850E+01  0.46142315980E+02  0.99999837605E+01 0.  0.
         12    1    1    2    0    0  0.44924985784E+02 -0.94431844548E+00  0.31571448850E+01  0.45045684020E+02  0.00000000000E+00 0. -1.
         11    1    3    3    0    0 -0.17930919134E+01 -0.76567081705E+00 -0.19518405675E+01  0.27588244366E+01  0.51100000000E-03 0. -1.
        -11    1    3    3    0    0 -0.31612827411E+02 -0.51886464877E+00 -0.14176509928E+01  0.31648851671E+02  0.51100000000E-03 0.  1.
         12    1    3    3    0    0 -0.11519066459E+02  0.22288539113E+01  0.21234667526E+00  0.11734639873E+02  0.00000000000E+00 0. -1.
</event>
<event>
 7    1  0.2438448E-008  0.4614231E+02  0.7816164E-02  0.1320468E+00
        -11   -1    0    0    0    0  0.00000000000E+00  0.00000000000E+00  0.45593999997E+02  0.45594000000E+02  0.51100000000E-03 0.  1.
         11   -1    0    0    0    0 -0.00000000000E+00 -0.00000000000E+00 -0.45593999997E+02  0.45594000000E+02  0.51100000000E-03 0. -1.
    9900012    2    1    2    0    0 -0.13449829934E+02  0.23735927172E+01  0.42925309478E+02  0.46142311401E+02  0.99999420013E+01 0.  0.
         12    1    1    2    0    0  0.13449829934E+02 -0.23735927172E+01 -0.42925309478E+02  0.45045688599E+02  0.00000000000E+00 0. -1.
         11    1    3    3    0    0 -0.81021922667E+01  0.17644594345E+01  0.15360139690E+02  0.17455449813E+02  0.51100000000E-03 0. -1.
        -11    1    3    3    0    0 -0.44760501831E+01 -0.20970989222E+01  0.14614520251E+02  0.15427801255E+02  0.51100000000E-03 0.  1.
         12    1    3    3    0    0 -0.87158748386E+00  0.27062322049E+01  0.12950649537E+02  0.13259060333E+02  0.00000000000E+00 0. -1.
</event>
<event>
 7    1  0.2438448E-008  0.4614233E+02  0.7816164E-02  0.1320468E+00
        -11   -1    0    0    0    0  0.00000000000E+00  0.00000000000E+00  0.45593999997E+02  0.45594000000E+02  0.51100000000E-03 0.  1.
         11   -1    0    0    0    0 -0.00000000000E+00 -0.00000000000E+00 -0.45593999997E+02  0.45594000000E+02  0.51100000000E-03 0. -1.
    9900012    2    1    2    0    0 -0.40799636165E+02  0.16187852442E+02  0.10122051665E+02  0.46142325316E+02  0.10000068887E+02 0.  0.
         12    1    1    2    0    0  0.40799636165E+02 -0.16187852442E+02 -0.10122051665E+02  0.45045674684E+02  0.00000000000E+00 0. -1.
         11    1    3    3    0    0 -0.22159441888E+02  0.11827932833E+02  0.24814226110E+01  0.25240806610E+02  0.51100000000E-03 0. -1.
        -11    1    3    3    0    0 -0.73458703882E+01  0.34739771713E+01  0.31997718956E+01  0.87332050011E+01  0.51100000000E-03 0.  1.
         12    1    3    3    0    0 -0.11294323888E+02  0.88594243786E+00  0.44408571588E+01  0.12168313704E+02  0.00000000000E+00 0. -1.
</event>
<event>
 7    1  0.2438448E-008  0.4614232E+02  0.7816164E-02  0.1320468E+00
        -11   -1    0    0    0    0  0.00000000000E+00  0.00000000000E+00  0.45593999997E+02  0.45594000000E+02  0.51100000000E-03 0.  1.
         11   -1    0    0    0    0 -0.00000000000E+00 -0.00000000000E+00 -0.45593999997E+02  0.45594000000E+02  0.51100000000E-03 0. -1.
    9900012    2    1    2    0    0 -0.34248907500E+00 -0.12999783736E+02  0.43127738026E+02  0.46142318041E+02  0.10000002549E+02 0.  0.
         12    1    1    2    0    0  0.34248907500E+00  0.12999783736E+02 -0.43127738026E+02  0.45045681959E+02  0.00000000000E+00 0. -1.
         11    1    3    3    0    0  0.56672059540E+00 -0.11485435826E+01  0.78413107784E+00  0.15017278058E+01  0.51100000000E-03 0. -1.
        -11    1    3    3    0    0 -0.38717584994E+01 -0.48080718788E+01  0.23728027561E+02  0.24517898794E+02  0.51100000000E-03 0.  1.
         12    1    3    3    0    0  0.29625488290E+01 -0.70431682746E+01  0.18615579387E+02  0.20122691441E+02  0.00000000000E+00 0. -1.
</event>
<event>
 7    1  0.2438448E-008  0.4614232E+02  0.7816164E-02  0.1320468E+00
        -11   -1    0    0    0    0  0.00000000000E+00  0.00000000000E+00  0.45593999997E+02  0.45594000000E+02  0.51100000000E-03 0. -1.
         11   -1    0    0    0    0 -0.00000000000E+00 -0.00000000000E+00 -0.45593999997E+02  0.45594000000E+02  0.51100000000E-03 0.  1.
    9900012    2    1    2    0    0  0.35893677876E+02  0.10665046318E+02 -0.25040252706E+02  0.46142316744E+02  0.99999907270E+01 0.  0.
         12    1    1    2    0    0 -0.35893677876E+02 -0.10665046318E+02  0.25040252706E+02  0.45045683256E+02  0.00000000000E+00 0. -1.
         11    1    3    3    0    0  0.12331385469E+01 -0.13334106625E+01 -0.21073231650E+01  0.27819823604E+01  0.51100000000E-03 0. -1.
        -11    1    3    3    0    0  0.10080824025E+02  0.22115789720E+01 -0.57619317080E+01  0.11820065644E+02  0.51100000000E-03 0.  1.
         12    1    3    3    0    0  0.24579715304E+02  0.97868780089E+01 -0.17170997833E+02  0.31540268740E+02  0.00000000000E+00 0. -1.
</event>
<event>
 7    1  0.2438448E-008  0.4614233E+02  0.7816164E-02  0.1320468E+00
        -11   -1    0    0    0    0  0.00000000000E+00  0.00000000000E+00  0.45593999997E+02  0.45594000000E+02  0.51100000000E-03 0. -1.
         11   -1    0    0    0    0 -0.00000000000E+00 -0.00000000000E+00 -0.45593999997E+02  0.45594000000E+02  0.51100000000E-03 0.  1.
    9900012    2    1    2    0    0 -0.26424140043E+02  0.25220622959E+02 -0.26359015909E+02  0.46142326299E+02  0.10000077857E+02 0.  0.
         12    1    1    2    0    0  0.26424140043E+02 -0.25220622959E+02  0.26359015909E+02  0.45045673701E+02  0.00000000000E+00 0. -1.
         11    1    3    3    0    0 -0.12382524972E+02  0.10801045110E+02 -0.16389164182E+02  0.23207632429E+02  0.51100000000E-03 0. -1.
        -11    1    3    3    0    0 -0.85740485170E+00 -0.26051339492E+00 -0.68472419815E+00  0.11277667300E+01  0.51100000000E-03 0.  1.
        -12    1    3    3    0    0 -0.13184210220E+02  0.14680091244E+02 -0.92851275292E+01  0.21806927140E+02  0.00000000000E+00 0.  1.
</event>
<event>
 7    1  0.2438448E-008  0.4614232E+02  0.7816164E-02  0.1320468E+00
        -11   -1    0    0    0    0  0.00000000000E+00  0.00000000000E+00  0.45593999997E+02  0.45594000000E+02  0.51100000000E-03 0. -1.
         11   -1    0    0    0    0 -0.00000000000E+00 -0.00000000000E+00 -0.45593999997E+02  0.45594000000E+02  0.51100000000E-03 0.  1.
    9900012    2    1    2    0    0 -0.14457071307E+02  0.36685211089E+02 -0.21778465186E+02  0.46142321303E+02  0.10000032299E+02 0.  0.
         12    1    1    2    0    0  0.14457071307E+02 -0.36685211089E+02  0.21778465186E+02  0.45045678697E+02  0.00000000000E+00 0. -1.
         11    1    3    3    0    0 -0.40561595196E+01  0.82074924274E+01 -0.86262107514E+01  0.12578826423E+02  0.51100000000E-03 0. -1.
        -11    1    3    3    0    0 -0.14161687014E+01  0.12094570572E+02 -0.57339177048E+01  0.13459642775E+02  0.51100000000E-03 0.  1.
         12    1    3    3    0    0 -0.89847430863E+01  0.16383148090E+02 -0.74183367294E+01  0.20103852106E+02  0.00000000000E+00 0. -1.
</event>
<event>
 7    1  0.2438448E-008  0.4614231E+02  0.7816164E-02  0.1320468E+00
        -11   -1    0    0    0    0  0.00000000000E+00  0.00000000000E+00  0.45593999997E+02  0.45594000000E+02  0.51100000000E-03 0. -1.
         11   -1    0    0    0    0 -0.00000000000E+00 -0.00000000000E+00 -0.45593999997E+02  0.45594000000E+02  0.51100000000E-03 0.  1.
    9900012    2    1    2    0    0  0.40716742230E+02  0.10646045534E+02  0.16059978281E+02  0.46142308911E+02  0.99999192942E+01 0.  0.
         12    1    1    2    0    0 -0.40716742230E+02 -0.10646045534E+02 -0.16059978281E+02  0.45045691089E+02  0.00000000000E+00 0. -1.
         11    1    3    3    0    0  0.11731877484E+02  0.32011594967E+00  0.45716661689E+01  0.12595219543E+02  0.51100000000E-03 0. -1.
        -11    1    3    3    0    0  0.42599160301E+01  0.30147549263E+01 -0.23428002784E+00  0.52240328523E+01  0.51100000000E-03 0.  1.
        -12    1    3    3    0    0  0.24724948715E+02  0.73111746579E+01  0.11722592140E+02  0.28323056515E+02  0.00000000000E+00 0.  1.
</event>
<event>
 7    1  0.2438448E-008  0.4614232E+02  0.7816164E-02  0.1320468E+00
        -11   -1    0    0    0    0  0.00000000000E+00  0.00000000000E+00  0.45593999997E+02  0.45594000000E+02  0.51100000000E-03 0.  1.
         11   -1    0    0    0    0 -0.00000000000E+00 -0.00000000000E+00 -0.45593999997E+02  0.45594000000E+02  0.51100000000E-03 0. -1.
    9900012    2    1    2    0    0  0.16029285577E+02  0.14874012976E+02  0.39381964681E+02  0.46142318740E+02  0.10000008924E+02 0.  0.
         12    1    1    2    0    0 -0.16029285577E+02 -0.14874012976E+02 -0.39381964681E+02  0.45045681260E+02  0.00000000000E+00 0. -1.
         11    1    3    3    0    0  0.92692139891E+01  0.12250355435E+02  0.30294790139E+02  0.33967099466E+02  0.51100000000E-03 0. -1.
        -11    1    3    3    0    0  0.31034114548E+01  0.26563775217E+01  0.65677701083E+01  0.77345399768E+01  0.51100000000E-03 0.  1.
         12    1    3    3    0    0  0.36566601328E+01 -0.32719981570E-01  0.25194044330E+01  0.44406792973E+01  0.00000000000E+00 0. -1.
</event>
<event>
 7    1  0.2438448E-008  0.4614232E+02  0.7816164E-02  0.1320468E+00
        -11   -1    0    0    0    0  0.00000000000E+00  0.00000000000E+00  0.45593999997E+02  0.45594000000E+02  0.51100000000E-03 0.  1.
         11   -1    0    0    0    0 -0.00000000000E+00 -0.00000000000E+00 -0.45593999997E+02  0.45594000000E+02  0.51100000000E-03 0. -1.
    9900012    2    1    2    0    0 -0.91831164900E+01  0.29468621554E+02  0.32808293753E+02  0.46142318478E+02  0.10000006540E+02 0.  0.
         12    1    1    2    0    0  0.91831164900E+01 -0.29468621554E+02 -0.32808293753E+02  0.45045681522E+02  0.00000000000E+00 0. -1.
         11    1    3    3    0    0 -0.10103899258E+01  0.34185898529E+01  0.78019568203E+01  0.85777721392E+01  0.51100000000E-03 0. -1.
        -11    1    3    3    0    0  0.66724332594E-01  0.49318861044E+01  0.72539209128E+01  0.87719622408E+01  0.51100000000E-03 0.  1.
        -12    1    3    3    0    0 -0.82394508968E+01  0.21118145596E+02  0.17752416020E+02  0.28792584098E+02  0.00000000000E+00 0.  1.
</event>
<event>
 7    1  0.2438448E-008  0.4614232E+02  0.7816164E-02  0.1320468E+00
        -11   -1    0    0    0    0  0.00000000000E+00  0.00000000000E+00  0.45593999997E+02  0.45594000000E+02  0.51100000000E-03 0. -1.
         11   -1    0    0    0    0 -0.00000000000E+00 -0.00000000000E+00 -0.45593999997E+02  0.45594000000E+02  0.51100000000E-03 0.  1.
    9900012    2    1    2    0    0  0.58930201180E+01 -0.34968862817E+02 -0.27777049077E+02  0.46142317540E+02  0.99999979869E+01 0.  0.
         12    1    1    2    0    0 -0.58930201180E+01  0.34968862817E+02  0.27777049077E+02  0.45045682460E+02  0.00000000000E+00 0. -1.
         11    1    3    3    0    0  0.12833120503E+01 -0.36401701972E+01 -0.14766562923E+01  0.41325830845E+01  0.51100000000E-03 0. -1.
        -11    1    3    3    0    0  0.26944448762E+01 -0.81434363687E+01 -0.11829552406E+02  0.14612114819E+02  0.51100000000E-03 0.  1.
        -12    1    3    3    0    0  0.19152631915E+01 -0.23185256251E+02 -0.14470840378E+02  0.27397619637E+02  0.00000000000E+00 0.  1.
</event>
<event>
 7    1  0.2438448E-008  0.4614232E+02  0.7816164E-02  0.1320468E+00
        -11   -1    0    0    0    0  0.00000000000E+00  0.00000000000E+00  0.45593999997E+02  0.45594000000E+02  0.51100000000E-03 0. -1.
         11   -1    0    0    0    0 -0.00000000000E+00 -0.00000000000E+00 -0.45593999997E+02  0.45594000000E+02  0.51100000000E-03 0.  1.
    9900012    2    1    2    0    0 -0.25140311878E+02  0.30374818531E+02 -0.21781839524E+02  0.46142318574E+02  0.10000007409E+02 0.  0.
         12    1    1    2    0    0  0.25140311878E+02 -0.30374818531E+02  0.21781839524E+02  0.45045681426E+02  0.00000000000E+00 0. -1.
         11    1    3    3    0    0 -0.84661713615E+01  0.16251870883E+02 -0.13240409524E+02  0.22607693587E+02  0.51100000000E-03 0. -1.
        -11    1    3    3    0    0 -0.15861349910E+01  0.15910420668E+01 -0.14715637780E+01  0.26856543489E+01  0.51100000000E-03 0.  1.
         12    1    3    3    0    0 -0.15088005525E+02  0.12531905581E+02 -0.70698662220E+01  0.20848970637E+02  0.00000000000E+00 0. -1.
</event>
<event>
 7    1  0.2438448E-008  0.4614233E+02  0.7816164E-02  0.1320468E+00
        -11   -1    0    0    0    0  0.00000000000E+00  0.00000000000E+00  0.45593999997E+02  0.45594000000E+02  0.51100000000E-03 0.  1.
         11   -1    0    0    0    0 -0.00000000000E+00 -0.00000000000E+00 -0.45593999997E+02  0.45594000000E+02  0.51100000000E-03 0. -1.
    9900012    2    1    2    0    0 -0.22503642280E+02 -0.25060357035E+02  0.29911157808E+02  0.46142325712E+02  0.10000072507E+02 0.  0.
         12    1    1    2    0    0  0.22503642280E+02  0.25060357035E+02 -0.29911157808E+02  0.45045674288E+02  0.00000000000E+00 0. -1.
         11    1    3    3    0    0 -0.79895042023E+01 -0.11069587047E+02  0.67893651543E+01  0.15246750941E+02  0.51100000000E-03 0. -1.
        -11    1    3    3    0    0 -0.69410546898E+01 -0.91708130252E+01  0.12423700071E+02  0.16930161708E+02  0.51100000000E-03 0.  1.
         12    1    3    3    0    0 -0.75730833883E+01 -0.48199569629E+01  0.10698092583E+02  0.13965413064E+02  0.00000000000E+00 0. -1.
</event>
<event>
 7    1  0.2438448E-008  0.4614232E+02  0.7816164E-02  0.1320468E+00
        -11   -1    0    0    0    0  0.00000000000E+00  0.00000000000E+00  0.45593999997E+02  0.45594000000E+02  0.51100000000E-03 0.  1.
         11   -1    0    0    0    0 -0.00000000000E+00 -0.00000000000E+00 -0.45593999997E+02  0.45594000000E+02  0.51100000000E-03 0. -1.
    9900012    2    1    2    0    0 -0.39045139248E+02 -0.20582669023E+02  0.89969165844E+01  0.46142315734E+02  0.99999815129E+01 0.  0.
         12    1    1    2    0    0  0.39045139248E+02  0.20582669023E+02 -0.89969165844E+01  0.45045684266E+02  0.00000000000E+00 0. -1.
         11    1    3    3    0    0 -0.12182926365E+02 -0.11641776728E+02  0.45422804593E+01  0.17452420240E+02  0.51100000000E-03 0. -1.
        -11    1    3    3    0    0 -0.12075619859E+02 -0.33978627128E+01  0.22650313615E+01  0.12747408886E+02  0.51100000000E-03 0.  1.
         12    1    3    3    0    0 -0.14786593024E+02 -0.55430295824E+01  0.21896047636E+01  0.15942486607E+02  0.00000000000E+00 0. -1.
</event>
<event>
 7    1  0.2438448E-008  0.4614232E+02  0.7816164E-02  0.1320468E+00
        -11   -1    0    0    0    0  0.00000000000E+00  0.00000000000E+00  0.45593999997E+02  0.45594000000E+02  0.51100000000E-03 0.  1.
         11   -1    0    0    0    0 -0.00000000000E+00 -0.00000000000E+00 -0.45593999997E+02  0.45594000000E+02  0.51100000000E-03 0. -1.
    9900012    2    1    2    0    0 -0.32952484560E+01  0.19762053370E+02  0.40344963275E+02  0.46142317882E+02  0.10000001107E+02 0.  0.
         12    1    1    2    0    0  0.32952484560E+01 -0.19762053370E+02 -0.40344963275E+02  0.45045682118E+02  0.00000000000E+00 0. -1.
         11    1    3    3    0    0 -0.36113391617E+01  0.11278041802E+02  0.27314597789E+02  0.29771181536E+02  0.51100000000E-03 0. -1.
        -11    1    3    3    0    0  0.12922671187E+01  0.27748923984E+00  0.35836892468E+01  0.38196575060E+01  0.51100000000E-03 0.  1.
         12    1    3    3    0    0 -0.97617641305E+00  0.82065223282E+01  0.94466762395E+01  0.12551478841E+02  0.00000000000E+00 0. -1.
</event>
<event>
 7    1  0.2438448E-008  0.4614232E+02  0.7816164E-02  0.1320468E+00
        -11   -1    0    0    0    0  0.00000000000E+00  0.00000000000E+00  0.45593999997E+02  0.45594000000E+02  0.51100000000E-03 0. -1.
         11   -1    0    0    0    0 -0.00000000000E+00 -0.00000000000E+00 -0.45593999997E+02  0.45594000000E+02  0.51100000000E-03 0.  1.
    9900012    2    1    2    0    0 -0.23805528244E+02 -0.36820253526E+02 -0.10328565058E+02  0.46142317622E+02  0.99999987348E+01 0.  0.
         12    1    1    2    0    0  0.23805528244E+02  0.36820253526E+02  0.10328565058E+02  0.45045682378E+02  0.00000000000E+00 0. -1.
         11    1    3    3    0    0 -0.15263739242E+02 -0.17823070133E+02 -0.78239793379E+01  0.24735767980E+02  0.51100000000E-03 0.  1.
        -11    1    3    3    0    0 -0.19776433161E+01 -0.84829138493E+01 -0.23035644030E+01  0.90098451529E+01  0.51100000000E-03 0. -1.
        -12    1    3    3    0    0 -0.65641456857E+01 -0.10514269544E+02 -0.20102131696E+00  0.12396704490E+02  0.00000000000E+00 0.  1.
</event>
<event>
 7    1  0.2438448E-008  0.4614232E+02  0.7816164E-02  0.1320468E+00
        -11   -1    0    0    0    0  0.00000000000E+00  0.00000000000E+00  0.45593999997E+02  0.45594000000E+02  0.51100000000E-03 0.  1.
         11   -1    0    0    0    0 -0.00000000000E+00 -0.00000000000E+00 -0.45593999997E+02  0.45594000000E+02  0.51100000000E-03 0. -1.
    9900012    2    1    2    0    0 -0.31419884581E+02 -0.30940228452E+02  0.91981819458E+01  0.46142318355E+02  0.10000005417E+02 0.  0.
         12    1    1    2    0    0  0.31419884581E+02  0.30940228452E+02 -0.91981819458E+01  0.45045681645E+02  0.00000000000E+00 0. -1.
         11    1    3    3    0    0 -0.13912228924E+02 -0.10619216451E+02  0.25288583753E+01  0.17683692958E+02  0.51100000000E-03 0. -1.
        -11    1    3    3    0    0 -0.15541868136E+02 -0.14151706212E+02  0.37305997509E+01  0.21348016972E+02  0.51100000000E-03 0.  1.
         12    1    3    3    0    0 -0.19657875206E+01 -0.61693057894E+01  0.29387238197E+01  0.71106084260E+01  0.00000000000E+00 0. -1.
</event>
<event>
 7    1  0.2438448E-008  0.4614232E+02  0.7816164E-02  0.1320468E+00
        -11   -1    0    0    0    0  0.00000000000E+00  0.00000000000E+00  0.45593999997E+02  0.45594000000E+02  0.51100000000E-03 0.  1.
         11   -1    0    0    0    0 -0.00000000000E+00 -0.00000000000E+00 -0.45593999997E+02  0.45594000000E+02  0.51100000000E-03 0. -1.
    9900012    2    1    2    0    0  0.22120324586E+02  0.32299707751E+02  0.22283033340E+02  0.46142318127E+02  0.10000003337E+02 0.  0.
         12    1    1    2    0    0 -0.22120324586E+02 -0.32299707751E+02 -0.22283033340E+02  0.45045681873E+02  0.00000000000E+00 0. -1.
         11    1    3    3    0    0  0.65056823093E+01  0.17409013697E+02  0.94288433263E+01  0.20839883564E+02  0.51100000000E-03 0. -1.
        -11    1    3    3    0    0  0.45262946818E+01  0.29264404889E+01  0.22160779665E+01  0.58277267692E+01  0.51100000000E-03 0.  1.
        -12    1    3    3    0    0  0.11088347595E+02  0.11964253565E+02  0.10638112047E+02  0.19474707794E+02  0.00000000000E+00 0.  1.
</event>
<event>
 7    1  0.2438448E-008  0.4614232E+02  0.7816164E-02  0.1320468E+00
        -11   -1    0    0    0    0  0.00000000000E+00  0.00000000000E+00  0.45593999997E+02  0.45594000000E+02  0.51100000000E-03 0.  1.
         11   -1    0    0    0    0 -0.00000000000E+00 -0.00000000000E+00 -0.45593999997E+02  0.45594000000E+02  0.51100000000E-03 0. -1.
    9900012    2    1    2    0    0  0.37445347539E+02  0.20991492037E+02  0.13649787494E+02  0.46142317755E+02  0.99999999444E+01 0.  0.
         12    1    1    2    0    0 -0.37445347539E+02 -0.20991492037E+02 -0.13649787494E+02  0.45045682245E+02  0.00000000000E+00 0. -1.
         11    1    3    3    0    0  0.37891321028E+01  0.42020182356E+01  0.10396142683E+01  0.57528495054E+01  0.51100000000E-03 0. -1.
        -11    1    3    3    0    0  0.16378596677E+02  0.40369892336E+01  0.47903498850E+01  0.17535768117E+02  0.51100000000E-03 0.  1.
        -12    1    3    3    0    0  0.17277618759E+02  0.12752484568E+02  0.78198233407E+01  0.22853700132E+02  0.00000000000E+00 0.  1.
</event>
<event>
 7    1  0.2438448E-008  0.4614232E+02  0.7816164E-02  0.1320468E+00
        -11   -1    0    0    0    0  0.00000000000E+00  0.00000000000E+00  0.45593999997E+02  0.45594000000E+02  0.51100000000E-03 0. -1.
         11   -1    0    0    0    0 -0.00000000000E+00 -0.00000000000E+00 -0.45593999997E+02  0.45594000000E+02  0.51100000000E-03 0.  1.
    9900012    2    1    2    0    0 -0.40912219824E+02 -0.90539960882E+01 -0.16532662527E+02  0.46142317561E+02  0.99999981792E+01 0.  0.
         12    1    1    2    0    0  0.40912219824E+02  0.90539960882E+01  0.16532662527E+02  0.45045682439E+02  0.00000000000E+00 0. -1.
         11    1    3    3    0    0 -0.18979265644E+01  0.81847184659E-01  0.89391680611E+00  0.20995027323E+01  0.51100000000E-03 0. -1.
        -11    1    3    3    0    0 -0.15871576313E+02 -0.17744678513E+01 -0.48290747689E+01  0.16684592719E+02  0.51100000000E-03 0.  1.
        -12    1    3    3    0    0 -0.23142716947E+02 -0.73613754215E+01 -0.12597504564E+02  0.27358222111E+02  0.00000000000E+00 0.  1.
</event>
<event>
 7    1  0.2438448E-008  0.4614232E+02  0.7816164E-02  0.1320468E+00
        -11   -1    0    0    0    0  0.00000000000E+00  0.00000000000E+00  0.45593999997E+02  0.45594000000E+02  0.51100000000E-03 0. -1.
         11   -1    0    0    0    0 -0.00000000000E+00 -0.00000000000E+00 -0.45593999997E+02  0.45594000000E+02  0.51100000000E-03 0.  1.
    9900012    2    1    2    0    0  0.61080793923E+01 -0.12516806226E+02 -0.42838468739E+02  0.46142317899E+02  0.10000001260E+02 0.  0.
         12    1    1    2    0    0 -0.61080793923E+01  0.12516806226E+02  0.42838468739E+02  0.45045682101E+02  0.00000000000E+00 0. -1.
         11    1    3    3    0    0  0.55938853794E+01 -0.58380379493E+01 -0.23189391025E+02  0.24558544279E+02  0.51100000000E-03 0. -1.
        -11    1    3    3    0    0  0.13279036286E+00 -0.43782628530E+01 -0.18447671631E+02  0.18960575090E+02  0.51100000000E-03 0.  1.
        -12    1    3    3    0    0  0.38140365001E+00 -0.23005054242E+01 -0.12014060838E+01  0.26231985302E+01  0.00000000000E+00 0.  1.
</event>
<event>
 7    1  0.2438448E-008  0.4614232E+02  0.7816164E-02  0.1320468E+00
        -11   -1    0    0    0    0  0.00000000000E+00  0.00000000000E+00  0.45593999997E+02  0.45594000000E+02  0.51100000000E-03 0.  1.
         11   -1    0    0    0    0 -0.00000000000E+00 -0.00000000000E+00 -0.45593999997E+02  0.45594000000E+02  0.51100000000E-03 0. -1.
    9900012    2    1    2    0    0 -0.19165690514E+02  0.71738039597E+01  0.40128871224E+02  0.46142318056E+02  0.10000002687E+02 0.  0.
         12    1    1    2    0    0  0.19165690514E+02 -0.71738039597E+01 -0.40128871224E+02  0.45045681944E+02  0.00000000000E+00 0. -1.
         11    1    3    3    0    0 -0.24812256930E+01 -0.21262763388E+01  0.33620633998E+01  0.46883901901E+01  0.51100000000E-03 0. -1.
        -11    1    3    3    0    0 -0.20168329706E+01  0.64873190775E+00  0.40912164629E+01  0.46072248401E+01  0.51100000000E-03 0.  1.
         12    1    3    3    0    0 -0.14667631851E+02  0.86513483908E+01  0.32675591361E+02  0.36846703026E+02  0.00000000000E+00 0. -1.
</event>
<event>
 7    1  0.2438448E-008  0.4614232E+02  0.7816164E-02  0.1320468E+00
        -11   -1    0    0    0    0  0.00000000000E+00  0.00000000000E+00  0.45593999997E+02  0.45594000000E+02  0.51100000000E-03 0. -1.
         11   -1    0    0    0    0 -0.00000000000E+00 -0.00000000000E+00 -0.45593999997E+02  0.45594000000E+02  0.51100000000E-03 0.  1.
    9900012    2    1    2    0    0 -0.25720662724E+02  0.36453213769E+02 -0.62228862482E+01  0.46142316541E+02  0.99999888765E+01 0.  0.
         12    1    1    2    0    0  0.25720662724E+02 -0.36453213769E+02  0.62228862482E+01  0.45045683459E+02  0.00000000000E+00 0. -1.
         11    1    3    3    0    0 -0.55668169496E+01  0.24468389327E+01 -0.12327752988E+01  0.62045311597E+01  0.51100000000E-03 0. -1.
        -11    1    3    3    0    0 -0.88027768940E+01  0.15413290053E+02 -0.89780704997E+00  0.17772575758E+02  0.51100000000E-03 0.  1.
        -12    1    3    3    0    0 -0.11351068880E+02  0.18593084782E+02 -0.40923038994E+01  0.22165209623E+02  0.00000000000E+00 0.  1.
</event>
<event>
 7    1  0.2438448E-008  0.4614232E+02  0.7816164E-02  0.1320468E+00
        -11   -1    0    0    0    0  0.00000000000E+00  0.00000000000E+00  0.45593999997E+02  0.45594000000E+02  0.51100000000E-03 0.  1.
         11   -1    0    0    0    0 -0.00000000000E+00 -0.00000000000E+00 -0.45593999997E+02  0.45594000000E+02  0.51100000000E-03 0. -1.
    9900012    2    1    2    0    0 -0.27221822357E+02 -0.16078748009E+02  0.32086752760E+02  0.46142318157E+02  0.10000003612E+02 0.  0.
         12    1    1    2    0    0  0.27221822357E+02  0.16078748009E+02 -0.32086752760E+02  0.45045681843E+02  0.00000000000E+00 0. -1.
         11    1    3    3    0    0 -0.89614847324E+01 -0.34292471646E+01  0.11499120276E+02  0.14976572108E+02  0.51100000000E-03 0.  1.
        -11    1    3    3    0    0 -0.99877566491E+00  0.98340220216E+00  0.12647464716E+01  0.18879132974E+01  0.51100000000E-03 0. -1.
         12    1    3    3    0    0 -0.17261561960E+02 -0.13632903047E+02  0.19322886013E+02  0.29277832752E+02  0.00000000000E+00 0. -1.
</event>
<event>
 7    1  0.2438448E-008  0.4614232E+02  0.7816164E-02  0.1320468E+00
        -11   -1    0    0    0    0  0.00000000000E+00  0.00000000000E+00  0.45593999997E+02  0.45594000000E+02  0.51100000000E-03 0.  1.
         11   -1    0    0    0    0 -0.00000000000E+00 -0.00000000000E+00 -0.45593999997E+02  0.45594000000E+02  0.51100000000E-03 0. -1.
    9900012    2    1    2    0    0 -0.14396296340E+01 -0.11656790178E+02  0.43487470828E+02  0.46142318634E+02  0.10000007959E+02 0.  0.
         12    1    1    2    0    0  0.14396296340E+01  0.11656790178E+02 -0.43487470828E+02  0.45045681366E+02  0.00000000000E+00 0. -1.
         11    1    3    3    0    0 -0.22254226907E+01 -0.60388190621E+00  0.41042279565E+01  0.47076392054E+01  0.51100000000E-03 0. -1.
        -11    1    3    3    0    0  0.33286477410E+01 -0.31859258648E+01  0.14303358483E+02  0.15027178163E+02  0.51100000000E-03 0.  1.
         12    1    3    3    0    0 -0.25428546843E+01 -0.78669824069E+01  0.25079884389E+02  0.26407501265E+02  0.00000000000E+00 0. -1.
</event>
<event>
 7    1  0.2438448E-008  0.4614232E+02  0.7816164E-02  0.1320468E+00
        -11   -1    0    0    0    0  0.00000000000E+00  0.00000000000E+00  0.45593999997E+02  0.45594000000E+02  0.51100000000E-03 0.  1.
         11   -1    0    0    0    0 -0.00000000000E+00 -0.00000000000E+00 -0.45593999997E+02  0.45594000000E+02  0.51100000000E-03 0. -1.
    9900012    2    1    2    0    0 -0.14134061101E+02 -0.33700677344E+02  0.26336403079E+02  0.46142318034E+02  0.10000002489E+02 0.  0.
         12    1    1    2    0    0  0.14134061101E+02  0.33700677344E+02 -0.26336403079E+02  0.45045681966E+02  0.00000000000E+00 0. -1.
         11    1    3    3    0    0 -0.78873579518E+01 -0.21821024021E+02  0.19542173865E+02  0.30335854437E+02  0.51100000000E-03 0. -1.
        -11    1    3    3    0    0 -0.24212111138E+01 -0.46379439106E+01  0.53630174911E+01  0.74923123164E+01  0.51100000000E-03 0.  1.
         12    1    3    3    0    0 -0.38254920351E+01 -0.72417094122E+01  0.14312117227E+01  0.83141512806E+01  0.00000000000E+00 0. -1.
</event>
<event>
 7    1  0.2438448E-008  0.4614232E+02  0.7816164E-02  0.1320468E+00
        -11   -1    0    0    0    0  0.00000000000E+00  0.00000000000E+00  0.45593999997E+02  0.45594000000E+02  0.51100000000E-03 0.  1.
         11   -1    0    0    0    0 -0.00000000000E+00 -0.00000000000E+00 -0.45593999997E+02  0.45594000000E+02  0.51100000000E-03 0. -1.
    9900012    2    1    2    0    0 -0.41440823318E+02 -0.36558133944E+01  0.17274453784E+02  0.46142316940E+02  0.99999925081E+01 0.  0.
         12    1    1    2    0    0  0.41440823318E+02  0.36558133944E+01 -0.17274453784E+02  0.45045683060E+02  0.00000000000E+00 0. -1.
         11    1    3    3    0    0 -0.20571663125E+01 -0.56236012923E+00  0.33149943814E+01  0.39417470951E+01  0.51100000000E-03 0. -1.
        -11    1    3    3    0    0 -0.19290297841E+02 -0.96467298185E+00  0.42203338259E+01  0.19770113874E+02  0.51100000000E-03 0.  1.
        -12    1    3    3    0    0 -0.20093359165E+02 -0.21287802833E+01  0.97391255765E+01  0.22430455970E+02  0.00000000000E+00 0.  1.
</event>
<event>
 7    1  0.2438448E-008  0.4614232E+02  0.7816164E-02  0.1320468E+00
        -11   -1    0    0    0    0  0.00000000000E+00  0.00000000000E+00  0.45593999997E+02  0.45594000000E+02  0.51100000000E-03 0.  1.
         11   -1    0    0    0    0 -0.00000000000E+00 -0.00000000000E+00 -0.45593999997E+02  0.45594000000E+02  0.51100000000E-03 0. -1.
    9900012    2    1    2    0    0  0.38147031625E+02 -0.13670793030E+02  0.19672996410E+02  0.46142318834E+02  0.10000009787E+02 0.  0.
         12    1    1    2    0    0 -0.38147031625E+02  0.13670793030E+02 -0.19672996410E+02  0.45045681166E+02  0.00000000000E+00 0. -1.
         11    1    3    3    0    0  0.65709699061E+01 -0.25955770170E+01  0.75623209147E+00  0.71053889967E+01  0.51100000000E-03 0. -1.
        -11    1    3    3    0    0  0.13316959626E+01  0.90791377296E+00  0.10178860591E+01  0.19062565007E+01  0.51100000000E-03 0.  1.
        -12    1    3    3    0    0  0.30244365757E+02 -0.11983129786E+02  0.17898878260E+02  0.37130673337E+02  0.00000000000E+00 0.  1.
</event>
<event>
 7    1  0.2438448E-008  0.4614232E+02  0.7816164E-02  0.1320468E+00
        -11   -1    0    0    0    0  0.00000000000E+00  0.00000000000E+00  0.45593999997E+02  0.45594000000E+02  0.51100000000E-03 0.  1.
         11   -1    0    0    0    0 -0.00000000000E+00 -0.00000000000E+00 -0.45593999997E+02  0.45594000000E+02  0.51100000000E-03 0. -1.
    9900012    2    1    2    0    0 -0.30502436544E+02 -0.28042360521E+02  0.17673170092E+02  0.46142316968E+02  0.99999927675E+01 0.  0.
         12    1    1    2    0    0  0.30502436544E+02  0.28042360521E+02 -0.17673170092E+02  0.45045683032E+02  0.00000000000E+00 0. -1.
         11    1    3    3    0    0 -0.14958979018E+02 -0.11873692093E+02  0.12138888172E+02  0.22629808296E+02  0.51100000000E-03 0.  1.
        -11    1    3    3    0    0 -0.59946150582E+01 -0.72821470943E+01  0.44329831163E+01  0.10421919956E+02  0.51100000000E-03 0. -1.
        -12    1    3    3    0    0 -0.95488424676E+01 -0.88865213335E+01  0.11012988042E+01  0.13090588716E+02  0.00000000000E+00 0.  1.
</event>
<event>
 7    1  0.2438448E-008  0.4614232E+02  0.7816164E-02  0.1320468E+00
        -11   -1    0    0    0    0  0.00000000000E+00  0.00000000000E+00  0.45593999997E+02  0.45594000000E+02  0.51100000000E-03 0.  1.
         11   -1    0    0    0    0 -0.00000000000E+00 -0.00000000000E+00 -0.45593999997E+02  0.45594000000E+02  0.51100000000E-03 0. -1.
    9900012    2    1    2    0    0 -0.77819200213E+01 -0.20180933896E+02  0.39513100282E+02  0.46142318009E+02  0.10000002259E+02 0.  0.
         12    1    1    2    0    0  0.77819200213E+01  0.20180933896E+02 -0.39513100282E+02  0.45045681991E+02  0.00000000000E+00 0. -1.
         11    1    3    3    0    0 -0.17613123639E+01 -0.48074327009E+01  0.52516500363E+01  0.73344024148E+01  0.51100000000E-03 0. -1.
        -11    1    3    3    0    0 -0.68004724405E+01 -0.72656224788E+01  0.16518043167E+02  0.19284227901E+02  0.51100000000E-03 0.  1.
        -12    1    3    3    0    0  0.77986478312E+00 -0.81078787159E+01  0.17743407079E+02  0.19523687693E+02  0.00000000000E+00 0.  1.
</event>
<event>
 7    1  0.2438448E-008  0.4614232E+02  0.7816164E-02  0.1320468E+00
        -11   -1    0    0    0    0  0.00000000000E+00  0.00000000000E+00  0.45593999997E+02  0.45594000000E+02  0.51100000000E-03 0.  1.
         11   -1    0    0    0    0 -0.00000000000E+00 -0.00000000000E+00 -0.45593999997E+02  0.45594000000E+02  0.51100000000E-03 0. -1.
    9900012    2    1    2    0    0  0.31613485222E+01 -0.18912800420E+02  0.40760585573E+02  0.46142317849E+02  0.10000000803E+02 0.  0.
         12    1    1    2    0    0 -0.31613485222E+01  0.18912800420E+02 -0.40760585573E+02  0.45045682151E+02  0.00000000000E+00 0. -1.
         11    1    3    3    0    0 -0.15412353600E+01 -0.71009533420E+00  0.85412293635E+01  0.87081709400E+01  0.51100000000E-03 0. -1.
        -11    1    3    3    0    0  0.19319273236E+01 -0.12306287247E+02  0.22803129290E+02  0.25983836411E+02  0.51100000000E-03 0.  1.
        -12    1    3    3    0    0  0.27706565587E+01 -0.58964178396E+01  0.94162269190E+01  0.11450310498E+02  0.00000000000E+00 0.  1.
</event>
<event>
 7    1  0.2438448E-008  0.4614231E+02  0.7816164E-02  0.1320468E+00
        -11   -1    0    0    0    0  0.00000000000E+00  0.00000000000E+00  0.45593999997E+02  0.45594000000E+02  0.51100000000E-03 0.  1.
         11   -1    0    0    0    0 -0.00000000000E+00 -0.00000000000E+00 -0.45593999997E+02  0.45594000000E+02  0.51100000000E-03 0. -1.
    9900012    2    1    2    0    0  0.30582864981E+02  0.79778581555E+01  0.32096048868E+02  0.46142309816E+02  0.99999275483E+01 0.  0.
         12    1    1    2    0    0 -0.30582864981E+02 -0.79778581555E+01 -0.32096048868E+02  0.45045690184E+02  0.00000000000E+00 0. -1.
         11    1    3    3    0    0  0.12610941146E+02  0.50094734377E+01  0.16201257985E+02  0.21133182942E+02  0.51100000000E-03 0.  1.
        -11    1    3    3    0    0  0.12566270332E+02 -0.99384193764E+00  0.10468512517E+02  0.16385622553E+02  0.51100000000E-03 0. -1.
        -12    1    3    3    0    0  0.54056535035E+01  0.39622266554E+01  0.54262783665E+01  0.86235043213E+01  0.00000000000E+00 0.  1.
</event>
<event>
 7    1  0.2438448E-008  0.4614232E+02  0.7816164E-02  0.1320468E+00
        -11   -1    0    0    0    0  0.00000000000E+00  0.00000000000E+00  0.45593999997E+02  0.45594000000E+02  0.51100000000E-03 0.  1.
         11   -1    0    0    0    0 -0.00000000000E+00 -0.00000000000E+00 -0.45593999997E+02  0.45594000000E+02  0.51100000000E-03 0. -1.
    9900012    2    1    2    0    0 -0.35425080240E+02  0.74541413645E+01  0.26806957201E+02  0.46142317767E+02  0.10000000055E+02 0.  0.
         12    1    1    2    0    0  0.35425080240E+02 -0.74541413645E+01 -0.26806957201E+02  0.45045682233E+02  0.00000000000E+00 0. -1.
         11    1    3    3    0    0 -0.17613555570E+02  0.11858200319E+01  0.14762291823E+02  0.23012361224E+02  0.51100000000E-03 0. -1.
        -11    1    3    3    0    0 -0.10041898168E+02  0.62001293778E+00  0.51232517304E+01  0.11290342928E+02  0.51100000000E-03 0.  1.
         12    1    3    3    0    0 -0.77696265010E+01  0.56483083948E+01  0.69214136472E+01  0.11839613615E+02  0.00000000000E+00 0. -1.
</event>
<event>
 7    1  0.2438448E-008  0.4614232E+02  0.7816164E-02  0.1320468E+00
        -11   -1    0    0    0    0  0.00000000000E+00  0.00000000000E+00  0.45593999997E+02  0.45594000000E+02  0.51100000000E-03 0. -1.
         11   -1    0    0    0    0 -0.00000000000E+00 -0.00000000000E+00 -0.45593999997E+02  0.45594000000E+02  0.51100000000E-03 0.  1.
    9900012    2    1    2    0    0 -0.26512858538E+02 -0.36407577304E+02 -0.81861817647E+00  0.46142317757E+02  0.99999999637E+01 0.  0.
         12    1    1    2    0    0  0.26512858538E+02  0.36407577304E+02  0.81861817647E+00  0.45045682243E+02  0.00000000000E+00 0. -1.
         11    1    3    3    0    0 -0.10816662464E+02 -0.88576354626E+01  0.17056074499E+01  0.14084281660E+02  0.51100000000E-03 0. -1.
        -11    1    3    3    0    0 -0.84299656114E+01 -0.13840762755E+02 -0.32364548307E+01  0.16525909173E+02  0.51100000000E-03 0.  1.
        -12    1    3    3    0    0 -0.72662304632E+01 -0.13709179086E+02  0.71222920437E+00  0.15532126924E+02  0.00000000000E+00 0.  1.
</event>
<event>
 7    1  0.2438448E-008  0.4614232E+02  0.7816164E-02  0.1320468E+00
        -11   -1    0    0    0    0  0.00000000000E+00  0.00000000000E+00  0.45593999997E+02  0.45594000000E+02  0.51100000000E-03 0.  1.
         11   -1    0    0    0    0 -0.00000000000E+00 -0.00000000000E+00 -0.45593999997E+02  0.45594000000E+02  0.51100000000E-03 0. -1.
    9900012    2    1    2    0    0 -0.40436626243E+02  0.11032153147E+02  0.16501040054E+02  0.46142317989E+02  0.10000002081E+02 0.  0.
         12    1    1    2    0    0  0.40436626243E+02 -0.11032153147E+02 -0.16501040054E+02  0.45045682011E+02  0.00000000000E+00 0. -1.
         11    1    3    3    0    0 -0.65897598512E+01  0.17722096011E+01  0.40335586296E+01  0.79268693219E+01  0.51100000000E-03 0. -1.
        -11    1    3    3    0    0 -0.27776214374E+01 -0.14785503441E+01  0.19471854264E+01  0.37003815095E+01  0.51100000000E-03 0.  1.
         12    1    3    3    0    0 -0.31069244954E+02  0.10738493890E+02  0.10520295998E+02  0.34515067158E+02  0.00000000000E+00 0. -1.
</event>
<event>
 7    1  0.2438448E-008  0.4614232E+02  0.7816164E-02  0.1320468E+00
        -11   -1    0    0    0    0  0.00000000000E+00  0.00000000000E+00  0.45593999997E+02  0.45594000000E+02  0.51100000000E-03 0. -1.
         11   -1    0    0    0    0 -0.00000000000E+00 -0.00000000000E+00 -0.45593999997E+02  0.45594000000E+02  0.51100000000E-03 0.  1.
    9900012    2    1    2    0    0  0.42342786699E+02  0.13620609498E+02  0.71190534017E+01  0.46142317522E+02  0.99999978235E+01 0.  0.
         12    1    1    2    0    0 -0.42342786699E+02 -0.13620609498E+02 -0.71190534017E+01  0.45045682478E+02  0.00000000000E+00 0. -1.
         11    1    3    3    0    0  0.26102120687E+02  0.86465513149E+01  0.71642982512E+01  0.28414973583E+02  0.51100000000E-03 0. -1.
        -11    1    3    3    0    0  0.94571599820E+01  0.38147321711E+01 -0.23591678708E+01  0.10466887301E+02  0.51100000000E-03 0.  1.
        -12    1    3    3    0    0  0.67835060298E+01  0.11593260119E+01  0.23139230213E+01  0.72604566390E+01  0.00000000000E+00 0.  1.
</event>
<event>
 7    1  0.2438448E-008  0.4614232E+02  0.7816164E-02  0.1320468E+00
        -11   -1    0    0    0    0  0.00000000000E+00  0.00000000000E+00  0.45593999997E+02  0.45594000000E+02  0.51100000000E-03 0.  1.
         11   -1    0    0    0    0 -0.00000000000E+00 -0.00000000000E+00 -0.45593999997E+02  0.45594000000E+02  0.51100000000E-03 0. -1.
    9900012    2    1    2    0    0 -0.28234946918E+02  0.34877924498E+02  0.39283076648E+01  0.46142318233E+02  0.10000004299E+02 0.  0.
         12    1    1    2    0    0  0.28234946918E+02 -0.34877924498E+02 -0.39283076648E+01  0.45045681767E+02  0.00000000000E+00 0. -1.
         11    1    3    3    0    0 -0.10700573521E+02  0.15256158887E+02 -0.18551898038E+01  0.18726836015E+02  0.51100000000E-03 0. -1.
        -11    1    3    3    0    0 -0.13111662148E+02  0.15930773829E+02  0.24964628718E+01  0.20783107713E+02  0.51100000000E-03 0.  1.
         12    1    3    3    0    0 -0.44227112494E+01  0.36909917825E+01  0.32870345969E+01  0.66323745051E+01  0.00000000000E+00 0. -1.
</event>
<event>
 7    1  0.2438448E-008  0.4614232E+02  0.7816164E-02  0.1320468E+00
        -11   -1    0    0    0    0  0.00000000000E+00  0.00000000000E+00  0.45593999997E+02  0.45594000000E+02  0.51100000000E-03 0.  1.
         11   -1    0    0    0    0 -0.00000000000E+00 -0.00000000000E+00 -0.45593999997E+02  0.45594000000E+02  0.51100000000E-03 0. -1.
    9900012    2    1    2    0    0 -0.36881696719E+02 -0.10270215857E+02  0.23735551863E+02  0.46142319753E+02  0.10000018168E+02 0.  0.
         12    1    1    2    0    0  0.36881696719E+02  0.10270215857E+02 -0.23735551863E+02  0.45045680247E+02  0.00000000000E+00 0. -1.
         11    1    3    3    0    0 -0.61622948331E+01 -0.42009126452E+01  0.79280204812E+01  0.10884624646E+02  0.51100000000E-03 0. -1.
        -11    1    3    3    0    0 -0.16607315797E+02 -0.33401937692E+01  0.10529703026E+02  0.19945788489E+02  0.51100000000E-03 0.  1.
        -12    1    3    3    0    0 -0.14112086089E+02 -0.27291094425E+01  0.52778283557E+01  0.15311906618E+02  0.00000000000E+00 0.  1.
</event>
<event>
 7    1  0.2438448E-008  0.4614232E+02  0.7816164E-02  0.1320468E+00
        -11   -1    0    0    0    0  0.00000000000E+00  0.00000000000E+00  0.45593999997E+02  0.45594000000E+02  0.51100000000E-03 0. -1.
         11   -1    0    0    0    0 -0.00000000000E+00 -0.00000000000E+00 -0.45593999997E+02  0.45594000000E+02  0.51100000000E-03 0.  1.
    9900012    2    1    2    0    0  0.25483436006E+02  0.13503265371E+02  0.34603031791E+02  0.46142317682E+02  0.99999992801E+01 0.  0.
         12    1    1    2    0    0 -0.25483436006E+02 -0.13503265371E+02 -0.34603031791E+02  0.45045682318E+02  0.00000000000E+00 0. -1.
         11    1    3    3    0    0  0.86304417095E+01  0.44038367064E+01  0.18753725406E+02  0.21108778238E+02  0.51100000000E-03 0.  1.
        -11    1    3    3    0    0  0.49882801900E+01  0.42499118046E+01  0.50571455787E+01  0.82776452730E+01  0.51100000000E-03 0. -1.
        -12    1    3    3    0    0  0.11864714107E+02  0.48495168604E+01  0.10792160806E+02  0.16755894171E+02  0.00000000000E+00 0.  1.
</event>
<event>
 7    1  0.2438448E-008  0.4614232E+02  0.7816164E-02  0.1320468E+00
        -11   -1    0    0    0    0  0.00000000000E+00  0.00000000000E+00  0.45593999997E+02  0.45594000000E+02  0.51100000000E-03 0.  1.
         11   -1    0    0    0    0 -0.00000000000E+00 -0.00000000000E+00 -0.45593999997E+02  0.45594000000E+02  0.51100000000E-03 0. -1.
    9900012    2    1    2    0    0 -0.42661700560E+02  0.12501088646E+02 -0.72674204216E+01  0.46142319723E+02  0.10000017894E+02 0.  0.
         12    1    1    2    0    0  0.42661700560E+02 -0.12501088646E+02  0.72674204216E+01  0.45045680277E+02  0.00000000000E+00 0. -1.
         11    1    3    3    0    0 -0.30942270588E+00  0.10155646573E+01 -0.59706239420E+00  0.12180302738E+01  0.51100000000E-03 0. -1.
        -11    1    3    3    0    0 -0.23557991197E+02  0.28065944916E+01 -0.34781839730E+01  0.23978191881E+02  0.51100000000E-03 0.  1.
        -12    1    3    3    0    0 -0.18794286657E+02  0.86789294966E+01 -0.31921740543E+01  0.20946097568E+02  0.00000000000E+00 0.  1.
</event>
<event>
 7    1  0.2438448E-008  0.4614232E+02  0.7816164E-02  0.1320468E+00
        -11   -1    0    0    0    0  0.00000000000E+00  0.00000000000E+00  0.45593999997E+02  0.45594000000E+02  0.51100000000E-03 0.  1.
         11   -1    0    0    0    0 -0.00000000000E+00 -0.00000000000E+00 -0.45593999997E+02  0.45594000000E+02  0.51100000000E-03 0. -1.
    9900012    2    1    2    0    0 -0.22859764002E+02 -0.17456116748E+01  0.38774962102E+02  0.46142315897E+02  0.99999829972E+01 0.  0.
         12    1    1    2    0    0  0.22859764002E+02  0.17456116748E+01 -0.38774962102E+02  0.45045684103E+02  0.00000000000E+00 0. -1.
         11    1    3    3    0    0 -0.23820454342E+01 -0.24296051690E+01  0.31342597071E+01  0.46260896987E+01  0.51100000000E-03 0. -1.
        -11    1    3    3    0    0 -0.15998541624E+02 -0.66212699041E+00  0.31189325640E+02  0.35059460640E+02  0.51100000000E-03 0.  1.
         12    1    3    3    0    0 -0.44791769436E+01  0.13461204846E+01  0.44513767550E+01  0.64567655576E+01  0.00000000000E+00 0. -1.
</event>
<event>
 7    1  0.2438448E-008  0.4614232E+02  0.7816164E-02  0.1320468E+00
        -11   -1    0    0    0    0  0.00000000000E+00  0.00000000000E+00  0.45593999997E+02  0.45594000000E+02  0.51100000000E-03 0.  1.
         11   -1    0    0    0    0 -0.00000000000E+00 -0.00000000000E+00 -0.45593999997E+02  0.45594000000E+02  0.51100000000E-03 0. -1.
    9900012    2    1    2    0    0 -0.34992758431E+02 -0.54492481981E+01  0.27837495615E+02  0.46142316404E+02  0.99999876215E+01 0.  0.
         12    1    1    2    0    0  0.34992758431E+02  0.54492481981E+01 -0.27837495615E+02  0.45045683596E+02  0.00000000000E+00 0. -1.
         11    1    3    3    0    0 -0.11804576596E+01 -0.13010955787E+01  0.36667453171E+01  0.40658764704E+01  0.51100000000E-03 0. -1.
        -11    1    3    3    0    0 -0.20445182216E+02 -0.32934441817E+01  0.11753166576E+02  0.23811534500E+02  0.51100000000E-03 0.  1.
        -12    1    3    3    0    0 -0.13367118555E+02 -0.85470843763E+00  0.12417583722E+02  0.18264905433E+02  0.00000000000E+00 0.  1.
</event>
<event>
 7    1  0.2438448E-008  0.4614232E+02  0.7816164E-02  0.1320468E+00
        -11   -1    0    0    0    0  0.00000000000E+00  0.00000000000E+00  0.45593999997E+02  0.45594000000E+02  0.51100000000E-03 0.  1.
         11   -1    0    0    0    0 -0.00000000000E+00 -0.00000000000E+00 -0.45593999997E+02  0.45594000000E+02  0.51100000000E-03 0. -1.
    9900012    2    1    2    0    0  0.42876990377E+02 -0.92289953812E+01 -0.10271459236E+02  0.46142317251E+02  0.99999953463E+01 0.  0.
         12    1    1    2    0    0 -0.42876990377E+02  0.92289953812E+01  0.10271459236E+02  0.45045682749E+02  0.00000000000E+00 0. -1.
         11    1    3    3    0    0  0.88162895506E+01  0.18002446911E+01 -0.14357863652E+01  0.91120428629E+01  0.51100000000E-03 0. -1.
        -11    1    3    3    0    0  0.28640586067E+02 -0.90460885401E+01 -0.61227977696E+01  0.30652953217E+02  0.51100000000E-03 0.  1.
         12    1    3    3    0    0  0.54201147594E+01 -0.19831515322E+01 -0.27128751014E+01  0.63773211712E+01  0.00000000000E+00 0. -1.
</event>
<event>
 7    1  0.2438448E-008  0.4614231E+02  0.7816164E-02  0.1320468E+00
        -11   -1    0    0    0    0  0.00000000000E+00  0.00000000000E+00  0.45593999997E+02  0.45594000000E+02  0.51100000000E-03 0.  1.
         11   -1    0    0    0    0 -0.00000000000E+00 -0.00000000000E+00 -0.45593999997E+02  0.45594000000E+02  0.51100000000E-03 0. -1.
    9900012    2    1    2    0    0  0.47617855992E+01  0.39594849213E+01  0.44617956473E+02  0.46142310276E+02  0.99999317409E+01 0.  0.
         12    1    1    2    0    0 -0.47617855992E+01 -0.39594849213E+01 -0.44617956473E+02  0.45045689724E+02  0.00000000000E+00 0. -1.
         11    1    3    3    0    0  0.38786079726E+00  0.15856843882E+01  0.13466829242E+02  0.13565408990E+02  0.51100000000E-03 0. -1.
        -11    1    3    3    0    0  0.46656902636E+01  0.74411717125E-01  0.29130784256E+02  0.29502148979E+02  0.51100000000E-03 0.  1.
         12    1    3    3    0    0 -0.29176546158E+00  0.22993888160E+01  0.20203429753E+01  0.30747523070E+01  0.00000000000E+00 0. -1.
</event>
<event>
 7    1  0.2438448E-008  0.4614232E+02  0.7816164E-02  0.1320468E+00
        -11   -1    0    0    0    0  0.00000000000E+00  0.00000000000E+00  0.45593999997E+02  0.45594000000E+02  0.51100000000E-03 0.  1.
         11   -1    0    0    0    0 -0.00000000000E+00 -0.00000000000E+00 -0.45593999997E+02  0.45594000000E+02  0.51100000000E-03 0. -1.
    9900012    2    1    2    0    0 -0.40717010052E+02 -0.18299280865E+02 -0.60311639274E+01  0.46142317343E+02  0.99999961840E+01 0.  0.
         12    1    1    2    0    0  0.40717010052E+02  0.18299280865E+02  0.60311639274E+01  0.45045682657E+02  0.00000000000E+00 0. -1.
         11    1    3    3    0    0 -0.52418149896E+01 -0.10618576669E+01 -0.28735558499E+01  0.60713663679E+01  0.51100000000E-03 0.  1.
        -11    1    3    3    0    0 -0.90303429639E+01 -0.15959348203E+01 -0.15859869344E+01  0.93064201933E+01  0.51100000000E-03 0. -1.
        -12    1    3    3    0    0 -0.26444852098E+02 -0.15641488378E+02 -0.15716211432E+01  0.30764530781E+02  0.00000000000E+00 0.  1.
</event>
<event>
 7    1  0.2438448E-008  0.4614231E+02  0.7816164E-02  0.1320468E+00
        -11   -1    0    0    0    0  0.00000000000E+00  0.00000000000E+00  0.45593999997E+02  0.45594000000E+02  0.51100000000E-03 0.  1.
         11   -1    0    0    0    0 -0.00000000000E+00 -0.00000000000E+00 -0.45593999997E+02  0.45594000000E+02  0.51100000000E-03 0. -1.
    9900012    2    1    2    0    0 -0.11028215064E+02 -0.75165327461E+00  0.43668379506E+02  0.46142313427E+02  0.99999604764E+01 0.  0.
         12    1    1    2    0    0  0.11028215064E+02  0.75165327461E+00 -0.43668379506E+02  0.45045686573E+02  0.00000000000E+00 0. -1.
         11    1    3    3    0    0 -0.32120541706E+01  0.79842623445E+00  0.21519114795E+02  0.21772162922E+02  0.51100000000E-03 0. -1.
        -11    1    3    3    0    0 -0.51505276176E+00 -0.26463894218E+01  0.74092049798E+01  0.78844768383E+01  0.51100000000E-03 0.  1.
         12    1    3    3    0    0 -0.73011081320E+01  0.10963099127E+01  0.14740059731E+02  0.16485673667E+02  0.00000000000E+00 0. -1.
</event>
<event>
 7    1  0.2438448E-008  0.4614232E+02  0.7816164E-02  0.1320468E+00
        -11   -1    0    0    0    0  0.00000000000E+00  0.00000000000E+00  0.45593999997E+02  0.45594000000E+02  0.51100000000E-03 0. -1.
         11   -1    0    0    0    0 -0.00000000000E+00 -0.00000000000E+00 -0.45593999997E+02  0.45594000000E+02  0.51100000000E-03 0.  1.
    9900012    2    1    2    0    0  0.11594003245E+02 -0.40921915916E+02 -0.14835411810E+02  0.46142316999E+02  0.99999930498E+01 0.  0.
         12    1    1    2    0    0 -0.11594003245E+02  0.40921915916E+02  0.14835411810E+02  0.45045683001E+02  0.00000000000E+00 0. -1.
         11    1    3    3    0    0  0.17031477145E+01 -0.16467324497E+01 -0.10051059828E+01  0.25734564686E+01  0.51100000000E-03 0. -1.
        -11    1    3    3    0    0  0.82090545941E+01 -0.38355823544E+02 -0.12274258698E+02  0.41100063308E+02  0.51100000000E-03 0.  1.
        -12    1    3    3    0    0  0.16818009367E+01 -0.91935992196E+00 -0.15560471293E+01  0.24687972224E+01  0.00000000000E+00 0.  1.
</event>
<event>
 7    1  0.2438448E-008  0.4614232E+02  0.7816164E-02  0.1320468E+00
        -11   -1    0    0    0    0  0.00000000000E+00  0.00000000000E+00  0.45593999997E+02  0.45594000000E+02  0.51100000000E-03 0. -1.
         11   -1    0    0    0    0 -0.00000000000E+00 -0.00000000000E+00 -0.45593999997E+02  0.45594000000E+02  0.51100000000E-03 0.  1.
    9900012    2    1    2    0    0  0.22790581342E+02  0.38416307106E+02  0.58215244002E+01  0.46142318787E+02  0.10000009357E+02 0.  0.
         12    1    1    2    0    0 -0.22790581342E+02 -0.38416307106E+02 -0.58215244002E+01  0.45045681213E+02  0.00000000000E+00 0. -1.
         11    1    3    3    0    0  0.17349377778E+01  0.23464237661E+01 -0.14538163109E+01  0.32602600678E+01  0.51100000000E-03 0. -1.
        -11    1    3    3    0    0  0.20980681356E+02  0.32496097742E+02  0.64707940090E+01  0.39218063873E+02  0.51100000000E-03 0.  1.
        -12    1    3    3    0    0  0.74962208090E-01  0.35737855983E+01  0.80454670220E+00  0.36639948460E+01  0.00000000000E+00 0.  1.
</event>
<event>
 7    1  0.2438448E-008  0.4614232E+02  0.7816164E-02  0.1320468E+00
        -11   -1    0    0    0    0  0.00000000000E+00  0.00000000000E+00  0.45593999997E+02  0.45594000000E+02  0.51100000000E-03 0.  1.
         11   -1    0    0    0    0 -0.00000000000E+00 -0.00000000000E+00 -0.45593999997E+02  0.45594000000E+02  0.51100000000E-03 0. -1.
    9900012    2    1    2    0    0 -0.12235762231E+02  0.87116878314E+01  0.42467705752E+02  0.46142318585E+02  0.10000007514E+02 0.  0.
         12    1    1    2    0    0  0.12235762231E+02 -0.87116878314E+01 -0.42467705752E+02  0.45045681415E+02  0.00000000000E+00 0. -1.
         11    1    3    3    0    0 -0.73505655097E+01  0.73818986903E+01  0.24712911821E+02  0.26818860016E+02  0.51100000000E-03 0. -1.
        -11    1    3    3    0    0 -0.53311053500E+01  0.61152654648E+00  0.86483048226E+01  0.10177810449E+02  0.51100000000E-03 0.  1.
         12    1    3    3    0    0  0.44590862836E+00  0.71826259454E+00  0.91064891084E+01  0.91456481203E+01  0.00000000000E+00 0. -1.
</event>
<event>
 7    1  0.2438448E-008  0.4614232E+02  0.7816164E-02  0.1320468E+00
        -11   -1    0    0    0    0  0.00000000000E+00  0.00000000000E+00  0.45593999997E+02  0.45594000000E+02  0.51100000000E-03 0.  1.
         11   -1    0    0    0    0 -0.00000000000E+00 -0.00000000000E+00 -0.45593999997E+02  0.45594000000E+02  0.51100000000E-03 0. -1.
    9900012    2    1    2    0    0 -0.28558961824E+02 -0.33135593924E+02  0.10748560342E+02  0.46142318357E+02  0.10000005438E+02 0.  0.
         12    1    1    2    0    0  0.28558961824E+02  0.33135593924E+02 -0.10748560342E+02  0.45045681643E+02  0.00000000000E+00 0. -1.
         11    1    3    3    0    0 -0.10881752077E+01 -0.98248623404E+00 -0.21658517444E+00  0.14819965863E+01  0.51100000000E-03 0. -1.
        -11    1    3    3    0    0 -0.18930345123E+02 -0.27297335128E+02  0.64120175693E+01  0.33832180555E+02  0.51100000000E-03 0.  1.
        -12    1    3    3    0    0 -0.85404414939E+01 -0.48557725625E+01  0.45531279470E+01  0.10828141216E+02  0.00000000000E+00 0.  1.
</event>
<event>
 7    1  0.2438448E-008  0.4614232E+02  0.7816164E-02  0.1320468E+00
        -11   -1    0    0    0    0  0.00000000000E+00  0.00000000000E+00  0.45593999997E+02  0.45594000000E+02  0.51100000000E-03 0.  1.
         11   -1    0    0    0    0 -0.00000000000E+00 -0.00000000000E+00 -0.45593999997E+02  0.45594000000E+02  0.51100000000E-03 0. -1.
    9900012    2    1    2    0    0 -0.37247988977E+02  0.17970804134E+02  0.17853605077E+02  0.46142315431E+02  0.99999787500E+01 0.  0.
         12    1    1    2    0    0  0.37247988977E+02 -0.17970804134E+02 -0.17853605077E+02  0.45045684569E+02  0.00000000000E+00 0. -1.
         11    1    3    3    0    0 -0.22827933951E+02  0.10817918741E+02  0.90581165093E+01  0.26836382195E+02  0.51100000000E-03 0. -1.
        -11    1    3    3    0    0 -0.77129462392E+01  0.70533460602E+01  0.48324034497E+01  0.11514831900E+02  0.51100000000E-03 0.  1.
         12    1    3    3    0    0 -0.67071087869E+01  0.99539331893E-01  0.39630851181E+01  0.77911013350E+01  0.00000000000E+00 0. -1.
</event>
<event>
 7    1  0.2438448E-008  0.4614232E+02  0.7816164E-02  0.1320468E+00
        -11   -1    0    0    0    0  0.00000000000E+00  0.00000000000E+00  0.45593999997E+02  0.45594000000E+02  0.51100000000E-03 0. -1.
         11   -1    0    0    0    0 -0.00000000000E+00 -0.00000000000E+00 -0.45593999997E+02  0.45594000000E+02  0.51100000000E-03 0.  1.
    9900012    2    1    2    0    0  0.12741215288E+02  0.28546185009E+02 -0.32432857960E+02  0.46142317399E+02  0.99999966960E+01 0.  0.
         12    1    1    2    0    0 -0.12741215288E+02 -0.28546185009E+02  0.32432857960E+02  0.45045682601E+02  0.00000000000E+00 0. -1.
         11    1    3    3    0    0  0.70425351312E+01  0.81578903819E+01 -0.11737294034E+02  0.15934633603E+02  0.51100000000E-03 0. -1.
        -11    1    3    3    0    0  0.60262148890E+01  0.11813876484E+02 -0.14319121365E+02  0.19517176547E+02  0.51100000000E-03 0.  1.
         12    1    3    3    0    0 -0.32753473264E+00  0.85744181435E+01 -0.63764425618E+01  0.10690507249E+02  0.00000000000E+00 0. -1.
</event>
<event>
 7    1  0.2438448E-008  0.4614232E+02  0.7816164E-02  0.1320468E+00
        -11   -1    0    0    0    0  0.00000000000E+00  0.00000000000E+00  0.45593999997E+02  0.45594000000E+02  0.51100000000E-03 0. -1.
         11   -1    0    0    0    0 -0.00000000000E+00 -0.00000000000E+00 -0.45593999997E+02  0.45594000000E+02  0.51100000000E-03 0.  1.
    9900012    2    1    2    0    0 -0.11940241035E+02 -0.25069076686E+02 -0.35469498926E+02  0.46142319675E+02  0.10000017452E+02 0.  0.
         12    1    1    2    0    0  0.11940241035E+02  0.25069076686E+02  0.35469498926E+02  0.45045680325E+02  0.00000000000E+00 0. -1.
         11    1    3    3    0    0 -0.68582486117E+00 -0.19595344119E+01 -0.34655879413E+00  0.21048121319E+01  0.51100000000E-03 0. -1.
        -11    1    3    3    0    0 -0.10087186498E+01 -0.87594694079E+01 -0.13689692972E+02  0.16283534983E+02  0.51100000000E-03 0.  1.
         12    1    3    3    0    0 -0.10245697524E+02 -0.14350072866E+02 -0.21433247160E+02  0.27753972560E+02  0.00000000000E+00 0. -1.
</event>
<event>
 7    1  0.2438448E-008  0.4614232E+02  0.7816164E-02  0.1320468E+00
        -11   -1    0    0    0    0  0.00000000000E+00  0.00000000000E+00  0.45593999997E+02  0.45594000000E+02  0.51100000000E-03 0.  1.
         11   -1    0    0    0    0 -0.00000000000E+00 -0.00000000000E+00 -0.45593999997E+02  0.45594000000E+02  0.51100000000E-03 0. -1.
    9900012    2    1    2    0    0 -0.10224262992E+02  0.21080389377E+02  0.38473305888E+02  0.46142316123E+02  0.99999850604E+01 0.  0.
         12    1    1    2    0    0  0.10224262992E+02 -0.21080389377E+02 -0.38473305888E+02  0.45045683877E+02  0.00000000000E+00 0. -1.
         11    1    3    3    0    0 -0.19876104474E+01  0.97948724084E+01  0.22442153175E+02  0.24567058436E+02  0.51100000000E-03 0. -1.
        -11    1    3    3    0    0 -0.68845737177E+01  0.10813094564E+02  0.15321949676E+02  0.19977049619E+02  0.51100000000E-03 0.  1.
        -12    1    3    3    0    0 -0.13520788269E+01  0.47242240451E+00  0.70920303644E+00  0.15982080682E+01  0.00000000000E+00 0.  1.
</event>
<event>
 7    1  0.2438448E-008  0.4614232E+02  0.7816164E-02  0.1320468E+00
        -11   -1    0    0    0    0  0.00000000000E+00  0.00000000000E+00  0.45593999997E+02  0.45594000000E+02  0.51100000000E-03 0.  1.
         11   -1    0    0    0    0 -0.00000000000E+00 -0.00000000000E+00 -0.45593999997E+02  0.45594000000E+02  0.51100000000E-03 0. -1.
    9900012    2    1    2    0    0 -0.15112027632E+02  0.96400088444E+01  0.41325659926E+02  0.46142319653E+02  0.10000017248E+02 0.  0.
         12    1    1    2    0    0  0.15112027632E+02 -0.96400088444E+01 -0.41325659926E+02  0.45045680347E+02  0.00000000000E+00 0. -1.
         11    1    3    3    0    0 -0.89625878503E+01  0.47597620114E+01  0.15403494899E+02  0.18445893059E+02  0.51100000000E-03 0. -1.
        -11    1    3    3    0    0 -0.69727312831E+01  0.29669508973E+01  0.18616885018E+02  0.20100004657E+02  0.51100000000E-03 0.  1.
         12    1    3    3    0    0  0.82329150166E+00  0.19132959357E+01  0.73052800084E+01  0.75964219364E+01  0.00000000000E+00 0. -1.
</event>
<event>
 7    1  0.2438448E-008  0.4614232E+02  0.7816164E-02  0.1320468E+00
        -11   -1    0    0    0    0  0.00000000000E+00  0.00000000000E+00  0.45593999997E+02  0.45594000000E+02  0.51100000000E-03 0. -1.
         11   -1    0    0    0    0 -0.00000000000E+00 -0.00000000000E+00 -0.45593999997E+02  0.45594000000E+02  0.51100000000E-03 0.  1.
    9900012    2    1    2    0    0 -0.26715401541E+02 -0.29086596213E+02  0.21664965646E+02  0.46142317685E+02  0.99999993056E+01 0.  0.
         12    1    1    2    0    0  0.26715401541E+02  0.29086596213E+02 -0.21664965646E+02  0.45045682315E+02  0.00000000000E+00 0. -1.
         11    1    3    3    0    0 -0.13444236077E+02 -0.19483052525E+02  0.14175685419E+02  0.27591427595E+02  0.51100000000E-03 0.  1.
        -11    1    3    3    0    0 -0.10057499507E+02 -0.93127256363E+01  0.55625979633E+01  0.14792655322E+02  0.51100000000E-03 0. -1.
        -12    1    3    3    0    0 -0.32136659577E+01 -0.29081805203E+00  0.19266822635E+01  0.37582347680E+01  0.00000000000E+00 0.  1.
</event>
<event>
 7    1  0.2438448E-008  0.4614232E+02  0.7816164E-02  0.1320468E+00
        -11   -1    0    0    0    0  0.00000000000E+00  0.00000000000E+00  0.45593999997E+02  0.45594000000E+02  0.51100000000E-03 0. -1.
         11   -1    0    0    0    0 -0.00000000000E+00 -0.00000000000E+00 -0.45593999997E+02  0.45594000000E+02  0.51100000000E-03 0.  1.
    9900012    2    1    2    0    0 -0.17229849388E+01 -0.32601295004E+02 -0.31037082117E+02  0.46142316751E+02  0.99999907856E+01 0.  0.
         12    1    1    2    0    0  0.17229849388E+01  0.32601295004E+02  0.31037082117E+02  0.45045683249E+02  0.00000000000E+00 0. -1.
         11    1    3    3    0    0 -0.13393319976E+01 -0.72406037792E+01 -0.35111192672E+01  0.81577026212E+01  0.51100000000E-03 0. -1.
        -11    1    3    3    0    0 -0.31634000964E+01 -0.18014702674E+02 -0.20087632858E+02  0.27167068423E+02  0.51100000000E-03 0.  1.
        -12    1    3    3    0    0  0.27797471553E+01 -0.73459885514E+01 -0.74383299922E+01  0.10817545707E+02  0.00000000000E+00 0.  1.
</event>
<event>
 7    1  0.2438448E-008  0.4614232E+02  0.7816164E-02  0.1320468E+00
        -11   -1    0    0    0    0  0.00000000000E+00  0.00000000000E+00  0.45593999997E+02  0.45594000000E+02  0.51100000000E-03 0.  1.
         11   -1    0    0    0    0 -0.00000000000E+00 -0.00000000000E+00 -0.45593999997E+02  0.45594000000E+02  0.51100000000E-03 0. -1.
    9900012    2    1    2    0    0 -0.66662767768E+00 -0.26076165810E+01  0.44965202182E+02  0.46142318032E+02  0.10000002472E+02 0.  0.
         12    1    1    2    0    0  0.66662767768E+00  0.26076165810E+01 -0.44965202182E+02  0.45045681968E+02  0.00000000000E+00 0. -1.
         11    1    3    3    0    0 -0.37390937644E+00  0.11035337589E+01  0.22680959572E+01  0.25498734303E+01  0.51100000000E-03 0. -1.
        -11    1    3    3    0    0 -0.14080996805E+01  0.20250162387E+01  0.20150008104E+02  0.20300400546E+02  0.51100000000E-03 0.  1.
         12    1    3    3    0    0  0.11153813793E+01 -0.57361665786E+01  0.22547098120E+02  0.23292044056E+02  0.00000000000E+00 0. -1.
</event>
<event>
 7    1  0.2438448E-008  0.4614232E+02  0.7816164E-02  0.1320468E+00
        -11   -1    0    0    0    0  0.00000000000E+00  0.00000000000E+00  0.45593999997E+02  0.45594000000E+02  0.51100000000E-03 0.  1.
         11   -1    0    0    0    0 -0.00000000000E+00 -0.00000000000E+00 -0.45593999997E+02  0.45594000000E+02  0.51100000000E-03 0. -1.
    9900012    2    1    2    0    0 -0.81992757995E+01  0.34855036032E+02  0.27331516438E+02  0.46142318173E+02  0.10000003760E+02 0.  0.
         12    1    1    2    0    0  0.81992757995E+01 -0.34855036032E+02 -0.27331516438E+02  0.45045681827E+02  0.00000000000E+00 0. -1.
         11    1    3    3    0    0 -0.22648112535E+01  0.32465692766E+01  0.22075629789E+01  0.45324294422E+01  0.51100000000E-03 0. -1.
        -11    1    3    3    0    0 -0.46331289179E+01  0.29480773336E+02  0.20039559784E+02  0.35946708287E+02  0.51100000000E-03 0.  1.
         12    1    3    3    0    0 -0.13013356282E+01  0.21276934192E+01  0.50843936751E+01  0.56631804445E+01  0.00000000000E+00 0. -1.
</event>
<event>
 7    1  0.2438448E-008  0.4614232E+02  0.7816164E-02  0.1320468E+00
        -11   -1    0    0    0    0  0.00000000000E+00  0.00000000000E+00  0.45593999997E+02  0.45594000000E+02  0.51100000000E-03 0. -1.
         11   -1    0    0    0    0 -0.00000000000E+00 -0.00000000000E+00 -0.45593999997E+02  0.45594000000E+02  0.51100000000E-03 0.  1.
    9900012    2    1    2    0    0  0.31950751459E+02  0.77842939567E+01  0.30784212540E+02  0.46142317711E+02  0.99999995412E+01 0.  0.
         12    1    1    2    0    0 -0.31950751459E+02 -0.77842939567E+01 -0.30784212540E+02  0.45045682289E+02  0.00000000000E+00 0. -1.
         11    1    3    3    0    0  0.20916179039E+02  0.64888951259E+01  0.15778672111E+02  0.26991828382E+02  0.51100000000E-03 0. -1.
        -11    1    3    3    0    0  0.86426829533E+01  0.20510462010E+00  0.84556821446E+01  0.12092832478E+02  0.51100000000E-03 0.  1.
         12    1    3    3    0    0  0.23918894663E+01  0.10902942107E+01  0.65498582843E+01  0.70576568512E+01  0.00000000000E+00 0. -1.
</event>
<event>
 7    1  0.2438448E-008  0.4614232E+02  0.7816164E-02  0.1320468E+00
        -11   -1    0    0    0    0  0.00000000000E+00  0.00000000000E+00  0.45593999997E+02  0.45594000000E+02  0.51100000000E-03 0.  1.
         11   -1    0    0    0    0 -0.00000000000E+00 -0.00000000000E+00 -0.45593999997E+02  0.45594000000E+02  0.51100000000E-03 0. -1.
    9900012    2    1    2    0    0  0.12943323744E+02 -0.40371814393E+02  0.15221709421E+02  0.46142318025E+02  0.10000002402E+02 0.  0.
         12    1    1    2    0    0 -0.12943323744E+02  0.40371814393E+02 -0.15221709421E+02  0.45045681975E+02  0.00000000000E+00 0. -1.
         11    1    3    3    0    0  0.89915970072E+01 -0.21087250096E+02  0.10419864574E+02  0.25181233317E+02  0.51100000000E-03 0. -1.
        -11    1    3    3    0    0  0.10269817227E+01 -0.95906939433E+01 -0.24271693991E+00  0.96485757264E+01  0.51100000000E-03 0.  1.
        -12    1    3    3    0    0  0.29247450138E+01 -0.96938703542E+01  0.50445617865E+01  0.11312508982E+02  0.00000000000E+00 0.  1.
</event>
<event>
 7    1  0.2438448E-008  0.4614232E+02  0.7816164E-02  0.1320468E+00
        -11   -1    0    0    0    0  0.00000000000E+00  0.00000000000E+00  0.45593999997E+02  0.45594000000E+02  0.51100000000E-03 0. -1.
         11   -1    0    0    0    0 -0.00000000000E+00 -0.00000000000E+00 -0.45593999997E+02  0.45594000000E+02  0.51100000000E-03 0.  1.
    9900012    2    1    2    0    0  0.25663918030E+02  0.25189077273E+02  0.27129084513E+02  0.46142317310E+02  0.99999958872E+01 0.  0.
         12    1    1    2    0    0 -0.25663918030E+02 -0.25189077273E+02 -0.27129084513E+02  0.45045682690E+02  0.00000000000E+00 0. -1.
         11    1    3    3    0    0  0.70206457850E+01  0.65167343088E+01  0.32644243119E+01  0.10119968362E+02  0.51100000000E-03 0.  1.
        -11    1    3    3    0    0  0.18604191142E+02  0.16894744822E+02  0.22900530584E+02  0.33999744587E+02  0.51100000000E-03 0. -1.
         12    1    3    3    0    0  0.39081102675E-01  0.17775981420E+01  0.96412961636E+00  0.20226043617E+01  0.00000000000E+00 0. -1.
</event>
<event>
 7    1  0.2438448E-008  0.4614232E+02  0.7816164E-02  0.1320468E+00
        -11   -1    0    0    0    0  0.00000000000E+00  0.00000000000E+00  0.45593999997E+02  0.45594000000E+02  0.51100000000E-03 0. -1.
         11   -1    0    0    0    0 -0.00000000000E+00 -0.00000000000E+00 -0.45593999997E+02  0.45594000000E+02  0.51100000000E-03 0.  1.
    9900012    2    1    2    0    0  0.16009663508E+02 -0.14104108617E+02 -0.39672134465E+02  0.46142318092E+02  0.10000003020E+02 0.  0.
         12    1    1    2    0    0 -0.16009663508E+02  0.14104108617E+02  0.39672134465E+02  0.45045681908E+02  0.00000000000E+00 0. -1.
         11    1    3    3    0    0  0.69462061255E+01 -0.27890064457E+01 -0.10009632183E+02  0.12498842874E+02  0.51100000000E-03 0. -1.
        -11    1    3    3    0    0  0.41805918917E+01 -0.87227462398E+01 -0.23219948422E+02  0.25154118062E+02  0.51100000000E-03 0.  1.
        -12    1    3    3    0    0  0.48828654907E+01 -0.25923559319E+01 -0.64425538601E+01  0.84893571557E+01  0.00000000000E+00 0.  1.
</event>
<event>
 7    1  0.2438448E-008  0.4614232E+02  0.7816164E-02  0.1320468E+00
        -11   -1    0    0    0    0  0.00000000000E+00  0.00000000000E+00  0.45593999997E+02  0.45594000000E+02  0.51100000000E-03 0.  1.
         11   -1    0    0    0    0 -0.00000000000E+00 -0.00000000000E+00 -0.45593999997E+02  0.45594000000E+02  0.51100000000E-03 0. -1.
    9900012    2    1    2    0    0  0.31110874602E+02 -0.21660465856E+02  0.24332100894E+02  0.46142318370E+02  0.10000005551E+02 0.  0.
         12    1    1    2    0    0 -0.31110874602E+02  0.21660465856E+02 -0.24332100894E+02  0.45045681630E+02  0.00000000000E+00 0. -1.
         11    1    3    3    0    0  0.21472104069E+01 -0.13116535952E+01  0.38896620849E+01  0.46325391613E+01  0.51100000000E-03 0. -1.
        -11    1    3    3    0    0  0.26516954958E+02 -0.15731127903E+02  0.16546230155E+02  0.34991356332E+02  0.51100000000E-03 0.  1.
        -12    1    3    3    0    0  0.24467092366E+01 -0.46176843581E+01  0.38962086541E+01  0.65184228764E+01  0.00000000000E+00 0.  1.
</event>
<event>
 7    1  0.2438448E-008  0.4614232E+02  0.7816164E-02  0.1320468E+00
        -11   -1    0    0    0    0  0.00000000000E+00  0.00000000000E+00  0.45593999997E+02  0.45594000000E+02  0.51100000000E-03 0.  1.
         11   -1    0    0    0    0 -0.00000000000E+00 -0.00000000000E+00 -0.45593999997E+02  0.45594000000E+02  0.51100000000E-03 0. -1.
    9900012    2    1    2    0    0 -0.38805353706E+02 -0.16085219384E+02  0.16264182303E+02  0.46142318910E+02  0.10000010477E+02 0.  0.
         12    1    1    2    0    0  0.38805353706E+02  0.16085219384E+02 -0.16264182303E+02  0.45045681090E+02  0.00000000000E+00 0. -1.
         11    1    3    3    0    0 -0.18685651086E+02 -0.37790801680E+01  0.61355023373E+01  0.20026966635E+02  0.51100000000E-03 0. -1.
        -11    1    3    3    0    0 -0.69185598148E+01 -0.20418640162E+01  0.43465768772E+01  0.84219005802E+01  0.51100000000E-03 0.  1.
         12    1    3    3    0    0 -0.13201142806E+02 -0.10264275200E+02  0.57821030886E+01  0.17693451695E+02  0.00000000000E+00 0. -1.
</event>
<event>
 7    1  0.2438448E-008  0.4614232E+02  0.7816164E-02  0.1320468E+00
        -11   -1    0    0    0    0  0.00000000000E+00  0.00000000000E+00  0.45593999997E+02  0.45594000000E+02  0.51100000000E-03 0.  1.
         11   -1    0    0    0    0 -0.00000000000E+00 -0.00000000000E+00 -0.45593999997E+02  0.45594000000E+02  0.51100000000E-03 0. -1.
    9900012    2    1    2    0    0  0.39773169703E+02  0.21137044020E+02  0.65873747474E+00  0.46142316597E+02  0.99999893867E+01 0.  0.
         12    1    1    2    0    0 -0.39773169703E+02 -0.21137044020E+02 -0.65873747474E+00  0.45045683403E+02  0.00000000000E+00 0. -1.
         11    1    3    3    0    0  0.43630741657E-02  0.69953209282E+00  0.93447097573E+00  0.11673047806E+01  0.51100000000E-03 0. -1.
        -11    1    3    3    0    0  0.70088515832E+01  0.41036987389E+01  0.17673824434E+01  0.83119182394E+01  0.51100000000E-03 0.  1.
         12    1    3    3    0    0  0.32759955046E+02  0.16333813188E+02 -0.20431159444E+01  0.36663093577E+02  0.00000000000E+00 0. -1.
</event>
<event>
 7    1  0.2438448E-008  0.4614232E+02  0.7816164E-02  0.1320468E+00
        -11   -1    0    0    0    0  0.00000000000E+00  0.00000000000E+00  0.45593999997E+02  0.45594000000E+02  0.51100000000E-03 0.  1.
         11   -1    0    0    0    0 -0.00000000000E+00 -0.00000000000E+00 -0.45593999997E+02  0.45594000000E+02  0.51100000000E-03 0. -1.
    9900012    2    1    2    0    0 -0.41673762967E+01  0.40420003375E+02 -0.19441445207E+02  0.46142317745E+02  0.99999998563E+01 0.  0.
         12    1    1    2    0    0  0.41673762967E+01 -0.40420003375E+02  0.19441445207E+02  0.45045682255E+02  0.00000000000E+00 0. -1.
         11    1    3    3    0    0  0.38153662852E-01  0.14826491426E+02 -0.60303007340E+01  0.16005962355E+02  0.51100000000E-03 0. -1.
        -11    1    3    3    0    0 -0.36837847056E+01  0.13740898767E+02 -0.34339415353E+01  0.14634702710E+02  0.51100000000E-03 0.  1.
        -12    1    3    3    0    0 -0.52174525394E+00  0.11852613182E+02 -0.99772029378E+01  0.15501652680E+02  0.00000000000E+00 0.  1.
</event>
<event>
 7    1  0.2438448E-008  0.4614232E+02  0.7816164E-02  0.1320468E+00
        -11   -1    0    0    0    0  0.00000000000E+00  0.00000000000E+00  0.45593999997E+02  0.45594000000E+02  0.51100000000E-03 0.  1.
         11   -1    0    0    0    0 -0.00000000000E+00 -0.00000000000E+00 -0.45593999997E+02  0.45594000000E+02  0.51100000000E-03 0. -1.
    9900012    2    1    2    0    0 -0.43749601432E+02  0.10687455673E+02  0.92957312931E+00  0.46142318294E+02  0.10000004857E+02 0.  0.
         12    1    1    2    0    0  0.43749601432E+02 -0.10687455673E+02 -0.92957312931E+00  0.45045681706E+02  0.00000000000E+00 0. -1.
         11    1    3    3    0    0 -0.14573389151E+01 -0.44873120595E+00  0.73667941454E+00  0.16934855268E+01  0.51100000000E-03 0. -1.
        -11    1    3    3    0    0 -0.99120034304E+01  0.18344078651E+01 -0.32309948152E+01  0.10585470796E+02  0.51100000000E-03 0.  1.
        -12    1    3    3    0    0 -0.32380259086E+02  0.93017790134E+01  0.34238885300E+01  0.33863361971E+02  0.00000000000E+00 0.  1.
</event>
<event>
 7    1  0.2438448E-008  0.4614232E+02  0.7816164E-02  0.1320468E+00
        -11   -1    0    0    0    0  0.00000000000E+00  0.00000000000E+00  0.45593999997E+02  0.45594000000E+02  0.51100000000E-03 0. -1.
         11   -1    0    0    0    0 -0.00000000000E+00 -0.00000000000E+00 -0.45593999997E+02  0.45594000000E+02  0.51100000000E-03 0.  1.
    9900012    2    1    2    0    0 -0.27213542123E+02  0.26398851113E+02 -0.24323595040E+02  0.46142317736E+02  0.99999997704E+01 0.  0.
         12    1    1    2    0    0  0.27213542123E+02 -0.26398851113E+02  0.24323595040E+02  0.45045682264E+02  0.00000000000E+00 0. -1.
         11    1    3    3    0    0 -0.12288997755E+02  0.15862908615E+02 -0.16923208371E+02  0.26249691758E+02  0.51100000000E-03 0.  1.
        -11    1    3    3    0    0 -0.45102663189E+01  0.35326231096E+01 -0.10393023368E+01  0.58225490904E+01  0.51100000000E-03 0. -1.
        -12    1    3    3    0    0 -0.10414278049E+02  0.70033193885E+01 -0.63610843317E+01  0.14070076888E+02  0.00000000000E+00 0.  1.
</event>
<event>
 7    1  0.2438448E-008  0.4614232E+02  0.7816164E-02  0.1320468E+00
        -11   -1    0    0    0    0  0.00000000000E+00  0.00000000000E+00  0.45593999997E+02  0.45594000000E+02  0.51100000000E-03 0.  1.
         11   -1    0    0    0    0 -0.00000000000E+00 -0.00000000000E+00 -0.45593999997E+02  0.45594000000E+02  0.51100000000E-03 0. -1.
    9900012    2    1    2    0    0 -0.14417315282E+02 -0.30321472295E+02  0.30031031785E+02  0.46142317276E+02  0.99999955721E+01 0.  0.
         12    1    1    2    0    0  0.14417315282E+02  0.30321472295E+02 -0.30031031785E+02  0.45045682724E+02  0.00000000000E+00 0. -1.
         11    1    3    3    0    0  0.85406425610E+00 -0.33625240747E+00  0.46513119909E+00  0.10289988963E+01  0.51100000000E-03 0. -1.
        -11    1    3    3    0    0 -0.32187289758E+01 -0.75855081953E+01  0.10376663231E+02  0.13250482666E+02  0.51100000000E-03 0.  1.
        -12    1    3    3    0    0 -0.12052650562E+02 -0.22399711692E+02  0.19189237354E+02  0.31862835713E+02  0.00000000000E+00 0.  1.
</event>
<event>
 7    1  0.2438448E-008  0.4614232E+02  0.7816164E-02  0.1320468E+00
        -11   -1    0    0    0    0  0.00000000000E+00  0.00000000000E+00  0.45593999997E+02  0.45594000000E+02  0.51100000000E-03 0. -1.
         11   -1    0    0    0    0 -0.00000000000E+00 -0.00000000000E+00 -0.45593999997E+02  0.45594000000E+02  0.51100000000E-03 0.  1.
    9900012    2    1    2    0    0  0.15399273906E+02 -0.27298227666E+02 -0.32354020642E+02  0.46142317385E+02  0.99999965739E+01 0.  0.
         12    1    1    2    0    0 -0.15399273906E+02  0.27298227666E+02  0.32354020642E+02  0.45045682615E+02  0.00000000000E+00 0. -1.
         11    1    3    3    0    0  0.63545819931E+01 -0.14471504282E+02 -0.11168051174E+02  0.19352790904E+02  0.51100000000E-03 0. -1.
        -11    1    3    3    0    0  0.10590086769E+01 -0.51745696310E+01 -0.78903807070E+01  0.94950396632E+01  0.51100000000E-03 0.  1.
        -12    1    3    3    0    0  0.79856832364E+01 -0.76521537525E+01 -0.13295588761E+02  0.17294486818E+02  0.00000000000E+00 0.  1.
</event>
<event>
 7    1  0.2438448E-008  0.4614232E+02  0.7816164E-02  0.1320468E+00
        -11   -1    0    0    0    0  0.00000000000E+00  0.00000000000E+00  0.45593999997E+02  0.45594000000E+02  0.51100000000E-03 0.  1.
         11   -1    0    0    0    0 -0.00000000000E+00 -0.00000000000E+00 -0.45593999997E+02  0.45594000000E+02  0.51100000000E-03 0. -1.
    9900012    2    1    2    0    0 -0.25844468257E+02  0.32607222938E+02  0.17261109642E+02  0.46142318373E+02  0.10000005575E+02 0.  0.
         12    1    1    2    0    0  0.25844468257E+02 -0.32607222938E+02 -0.17261109642E+02  0.45045681627E+02  0.00000000000E+00 0. -1.
         11    1    3    3    0    0 -0.25409986775E+01  0.33876508537E+01  0.44052722193E+01  0.61105872199E+01  0.51100000000E-03 0. -1.
        -11    1    3    3    0    0 -0.99146859751E+01  0.87283902161E+01  0.66054258332E+01  0.14768799696E+02  0.51100000000E-03 0.  1.
        -12    1    3    3    0    0 -0.13388783604E+02  0.20491181868E+02  0.62504115892E+01  0.25262931457E+02  0.00000000000E+00 0.  1.
</event>
<event>
 7    1  0.2438448E-008  0.4614232E+02  0.7816164E-02  0.1320468E+00
        -11   -1    0    0    0    0  0.00000000000E+00  0.00000000000E+00  0.45593999997E+02  0.45594000000E+02  0.51100000000E-03 0. -1.
         11   -1    0    0    0    0 -0.00000000000E+00 -0.00000000000E+00 -0.45593999997E+02  0.45594000000E+02  0.51100000000E-03 0.  1.
    9900012    2    1    2    0    0  0.43560910943E+02  0.23445077960E+01 -0.11227815730E+02  0.46142317354E+02  0.99999962847E+01 0.  0.
         12    1    1    2    0    0 -0.43560910943E+02 -0.23445077960E+01  0.11227815730E+02  0.45045682646E+02  0.00000000000E+00 0. -1.
         11    1    3    3    0    0  0.89577422158E+01  0.30249524933E+01 -0.39031474494E+01  0.10228687280E+02  0.51100000000E-03 0. -1.
        -11    1    3    3    0    0  0.26253607751E+02  0.14234657205E+01 -0.73604237606E+01  0.27303003732E+02  0.51100000000E-03 0.  1.
        -12    1    3    3    0    0  0.83495609768E+01 -0.21039104179E+01  0.35755480073E-01  0.86106263423E+01  0.00000000000E+00 0.  1.
</event>
<event>
 7    1  0.2438448E-008  0.4614232E+02  0.7816164E-02  0.1320468E+00
        -11   -1    0    0    0    0  0.00000000000E+00  0.00000000000E+00  0.45593999997E+02  0.45594000000E+02  0.51100000000E-03 0.  1.
         11   -1    0    0    0    0 -0.00000000000E+00 -0.00000000000E+00 -0.45593999997E+02  0.45594000000E+02  0.51100000000E-03 0. -1.
    9900012    2    1    2    0    0  0.18708736370E+02  0.10668011498E+02  0.39563751596E+02  0.46142315121E+02  0.99999759260E+01 0.  0.
         12    1    1    2    0    0 -0.18708736370E+02 -0.10668011498E+02 -0.39563751596E+02  0.45045684879E+02  0.00000000000E+00 0. -1.
         11    1    3    3    0    0  0.65545052558E+01 -0.15390595804E+00  0.13768877337E+02  0.15250154412E+02  0.51100000000E-03 0.  1.
        -11    1    3    3    0    0  0.11106976544E+02  0.72660834616E+01  0.20752647862E+02  0.24633986490E+02  0.51100000000E-03 0. -1.
         12    1    3    3    0    0  0.10472545695E+01  0.35558339943E+01  0.50422263965E+01  0.62581742195E+01  0.00000000000E+00 0. -1.
</event>
<event>
 7    1  0.2438448E-008  0.4614232E+02  0.7816164E-02  0.1320468E+00
        -11   -1    0    0    0    0  0.00000000000E+00  0.00000000000E+00  0.45593999997E+02  0.45594000000E+02  0.51100000000E-03 0.  1.
         11   -1    0    0    0    0 -0.00000000000E+00 -0.00000000000E+00 -0.45593999997E+02  0.45594000000E+02  0.51100000000E-03 0. -1.
    9900012    2    1    2    0    0  0.27981398176E+02 -0.32375363257E+02 -0.14070913766E+02  0.46142318696E+02  0.10000008529E+02 0.  0.
         12    1    1    2    0    0 -0.27981398176E+02  0.32375363257E+02  0.14070913766E+02  0.45045681304E+02  0.00000000000E+00 0. -1.
         11    1    3    3    0    0  0.15047223070E+01 -0.33633672999E+01 -0.30244957934E+01  0.47669700943E+01  0.51100000000E-03 0. -1.
        -11    1    3    3    0    0  0.19979741360E+02 -0.17882436244E+02 -0.92464707140E+01  0.28363159411E+02  0.51100000000E-03 0.  1.
         12    1    3    3    0    0  0.64969345085E+01 -0.11129559713E+02 -0.17999472586E+01  0.13012189191E+02  0.00000000000E+00 0. -1.
</event>
<event>
 7    1  0.2438448E-008  0.4614232E+02  0.7816164E-02  0.1320468E+00
        -11   -1    0    0    0    0  0.00000000000E+00  0.00000000000E+00  0.45593999997E+02  0.45594000000E+02  0.51100000000E-03 0. -1.
         11   -1    0    0    0    0 -0.00000000000E+00 -0.00000000000E+00 -0.45593999997E+02  0.45594000000E+02  0.51100000000E-03 0.  1.
    9900012    2    1    2    0    0  0.13451454802E+01 -0.44986665520E+02  0.18719117871E+01  0.46142317136E+02  0.99999942972E+01 0.  0.
         12    1    1    2    0    0 -0.13451454802E+01  0.44986665520E+02 -0.18719117871E+01  0.45045682864E+02  0.00000000000E+00 0. -1.
         11    1    3    3    0    0 -0.25508650137E+01 -0.83311946274E+01 -0.41549166909E+00  0.87228636253E+01  0.51100000000E-03 0. -1.
        -11    1    3    3    0    0 -0.14788019633E+01 -0.85482265581E+01 -0.34537116720E+00  0.86820685346E+01  0.51100000000E-03 0.  1.
         12    1    3    3    0    0  0.53748124572E+01 -0.28107244334E+02  0.26327746234E+01  0.28737384976E+02  0.00000000000E+00 0. -1.
</event>
<event>
 7    1  0.2438448E-008  0.4614232E+02  0.7816164E-02  0.1320468E+00
        -11   -1    0    0    0    0  0.00000000000E+00  0.00000000000E+00  0.45593999997E+02  0.45594000000E+02  0.51100000000E-03 0. -1.
         11   -1    0    0    0    0 -0.00000000000E+00 -0.00000000000E+00 -0.45593999997E+02  0.45594000000E+02  0.51100000000E-03 0.  1.
    9900012    2    1    2    0    0  0.15497665521E+02 -0.16184147621E+02 -0.39076965768E+02  0.46142317360E+02  0.99999963449E+01 0.  0.
         12    1    1    2    0    0 -0.15497665521E+02  0.16184147621E+02  0.39076965768E+02  0.45045682640E+02  0.00000000000E+00 0. -1.
         11    1    3    3    0    0 -0.74616058299E+00  0.28775687441E-01 -0.20665246736E+01  0.21972956432E+01  0.51100000000E-03 0. -1.
        -11    1    3    3    0    0 -0.24997198828E+00 -0.17047987078E+01 -0.24849999334E+01  0.30239129549E+01  0.51100000000E-03 0.  1.
        -12    1    3    3    0    0  0.16493798093E+02 -0.14508124601E+02 -0.34525441161E+02  0.40921108762E+02  0.00000000000E+00 0.  1.
</event>
<event>
 7    1  0.2438448E-008  0.4614232E+02  0.7816164E-02  0.1320468E+00
        -11   -1    0    0    0    0  0.00000000000E+00  0.00000000000E+00  0.45593999997E+02  0.45594000000E+02  0.51100000000E-03 0. -1.
         11   -1    0    0    0    0 -0.00000000000E+00 -0.00000000000E+00 -0.45593999997E+02  0.45594000000E+02  0.51100000000E-03 0.  1.
    9900012    2    1    2    0    0  0.27833722293E+02  0.27621916464E+02 -0.22168154633E+02  0.46142318235E+02  0.10000004322E+02 0.  0.
         12    1    1    2    0    0 -0.27833722293E+02 -0.27621916464E+02  0.22168154633E+02  0.45045681765E+02  0.00000000000E+00 0. -1.
         11    1    3    3    0    0  0.63671140195E+01  0.90406405653E+01 -0.88844736824E+01  0.14184752224E+02  0.51100000000E-03 0. -1.
        -11    1    3    3    0    0  0.11287110789E+02  0.75658984102E+01 -0.92103151503E+01  0.16415589973E+02  0.51100000000E-03 0.  1.
        -12    1    3    3    0    0  0.10179497484E+02  0.11015377489E+02 -0.40733658003E+01  0.15541976039E+02  0.00000000000E+00 0.  1.
</event>
<event>
 7    1  0.2438448E-008  0.4614232E+02  0.7816164E-02  0.1320468E+00
        -11   -1    0    0    0    0  0.00000000000E+00  0.00000000000E+00  0.45593999997E+02  0.45594000000E+02  0.51100000000E-03 0.  1.
         11   -1    0    0    0    0 -0.00000000000E+00 -0.00000000000E+00 -0.45593999997E+02  0.45594000000E+02  0.51100000000E-03 0. -1.
    9900012    2    1    2    0    0 -0.27059465520E+02 -0.36840616575E+01  0.35823547502E+02  0.46142317186E+02  0.99999947551E+01 0.  0.
         12    1    1    2    0    0  0.27059465520E+02  0.36840616575E+01 -0.35823547502E+02  0.45045682814E+02  0.00000000000E+00 0. -1.
         11    1    3    3    0    0 -0.23160565799E+01  0.18761429718E+01  0.24904187367E+01  0.38840978717E+01  0.51100000000E-03 0. -1.
        -11    1    3    3    0    0 -0.63796124603E+01 -0.12602227583E+01  0.12930304574E+02  0.14473437504E+02  0.51100000000E-03 0.  1.
         12    1    3    3    0    0 -0.18363796480E+02 -0.42999818710E+01  0.20402824192E+02  0.27784781810E+02  0.00000000000E+00 0. -1.
</event>
<event>
 7    1  0.2438448E-008  0.4614231E+02  0.7816164E-02  0.1320468E+00
        -11   -1    0    0    0    0  0.00000000000E+00  0.00000000000E+00  0.45593999997E+02  0.45594000000E+02  0.51100000000E-03 0.  1.
         11   -1    0    0    0    0 -0.00000000000E+00 -0.00000000000E+00 -0.45593999997E+02  0.45594000000E+02  0.51100000000E-03 0. -1.
    9900012    2    1    2    0    0 -0.26265506494E+02 -0.28414818430E+02  0.23061558903E+02  0.46142309453E+02  0.99999242401E+01 0.  0.
         12    1    1    2    0    0  0.26265506494E+02  0.28414818430E+02 -0.23061558903E+02  0.45045690547E+02  0.00000000000E+00 0. -1.
         11    1    3    3    0    0 -0.10347334223E+02 -0.90175499206E+01  0.64437598422E+01  0.15162637411E+02  0.51100000000E-03 0.  1.
        -11    1    3    3    0    0 -0.38009140659E+01 -0.95582079531E+01  0.45393432258E+01  0.11243305750E+02  0.51100000000E-03 0. -1.
        -12    1    3    3    0    0 -0.12117258205E+02 -0.98390605567E+01  0.12078455835E+02  0.19736366292E+02  0.00000000000E+00 0.  1.
</event>
<event>
 7    1  0.2438448E-008  0.4614232E+02  0.7816164E-02  0.1320468E+00
        -11   -1    0    0    0    0  0.00000000000E+00  0.00000000000E+00  0.45593999997E+02  0.45594000000E+02  0.51100000000E-03 0.  1.
         11   -1    0    0    0    0 -0.00000000000E+00 -0.00000000000E+00 -0.45593999997E+02  0.45594000000E+02  0.51100000000E-03 0. -1.
    9900012    2    1    2    0    0  0.14871365198E+02  0.29574133404E+02  0.30550395673E+02  0.46142317130E+02  0.99999942443E+01 0.  0.
         12    1    1    2    0    0 -0.14871365198E+02 -0.29574133404E+02 -0.30550395673E+02  0.45045682870E+02  0.00000000000E+00 0. -1.
         11    1    3    3    0    0  0.76180143461E+01  0.12001932749E+02  0.98778236061E+01  0.17310457294E+02  0.51100000000E-03 0. -1.
        -11    1    3    3    0    0  0.63089439031E+00  0.89851001850E+01  0.71619925023E+01  0.11507570983E+02  0.51100000000E-03 0.  1.
        -12    1    3    3    0    0  0.66224564615E+01  0.85871004700E+01  0.13510579565E+02  0.17324288852E+02  0.00000000000E+00 0.  1.
</event>
<event>
 7    1  0.2438448E-008  0.4614232E+02  0.7816164E-02  0.1320468E+00
        -11   -1    0    0    0    0  0.00000000000E+00  0.00000000000E+00  0.45593999997E+02  0.45594000000E+02  0.51100000000E-03 0.  1.
         11   -1    0    0    0    0 -0.00000000000E+00 -0.00000000000E+00 -0.45593999997E+02  0.45594000000E+02  0.51100000000E-03 0. -1.
    9900012    2    1    2    0    0 -0.12081718217E+01 -0.26206936057E+02  0.36617622612E+02  0.46142318050E+02  0.10000002630E+02 0.  0.
         12    1    1    2    0    0  0.12081718217E+01  0.26206936057E+02 -0.36617622612E+02  0.45045681950E+02  0.00000000000E+00 0. -1.
         11    1    3    3    0    0 -0.35353849573E+01 -0.63179975268E+01  0.94206554683E+01  0.11881278940E+02  0.51100000000E-03 0. -1.
        -11    1    3    3    0    0 -0.17090663460E+01 -0.89833458388E+01  0.10659719709E+02  0.14044608744E+02  0.51100000000E-03 0.  1.
         12    1    3    3    0    0  0.40362794817E+01 -0.10905592691E+02  0.16537247435E+02  0.20216430365E+02  0.00000000000E+00 0. -1.
</event>
<event>
 7    1  0.2438448E-008  0.4614232E+02  0.7816164E-02  0.1320468E+00
        -11   -1    0    0    0    0  0.00000000000E+00  0.00000000000E+00  0.45593999997E+02  0.45594000000E+02  0.51100000000E-03 0.  1.
         11   -1    0    0    0    0 -0.00000000000E+00 -0.00000000000E+00 -0.45593999997E+02  0.45594000000E+02  0.51100000000E-03 0. -1.
    9900012    2    1    2    0    0  0.22473849211E+02  0.37440247358E+02  0.11057460974E+02  0.46142318035E+02  0.10000002493E+02 0.  0.
         12    1    1    2    0    0 -0.22473849211E+02 -0.37440247358E+02 -0.11057460974E+02  0.45045681965E+02  0.00000000000E+00 0. -1.
         11    1    3    3    0    0  0.11796834424E+02  0.16596470647E+02  0.77387931391E+01  0.21782953424E+02  0.51100000000E-03 0.  1.
        -11    1    3    3    0    0  0.37553678365E+01  0.10753321265E+02  0.40813433678E+01  0.12099341708E+02  0.51100000000E-03 0. -1.
        -12    1    3    3    0    0  0.69216469508E+01  0.10090455446E+02 -0.76267553319E+00  0.12260022903E+02  0.00000000000E+00 0.  1.
</event>
<event>
 7    1  0.2438448E-008  0.4614232E+02  0.7816164E-02  0.1320468E+00
        -11   -1    0    0    0    0  0.00000000000E+00  0.00000000000E+00  0.45593999997E+02  0.45594000000E+02  0.51100000000E-03 0.  1.
         11   -1    0    0    0    0 -0.00000000000E+00 -0.00000000000E+00 -0.45593999997E+02  0.45594000000E+02  0.51100000000E-03 0. -1.
    9900012    2    1    2    0    0 -0.44784090081E+02  0.23584765143E+01 -0.42351320508E+01  0.46142317862E+02  0.10000000917E+02 0.  0.
         12    1    1    2    0    0  0.44784090081E+02 -0.23584765143E+01  0.42351320508E+01  0.45045682138E+02  0.00000000000E+00 0. -1.
         11    1    3    3    0    0 -0.10965066156E+02  0.25173461616E+01 -0.13704039014E+01  0.11333477605E+02  0.51100000000E-03 0.  1.
        -11    1    3    3    0    0 -0.68781707641E+01 -0.31831048749E+01 -0.48423861640E+00  0.75944635758E+01  0.51100000000E-03 0. -1.
         12    1    3    3    0    0 -0.26940853161E+02  0.30242352276E+01 -0.23804895330E+01  0.27214376681E+02  0.00000000000E+00 0. -1.
</event>
<event>
 7    1  0.2438448E-008  0.4614232E+02  0.7816164E-02  0.1320468E+00
        -11   -1    0    0    0    0  0.00000000000E+00  0.00000000000E+00  0.45593999997E+02  0.45594000000E+02  0.51100000000E-03 0. -1.
         11   -1    0    0    0    0 -0.00000000000E+00 -0.00000000000E+00 -0.45593999997E+02  0.45594000000E+02  0.51100000000E-03 0.  1.
    9900012    2    1    2    0    0 -0.32523765887E+02 -0.14925072614E+02 -0.27359830541E+02  0.46142317996E+02  0.10000002142E+02 0.  0.
         12    1    1    2    0    0  0.32523765887E+02  0.14925072614E+02  0.27359830541E+02  0.45045682004E+02  0.00000000000E+00 0. -1.
         11    1    3    3    0    0 -0.99535438128E+01 -0.52486356502E+01 -0.38461471715E+01  0.11891764333E+02  0.51100000000E-03 0. -1.
        -11    1    3    3    0    0 -0.11976640825E+01 -0.16070744810E+01 -0.25597901235E+01  0.32510941819E+01  0.51100000000E-03 0.  1.
        -12    1    3    3    0    0 -0.21372557991E+02 -0.80693624832E+01 -0.20953893246E+02  0.30999459481E+02  0.00000000000E+00 0.  1.
</event>
<event>
 7    1  0.2438448E-008  0.4614232E+02  0.7816164E-02  0.1320468E+00
        -11   -1    0    0    0    0  0.00000000000E+00  0.00000000000E+00  0.45593999997E+02  0.45594000000E+02  0.51100000000E-03 0.  1.
         11   -1    0    0    0    0 -0.00000000000E+00 -0.00000000000E+00 -0.45593999997E+02  0.45594000000E+02  0.51100000000E-03 0. -1.
    9900012    2    1    2    0    0  0.17453922576E+02 -0.11805447209E+02  0.39813383089E+02  0.46142317964E+02  0.10000001851E+02 0.  0.
         12    1    1    2    0    0 -0.17453922576E+02  0.11805447209E+02 -0.39813383089E+02  0.45045682036E+02  0.00000000000E+00 0. -1.
         11    1    3    3    0    0  0.30961125053E+01 -0.94637639927E+00  0.35548863783E+01  0.48081969966E+01  0.51100000000E-03 0. -1.
        -11    1    3    3    0    0  0.10925393431E+02 -0.10746975665E+02  0.22999832026E+02  0.27637908406E+02  0.51100000000E-03 0.  1.
        -12    1    3    3    0    0  0.34324166398E+01 -0.11209514482E+00  0.13258664685E+02  0.13696212562E+02  0.00000000000E+00 0.  1.
</event>
<event>
 7    1  0.2438448E-008  0.4614232E+02  0.7816164E-02  0.1320468E+00
        -11   -1    0    0    0    0  0.00000000000E+00  0.00000000000E+00  0.45593999997E+02  0.45594000000E+02  0.51100000000E-03 0.  1.
         11   -1    0    0    0    0 -0.00000000000E+00 -0.00000000000E+00 -0.45593999997E+02  0.45594000000E+02  0.51100000000E-03 0. -1.
    9900012    2    1    2    0    0  0.35499460462E+02 -0.25463009981E+02 -0.10978937168E+02  0.46142316170E+02  0.99999854947E+01 0.  0.
         12    1    1    2    0    0 -0.35499460462E+02  0.25463009981E+02  0.10978937168E+02  0.45045683830E+02  0.00000000000E+00 0. -1.
         11    1    3    3    0    0  0.23166940873E+02 -0.12829210072E+02 -0.44782081753E+01  0.26857962119E+02  0.51100000000E-03 0. -1.
        -11    1    3    3    0    0  0.70399397363E+01 -0.43415240817E+01 -0.22778580325E+01  0.85789405127E+01  0.51100000000E-03 0.  1.
         12    1    3    3    0    0  0.52925798525E+01 -0.82922758269E+01 -0.42228709598E+01  0.10705413538E+02  0.00000000000E+00 0. -1.
</event>
<event>
 7    1  0.2438448E-008  0.4614232E+02  0.7816164E-02  0.1320468E+00
        -11   -1    0    0    0    0  0.00000000000E+00  0.00000000000E+00  0.45593999997E+02  0.45594000000E+02  0.51100000000E-03 0. -1.
         11   -1    0    0    0    0 -0.00000000000E+00 -0.00000000000E+00 -0.45593999997E+02  0.45594000000E+02  0.51100000000E-03 0.  1.
    9900012    2    1    2    0    0  0.15925842271E+02  0.41976427498E+02 -0.36688655547E+01  0.46142317721E+02  0.99999996325E+01 0.  0.
         12    1    1    2    0    0 -0.15925842271E+02 -0.41976427498E+02  0.36688655547E+01  0.45045682279E+02  0.00000000000E+00 0. -1.
         11    1    3    3    0    0  0.50866294786E+01  0.71853230238E+01 -0.45026730478E+00  0.88150670625E+01  0.51100000000E-03 0. -1.
        -11    1    3    3    0    0  0.13726963919E+01  0.36881464416E+01 -0.27700674215E+01  0.48124830743E+01  0.51100000000E-03 0.  1.
        -12    1    3    3    0    0  0.94665164001E+01  0.31102958033E+02 -0.44853082838E+00  0.32514767584E+02  0.00000000000E+00 0.  1.
</event>
<event>
 7    1  0.2438448E-008  0.4614232E+02  0.7816164E-02  0.1320468E+00
        -11   -1    0    0    0    0  0.00000000000E+00  0.00000000000E+00  0.45593999997E+02  0.45594000000E+02  0.51100000000E-03 0. -1.
         11   -1    0    0    0    0 -0.00000000000E+00 -0.00000000000E+00 -0.45593999997E+02  0.45594000000E+02  0.51100000000E-03 0.  1.
    9900012    2    1    2    0    0  0.25209486712E+02 -0.36191272355E+02 -0.91535255321E+01  0.46142318247E+02  0.10000004428E+02 0.  0.
         12    1    1    2    0    0 -0.25209486712E+02  0.36191272355E+02  0.91535255321E+01  0.45045681753E+02  0.00000000000E+00 0. -1.
         11    1    3    3    0    0  0.38703848509E+00  0.56099220672E+00 -0.71074377502E+00  0.98471722834E+00  0.51100000000E-03 0. -1.
        -11    1    3    3    0    0  0.85620710302E+01 -0.12105294608E+02 -0.24553498497E+01  0.15029170337E+02  0.51100000000E-03 0.  1.
         12    1    3    3    0    0  0.16260377197E+02 -0.24646969954E+02 -0.59874319074E+01  0.30128430682E+02  0.00000000000E+00 0. -1.
</event>
<event>
 7    1  0.2438448E-008  0.4614232E+02  0.7816164E-02  0.1320468E+00
        -11   -1    0    0    0    0  0.00000000000E+00  0.00000000000E+00  0.45593999997E+02  0.45594000000E+02  0.51100000000E-03 0.  1.
         11   -1    0    0    0    0 -0.00000000000E+00 -0.00000000000E+00 -0.45593999997E+02  0.45594000000E+02  0.51100000000E-03 0. -1.
    9900012    2    1    2    0    0 -0.41976985472E+02  0.76006372551E+01  0.14466400217E+02  0.46142315065E+02  0.99999754149E+01 0.  0.
         12    1    1    2    0    0  0.41976985472E+02 -0.76006372551E+01 -0.14466400217E+02  0.45045684935E+02  0.00000000000E+00 0. -1.
         11    1    3    3    0    0 -0.88651866434E+00  0.12747817067E+01  0.20608149761E+01  0.25802988914E+01  0.51100000000E-03 0. -1.
        -11    1    3    3    0    0 -0.22799672497E+02  0.54581885594E+01  0.67073655100E+01  0.24384536917E+02  0.51100000000E-03 0.  1.
        -12    1    3    3    0    0 -0.18290794311E+02  0.86766698899E+00  0.56982197309E+01  0.19177479257E+02  0.00000000000E+00 0.  1.
</event>
<event>
 7    1  0.2438448E-008  0.4614232E+02  0.7816164E-02  0.1320468E+00
        -11   -1    0    0    0    0  0.00000000000E+00  0.00000000000E+00  0.45593999997E+02  0.45594000000E+02  0.51100000000E-03 0.  1.
         11   -1    0    0    0    0 -0.00000000000E+00 -0.00000000000E+00 -0.45593999997E+02  0.45594000000E+02  0.51100000000E-03 0. -1.
    9900012    2    1    2    0    0  0.37477750990E+02  0.24682385811E+02  0.39129821176E+01  0.46142318546E+02  0.10000007154E+02 0.  0.
         12    1    1    2    0    0 -0.37477750990E+02 -0.24682385811E+02 -0.39129821176E+01  0.45045681454E+02  0.00000000000E+00 0. -1.
         11    1    3    3    0    0  0.27791592876E+01  0.68400930406E+00 -0.94199397153E-01  0.28636460783E+01  0.51100000000E-03 0. -1.
        -11    1    3    3    0    0  0.34763436189E+02  0.24111711019E+02  0.31635354782E+01  0.42424981567E+02  0.51100000000E-03 0.  1.
         12    1    3    3    0    0 -0.64844486253E-01 -0.11333451205E+00  0.84364603653E+00  0.85369090072E+00  0.00000000000E+00 0. -1.
</event>
<event>
 7    1  0.2438448E-008  0.4614232E+02  0.7816164E-02  0.1320468E+00
        -11   -1    0    0    0    0  0.00000000000E+00  0.00000000000E+00  0.45593999997E+02  0.45594000000E+02  0.51100000000E-03 0.  1.
         11   -1    0    0    0    0 -0.00000000000E+00 -0.00000000000E+00 -0.45593999997E+02  0.45594000000E+02  0.51100000000E-03 0. -1.
    9900012    2    1    2    0    0  0.39820814456E+02  0.16850482385E+02  0.12628438373E+02  0.46142317895E+02  0.10000001223E+02 0.  0.
         12    1    1    2    0    0 -0.39820814456E+02 -0.16850482385E+02 -0.12628438373E+02  0.45045682105E+02  0.00000000000E+00 0. -1.
         11    1    3    3    0    0  0.12854195300E+02  0.17692609725E+01  0.29734427793E+01  0.13311723533E+02  0.51100000000E-03 0. -1.
        -11    1    3    3    0    0  0.24015319074E+02  0.11290147478E+02  0.75877573056E+01  0.27600308721E+02  0.51100000000E-03 0.  1.
        -12    1    3    3    0    0  0.29513000823E+01  0.37910739341E+01  0.20672382879E+01  0.52302856412E+01  0.00000000000E+00 0.  1.
</event>
<event>
 7    1  0.2438448E-008  0.4614232E+02  0.7816164E-02  0.1320468E+00
        -11   -1    0    0    0    0  0.00000000000E+00  0.00000000000E+00  0.45593999997E+02  0.45594000000E+02  0.51100000000E-03 0.  1.
         11   -1    0    0    0    0 -0.00000000000E+00 -0.00000000000E+00 -0.45593999997E+02  0.45594000000E+02  0.51100000000E-03 0. -1.
    9900012    2    1    2    0    0 -0.33883331086E+01 -0.42592556048E+02  0.14265583096E+02  0.46142317709E+02  0.99999995278E+01 0.  0.
         12    1    1    2    0    0  0.33883331086E+01  0.42592556048E+02 -0.14265583096E+02  0.45045682291E+02  0.00000000000E+00 0. -1.
         11    1    3    3    0    0 -0.14129965035E+01 -0.19657189710E+02  0.20249085314E+01  0.19811661244E+02  0.51100000000E-03 0. -1.
        -11    1    3    3    0    0 -0.15409961762E+01 -0.47185202614E+01  0.37856251807E+01  0.62426004952E+01  0.51100000000E-03 0.  1.
         12    1    3    3    0    0 -0.43434042900E+00 -0.18216846076E+02  0.84550493836E+01  0.20088055970E+02  0.00000000000E+00 0. -1.
</event>
<event>
 7    1  0.2438448E-008  0.4614232E+02  0.7816164E-02  0.1320468E+00
        -11   -1    0    0    0    0  0.00000000000E+00  0.00000000000E+00  0.45593999997E+02  0.45594000000E+02  0.51100000000E-03 0.  1.
         11   -1    0    0    0    0 -0.00000000000E+00 -0.00000000000E+00 -0.45593999997E+02  0.45594000000E+02  0.51100000000E-03 0. -1.
    9900012    2    1    2    0    0 -0.21150704514E+02  0.18035313545E+02  0.35446984124E+02  0.46142317415E+02  0.99999968409E+01 0.  0.
         12    1    1    2    0    0  0.21150704514E+02 -0.18035313545E+02 -0.35446984124E+02  0.45045682585E+02  0.00000000000E+00 0. -1.
         11    1    3    3    0    0 -0.20840679846E+01  0.11613491627E+01  0.16110923019E+00  0.23912397804E+01  0.51100000000E-03 0. -1.
        -11    1    3    3    0    0 -0.37255846693E+01  0.42703263526E+01  0.11071315655E+02  0.12437431361E+02  0.51100000000E-03 0.  1.
        -12    1    3    3    0    0 -0.15341051860E+02  0.12603638030E+02  0.24214559239E+02  0.31313646273E+02  0.00000000000E+00 0.  1.
</event>
<event>
 7    1  0.2438448E-008  0.4614232E+02  0.7816164E-02  0.1320468E+00
        -11   -1    0    0    0    0  0.00000000000E+00  0.00000000000E+00  0.45593999997E+02  0.45594000000E+02  0.51100000000E-03 0.  1.
         11   -1    0    0    0    0 -0.00000000000E+00 -0.00000000000E+00 -0.45593999997E+02  0.45594000000E+02  0.51100000000E-03 0. -1.
    9900012    2    1    2    0    0  0.19375164074E+02 -0.29810401971E+02  0.27659654421E+02  0.46142317285E+02  0.99999956593E+01 0.  0.
         12    1    1    2    0    0 -0.19375164074E+02  0.29810401971E+02 -0.27659654421E+02  0.45045682715E+02  0.00000000000E+00 0. -1.
         11    1    3    3    0    0  0.82239389556E+01 -0.19689676970E+02  0.15667649772E+02  0.26472472510E+02  0.51100000000E-03 0. -1.
        -11    1    3    3    0    0  0.61720118106E+01 -0.54377670274E+01  0.39793550458E+01  0.91377407972E+01  0.51100000000E-03 0.  1.
         12    1    3    3    0    0  0.49792133076E+01 -0.46829579731E+01  0.80126496031E+01  0.10532103978E+02  0.00000000000E+00 0. -1.
</event>
<event>
 7    1  0.2438448E-008  0.4614232E+02  0.7816164E-02  0.1320468E+00
        -11   -1    0    0    0    0  0.00000000000E+00  0.00000000000E+00  0.45593999997E+02  0.45594000000E+02  0.51100000000E-03 0. -1.
         11   -1    0    0    0    0 -0.00000000000E+00 -0.00000000000E+00 -0.45593999997E+02  0.45594000000E+02  0.51100000000E-03 0.  1.
    9900012    2    1    2    0    0 -0.41192350211E+02  0.14339373313E+02 -0.11255492775E+02  0.46142318070E+02  0.10000002820E+02 0.  0.
         12    1    1    2    0    0  0.41192350211E+02 -0.14339373313E+02  0.11255492775E+02  0.45045681930E+02  0.00000000000E+00 0. -1.
         11    1    3    3    0    0 -0.32972166644E+01 -0.14418079282E+01 -0.12466020623E+01  0.38084727643E+01  0.51100000000E-03 0. -1.
        -11    1    3    3    0    0 -0.18939820354E+02  0.75752111308E+01 -0.36555459211E+01  0.20723504408E+02  0.51100000000E-03 0.  1.
         12    1    3    3    0    0 -0.18955313193E+02  0.82059701103E+01 -0.63533447918E+01  0.21610340898E+02  0.00000000000E+00 0. -1.
</event>
<event>
 7    1  0.2438448E-008  0.4614232E+02  0.7816164E-02  0.1320468E+00
        -11   -1    0    0    0    0  0.00000000000E+00  0.00000000000E+00  0.45593999997E+02  0.45594000000E+02  0.51100000000E-03 0.  1.
         11   -1    0    0    0    0 -0.00000000000E+00 -0.00000000000E+00 -0.45593999997E+02  0.45594000000E+02  0.51100000000E-03 0. -1.
    9900012    2    1    2    0    0  0.18783391359E+02 -0.31437702569E+02  0.26229159281E+02  0.46142315075E+02  0.99999755028E+01 0.  0.
         12    1    1    2    0    0 -0.18783391359E+02  0.31437702569E+02 -0.26229159281E+02  0.45045684925E+02  0.00000000000E+00 0. -1.
         11    1    3    3    0    0  0.29213542898E+01 -0.16141472509E+01  0.92730109594E+00  0.34640539571E+01  0.51100000000E-03 0. -1.
        -11    1    3    3    0    0  0.56755968639E+00 -0.51877763192E+01  0.24837481371E+01  0.57796325321E+01  0.51100000000E-03 0.  1.
        -12    1    3    3    0    0  0.15294477383E+02 -0.24635778999E+02  0.22818110048E+02  0.36898628586E+02  0.00000000000E+00 0.  1.
</event>
<event>
 7    1  0.2438448E-008  0.4614232E+02  0.7816164E-02  0.1320468E+00
        -11   -1    0    0    0    0  0.00000000000E+00  0.00000000000E+00  0.45593999997E+02  0.45594000000E+02  0.51100000000E-03 0.  1.
         11   -1    0    0    0    0 -0.00000000000E+00 -0.00000000000E+00 -0.45593999997E+02  0.45594000000E+02  0.51100000000E-03 0. -1.
    9900012    2    1    2    0    0 -0.46547499993E+01  0.16758499560E+02  0.41552370445E+02  0.46142317692E+02  0.99999993664E+01 0.  0.
         12    1    1    2    0    0  0.46547499993E+01 -0.16758499560E+02 -0.41552370445E+02  0.45045682308E+02  0.00000000000E+00 0. -1.
         11    1    3    3    0    0 -0.23865904401E+01  0.45856717576E+01  0.23354587610E+02  0.23919886331E+02  0.51100000000E-03 0. -1.
        -11    1    3    3    0    0 -0.14928630154E+01  0.62646336952E+01  0.12036160723E+02  0.13650767031E+02  0.51100000000E-03 0.  1.
         12    1    3    3    0    0 -0.77529654375E+00  0.59081941067E+01  0.61616221119E+01  0.85716643298E+01  0.00000000000E+00 0. -1.
</event>
<event>
 7    1  0.2438448E-008  0.4614231E+02  0.7816164E-02  0.1320468E+00
        -11   -1    0    0    0    0  0.00000000000E+00  0.00000000000E+00  0.45593999997E+02  0.45594000000E+02  0.51100000000E-03 0.  1.
         11   -1    0    0    0    0 -0.00000000000E+00 -0.00000000000E+00 -0.45593999997E+02  0.45594000000E+02  0.51100000000E-03 0. -1.
    9900012    2    1    2    0    0 -0.10087529443E+01  0.44263601728E+02 -0.82963693650E+01  0.46142314690E+02  0.99999719913E+01 0.  0.
         12    1    1    2    0    0  0.10087529443E+01 -0.44263601728E+02  0.82963693650E+01  0.45045685310E+02  0.00000000000E+00 0. -1.
         11    1    3    3    0    0  0.11263858059E+01  0.15897041644E+02 -0.71257105934E+01  0.17457388972E+02  0.51100000000E-03 0. -1.
        -11    1    3    3    0    0  0.79360758721E+00  0.23687592967E+01 -0.49086965199E-01  0.24986483145E+01  0.51100000000E-03 0.  1.
         12    1    3    3    0    0 -0.29287463374E+01  0.25997800788E+02 -0.11215718065E+01  0.26186277403E+02  0.00000000000E+00 0. -1.
</event>
<event>
 7    1  0.2438448E-008  0.4614232E+02  0.7816164E-02  0.1320468E+00
        -11   -1    0    0    0    0  0.00000000000E+00  0.00000000000E+00  0.45593999997E+02  0.45594000000E+02  0.51100000000E-03 0. -1.
         11   -1    0    0    0    0 -0.00000000000E+00 -0.00000000000E+00 -0.45593999997E+02  0.45594000000E+02  0.51100000000E-03 0.  1.
    9900012    2    1    2    0    0  0.91982864967E+01  0.27620135074E+02 -0.34374890409E+02  0.46142318446E+02  0.10000006246E+02 0.  0.
         12    1    1    2    0    0 -0.91982864967E+01 -0.27620135074E+02  0.34374890409E+02  0.45045681554E+02  0.00000000000E+00 0. -1.
         11    1    3    3    0    0  0.75407174362E+01  0.12058689393E+02 -0.11016093402E+02  0.17989683805E+02  0.51100000000E-03 0. -1.
        -11    1    3    3    0    0  0.14936407120E+01  0.78211895208E+01 -0.12338084402E+02  0.14684355453E+02  0.51100000000E-03 0.  1.
         12    1    3    3    0    0  0.16392834846E+00  0.77402561605E+01 -0.11020712605E+02  0.13468279187E+02  0.00000000000E+00 0. -1.
</event>
<event>
 7    1  0.2438448E-008  0.4614232E+02  0.7816164E-02  0.1320468E+00
        -11   -1    0    0    0    0  0.00000000000E+00  0.00000000000E+00  0.45593999997E+02  0.45594000000E+02  0.51100000000E-03 0.  1.
         11   -1    0    0    0    0 -0.00000000000E+00 -0.00000000000E+00 -0.45593999997E+02  0.45594000000E+02  0.51100000000E-03 0. -1.
    9900012    2    1    2    0    0 -0.30762290730E+02  0.25408394711E+02  0.20909530477E+02  0.46142317438E+02  0.99999970548E+01 0.  0.
         12    1    1    2    0    0  0.30762290730E+02 -0.25408394711E+02 -0.20909530477E+02  0.45045682562E+02  0.00000000000E+00 0. -1.
         11    1    3    3    0    0 -0.16405337296E+02  0.17494430275E+02  0.14599556197E+02  0.28077343604E+02  0.51100000000E-03 0. -1.
        -11    1    3    3    0    0 -0.90160740040E+01  0.42267181372E+01  0.58722143723E+01  0.11560174677E+02  0.51100000000E-03 0.  1.
        -12    1    3    3    0    0 -0.53408794295E+01  0.36872462988E+01  0.43775990779E+00  0.65047991580E+01  0.00000000000E+00 0.  1.
</event>
<event>
 7    1  0.2438448E-008  0.4614232E+02  0.7816164E-02  0.1320468E+00
        -11   -1    0    0    0    0  0.00000000000E+00  0.00000000000E+00  0.45593999997E+02  0.45594000000E+02  0.51100000000E-03 0.  1.
         11   -1    0    0    0    0 -0.00000000000E+00 -0.00000000000E+00 -0.45593999997E+02  0.45594000000E+02  0.51100000000E-03 0. -1.
    9900012    2    1    2    0    0  0.35400844763E+02 -0.20391343405E+02  0.18975956346E+02  0.46142316355E+02  0.99999871779E+01 0.  0.
         12    1    1    2    0    0 -0.35400844763E+02  0.20391343405E+02 -0.18975956346E+02  0.45045683645E+02  0.00000000000E+00 0. -1.
         11    1    3    3    0    0  0.51610521995E+01 -0.44240198175E+01  0.51944853238E+01  0.85551790859E+01  0.51100000000E-03 0. -1.
        -11    1    3    3    0    0  0.13243805511E+02 -0.97546892476E+01  0.36517379813E+01  0.16848962498E+02  0.51100000000E-03 0.  1.
        -12    1    3    3    0    0  0.16995987053E+02 -0.62126343395E+01  0.10129733041E+02  0.20738174771E+02  0.00000000000E+00 0.  1.
</event>
<event>
 7    1  0.2438448E-008  0.4614232E+02  0.7816164E-02  0.1320468E+00
        -11   -1    0    0    0    0  0.00000000000E+00  0.00000000000E+00  0.45593999997E+02  0.45594000000E+02  0.51100000000E-03 0.  1.
         11   -1    0    0    0    0 -0.00000000000E+00 -0.00000000000E+00 -0.45593999997E+02  0.45594000000E+02  0.51100000000E-03 0. -1.
    9900012    2    1    2    0    0 -0.29333396990E+02 -0.17641831814E+02  0.29281923957E+02  0.46142317861E+02  0.10000000913E+02 0.  0.
         12    1    1    2    0    0  0.29333396990E+02  0.17641831814E+02 -0.29281923957E+02  0.45045682139E+02  0.00000000000E+00 0. -1.
         11    1    3    3    0    0 -0.17401955183E+02 -0.12303436334E+02  0.21938028966E+02  0.30585612713E+02  0.51100000000E-03 0. -1.
        -11    1    3    3    0    0 -0.94919506202E+01 -0.30315350855E+01  0.70091102077E+01  0.12182567780E+02  0.51100000000E-03 0.  1.
         12    1    3    3    0    0 -0.24394911868E+01 -0.23068603948E+01  0.33478478290E+00  0.33741373686E+01  0.00000000000E+00 0. -1.
</event>
<event>
 7    1  0.2438448E-008  0.4614232E+02  0.7816164E-02  0.1320468E+00
        -11   -1    0    0    0    0  0.00000000000E+00  0.00000000000E+00  0.45593999997E+02  0.45594000000E+02  0.51100000000E-03 0.  1.
         11   -1    0    0    0    0 -0.00000000000E+00 -0.00000000000E+00 -0.45593999997E+02  0.45594000000E+02  0.51100000000E-03 0. -1.
    9900012    2    1    2    0    0  0.12678779570E+02 -0.38214187318E+02  0.20199949950E+02  0.46142317168E+02  0.99999945954E+01 0.  0.
         12    1    1    2    0    0 -0.12678779570E+02  0.38214187318E+02 -0.20199949950E+02  0.45045682832E+02  0.00000000000E+00 0. -1.
         11    1    3    3    0    0 -0.27645678497E+00 -0.49498113849E+00  0.16933525526E+01  0.17857429294E+01  0.51100000000E-03 0. -1.
        -11    1    3    3    0    0  0.71743792237E+01 -0.25513000621E+02  0.14783278065E+02  0.30346832266E+02  0.51100000000E-03 0.  1.
         12    1    3    3    0    0  0.57808571314E+01 -0.12206205559E+02  0.37233193319E+01  0.14009741973E+02  0.00000000000E+00 0. -1.
</event>
<event>
 7    1  0.2438448E-008  0.4614231E+02  0.7816164E-02  0.1320468E+00
        -11   -1    0    0    0    0  0.00000000000E+00  0.00000000000E+00  0.45593999997E+02  0.45594000000E+02  0.51100000000E-03 0. -1.
         11   -1    0    0    0    0 -0.00000000000E+00 -0.00000000000E+00 -0.45593999997E+02  0.45594000000E+02  0.51100000000E-03 0.  1.
    9900012    2    1    2    0    0 -0.18640779843E+02 -0.34292059303E+02 -0.22487548177E+02  0.46142313998E+02  0.99999656845E+01 0.  0.
         12    1    1    2    0    0  0.18640779843E+02  0.34292059303E+02  0.22487548177E+02  0.45045686002E+02  0.00000000000E+00 0. -1.
         11    1    3    3    0    0 -0.64106408224E+01 -0.10868894047E+02 -0.31173274620E+01  0.12997957698E+02  0.51100000000E-03 0.  1.
        -11    1    3    3    0    0 -0.26275444114E+01 -0.66869983152E+01 -0.28018467501E+01  0.77116977102E+01  0.51100000000E-03 0. -1.
        -12    1    3    3    0    0 -0.96025946088E+01 -0.16736166941E+02 -0.16568373965E+02  0.25432658590E+02  0.00000000000E+00 0.  1.
</event>
<event>
 7    1  0.2438448E-008  0.4614232E+02  0.7816164E-02  0.1320468E+00
        -11   -1    0    0    0    0  0.00000000000E+00  0.00000000000E+00  0.45593999997E+02  0.45594000000E+02  0.51100000000E-03 0. -1.
         11   -1    0    0    0    0 -0.00000000000E+00 -0.00000000000E+00 -0.45593999997E+02  0.45594000000E+02  0.51100000000E-03 0.  1.
    9900012    2    1    2    0    0 -0.40586361820E+02 -0.10489157243E+02 -0.16487519849E+02  0.46142317674E+02  0.99999992018E+01 0.  0.
         12    1    1    2    0    0  0.40586361820E+02  0.10489157243E+02  0.16487519849E+02  0.45045682326E+02  0.00000000000E+00 0. -1.
         11    1    3    3    0    0 -0.90416004438E+01 -0.25147931160E+01 -0.43209027564E+00  0.93947552001E+01  0.51100000000E-03 0. -1.
        -11    1    3    3    0    0 -0.14327522314E+01 -0.16812619303E+01 -0.45468183273E+00  0.22552508652E+01  0.51100000000E-03 0.  1.
        -12    1    3    3    0    0 -0.30112009145E+02 -0.62931021968E+01 -0.15600747741E+02  0.34492311608E+02  0.00000000000E+00 0.  1.
</event>
<event>
 7    1  0.2438448E-008  0.4614232E+02  0.7816164E-02  0.1320468E+00
        -11   -1    0    0    0    0  0.00000000000E+00  0.00000000000E+00  0.45593999997E+02  0.45594000000E+02  0.51100000000E-03 0.  1.
         11   -1    0    0    0    0 -0.00000000000E+00 -0.00000000000E+00 -0.45593999997E+02  0.45594000000E+02  0.51100000000E-03 0. -1.
    9900012    2    1    2    0    0 -0.15151075867E+02  0.17998538988E+02  0.38413682757E+02  0.46142317315E+02  0.99999959324E+01 0.  0.
         12    1    1    2    0    0  0.15151075867E+02 -0.17998538988E+02 -0.38413682757E+02  0.45045682685E+02  0.00000000000E+00 0. -1.
         11    1    3    3    0    0  0.53839402385E+00  0.45760906673E+01  0.71567521059E+01  0.85117316033E+01  0.51100000000E-03 0. -1.
        -11    1    3    3    0    0 -0.32580100987E+01  0.13363831818E+01  0.40296610344E+01  0.53515154980E+01  0.51100000000E-03 0.  1.
         12    1    3    3    0    0 -0.12431459792E+02  0.12086065138E+02  0.27227269617E+02  0.32279070214E+02  0.00000000000E+00 0. -1.
</event>
<event>
 7    1  0.2438448E-008  0.4614232E+02  0.7816164E-02  0.1320468E+00
        -11   -1    0    0    0    0  0.00000000000E+00  0.00000000000E+00  0.45593999997E+02  0.45594000000E+02  0.51100000000E-03 0.  1.
         11   -1    0    0    0    0 -0.00000000000E+00 -0.00000000000E+00 -0.45593999997E+02  0.45594000000E+02  0.51100000000E-03 0. -1.
    9900012    2    1    2    0    0  0.80079647110E+01 -0.40864296339E+02  0.17178341013E+02  0.46142316366E+02  0.99999872744E+01 0.  0.
         12    1    1    2    0    0 -0.80079647110E+01  0.40864296339E+02 -0.17178341013E+02  0.45045683634E+02  0.00000000000E+00 0. -1.
         11    1    3    3    0    0  0.51363837907E+01 -0.74040983510E+01  0.40621907551E+01  0.98845589092E+01  0.51100000000E-03 0. -1.
        -11    1    3    3    0    0 -0.79102350014E+00 -0.12007307339E+02  0.43544015967E+01  0.12796951247E+02  0.51100000000E-03 0.  1.
        -12    1    3    3    0    0  0.36626044205E+01 -0.21452890650E+02  0.87617486617E+01  0.23460806209E+02  0.00000000000E+00 0.  1.
</event>
<event>
 7    1  0.2438448E-008  0.4614232E+02  0.7816164E-02  0.1320468E+00
        -11   -1    0    0    0    0  0.00000000000E+00  0.00000000000E+00  0.45593999997E+02  0.45594000000E+02  0.51100000000E-03 0.  1.
         11   -1    0    0    0    0 -0.00000000000E+00 -0.00000000000E+00 -0.45593999997E+02  0.45594000000E+02  0.51100000000E-03 0. -1.
    9900012    2    1    2    0    0 -0.12693162494E+02  0.18575255624E+02  0.39025080854E+02  0.46142318395E+02  0.10000005782E+02 0.  0.
         12    1    1    2    0    0  0.12693162494E+02 -0.18575255624E+02 -0.39025080854E+02  0.45045681605E+02  0.00000000000E+00 0. -1.
         11    1    3    3    0    0  0.90770759300E+00  0.16339954498E+01  0.28786578324E+01  0.34322799102E+01  0.51100000000E-03 0. -1.
        -11    1    3    3    0    0 -0.25435381862E+01  0.30314408439E+01  0.25609339558E+01  0.47135552486E+01  0.51100000000E-03 0.  1.
        -12    1    3    3    0    0 -0.11057331901E+02  0.13909819330E+02  0.33585489066E+02  0.37996483236E+02  0.00000000000E+00 0.  1.
</event>
<event>
 7    1  0.2438448E-008  0.4614232E+02  0.7816164E-02  0.1320468E+00
        -11   -1    0    0    0    0  0.00000000000E+00  0.00000000000E+00  0.45593999997E+02  0.45594000000E+02  0.51100000000E-03 0.  1.
         11   -1    0    0    0    0 -0.00000000000E+00 -0.00000000000E+00 -0.45593999997E+02  0.45594000000E+02  0.51100000000E-03 0. -1.
    9900012    2    1    2    0    0 -0.19289345921E+02  0.40541309803E+02 -0.36656240960E+01  0.46142318003E+02  0.10000002206E+02 0.  0.
         12    1    1    2    0    0  0.19289345921E+02 -0.40541309803E+02  0.36656240960E+01  0.45045681997E+02  0.00000000000E+00 0. -1.
         11    1    3    3    0    0 -0.13267977343E+02  0.29112508699E+02 -0.42825522591E+01  0.32278749041E+02  0.51100000000E-03 0. -1.
        -11    1    3    3    0    0 -0.51722952126E+01  0.11388951267E+02 -0.42901858410E+00  0.12515786270E+02  0.51100000000E-03 0.  1.
         12    1    3    3    0    0 -0.84907336519E+00  0.39849836268E-01  0.10459467472E+01  0.13477826928E+01  0.00000000000E+00 0. -1.
</event>
<event>
 7    1  0.2438448E-008  0.4614232E+02  0.7816164E-02  0.1320468E+00
        -11   -1    0    0    0    0  0.00000000000E+00  0.00000000000E+00  0.45593999997E+02  0.45594000000E+02  0.51100000000E-03 0. -1.
         11   -1    0    0    0    0 -0.00000000000E+00 -0.00000000000E+00 -0.45593999997E+02  0.45594000000E+02  0.51100000000E-03 0.  1.
    9900012    2    1    2    0    0 -0.29444258343E+01 -0.41411758904E+02 -0.17478846228E+02  0.46142317805E+02  0.10000000398E+02 0.  0.
         12    1    1    2    0    0  0.29444258343E+01  0.41411758904E+02  0.17478846228E+02  0.45045682195E+02  0.00000000000E+00 0. -1.
         11    1    3    3    0    0  0.11815185382E+01 -0.80617518928E+01 -0.64905569412E+01  0.10417060973E+02  0.51100000000E-03 0. -1.
        -11    1    3    3    0    0 -0.22465041316E+01 -0.15104608936E+02 -0.76582882837E+01  0.17083482421E+02  0.51100000000E-03 0.  1.
         12    1    3    3    0    0 -0.18794402409E+01 -0.18245398075E+02 -0.33300010029E+01  0.18641774411E+02  0.00000000000E+00 0. -1.
</event>
<event>
 7    1  0.2438448E-008  0.4614232E+02  0.7816164E-02  0.1320468E+00
        -11   -1    0    0    0    0  0.00000000000E+00  0.00000000000E+00  0.45593999997E+02  0.45594000000E+02  0.51100000000E-03 0.  1.
         11   -1    0    0    0    0 -0.00000000000E+00 -0.00000000000E+00 -0.45593999997E+02  0.45594000000E+02  0.51100000000E-03 0. -1.
    9900012    2    1    2    0    0 -0.14341689573E+02 -0.40473265624E+02  0.13614118671E+02  0.46142317440E+02  0.99999970726E+01 0.  0.
         12    1    1    2    0    0  0.14341689573E+02  0.40473265624E+02 -0.13614118671E+02  0.45045682560E+02  0.00000000000E+00 0. -1.
         11    1    3    3    0    0 -0.59944823425E+01 -0.14669355198E+02  0.27847076904E+01  0.16089698495E+02  0.51100000000E-03 0. -1.
        -11    1    3    3    0    0 -0.63811591495E+00 -0.81583968448E+01  0.61487024467E+01  0.10235876760E+02  0.51100000000E-03 0.  1.
        -12    1    3    3    0    0 -0.77090913157E+01 -0.17645513581E+02  0.46807085343E+01  0.19816742185E+02  0.00000000000E+00 0.  1.
</event>
<event>
 7    1  0.2438448E-008  0.4614232E+02  0.7816164E-02  0.1320468E+00
        -11   -1    0    0    0    0  0.00000000000E+00  0.00000000000E+00  0.45593999997E+02  0.45594000000E+02  0.51100000000E-03 0.  1.
         11   -1    0    0    0    0 -0.00000000000E+00 -0.00000000000E+00 -0.45593999997E+02  0.45594000000E+02  0.51100000000E-03 0. -1.
    9900012    2    1    2    0    0  0.21295649797E+01 -0.81597164580E+01  0.44249264740E+02  0.46142318190E+02  0.10000003914E+02 0.  0.
         12    1    1    2    0    0 -0.21295649797E+01  0.81597164580E+01 -0.44249264740E+02  0.45045681810E+02  0.00000000000E+00 0. -1.
         11    1    3    3    0    0 -0.24163591256E+01 -0.66455444947E+00  0.88454155056E+01  0.91935738301E+01  0.51100000000E-03 0. -1.
        -11    1    3    3    0    0 -0.13590537870E+01 -0.67219001872E+00  0.41463839817E+01  0.44149028304E+01  0.51100000000E-03 0.  1.
        -12    1    3    3    0    0  0.59049778923E+01 -0.68229719898E+01  0.31257465252E+02  0.32533841530E+02  0.00000000000E+00 0.  1.
</event>
<event>
 7    1  0.2438448E-008  0.4614232E+02  0.7816164E-02  0.1320468E+00
        -11   -1    0    0    0    0  0.00000000000E+00  0.00000000000E+00  0.45593999997E+02  0.45594000000E+02  0.51100000000E-03 0.  1.
         11   -1    0    0    0    0 -0.00000000000E+00 -0.00000000000E+00 -0.45593999997E+02  0.45594000000E+02  0.51100000000E-03 0. -1.
    9900012    2    1    2    0    0  0.16745863073E+02  0.15265390367E+02  0.38931445821E+02  0.46142317112E+02  0.99999940832E+01 0.  0.
         12    1    1    2    0    0 -0.16745863073E+02 -0.15265390367E+02 -0.38931445821E+02  0.45045682888E+02  0.00000000000E+00 0. -1.
         11    1    3    3    0    0  0.10843614110E+01 -0.81555448223E+00  0.75578119386E+00  0.15531175929E+01  0.51100000000E-03 0. -1.
        -11    1    3    3    0    0  0.15037945533E+00 -0.38585663109E+00  0.58971142965E+00  0.72059638615E+00  0.51100000000E-03 0.  1.
        -12    1    3    3    0    0  0.15511122207E+02  0.16466801480E+02  0.37585953197E+02  0.43868603133E+02  0.00000000000E+00 0.  1.
</event>
<event>
 7    1  0.2438448E-008  0.4614232E+02  0.7816164E-02  0.1320468E+00
        -11   -1    0    0    0    0  0.00000000000E+00  0.00000000000E+00  0.45593999997E+02  0.45594000000E+02  0.51100000000E-03 0.  1.
         11   -1    0    0    0    0 -0.00000000000E+00 -0.00000000000E+00 -0.45593999997E+02  0.45594000000E+02  0.51100000000E-03 0. -1.
    9900012    2    1    2    0    0 -0.41528822263E+02  0.14320748629E+02 -0.99692798637E+01  0.46142318067E+02  0.10000002787E+02 0.  0.
         12    1    1    2    0    0  0.41528822263E+02 -0.14320748629E+02  0.99692798637E+01  0.45045681933E+02  0.00000000000E+00 0. -1.
         11    1    3    3    0    0 -0.34665040218E+02  0.94675375818E+01 -0.70836687018E+01  0.36626187950E+02  0.51100000000E-03 0.  1.
        -11    1    3    3    0    0 -0.49763009040E+01  0.28593715738E+01 -0.34732195716E+01  0.67084149348E+01  0.51100000000E-03 0. -1.
        -12    1    3    3    0    0 -0.18874811411E+01  0.19938394731E+01  0.58760840969E+00  0.28077151824E+01  0.00000000000E+00 0.  1.
</event>
<event>
 7    1  0.2438448E-008  0.4614232E+02  0.7816164E-02  0.1320468E+00
        -11   -1    0    0    0    0  0.00000000000E+00  0.00000000000E+00  0.45593999997E+02  0.45594000000E+02  0.51100000000E-03 0.  1.
         11   -1    0    0    0    0 -0.00000000000E+00 -0.00000000000E+00 -0.45593999997E+02  0.45594000000E+02  0.51100000000E-03 0. -1.
    9900012    2    1    2    0    0  0.87663713709E+01 -0.33579200188E+02  0.28717616060E+02  0.46142318471E+02  0.10000006470E+02 0.  0.
         12    1    1    2    0    0 -0.87663713709E+01  0.33579200188E+02 -0.28717616060E+02  0.45045681529E+02  0.00000000000E+00 0. -1.
         11    1    3    3    0    0 -0.83522047284E+00 -0.12780315089E+00  0.12168185201E+01  0.14814096178E+01  0.51100000000E-03 0. -1.
        -11    1    3    3    0    0  0.14818732679E+01 -0.12180152899E+02  0.76917375343E+01  0.14481536506E+02  0.51100000000E-03 0.  1.
         12    1    3    3    0    0  0.81197185758E+01 -0.21271244138E+02  0.19809060006E+02  0.30179372347E+02  0.00000000000E+00 0. -1.
</event>
<event>
 7    1  0.2438448E-008  0.4614232E+02  0.7816164E-02  0.1320468E+00
        -11   -1    0    0    0    0  0.00000000000E+00  0.00000000000E+00  0.45593999997E+02  0.45594000000E+02  0.51100000000E-03 0. -1.
         11   -1    0    0    0    0 -0.00000000000E+00 -0.00000000000E+00 -0.45593999997E+02  0.45594000000E+02  0.51100000000E-03 0.  1.
    9900012    2    1    2    0    0 -0.38746169819E+02  0.13682930905E+00 -0.22974532261E+02  0.46142317293E+02  0.99999957325E+01 0.  0.
         12    1    1    2    0    0  0.38746169819E+02 -0.13682930905E+00  0.22974532261E+02  0.45045682707E+02  0.00000000000E+00 0. -1.
         11    1    3    3    0    0 -0.77102152013E+01  0.34181377668E+01 -0.73562184710E+01  0.11191292807E+02  0.51100000000E-03 0. -1.
        -11    1    3    3    0    0 -0.23231215570E+02 -0.32678116277E+01 -0.11913869330E+02  0.26311751222E+02  0.51100000000E-03 0.  1.
         12    1    3    3    0    0 -0.78047390484E+01 -0.13496830050E-01 -0.37044444592E+01  0.86392732640E+01  0.00000000000E+00 0. -1.
</event>
<event>
 7    1  0.2438448E-008  0.4614232E+02  0.7816164E-02  0.1320468E+00
        -11   -1    0    0    0    0  0.00000000000E+00  0.00000000000E+00  0.45593999997E+02  0.45594000000E+02  0.51100000000E-03 0. -1.
         11   -1    0    0    0    0 -0.00000000000E+00 -0.00000000000E+00 -0.45593999997E+02  0.45594000000E+02  0.51100000000E-03 0.  1.
    9900012    2    1    2    0    0 -0.66280351209E+01 -0.44547670987E+02 -0.82925240257E+00  0.46142317638E+02  0.99999988782E+01 0.  0.
         12    1    1    2    0    0  0.66280351209E+01  0.44547670987E+02  0.82925240257E+00  0.45045682362E+02  0.00000000000E+00 0. -1.
         11    1    3    3    0    0 -0.12504092662E+01 -0.11416319496E+02  0.20161358384E+00  0.11486362456E+02  0.51100000000E-03 0.  1.
        -11    1    3    3    0    0 -0.52679174295E+01 -0.33061293270E+02 -0.21329316072E+01  0.33546228763E+02  0.51100000000E-03 0. -1.
         12    1    3    3    0    0 -0.10970842522E+00 -0.70058220739E-01  0.11020656208E+01  0.11097264192E+01  0.00000000000E+00 0. -1.
</event>
<event>
 7    1  0.2438448E-008  0.4614232E+02  0.7816164E-02  0.1320468E+00
        -11   -1    0    0    0    0  0.00000000000E+00  0.00000000000E+00  0.45593999997E+02  0.45594000000E+02  0.51100000000E-03 0. -1.
         11   -1    0    0    0    0 -0.00000000000E+00 -0.00000000000E+00 -0.45593999997E+02  0.45594000000E+02  0.51100000000E-03 0.  1.
    9900012    2    1    2    0    0  0.22368037182E+02 -0.25674141364E+02 -0.29489366886E+02  0.46142318947E+02  0.10000010817E+02 0.  0.
         12    1    1    2    0    0 -0.22368037182E+02  0.25674141364E+02  0.29489366886E+02  0.45045681053E+02  0.00000000000E+00 0. -1.
         11    1    3    3    0    0  0.45895164801E+01 -0.53207103057E+01 -0.11870307644E+02  0.13794122789E+02  0.51100000000E-03 0. -1.
        -11    1    3    3    0    0  0.70986114722E+01 -0.64342661189E+01 -0.59649308837E+01  0.11285852472E+02  0.51100000000E-03 0.  1.
         12    1    3    3    0    0  0.10679909230E+02 -0.13919164939E+02 -0.11654128358E+02  0.21062343686E+02  0.00000000000E+00 0. -1.
</event>
<event>
 7    1  0.2438448E-008  0.4614232E+02  0.7816164E-02  0.1320468E+00
        -11   -1    0    0    0    0  0.00000000000E+00  0.00000000000E+00  0.45593999997E+02  0.45594000000E+02  0.51100000000E-03 0. -1.
         11   -1    0    0    0    0 -0.00000000000E+00 -0.00000000000E+00 -0.45593999997E+02  0.45594000000E+02  0.51100000000E-03 0.  1.
    9900012    2    1    2    0    0 -0.94702810287E+00  0.27266877456E+02 -0.35843186469E+02  0.46142317802E+02  0.10000000373E+02 0.  0.
         12    1    1    2    0    0  0.94702810287E+00 -0.27266877456E+02  0.35843186469E+02  0.45045682198E+02  0.00000000000E+00 0. -1.
         11    1    3    3    0    0  0.23304427865E+01  0.94252000323E+01 -0.15989062186E+02  0.18706027614E+02  0.51100000000E-03 0. -1.
        -11    1    3    3    0    0 -0.14545079126E+01  0.73865442568E+01 -0.12257396498E+02  0.14384727960E+02  0.51100000000E-03 0.  1.
         12    1    3    3    0    0 -0.18229629768E+01  0.10455133167E+02 -0.75967277847E+01  0.13051562228E+02  0.00000000000E+00 0. -1.
</event>
<event>
 7    1  0.2438448E-008  0.4614232E+02  0.7816164E-02  0.1320468E+00
        -11   -1    0    0    0    0  0.00000000000E+00  0.00000000000E+00  0.45593999997E+02  0.45594000000E+02  0.51100000000E-03 0. -1.
         11   -1    0    0    0    0 -0.00000000000E+00 -0.00000000000E+00 -0.45593999997E+02  0.45594000000E+02  0.51100000000E-03 0.  1.
    9900012    2    1    2    0    0  0.32584894178E+02 -0.30079335163E+02  0.79102236688E+01  0.46142319064E+02  0.10000011881E+02 0.  0.
         12    1    1    2    0    0 -0.32584894178E+02  0.30079335163E+02 -0.79102236688E+01  0.45045680936E+02  0.00000000000E+00 0. -1.
         11    1    3    3    0    0  0.15296920964E+00  0.72599657071E-02  0.46250056257E+00  0.48719535886E+00  0.51100000000E-03 0. -1.
        -11    1    3    3    0    0  0.27908054460E+02 -0.21231091576E+02  0.65300642310E+01  0.35668760735E+02  0.51100000000E-03 0.  1.
         12    1    3    3    0    0  0.45238705089E+01 -0.88555035531E+01  0.91765887520E+00  0.99863629701E+01  0.00000000000E+00 0. -1.
</event>
<event>
 7    1  0.2438448E-008  0.4614232E+02  0.7816164E-02  0.1320468E+00
        -11   -1    0    0    0    0  0.00000000000E+00  0.00000000000E+00  0.45593999997E+02  0.45594000000E+02  0.51100000000E-03 0.  1.
         11   -1    0    0    0    0 -0.00000000000E+00 -0.00000000000E+00 -0.45593999997E+02  0.45594000000E+02  0.51100000000E-03 0. -1.
    9900012    2    1    2    0    0 -0.62564354612E+01 -0.13541588972E+02  0.42504068518E+02  0.46142318108E+02  0.10000003160E+02 0.  0.
         12    1    1    2    0    0  0.62564354612E+01  0.13541588972E+02 -0.42504068518E+02  0.45045681892E+02  0.00000000000E+00 0. -1.
         11    1    3    3    0    0  0.17215360959E+01 -0.24780269000E+01  0.50878382337E+01  0.59152685484E+01  0.51100000000E-03 0. -1.
        -11    1    3    3    0    0 -0.82066927553E+00 -0.28905269156E+01  0.15231731947E+02  0.15525279459E+02  0.51100000000E-03 0.  1.
        -12    1    3    3    0    0 -0.71573022816E+01 -0.81730351561E+01  0.22184498337E+02  0.24701770100E+02  0.00000000000E+00 0.  1.
</event>
<event>
 7    1  0.2438448E-008  0.4614232E+02  0.7816164E-02  0.1320468E+00
        -11   -1    0    0    0    0  0.00000000000E+00  0.00000000000E+00  0.45593999997E+02  0.45594000000E+02  0.51100000000E-03 0.  1.
         11   -1    0    0    0    0 -0.00000000000E+00 -0.00000000000E+00 -0.45593999997E+02  0.45594000000E+02  0.51100000000E-03 0. -1.
    9900012    2    1    2    0    0  0.36525078116E+02 -0.22604231486E+02  0.13567642229E+02  0.46142317320E+02  0.99999959813E+01 0.  0.
         12    1    1    2    0    0 -0.36525078116E+02  0.22604231486E+02 -0.13567642229E+02  0.45045682680E+02  0.00000000000E+00 0. -1.
         11    1    3    3    0    0  0.11206292944E+01 -0.18703893365E+01  0.87106583162E+00  0.23479612922E+01  0.51100000000E-03 0. -1.
        -11    1    3    3    0    0  0.28596242100E+01 -0.44895960713E+01  0.17518317804E+00  0.53258438686E+01  0.51100000000E-03 0.  1.
        -12    1    3    3    0    0  0.32544824611E+02 -0.16244246078E+02  0.12521393219E+02  0.38468512160E+02  0.00000000000E+00 0.  1.
</event>
<event>
 7    1  0.2438448E-008  0.4614232E+02  0.7816164E-02  0.1320468E+00
        -11   -1    0    0    0    0  0.00000000000E+00  0.00000000000E+00  0.45593999997E+02  0.45594000000E+02  0.51100000000E-03 0.  1.
         11   -1    0    0    0    0 -0.00000000000E+00 -0.00000000000E+00 -0.45593999997E+02  0.45594000000E+02  0.51100000000E-03 0. -1.
    9900012    2    1    2    0    0 -0.35195298921E+02  0.25901020179E+01  0.27994565501E+02  0.46142318829E+02  0.10000009734E+02 0.  0.
         12    1    1    2    0    0  0.35195298921E+02 -0.25901020179E+01 -0.27994565501E+02  0.45045681171E+02  0.00000000000E+00 0. -1.
         11    1    3    3    0    0 -0.10412437366E+02  0.19985377456E+01  0.13394743777E+02  0.17083095918E+02  0.51100000000E-03 0. -1.
        -11    1    3    3    0    0 -0.76275269454E+00 -0.68504251235E+00  0.26948449804E+00  0.10600457880E+01  0.51100000000E-03 0.  1.
        -12    1    3    3    0    0 -0.24020108860E+02  0.12766067846E+01  0.14330337226E+02  0.27999177123E+02  0.00000000000E+00 0.  1.
</event>
<event>
 7    1  0.2438448E-008  0.4614232E+02  0.7816164E-02  0.1320468E+00
        -11   -1    0    0    0    0  0.00000000000E+00  0.00000000000E+00  0.45593999997E+02  0.45594000000E+02  0.51100000000E-03 0.  1.
         11   -1    0    0    0    0 -0.00000000000E+00 -0.00000000000E+00 -0.45593999997E+02  0.45594000000E+02  0.51100000000E-03 0. -1.
    9900012    2    1    2    0    0 -0.23759871934E+01  0.23878224102E+02  0.38122153991E+02  0.46142317340E+02  0.99999961579E+01 0.  0.
         12    1    1    2    0    0  0.23759871934E+01 -0.23878224102E+02 -0.38122153991E+02  0.45045682660E+02  0.00000000000E+00 0. -1.
         11    1    3    3    0    0 -0.13213349884E+00 -0.39527947149E+00  0.21149195780E+01  0.21555950929E+01  0.51100000000E-03 0. -1.
        -11    1    3    3    0    0 -0.29226890635E+01  0.10889442409E+02  0.21227015810E+02  0.24035562564E+02  0.51100000000E-03 0.  1.
         12    1    3    3    0    0  0.67883536895E+00  0.13384061164E+02  0.14780218603E+02  0.19951159682E+02  0.00000000000E+00 0. -1.
</event>
<event>
 7    1  0.2438448E-008  0.4614232E+02  0.7816164E-02  0.1320468E+00
        -11   -1    0    0    0    0  0.00000000000E+00  0.00000000000E+00  0.45593999997E+02  0.45594000000E+02  0.51100000000E-03 0. -1.
         11   -1    0    0    0    0 -0.00000000000E+00 -0.00000000000E+00 -0.45593999997E+02  0.45594000000E+02  0.51100000000E-03 0.  1.
    9900012    2    1    2    0    0  0.36182899566E+02 -0.10496689001E+02 -0.24692728196E+02  0.46142317335E+02  0.99999961118E+01 0.  0.
         12    1    1    2    0    0 -0.36182899566E+02  0.10496689001E+02  0.24692728196E+02  0.45045682665E+02  0.00000000000E+00 0. -1.
         11    1    3    3    0    0  0.40144417493E+01 -0.11516766124E+01 -0.64975032559E+01  0.77239659761E+01  0.51100000000E-03 0. -1.
        -11    1    3    3    0    0  0.22113893307E+02 -0.80805881351E+01 -0.14392212996E+02  0.27594491788E+02  0.51100000000E-03 0.  1.
         12    1    3    3    0    0  0.10054564509E+02 -0.12644242538E+01 -0.38030119441E+01  0.10823859571E+02  0.00000000000E+00 0. -1.
</event>
<event>
 7    1  0.2438448E-008  0.4614232E+02  0.7816164E-02  0.1320468E+00
        -11   -1    0    0    0    0  0.00000000000E+00  0.00000000000E+00  0.45593999997E+02  0.45594000000E+02  0.51100000000E-03 0. -1.
         11   -1    0    0    0    0 -0.00000000000E+00 -0.00000000000E+00 -0.45593999997E+02  0.45594000000E+02  0.51100000000E-03 0.  1.
    9900012    2    1    2    0    0 -0.14224543982E+02  0.34811475208E+02 -0.24797923780E+02  0.46142317838E+02  0.10000000702E+02 0.  0.
         12    1    1    2    0    0  0.14224543982E+02 -0.34811475208E+02  0.24797923780E+02  0.45045682162E+02  0.00000000000E+00 0. -1.
         11    1    3    3    0    0 -0.37597809406E+01  0.28603383994E+01 -0.33509064152E+01  0.57918962823E+01  0.51100000000E-03 0. -1.
        -11    1    3    3    0    0 -0.30728720943E+01  0.16119183215E+02 -0.77418323215E+01  0.18144050771E+02  0.51100000000E-03 0.  1.
        -12    1    3    3    0    0 -0.73918909467E+01  0.15831953593E+02 -0.13705185044E+02  0.22206370785E+02  0.00000000000E+00 0.  1.
</event>
<event>
 7    1  0.2438448E-008  0.4614231E+02  0.7816164E-02  0.1320468E+00
        -11   -1    0    0    0    0  0.00000000000E+00  0.00000000000E+00  0.45593999997E+02  0.45594000000E+02  0.51100000000E-03 0.  1.
         11   -1    0    0    0    0 -0.00000000000E+00 -0.00000000000E+00 -0.45593999997E+02  0.45594000000E+02  0.51100000000E-03 0. -1.
    9900012    2    1    2    0    0 -0.38709369570E+02 -0.21131031051E+02 -0.91748555418E+01  0.46142314968E+02  0.99999745289E+01 0.  0.
         12    1    1    2    0    0  0.38709369570E+02  0.21131031051E+02  0.91748555418E+01  0.45045685032E+02  0.00000000000E+00 0. -1.
         11    1    3    3    0    0 -0.19076037405E+02 -0.12529059191E+02 -0.53969056799E+01  0.23452060004E+02  0.51100000000E-03 0.  1.
        -11    1    3    3    0    0 -0.10050240510E+02 -0.78548013959E+01 -0.18995086625E+01  0.12896254212E+02  0.51100000000E-03 0. -1.
         12    1    3    3    0    0 -0.95830916557E+01 -0.74717046430E+00 -0.18784411994E+01  0.97940007517E+01  0.00000000000E+00 0. -1.
</event>
<event>
 7    1  0.2438448E-008  0.4614232E+02  0.7816164E-02  0.1320468E+00
        -11   -1    0    0    0    0  0.00000000000E+00  0.00000000000E+00  0.45593999997E+02  0.45594000000E+02  0.51100000000E-03 0. -1.
         11   -1    0    0    0    0 -0.00000000000E+00 -0.00000000000E+00 -0.45593999997E+02  0.45594000000E+02  0.51100000000E-03 0.  1.
    9900012    2    1    2    0    0  0.20650985228E+01 -0.91959351514E+00 -0.44988923033E+02  0.46142317856E+02  0.10000000863E+02 0.  0.
         12    1    1    2    0    0 -0.20650985228E+01  0.91959351514E+00  0.44988923033E+02  0.45045682144E+02  0.00000000000E+00 0. -1.
         11    1    3    3    0    0 -0.11052322913E+01 -0.23984360700E+01 -0.35871530668E+01  0.44544024723E+01  0.51100000000E-03 0. -1.
        -11    1    3    3    0    0  0.15166468223E+01  0.46247388005E+00 -0.33965467656E+02  0.34002457161E+02  0.51100000000E-03 0.  1.
        -12    1    3    3    0    0  0.16536839918E+01  0.10163686748E+01 -0.74363023106E+01  0.76854582220E+01  0.00000000000E+00 0.  1.
</event>
<event>
 7    1  0.2438448E-008  0.4614232E+02  0.7816164E-02  0.1320468E+00
        -11   -1    0    0    0    0  0.00000000000E+00  0.00000000000E+00  0.45593999997E+02  0.45594000000E+02  0.51100000000E-03 0. -1.
         11   -1    0    0    0    0 -0.00000000000E+00 -0.00000000000E+00 -0.45593999997E+02  0.45594000000E+02  0.51100000000E-03 0.  1.
    9900012    2    1    2    0    0 -0.80215969778E+01 -0.43652913814E+02 -0.76935445387E+01  0.46142317298E+02  0.99999957781E+01 0.  0.
         12    1    1    2    0    0  0.80215969778E+01  0.43652913814E+02  0.76935445387E+01  0.45045682702E+02  0.00000000000E+00 0. -1.
         11    1    3    3    0    0 -0.56137662243E+01 -0.32622896848E+02 -0.43518043337E+01  0.33387212690E+02  0.51100000000E-03 0. -1.
        -11    1    3    3    0    0 -0.16041883690E+01 -0.11334614020E+02 -0.31741931455E+01  0.11879494841E+02  0.51100000000E-03 0.  1.
         12    1    3    3    0    0 -0.80364238452E+00  0.30459705365E+00 -0.16754705946E+00  0.87560976720E+00  0.00000000000E+00 0. -1.
</event>
<event>
 7    1  0.2438448E-008  0.4614232E+02  0.7816164E-02  0.1320468E+00
        -11   -1    0    0    0    0  0.00000000000E+00  0.00000000000E+00  0.45593999997E+02  0.45594000000E+02  0.51100000000E-03 0.  1.
         11   -1    0    0    0    0 -0.00000000000E+00 -0.00000000000E+00 -0.45593999997E+02  0.45594000000E+02  0.51100000000E-03 0. -1.
    9900012    2    1    2    0    0  0.38719235435E+02  0.97146250184E+01  0.20870069905E+02  0.46142323740E+02  0.10000054521E+02 0.  0.
         12    1    1    2    0    0 -0.38719235435E+02 -0.97146250184E+01 -0.20870069905E+02  0.45045676260E+02  0.00000000000E+00 0. -1.
         11    1    3    3    0    0  0.81982923386E+01  0.46564878788E+01  0.71116338291E+01  0.11809750743E+02  0.51100000000E-03 0. -1.
        -11    1    3    3    0    0  0.16611566442E+02  0.51049830199E+01  0.93920776330E+01  0.19753888574E+02  0.51100000000E-03 0.  1.
        -12    1    3    3    0    0  0.13909376654E+02 -0.46845880295E-01  0.43663584424E+01  0.14578684423E+02  0.00000000000E+00 0.  1.
</event>
<event>
 7    1  0.2438448E-008  0.4614232E+02  0.7816164E-02  0.1320468E+00
        -11   -1    0    0    0    0  0.00000000000E+00  0.00000000000E+00  0.45593999997E+02  0.45594000000E+02  0.51100000000E-03 0.  1.
         11   -1    0    0    0    0 -0.00000000000E+00 -0.00000000000E+00 -0.45593999997E+02  0.45594000000E+02  0.51100000000E-03 0. -1.
    9900012    2    1    2    0    0 -0.14265534592E+02  0.35492468057E+02  0.23788499796E+02  0.46142317759E+02  0.99999999852E+01 0.  0.
         12    1    1    2    0    0  0.14265534592E+02 -0.35492468057E+02 -0.23788499796E+02  0.45045682241E+02  0.00000000000E+00 0. -1.
         11    1    3    3    0    0 -0.69816395911E+01  0.12202631065E+02  0.63966620476E+01  0.15445542461E+02  0.51100000000E-03 0. -1.
        -11    1    3    3    0    0 -0.32505860792E+01  0.10174195689E+02  0.36767648687E+01  0.11295980168E+02  0.51100000000E-03 0.  1.
         12    1    3    3    0    0 -0.40333089219E+01  0.13115641302E+02  0.13715072880E+02  0.19400795131E+02  0.00000000000E+00 0. -1.
</event>
<event>
 7    1  0.2438448E-008  0.4614232E+02  0.7816164E-02  0.1320468E+00
        -11   -1    0    0    0    0  0.00000000000E+00  0.00000000000E+00  0.45593999997E+02  0.45594000000E+02  0.51100000000E-03 0.  1.
         11   -1    0    0    0    0 -0.00000000000E+00 -0.00000000000E+00 -0.45593999997E+02  0.45594000000E+02  0.51100000000E-03 0. -1.
    9900012    2    1    2    0    0 -0.33256963004E+02  0.29877692293E+02  0.55146533806E+01  0.46142317777E+02  0.10000000146E+02 0.  0.
         12    1    1    2    0    0  0.33256963004E+02 -0.29877692293E+02 -0.55146533806E+01  0.45045682223E+02  0.00000000000E+00 0. -1.
         11    1    3    3    0    0 -0.26133835328E+01  0.44871585533E+01 -0.62834621308E+00  0.52306007873E+01  0.51100000000E-03 0. -1.
        -11    1    3    3    0    0 -0.48315636115E+01  0.27390563580E+01  0.32817420501E+01  0.64510671837E+01  0.51100000000E-03 0.  1.
         12    1    3    3    0    0 -0.25812015860E+02  0.22651477382E+02  0.28612575436E+01  0.34460649806E+02  0.00000000000E+00 0. -1.
</event>
<event>
 7    1  0.2438448E-008  0.4614232E+02  0.7816164E-02  0.1320468E+00
        -11   -1    0    0    0    0  0.00000000000E+00  0.00000000000E+00  0.45593999997E+02  0.45594000000E+02  0.51100000000E-03 0.  1.
         11   -1    0    0    0    0 -0.00000000000E+00 -0.00000000000E+00 -0.45593999997E+02  0.45594000000E+02  0.51100000000E-03 0. -1.
    9900012    2    1    2    0    0 -0.24744890479E+02 -0.35074307053E+02  0.13660044721E+02  0.46142318277E+02  0.10000004707E+02 0.  0.
         12    1    1    2    0    0  0.24744890479E+02  0.35074307053E+02 -0.13660044721E+02  0.45045681723E+02  0.00000000000E+00 0. -1.
         11    1    3    3    0    0  0.22000732910E+00 -0.17700931216E+01  0.19095388930E+01  0.26130388303E+01  0.51100000000E-03 0. -1.
        -11    1    3    3    0    0 -0.19464583468E+01 -0.34157264807E+01  0.25907032258E+01  0.47082513689E+01  0.51100000000E-03 0.  1.
         12    1    3    3    0    0 -0.23018439461E+02 -0.29888487451E+02  0.91598026027E+01  0.38821028078E+02  0.00000000000E+00 0. -1.
</event>
<event>
 7    1  0.2438448E-008  0.4614232E+02  0.7816164E-02  0.1320468E+00
        -11   -1    0    0    0    0  0.00000000000E+00  0.00000000000E+00  0.45593999997E+02  0.45594000000E+02  0.51100000000E-03 0.  1.
         11   -1    0    0    0    0 -0.00000000000E+00 -0.00000000000E+00 -0.45593999997E+02  0.45594000000E+02  0.51100000000E-03 0. -1.
    9900012    2    1    2    0    0  0.98049122503E+01 -0.30964959348E+02  0.31211350649E+02  0.46142318509E+02  0.10000006820E+02 0.  0.
         12    1    1    2    0    0 -0.98049122503E+01  0.30964959348E+02 -0.31211350649E+02  0.45045681491E+02  0.00000000000E+00 0. -1.
         11    1    3    3    0    0  0.11601177873E+01 -0.70966889831E+00  0.19443592880E+01  0.23727698008E+01  0.51100000000E-03 0. -1.
        -11    1    3    3    0    0  0.65936185477E+01 -0.22337265707E+02  0.16260024157E+02  0.28404535389E+02  0.51100000000E-03 0.  1.
        -12    1    3    3    0    0  0.20511759153E+01 -0.79180247432E+01  0.13006967203E+02  0.15365013319E+02  0.00000000000E+00 0.  1.
</event>
<event>
 7    1  0.2438448E-008  0.4614232E+02  0.7816164E-02  0.1320468E+00
        -11   -1    0    0    0    0  0.00000000000E+00  0.00000000000E+00  0.45593999997E+02  0.45594000000E+02  0.51100000000E-03 0.  1.
         11   -1    0    0    0    0 -0.00000000000E+00 -0.00000000000E+00 -0.45593999997E+02  0.45594000000E+02  0.51100000000E-03 0. -1.
    9900012    2    1    2    0    0  0.33935851369E+02 -0.22786121477E+02  0.18927867899E+02  0.46142317374E+02  0.99999964664E+01 0.  0.
         12    1    1    2    0    0 -0.33935851369E+02  0.22786121477E+02 -0.18927867899E+02  0.45045682626E+02  0.00000000000E+00 0. -1.
         11    1    3    3    0    0  0.75084728012E+01 -0.25386761059E+01  0.24895705797E+01  0.83078277612E+01  0.51100000000E-03 0. -1.
        -11    1    3    3    0    0  0.70842004214E+01 -0.81793889665E+01  0.24779206163E+01  0.11100828362E+02  0.51100000000E-03 0.  1.
         12    1    3    3    0    0  0.19343178146E+02 -0.12068056404E+02  0.13960376703E+02  0.26733661251E+02  0.00000000000E+00 0. -1.
</event>
<event>
 7    1  0.2438448E-008  0.4614232E+02  0.7816164E-02  0.1320468E+00
        -11   -1    0    0    0    0  0.00000000000E+00  0.00000000000E+00  0.45593999997E+02  0.45594000000E+02  0.51100000000E-03 0.  1.
         11   -1    0    0    0    0 -0.00000000000E+00 -0.00000000000E+00 -0.45593999997E+02  0.45594000000E+02  0.51100000000E-03 0. -1.
    9900012    2    1    2    0    0 -0.27034243341E+02  0.27692546018E+02  0.23051813306E+02  0.46142317469E+02  0.99999973351E+01 0.  0.
         12    1    1    2    0    0  0.27034243341E+02 -0.27692546018E+02 -0.23051813306E+02  0.45045682531E+02  0.00000000000E+00 0. -1.
         11    1    3    3    0    0 -0.18128174921E+02  0.14797202154E+02  0.15000660493E+02  0.27795822222E+02  0.51100000000E-03 0.  1.
        -11    1    3    3    0    0 -0.21316056753E+01  0.38360302535E+01  0.49535871145E+01  0.66179223645E+01  0.51100000000E-03 0. -1.
        -12    1    3    3    0    0 -0.67744627452E+01  0.90593136110E+01  0.30975656983E+01  0.11728572882E+02  0.00000000000E+00 0.  1.
</event>
<event>
 7    1  0.2438448E-008  0.4614232E+02  0.7816164E-02  0.1320468E+00
        -11   -1    0    0    0    0  0.00000000000E+00  0.00000000000E+00  0.45593999997E+02  0.45594000000E+02  0.51100000000E-03 0.  1.
         11   -1    0    0    0    0 -0.00000000000E+00 -0.00000000000E+00 -0.45593999997E+02  0.45594000000E+02  0.51100000000E-03 0. -1.
    9900012    2    1    2    0    0 -0.24917422526E+02  0.66233601534E+00  0.37520620786E+02  0.46142316317E+02  0.99999868323E+01 0.  0.
         12    1    1    2    0    0  0.24917422526E+02 -0.66233601534E+00 -0.37520620786E+02  0.45045683683E+02  0.00000000000E+00 0. -1.
         11    1    3    3    0    0 -0.14077469581E+02  0.31316941312E+01  0.22536833625E+02  0.26756149350E+02  0.51100000000E-03 0. -1.
        -11    1    3    3    0    0 -0.10837076966E+02 -0.14386908326E+01  0.12017862953E+02  0.16246264146E+02  0.51100000000E-03 0.  1.
         12    1    3    3    0    0 -0.28759783389E-02 -0.10306672832E+01  0.29659242079E+01  0.31399028212E+01  0.00000000000E+00 0. -1.
</event>
<event>
 7    1  0.2438448E-008  0.4614232E+02  0.7816164E-02  0.1320468E+00
        -11   -1    0    0    0    0  0.00000000000E+00  0.00000000000E+00  0.45593999997E+02  0.45594000000E+02  0.51100000000E-03 0. -1.
         11   -1    0    0    0    0 -0.00000000000E+00 -0.00000000000E+00 -0.45593999997E+02  0.45594000000E+02  0.51100000000E-03 0.  1.
    9900012    2    1    2    0    0 -0.16567503622E+02  0.41679473806E+02 -0.41776521956E+01  0.46142317733E+02  0.99999997420E+01 0.  0.
         12    1    1    2    0    0  0.16567503622E+02 -0.41679473806E+02  0.41776521956E+01  0.45045682267E+02  0.00000000000E+00 0. -1.
         11    1    3    3    0    0 -0.14862070721E+02  0.29396068143E+02 -0.16888592966E+01  0.32982756318E+02  0.51100000000E-03 0. -1.
        -11    1    3    3    0    0 -0.25951387781E+01  0.11025313661E+02 -0.17883397255E+01  0.11466928352E+02  0.51100000000E-03 0.  1.
         12    1    3    3    0    0  0.88970587712E+00  0.12580920029E+01 -0.70045317351E+00  0.16926330624E+01  0.00000000000E+00 0. -1.
</event>
<event>
 7    1  0.2438448E-008  0.4614232E+02  0.7816164E-02  0.1320468E+00
        -11   -1    0    0    0    0  0.00000000000E+00  0.00000000000E+00  0.45593999997E+02  0.45594000000E+02  0.51100000000E-03 0.  1.
         11   -1    0    0    0    0 -0.00000000000E+00 -0.00000000000E+00 -0.45593999997E+02  0.45594000000E+02  0.51100000000E-03 0. -1.
    9900012    2    1    2    0    0  0.21123820206E+02 -0.47444334491E+01  0.39501746316E+02  0.46142318844E+02  0.10000009871E+02 0.  0.
         12    1    1    2    0    0 -0.21123820206E+02  0.47444334491E+01 -0.39501746316E+02  0.45045681156E+02  0.00000000000E+00 0. -1.
         11    1    3    3    0    0  0.14195618051E+01 -0.83785581038E+00  0.99115860754E+01  0.10047720979E+02  0.51100000000E-03 0. -1.
        -11    1    3    3    0    0  0.11161355618E+02 -0.30508192938E+01  0.12923310916E+02  0.17346334567E+02  0.51100000000E-03 0.  1.
        -12    1    3    3    0    0  0.85429027826E+01 -0.85575834495E+00  0.16666849324E+02  0.18748263298E+02  0.00000000000E+00 0.  1.
</event>
<event>
 7    1  0.2438448E-008  0.4614232E+02  0.7816164E-02  0.1320468E+00
        -11   -1    0    0    0    0  0.00000000000E+00  0.00000000000E+00  0.45593999997E+02  0.45594000000E+02  0.51100000000E-03 0.  1.
         11   -1    0    0    0    0 -0.00000000000E+00 -0.00000000000E+00 -0.45593999997E+02  0.45594000000E+02  0.51100000000E-03 0. -1.
    9900012    2    1    2    0    0 -0.29685555171E+02  0.28352973369E+02 -0.18546973819E+02  0.46142317382E+02  0.99999965467E+01 0.  0.
         12    1    1    2    0    0  0.29685555171E+02 -0.28352973369E+02  0.18546973819E+02  0.45045682618E+02  0.00000000000E+00 0. -1.
         11    1    3    3    0    0 -0.21888597323E+00  0.13661665612E+01 -0.11262614868E+00  0.13881667957E+01  0.51100000000E-03 0. -1.
        -11    1    3    3    0    0  0.16008788443E+00  0.17472188450E+01 -0.15043921163E+01  0.23111896771E+01  0.51100000000E-03 0.  1.
        -12    1    3    3    0    0 -0.29626757082E+02  0.25239587963E+02 -0.16929955554E+02  0.42442960910E+02  0.00000000000E+00 0.  1.
</event>
<event>
 7    1  0.2438448E-008  0.4614232E+02  0.7816164E-02  0.1320468E+00
        -11   -1    0    0    0    0  0.00000000000E+00  0.00000000000E+00  0.45593999997E+02  0.45594000000E+02  0.51100000000E-03 0.  1.
         11   -1    0    0    0    0 -0.00000000000E+00 -0.00000000000E+00 -0.45593999997E+02  0.45594000000E+02  0.51100000000E-03 0. -1.
    9900012    2    1    2    0    0 -0.93419376085E+00  0.10815555508E+02  0.43718011396E+02  0.46142317861E+02  0.10000000911E+02 0.  0.
         12    1    1    2    0    0  0.93419376085E+00 -0.10815555508E+02 -0.43718011396E+02  0.45045682139E+02  0.00000000000E+00 0. -1.
         11    1    3    3    0    0 -0.19819897543E+01  0.34206626920E+01  0.43393615996E+01  0.58702023808E+01  0.51100000000E-03 0. -1.
        -11    1    3    3    0    0 -0.85523618094E-02  0.39543216969E+01  0.29390246994E+02  0.29655072954E+02  0.51100000000E-03 0.  1.
         12    1    3    3    0    0  0.10563483553E+01  0.34405711193E+01  0.99884028021E+01  0.10617042527E+02  0.00000000000E+00 0. -1.
</event>
<event>
 7    1  0.2438448E-008  0.4614232E+02  0.7816164E-02  0.1320468E+00
        -11   -1    0    0    0    0  0.00000000000E+00  0.00000000000E+00  0.45593999997E+02  0.45594000000E+02  0.51100000000E-03 0.  1.
         11   -1    0    0    0    0 -0.00000000000E+00 -0.00000000000E+00 -0.45593999997E+02  0.45594000000E+02  0.51100000000E-03 0. -1.
    9900012    2    1    2    0    0  0.36993361123E+02 -0.23950078866E+02  0.93272958515E+01  0.46142317712E+02  0.99999995528E+01 0.  0.
         12    1    1    2    0    0 -0.36993361123E+02  0.23950078866E+02 -0.93272958515E+01  0.45045682288E+02  0.00000000000E+00 0. -1.
         11    1    3    3    0    0 -0.80518538724E-01 -0.46501124666E+00  0.30392926058E+00  0.56133051864E+00  0.51100000000E-03 0. -1.
        -11    1    3    3    0    0  0.78282160110E+01 -0.73693823101E+01  0.52862609274E+01  0.11980539070E+02  0.51100000000E-03 0.  1.
         12    1    3    3    0    0  0.29245663651E+02 -0.16115685309E+02  0.37371056636E+01  0.33600448124E+02  0.00000000000E+00 0. -1.
</event>
<event>
 7    1  0.2438448E-008  0.4614232E+02  0.7816164E-02  0.1320468E+00
        -11   -1    0    0    0    0  0.00000000000E+00  0.00000000000E+00  0.45593999997E+02  0.45594000000E+02  0.51100000000E-03 0. -1.
         11   -1    0    0    0    0 -0.00000000000E+00 -0.00000000000E+00 -0.45593999997E+02  0.45594000000E+02  0.51100000000E-03 0.  1.
    9900012    2    1    2    0    0 -0.22699295843E+02 -0.22200265184E+02 -0.31953142823E+02  0.46142321603E+02  0.10000035031E+02 0.  0.
         12    1    1    2    0    0  0.22699295843E+02  0.22200265184E+02  0.31953142823E+02  0.45045678397E+02  0.00000000000E+00 0. -1.
         11    1    3    3    0    0 -0.44791142091E+00 -0.12400365718E+01 -0.76932770618E+00  0.15264929482E+01  0.51100000000E-03 0. -1.
        -11    1    3    3    0    0 -0.19427753857E+02 -0.20779260057E+02 -0.25227332454E+02  0.38021488286E+02  0.51100000000E-03 0.  1.
        -12    1    3    3    0    0 -0.28236305646E+01 -0.18096855464E+00 -0.59564826630E+01  0.65943403686E+01  0.00000000000E+00 0.  1.
</event>
<event>
 7    1  0.2438448E-008  0.4614232E+02  0.7816164E-02  0.1320468E+00
        -11   -1    0    0    0    0  0.00000000000E+00  0.00000000000E+00  0.45593999997E+02  0.45594000000E+02  0.51100000000E-03 0.  1.
         11   -1    0    0    0    0 -0.00000000000E+00 -0.00000000000E+00 -0.45593999997E+02  0.45594000000E+02  0.51100000000E-03 0. -1.
    9900012    2    1    2    0    0  0.32933997614E+01  0.43248263387E+02  0.12159555534E+02  0.46142316979E+02  0.99999928696E+01 0.  0.
         12    1    1    2    0    0 -0.32933997614E+01 -0.43248263387E+02 -0.12159555534E+02  0.45045683021E+02  0.00000000000E+00 0. -1.
         11    1    3    3    0    0 -0.12064309334E+01  0.72763548850E+01  0.18997760860E+00  0.73781371471E+01  0.51100000000E-03 0. -1.
        -11    1    3    3    0    0 -0.13550505893E+01  0.12735342953E+02  0.55375572244E+01  0.13953123755E+02  0.51100000000E-03 0.  1.
        -12    1    3    3    0    0  0.58548812841E+01  0.23236565549E+02  0.64320207013E+01  0.24811056077E+02  0.00000000000E+00 0.  1.
</event>
<event>
 7    1  0.2438448E-008  0.4614232E+02  0.7816164E-02  0.1320468E+00
        -11   -1    0    0    0    0  0.00000000000E+00  0.00000000000E+00  0.45593999997E+02  0.45594000000E+02  0.51100000000E-03 0.  1.
         11   -1    0    0    0    0 -0.00000000000E+00 -0.00000000000E+00 -0.45593999997E+02  0.45594000000E+02  0.51100000000E-03 0. -1.
    9900012    2    1    2    0    0 -0.12220456859E+02  0.17208962673E+02  0.39794793275E+02  0.46142317256E+02  0.99999953896E+01 0.  0.
         12    1    1    2    0    0  0.12220456859E+02 -0.17208962673E+02 -0.39794793275E+02  0.45045682744E+02  0.00000000000E+00 0. -1.
         11    1    3    3    0    0 -0.89005934090E+01  0.80974713106E+01  0.18531787608E+02  0.22095627551E+02  0.51100000000E-03 0. -1.
        -11    1    3    3    0    0 -0.48593091952E+01  0.60641290634E+01  0.15737256489E+02  0.17551290243E+02  0.51100000000E-03 0.  1.
        -12    1    3    3    0    0  0.15394457449E+01  0.30473622989E+01  0.55257491775E+01  0.64953994608E+01  0.00000000000E+00 0.  1.
</event>
<event>
 7    1  0.2438448E-008  0.4614231E+02  0.7816164E-02  0.1320468E+00
        -11   -1    0    0    0    0  0.00000000000E+00  0.00000000000E+00  0.45593999997E+02  0.45594000000E+02  0.51100000000E-03 0.  1.
         11   -1    0    0    0    0 -0.00000000000E+00 -0.00000000000E+00 -0.45593999997E+02  0.45594000000E+02  0.51100000000E-03 0. -1.
    9900012    2    1    2    0    0  0.23889414591E+02  0.25394884349E+02  0.28522092500E+02  0.46142311625E+02  0.99999440498E+01 0.  0.
         12    1    1    2    0    0 -0.23889414591E+02 -0.25394884349E+02 -0.28522092500E+02  0.45045688375E+02  0.00000000000E+00 0. -1.
         11    1    3    3    0    0  0.43203515011E+01  0.40026125223E+01  0.72041640756E+01  0.93051772893E+01  0.51100000000E-03 0. -1.
        -11    1    3    3    0    0  0.12844025585E+02  0.18641329139E+02  0.17604425325E+02  0.28677237255E+02  0.51100000000E-03 0.  1.
         12    1    3    3    0    0  0.67250375044E+01  0.27509426878E+01  0.37135030991E+01  0.81598970811E+01  0.00000000000E+00 0. -1.
</event>
<event>
 7    1  0.2438448E-008  0.4614232E+02  0.7816164E-02  0.1320468E+00
        -11   -1    0    0    0    0  0.00000000000E+00  0.00000000000E+00  0.45593999997E+02  0.45594000000E+02  0.51100000000E-03 0. -1.
         11   -1    0    0    0    0 -0.00000000000E+00 -0.00000000000E+00 -0.45593999997E+02  0.45594000000E+02  0.51100000000E-03 0.  1.
    9900012    2    1    2    0    0 -0.68030713334E+01  0.15251204919E+02 -0.41835779383E+02  0.46142317992E+02  0.10000002103E+02 0.  0.
         12    1    1    2    0    0  0.68030713334E+01 -0.15251204919E+02  0.41835779383E+02  0.45045682008E+02  0.00000000000E+00 0. -1.
         11    1    3    3    0    0 -0.13762062430E+01  0.80548785598E+00 -0.37974703316E+01  0.41186812804E+01  0.51100000000E-03 0. -1.
        -11    1    3    3    0    0 -0.98460877711E+00  0.12342716905E+02 -0.21951739542E+02  0.25202995541E+02  0.51100000000E-03 0.  1.
        -12    1    3    3    0    0 -0.44422563133E+01  0.21030001574E+01 -0.16086569509E+02  0.16820641171E+02  0.00000000000E+00 0.  1.
</event>
<event>
 7    1  0.2438448E-008  0.4614232E+02  0.7816164E-02  0.1320468E+00
        -11   -1    0    0    0    0  0.00000000000E+00  0.00000000000E+00  0.45593999997E+02  0.45594000000E+02  0.51100000000E-03 0. -1.
         11   -1    0    0    0    0 -0.00000000000E+00 -0.00000000000E+00 -0.45593999997E+02  0.45594000000E+02  0.51100000000E-03 0.  1.
    9900012    2    1    2    0    0  0.28535106165E+02 -0.34486366254E+02 -0.50548399570E+01  0.46142321536E+02  0.10000034424E+02 0.  0.
         12    1    1    2    0    0 -0.28535106165E+02  0.34486366254E+02  0.50548399570E+01  0.45045678464E+02  0.00000000000E+00 0. -1.
         11    1    3    3    0    0  0.15441186370E+02 -0.15181395393E+02 -0.58567533246E+01  0.22432266100E+02  0.51100000000E-03 0. -1.
        -11    1    3    3    0    0  0.91495862022E+01 -0.12900705234E+02 -0.13868376774E+01  0.15876600462E+02  0.51100000000E-03 0.  1.
         12    1    3    3    0    0  0.39443335932E+01 -0.64042656264E+01  0.21887510450E+01  0.78334549749E+01  0.00000000000E+00 0. -1.
</event>
<event>
 7    1  0.2438448E-008  0.4614232E+02  0.7816164E-02  0.1320468E+00
        -11   -1    0    0    0    0  0.00000000000E+00  0.00000000000E+00  0.45593999997E+02  0.45594000000E+02  0.51100000000E-03 0.  1.
         11   -1    0    0    0    0 -0.00000000000E+00 -0.00000000000E+00 -0.45593999997E+02  0.45594000000E+02  0.51100000000E-03 0. -1.
    9900012    2    1    2    0    0  0.45042366066E+02  0.40464816419E+00  0.36740698405E+00  0.46142317978E+02  0.10000001978E+02 0.  0.
         12    1    1    2    0    0 -0.45042366066E+02 -0.40464816419E+00 -0.36740698405E+00  0.45045682022E+02  0.00000000000E+00 0. -1.
         11    1    3    3    0    0  0.52006597924E+01  0.11169969793E+01 -0.23485121401E+01  0.58146413528E+01  0.51100000000E-03 0. -1.
        -11    1    3    3    0    0  0.41212490286E+01 -0.46970938780E+00  0.19861901087E+01  0.45989424734E+01  0.51100000000E-03 0.  1.
         12    1    3    3    0    0  0.35720457245E+02 -0.24263942732E+00  0.72972901542E+00  0.35728734152E+02  0.00000000000E+00 0. -1.
</event>
<event>
 7    1  0.2438448E-008  0.4614232E+02  0.7816164E-02  0.1320468E+00
        -11   -1    0    0    0    0  0.00000000000E+00  0.00000000000E+00  0.45593999997E+02  0.45594000000E+02  0.51100000000E-03 0.  1.
         11   -1    0    0    0    0 -0.00000000000E+00 -0.00000000000E+00 -0.45593999997E+02  0.45594000000E+02  0.51100000000E-03 0. -1.
    9900012    2    1    2    0    0  0.13024438887E+02  0.34662937620E+02  0.25650696095E+02  0.46142318043E+02  0.10000002573E+02 0.  0.
         12    1    1    2    0    0 -0.13024438887E+02 -0.34662937620E+02 -0.25650696095E+02  0.45045681957E+02  0.00000000000E+00 0. -1.
         11    1    3    3    0    0  0.67819340024E+01  0.19324607873E+02  0.84670507102E+01  0.22161363817E+02  0.51100000000E-03 0. -1.
        -11    1    3    3    0    0  0.41233252964E+00  0.35379615557E+01  0.38632476727E+01  0.52547000796E+01  0.51100000000E-03 0.  1.
        -12    1    3    3    0    0  0.58301723552E+01  0.11800368192E+02  0.13320397712E+02  0.18726254147E+02  0.00000000000E+00 0.  1.
</event>
<event>
 7    1  0.2438448E-008  0.4614232E+02  0.7816164E-02  0.1320468E+00
        -11   -1    0    0    0    0  0.00000000000E+00  0.00000000000E+00  0.45593999997E+02  0.45594000000E+02  0.51100000000E-03 0.  1.
         11   -1    0    0    0    0 -0.00000000000E+00 -0.00000000000E+00 -0.45593999997E+02  0.45594000000E+02  0.51100000000E-03 0. -1.
    9900012    2    1    2    0    0  0.33915719378E+02 -0.23129386534E+02  0.18543701858E+02  0.46142318509E+02  0.10000006818E+02 0.  0.
         12    1    1    2    0    0 -0.33915719378E+02  0.23129386534E+02 -0.18543701858E+02  0.45045681491E+02  0.00000000000E+00 0. -1.
         11    1    3    3    0    0  0.11757009177E+00  0.13971066879E+00 -0.15046770822E+00  0.23660640268E+00  0.51100000000E-03 0. -1.
        -11    1    3    3    0    0  0.28206303536E+01  0.51289254869E+00  0.14820079697E+01  0.32272840349E+01  0.51100000000E-03 0.  1.
        -12    1    3    3    0    0  0.30977518933E+02 -0.23781989752E+02  0.17212161597E+02  0.42678428071E+02  0.00000000000E+00 0.  1.
</event>
<event>
 7    1  0.2438448E-008  0.4614232E+02  0.7816164E-02  0.1320468E+00
        -11   -1    0    0    0    0  0.00000000000E+00  0.00000000000E+00  0.45593999997E+02  0.45594000000E+02  0.51100000000E-03 0.  1.
         11   -1    0    0    0    0 -0.00000000000E+00 -0.00000000000E+00 -0.45593999997E+02  0.45594000000E+02  0.51100000000E-03 0. -1.
    9900012    2    1    2    0    0  0.11179296822E+02 -0.90832892406E+01  0.42680564906E+02  0.46142318280E+02  0.10000004736E+02 0.  0.
         12    1    1    2    0    0 -0.11179296822E+02  0.90832892406E+01 -0.42680564906E+02  0.45045681720E+02  0.00000000000E+00 0. -1.
         11    1    3    3    0    0  0.13182774603E+01 -0.23240761055E+01  0.25337830635E+01  0.36822876151E+01  0.51100000000E-03 0. -1.
        -11    1    3    3    0    0  0.29994269770E+01  0.10606004407E+01  0.13116860888E+02  0.13497165454E+02  0.51100000000E-03 0.  1.
        -12    1    3    3    0    0  0.68615923844E+01 -0.78198135757E+01  0.27029920955E+02  0.28962865211E+02  0.00000000000E+00 0.  1.
</event>
<event>
 7    1  0.2438448E-008  0.4614231E+02  0.7816164E-02  0.1320468E+00
        -11   -1    0    0    0    0  0.00000000000E+00  0.00000000000E+00  0.45593999997E+02  0.45594000000E+02  0.51100000000E-03 0.  1.
         11   -1    0    0    0    0 -0.00000000000E+00 -0.00000000000E+00 -0.45593999997E+02  0.45594000000E+02  0.51100000000E-03 0. -1.
    9900012    2    1    2    0    0  0.26160533935E+02 -0.31528723426E+02  0.18726463356E+02  0.46142308015E+02  0.99999111225E+01 0.  0.
         12    1    1    2    0    0 -0.26160533935E+02  0.31528723426E+02 -0.18726463356E+02  0.45045691985E+02  0.00000000000E+00 0. -1.
         11    1    3    3    0    0  0.91393183955E+01 -0.16421930899E+02  0.79941524042E+01  0.20423354967E+02  0.51100000000E-03 0. -1.
        -11    1    3    3    0    0  0.47178688667E+01 -0.55120960894E+01  0.59995449834E+01  0.94146710092E+01  0.51100000000E-03 0.  1.
         12    1    3    3    0    0  0.12303346673E+02 -0.95946964379E+01  0.47327659682E+01  0.16304282039E+02  0.00000000000E+00 0. -1.
</event>
<event>
 7    1  0.2438448E-008  0.4614232E+02  0.7816164E-02  0.1320468E+00
        -11   -1    0    0    0    0  0.00000000000E+00  0.00000000000E+00  0.45593999997E+02  0.45594000000E+02  0.51100000000E-03 0.  1.
         11   -1    0    0    0    0 -0.00000000000E+00 -0.00000000000E+00 -0.45593999997E+02  0.45594000000E+02  0.51100000000E-03 0. -1.
    9900012    2    1    2    0    0  0.34140131531E+02 -0.21029168662E+01  0.29311137477E+02  0.46142316295E+02  0.99999866296E+01 0.  0.
         12    1    1    2    0    0 -0.34140131531E+02  0.21029168662E+01 -0.29311137477E+02  0.45045683705E+02  0.00000000000E+00 0. -1.
         11    1    3    3    0    0  0.20049669411E+02 -0.45520730759E+01  0.20490280486E+02  0.29026922114E+02  0.51100000000E-03 0.  1.
        -11    1    3    3    0    0  0.13108725990E+02  0.21811184181E+01  0.90427594407E+01  0.16073813275E+02  0.51100000000E-03 0. -1.
        -12    1    3    3    0    0  0.98173612964E+00  0.26803779160E+00 -0.22190244957E+00  0.10415809057E+01  0.00000000000E+00 0.  1.
</event>
<event>
 7    1  0.2438448E-008  0.4614232E+02  0.7816164E-02  0.1320468E+00
        -11   -1    0    0    0    0  0.00000000000E+00  0.00000000000E+00  0.45593999997E+02  0.45594000000E+02  0.51100000000E-03 0.  1.
         11   -1    0    0    0    0 -0.00000000000E+00 -0.00000000000E+00 -0.45593999997E+02  0.45594000000E+02  0.51100000000E-03 0. -1.
    9900012    2    1    2    0    0 -0.17908376893E+02 -0.37835229485E+02 -0.16640276831E+02  0.46142319118E+02  0.10000012369E+02 0.  0.
         12    1    1    2    0    0  0.17908376893E+02  0.37835229485E+02  0.16640276831E+02  0.45045680882E+02  0.00000000000E+00 0. -1.
         11    1    3    3    0    0 -0.12568208279E+02 -0.21972245910E+02 -0.62427334288E+01  0.26071270982E+02  0.51100000000E-03 0. -1.
        -11    1    3    3    0    0 -0.28057407249E+01 -0.32413876460E+01 -0.23454619026E+01  0.48867132803E+01  0.51100000000E-03 0.  1.
        -12    1    3    3    0    0 -0.25344278892E+01 -0.12621595929E+02 -0.80520814995E+01  0.15184334855E+02  0.00000000000E+00 0.  1.
</event>
<event>
 7    1  0.2438448E-008  0.4614232E+02  0.7816164E-02  0.1320468E+00
        -11   -1    0    0    0    0  0.00000000000E+00  0.00000000000E+00  0.45593999997E+02  0.45594000000E+02  0.51100000000E-03 0. -1.
         11   -1    0    0    0    0 -0.00000000000E+00 -0.00000000000E+00 -0.45593999997E+02  0.45594000000E+02  0.51100000000E-03 0.  1.
    9900012    2    1    2    0    0 -0.19872785537E+02  0.25223946055E+02  0.31590165210E+02  0.46142316549E+02  0.99999889465E+01 0.  0.
         12    1    1    2    0    0  0.19872785537E+02 -0.25223946055E+02 -0.31590165210E+02  0.45045683451E+02  0.00000000000E+00 0. -1.
         11    1    3    3    0    0 -0.48076155139E+01  0.23424816030E+01  0.95071800880E+01  0.10908109849E+02  0.51100000000E-03 0.  1.
        -11    1    3    3    0    0 -0.65995923488E+00  0.17600297885E+01  0.12850350903E+01  0.22769643152E+01  0.51100000000E-03 0. -1.
        -12    1    3    3    0    0 -0.14405210789E+02  0.21121434663E+02  0.20797950032E+02  0.32957242385E+02  0.00000000000E+00 0.  1.
</event>
<event>
 7    1  0.2438448E-008  0.4614232E+02  0.7816164E-02  0.1320468E+00
        -11   -1    0    0    0    0  0.00000000000E+00  0.00000000000E+00  0.45593999997E+02  0.45594000000E+02  0.51100000000E-03 0.  1.
         11   -1    0    0    0    0 -0.00000000000E+00 -0.00000000000E+00 -0.45593999997E+02  0.45594000000E+02  0.51100000000E-03 0. -1.
    9900012    2    1    2    0    0  0.49249508173E+00 -0.45547670079E-01  0.45042967446E+02  0.46142317162E+02  0.99999945338E+01 0.  0.
         12    1    1    2    0    0 -0.49249508173E+00  0.45547670079E-01 -0.45042967446E+02  0.45045682838E+02  0.00000000000E+00 0. -1.
         11    1    3    3    0    0 -0.17255365820E+01  0.27282494181E+01  0.86591061979E+01  0.92412629976E+01  0.51100000000E-03 0. -1.
        -11    1    3    3    0    0  0.19561310411E+01  0.10849496607E+01  0.15721525658E+02  0.15879859373E+02  0.51100000000E-03 0.  1.
         12    1    3    3    0    0  0.26190062259E+00 -0.38587467489E+01  0.20662335591E+02  0.21021194792E+02  0.00000000000E+00 0. -1.
</event>
<event>
 7    1  0.2438448E-008  0.4614232E+02  0.7816164E-02  0.1320468E+00
        -11   -1    0    0    0    0  0.00000000000E+00  0.00000000000E+00  0.45593999997E+02  0.45594000000E+02  0.51100000000E-03 0.  1.
         11   -1    0    0    0    0 -0.00000000000E+00 -0.00000000000E+00 -0.45593999997E+02  0.45594000000E+02  0.51100000000E-03 0. -1.
    9900012    2    1    2    0    0 -0.32530888221E+01 -0.43552240158E+02  0.11033283428E+02  0.46142317045E+02  0.99999934678E+01 0.  0.
         12    1    1    2    0    0  0.32530888221E+01  0.43552240158E+02 -0.11033283428E+02  0.45045682955E+02  0.00000000000E+00 0. -1.
         11    1    3    3    0    0  0.10068412418E+01 -0.41909205350E+00 -0.56226662180E+00  0.12269928486E+01  0.51100000000E-03 0. -1.
        -11    1    3    3    0    0 -0.23091653301E+01 -0.27945541120E+02  0.84136407929E+01  0.29275840973E+02  0.51100000000E-03 0.  1.
         12    1    3    3    0    0 -0.19507647337E+01 -0.15187606985E+02  0.31819092570E+01  0.15639483224E+02  0.00000000000E+00 0. -1.
</event>
<event>
 7    1  0.2438448E-008  0.4614232E+02  0.7816164E-02  0.1320468E+00
        -11   -1    0    0    0    0  0.00000000000E+00  0.00000000000E+00  0.45593999997E+02  0.45594000000E+02  0.51100000000E-03 0.  1.
         11   -1    0    0    0    0 -0.00000000000E+00 -0.00000000000E+00 -0.45593999997E+02  0.45594000000E+02  0.51100000000E-03 0. -1.
    9900012    2    1    2    0    0  0.43919884422E+02 -0.30706369952E+01  0.95251407351E+01  0.46142319128E+02  0.10000012461E+02 0.  0.
         12    1    1    2    0    0 -0.43919884422E+02  0.30706369952E+01 -0.95251407351E+01  0.45045680872E+02  0.00000000000E+00 0. -1.
         11    1    3    3    0    0  0.19373325898E+02 -0.41106988433E+01  0.48075306328E+01  0.20379792746E+02  0.51100000000E-03 0. -1.
        -11    1    3    3    0    0  0.65453592823E+01 -0.21067688259E+01 -0.51621471914E-01  0.68762539262E+01  0.51100000000E-03 0.  1.
        -12    1    3    3    0    0  0.18001199242E+02  0.31468306740E+01  0.47692315742E+01  0.18886272455E+02  0.00000000000E+00 0.  1.
</event>
<event>
 7    1  0.2438448E-008  0.4614232E+02  0.7816164E-02  0.1320468E+00
        -11   -1    0    0    0    0  0.00000000000E+00  0.00000000000E+00  0.45593999997E+02  0.45594000000E+02  0.51100000000E-03 0.  1.
         11   -1    0    0    0    0 -0.00000000000E+00 -0.00000000000E+00 -0.45593999997E+02  0.45594000000E+02  0.51100000000E-03 0. -1.
    9900012    2    1    2    0    0  0.22919597421E+02  0.31636429132E+02  0.22426367077E+02  0.46142317249E+02  0.99999953336E+01 0.  0.
         12    1    1    2    0    0 -0.22919597421E+02 -0.31636429132E+02 -0.22426367077E+02  0.45045682751E+02  0.00000000000E+00 0. -1.
         11    1    3    3    0    0  0.14271891858E+02  0.14711139583E+02  0.91139420359E+01  0.22431416913E+02  0.51100000000E-03 0. -1.
        -11    1    3    3    0    0  0.86737391283E+01  0.13117377573E+02  0.97937060589E+01  0.18526090346E+02  0.51100000000E-03 0.  1.
         12    1    3    3    0    0 -0.26033564960E-01  0.38079119758E+01  0.35187189818E+01  0.51848099902E+01  0.00000000000E+00 0. -1.
</event>
<event>
 7    1  0.2438448E-008  0.4614232E+02  0.7816164E-02  0.1320468E+00
        -11   -1    0    0    0    0  0.00000000000E+00  0.00000000000E+00  0.45593999997E+02  0.45594000000E+02  0.51100000000E-03 0.  1.
         11   -1    0    0    0    0 -0.00000000000E+00 -0.00000000000E+00 -0.45593999997E+02  0.45594000000E+02  0.51100000000E-03 0. -1.
    9900012    2    1    2    0    0  0.17402458054E+02  0.26531014328E+02  0.31974571383E+02  0.46142317824E+02  0.10000000573E+02 0.  0.
         12    1    1    2    0    0 -0.17402458054E+02 -0.26531014328E+02 -0.31974571383E+02  0.45045682176E+02  0.00000000000E+00 0. -1.
         11    1    3    3    0    0  0.52935322443E+01  0.95025416300E+01  0.86447577466E+01  0.13894301631E+02  0.51100000000E-03 0. -1.
        -11    1    3    3    0    0  0.11706806300E+02  0.10512927357E+02  0.16351686960E+02  0.22692479416E+02  0.51100000000E-03 0.  1.
        -12    1    3    3    0    0  0.40211951044E+00  0.65155453401E+01  0.69781266763E+01  0.95555367767E+01  0.00000000000E+00 0.  1.
</event>
<event>
 7    1  0.2438448E-008  0.4614232E+02  0.7816164E-02  0.1320468E+00
        -11   -1    0    0    0    0  0.00000000000E+00  0.00000000000E+00  0.45593999997E+02  0.45594000000E+02  0.51100000000E-03 0. -1.
         11   -1    0    0    0    0 -0.00000000000E+00 -0.00000000000E+00 -0.45593999997E+02  0.45594000000E+02  0.51100000000E-03 0.  1.
    9900012    2    1    2    0    0  0.28647627743E+01  0.46055032359E+01 -0.44717960446E+02  0.46142317496E+02  0.99999975859E+01 0.  0.
         12    1    1    2    0    0 -0.28647627743E+01 -0.46055032359E+01  0.44717960446E+02  0.45045682504E+02  0.00000000000E+00 0. -1.
         11    1    3    3    0    0  0.22292520364E+01  0.93777866567E+00 -0.34245324370E+01  0.41924236595E+01  0.51100000000E-03 0. -1.
        -11    1    3    3    0    0  0.27468401899E+01  0.77105237331E-01 -0.24234257483E+02  0.24389553342E+02  0.51100000000E-03 0.  1.
         12    1    3    3    0    0 -0.21113294520E+01  0.35906193330E+01 -0.17059170526E+02  0.17560340494E+02  0.00000000000E+00 0. -1.
</event>
<event>
 7    1  0.2438448E-008  0.4614232E+02  0.7816164E-02  0.1320468E+00
        -11   -1    0    0    0    0  0.00000000000E+00  0.00000000000E+00  0.45593999997E+02  0.45594000000E+02  0.51100000000E-03 0.  1.
         11   -1    0    0    0    0 -0.00000000000E+00 -0.00000000000E+00 -0.45593999997E+02  0.45594000000E+02  0.51100000000E-03 0. -1.
    9900012    2    1    2    0    0 -0.42890941023E+02 -0.13082911189E+02  0.42799604556E+01  0.46142318204E+02  0.10000004036E+02 0.  0.
         12    1    1    2    0    0  0.42890941023E+02  0.13082911189E+02 -0.42799604556E+01  0.45045681796E+02  0.00000000000E+00 0. -1.
         11    1    3    3    0    0 -0.25372558660E+02 -0.37651392289E+01  0.20109471892E+01  0.25729106383E+02  0.51100000000E-03 0. -1.
        -11    1    3    3    0    0 -0.52652205953E+01 -0.18688525227E+01 -0.10731974491E+01  0.56891924466E+01  0.51100000000E-03 0.  1.
        -12    1    3    3    0    0 -0.12253161767E+02 -0.74489194377E+01  0.33422107154E+01  0.14724019375E+02  0.00000000000E+00 0.  1.
</event>
<event>
 7    1  0.2438448E-008  0.4614232E+02  0.7816164E-02  0.1320468E+00
        -11   -1    0    0    0    0  0.00000000000E+00  0.00000000000E+00  0.45593999997E+02  0.45594000000E+02  0.51100000000E-03 0. -1.
         11   -1    0    0    0    0 -0.00000000000E+00 -0.00000000000E+00 -0.45593999997E+02  0.45594000000E+02  0.51100000000E-03 0.  1.
    9900012    2    1    2    0    0 -0.97504228491E+01  0.18557236843E+02 -0.39870687339E+02  0.46142317700E+02  0.99999994431E+01 0.  0.
         12    1    1    2    0    0  0.97504228491E+01 -0.18557236843E+02  0.39870687339E+02  0.45045682300E+02  0.00000000000E+00 0. -1.
         11    1    3    3    0    0  0.17157285072E+01  0.29590644654E+01 -0.72223253714E+01  0.79913560083E+01  0.51100000000E-03 0. -1.
        -11    1    3    3    0    0 -0.64574487146E+01  0.74873302549E+01 -0.13204189665E+02  0.16495738335E+02  0.51100000000E-03 0.  1.
        -12    1    3    3    0    0 -0.50087026417E+01  0.81108421224E+01 -0.19444172303E+02  0.21655223357E+02  0.00000000000E+00 0.  1.
</event>
<event>
 7    1  0.2438448E-008  0.4614232E+02  0.7816164E-02  0.1320468E+00
        -11   -1    0    0    0    0  0.00000000000E+00  0.00000000000E+00  0.45593999997E+02  0.45594000000E+02  0.51100000000E-03 0.  1.
         11   -1    0    0    0    0 -0.00000000000E+00 -0.00000000000E+00 -0.45593999997E+02  0.45594000000E+02  0.51100000000E-03 0. -1.
    9900012    2    1    2    0    0  0.97711157763E+01 -0.26030623125E+02  0.35440728239E+02  0.46142320275E+02  0.10000022920E+02 0.  0.
         12    1    1    2    0    0 -0.97711157763E+01  0.26030623125E+02 -0.35440728239E+02  0.45045679725E+02  0.00000000000E+00 0. -1.
         11    1    3    3    0    0  0.57684717315E+01 -0.84303889361E+01  0.76967916452E+01  0.12790126099E+02  0.51100000000E-03 0. -1.
        -11    1    3    3    0    0  0.22136198296E+01 -0.57633789122E+01  0.12744565460E+02  0.14161235760E+02  0.51100000000E-03 0.  1.
         12    1    3    3    0    0  0.17890242152E+01 -0.11836855277E+02  0.14999371134E+02  0.19190958416E+02  0.00000000000E+00 0. -1.
</event>
<event>
 7    1  0.2438448E-008  0.4614232E+02  0.7816164E-02  0.1320468E+00
        -11   -1    0    0    0    0  0.00000000000E+00  0.00000000000E+00  0.45593999997E+02  0.45594000000E+02  0.51100000000E-03 0.  1.
         11   -1    0    0    0    0 -0.00000000000E+00 -0.00000000000E+00 -0.45593999997E+02  0.45594000000E+02  0.51100000000E-03 0. -1.
    9900012    2    1    2    0    0 -0.33893703404E+02  0.48655063552E+01  0.29268706309E+02  0.46142318170E+02  0.10000003727E+02 0.  0.
         12    1    1    2    0    0  0.33893703404E+02 -0.48655063552E+01 -0.29268706309E+02  0.45045681830E+02  0.00000000000E+00 0. -1.
         11    1    3    3    0    0 -0.22518220908E+02  0.68817177118E+01  0.18481463612E+02  0.29933138977E+02  0.51100000000E-03 0.  1.
        -11    1    3    3    0    0 -0.31572806112E+01 -0.64817646584E+00  0.10404052310E+01  0.33868860174E+01  0.51100000000E-03 0. -1.
         12    1    3    3    0    0 -0.82182018846E+01 -0.13680348908E+01  0.97468374661E+01  0.12822293175E+02  0.00000000000E+00 0. -1.
</event>
<event>
 7    1  0.2438448E-008  0.4614232E+02  0.7816164E-02  0.1320468E+00
        -11   -1    0    0    0    0  0.00000000000E+00  0.00000000000E+00  0.45593999997E+02  0.45594000000E+02  0.51100000000E-03 0.  1.
         11   -1    0    0    0    0 -0.00000000000E+00 -0.00000000000E+00 -0.45593999997E+02  0.45594000000E+02  0.51100000000E-03 0. -1.
    9900012    2    1    2    0    0  0.15042097209E+02 -0.29695593427E+02  0.30348320296E+02  0.46142317607E+02  0.99999985992E+01 0.  0.
         12    1    1    2    0    0 -0.15042097209E+02  0.29695593427E+02 -0.30348320296E+02  0.45045682393E+02  0.00000000000E+00 0. -1.
         11    1    3    3    0    0  0.10558247903E+01 -0.53635622975E+01  0.61474485825E+01  0.82264020594E+01  0.51100000000E-03 0. -1.
        -11    1    3    3    0    0  0.11570399762E+02 -0.23016142659E+02  0.18922589918E+02  0.31963751079E+02  0.51100000000E-03 0.  1.
         12    1    3    3    0    0  0.24158726564E+01 -0.13158884702E+01  0.52782817951E+01  0.59521644690E+01  0.00000000000E+00 0. -1.
</event>
<event>
 7    1  0.2438448E-008  0.4614232E+02  0.7816164E-02  0.1320468E+00
        -11   -1    0    0    0    0  0.00000000000E+00  0.00000000000E+00  0.45593999997E+02  0.45594000000E+02  0.51100000000E-03 0.  1.
         11   -1    0    0    0    0 -0.00000000000E+00 -0.00000000000E+00 -0.45593999997E+02  0.45594000000E+02  0.51100000000E-03 0. -1.
    9900012    2    1    2    0    0 -0.27899302582E+02  0.20050288771E+02  0.29132938048E+02  0.46142320477E+02  0.10000024766E+02 0.  0.
         12    1    1    2    0    0  0.27899302582E+02 -0.20050288771E+02 -0.29132938048E+02  0.45045679523E+02  0.00000000000E+00 0. -1.
         11    1    3    3    0    0 -0.26502525349E+01  0.24600477519E+01  0.26034275437E+01  0.44557276260E+01  0.51100000000E-03 0. -1.
        -11    1    3    3    0    0 -0.12938875810E+02  0.95818596138E+01  0.19834361308E+02  0.25546593308E+02  0.51100000000E-03 0.  1.
         12    1    3    3    0    0 -0.12310174237E+02  0.80083814056E+01  0.66951491960E+01  0.16139999543E+02  0.00000000000E+00 0. -1.
</event>
<event>
 7    1  0.2438448E-008  0.4614232E+02  0.7816164E-02  0.1320468E+00
        -11   -1    0    0    0    0  0.00000000000E+00  0.00000000000E+00  0.45593999997E+02  0.45594000000E+02  0.51100000000E-03 0. -1.
         11   -1    0    0    0    0 -0.00000000000E+00 -0.00000000000E+00 -0.45593999997E+02  0.45594000000E+02  0.51100000000E-03 0.  1.
    9900012    2    1    2    0    0 -0.24523930011E+02 -0.37768994136E+02 -0.10924562676E+01  0.46142317389E+02  0.99999966024E+01 0.  0.
         12    1    1    2    0    0  0.24523930011E+02  0.37768994136E+02  0.10924562676E+01  0.45045682611E+02  0.00000000000E+00 0. -1.
         11    1    3    3    0    0 -0.19502193941E+01 -0.47027747518E+01 -0.19320705758E+01  0.54453964982E+01  0.51100000000E-03 0. -1.
        -11    1    3    3    0    0 -0.36699781922E+01 -0.10571945263E+02  0.15984576441E+01  0.11304416556E+02  0.51100000000E-03 0.  1.
        -12    1    3    3    0    0 -0.18903732425E+02 -0.22494274122E+02 -0.75884333587E+00  0.29392504335E+02  0.00000000000E+00 0.  1.
</event>
<event>
 7    1  0.2438448E-008  0.4614232E+02  0.7816164E-02  0.1320468E+00
        -11   -1    0    0    0    0  0.00000000000E+00  0.00000000000E+00  0.45593999997E+02  0.45594000000E+02  0.51100000000E-03 0.  1.
         11   -1    0    0    0    0 -0.00000000000E+00 -0.00000000000E+00 -0.45593999997E+02  0.45594000000E+02  0.51100000000E-03 0. -1.
    9900012    2    1    2    0    0  0.13426386052E+02  0.42996608129E+02 -0.37062345584E+00  0.46142317468E+02  0.99999973288E+01 0.  0.
         12    1    1    2    0    0 -0.13426386052E+02 -0.42996608129E+02  0.37062345584E+00  0.45045682532E+02  0.00000000000E+00 0. -1.
         11    1    3    3    0    0  0.29530001384E+01  0.11335159328E+02  0.30130795826E+01  0.12094821025E+02  0.51100000000E-03 0. -1.
        -11    1    3    3    0    0  0.57199434612E+01  0.22525900755E+02 -0.10862556666E+00  0.23241036074E+02  0.51100000000E-03 0.  1.
         12    1    3    3    0    0  0.47534424527E+01  0.91355480457E+01 -0.32750774718E+01  0.10806460368E+02  0.00000000000E+00 0. -1.
</event>
<event>
 7    1  0.2438448E-008  0.4614232E+02  0.7816164E-02  0.1320468E+00
        -11   -1    0    0    0    0  0.00000000000E+00  0.00000000000E+00  0.45593999997E+02  0.45594000000E+02  0.51100000000E-03 0. -1.
         11   -1    0    0    0    0 -0.00000000000E+00 -0.00000000000E+00 -0.45593999997E+02  0.45594000000E+02  0.51100000000E-03 0.  1.
    9900012    2    1    2    0    0 -0.14338967563E+02 -0.26254015163E+02 -0.33678393149E+02  0.46142317987E+02  0.10000002056E+02 0.  0.
         12    1    1    2    0    0  0.14338967563E+02  0.26254015163E+02  0.33678393149E+02  0.45045682013E+02  0.00000000000E+00 0. -1.
         11    1    3    3    0    0 -0.33661597431E+01 -0.23577937529E+01 -0.75888718456E+01  0.86302490664E+01  0.51100000000E-03 0. -1.
        -11    1    3    3    0    0 -0.87873399413E+00  0.31658908221E-01 -0.34628322650E+00  0.94503336077E+00  0.51100000000E-03 0.  1.
        -12    1    3    3    0    0 -0.10094073826E+02 -0.23927880318E+02 -0.25743238077E+02  0.36567035559E+02  0.00000000000E+00 0.  1.
</event>
<event>
 7    1  0.2438448E-008  0.4614232E+02  0.7816164E-02  0.1320468E+00
        -11   -1    0    0    0    0  0.00000000000E+00  0.00000000000E+00  0.45593999997E+02  0.45594000000E+02  0.51100000000E-03 0.  1.
         11   -1    0    0    0    0 -0.00000000000E+00 -0.00000000000E+00 -0.45593999997E+02  0.45594000000E+02  0.51100000000E-03 0. -1.
    9900012    2    1    2    0    0  0.18253883230E+02 -0.40139477530E+02 -0.92049768355E+01  0.46142317544E+02  0.99999980236E+01 0.  0.
         12    1    1    2    0    0 -0.18253883230E+02  0.40139477530E+02  0.92049768355E+01  0.45045682456E+02  0.00000000000E+00 0. -1.
         11    1    3    3    0    0  0.37685693845E+01 -0.11346135455E+02  0.10251724150E+01  0.11999495144E+02  0.51100000000E-03 0. -1.
        -11    1    3    3    0    0  0.50847713077E+01 -0.15185860785E+02 -0.56423716528E+01  0.16979447139E+02  0.51100000000E-03 0.  1.
        -12    1    3    3    0    0  0.94005425381E+01 -0.13607481290E+02 -0.45877775976E+01  0.17163375261E+02  0.00000000000E+00 0.  1.
</event>
<event>
 7    1  0.2438448E-008  0.4614232E+02  0.7816164E-02  0.1320468E+00
        -11   -1    0    0    0    0  0.00000000000E+00  0.00000000000E+00  0.45593999997E+02  0.45594000000E+02  0.51100000000E-03 0.  1.
         11   -1    0    0    0    0 -0.00000000000E+00 -0.00000000000E+00 -0.45593999997E+02  0.45594000000E+02  0.51100000000E-03 0. -1.
    9900012    2    1    2    0    0  0.21920123645E+02 -0.39199625621E+02  0.34656909438E+01  0.46142317819E+02  0.10000000529E+02 0.  0.
         12    1    1    2    0    0 -0.21920123645E+02  0.39199625621E+02 -0.34656909438E+01  0.45045682181E+02  0.00000000000E+00 0. -1.
         11    1    3    3    0    0  0.64901530563E+01 -0.19494318120E+02  0.25860530825E+01  0.20708408835E+02  0.51100000000E-03 0. -1.
        -11    1    3    3    0    0  0.13359428176E+02 -0.17818069280E+02  0.21184887590E+01  0.22370648380E+02  0.51100000000E-03 0.  1.
         12    1    3    3    0    0  0.20705424126E+01 -0.18872382207E+01 -0.12388508977E+01  0.30632606044E+01  0.00000000000E+00 0. -1.
</event>
<event>
 7    1  0.2438448E-008  0.4614232E+02  0.7816164E-02  0.1320468E+00
        -11   -1    0    0    0    0  0.00000000000E+00  0.00000000000E+00  0.45593999997E+02  0.45594000000E+02  0.51100000000E-03 0. -1.
         11   -1    0    0    0    0 -0.00000000000E+00 -0.00000000000E+00 -0.45593999997E+02  0.45594000000E+02  0.51100000000E-03 0.  1.
    9900012    2    1    2    0    0 -0.25256226878E+02 -0.30875363182E+02 -0.20927217709E+02  0.46142317757E+02  0.99999999590E+01 0.  0.
         12    1    1    2    0    0  0.25256226878E+02  0.30875363182E+02  0.20927217709E+02  0.45045682243E+02  0.00000000000E+00 0. -1.
         11    1    3    3    0    0 -0.11776586403E+02 -0.95417222583E+01 -0.88810837149E+01  0.17567188141E+02  0.51100000000E-03 0. -1.
        -11    1    3    3    0    0 -0.13831085275E+02 -0.19454668104E+02 -0.11861152566E+02  0.26654642586E+02  0.51100000000E-03 0.  1.
         12    1    3    3    0    0  0.35144479989E+00 -0.18789728195E+01 -0.18498142825E+00  0.19204870301E+01  0.00000000000E+00 0. -1.
</event>
<event>
 7    1  0.2438448E-008  0.4614232E+02  0.7816164E-02  0.1320468E+00
        -11   -1    0    0    0    0  0.00000000000E+00  0.00000000000E+00  0.45593999997E+02  0.45594000000E+02  0.51100000000E-03 0. -1.
         11   -1    0    0    0    0 -0.00000000000E+00 -0.00000000000E+00 -0.45593999997E+02  0.45594000000E+02  0.51100000000E-03 0.  1.
    9900012    2    1    2    0    0  0.21454492661E+02 -0.25248011987E+02 -0.30518127260E+02  0.46142318120E+02  0.10000003269E+02 0.  0.
         12    1    1    2    0    0 -0.21454492661E+02  0.25248011987E+02  0.30518127260E+02  0.45045681880E+02  0.00000000000E+00 0. -1.
         11    1    3    3    0    0  0.69537353077E+01 -0.33728344841E+01 -0.62362733954E+01  0.99308384998E+01  0.51100000000E-03 0. -1.
        -11    1    3    3    0    0  0.72723002623E+01 -0.60285228937E+01 -0.84693717926E+01  0.12686989328E+02  0.51100000000E-03 0.  1.
         12    1    3    3    0    0  0.72284570908E+01 -0.15846654609E+02 -0.15812482072E+02  0.23524490292E+02  0.00000000000E+00 0. -1.
</event>
<event>
 7    1  0.2438448E-008  0.4614232E+02  0.7816164E-02  0.1320468E+00
        -11   -1    0    0    0    0  0.00000000000E+00  0.00000000000E+00  0.45593999997E+02  0.45594000000E+02  0.51100000000E-03 0.  1.
         11   -1    0    0    0    0 -0.00000000000E+00 -0.00000000000E+00 -0.45593999997E+02  0.45594000000E+02  0.51100000000E-03 0. -1.
    9900012    2    1    2    0    0  0.67145360774E+01  0.21143807816E+00  0.44541933396E+02  0.46142317283E+02  0.99999956395E+01 0.  0.
         12    1    1    2    0    0 -0.67145360774E+01 -0.21143807816E+00 -0.44541933396E+02  0.45045682717E+02  0.00000000000E+00 0. -1.
         11    1    3    3    0    0  0.21572736796E+01 -0.15070722648E+01  0.13488739631E+02  0.13743041644E+02  0.51100000000E-03 0. -1.
        -11    1    3    3    0    0  0.15601247329E+01 -0.31532667788E+01  0.12285189295E+02  0.12779004532E+02  0.51100000000E-03 0.  1.
        -12    1    3    3    0    0  0.29971376649E+01  0.48717771218E+01  0.18768004470E+02  0.19620271107E+02  0.00000000000E+00 0.  1.
</event>
<event>
 7    1  0.2438448E-008  0.4614232E+02  0.7816164E-02  0.1320468E+00
        -11   -1    0    0    0    0  0.00000000000E+00  0.00000000000E+00  0.45593999997E+02  0.45594000000E+02  0.51100000000E-03 0.  1.
         11   -1    0    0    0    0 -0.00000000000E+00 -0.00000000000E+00 -0.45593999997E+02  0.45594000000E+02  0.51100000000E-03 0. -1.
    9900012    2    1    2    0    0 -0.30584980051E+01  0.31576995478E+02  0.31978936279E+02  0.46142318531E+02  0.10000007018E+02 0.  0.
         12    1    1    2    0    0  0.30584980051E+01 -0.31576995478E+02 -0.31978936279E+02  0.45045681469E+02  0.00000000000E+00 0. -1.
         11    1    3    3    0    0  0.54183220851E+00  0.40401499772E+01  0.54150368131E+01  0.67778328342E+01  0.51100000000E-03 0. -1.
        -11    1    3    3    0    0 -0.83594074859E+00  0.54733423493E+01  0.12592397109E+01  0.56782002711E+01  0.51100000000E-03 0.  1.
        -12    1    3    3    0    0 -0.27643894650E+01  0.22063503151E+02  0.25304659755E+02  0.33686285425E+02  0.00000000000E+00 0.  1.
</event>
<event>
 7    1  0.2438448E-008  0.4614232E+02  0.7816164E-02  0.1320468E+00
        -11   -1    0    0    0    0  0.00000000000E+00  0.00000000000E+00  0.45593999997E+02  0.45594000000E+02  0.51100000000E-03 0.  1.
         11   -1    0    0    0    0 -0.00000000000E+00 -0.00000000000E+00 -0.45593999997E+02  0.45594000000E+02  0.51100000000E-03 0. -1.
    9900012    2    1    2    0    0 -0.30567558037E+02 -0.16904091364E+02  0.28442742532E+02  0.46142317499E+02  0.99999976134E+01 0.  0.
         12    1    1    2    0    0  0.30567558037E+02  0.16904091364E+02 -0.28442742532E+02  0.45045682501E+02  0.00000000000E+00 0. -1.
         11    1    3    3    0    0 -0.12033694950E+02 -0.32996800729E+01  0.68713682955E+01  0.14244767644E+02  0.51100000000E-03 0. -1.
        -11    1    3    3    0    0 -0.10251570725E+02 -0.71555215757E+01  0.84299659391E+01  0.15078478615E+02  0.51100000000E-03 0.  1.
         12    1    3    3    0    0 -0.82822923627E+01 -0.64488897159E+01  0.13141408297E+02  0.16819071240E+02  0.00000000000E+00 0. -1.
</event>
<event>
 7    1  0.2438448E-008  0.4614232E+02  0.7816164E-02  0.1320468E+00
        -11   -1    0    0    0    0  0.00000000000E+00  0.00000000000E+00  0.45593999997E+02  0.45594000000E+02  0.51100000000E-03 0.  1.
         11   -1    0    0    0    0 -0.00000000000E+00 -0.00000000000E+00 -0.45593999997E+02  0.45594000000E+02  0.51100000000E-03 0. -1.
    9900012    2    1    2    0    0  0.12494058029E+02  0.21746965131E+02  0.37417661541E+02  0.46142319034E+02  0.10000011609E+02 0.  0.
         12    1    1    2    0    0 -0.12494058029E+02 -0.21746965131E+02 -0.37417661541E+02  0.45045680966E+02  0.00000000000E+00 0. -1.
         11    1    3    3    0    0  0.29555262262E+01  0.59138764299E+01  0.68047812176E+01  0.94875770027E+01  0.51100000000E-03 0. -1.
        -11    1    3    3    0    0  0.47783039838E+01  0.93971588187E+01  0.24204034852E+02  0.26400266783E+02  0.51100000000E-03 0.  1.
        -12    1    3    3    0    0  0.47602278188E+01  0.64359298828E+01  0.64088454716E+01  0.10254475249E+02  0.00000000000E+00 0.  1.
</event>
<event>
 7    1  0.2438448E-008  0.4614232E+02  0.7816164E-02  0.1320468E+00
        -11   -1    0    0    0    0  0.00000000000E+00  0.00000000000E+00  0.45593999997E+02  0.45594000000E+02  0.51100000000E-03 0. -1.
         11   -1    0    0    0    0 -0.00000000000E+00 -0.00000000000E+00 -0.45593999997E+02  0.45594000000E+02  0.51100000000E-03 0.  1.
    9900012    2    1    2    0    0  0.39811515271E+02  0.60837513740E+01 -0.20177827357E+02  0.46142317679E+02  0.99999992498E+01 0.  0.
         12    1    1    2    0    0 -0.39811515271E+02 -0.60837513740E+01  0.20177827357E+02  0.45045682321E+02  0.00000000000E+00 0. -1.
         11    1    3    3    0    0  0.28438381189E+01 -0.63563726822E+00 -0.40655768037E+01  0.50020360845E+01  0.51100000000E-03 0. -1.
        -11    1    3    3    0    0  0.33562843081E+01 -0.40139156638E-01 -0.27675857737E+01  0.43503777749E+01  0.51100000000E-03 0.  1.
        -12    1    3    3    0    0  0.33611392844E+02  0.67595277989E+01 -0.13344664779E+02  0.36789903819E+02  0.00000000000E+00 0.  1.
</event>
<event>
 7    1  0.2438448E-008  0.4614232E+02  0.7816164E-02  0.1320468E+00
        -11   -1    0    0    0    0  0.00000000000E+00  0.00000000000E+00  0.45593999997E+02  0.45594000000E+02  0.51100000000E-03 0.  1.
         11   -1    0    0    0    0 -0.00000000000E+00 -0.00000000000E+00 -0.45593999997E+02  0.45594000000E+02  0.51100000000E-03 0. -1.
    9900012    2    1    2    0    0 -0.32680530155E+02  0.29447082840E+02 -0.96935899113E+01  0.46142318471E+02  0.10000006477E+02 0.  0.
         12    1    1    2    0    0  0.32680530155E+02 -0.29447082840E+02  0.96935899113E+01  0.45045681529E+02  0.00000000000E+00 0. -1.
         11    1    3    3    0    0 -0.15136500888E+02  0.12666522495E+02 -0.35230544695E+01  0.20049098840E+02  0.51100000000E-03 0. -1.
        -11    1    3    3    0    0 -0.10729479198E+02  0.14589834604E+02 -0.34524319522E+01  0.18436493275E+02  0.51100000000E-03 0.  1.
         12    1    3    3    0    0 -0.68145500692E+01  0.21907257412E+01 -0.27181034895E+01  0.76567263565E+01  0.00000000000E+00 0. -1.
</event>
<event>
 7    1  0.2438448E-008  0.4614232E+02  0.7816164E-02  0.1320468E+00
        -11   -1    0    0    0    0  0.00000000000E+00  0.00000000000E+00  0.45593999997E+02  0.45594000000E+02  0.51100000000E-03 0. -1.
         11   -1    0    0    0    0 -0.00000000000E+00 -0.00000000000E+00 -0.45593999997E+02  0.45594000000E+02  0.51100000000E-03 0.  1.
    9900012    2    1    2    0    0 -0.30710972077E+02  0.13468827522E+02 -0.30075578855E+02  0.46142316919E+02  0.99999923239E+01 0.  0.
         12    1    1    2    0    0  0.30710972077E+02 -0.13468827522E+02  0.30075578855E+02  0.45045683081E+02  0.00000000000E+00 0. -1.
         11    1    3    3    0    0 -0.20671813237E+01 -0.40438330856E-01 -0.42486906768E+00  0.21107789722E+01  0.51100000000E-03 0. -1.
        -11    1    3    3    0    0 -0.19246161733E+02  0.57322876782E+01 -0.21140227884E+02  0.29157899422E+02  0.51100000000E-03 0.  1.
         12    1    3    3    0    0 -0.93976290206E+01  0.77769781748E+01 -0.85104819030E+01  0.14873638525E+02  0.00000000000E+00 0. -1.
</event>
<event>
 7    1  0.2438448E-008  0.4614232E+02  0.7816164E-02  0.1320468E+00
        -11   -1    0    0    0    0  0.00000000000E+00  0.00000000000E+00  0.45593999997E+02  0.45594000000E+02  0.51100000000E-03 0.  1.
         11   -1    0    0    0    0 -0.00000000000E+00 -0.00000000000E+00 -0.45593999997E+02  0.45594000000E+02  0.51100000000E-03 0. -1.
    9900012    2    1    2    0    0 -0.13872428739E+02  0.34011953895E+02  0.26074051323E+02  0.46142318306E+02  0.10000004969E+02 0.  0.
         12    1    1    2    0    0  0.13872428739E+02 -0.34011953895E+02 -0.26074051323E+02  0.45045681694E+02  0.00000000000E+00 0. -1.
         11    1    3    3    0    0  0.57083062459E+00  0.13936581465E+01  0.60370411644E+00  0.16225256708E+01  0.51100000000E-03 0. -1.
        -11    1    3    3    0    0 -0.15366966312E+00  0.83243084418E+01  0.55559923958E+01  0.10009334502E+02  0.51100000000E-03 0.  1.
        -12    1    3    3    0    0 -0.14289589700E+02  0.24293987307E+02  0.19914354810E+02  0.34510458134E+02  0.00000000000E+00 0.  1.
</event>
<event>
 7    1  0.2438448E-008  0.4614232E+02  0.7816164E-02  0.1320468E+00
        -11   -1    0    0    0    0  0.00000000000E+00  0.00000000000E+00  0.45593999997E+02  0.45594000000E+02  0.51100000000E-03 0. -1.
         11   -1    0    0    0    0 -0.00000000000E+00 -0.00000000000E+00 -0.45593999997E+02  0.45594000000E+02  0.51100000000E-03 0.  1.
    9900012    2    1    2    0    0 -0.23493718705E+02  0.31528168583E+02 -0.21980292320E+02  0.46142317818E+02  0.10000000519E+02 0.  0.
         12    1    1    2    0    0  0.23493718705E+02 -0.31528168583E+02  0.21980292320E+02  0.45045682182E+02  0.00000000000E+00 0. -1.
         11    1    3    3    0    0 -0.17932601514E+01  0.20536548460E+01 -0.28045252367E+01  0.39113478829E+01  0.51100000000E-03 0. -1.
        -11    1    3    3    0    0 -0.15576613959E+02  0.24598129738E+02 -0.18215996004E+02  0.34344161072E+02  0.51100000000E-03 0.  1.
         12    1    3    3    0    0 -0.61238445951E+01  0.48763839983E+01 -0.95977107951E+00  0.78868088635E+01  0.00000000000E+00 0. -1.
</event>
<event>
 7    1  0.2438448E-008  0.4614232E+02  0.7816164E-02  0.1320468E+00
        -11   -1    0    0    0    0  0.00000000000E+00  0.00000000000E+00  0.45593999997E+02  0.45594000000E+02  0.51100000000E-03 0. -1.
         11   -1    0    0    0    0 -0.00000000000E+00 -0.00000000000E+00 -0.45593999997E+02  0.45594000000E+02  0.51100000000E-03 0.  1.
    9900012    2    1    2    0    0 -0.56828966599E+01  0.65576943898E+01 -0.44201978014E+02  0.46142317293E+02  0.99999957329E+01 0.  0.
         12    1    1    2    0    0  0.56828966599E+01 -0.65576943898E+01  0.44201978014E+02  0.45045682707E+02  0.00000000000E+00 0. -1.
         11    1    3    3    0    0 -0.45903788184E+01  0.62731033075E+01 -0.17022248426E+02  0.18713106224E+02  0.51100000000E-03 0. -1.
        -11    1    3    3    0    0 -0.18659963347E+01  0.10868472875E+01 -0.23077362536E+02  0.23178175968E+02  0.51100000000E-03 0.  1.
        -12    1    3    3    0    0  0.77347849319E+00 -0.80225620524E+00 -0.41023670526E+01  0.42510351013E+01  0.00000000000E+00 0.  1.
</event>
<event>
 7    1  0.2438448E-008  0.4614232E+02  0.7816164E-02  0.1320468E+00
        -11   -1    0    0    0    0  0.00000000000E+00  0.00000000000E+00  0.45593999997E+02  0.45594000000E+02  0.51100000000E-03 0.  1.
         11   -1    0    0    0    0 -0.00000000000E+00 -0.00000000000E+00 -0.45593999997E+02  0.45594000000E+02  0.51100000000E-03 0. -1.
    9900012    2    1    2    0    0  0.31567534341E+02 -0.25716698077E+02  0.19267996056E+02  0.46142318116E+02  0.10000003237E+02 0.  0.
         12    1    1    2    0    0 -0.31567534341E+02  0.25716698077E+02 -0.19267996056E+02  0.45045681884E+02  0.00000000000E+00 0. -1.
         11    1    3    3    0    0  0.43413068410E+01 -0.61322846896E+01  0.30837851038E+01  0.81216741765E+01  0.51100000000E-03 0. -1.
        -11    1    3    3    0    0 -0.12812448336E+00 -0.16080683851E+01  0.12577008503E+01  0.20455100842E+01  0.51100000000E-03 0.  1.
        -12    1    3    3    0    0  0.27354351984E+02 -0.17976345002E+02  0.14926510102E+02  0.35975133855E+02  0.00000000000E+00 0.  1.
</event>
<event>
 7    1  0.2438448E-008  0.4614231E+02  0.7816164E-02  0.1320468E+00
        -11   -1    0    0    0    0  0.00000000000E+00  0.00000000000E+00  0.45593999997E+02  0.45594000000E+02  0.51100000000E-03 0.  1.
         11   -1    0    0    0    0 -0.00000000000E+00 -0.00000000000E+00 -0.45593999997E+02  0.45594000000E+02  0.51100000000E-03 0. -1.
    9900012    2    1    2    0    0 -0.36188699127E+01 -0.42082871683E+02  0.15654061236E+02  0.46142312729E+02  0.99999541138E+01 0.  0.
         12    1    1    2    0    0  0.36188699127E+01  0.42082871683E+02 -0.15654061236E+02  0.45045687271E+02  0.00000000000E+00 0. -1.
         11    1    3    3    0    0 -0.41181131763E+00 -0.10061467861E+02  0.15156617640E+01  0.10183317482E+02  0.51100000000E-03 0. -1.
        -11    1    3    3    0    0 -0.50718915131E+01 -0.28278542814E+02  0.11142438059E+02  0.30814833982E+02  0.51100000000E-03 0.  1.
        -12    1    3    3    0    0  0.18648329180E+01 -0.37428610077E+01  0.29959614126E+01  0.51441612651E+01  0.00000000000E+00 0.  1.
</event>
<event>
 7    1  0.2438448E-008  0.4614232E+02  0.7816164E-02  0.1320468E+00
        -11   -1    0    0    0    0  0.00000000000E+00  0.00000000000E+00  0.45593999997E+02  0.45594000000E+02  0.51100000000E-03 0. -1.
         11   -1    0    0    0    0 -0.00000000000E+00 -0.00000000000E+00 -0.45593999997E+02  0.45594000000E+02  0.51100000000E-03 0.  1.
    9900012    2    1    2    0    0  0.17031376917E+02 -0.12462153732E+02 -0.39796232295E+02  0.46142321182E+02  0.10000031191E+02 0.  0.
         12    1    1    2    0    0 -0.17031376917E+02  0.12462153732E+02  0.39796232295E+02  0.45045678818E+02  0.00000000000E+00 0. -1.
         11    1    3    3    0    0  0.12711599838E+02 -0.79318085710E+01 -0.31558853081E+02  0.34935076438E+02  0.51100000000E-03 0. -1.
        -11    1    3    3    0    0  0.50924231430E+01 -0.31506342377E+01 -0.60952171967E+01  0.85446440829E+01  0.51100000000E-03 0.  1.
         12    1    3    3    0    0 -0.77264606405E+00 -0.13797109232E+01 -0.21421620170E+01  0.26626006608E+01  0.00000000000E+00 0. -1.
</event>
<event>
 7    1  0.2438448E-008  0.4614232E+02  0.7816164E-02  0.1320468E+00
        -11   -1    0    0    0    0  0.00000000000E+00  0.00000000000E+00  0.45593999997E+02  0.45594000000E+02  0.51100000000E-03 0. -1.
         11   -1    0    0    0    0 -0.00000000000E+00 -0.00000000000E+00 -0.45593999997E+02  0.45594000000E+02  0.51100000000E-03 0.  1.
    9900012    2    1    2    0    0  0.18419853861E+02  0.21968376598E+02 -0.34744969842E+02  0.46142317456E+02  0.99999972135E+01 0.  0.
         12    1    1    2    0    0 -0.18419853861E+02 -0.21968376598E+02  0.34744969842E+02  0.45045682544E+02  0.00000000000E+00 0. -1.
         11    1    3    3    0    0  0.33807026256E+01  0.74696765354E+01 -0.78063320210E+01  0.11320955687E+02  0.51100000000E-03 0. -1.
        -11    1    3    3    0    0  0.13272791814E+02  0.14910914423E+02 -0.25998377481E+02  0.32778316055E+02  0.51100000000E-03 0.  1.
         12    1    3    3    0    0  0.17663594207E+01 -0.41221436026E+00 -0.94026033943E+00  0.20430457136E+01  0.00000000000E+00 0. -1.
</event>
<event>
 7    1  0.2438448E-008  0.4614232E+02  0.7816164E-02  0.1320468E+00
        -11   -1    0    0    0    0  0.00000000000E+00  0.00000000000E+00  0.45593999997E+02  0.45594000000E+02  0.51100000000E-03 0. -1.
         11   -1    0    0    0    0 -0.00000000000E+00 -0.00000000000E+00 -0.45593999997E+02  0.45594000000E+02  0.51100000000E-03 0.  1.
    9900012    2    1    2    0    0  0.27373816618E+02 -0.17282865805E+02 -0.31322359497E+02  0.46142317730E+02  0.99999997185E+01 0.  0.
         12    1    1    2    0    0 -0.27373816618E+02  0.17282865805E+02  0.31322359497E+02  0.45045682270E+02  0.00000000000E+00 0. -1.
         11    1    3    3    0    0  0.34718382690E+00 -0.22876849135E+01 -0.42536477420E+01  0.48422678826E+01  0.51100000000E-03 0. -1.
        -11    1    3    3    0    0  0.19189722308E+02 -0.12745003932E+02 -0.20223548499E+02  0.30654077733E+02  0.51100000000E-03 0.  1.
         12    1    3    3    0    0  0.78369104828E+01 -0.22501769598E+01 -0.68451632565E+01  0.10645972115E+02  0.00000000000E+00 0. -1.
</event>
<event>
 7    1  0.2438448E-008  0.4614232E+02  0.7816164E-02  0.1320468E+00
        -11   -1    0    0    0    0  0.00000000000E+00  0.00000000000E+00  0.45593999997E+02  0.45594000000E+02  0.51100000000E-03 0.  1.
         11   -1    0    0    0    0 -0.00000000000E+00 -0.00000000000E+00 -0.45593999997E+02  0.45594000000E+02  0.51100000000E-03 0. -1.
    9900012    2    1    2    0    0 -0.22556790706E+02  0.36828750839E+02  0.12804204216E+02  0.46142319398E+02  0.10000014925E+02 0.  0.
         12    1    1    2    0    0  0.22556790706E+02 -0.36828750839E+02 -0.12804204216E+02  0.45045680602E+02  0.00000000000E+00 0. -1.
         11    1    3    3    0    0 -0.14009936210E+01 -0.26112142673E+00  0.26748102638E+00  0.14500047884E+01  0.51100000000E-03 0. -1.
        -11    1    3    3    0    0 -0.36187072854E+00  0.24187293586E+01  0.37644284168E+00  0.24744517794E+01  0.51100000000E-03 0.  1.
        -12    1    3    3    0    0 -0.20793926356E+02  0.34671142907E+02  0.12160280348E+02  0.42217862830E+02  0.00000000000E+00 0.  1.
</event>
<event>
 7    1  0.2438448E-008  0.4614232E+02  0.7816164E-02  0.1320468E+00
        -11   -1    0    0    0    0  0.00000000000E+00  0.00000000000E+00  0.45593999997E+02  0.45594000000E+02  0.51100000000E-03 0.  1.
         11   -1    0    0    0    0 -0.00000000000E+00 -0.00000000000E+00 -0.45593999997E+02  0.45594000000E+02  0.51100000000E-03 0. -1.
    9900012    2    1    2    0    0 -0.35088185876E+02  0.21379914492E+02 -0.18461636192E+02  0.46142317159E+02  0.99999945084E+01 0.  0.
         12    1    1    2    0    0  0.35088185876E+02 -0.21379914492E+02  0.18461636192E+02  0.45045682841E+02  0.00000000000E+00 0. -1.
         11    1    3    3    0    0 -0.11594128602E+02  0.63506981873E+01 -0.87296340357E+01  0.15841770613E+02  0.51100000000E-03 0. -1.
        -11    1    3    3    0    0 -0.18865297777E+02  0.85223629768E+01 -0.73599004587E+01  0.21970395216E+02  0.51100000000E-03 0.  1.
        -12    1    3    3    0    0 -0.46287594967E+01  0.65068533278E+01 -0.23721016977E+01  0.83301513295E+01  0.00000000000E+00 0.  1.
</event>
<event>
 7    1  0.2438448E-008  0.4614232E+02  0.7816164E-02  0.1320468E+00
        -11   -1    0    0    0    0  0.00000000000E+00  0.00000000000E+00  0.45593999997E+02  0.45594000000E+02  0.51100000000E-03 0. -1.
         11   -1    0    0    0    0 -0.00000000000E+00 -0.00000000000E+00 -0.45593999997E+02  0.45594000000E+02  0.51100000000E-03 0.  1.
    9900012    2    1    2    0    0 -0.48822002608E+01  0.27919516704E+02 -0.35011117767E+02  0.46142315860E+02  0.99999826630E+01 0.  0.
         12    1    1    2    0    0  0.48822002608E+01 -0.27919516704E+02  0.35011117767E+02  0.45045684140E+02  0.00000000000E+00 0. -1.
         11    1    3    3    0    0  0.11738004496E+01  0.51934461478E+01 -0.10874839039E+02  0.12108336581E+02  0.51100000000E-03 0. -1.
        -11    1    3    3    0    0 -0.24197470394E+01  0.89530246719E+01 -0.12915862999E+02  0.15900671174E+02  0.51100000000E-03 0.  1.
         12    1    3    3    0    0 -0.36362536710E+01  0.13773045884E+02 -0.11220415729E+02  0.18133308105E+02  0.00000000000E+00 0. -1.
</event>
<event>
 7    1  0.2438448E-008  0.4614231E+02  0.7816164E-02  0.1320468E+00
        -11   -1    0    0    0    0  0.00000000000E+00  0.00000000000E+00  0.45593999997E+02  0.45594000000E+02  0.51100000000E-03 0.  1.
         11   -1    0    0    0    0 -0.00000000000E+00 -0.00000000000E+00 -0.45593999997E+02  0.45594000000E+02  0.51100000000E-03 0. -1.
    9900012    2    1    2    0    0  0.34742736379E+02  0.24675561480E+02 -0.14600444513E+02  0.46142311577E+02  0.99999436099E+01 0.  0.
         12    1    1    2    0    0 -0.34742736379E+02 -0.24675561480E+02  0.14600444513E+02  0.45045688423E+02  0.00000000000E+00 0. -1.
         11    1    3    3    0    0  0.74509569312E+01  0.42684849000E+01 -0.46253385503E+01  0.97534855051E+01  0.51100000000E-03 0. -1.
        -11    1    3    3    0    0  0.20550547463E+02  0.18114901914E+02 -0.53900962782E+01  0.27920025261E+02  0.51100000000E-03 0.  1.
        -12    1    3    3    0    0  0.67412319851E+01  0.22921746659E+01 -0.45850096846E+01  0.84688008114E+01  0.00000000000E+00 0.  1.
</event>
<event>
 7    1  0.2438448E-008  0.4614232E+02  0.7816164E-02  0.1320468E+00
        -11   -1    0    0    0    0  0.00000000000E+00  0.00000000000E+00  0.45593999997E+02  0.45594000000E+02  0.51100000000E-03 0.  1.
         11   -1    0    0    0    0 -0.00000000000E+00 -0.00000000000E+00 -0.45593999997E+02  0.45594000000E+02  0.51100000000E-03 0. -1.
    9900012    2    1    2    0    0  0.44523888620E+02  0.56524480992E+01 -0.38453569819E+01  0.46142316548E+02  0.99999889401E+01 0.  0.
         12    1    1    2    0    0 -0.44523888620E+02 -0.56524480992E+01  0.38453569819E+01  0.45045683452E+02  0.00000000000E+00 0. -1.
         11    1    3    3    0    0  0.13828056419E+01  0.11794408821E+01 -0.18710164287E+01  0.26084353500E+01  0.51100000000E-03 0. -1.
        -11    1    3    3    0    0  0.52460763590E+01  0.13065986778E+01 -0.97587689176E+00  0.54937103344E+01  0.51100000000E-03 0.  1.
        -12    1    3    3    0    0  0.37895006619E+02  0.31664085393E+01 -0.99846366144E+00  0.38040170864E+02  0.00000000000E+00 0.  1.
</event>
<event>
 7    1  0.2438448E-008  0.4614232E+02  0.7816164E-02  0.1320468E+00
        -11   -1    0    0    0    0  0.00000000000E+00  0.00000000000E+00  0.45593999997E+02  0.45594000000E+02  0.51100000000E-03 0.  1.
         11   -1    0    0    0    0 -0.00000000000E+00 -0.00000000000E+00 -0.45593999997E+02  0.45594000000E+02  0.51100000000E-03 0. -1.
    9900012    2    1    2    0    0  0.29292863650E+02  0.19081571293E+02  0.28406605212E+02  0.46142318260E+02  0.10000004545E+02 0.  0.
         12    1    1    2    0    0 -0.29292863650E+02 -0.19081571293E+02 -0.28406605212E+02  0.45045681740E+02  0.00000000000E+00 0. -1.
         11    1    3    3    0    0  0.46819624258E+01  0.68620611578E+01  0.68185751000E+01  0.10747168099E+02  0.51100000000E-03 0. -1.
        -11    1    3    3    0    0  0.51194180653E+01  0.15669731509E+01  0.70321414714E+01  0.88382611478E+01  0.51100000000E-03 0.  1.
        -12    1    3    3    0    0  0.19491483159E+02  0.10652536984E+02  0.14555888640E+02  0.26556889013E+02  0.00000000000E+00 0.  1.
</event>
<event>
 7    1  0.2438448E-008  0.4614232E+02  0.7816164E-02  0.1320468E+00
        -11   -1    0    0    0    0  0.00000000000E+00  0.00000000000E+00  0.45593999997E+02  0.45594000000E+02  0.51100000000E-03 0. -1.
         11   -1    0    0    0    0 -0.00000000000E+00 -0.00000000000E+00 -0.45593999997E+02  0.45594000000E+02  0.51100000000E-03 0.  1.
    9900012    2    1    2    0    0 -0.55651541140E+01 -0.44207357697E+02  0.66220887858E+01  0.46142317912E+02  0.10000001379E+02 0.  0.
         12    1    1    2    0    0  0.55651541140E+01  0.44207357697E+02 -0.66220887858E+01  0.45045682088E+02  0.00000000000E+00 0. -1.
         11    1    3    3    0    0  0.16042121919E+01 -0.54310564476E+01  0.18305913100E+01  0.59515490168E+01  0.51100000000E-03 0. -1.
        -11    1    3    3    0    0 -0.73627419434E+00 -0.18749670252E+02  0.80188832263E+00  0.18781247546E+02  0.51100000000E-03 0.  1.
        -12    1    3    3    0    0 -0.64330921116E+01 -0.20026630998E+02  0.39896091531E+01  0.21409521350E+02  0.00000000000E+00 0.  1.
</event>
<event>
 7    1  0.2438448E-008  0.4614232E+02  0.7816164E-02  0.1320468E+00
        -11   -1    0    0    0    0  0.00000000000E+00  0.00000000000E+00  0.45593999997E+02  0.45594000000E+02  0.51100000000E-03 0. -1.
         11   -1    0    0    0    0 -0.00000000000E+00 -0.00000000000E+00 -0.45593999997E+02  0.45594000000E+02  0.51100000000E-03 0.  1.
    9900012    2    1    2    0    0  0.34902514445E+02  0.19037417782E+02 -0.21177930945E+02  0.46142317082E+02  0.99999938098E+01 0.  0.
         12    1    1    2    0    0 -0.34902514445E+02 -0.19037417782E+02  0.21177930945E+02  0.45045682918E+02  0.00000000000E+00 0. -1.
         11    1    3    3    0    0  0.13513836302E+01 -0.24653899916E+00 -0.51942479936E+00  0.14686121262E+01  0.51100000000E-03 0. -1.
        -11    1    3    3    0    0  0.74986710997E+01  0.57854103254E+01 -0.91092557415E+01  0.13140760302E+02  0.51100000000E-03 0.  1.
        -12    1    3    3    0    0  0.26052459715E+02  0.13498546456E+02 -0.11549250404E+02  0.31532944654E+02  0.00000000000E+00 0.  1.
</event>
<event>
 7    1  0.2438448E-008  0.4614232E+02  0.7816164E-02  0.1320468E+00
        -11   -1    0    0    0    0  0.00000000000E+00  0.00000000000E+00  0.45593999997E+02  0.45594000000E+02  0.51100000000E-03 0.  1.
         11   -1    0    0    0    0 -0.00000000000E+00 -0.00000000000E+00 -0.45593999997E+02  0.45594000000E+02  0.51100000000E-03 0. -1.
    9900012    2    1    2    0    0 -0.34984279303E+02 -0.27294506317E+02  0.77603867377E+01  0.46142317901E+02  0.10000001279E+02 0.  0.
         12    1    1    2    0    0  0.34984279303E+02  0.27294506317E+02 -0.77603867377E+01  0.45045682099E+02  0.00000000000E+00 0. -1.
         11    1    3    3    0    0 -0.14296275481E+01 -0.20647815918E+01  0.19942924206E+01  0.32069238326E+01  0.51100000000E-03 0. -1.
        -11    1    3    3    0    0 -0.19796548404E+02 -0.17190900797E+02  0.74849886639E+00  0.26229575859E+02  0.51100000000E-03 0.  1.
         12    1    3    3    0    0 -0.13758103351E+02 -0.80388239286E+01  0.50175954507E+01  0.16705818210E+02  0.00000000000E+00 0. -1.
</event>
<event>
 7    1  0.2438448E-008  0.4614232E+02  0.7816164E-02  0.1320468E+00
        -11   -1    0    0    0    0  0.00000000000E+00  0.00000000000E+00  0.45593999997E+02  0.45594000000E+02  0.51100000000E-03 0.  1.
         11   -1    0    0    0    0 -0.00000000000E+00 -0.00000000000E+00 -0.45593999997E+02  0.45594000000E+02  0.51100000000E-03 0. -1.
    9900012    2    1    2    0    0  0.10048659224E+02  0.37956386301E+02  0.22078284463E+02  0.46142318098E+02  0.10000003070E+02 0.  0.
         12    1    1    2    0    0 -0.10048659224E+02 -0.37956386301E+02 -0.22078284463E+02  0.45045681902E+02  0.00000000000E+00 0. -1.
         11    1    3    3    0    0  0.93447201352E+01  0.18613845007E+02  0.13995738741E+02  0.25093419925E+02  0.51100000000E-03 0. -1.
        -11    1    3    3    0    0  0.30668445614E+00  0.64235768360E+01  0.18013814549E+01  0.66784257224E+01  0.51100000000E-03 0.  1.
         12    1    3    3    0    0  0.39725463278E+00  0.12918964458E+02  0.62811642669E+01  0.14370472450E+02  0.00000000000E+00 0. -1.
</event>
<event>
 7    1  0.2438448E-008  0.4614232E+02  0.7816164E-02  0.1320468E+00
        -11   -1    0    0    0    0  0.00000000000E+00  0.00000000000E+00  0.45593999997E+02  0.45594000000E+02  0.51100000000E-03 0. -1.
         11   -1    0    0    0    0 -0.00000000000E+00 -0.00000000000E+00 -0.45593999997E+02  0.45594000000E+02  0.51100000000E-03 0.  1.
    9900012    2    1    2    0    0  0.35740707361E+02 -0.25573951662E+02 -0.98837399749E+01  0.46142317830E+02  0.10000000630E+02 0.  0.
         12    1    1    2    0    0 -0.35740707361E+02  0.25573951662E+02  0.98837399749E+01  0.45045682170E+02  0.00000000000E+00 0. -1.
         11    1    3    3    0    0  0.11132140211E+02 -0.35251953553E+01 -0.37594646819E+01  0.12267237788E+02  0.51100000000E-03 0. -1.
        -11    1    3    3    0    0  0.13561914132E+02 -0.93243830375E+01 -0.26482223683E+01  0.16669814514E+02  0.51100000000E-03 0.  1.
         12    1    3    3    0    0  0.11046653017E+02 -0.12724373269E+02 -0.34760529248E+01  0.17205265529E+02  0.00000000000E+00 0. -1.
</event>
<event>
 7    1  0.2438448E-008  0.4614232E+02  0.7816164E-02  0.1320468E+00
        -11   -1    0    0    0    0  0.00000000000E+00  0.00000000000E+00  0.45593999997E+02  0.45594000000E+02  0.51100000000E-03 0.  1.
         11   -1    0    0    0    0 -0.00000000000E+00 -0.00000000000E+00 -0.45593999997E+02  0.45594000000E+02  0.51100000000E-03 0. -1.
    9900012    2    1    2    0    0 -0.10325089430E+02  0.19375340082E+02  0.39333217417E+02  0.46142320214E+02  0.10000022368E+02 0.  0.
         12    1    1    2    0    0  0.10325089430E+02 -0.19375340082E+02 -0.39333217417E+02  0.45045679786E+02  0.00000000000E+00 0. -1.
         11    1    3    3    0    0 -0.38400624889E+01  0.52376646681E+01  0.72888916896E+01  0.97625382672E+01  0.51100000000E-03 0. -1.
        -11    1    3    3    0    0 -0.81511711843E+01  0.11653941782E+02  0.25969345181E+02  0.29608492703E+02  0.51100000000E-03 0.  1.
        -12    1    3    3    0    0  0.16661442432E+01  0.24837336312E+01  0.60749805458E+01  0.67712892437E+01  0.00000000000E+00 0.  1.
</event>
<event>
 7    1  0.2438448E-008  0.4614232E+02  0.7816164E-02  0.1320468E+00
        -11   -1    0    0    0    0  0.00000000000E+00  0.00000000000E+00  0.45593999997E+02  0.45594000000E+02  0.51100000000E-03 0.  1.
         11   -1    0    0    0    0 -0.00000000000E+00 -0.00000000000E+00 -0.45593999997E+02  0.45594000000E+02  0.51100000000E-03 0. -1.
    9900012    2    1    2    0    0 -0.15468042682E+02  0.23930473974E+02  0.34888186693E+02  0.46142317635E+02  0.99999988505E+01 0.  0.
         12    1    1    2    0    0  0.15468042682E+02 -0.23930473974E+02 -0.34888186693E+02  0.45045682365E+02  0.00000000000E+00 0. -1.
         11    1    3    3    0    0 -0.28414195760E+00  0.30814462719E+00 -0.53133054725E+00  0.67675857948E+00  0.51100000000E-03 0. -1.
        -11    1    3    3    0    0 -0.14778285339E+01  0.43718149480E+00  0.24345296413E+01  0.28813260264E+01  0.51100000000E-03 0.  1.
         12    1    3    3    0    0 -0.13706072191E+02  0.23185147852E+02  0.32984987599E+02  0.42584233029E+02  0.00000000000E+00 0. -1.
</event>
<event>
 7    1  0.2438448E-008  0.4614232E+02  0.7816164E-02  0.1320468E+00
        -11   -1    0    0    0    0  0.00000000000E+00  0.00000000000E+00  0.45593999997E+02  0.45594000000E+02  0.51100000000E-03 0.  1.
         11   -1    0    0    0    0 -0.00000000000E+00 -0.00000000000E+00 -0.45593999997E+02  0.45594000000E+02  0.51100000000E-03 0. -1.
    9900012    2    1    2    0    0  0.10187894050E+02 -0.14676622805E+02  0.41351145050E+02  0.46142316088E+02  0.99999847462E+01 0.  0.
         12    1    1    2    0    0 -0.10187894050E+02  0.14676622805E+02 -0.41351145050E+02  0.45045683912E+02  0.00000000000E+00 0. -1.
         11    1    3    3    0    0  0.11502582953E+01 -0.49528560676E+01  0.16400975683E+02  0.17171076873E+02  0.51100000000E-03 0. -1.
        -11    1    3    3    0    0  0.57222875169E+01 -0.80388686901E+01  0.22356233477E+02  0.24437044825E+02  0.51100000000E-03 0.  1.
        -12    1    3    3    0    0  0.33153482374E+01 -0.16848980475E+01  0.25939358901E+01  0.45341943902E+01  0.00000000000E+00 0.  1.
</event>
<event>
 7    1  0.2438448E-008  0.4614232E+02  0.7816164E-02  0.1320468E+00
        -11   -1    0    0    0    0  0.00000000000E+00  0.00000000000E+00  0.45593999997E+02  0.45594000000E+02  0.51100000000E-03 0.  1.
         11   -1    0    0    0    0 -0.00000000000E+00 -0.00000000000E+00 -0.45593999997E+02  0.45594000000E+02  0.51100000000E-03 0. -1.
    9900012    2    1    2    0    0  0.28399488033E+02  0.54750478030E+01  0.34534135464E+02  0.46142316730E+02  0.99999905958E+01 0.  0.
         12    1    1    2    0    0 -0.28399488033E+02 -0.54750478030E+01 -0.34534135464E+02  0.45045683270E+02  0.00000000000E+00 0. -1.
         11    1    3    3    0    0 -0.24578110980E+00 -0.60240473051E+00  0.16969341246E+01  0.18173842460E+01  0.51100000000E-03 0. -1.
        -11    1    3    3    0    0  0.11101090553E+02  0.42382378392E+01  0.10459169780E+02  0.15830069621E+02  0.51100000000E-03 0.  1.
        -12    1    3    3    0    0  0.17544178590E+02  0.18392146943E+01  0.22378031560E+02  0.28494862863E+02  0.00000000000E+00 0.  1.
</event>
<event>
 7    1  0.2438448E-008  0.4614232E+02  0.7816164E-02  0.1320468E+00
        -11   -1    0    0    0    0  0.00000000000E+00  0.00000000000E+00  0.45593999997E+02  0.45594000000E+02  0.51100000000E-03 0. -1.
         11   -1    0    0    0    0 -0.00000000000E+00 -0.00000000000E+00 -0.45593999997E+02  0.45594000000E+02  0.51100000000E-03 0.  1.
    9900012    2    1    2    0    0 -0.28850439367E+02  0.22798930464E+02 -0.26018729608E+02  0.46142319048E+02  0.10000011738E+02 0.  0.
         12    1    1    2    0    0  0.28850439367E+02 -0.22798930464E+02  0.26018729608E+02  0.45045680952E+02  0.00000000000E+00 0. -1.
         11    1    3    3    0    0 -0.65350359516E+01  0.72577955020E+01 -0.12153284790E+02  0.15591171280E+02  0.51100000000E-03 0. -1.
        -11    1    3    3    0    0 -0.14463362170E+02  0.10086875421E+02 -0.96677965284E+01  0.20109703901E+02  0.51100000000E-03 0.  1.
         12    1    3    3    0    0 -0.78520412458E+01  0.54542595417E+01 -0.41976482895E+01  0.10441443867E+02  0.00000000000E+00 0. -1.
</event>
<event>
 7    1  0.2438448E-008  0.4614232E+02  0.7816164E-02  0.1320468E+00
        -11   -1    0    0    0    0  0.00000000000E+00  0.00000000000E+00  0.45593999997E+02  0.45594000000E+02  0.51100000000E-03 0.  1.
         11   -1    0    0    0    0 -0.00000000000E+00 -0.00000000000E+00 -0.45593999997E+02  0.45594000000E+02  0.51100000000E-03 0. -1.
    9900012    2    1    2    0    0  0.19363688436E+02  0.31528669046E+02  0.25692491829E+02  0.46142317210E+02  0.99999949742E+01 0.  0.
         12    1    1    2    0    0 -0.19363688436E+02 -0.31528669046E+02 -0.25692491829E+02  0.45045682790E+02  0.00000000000E+00 0. -1.
         11    1    3    3    0    0  0.59367467489E+01  0.64768475311E+01  0.17520402963E+01  0.89590268089E+01  0.51100000000E-03 0. -1.
        -11    1    3    3    0    0  0.89455230925E+01  0.15523497588E+02  0.14748669405E+02  0.23206133031E+02  0.51100000000E-03 0.  1.
         12    1    3    3    0    0  0.44814185941E+01  0.95283239274E+01  0.91917821274E+01  0.13977157370E+02  0.00000000000E+00 0. -1.
</event>
<event>
 7    1  0.2438448E-008  0.4614232E+02  0.7816164E-02  0.1320468E+00
        -11   -1    0    0    0    0  0.00000000000E+00  0.00000000000E+00  0.45593999997E+02  0.45594000000E+02  0.51100000000E-03 0. -1.
         11   -1    0    0    0    0 -0.00000000000E+00 -0.00000000000E+00 -0.45593999997E+02  0.45594000000E+02  0.51100000000E-03 0.  1.
    9900012    2    1    2    0    0  0.16122551689E+02 -0.22732214661E+01 -0.42000111198E+02  0.46142317083E+02  0.99999938191E+01 0.  0.
         12    1    1    2    0    0 -0.16122551689E+02  0.22732214661E+01  0.42000111198E+02  0.45045682917E+02  0.00000000000E+00 0. -1.
         11    1    3    3    0    0  0.35682945895E+01  0.23646903851E+01 -0.17887382958E+02  0.18392470096E+02  0.51100000000E-03 0. -1.
        -11    1    3    3    0    0  0.63632041636E+01 -0.36017983315E+01 -0.14961969267E+02  0.16653043057E+02  0.51100000000E-03 0.  1.
         12    1    3    3    0    0  0.61910529363E+01 -0.10361135197E+01 -0.91507589730E+01  0.11096803930E+02  0.00000000000E+00 0. -1.
</event>
<event>
 7    1  0.2438448E-008  0.4614232E+02  0.7816164E-02  0.1320468E+00
        -11   -1    0    0    0    0  0.00000000000E+00  0.00000000000E+00  0.45593999997E+02  0.45594000000E+02  0.51100000000E-03 0.  1.
         11   -1    0    0    0    0 -0.00000000000E+00 -0.00000000000E+00 -0.45593999997E+02  0.45594000000E+02  0.51100000000E-03 0. -1.
    9900012    2    1    2    0    0  0.16041022153E+02 -0.34401338469E+02 -0.24255865313E+02  0.46142317829E+02  0.10000000615E+02 0.  0.
         12    1    1    2    0    0 -0.16041022153E+02  0.34401338469E+02  0.24255865313E+02  0.45045682171E+02  0.00000000000E+00 0. -1.
         11    1    3    3    0    0  0.44807388561E+01 -0.15308958110E+02 -0.13724089308E+02  0.21042619768E+02  0.51100000000E-03 0. -1.
        -11    1    3    3    0    0  0.74614956174E+01 -0.79306291173E+01 -0.48057682988E+01  0.11902277271E+02  0.51100000000E-03 0.  1.
         12    1    3    3    0    0  0.40987876793E+01 -0.11161751242E+02 -0.57260077070E+01  0.13197420789E+02  0.00000000000E+00 0. -1.
</event>
<event>
 7    1  0.2438448E-008  0.4614233E+02  0.7816164E-02  0.1320468E+00
        -11   -1    0    0    0    0  0.00000000000E+00  0.00000000000E+00  0.45593999997E+02  0.45594000000E+02  0.51100000000E-03 0.  1.
         11   -1    0    0    0    0 -0.00000000000E+00 -0.00000000000E+00 -0.45593999997E+02  0.45594000000E+02  0.51100000000E-03 0. -1.
    9900012    2    1    2    0    0  0.31766991883E+02 -0.10333884700E+02  0.30218898347E+02  0.46142325806E+02  0.10000073363E+02 0.  0.
         12    1    1    2    0    0 -0.31766991883E+02  0.10333884700E+02 -0.30218898347E+02  0.45045674194E+02  0.00000000000E+00 0. -1.
         11    1    3    3    0    0  0.53063620523E+01 -0.44248152256E+01  0.75646186169E+01  0.10244995026E+02  0.51100000000E-03 0. -1.
        -11    1    3    3    0    0  0.25796813011E+02 -0.53872882179E+01  0.19917870623E+02  0.33033619333E+02  0.51100000000E-03 0.  1.
         12    1    3    3    0    0  0.66381681990E+00 -0.52178125654E+00  0.27364091066E+01  0.28637114465E+01  0.00000000000E+00 0. -1.
</event>
<event>
 7    1  0.2438448E-008  0.4614232E+02  0.7816164E-02  0.1320468E+00
        -11   -1    0    0    0    0  0.00000000000E+00  0.00000000000E+00  0.45593999997E+02  0.45594000000E+02  0.51100000000E-03 0.  1.
         11   -1    0    0    0    0 -0.00000000000E+00 -0.00000000000E+00 -0.45593999997E+02  0.45594000000E+02  0.51100000000E-03 0. -1.
    9900012    2    1    2    0    0 -0.13391108707E+01 -0.16487116926E+01  0.44995577084E+02  0.46142318461E+02  0.10000006383E+02 0.  0.
         12    1    1    2    0    0  0.13391108707E+01  0.16487116926E+01 -0.44995577084E+02  0.45045681539E+02  0.00000000000E+00 0. -1.
         11    1    3    3    0    0 -0.23542820918E+01  0.25850287729E+01  0.11561475973E+02  0.12078606909E+02  0.51100000000E-03 0. -1.
        -11    1    3    3    0    0  0.58808300121E+00 -0.20968035751E+01  0.29383743341E+02  0.29464330975E+02  0.51100000000E-03 0.  1.
        -12    1    3    3    0    0  0.42708821989E+00 -0.21369368904E+01  0.40503577702E+01  0.45993805765E+01  0.00000000000E+00 0.  1.
</event>
<event>
 7    1  0.2438448E-008  0.4614232E+02  0.7816164E-02  0.1320468E+00
        -11   -1    0    0    0    0  0.00000000000E+00  0.00000000000E+00  0.45593999997E+02  0.45594000000E+02  0.51100000000E-03 0.  1.
         11   -1    0    0    0    0 -0.00000000000E+00 -0.00000000000E+00 -0.45593999997E+02  0.45594000000E+02  0.51100000000E-03 0. -1.
    9900012    2    1    2    0    0  0.32893388263E+02 -0.15150968605E+02  0.26787808567E+02  0.46142317311E+02  0.99999958963E+01 0.  0.
         12    1    1    2    0    0 -0.32893388263E+02  0.15150968605E+02 -0.26787808567E+02  0.45045682689E+02  0.00000000000E+00 0. -1.
         11    1    3    3    0    0  0.90368924984E+01 -0.63326655407E+01  0.98251900229E+01  0.14775061358E+02  0.51100000000E-03 0. -1.
        -11    1    3    3    0    0  0.14003073217E+02 -0.69560314621E+01  0.13794296365E+02  0.20850780457E+02  0.51100000000E-03 0.  1.
         12    1    3    3    0    0  0.98534225482E+01 -0.18622716019E+01  0.31683221794E+01  0.10516475496E+02  0.00000000000E+00 0. -1.
</event>
<event>
 7    1  0.2438448E-008  0.4614232E+02  0.7816164E-02  0.1320468E+00
        -11   -1    0    0    0    0  0.00000000000E+00  0.00000000000E+00  0.45593999997E+02  0.45594000000E+02  0.51100000000E-03 0. -1.
         11   -1    0    0    0    0 -0.00000000000E+00 -0.00000000000E+00 -0.45593999997E+02  0.45594000000E+02  0.51100000000E-03 0.  1.
    9900012    2    1    2    0    0 -0.61316485616E+01 -0.39889641344E+02 -0.20008321670E+02  0.46142317225E+02  0.99999951106E+01 0.  0.
         12    1    1    2    0    0  0.61316485616E+01  0.39889641344E+02  0.20008321670E+02  0.45045682775E+02  0.00000000000E+00 0. -1.
         11    1    3    3    0    0 -0.95441482287E+00 -0.58232469250E+00 -0.36077572036E+00  0.11748059768E+01  0.51100000000E-03 0. -1.
        -11    1    3    3    0    0 -0.47545331475E+01 -0.93962754968E+01 -0.53724354610E+01  0.11821955917E+02  0.51100000000E-03 0.  1.
         12    1    3    3    0    0 -0.42270059129E+00 -0.29911041155E+02 -0.14275110489E+02  0.33145555331E+02  0.00000000000E+00 0. -1.
</event>
<event>
 7    1  0.2438448E-008  0.4614232E+02  0.7816164E-02  0.1320468E+00
        -11   -1    0    0    0    0  0.00000000000E+00  0.00000000000E+00  0.45593999997E+02  0.45594000000E+02  0.51100000000E-03 0. -1.
         11   -1    0    0    0    0 -0.00000000000E+00 -0.00000000000E+00 -0.45593999997E+02  0.45594000000E+02  0.51100000000E-03 0.  1.
    9900012    2    1    2    0    0  0.45037703717E+02  0.30979531390E-01 -0.84717719314E+00  0.46142318464E+02  0.10000006412E+02 0.  0.
         12    1    1    2    0    0 -0.45037703717E+02 -0.30979531390E-01  0.84717719314E+00  0.45045681536E+02  0.00000000000E+00 0. -1.
         11    1    3    3    0    0  0.21137341080E+02  0.10148254375E+01 -0.67332820784E+00  0.21172397827E+02  0.51100000000E-03 0. -1.
        -11    1    3    3    0    0  0.40510155088E+01  0.15924012656E+01 -0.21536608844E+01  0.48564105993E+01  0.51100000000E-03 0.  1.
        -12    1    3    3    0    0  0.19849347128E+02 -0.25762471717E+01  0.19798118991E+01  0.20113510038E+02  0.00000000000E+00 0.  1.
</event>
<event>
 7    1  0.2438448E-008  0.4614232E+02  0.7816164E-02  0.1320468E+00
        -11   -1    0    0    0    0  0.00000000000E+00  0.00000000000E+00  0.45593999997E+02  0.45594000000E+02  0.51100000000E-03 0.  1.
         11   -1    0    0    0    0 -0.00000000000E+00 -0.00000000000E+00 -0.45593999997E+02  0.45594000000E+02  0.51100000000E-03 0. -1.
    9900012    2    1    2    0    0  0.31302525283E+02 -0.10577907548E+02  0.30616552088E+02  0.46142317866E+02  0.10000000955E+02 0.  0.
         12    1    1    2    0    0 -0.31302525283E+02  0.10577907548E+02 -0.30616552088E+02  0.45045682134E+02  0.00000000000E+00 0. -1.
         11    1    3    3    0    0  0.62977088021E+01 -0.18656119746E+01  0.24492702573E+01  0.70100334700E+01  0.51100000000E-03 0. -1.
        -11    1    3    3    0    0  0.13510825514E+02 -0.15189335279E+01  0.13578456282E+02  0.19215203366E+02  0.51100000000E-03 0.  1.
         12    1    3    3    0    0  0.11493990967E+02 -0.71933620458E+01  0.14588825548E+02  0.19917081030E+02  0.00000000000E+00 0. -1.
</event>
<event>
 7    1  0.2438448E-008  0.4614232E+02  0.7816164E-02  0.1320468E+00
        -11   -1    0    0    0    0  0.00000000000E+00  0.00000000000E+00  0.45593999997E+02  0.45594000000E+02  0.51100000000E-03 0. -1.
         11   -1    0    0    0    0 -0.00000000000E+00 -0.00000000000E+00 -0.45593999997E+02  0.45594000000E+02  0.51100000000E-03 0.  1.
    9900012    2    1    2    0    0  0.25722815460E+02 -0.33608241671E+02  0.15425184887E+02  0.46142317940E+02  0.10000001635E+02 0.  0.
         12    1    1    2    0    0 -0.25722815460E+02  0.33608241671E+02 -0.15425184887E+02  0.45045682060E+02  0.00000000000E+00 0. -1.
         11    1    3    3    0    0  0.70327432132E+00  0.48329804097E+00 -0.23618934231E+00  0.88541370781E+00  0.51100000000E-03 0. -1.
        -11    1    3    3    0    0  0.17697054756E+02 -0.23785594862E+02  0.90933892669E+01  0.31010159603E+02  0.51100000000E-03 0.  1.
         12    1    3    3    0    0  0.73224863823E+01 -0.10305944850E+02  0.65679849626E+01  0.14246744630E+02  0.00000000000E+00 0. -1.
</event>
<event>
 7    1  0.2438448E-008  0.4614232E+02  0.7816164E-02  0.1320468E+00
        -11   -1    0    0    0    0  0.00000000000E+00  0.00000000000E+00  0.45593999997E+02  0.45594000000E+02  0.51100000000E-03 0.  1.
         11   -1    0    0    0    0 -0.00000000000E+00 -0.00000000000E+00 -0.45593999997E+02  0.45594000000E+02  0.51100000000E-03 0. -1.
    9900012    2    1    2    0    0 -0.31997496110E+01 -0.90006223745E+01  0.44021176224E+02  0.46142317001E+02  0.99999930717E+01 0.  0.
         12    1    1    2    0    0  0.31997496110E+01  0.90006223745E+01 -0.44021176224E+02  0.45045682999E+02  0.00000000000E+00 0. -1.
         11    1    3    3    0    0  0.17834229457E+01 -0.17067302523E+01  0.25206250773E+01  0.35280414678E+01  0.51100000000E-03 0. -1.
        -11    1    3    3    0    0 -0.43979590274E+01 -0.45498734017E+01  0.21309603543E+02  0.22229318365E+02  0.51100000000E-03 0.  1.
         12    1    3    3    0    0 -0.58521352932E+00 -0.27440187205E+01  0.20190947604E+02  0.20384957168E+02  0.00000000000E+00 0. -1.
</event>
<event>
 7    1  0.2438448E-008  0.4614232E+02  0.7816164E-02  0.1320468E+00
        -11   -1    0    0    0    0  0.00000000000E+00  0.00000000000E+00  0.45593999997E+02  0.45594000000E+02  0.51100000000E-03 0.  1.
         11   -1    0    0    0    0 -0.00000000000E+00 -0.00000000000E+00 -0.45593999997E+02  0.45594000000E+02  0.51100000000E-03 0. -1.
    9900012    2    1    2    0    0  0.23624535254E+02  0.19784839968E+02  0.32856580871E+02  0.46142318020E+02  0.10000002361E+02 0.  0.
         12    1    1    2    0    0 -0.23624535254E+02 -0.19784839968E+02 -0.32856580871E+02  0.45045681980E+02  0.00000000000E+00 0. -1.
         11    1    3    3    0    0  0.16016935896E+01  0.17621278239E+01  0.56193964390E+01  0.61031248900E+01  0.51100000000E-03 0.  1.
        -11    1    3    3    0    0  0.88813091859E-01 -0.56942650157E+00  0.35734079245E+00  0.67810545570E+00  0.51100000000E-03 0. -1.
         12    1    3    3    0    0  0.21934028573E+02  0.18592138645E+02  0.26879843639E+02  0.39361087674E+02  0.00000000000E+00 0. -1.
</event>
<event>
 7    1  0.2438448E-008  0.4614232E+02  0.7816164E-02  0.1320468E+00
        -11   -1    0    0    0    0  0.00000000000E+00  0.00000000000E+00  0.45593999997E+02  0.45594000000E+02  0.51100000000E-03 0.  1.
         11   -1    0    0    0    0 -0.00000000000E+00 -0.00000000000E+00 -0.45593999997E+02  0.45594000000E+02  0.51100000000E-03 0. -1.
    9900012    2    1    2    0    0 -0.35332003978E+02  0.23186303534E+02  0.15593533818E+02  0.46142317925E+02  0.10000001495E+02 0.  0.
         12    1    1    2    0    0  0.35332003978E+02 -0.23186303534E+02 -0.15593533818E+02  0.45045682075E+02  0.00000000000E+00 0. -1.
         11    1    3    3    0    0 -0.14134728892E+02  0.98290537091E+01  0.89048040923E+01  0.19382889203E+02  0.51100000000E-03 0. -1.
        -11    1    3    3    0    0 -0.18859535340E+01  0.38995035623E+01  0.18984549542E+01  0.47293847633E+01  0.51100000000E-03 0.  1.
         12    1    3    3    0    0 -0.19311321552E+02  0.94577462622E+01  0.47902747716E+01  0.22030043959E+02  0.00000000000E+00 0. -1.
</event>
<event>
 7    1  0.2438448E-008  0.4614232E+02  0.7816164E-02  0.1320468E+00
        -11   -1    0    0    0    0  0.00000000000E+00  0.00000000000E+00  0.45593999997E+02  0.45594000000E+02  0.51100000000E-03 0.  1.
         11   -1    0    0    0    0 -0.00000000000E+00 -0.00000000000E+00 -0.45593999997E+02  0.45594000000E+02  0.51100000000E-03 0. -1.
    9900012    2    1    2    0    0  0.15583761974E+02  0.26355550665E+02  0.33040046973E+02  0.46142318830E+02  0.10000009746E+02 0.  0.
         12    1    1    2    0    0 -0.15583761974E+02 -0.26355550665E+02 -0.33040046973E+02  0.45045681170E+02  0.00000000000E+00 0. -1.
         11    1    3    3    0    0  0.47592277543E+01  0.69439534299E+01  0.11307143245E+02  0.14096816190E+02  0.51100000000E-03 0. -1.
        -11    1    3    3    0    0  0.10072025110E+02  0.12275186005E+02  0.17835287424E+02  0.23879350054E+02  0.51100000000E-03 0.  1.
         12    1    3    3    0    0  0.75250910933E+00  0.71364112299E+01  0.38976163041E+01  0.81661525859E+01  0.00000000000E+00 0. -1.
</event>
<event>
 7    1  0.2438448E-008  0.4614232E+02  0.7816164E-02  0.1320468E+00
        -11   -1    0    0    0    0  0.00000000000E+00  0.00000000000E+00  0.45593999997E+02  0.45594000000E+02  0.51100000000E-03 0.  1.
         11   -1    0    0    0    0 -0.00000000000E+00 -0.00000000000E+00 -0.45593999997E+02  0.45594000000E+02  0.51100000000E-03 0. -1.
    9900012    2    1    2    0    0 -0.20721081984E+02 -0.38875006070E+02  0.94066002697E+01  0.46142318030E+02  0.10000002451E+02 0.  0.
         12    1    1    2    0    0  0.20721081984E+02  0.38875006070E+02 -0.94066002697E+01  0.45045681970E+02  0.00000000000E+00 0. -1.
         11    1    3    3    0    0 -0.66592870066E+01 -0.13312597431E+02 -0.41055598159E+00  0.14890933828E+02  0.51100000000E-03 0. -1.
        -11    1    3    3    0    0 -0.55912196255E+01 -0.15180930085E+02  0.65965869825E+01  0.17471042763E+02  0.51100000000E-03 0.  1.
        -12    1    3    3    0    0 -0.84705753520E+01 -0.10381478554E+02  0.32205692687E+01  0.13780341439E+02  0.00000000000E+00 0.  1.
</event>
<event>
 7    1  0.2438448E-008  0.4614232E+02  0.7816164E-02  0.1320468E+00
        -11   -1    0    0    0    0  0.00000000000E+00  0.00000000000E+00  0.45593999997E+02  0.45594000000E+02  0.51100000000E-03 0.  1.
         11   -1    0    0    0    0 -0.00000000000E+00 -0.00000000000E+00 -0.45593999997E+02  0.45594000000E+02  0.51100000000E-03 0. -1.
    9900012    2    1    2    0    0 -0.24577018189E+02 -0.17991052662E+02  0.33187431823E+02  0.46142318409E+02  0.10000005912E+02 0.  0.
         12    1    1    2    0    0  0.24577018189E+02  0.17991052662E+02 -0.33187431823E+02  0.45045681591E+02  0.00000000000E+00 0. -1.
         11    1    3    3    0    0 -0.12009114371E+02 -0.73743591845E+01  0.19210486265E+02  0.23825255175E+02  0.51100000000E-03 0. -1.
        -11    1    3    3    0    0 -0.98763454576E+01 -0.68718446288E+01  0.12779846217E+02  0.17552461873E+02  0.51100000000E-03 0.  1.
         12    1    3    3    0    0 -0.26915583599E+01 -0.37448488489E+01  0.11970993417E+01  0.47646013621E+01  0.00000000000E+00 0. -1.
</event>
<event>
 7    1  0.2438448E-008  0.4614232E+02  0.7816164E-02  0.1320468E+00
        -11   -1    0    0    0    0  0.00000000000E+00  0.00000000000E+00  0.45593999997E+02  0.45594000000E+02  0.51100000000E-03 0. -1.
         11   -1    0    0    0    0 -0.00000000000E+00 -0.00000000000E+00 -0.45593999997E+02  0.45594000000E+02  0.51100000000E-03 0.  1.
    9900012    2    1    2    0    0  0.39373578093E+02  0.16365873270E+02 -0.14525599515E+02  0.46142317621E+02  0.99999987183E+01 0.  0.
         12    1    1    2    0    0 -0.39373578093E+02 -0.16365873270E+02  0.14525599515E+02  0.45045682379E+02  0.00000000000E+00 0. -1.
         11    1    3    3    0    0  0.48968586787E+01  0.47322287843E+01 -0.26739358059E+01  0.73159515541E+01  0.51100000000E-03 0. -1.
        -11    1    3    3    0    0  0.91701928816E+01  0.30065240534E+00 -0.39900032725E+01  0.10005146462E+02  0.51100000000E-03 0.  1.
         12    1    3    3    0    0  0.25306526533E+02  0.11332992080E+02 -0.78616604368E+01  0.28821219604E+02  0.00000000000E+00 0. -1.
</event>
<event>
 7    1  0.2438448E-008  0.4614232E+02  0.7816164E-02  0.1320468E+00
        -11   -1    0    0    0    0  0.00000000000E+00  0.00000000000E+00  0.45593999997E+02  0.45594000000E+02  0.51100000000E-03 0.  1.
         11   -1    0    0    0    0 -0.00000000000E+00 -0.00000000000E+00 -0.45593999997E+02  0.45594000000E+02  0.51100000000E-03 0. -1.
    9900012    2    1    2    0    0  0.40768359545E+02  0.85315802007E+01  0.17154197337E+02  0.46142317776E+02  0.10000000136E+02 0.  0.
         12    1    1    2    0    0 -0.40768359545E+02 -0.85315802007E+01 -0.17154197337E+02  0.45045682224E+02  0.00000000000E+00 0. -1.
         11    1    3    3    0    0  0.14970203069E+02 -0.15148357020E+01  0.48362603522E+01  0.15804781605E+02  0.51100000000E-03 0. -1.
        -11    1    3    3    0    0  0.49484507877E+01  0.14363481784E+01  0.19191721686E+01  0.54984982824E+01  0.51100000000E-03 0.  1.
         12    1    3    3    0    0  0.20849705689E+02  0.86100677242E+01  0.10398764816E+02  0.24839037889E+02  0.00000000000E+00 0. -1.
</event>
<event>
 7    1  0.2438448E-008  0.4614232E+02  0.7816164E-02  0.1320468E+00
        -11   -1    0    0    0    0  0.00000000000E+00  0.00000000000E+00  0.45593999997E+02  0.45594000000E+02  0.51100000000E-03 0. -1.
         11   -1    0    0    0    0 -0.00000000000E+00 -0.00000000000E+00 -0.45593999997E+02  0.45594000000E+02  0.51100000000E-03 0.  1.
    9900012    2    1    2    0    0  0.14270912101E+02 -0.36613711245E+02 -0.22020237617E+02  0.46142315989E+02  0.99999838422E+01 0.  0.
         12    1    1    2    0    0 -0.14270912101E+02  0.36613711245E+02  0.22020237617E+02  0.45045684011E+02  0.00000000000E+00 0. -1.
         11    1    3    3    0    0  0.27409363243E+01 -0.36818930586E+01  0.11764241032E+00  0.45916128350E+01  0.51100000000E-03 0.  1.
        -11    1    3    3    0    0  0.14765491582E+01 -0.22309355696E+01 -0.29258039268E+01  0.39645428251E+01  0.51100000000E-03 0. -1.
        -12    1    3    3    0    0  0.10053426618E+02 -0.30700882616E+02 -0.19212076100E+02  0.37586160329E+02  0.00000000000E+00 0.  1.
</event>
<event>
 7    1  0.2438448E-008  0.4614232E+02  0.7816164E-02  0.1320468E+00
        -11   -1    0    0    0    0  0.00000000000E+00  0.00000000000E+00  0.45593999997E+02  0.45594000000E+02  0.51100000000E-03 0.  1.
         11   -1    0    0    0    0 -0.00000000000E+00 -0.00000000000E+00 -0.45593999997E+02  0.45594000000E+02  0.51100000000E-03 0. -1.
    9900012    2    1    2    0    0  0.29807959527E+02  0.33383172887E+02 -0.51149477644E+01  0.46142319033E+02  0.10000011598E+02 0.  0.
         12    1    1    2    0    0 -0.29807959527E+02 -0.33383172887E+02  0.51149477644E+01  0.45045680967E+02  0.00000000000E+00 0. -1.
         11    1    3    3    0    0  0.21580100293E+01  0.17329344880E+01 -0.27932283676E+01  0.39321996644E+01  0.51100000000E-03 0. -1.
        -11    1    3    3    0    0  0.14244522986E+02  0.14702184444E+02 -0.23134298996E+01  0.20601277162E+02  0.51100000000E-03 0.  1.
         12    1    3    3    0    0  0.13405426511E+02  0.16948053954E+02 -0.82894972860E-02  0.21608842207E+02  0.00000000000E+00 0. -1.
</event>
<event>
 7    1  0.2438448E-008  0.4614231E+02  0.7816164E-02  0.1320468E+00
        -11   -1    0    0    0    0  0.00000000000E+00  0.00000000000E+00  0.45593999997E+02  0.45594000000E+02  0.51100000000E-03 0.  1.
         11   -1    0    0    0    0 -0.00000000000E+00 -0.00000000000E+00 -0.45593999997E+02  0.45594000000E+02  0.51100000000E-03 0. -1.
    9900012    2    1    2    0    0 -0.12455676418E+02  0.37359240261E+02  0.21869089406E+02  0.46142314531E+02  0.99999705477E+01 0.  0.
         12    1    1    2    0    0  0.12455676418E+02 -0.37359240261E+02 -0.21869089406E+02  0.45045685469E+02  0.00000000000E+00 0. -1.
         11    1    3    3    0    0 -0.29318487825E+01  0.90542320033E+01  0.87642446816E+01  0.12937806597E+02  0.51100000000E-03 0. -1.
        -11    1    3    3    0    0 -0.66691967064E+00  0.56375365576E+01  0.49685134610E+01  0.75440523964E+01  0.51100000000E-03 0.  1.
        -12    1    3    3    0    0 -0.88569079646E+01  0.22667471700E+02  0.81363312637E+01  0.25660455537E+02  0.00000000000E+00 0.  1.
</event>
<event>
 7    1  0.2438448E-008  0.4614232E+02  0.7816164E-02  0.1320468E+00
        -11   -1    0    0    0    0  0.00000000000E+00  0.00000000000E+00  0.45593999997E+02  0.45594000000E+02  0.51100000000E-03 0. -1.
         11   -1    0    0    0    0 -0.00000000000E+00 -0.00000000000E+00 -0.45593999997E+02  0.45594000000E+02  0.51100000000E-03 0.  1.
    9900012    2    1    2    0    0 -0.31265263536E+02 -0.30275884885E+02 -0.11617556598E+02  0.46142317290E+02  0.99999957001E+01 0.  0.
         12    1    1    2    0    0  0.31265263536E+02  0.30275884885E+02  0.11617556598E+02  0.45045682710E+02  0.00000000000E+00 0. -1.
         11    1    3    3    0    0 -0.16413598967E+02 -0.19560289486E+02 -0.79865087870E+01  0.26754354388E+02  0.51100000000E-03 0. -1.
        -11    1    3    3    0    0 -0.81731519561E+01 -0.69204678255E+01 -0.45806413791E+01  0.11647985385E+02  0.51100000000E-03 0.  1.
         12    1    3    3    0    0 -0.66785126130E+01 -0.37951275731E+01  0.94959356832E+00  0.77399775169E+01  0.00000000000E+00 0. -1.
</event>
<event>
 7    1  0.2438448E-008  0.4614232E+02  0.7816164E-02  0.1320468E+00
        -11   -1    0    0    0    0  0.00000000000E+00  0.00000000000E+00  0.45593999997E+02  0.45594000000E+02  0.51100000000E-03 0.  1.
         11   -1    0    0    0    0 -0.00000000000E+00 -0.00000000000E+00 -0.45593999997E+02  0.45594000000E+02  0.51100000000E-03 0. -1.
    9900012    2    1    2    0    0 -0.29922002674E+02 -0.20270351230E+02  0.26886802224E+02  0.46142317445E+02  0.99999971172E+01 0.  0.
         12    1    1    2    0    0  0.29922002674E+02  0.20270351230E+02 -0.26886802224E+02  0.45045682555E+02  0.00000000000E+00 0. -1.
         11    1    3    3    0    0 -0.15824043574E+02 -0.15272400779E+02  0.17793211267E+02  0.28288601027E+02  0.51100000000E-03 0.  1.
        -11    1    3    3    0    0 -0.13072356898E+02 -0.41614743076E+01  0.92124319506E+01  0.16524929228E+02  0.51100000000E-03 0. -1.
         12    1    3    3    0    0 -0.10256022017E+01 -0.83647614265E+00 -0.11884099412E+00  0.13287871896E+01  0.00000000000E+00 0. -1.
</event>
<event>
 7    1  0.2438448E-008  0.4614231E+02  0.7816164E-02  0.1320468E+00
        -11   -1    0    0    0    0  0.00000000000E+00  0.00000000000E+00  0.45593999997E+02  0.45594000000E+02  0.51100000000E-03 0.  1.
         11   -1    0    0    0    0 -0.00000000000E+00 -0.00000000000E+00 -0.45593999997E+02  0.45594000000E+02  0.51100000000E-03 0. -1.
    9900012    2    1    2    0    0  0.38849524813E+02  0.23827848356E+01  0.22674887909E+02  0.46142314486E+02  0.99999701309E+01 0.  0.
         12    1    1    2    0    0 -0.38849524813E+02 -0.23827848356E+01 -0.22674887909E+02  0.45045685514E+02  0.00000000000E+00 0. -1.
         11    1    3    3    0    0  0.25410028597E+01 -0.47278696844E+00  0.15599085312E+00  0.25893158282E+01  0.51100000000E-03 0. -1.
        -11    1    3    3    0    0  0.39848842280E+01  0.23959396601E+01  0.48240498090E+01  0.67000959684E+01  0.51100000000E-03 0.  1.
        -12    1    3    3    0    0  0.32323637725E+02  0.45963214396E+00  0.17694847247E+02  0.36852902689E+02  0.00000000000E+00 0.  1.
</event>
<event>
 7    1  0.2438448E-008  0.4614232E+02  0.7816164E-02  0.1320468E+00
        -11   -1    0    0    0    0  0.00000000000E+00  0.00000000000E+00  0.45593999997E+02  0.45594000000E+02  0.51100000000E-03 0. -1.
         11   -1    0    0    0    0 -0.00000000000E+00 -0.00000000000E+00 -0.45593999997E+02  0.45594000000E+02  0.51100000000E-03 0.  1.
    9900012    2    1    2    0    0 -0.37468373034E+02 -0.22890906709E+02  0.10061853938E+02  0.46142317716E+02  0.99999995879E+01 0.  0.
         12    1    1    2    0    0  0.37468373034E+02  0.22890906709E+02 -0.10061853938E+02  0.45045682284E+02  0.00000000000E+00 0. -1.
         11    1    3    3    0    0 -0.26365411678E+00  0.95901896685E-01  0.14046306035E+01  0.14323749720E+01  0.51100000000E-03 0. -1.
        -11    1    3    3    0    0 -0.62154266909E+01 -0.47657363413E+01  0.50809812683E+00  0.78486900686E+01  0.51100000000E-03 0.  1.
         12    1    3    3    0    0 -0.30989292226E+02 -0.18221072265E+02  0.81491252079E+01  0.36861252675E+02  0.00000000000E+00 0. -1.
</event>
<event>
 7    1  0.2438448E-008  0.4614232E+02  0.7816164E-02  0.1320468E+00
        -11   -1    0    0    0    0  0.00000000000E+00  0.00000000000E+00  0.45593999997E+02  0.45594000000E+02  0.51100000000E-03 0.  1.
         11   -1    0    0    0    0 -0.00000000000E+00 -0.00000000000E+00 -0.45593999997E+02  0.45594000000E+02  0.51100000000E-03 0. -1.
    9900012    2    1    2    0    0  0.25345611693E+02  0.27513715038E+02  0.25094001101E+02  0.46142318314E+02  0.10000005038E+02 0.  0.
         12    1    1    2    0    0 -0.25345611693E+02 -0.27513715038E+02 -0.25094001101E+02  0.45045681686E+02  0.00000000000E+00 0. -1.
         11    1    3    3    0    0  0.96249132554E+01  0.12239378586E+02  0.59315405841E+01  0.16662068218E+02  0.51100000000E-03 0. -1.
        -11    1    3    3    0    0 -0.15971552422E+00  0.32158008722E+00 -0.10791697822E+00  0.37492550791E+00  0.51100000000E-03 0.  1.
        -12    1    3    3    0    0  0.15880413962E+02  0.14952756365E+02  0.19270377496E+02  0.29105324587E+02  0.00000000000E+00 0.  1.
</event>
<event>
 7    1  0.2438448E-008  0.4614232E+02  0.7816164E-02  0.1320468E+00
        -11   -1    0    0    0    0  0.00000000000E+00  0.00000000000E+00  0.45593999997E+02  0.45594000000E+02  0.51100000000E-03 0.  1.
         11   -1    0    0    0    0 -0.00000000000E+00 -0.00000000000E+00 -0.45593999997E+02  0.45594000000E+02  0.51100000000E-03 0. -1.
    9900012    2    1    2    0    0  0.27674561961E+01 -0.79570736417E+01  0.44250870500E+02  0.46142319022E+02  0.10000011499E+02 0.  0.
         12    1    1    2    0    0 -0.27674561961E+01  0.79570736417E+01 -0.44250870500E+02  0.45045680978E+02  0.00000000000E+00 0. -1.
         11    1    3    3    0    0  0.91182499755E+00  0.37670367558E+00  0.76610329534E+00  0.12490976766E+01  0.51100000000E-03 0. -1.
        -11    1    3    3    0    0 -0.49636440430E+00  0.10760433258E+01  0.87420486585E+01  0.88219987457E+01  0.51100000000E-03 0.  1.
        -12    1    3    3    0    0  0.23519956029E+01 -0.94098206431E+01  0.34742718546E+02  0.36071222600E+02  0.00000000000E+00 0.  1.
</event>
<event>
 7    1  0.2438448E-008  0.4614232E+02  0.7816164E-02  0.1320468E+00
        -11   -1    0    0    0    0  0.00000000000E+00  0.00000000000E+00  0.45593999997E+02  0.45594000000E+02  0.51100000000E-03 0.  1.
         11   -1    0    0    0    0 -0.00000000000E+00 -0.00000000000E+00 -0.45593999997E+02  0.45594000000E+02  0.51100000000E-03 0. -1.
    9900012    2    1    2    0    0  0.11329691864E+02  0.26866559154E+02  0.34335689206E+02  0.46142317945E+02  0.10000001681E+02 0.  0.
         12    1    1    2    0    0 -0.11329691864E+02 -0.26866559154E+02 -0.34335689206E+02  0.45045682055E+02  0.00000000000E+00 0. -1.
         11    1    3    3    0    0  0.21901972599E+01  0.10059196665E+01  0.22162723115E+01  0.32742482546E+01  0.51100000000E-03 0. -1.
        -11    1    3    3    0    0  0.59703358088E+01  0.10576371871E+02  0.18621292993E+02  0.22231893860E+02  0.51100000000E-03 0.  1.
         12    1    3    3    0    0  0.31691587951E+01  0.15284267617E+02  0.13498123901E+02  0.20636175830E+02  0.00000000000E+00 0. -1.
</event>
<event>
 7    1  0.2438448E-008  0.4614232E+02  0.7816164E-02  0.1320468E+00
        -11   -1    0    0    0    0  0.00000000000E+00  0.00000000000E+00  0.45593999997E+02  0.45594000000E+02  0.51100000000E-03 0.  1.
         11   -1    0    0    0    0 -0.00000000000E+00 -0.00000000000E+00 -0.45593999997E+02  0.45594000000E+02  0.51100000000E-03 0. -1.
    9900012    2    1    2    0    0 -0.15113173935E+02  0.31892276866E+02  0.27992644967E+02  0.46142317384E+02  0.99999965591E+01 0.  0.
         12    1    1    2    0    0  0.15113173935E+02 -0.31892276866E+02 -0.27992644967E+02  0.45045682616E+02  0.00000000000E+00 0. -1.
         11    1    3    3    0    0 -0.66516365699E+01  0.13001421022E+02  0.98186504776E+01  0.17597929285E+02  0.51100000000E-03 0. -1.
        -11    1    3    3    0    0 -0.85727866681E+01  0.19532973877E+02  0.17367119423E+02  0.27507209547E+02  0.51100000000E-03 0.  1.
        -12    1    3    3    0    0  0.11124930289E+00 -0.64211803307E+00  0.80687506629E+00  0.10371785518E+01  0.00000000000E+00 0.  1.
</event>
<event>
 7    1  0.2438448E-008  0.4614231E+02  0.7816164E-02  0.1320468E+00
        -11   -1    0    0    0    0  0.00000000000E+00  0.00000000000E+00  0.45593999997E+02  0.45594000000E+02  0.51100000000E-03 0.  1.
         11   -1    0    0    0    0 -0.00000000000E+00 -0.00000000000E+00 -0.45593999997E+02  0.45594000000E+02  0.51100000000E-03 0. -1.
    9900012    2    1    2    0    0  0.22166478959E+02  0.35585438321E+02  0.16475387882E+02  0.46142305247E+02  0.99998858852E+01 0.  0.
         12    1    1    2    0    0 -0.22166478959E+02 -0.35585438321E+02 -0.16475387882E+02  0.45045694753E+02  0.00000000000E+00 0. -1.
         11    1    3    3    0    0  0.54742703730E+01  0.57479045506E+01  0.62013414439E+01  0.10072868450E+02  0.51100000000E-03 0. -1.
        -11    1    3    3    0    0  0.82100029343E+01  0.10242523271E+02  0.26116634452E+01  0.13384103158E+02  0.51100000000E-03 0.  1.
         12    1    3    3    0    0  0.84822056516E+01  0.19595010500E+02  0.76623829924E+01  0.22685333639E+02  0.00000000000E+00 0. -1.
</event>
<event>
 7    1  0.2438448E-008  0.4614232E+02  0.7816164E-02  0.1320468E+00
        -11   -1    0    0    0    0  0.00000000000E+00  0.00000000000E+00  0.45593999997E+02  0.45594000000E+02  0.51100000000E-03 0. -1.
         11   -1    0    0    0    0 -0.00000000000E+00 -0.00000000000E+00 -0.45593999997E+02  0.45594000000E+02  0.51100000000E-03 0.  1.
    9900012    2    1    2    0    0 -0.13814773593E+02  0.30833279686E+02 -0.29792185976E+02  0.46142318178E+02  0.10000003797E+02 0.  0.
         12    1    1    2    0    0  0.13814773593E+02 -0.30833279686E+02  0.29792185976E+02  0.45045681822E+02  0.00000000000E+00 0. -1.
         11    1    3    3    0    0  0.26484074721E-01  0.75553645184E+00  0.42668545782E+00  0.86809992357E+00  0.51100000000E-03 0. -1.
        -11    1    3    3    0    0 -0.10931858121E+02  0.20246003737E+02 -0.24166157297E+02  0.33367789079E+02  0.51100000000E-03 0.  1.
        -12    1    3    3    0    0 -0.29093995464E+01  0.98317394972E+01 -0.60527141372E+01  0.11906429175E+02  0.00000000000E+00 0.  1.
</event>
<event>
 7    1  0.2438448E-008  0.4614232E+02  0.7816164E-02  0.1320468E+00
        -11   -1    0    0    0    0  0.00000000000E+00  0.00000000000E+00  0.45593999997E+02  0.45594000000E+02  0.51100000000E-03 0.  1.
         11   -1    0    0    0    0 -0.00000000000E+00 -0.00000000000E+00 -0.45593999997E+02  0.45594000000E+02  0.51100000000E-03 0. -1.
    9900012    2    1    2    0    0 -0.43657959831E+02  0.71821072435E+01  0.84565577791E+01  0.46142317737E+02  0.99999997838E+01 0.  0.
         12    1    1    2    0    0  0.43657959831E+02 -0.71821072435E+01 -0.84565577791E+01  0.45045682263E+02  0.00000000000E+00 0. -1.
         11    1    3    3    0    0 -0.17662184138E+02  0.34528954887E+01  0.57057143838E+01  0.18879364732E+02  0.51100000000E-03 0.  1.
        -11    1    3    3    0    0 -0.18066148978E+02  0.53472227984E+01  0.33951218753E+01  0.19144330318E+02  0.51100000000E-03 0. -1.
         12    1    3    3    0    0 -0.79296267146E+01 -0.16180110436E+01 -0.64427848004E+00  0.81186226868E+01  0.00000000000E+00 0. -1.
</event>
<event>
 7    1  0.2438448E-008  0.4614232E+02  0.7816164E-02  0.1320468E+00
        -11   -1    0    0    0    0  0.00000000000E+00  0.00000000000E+00  0.45593999997E+02  0.45594000000E+02  0.51100000000E-03 0.  1.
         11   -1    0    0    0    0 -0.00000000000E+00 -0.00000000000E+00 -0.45593999997E+02  0.45594000000E+02  0.51100000000E-03 0. -1.
    9900012    2    1    2    0    0  0.69756404957E+01 -0.67319076553E+00  0.44497198387E+02  0.46142318627E+02  0.10000007893E+02 0.  0.
         12    1    1    2    0    0 -0.69756404957E+01  0.67319076553E+00 -0.44497198387E+02  0.45045681373E+02  0.00000000000E+00 0. -1.
         11    1    3    3    0    0  0.19652086551E+00 -0.42266746489E+00  0.35352714785E+01  0.35658677659E+01  0.51100000000E-03 0. -1.
        -11    1    3    3    0    0  0.42966306637E+01 -0.19305086155E+01  0.67364131224E+01  0.82199246098E+01  0.51100000000E-03 0.  1.
        -12    1    3    3    0    0  0.24824889665E+01  0.16799853148E+01  0.34225513786E+02  0.34356526251E+02  0.00000000000E+00 0.  1.
</event>
<event>
 7    1  0.2438448E-008  0.4614232E+02  0.7816164E-02  0.1320468E+00
        -11   -1    0    0    0    0  0.00000000000E+00  0.00000000000E+00  0.45593999997E+02  0.45594000000E+02  0.51100000000E-03 0.  1.
         11   -1    0    0    0    0 -0.00000000000E+00 -0.00000000000E+00 -0.45593999997E+02  0.45594000000E+02  0.51100000000E-03 0. -1.
    9900012    2    1    2    0    0  0.14844553271E+02  0.27981096700E+02  0.32028284014E+02  0.46142317507E+02  0.99999976863E+01 0.  0.
         12    1    1    2    0    0 -0.14844553271E+02 -0.27981096700E+02 -0.32028284014E+02  0.45045682493E+02  0.00000000000E+00 0. -1.
         11    1    3    3    0    0  0.55636100155E+01  0.12532678037E+02  0.11180183599E+02  0.17692322650E+02  0.51100000000E-03 0. -1.
        -11    1    3    3    0    0  0.10287610070E+02  0.13023420797E+02  0.19061284977E+02  0.25274037973E+02  0.51100000000E-03 0.  1.
         12    1    3    3    0    0 -0.10066668144E+01  0.24249978654E+01  0.17868154379E+01  0.31759568844E+01  0.00000000000E+00 0. -1.
</event>
<event>
 7    1  0.2438448E-008  0.4614232E+02  0.7816164E-02  0.1320468E+00
        -11   -1    0    0    0    0  0.00000000000E+00  0.00000000000E+00  0.45593999997E+02  0.45594000000E+02  0.51100000000E-03 0.  1.
         11   -1    0    0    0    0 -0.00000000000E+00 -0.00000000000E+00 -0.45593999997E+02  0.45594000000E+02  0.51100000000E-03 0. -1.
    9900012    2    1    2    0    0 -0.32258884523E+02  0.17723213300E+02  0.25968551019E+02  0.46142316939E+02  0.99999925058E+01 0.  0.
         12    1    1    2    0    0  0.32258884523E+02 -0.17723213300E+02 -0.25968551019E+02  0.45045683061E+02  0.00000000000E+00 0. -1.
         11    1    3    3    0    0 -0.95664901760E+00 -0.69658782109E+00  0.16070033107E+01  0.19957133654E+01  0.51100000000E-03 0. -1.
        -11    1    3    3    0    0 -0.13229840097E+02  0.91904175283E+01  0.75293392730E+01  0.17781546431E+02  0.51100000000E-03 0.  1.
        -12    1    3    3    0    0 -0.18072395408E+02  0.92293835931E+01  0.16832208436E+02  0.26365057143E+02  0.00000000000E+00 0.  1.
</event>
<event>
 7    1  0.2438448E-008  0.4614232E+02  0.7816164E-02  0.1320468E+00
        -11   -1    0    0    0    0  0.00000000000E+00  0.00000000000E+00  0.45593999997E+02  0.45594000000E+02  0.51100000000E-03 0. -1.
         11   -1    0    0    0    0 -0.00000000000E+00 -0.00000000000E+00 -0.45593999997E+02  0.45594000000E+02  0.51100000000E-03 0.  1.
    9900012    2    1    2    0    0 -0.87230195356E+01 -0.26649356260E+02 -0.35253852249E+02  0.46142319216E+02  0.10000013270E+02 0.  0.
         12    1    1    2    0    0  0.87230195356E+01  0.26649356260E+02  0.35253852249E+02  0.45045680784E+02  0.00000000000E+00 0. -1.
         11    1    3    3    0    0  0.55400783040E+00 -0.41178701071E+00 -0.43342103436E+00  0.81507501034E+00  0.51100000000E-03 0. -1.
        -11    1    3    3    0    0 -0.58041331159E+01 -0.20229275018E+02 -0.20332531298E+02  0.29263003233E+02  0.51100000000E-03 0.  1.
        -12    1    3    3    0    0 -0.34728942501E+01 -0.60082942307E+01 -0.14487899917E+02  0.16064240973E+02  0.00000000000E+00 0.  1.
</event>
<event>
 7    1  0.2438448E-008  0.4614231E+02  0.7816164E-02  0.1320468E+00
        -11   -1    0    0    0    0  0.00000000000E+00  0.00000000000E+00  0.45593999997E+02  0.45594000000E+02  0.51100000000E-03 0.  1.
         11   -1    0    0    0    0 -0.00000000000E+00 -0.00000000000E+00 -0.45593999997E+02  0.45594000000E+02  0.51100000000E-03 0. -1.
    9900012    2    1    2    0    0 -0.35774991706E+02 -0.27263382647E+02 -0.24437271461E+01  0.46142313555E+02  0.99999616475E+01 0.  0.
         12    1    1    2    0    0  0.35774991706E+02  0.27263382647E+02  0.24437271461E+01  0.45045686445E+02  0.00000000000E+00 0. -1.
         11    1    3    3    0    0 -0.17081184577E+01 -0.16941606543E+01 -0.27315421544E-04  0.24057949310E+01  0.51100000000E-03 0. -1.
        -11    1    3    3    0    0 -0.21484807635E+02 -0.20011083493E+02  0.15860557319E+01  0.29403333055E+02  0.51100000000E-03 0.  1.
         12    1    3    3    0    0 -0.12582065613E+02 -0.55581384998E+01 -0.40297555626E+01  0.14333185570E+02  0.00000000000E+00 0. -1.
</event>
<event>
 7    1  0.2438448E-008  0.4614232E+02  0.7816164E-02  0.1320468E+00
        -11   -1    0    0    0    0  0.00000000000E+00  0.00000000000E+00  0.45593999997E+02  0.45594000000E+02  0.51100000000E-03 0.  1.
         11   -1    0    0    0    0 -0.00000000000E+00 -0.00000000000E+00 -0.45593999997E+02  0.45594000000E+02  0.51100000000E-03 0. -1.
    9900012    2    1    2    0    0 -0.17290437633E+02 -0.16196276323E+02  0.38312334263E+02  0.46142317000E+02  0.99999930578E+01 0.  0.
         12    1    1    2    0    0  0.17290437633E+02  0.16196276323E+02 -0.38312334263E+02  0.45045683000E+02  0.00000000000E+00 0. -1.
         11    1    3    3    0    0 -0.10449671442E+02 -0.11781262725E+02  0.22636257580E+02  0.27575241470E+02  0.51100000000E-03 0. -1.
        -11    1    3    3    0    0 -0.74138133429E+01 -0.32020073785E+01  0.15064728055E+02  0.17092791205E+02  0.51100000000E-03 0.  1.
         12    1    3    3    0    0  0.57304715187E+00 -0.12130062192E+01  0.61134862824E+00  0.14742843251E+01  0.00000000000E+00 0. -1.
</event>
<event>
 7    1  0.2438448E-008  0.4614232E+02  0.7816164E-02  0.1320468E+00
        -11   -1    0    0    0    0  0.00000000000E+00  0.00000000000E+00  0.45593999997E+02  0.45594000000E+02  0.51100000000E-03 0.  1.
         11   -1    0    0    0    0 -0.00000000000E+00 -0.00000000000E+00 -0.45593999997E+02  0.45594000000E+02  0.51100000000E-03 0. -1.
    9900012    2    1    2    0    0  0.27766141497E+02  0.30713444047E+02  0.17743709076E+02  0.46142317958E+02  0.10000001795E+02 0.  0.
         12    1    1    2    0    0 -0.27766141497E+02 -0.30713444047E+02 -0.17743709076E+02  0.45045682042E+02  0.00000000000E+00 0. -1.
         11    1    3    3    0    0  0.15570641252E+02  0.13825645435E+02  0.90155934668E+01  0.22690841027E+02  0.51100000000E-03 0. -1.
        -11    1    3    3    0    0  0.74656017837E+01  0.12802039633E+02  0.87324361329E+01  0.17201246171E+02  0.51100000000E-03 0.  1.
         12    1    3    3    0    0  0.47298984609E+01  0.40857589790E+01 -0.43205235534E-02  0.62502307598E+01  0.00000000000E+00 0. -1.
</event>
<event>
 7    1  0.2438448E-008  0.4614232E+02  0.7816164E-02  0.1320468E+00
        -11   -1    0    0    0    0  0.00000000000E+00  0.00000000000E+00  0.45593999997E+02  0.45594000000E+02  0.51100000000E-03 0.  1.
         11   -1    0    0    0    0 -0.00000000000E+00 -0.00000000000E+00 -0.45593999997E+02  0.45594000000E+02  0.51100000000E-03 0. -1.
    9900012    2    1    2    0    0 -0.33847069917E+02 -0.22357614812E+02  0.19586385455E+02  0.46142316774E+02  0.99999910023E+01 0.  0.
         12    1    1    2    0    0  0.33847069917E+02  0.22357614812E+02 -0.19586385455E+02  0.45045683226E+02  0.00000000000E+00 0. -1.
         11    1    3    3    0    0 -0.13142484422E+01 -0.33346525381E+01  0.19343147534E+01  0.40729265086E+01  0.51100000000E-03 0. -1.
        -11    1    3    3    0    0 -0.26347334671E+02 -0.15921884802E+02  0.16875681748E+02  0.35106653139E+02  0.51100000000E-03 0.  1.
        -12    1    3    3    0    0 -0.61854868040E+01 -0.31010774720E+01  0.77638895416E+00  0.69627371268E+01  0.00000000000E+00 0.  1.
</event>
<event>
 7    1  0.2438448E-008  0.4614232E+02  0.7816164E-02  0.1320468E+00
        -11   -1    0    0    0    0  0.00000000000E+00  0.00000000000E+00  0.45593999997E+02  0.45594000000E+02  0.51100000000E-03 0.  1.
         11   -1    0    0    0    0 -0.00000000000E+00 -0.00000000000E+00 -0.45593999997E+02  0.45594000000E+02  0.51100000000E-03 0. -1.
    9900012    2    1    2    0    0  0.33481611351E+02 -0.29207822152E+02  0.74160846272E+01  0.46142317801E+02  0.10000000368E+02 0.  0.
         12    1    1    2    0    0 -0.33481611351E+02  0.29207822152E+02 -0.74160846272E+01  0.45045682199E+02  0.00000000000E+00 0. -1.
         11    1    3    3    0    0  0.71659080770E+01 -0.30475909607E+01  0.25254227407E+01  0.81863184345E+01  0.51100000000E-03 0. -1.
        -11    1    3    3    0    0  0.10222958091E+02 -0.62383804715E+01  0.61514661231E+00  0.11991858432E+02  0.51100000000E-03 0.  1.
         12    1    3    3    0    0  0.16092745183E+02 -0.19921850719E+02  0.42755152741E+01  0.25964140935E+02  0.00000000000E+00 0. -1.
</event>
<event>
 7    1  0.2438448E-008  0.4614232E+02  0.7816164E-02  0.1320468E+00
        -11   -1    0    0    0    0  0.00000000000E+00  0.00000000000E+00  0.45593999997E+02  0.45594000000E+02  0.51100000000E-03 0.  1.
         11   -1    0    0    0    0 -0.00000000000E+00 -0.00000000000E+00 -0.45593999997E+02  0.45594000000E+02  0.51100000000E-03 0. -1.
    9900012    2    1    2    0    0  0.34600239806E+02 -0.24970425915E+02 -0.14436578121E+02  0.46142317046E+02  0.99999934770E+01 0.  0.
         12    1    1    2    0    0 -0.34600239806E+02  0.24970425915E+02  0.14436578121E+02  0.45045682954E+02  0.00000000000E+00 0. -1.
         11    1    3    3    0    0  0.11010466710E+02 -0.63282245099E+01 -0.54436709198E+01  0.13817031373E+02  0.51100000000E-03 0. -1.
        -11    1    3    3    0    0  0.43266488873E+01 -0.72669798576E+01 -0.42154203559E+01  0.94497966054E+01  0.51100000000E-03 0.  1.
        -12    1    3    3    0    0  0.19263124209E+02 -0.11375221547E+02 -0.47774868455E+01  0.22875489068E+02  0.00000000000E+00 0.  1.
</event>
<event>
 7    1  0.2438448E-008  0.4614232E+02  0.7816164E-02  0.1320468E+00
        -11   -1    0    0    0    0  0.00000000000E+00  0.00000000000E+00  0.45593999997E+02  0.45594000000E+02  0.51100000000E-03 0.  1.
         11   -1    0    0    0    0 -0.00000000000E+00 -0.00000000000E+00 -0.45593999997E+02  0.45594000000E+02  0.51100000000E-03 0. -1.
    9900012    2    1    2    0    0 -0.37940893505E+02 -0.31634265343E+01  0.24074776850E+02  0.46142317102E+02  0.99999939884E+01 0.  0.
         12    1    1    2    0    0  0.37940893505E+02  0.31634265343E+01 -0.24074776850E+02  0.45045682898E+02  0.00000000000E+00 0. -1.
         11    1    3    3    0    0 -0.15632849611E+02 -0.46955626759E+01  0.94669274932E+01  0.18869473024E+02  0.51100000000E-03 0. -1.
        -11    1    3    3    0    0 -0.97826003710E+01  0.93501909516E+00  0.32403810326E+01  0.10347637422E+02  0.51100000000E-03 0.  1.
         12    1    3    3    0    0 -0.12525443523E+02  0.59711704645E+00  0.11367468324E+02  0.16925206655E+02  0.00000000000E+00 0. -1.
</event>
<event>
 7    1  0.2438448E-008  0.4614232E+02  0.7816164E-02  0.1320468E+00
        -11   -1    0    0    0    0  0.00000000000E+00  0.00000000000E+00  0.45593999997E+02  0.45594000000E+02  0.51100000000E-03 0.  1.
         11   -1    0    0    0    0 -0.00000000000E+00 -0.00000000000E+00 -0.45593999997E+02  0.45594000000E+02  0.51100000000E-03 0. -1.
    9900012    2    1    2    0    0  0.33268047534E+02  0.11276207911E+02  0.28199248909E+02  0.46142317736E+02  0.99999997681E+01 0.  0.
         12    1    1    2    0    0 -0.33268047534E+02 -0.11276207911E+02 -0.28199248909E+02  0.45045682264E+02  0.00000000000E+00 0. -1.
         11    1    3    3    0    0  0.21109688699E+00  0.12071327247E+01  0.23646122806E+01  0.26632917244E+01  0.51100000000E-03 0. -1.
        -11    1    3    3    0    0  0.11340164105E+02  0.84653410423E+00  0.80351955102E+01  0.13924090960E+02  0.51100000000E-03 0.  1.
        -12    1    3    3    0    0  0.21716786542E+02  0.92225410825E+01  0.17799441119E+02  0.29554935051E+02  0.00000000000E+00 0.  1.
</event>
<event>
 7    1  0.2438448E-008  0.4614232E+02  0.7816164E-02  0.1320468E+00
        -11   -1    0    0    0    0  0.00000000000E+00  0.00000000000E+00  0.45593999997E+02  0.45594000000E+02  0.51100000000E-03 0.  1.
         11   -1    0    0    0    0 -0.00000000000E+00 -0.00000000000E+00 -0.45593999997E+02  0.45594000000E+02  0.51100000000E-03 0. -1.
    9900012    2    1    2    0    0  0.27649912686E+02  0.21647252772E+02  0.28213335857E+02  0.46142317141E+02  0.99999943416E+01 0.  0.
         12    1    1    2    0    0 -0.27649912686E+02 -0.21647252772E+02 -0.28213335857E+02  0.45045682859E+02  0.00000000000E+00 0. -1.
         11    1    3    3    0    0  0.48032610474E+00  0.10329671449E+01  0.24129044615E+00  0.11644550785E+01  0.51100000000E-03 0. -1.
        -11    1    3    3    0    0  0.20985098802E+02  0.12284055523E+02  0.23009901811E+02  0.33477275478E+02  0.51100000000E-03 0.  1.
        -12    1    3    3    0    0  0.61844877789E+01  0.83302301036E+01  0.49621435995E+01  0.11500586584E+02  0.00000000000E+00 0.  1.
</event>
<event>
 7    1  0.2438448E-008  0.4614232E+02  0.7816164E-02  0.1320468E+00
        -11   -1    0    0    0    0  0.00000000000E+00  0.00000000000E+00  0.45593999997E+02  0.45594000000E+02  0.51100000000E-03 0. -1.
         11   -1    0    0    0    0 -0.00000000000E+00 -0.00000000000E+00 -0.45593999997E+02  0.45594000000E+02  0.51100000000E-03 0.  1.
    9900012    2    1    2    0    0  0.93068003837E+01  0.10258608763E+02 -0.42863246357E+02  0.46142317905E+02  0.10000001315E+02 0.  0.
         12    1    1    2    0    0 -0.93068003837E+01 -0.10258608763E+02  0.42863246357E+02  0.45045682095E+02  0.00000000000E+00 0. -1.
         11    1    3    3    0    0  0.22852471992E+01 -0.44204894145E+00 -0.39522486652E+01  0.45867234275E+01  0.51100000000E-03 0. -1.
        -11    1    3    3    0    0  0.53038046686E+01  0.42311483343E+01 -0.11620467005E+02  0.13456158957E+02  0.51100000000E-03 0.  1.
        -12    1    3    3    0    0  0.17177485159E+01  0.64695093706E+01 -0.27290530686E+02  0.28099435521E+02  0.00000000000E+00 0.  1.
</event>
<event>
 7    1  0.2438448E-008  0.4614232E+02  0.7816164E-02  0.1320468E+00
        -11   -1    0    0    0    0  0.00000000000E+00  0.00000000000E+00  0.45593999997E+02  0.45594000000E+02  0.51100000000E-03 0.  1.
         11   -1    0    0    0    0 -0.00000000000E+00 -0.00000000000E+00 -0.45593999997E+02  0.45594000000E+02  0.51100000000E-03 0. -1.
    9900012    2    1    2    0    0 -0.19745341017E+02  0.11803680929E+02  0.38728645489E+02  0.46142319222E+02  0.10000013321E+02 0.  0.
         12    1    1    2    0    0  0.19745341017E+02 -0.11803680929E+02 -0.38728645489E+02  0.45045680778E+02  0.00000000000E+00 0. -1.
         11    1    3    3    0    0 -0.23452919961E+01  0.24626796618E+00  0.78534251676E+01  0.81998371681E+01  0.51100000000E-03 0. -1.
        -11    1    3    3    0    0 -0.12269594052E+02  0.52873701103E+01  0.14781651432E+02  0.19924769514E+02  0.51100000000E-03 0.  1.
         12    1    3    3    0    0 -0.51304549688E+01  0.62700428523E+01  0.16093568889E+02  0.18017712539E+02  0.00000000000E+00 0. -1.
</event>
<event>
 7    1  0.2438448E-008  0.4614232E+02  0.7816164E-02  0.1320468E+00
        -11   -1    0    0    0    0  0.00000000000E+00  0.00000000000E+00  0.45593999997E+02  0.45594000000E+02  0.51100000000E-03 0. -1.
         11   -1    0    0    0    0 -0.00000000000E+00 -0.00000000000E+00 -0.45593999997E+02  0.45594000000E+02  0.51100000000E-03 0.  1.
    9900012    2    1    2    0    0 -0.14215374790E+02 -0.33876965741E+02  0.26065067477E+02  0.46142318400E+02  0.10000005823E+02 0.  0.
         12    1    1    2    0    0  0.14215374790E+02  0.33876965741E+02 -0.26065067477E+02  0.45045681600E+02  0.00000000000E+00 0. -1.
         11    1    3    3    0    0  0.22778547168E+00 -0.10172865708E+01  0.23610484975E+01  0.25809510760E+01  0.51100000000E-03 0. -1.
        -11    1    3    3    0    0  0.56604872363E+00 -0.68725435128E+00  0.30633998817E-01  0.89088069003E+00  0.51100000000E-03 0.  1.
        -12    1    3    3    0    0 -0.15009208985E+02 -0.32172424819E+02  0.23673384981E+02  0.42670486634E+02  0.00000000000E+00 0.  1.
</event>
<event>
 7    1  0.2438448E-008  0.4614232E+02  0.7816164E-02  0.1320468E+00
        -11   -1    0    0    0    0  0.00000000000E+00  0.00000000000E+00  0.45593999997E+02  0.45594000000E+02  0.51100000000E-03 0. -1.
         11   -1    0    0    0    0 -0.00000000000E+00 -0.00000000000E+00 -0.45593999997E+02  0.45594000000E+02  0.51100000000E-03 0.  1.
    9900012    2    1    2    0    0  0.38541337359E+02  0.16483646111E+02 -0.16491459097E+02  0.46142317657E+02  0.99999990549E+01 0.  0.
         12    1    1    2    0    0 -0.38541337359E+02 -0.16483646111E+02  0.16491459097E+02  0.45045682343E+02  0.00000000000E+00 0. -1.
         11    1    3    3    0    0  0.22899418090E+02  0.88440709295E+01 -0.12933970655E+02  0.27746865348E+02  0.51100000000E-03 0. -1.
        -11    1    3    3    0    0  0.76331590852E+01  0.11100474128E+01 -0.14018709523E+01  0.78398064585E+01  0.51100000000E-03 0.  1.
         12    1    3    3    0    0  0.80087601841E+01  0.65295277692E+01 -0.21556174896E+01  0.10555645851E+02  0.00000000000E+00 0. -1.
</event>
<event>
 7    1  0.2438448E-008  0.4614232E+02  0.7816164E-02  0.1320468E+00
        -11   -1    0    0    0    0  0.00000000000E+00  0.00000000000E+00  0.45593999997E+02  0.45594000000E+02  0.51100000000E-03 0.  1.
         11   -1    0    0    0    0 -0.00000000000E+00 -0.00000000000E+00 -0.45593999997E+02  0.45594000000E+02  0.51100000000E-03 0. -1.
    9900012    2    1    2    0    0 -0.93963031242E+01  0.16724308678E+02  0.40756846233E+02  0.46142317321E+02  0.99999959900E+01 0.  0.
         12    1    1    2    0    0  0.93963031242E+01 -0.16724308678E+02 -0.40756846233E+02  0.45045682679E+02  0.00000000000E+00 0. -1.
         11    1    3    3    0    0 -0.22891590299E+01  0.18174373217E+01  0.32684545433E+01  0.43847602950E+01  0.51100000000E-03 0. -1.
        -11    1    3    3    0    0  0.13445125611E+01  0.57173065372E+01  0.13218794550E+02  0.14464848346E+02  0.51100000000E-03 0.  1.
        -12    1    3    3    0    0 -0.84516566554E+01  0.91895648188E+01  0.24269597140E+02  0.27292708680E+02  0.00000000000E+00 0.  1.
</event>
<event>
 7    1  0.2438448E-008  0.4614232E+02  0.7816164E-02  0.1320468E+00
        -11   -1    0    0    0    0  0.00000000000E+00  0.00000000000E+00  0.45593999997E+02  0.45594000000E+02  0.51100000000E-03 0.  1.
         11   -1    0    0    0    0 -0.00000000000E+00 -0.00000000000E+00 -0.45593999997E+02  0.45594000000E+02  0.51100000000E-03 0. -1.
    9900012    2    1    2    0    0  0.22013658273E+02  0.28349511207E+00  0.39299261061E+02  0.46142318299E+02  0.10000004903E+02 0.  0.
         12    1    1    2    0    0 -0.22013658273E+02 -0.28349511207E+00 -0.39299261061E+02  0.45045681701E+02  0.00000000000E+00 0. -1.
         11    1    3    3    0    0  0.77136623775E+01 -0.13919744842E+01  0.79504080504E+01  0.11164549640E+02  0.51100000000E-03 0. -1.
        -11    1    3    3    0    0 -0.50668366433E+00  0.41173088360E+00  0.12446459594E+01  0.14054872755E+01  0.51100000000E-03 0.  1.
        -12    1    3    3    0    0  0.14806679559E+02  0.12637387127E+01  0.30104207051E+02  0.33572281383E+02  0.00000000000E+00 0.  1.
</event>
<event>
 7    1  0.2438448E-008  0.4614232E+02  0.7816164E-02  0.1320468E+00
        -11   -1    0    0    0    0  0.00000000000E+00  0.00000000000E+00  0.45593999997E+02  0.45594000000E+02  0.51100000000E-03 0.  1.
         11   -1    0    0    0    0 -0.00000000000E+00 -0.00000000000E+00 -0.45593999997E+02  0.45594000000E+02  0.51100000000E-03 0. -1.
    9900012    2    1    2    0    0 -0.30145195072E+02 -0.23802027694E+02  0.23533892834E+02  0.46142318518E+02  0.10000006900E+02 0.  0.
         12    1    1    2    0    0  0.30145195072E+02  0.23802027694E+02 -0.23533892834E+02  0.45045681482E+02  0.00000000000E+00 0. -1.
         11    1    3    3    0    0 -0.94849060185E+01 -0.46830711023E+01  0.59692640256E+01  0.12146057401E+02  0.51100000000E-03 0. -1.
        -11    1    3    3    0    0 -0.14649714102E+02 -0.13247698600E+02  0.81207018114E+01  0.21355595043E+02  0.51100000000E-03 0.  1.
         12    1    3    3    0    0 -0.60105749513E+01 -0.58712579916E+01  0.94439269975E+01  0.12640666074E+02  0.00000000000E+00 0. -1.
</event>
<event>
 7    1  0.2438448E-008  0.4614232E+02  0.7816164E-02  0.1320468E+00
        -11   -1    0    0    0    0  0.00000000000E+00  0.00000000000E+00  0.45593999997E+02  0.45594000000E+02  0.51100000000E-03 0.  1.
         11   -1    0    0    0    0 -0.00000000000E+00 -0.00000000000E+00 -0.45593999997E+02  0.45594000000E+02  0.51100000000E-03 0. -1.
    9900012    2    1    2    0    0 -0.27037919007E+02  0.14053737117E+02  0.33174643506E+02  0.46142316934E+02  0.99999924570E+01 0.  0.
         12    1    1    2    0    0  0.27037919007E+02 -0.14053737117E+02 -0.33174643506E+02  0.45045683066E+02  0.00000000000E+00 0. -1.
         11    1    3    3    0    0 -0.15011309357E+02  0.79697463137E+01  0.19897094194E+02  0.26167740112E+02  0.51100000000E-03 0. -1.
        -11    1    3    3    0    0 -0.13794916431E+01  0.37864601849E+01  0.36721934850E+01  0.54520897992E+01  0.51100000000E-03 0.  1.
         12    1    3    3    0    0 -0.10647118006E+02  0.22975306185E+01  0.96053558265E+01  0.14522487023E+02  0.00000000000E+00 0. -1.
</event>
<event>
 7    1  0.2438448E-008  0.4614232E+02  0.7816164E-02  0.1320468E+00
        -11   -1    0    0    0    0  0.00000000000E+00  0.00000000000E+00  0.45593999997E+02  0.45594000000E+02  0.51100000000E-03 0.  1.
         11   -1    0    0    0    0 -0.00000000000E+00 -0.00000000000E+00 -0.45593999997E+02  0.45594000000E+02  0.51100000000E-03 0. -1.
    9900012    2    1    2    0    0  0.18334063135E+02  0.37550793692E+02  0.16820034799E+02  0.46142317092E+02  0.99999939022E+01 0.  0.
         12    1    1    2    0    0 -0.18334063135E+02 -0.37550793692E+02 -0.16820034799E+02  0.45045682908E+02  0.00000000000E+00 0. -1.
         11    1    3    3    0    0  0.55009298965E+00  0.28042267188E+01  0.35356101904E+01  0.45460784713E+01  0.51100000000E-03 0. -1.
        -11    1    3    3    0    0  0.11135979236E+02  0.21743607705E+02  0.54747289818E+01  0.25035318398E+02  0.51100000000E-03 0.  1.
         12    1    3    3    0    0  0.66479909101E+01  0.13002959268E+02  0.78096956266E+01  0.16560920224E+02  0.00000000000E+00 0. -1.
</event>
<event>
 7    1  0.2438448E-008  0.4614232E+02  0.7816164E-02  0.1320468E+00
        -11   -1    0    0    0    0  0.00000000000E+00  0.00000000000E+00  0.45593999997E+02  0.45594000000E+02  0.51100000000E-03 0. -1.
         11   -1    0    0    0    0 -0.00000000000E+00 -0.00000000000E+00 -0.45593999997E+02  0.45594000000E+02  0.51100000000E-03 0.  1.
    9900012    2    1    2    0    0  0.43250643997E+02  0.12579593667E+02 -0.49902364868E+00  0.46142318658E+02  0.10000008176E+02 0.  0.
         12    1    1    2    0    0 -0.43250643997E+02 -0.12579593667E+02  0.49902364868E+00  0.45045681342E+02  0.00000000000E+00 0. -1.
         11    1    3    3    0    0  0.13019440391E+02  0.42886245434E+01 -0.28956125574E+01  0.14010092823E+02  0.51100000000E-03 0. -1.
        -11    1    3    3    0    0  0.22635413628E+02  0.89988737887E+01  0.10173473764E+01  0.24379841581E+02  0.51100000000E-03 0.  1.
         12    1    3    3    0    0  0.75957899777E+01 -0.70790466557E+00  0.13792415324E+01  0.77523842529E+01  0.00000000000E+00 0. -1.
</event>
<event>
 7    1  0.2438448E-008  0.4614232E+02  0.7816164E-02  0.1320468E+00
        -11   -1    0    0    0    0  0.00000000000E+00  0.00000000000E+00  0.45593999997E+02  0.45594000000E+02  0.51100000000E-03 0.  1.
         11   -1    0    0    0    0 -0.00000000000E+00 -0.00000000000E+00 -0.45593999997E+02  0.45594000000E+02  0.51100000000E-03 0. -1.
    9900012    2    1    2    0    0 -0.41098730332E+02  0.16933040848E+02  0.72993003355E+01  0.46142319934E+02  0.10000019814E+02 0.  0.
         12    1    1    2    0    0  0.41098730332E+02 -0.16933040848E+02 -0.72993003355E+01  0.45045680066E+02  0.00000000000E+00 0. -1.
         11    1    3    3    0    0  0.35380627491E+00  0.22399907556E+00  0.39258689622E+00  0.57400278589E+00  0.51100000000E-03 0. -1.
        -11    1    3    3    0    0 -0.35378595644E+02  0.15863538322E+02  0.47246900055E+01  0.39059180403E+02  0.51100000000E-03 0.  1.
        -12    1    3    3    0    0 -0.60739409625E+01  0.84550344985E+00  0.21820234338E+01  0.65091367450E+01  0.00000000000E+00 0.  1.
</event>
<event>
 7    1  0.2438448E-008  0.4614232E+02  0.7816164E-02  0.1320468E+00
        -11   -1    0    0    0    0  0.00000000000E+00  0.00000000000E+00  0.45593999997E+02  0.45594000000E+02  0.51100000000E-03 0.  1.
         11   -1    0    0    0    0 -0.00000000000E+00 -0.00000000000E+00 -0.45593999997E+02  0.45594000000E+02  0.51100000000E-03 0. -1.
    9900012    2    1    2    0    0  0.21204877876E+02 -0.28804861584E+02  0.27381499378E+02  0.46142318688E+02  0.10000008456E+02 0.  0.
         12    1    1    2    0    0 -0.21204877876E+02  0.28804861584E+02 -0.27381499378E+02  0.45045681312E+02  0.00000000000E+00 0. -1.
         11    1    3    3    0    0  0.22020108791E+01 -0.76240279830E+01  0.46691265792E+01  0.92073556394E+01  0.51100000000E-03 0. -1.
        -11    1    3    3    0    0  0.11787687044E+02 -0.15864852453E+02  0.12679440778E+02  0.23482149133E+02  0.51100000000E-03 0.  1.
        -12    1    3    3    0    0  0.72151799536E+01 -0.53159811488E+01  0.10032932021E+02  0.13452813916E+02  0.00000000000E+00 0.  1.
</event>
<event>
 7    1  0.2438448E-008  0.4614232E+02  0.7816164E-02  0.1320468E+00
        -11   -1    0    0    0    0  0.00000000000E+00  0.00000000000E+00  0.45593999997E+02  0.45594000000E+02  0.51100000000E-03 0.  1.
         11   -1    0    0    0    0 -0.00000000000E+00 -0.00000000000E+00 -0.45593999997E+02  0.45594000000E+02  0.51100000000E-03 0. -1.
    9900012    2    1    2    0    0  0.23797631383E+02 -0.27857530296E+02  0.26205804437E+02  0.46142318300E+02  0.10000004918E+02 0.  0.
         12    1    1    2    0    0 -0.23797631383E+02  0.27857530296E+02 -0.26205804437E+02  0.45045681700E+02  0.00000000000E+00 0. -1.
         11    1    3    3    0    0  0.16866134011E+02 -0.16457780305E+02  0.15756623336E+02  0.28347772192E+02  0.51100000000E-03 0. -1.
        -11    1    3    3    0    0  0.37432591276E+01 -0.47392963004E+01  0.79816290357E+01  0.10008962016E+02  0.51100000000E-03 0.  1.
         12    1    3    3    0    0  0.31882382446E+01 -0.66604536904E+01  0.24675520649E+01  0.77855840924E+01  0.00000000000E+00 0. -1.
</event>
<event>
 7    1  0.2438448E-008  0.4614232E+02  0.7816164E-02  0.1320468E+00
        -11   -1    0    0    0    0  0.00000000000E+00  0.00000000000E+00  0.45593999997E+02  0.45594000000E+02  0.51100000000E-03 0.  1.
         11   -1    0    0    0    0 -0.00000000000E+00 -0.00000000000E+00 -0.45593999997E+02  0.45594000000E+02  0.51100000000E-03 0. -1.
    9900012    2    1    2    0    0 -0.23495328704E+02  0.26756682309E+02  0.27589183073E+02  0.46142317169E+02  0.99999945984E+01 0.  0.
         12    1    1    2    0    0  0.23495328704E+02 -0.26756682309E+02 -0.27589183073E+02  0.45045682831E+02  0.00000000000E+00 0. -1.
         11    1    3    3    0    0 -0.40106693926E+01  0.76160523396E+01  0.91319270911E+01  0.12549175864E+02  0.51100000000E-03 0. -1.
        -11    1    3    3    0    0 -0.89430775820E+01  0.44622516888E+01  0.67771757765E+01  0.12075613381E+02  0.51100000000E-03 0.  1.
        -12    1    3    3    0    0 -0.10541581730E+02  0.14678378281E+02  0.11680080205E+02  0.21517527923E+02  0.00000000000E+00 0.  1.
</event>
<event>
 7    1  0.2438448E-008  0.4614232E+02  0.7816164E-02  0.1320468E+00
        -11   -1    0    0    0    0  0.00000000000E+00  0.00000000000E+00  0.45593999997E+02  0.45594000000E+02  0.51100000000E-03 0.  1.
         11   -1    0    0    0    0 -0.00000000000E+00 -0.00000000000E+00 -0.45593999997E+02  0.45594000000E+02  0.51100000000E-03 0. -1.
    9900012    2    1    2    0    0 -0.86041712123E+01 -0.38648428317E+02  0.21479775610E+02  0.46142317256E+02  0.99999953962E+01 0.  0.
         12    1    1    2    0    0  0.86041712123E+01  0.38648428317E+02 -0.21479775610E+02  0.45045682744E+02  0.00000000000E+00 0. -1.
         11    1    3    3    0    0  0.33003439544E+00 -0.22396881133E+01 -0.89762042687E-01  0.22656528932E+01  0.51100000000E-03 0. -1.
        -11    1    3    3    0    0 -0.66569718980E+01 -0.34753121852E+02  0.19734701382E+02  0.40516085598E+02  0.51100000000E-03 0.  1.
        -12    1    3    3    0    0 -0.22772337097E+01 -0.16556183515E+01  0.18348362712E+01  0.33605787651E+01  0.00000000000E+00 0.  1.
</event>
<event>
 7    1  0.2438448E-008  0.4614232E+02  0.7816164E-02  0.1320468E+00
        -11   -1    0    0    0    0  0.00000000000E+00  0.00000000000E+00  0.45593999997E+02  0.45594000000E+02  0.51100000000E-03 0. -1.
         11   -1    0    0    0    0 -0.00000000000E+00 -0.00000000000E+00 -0.45593999997E+02  0.45594000000E+02  0.51100000000E-03 0.  1.
    9900012    2    1    2    0    0  0.44760675469E+02  0.43992338996E+01  0.24984159008E+01  0.46142318638E+02  0.10000007999E+02 0.  0.
         12    1    1    2    0    0 -0.44760675469E+02 -0.43992338996E+01 -0.24984159008E+01  0.45045681362E+02  0.00000000000E+00 0. -1.
         11    1    3    3    0    0  0.39044074874E+01 -0.13706290481E+00  0.19857800612E+01  0.43825228785E+01  0.51100000000E-03 0. -1.
        -11    1    3    3    0    0  0.41080491055E+02  0.48553727246E+01  0.52145224869E+00  0.41369714796E+02  0.51100000000E-03 0.  1.
        -12    1    3    3    0    0 -0.22422307320E+00 -0.31907592015E+00 -0.88164090979E-02  0.39008096396E+00  0.00000000000E+00 0.  1.
</event>
<event>
 7    1  0.2438448E-008  0.4614232E+02  0.7816164E-02  0.1320468E+00
        -11   -1    0    0    0    0  0.00000000000E+00  0.00000000000E+00  0.45593999997E+02  0.45594000000E+02  0.51100000000E-03 0.  1.
         11   -1    0    0    0    0 -0.00000000000E+00 -0.00000000000E+00 -0.45593999997E+02  0.45594000000E+02  0.51100000000E-03 0. -1.
    9900012    2    1    2    0    0  0.26775251067E+02 -0.19575236585E+02  0.30479658797E+02  0.46142316994E+02  0.99999930083E+01 0.  0.
         12    1    1    2    0    0 -0.26775251067E+02  0.19575236585E+02 -0.30479658797E+02  0.45045683006E+02  0.00000000000E+00 0. -1.
         11    1    3    3    0    0  0.20503027275E+01 -0.15522420656E+01  0.65364044359E+01  0.70240856996E+01  0.51100000000E-03 0. -1.
        -11    1    3    3    0    0  0.15506901348E+02 -0.13918711639E+02  0.16517418785E+02  0.26589841043E+02  0.51100000000E-03 0.  1.
         12    1    3    3    0    0  0.92180469916E+01 -0.41042828803E+01  0.74258355765E+01  0.12528390252E+02  0.00000000000E+00 0. -1.
</event>
<event>
 7    1  0.2438448E-008  0.4614232E+02  0.7816164E-02  0.1320468E+00
        -11   -1    0    0    0    0  0.00000000000E+00  0.00000000000E+00  0.45593999997E+02  0.45594000000E+02  0.51100000000E-03 0.  1.
         11   -1    0    0    0    0 -0.00000000000E+00 -0.00000000000E+00 -0.45593999997E+02  0.45594000000E+02  0.51100000000E-03 0. -1.
    9900012    2    1    2    0    0  0.19746189616E+02  0.17138951990E+02  0.36680473843E+02  0.46142324946E+02  0.10000065520E+02 0.  0.
         12    1    1    2    0    0 -0.19746189616E+02 -0.17138951990E+02 -0.36680473843E+02  0.45045675054E+02  0.00000000000E+00 0. -1.
         11    1    3    3    0    0  0.50142240023E+01  0.69447497580E+01  0.16395758698E+02  0.18498456560E+02  0.51100000000E-03 0. -1.
        -11    1    3    3    0    0  0.26569691320E+01  0.46978016104E+01  0.73140436842E+01  0.90897777869E+01  0.51100000000E-03 0.  1.
         12    1    3    3    0    0  0.12074996482E+02  0.54964006216E+01  0.12970671461E+02  0.18554090600E+02  0.00000000000E+00 0. -1.
</event>
<event>
 7    1  0.2438448E-008  0.4614231E+02  0.7816164E-02  0.1320468E+00
        -11   -1    0    0    0    0  0.00000000000E+00  0.00000000000E+00  0.45593999997E+02  0.45594000000E+02  0.51100000000E-03 0.  1.
         11   -1    0    0    0    0 -0.00000000000E+00 -0.00000000000E+00 -0.45593999997E+02  0.45594000000E+02  0.51100000000E-03 0. -1.
    9900012    2    1    2    0    0 -0.29457566502E+02 -0.14872414755E+02  0.30662302751E+02  0.46142314803E+02  0.99999730273E+01 0.  0.
         12    1    1    2    0    0  0.29457566502E+02  0.14872414755E+02 -0.30662302751E+02  0.45045685197E+02  0.00000000000E+00 0. -1.
         11    1    3    3    0    0 -0.16167312207E+02 -0.12558768387E+02  0.14548782970E+02  0.25115169392E+02  0.51100000000E-03 0.  1.
        -11    1    3    3    0    0 -0.71992892198E+01 -0.98701827630E+00  0.90482235155E+01  0.11604926514E+02  0.51100000000E-03 0. -1.
        -12    1    3    3    0    0 -0.60909650752E+01 -0.13266280919E+01  0.70652962649E+01  0.94222188975E+01  0.00000000000E+00 0.  1.
</event>
<event>
 7    1  0.2438448E-008  0.4614232E+02  0.7816164E-02  0.1320468E+00
        -11   -1    0    0    0    0  0.00000000000E+00  0.00000000000E+00  0.45593999997E+02  0.45594000000E+02  0.51100000000E-03 0.  1.
         11   -1    0    0    0    0 -0.00000000000E+00 -0.00000000000E+00 -0.45593999997E+02  0.45594000000E+02  0.51100000000E-03 0. -1.
    9900012    2    1    2    0    0  0.16132715438E+02 -0.25213485260E+02  0.33661977583E+02  0.46142322281E+02  0.10000041218E+02 0.  0.
         12    1    1    2    0    0 -0.16132715438E+02  0.25213485260E+02 -0.33661977583E+02  0.45045677719E+02  0.00000000000E+00 0. -1.
         11    1    3    3    0    0  0.82415608790E+01 -0.70573334954E+01  0.12390975790E+02  0.16470141562E+02  0.51100000000E-03 0. -1.
        -11    1    3    3    0    0  0.81146578477E+01 -0.17402315344E+02  0.18038117411E+02  0.26345055158E+02  0.51100000000E-03 0.  1.
         12    1    3    3    0    0 -0.22350328862E+00 -0.75383642057E+00  0.32328843825E+01  0.33271255611E+01  0.00000000000E+00 0. -1.
</event>
<event>
 7    1  0.2438448E-008  0.4614232E+02  0.7816164E-02  0.1320468E+00
        -11   -1    0    0    0    0  0.00000000000E+00  0.00000000000E+00  0.45593999997E+02  0.45594000000E+02  0.51100000000E-03 0.  1.
         11   -1    0    0    0    0 -0.00000000000E+00 -0.00000000000E+00 -0.45593999997E+02  0.45594000000E+02  0.51100000000E-03 0. -1.
    9900012    2    1    2    0    0  0.54701968163E+01 -0.34173198707E+02  0.28833711536E+02  0.46142317809E+02  0.10000000441E+02 0.  0.
         12    1    1    2    0    0 -0.54701968163E+01  0.34173198707E+02 -0.28833711536E+02  0.45045682191E+02  0.00000000000E+00 0. -1.
         11    1    3    3    0    0  0.53860849886E+01 -0.10827800733E+02  0.12245562833E+02  0.17210606892E+02  0.51100000000E-03 0. -1.
        -11    1    3    3    0    0  0.11878324460E+01 -0.16989487555E+02  0.10194005689E+02  0.19848712441E+02  0.51100000000E-03 0.  1.
         12    1    3    3    0    0 -0.11037206184E+01 -0.63559104185E+01  0.63941430137E+01  0.90829984769E+01  0.00000000000E+00 0. -1.
</event>
<event>
 7    1  0.2438448E-008  0.4614232E+02  0.7816164E-02  0.1320468E+00
        -11   -1    0    0    0    0  0.00000000000E+00  0.00000000000E+00  0.45593999997E+02  0.45594000000E+02  0.51100000000E-03 0.  1.
         11   -1    0    0    0    0 -0.00000000000E+00 -0.00000000000E+00 -0.45593999997E+02  0.45594000000E+02  0.51100000000E-03 0. -1.
    9900012    2    1    2    0    0 -0.19987923742E+02 -0.34069710337E+02  0.21652975228E+02  0.46142316587E+02  0.99999892920E+01 0.  0.
         12    1    1    2    0    0  0.19987923742E+02  0.34069710337E+02 -0.21652975228E+02  0.45045683413E+02  0.00000000000E+00 0. -1.
         11    1    3    3    0    0 -0.67022331496E+01 -0.15704609080E+02  0.84109391424E+01  0.19034142299E+02  0.51100000000E-03 0.  1.
        -11    1    3    3    0    0 -0.75073111418E+01 -0.83843974473E+01  0.29105300636E+01  0.11624501135E+02  0.51100000000E-03 0. -1.
         12    1    3    3    0    0 -0.57783794503E+01 -0.99807038094E+01  0.10331506022E+02  0.15483673152E+02  0.00000000000E+00 0. -1.
</event>
<event>
 7    1  0.2438448E-008  0.4614232E+02  0.7816164E-02  0.1320468E+00
        -11   -1    0    0    0    0  0.00000000000E+00  0.00000000000E+00  0.45593999997E+02  0.45594000000E+02  0.51100000000E-03 0.  1.
         11   -1    0    0    0    0 -0.00000000000E+00 -0.00000000000E+00 -0.45593999997E+02  0.45594000000E+02  0.51100000000E-03 0. -1.
    9900012    2    1    2    0    0  0.13512114126E+02 -0.42543899735E+02  0.60458915472E+01  0.46142318327E+02  0.10000005159E+02 0.  0.
         12    1    1    2    0    0 -0.13512114126E+02  0.42543899735E+02 -0.60458915472E+01  0.45045681673E+02  0.00000000000E+00 0. -1.
         11    1    3    3    0    0  0.81135768473E+00 -0.60806689508E+00  0.12283442486E+01  0.15927575131E+01  0.51100000000E-03 0. -1.
        -11    1    3    3    0    0  0.10061467477E+02 -0.36110312664E+02  0.19385682675E+01  0.37535927531E+02  0.51100000000E-03 0.  1.
        -12    1    3    3    0    0  0.26392889641E+01 -0.58255201762E+01  0.28789790310E+01  0.70136332825E+01  0.00000000000E+00 0.  1.
</event>
<event>
 7    1  0.2438448E-008  0.4614232E+02  0.7816164E-02  0.1320468E+00
        -11   -1    0    0    0    0  0.00000000000E+00  0.00000000000E+00  0.45593999997E+02  0.45594000000E+02  0.51100000000E-03 0. -1.
         11   -1    0    0    0    0 -0.00000000000E+00 -0.00000000000E+00 -0.45593999997E+02  0.45594000000E+02  0.51100000000E-03 0.  1.
    9900012    2    1    2    0    0 -0.18351968103E+02  0.29836231838E+02 -0.28321688677E+02  0.46142317487E+02  0.99999974987E+01 0.  0.
         12    1    1    2    0    0  0.18351968103E+02 -0.29836231838E+02  0.28321688677E+02  0.45045682513E+02  0.00000000000E+00 0. -1.
         11    1    3    3    0    0 -0.53356259154E+00  0.70051370586E+01 -0.55682968554E+01  0.89645169630E+01  0.51100000000E-03 0. -1.
        -11    1    3    3    0    0 -0.92869404300E+01  0.15110689160E+02 -0.11885321315E+02  0.21350434479E+02  0.51100000000E-03 0.  1.
         12    1    3    3    0    0 -0.85314650813E+01  0.77204056201E+01 -0.10868070506E+02  0.15827366044E+02  0.00000000000E+00 0. -1.
</event>
<event>
 7    1  0.2438448E-008  0.4614232E+02  0.7816164E-02  0.1320468E+00
        -11   -1    0    0    0    0  0.00000000000E+00  0.00000000000E+00  0.45593999997E+02  0.45594000000E+02  0.51100000000E-03 0. -1.
         11   -1    0    0    0    0 -0.00000000000E+00 -0.00000000000E+00 -0.45593999997E+02  0.45594000000E+02  0.51100000000E-03 0.  1.
    9900012    2    1    2    0    0  0.16581999085E+01 -0.15895108118E+01 -0.44987080245E+02  0.46142316960E+02  0.99999926921E+01 0.  0.
         12    1    1    2    0    0 -0.16581999085E+01  0.15895108118E+01  0.44987080245E+02  0.45045683040E+02  0.00000000000E+00 0. -1.
         11    1    3    3    0    0  0.10979776783E+00 -0.22895197660E+00  0.17448898586E+00  0.30809288326E+00  0.51100000000E-03 0. -1.
        -11    1    3    3    0    0  0.62910978317E+00 -0.39411852466E+01 -0.37221351127E+02  0.37434712504E+02  0.51100000000E-03 0.  1.
        -12    1    3    3    0    0  0.91929235745E+00  0.25806264114E+01 -0.79402181043E+01  0.83995115725E+01  0.00000000000E+00 0.  1.
</event>
<event>
 7    1  0.2438448E-008  0.4614232E+02  0.7816164E-02  0.1320468E+00
        -11   -1    0    0    0    0  0.00000000000E+00  0.00000000000E+00  0.45593999997E+02  0.45594000000E+02  0.51100000000E-03 0. -1.
         11   -1    0    0    0    0 -0.00000000000E+00 -0.00000000000E+00 -0.45593999997E+02  0.45594000000E+02  0.51100000000E-03 0.  1.
    9900012    2    1    2    0    0  0.15101976281E+02 -0.40041678631E+02 -0.14060857807E+02  0.46142318326E+02  0.10000005154E+02 0.  0.
         12    1    1    2    0    0 -0.15101976281E+02  0.40041678631E+02  0.14060857807E+02  0.45045681674E+02  0.00000000000E+00 0. -1.
         11    1    3    3    0    0  0.47127757379E+01 -0.13258976981E+02 -0.60467014681E+01  0.15315786779E+02  0.51100000000E-03 0. -1.
        -11    1    3    3    0    0  0.10542970809E+02 -0.20849746544E+02 -0.41098412031E+01  0.23722499012E+02  0.51100000000E-03 0.  1.
         12    1    3    3    0    0 -0.15377026541E+00 -0.59329551061E+01 -0.39043151357E+01  0.71040325354E+01  0.00000000000E+00 0. -1.
</event>
<event>
 7    1  0.2438448E-008  0.4614232E+02  0.7816164E-02  0.1320468E+00
        -11   -1    0    0    0    0  0.00000000000E+00  0.00000000000E+00  0.45593999997E+02  0.45594000000E+02  0.51100000000E-03 0.  1.
         11   -1    0    0    0    0 -0.00000000000E+00 -0.00000000000E+00 -0.45593999997E+02  0.45594000000E+02  0.51100000000E-03 0. -1.
    9900012    2    1    2    0    0 -0.43703915998E+02  0.10330355761E+02 -0.35163776457E+01  0.46142318348E+02  0.10000005352E+02 0.  0.
         12    1    1    2    0    0  0.43703915998E+02 -0.10330355761E+02  0.35163776457E+01  0.45045681652E+02  0.00000000000E+00 0. -1.
         11    1    3    3    0    0 -0.31060737489E+02  0.82841122883E+01  0.54371923631E+00  0.32151074020E+02  0.51100000000E-03 0. -1.
        -11    1    3    3    0    0 -0.96731240606E+01  0.31620597335E+01 -0.35471918920E+01  0.10777315131E+02  0.51100000000E-03 0.  1.
         12    1    3    3    0    0 -0.29700544491E+01 -0.11158162606E+01 -0.51290499001E+00  0.32139291975E+01  0.00000000000E+00 0. -1.
</event>
<event>
 7    1  0.2438448E-008  0.4614232E+02  0.7816164E-02  0.1320468E+00
        -11   -1    0    0    0    0  0.00000000000E+00  0.00000000000E+00  0.45593999997E+02  0.45594000000E+02  0.51100000000E-03 0.  1.
         11   -1    0    0    0    0 -0.00000000000E+00 -0.00000000000E+00 -0.45593999997E+02  0.45594000000E+02  0.51100000000E-03 0. -1.
    9900012    2    1    2    0    0 -0.16240099151E+02  0.20262273224E+02  0.36807784400E+02  0.46142317309E+02  0.99999958795E+01 0.  0.
         12    1    1    2    0    0  0.16240099151E+02 -0.20262273224E+02 -0.36807784400E+02  0.45045682691E+02  0.00000000000E+00 0. -1.
         11    1    3    3    0    0 -0.33325202288E+01  0.76301235254E+01  0.11775252813E+02  0.14421548293E+02  0.51100000000E-03 0. -1.
        -11    1    3    3    0    0 -0.13807870138E+02  0.11154626550E+02  0.22937165593E+02  0.29003388370E+02  0.51100000000E-03 0.  1.
         12    1    3    3    0    0  0.90029121664E+00  0.14775231485E+01  0.20953659943E+01  0.27173806467E+01  0.00000000000E+00 0. -1.
</event>
<event>
 7    1  0.2438448E-008  0.4614232E+02  0.7816164E-02  0.1320468E+00
        -11   -1    0    0    0    0  0.00000000000E+00  0.00000000000E+00  0.45593999997E+02  0.45594000000E+02  0.51100000000E-03 0. -1.
         11   -1    0    0    0    0 -0.00000000000E+00 -0.00000000000E+00 -0.45593999997E+02  0.45594000000E+02  0.51100000000E-03 0.  1.
    9900012    2    1    2    0    0 -0.90062601723E+01  0.43786363868E+02  0.55457460640E+01  0.46142315606E+02  0.99999803509E+01 0.  0.
         12    1    1    2    0    0  0.90062601723E+01 -0.43786363868E+02 -0.55457460640E+01  0.45045684394E+02  0.00000000000E+00 0. -1.
         11    1    3    3    0    0 -0.62309165629E+01  0.13955833812E+02  0.25289441354E+01  0.15491454977E+02  0.51100000000E-03 0. -1.
        -11    1    3    3    0    0 -0.30066215247E+01  0.28303340128E+02  0.41110284539E+01  0.28757944825E+02  0.51100000000E-03 0.  1.
        -12    1    3    3    0    0  0.23127791524E+00  0.15271899285E+01 -0.10942265254E+01  0.18929158039E+01  0.00000000000E+00 0.  1.
</event>
<event>
 7    1  0.2438448E-008  0.4614232E+02  0.7816164E-02  0.1320468E+00
        -11   -1    0    0    0    0  0.00000000000E+00  0.00000000000E+00  0.45593999997E+02  0.45594000000E+02  0.51100000000E-03 0. -1.
         11   -1    0    0    0    0 -0.00000000000E+00 -0.00000000000E+00 -0.45593999997E+02  0.45594000000E+02  0.51100000000E-03 0.  1.
    9900012    2    1    2    0    0  0.13177919368E+02 -0.33733651959E+02 -0.26786121286E+02  0.46142321773E+02  0.10000036588E+02 0.  0.
         12    1    1    2    0    0 -0.13177919368E+02  0.33733651959E+02  0.26786121286E+02  0.45045678227E+02  0.00000000000E+00 0. -1.
         11    1    3    3    0    0  0.82418573167E+00 -0.28818809246E+01  0.22110796783E+00  0.30055629720E+01  0.51100000000E-03 0. -1.
        -11    1    3    3    0    0  0.59979497675E+01 -0.11220695810E+02 -0.76612187022E+01  0.14851723406E+02  0.51100000000E-03 0.  1.
         12    1    3    3    0    0  0.63557838692E+01 -0.19631075224E+02 -0.19346010552E+02  0.28285035395E+02  0.00000000000E+00 0. -1.
</event>
<event>
 7    1  0.2438448E-008  0.4614232E+02  0.7816164E-02  0.1320468E+00
        -11   -1    0    0    0    0  0.00000000000E+00  0.00000000000E+00  0.45593999997E+02  0.45594000000E+02  0.51100000000E-03 0. -1.
         11   -1    0    0    0    0 -0.00000000000E+00 -0.00000000000E+00 -0.45593999997E+02  0.45594000000E+02  0.51100000000E-03 0.  1.
    9900012    2    1    2    0    0  0.29378362723E+02 -0.45846363120E+01 -0.33837944179E+02  0.46142317047E+02  0.99999934919E+01 0.  0.
         12    1    1    2    0    0 -0.29378362723E+02  0.45846363120E+01  0.33837944179E+02  0.45045682953E+02  0.00000000000E+00 0. -1.
         11    1    3    3    0    0  0.14009614833E+01  0.93468575888E+00 -0.54440115154E+01  0.56985605364E+01  0.51100000000E-03 0. -1.
        -11    1    3    3    0    0  0.12871557724E+02 -0.18958909043E+01 -0.15643522492E+02  0.20346773621E+02  0.51100000000E-03 0.  1.
         12    1    3    3    0    0  0.15105843515E+02 -0.36234311665E+01 -0.12750410172E+02  0.20096982890E+02  0.00000000000E+00 0. -1.
</event>
<event>
 7    1  0.2438448E-008  0.4614232E+02  0.7816164E-02  0.1320468E+00
        -11   -1    0    0    0    0  0.00000000000E+00  0.00000000000E+00  0.45593999997E+02  0.45594000000E+02  0.51100000000E-03 0. -1.
         11   -1    0    0    0    0 -0.00000000000E+00 -0.00000000000E+00 -0.45593999997E+02  0.45594000000E+02  0.51100000000E-03 0.  1.
    9900012    2    1    2    0    0 -0.17122691370E+02  0.38598295400E+02  0.15687528951E+02  0.46142317275E+02  0.99999955676E+01 0.  0.
         12    1    1    2    0    0  0.17122691370E+02 -0.38598295400E+02 -0.15687528951E+02  0.45045682725E+02  0.00000000000E+00 0. -1.
         11    1    3    3    0    0 -0.35690076671E+01  0.38609157055E+01  0.27819080216E+01  0.59484030054E+01  0.51100000000E-03 0. -1.
        -11    1    3    3    0    0 -0.36690832059E+00 -0.13550949435E+00  0.97203781265E+00  0.10477797045E+01  0.51100000000E-03 0.  1.
        -12    1    3    3    0    0 -0.13186775382E+02  0.34872889189E+02  0.11933583117E+02  0.39146134565E+02  0.00000000000E+00 0.  1.
</event>
<event>
 7    1  0.2438448E-008  0.4614231E+02  0.7816164E-02  0.1320468E+00
        -11   -1    0    0    0    0  0.00000000000E+00  0.00000000000E+00  0.45593999997E+02  0.45594000000E+02  0.51100000000E-03 0. -1.
         11   -1    0    0    0    0 -0.00000000000E+00 -0.00000000000E+00 -0.45593999997E+02  0.45594000000E+02  0.51100000000E-03 0.  1.
    9900012    2    1    2    0    0  0.35783471045E+02  0.17018689942E+02 -0.21424790921E+02  0.46142309048E+02  0.99999205444E+01 0.  0.
         12    1    1    2    0    0 -0.35783471045E+02 -0.17018689942E+02  0.21424790921E+02  0.45045690952E+02  0.00000000000E+00 0. -1.
         11    1    3    3    0    0  0.17436799637E+02  0.86356296411E+01 -0.61485015017E+01  0.20406375275E+02  0.51100000000E-03 0.  1.
        -11    1    3    3    0    0  0.38400890350E+01  0.24789368091E+01 -0.59658720128E+01  0.75155199842E+01  0.51100000000E-03 0. -1.
         12    1    3    3    0    0  0.14506582372E+02  0.59041234919E+01 -0.93104174069E+01  0.18220413789E+02  0.00000000000E+00 0. -1.
</event>
<event>
 7    1  0.2438448E-008  0.4614232E+02  0.7816164E-02  0.1320468E+00
        -11   -1    0    0    0    0  0.00000000000E+00  0.00000000000E+00  0.45593999997E+02  0.45594000000E+02  0.51100000000E-03 0. -1.
         11   -1    0    0    0    0 -0.00000000000E+00 -0.00000000000E+00 -0.45593999997E+02  0.45594000000E+02  0.51100000000E-03 0.  1.
    9900012    2    1    2    0    0 -0.13560351428E+02 -0.22071155093E+02 -0.36852332953E+02  0.46142318053E+02  0.10000002662E+02 0.  0.
         12    1    1    2    0    0  0.13560351428E+02  0.22071155093E+02  0.36852332953E+02  0.45045681947E+02  0.00000000000E+00 0. -1.
         11    1    3    3    0    0 -0.46262008915E+00  0.12662118756E+00 -0.13867259465E+00  0.49928010340E+00  0.51100000000E-03 0. -1.
        -11    1    3    3    0    0 -0.93659148670E+01 -0.90402400912E+01 -0.13896597820E+02  0.19041053895E+02  0.51100000000E-03 0.  1.
         12    1    3    3    0    0 -0.37318164713E+01 -0.13157536189E+02 -0.22817062539E+02  0.26601984054E+02  0.00000000000E+00 0. -1.
</event>
<event>
 7    1  0.2438448E-008  0.4614232E+02  0.7816164E-02  0.1320468E+00
        -11   -1    0    0    0    0  0.00000000000E+00  0.00000000000E+00  0.45593999997E+02  0.45594000000E+02  0.51100000000E-03 0.  1.
         11   -1    0    0    0    0 -0.00000000000E+00 -0.00000000000E+00 -0.45593999997E+02  0.45594000000E+02  0.51100000000E-03 0. -1.
    9900012    2    1    2    0    0 -0.27846719680E+02 -0.23625928689E+02  0.26372129143E+02  0.46142317645E+02  0.99999989397E+01 0.  0.
         12    1    1    2    0    0  0.27846719680E+02  0.23625928689E+02 -0.26372129143E+02  0.45045682355E+02  0.00000000000E+00 0. -1.
         11    1    3    3    0    0 -0.97442189711E+01 -0.12494163258E+02  0.93560413057E+01  0.18400799658E+02  0.51100000000E-03 0. -1.
        -11    1    3    3    0    0 -0.90297369315E+01 -0.33796323828E+01  0.52290616542E+01  0.10968188097E+02  0.51100000000E-03 0.  1.
         12    1    3    3    0    0 -0.90727637770E+01 -0.77521330475E+01  0.11787026183E+02  0.16773329889E+02  0.00000000000E+00 0. -1.
</event>
<event>
 7    1  0.2438448E-008  0.4614232E+02  0.7816164E-02  0.1320468E+00
        -11   -1    0    0    0    0  0.00000000000E+00  0.00000000000E+00  0.45593999997E+02  0.45594000000E+02  0.51100000000E-03 0.  1.
         11   -1    0    0    0    0 -0.00000000000E+00 -0.00000000000E+00 -0.45593999997E+02  0.45594000000E+02  0.51100000000E-03 0. -1.
    9900012    2    1    2    0    0  0.35950523381E+02  0.26351870112E+02  0.65001758495E+01  0.46142317900E+02  0.10000001264E+02 0.  0.
         12    1    1    2    0    0 -0.35950523381E+02 -0.26351870112E+02 -0.65001758495E+01  0.45045682100E+02  0.00000000000E+00 0. -1.
         11    1    3    3    0    0  0.17836232205E+02  0.13497384589E+02  0.18971565843E+01  0.22447934724E+02  0.51100000000E-03 0. -1.
        -11    1    3    3    0    0  0.12940570942E+02  0.68105296743E+01  0.56356888602E+01  0.15671715922E+02  0.51100000000E-03 0.  1.
         12    1    3    3    0    0  0.51737202341E+01  0.60439558489E+01 -0.10326695951E+01  0.80226672533E+01  0.00000000000E+00 0. -1.
</event>
<event>
 7    1  0.2438448E-008  0.4614232E+02  0.7816164E-02  0.1320468E+00
        -11   -1    0    0    0    0  0.00000000000E+00  0.00000000000E+00  0.45593999997E+02  0.45594000000E+02  0.51100000000E-03 0. -1.
         11   -1    0    0    0    0 -0.00000000000E+00 -0.00000000000E+00 -0.45593999997E+02  0.45594000000E+02  0.51100000000E-03 0.  1.
    9900012    2    1    2    0    0 -0.25764549097E+02  0.35524521361E+02 -0.10164144848E+02  0.46142318203E+02  0.10000004028E+02 0.  0.
         12    1    1    2    0    0  0.25764549097E+02 -0.35524521361E+02  0.10164144848E+02  0.45045681797E+02  0.00000000000E+00 0. -1.
         11    1    3    3    0    0 -0.74199580489E+01  0.84832876377E+01 -0.64756813362E+01  0.12998322800E+02  0.51100000000E-03 0.  1.
        -11    1    3    3    0    0 -0.93669668257E+01  0.12507161749E+02  0.18550637828E+00  0.15627014283E+02  0.51100000000E-03 0. -1.
        -12    1    3    3    0    0 -0.89776242227E+01  0.14534071974E+02 -0.38739698899E+01  0.17516981119E+02  0.00000000000E+00 0.  1.
</event>
<event>
 7    1  0.2438448E-008  0.4614232E+02  0.7816164E-02  0.1320468E+00
        -11   -1    0    0    0    0  0.00000000000E+00  0.00000000000E+00  0.45593999997E+02  0.45594000000E+02  0.51100000000E-03 0.  1.
         11   -1    0    0    0    0 -0.00000000000E+00 -0.00000000000E+00 -0.45593999997E+02  0.45594000000E+02  0.51100000000E-03 0. -1.
    9900012    2    1    2    0    0  0.12960803750E+02 -0.10413438957E+01  0.43128257976E+02  0.46142317998E+02  0.10000002160E+02 0.  0.
         12    1    1    2    0    0 -0.12960803750E+02  0.10413438957E+01 -0.43128257976E+02  0.45045682002E+02  0.00000000000E+00 0. -1.
         11    1    3    3    0    0 -0.10006055493E+01 -0.87317555035E+00  0.42324916913E+01  0.44359478339E+01  0.51100000000E-03 0. -1.
        -11    1    3    3    0    0  0.55457902787E+01 -0.22844327815E+01  0.11515188251E+02  0.12983604417E+02  0.51100000000E-03 0.  1.
        -12    1    3    3    0    0  0.84156190205E+01  0.21162644362E+01  0.27380578035E+02  0.28722765747E+02  0.00000000000E+00 0.  1.
</event>
<event>
 7    1  0.2438448E-008  0.4614232E+02  0.7816164E-02  0.1320468E+00
        -11   -1    0    0    0    0  0.00000000000E+00  0.00000000000E+00  0.45593999997E+02  0.45594000000E+02  0.51100000000E-03 0. -1.
         11   -1    0    0    0    0 -0.00000000000E+00 -0.00000000000E+00 -0.45593999997E+02  0.45594000000E+02  0.51100000000E-03 0.  1.
    9900012    2    1    2    0    0 -0.17074463144E+02 -0.42450825219E+01 -0.41467524884E+02  0.46142316109E+02  0.99999849306E+01 0.  0.
         12    1    1    2    0    0  0.17074463144E+02  0.42450825219E+01  0.41467524884E+02  0.45045683891E+02  0.00000000000E+00 0. -1.
         11    1    3    3    0    0 -0.77686631972E+01 -0.21202226772E+01 -0.15358756530E+02  0.17341824427E+02  0.51100000000E-03 0. -1.
        -11    1    3    3    0    0 -0.10114147382E+02 -0.14558066893E+01 -0.18628918058E+02  0.21247398398E+02  0.51100000000E-03 0.  1.
        -12    1    3    3    0    0  0.80834743555E+00 -0.66905315542E+00 -0.74798502960E+01  0.75530932837E+01  0.00000000000E+00 0.  1.
</event>
<event>
 7    1  0.2438448E-008  0.4614232E+02  0.7816164E-02  0.1320468E+00
        -11   -1    0    0    0    0  0.00000000000E+00  0.00000000000E+00  0.45593999997E+02  0.45594000000E+02  0.51100000000E-03 0. -1.
         11   -1    0    0    0    0 -0.00000000000E+00 -0.00000000000E+00 -0.45593999997E+02  0.45594000000E+02  0.51100000000E-03 0.  1.
    9900012    2    1    2    0    0 -0.11700646130E+02  0.20311779160E+02 -0.38466090853E+02  0.46142316100E+02  0.99999848547E+01 0.  0.
         12    1    1    2    0    0  0.11700646130E+02 -0.20311779160E+02  0.38466090853E+02  0.45045683900E+02  0.00000000000E+00 0. -1.
         11    1    3    3    0    0 -0.23405737515E+00  0.94638834707E-01 -0.10041131091E+01  0.10353660033E+01  0.51100000000E-03 0. -1.
        -11    1    3    3    0    0 -0.98686335543E+01  0.14927661971E+02 -0.34433624556E+02  0.38805921204E+02  0.51100000000E-03 0.  1.
         12    1    3    3    0    0 -0.15979552005E+01  0.52894783538E+01 -0.30283531874E+01  0.63010288926E+01  0.00000000000E+00 0. -1.
</event>
<event>
 7    1  0.2438448E-008  0.4614232E+02  0.7816164E-02  0.1320468E+00
        -11   -1    0    0    0    0  0.00000000000E+00  0.00000000000E+00  0.45593999997E+02  0.45594000000E+02  0.51100000000E-03 0.  1.
         11   -1    0    0    0    0 -0.00000000000E+00 -0.00000000000E+00 -0.45593999997E+02  0.45594000000E+02  0.51100000000E-03 0. -1.
    9900012    2    1    2    0    0  0.12548098080E+02  0.28468481494E+02  0.32576129927E+02  0.46142318243E+02  0.10000004392E+02 0.  0.
         12    1    1    2    0    0 -0.12548098080E+02 -0.28468481494E+02 -0.32576129927E+02  0.45045681757E+02  0.00000000000E+00 0. -1.
         11    1    3    3    0    0  0.46063906741E+01  0.17347954715E+02  0.19295265503E+02  0.26352943649E+02  0.51100000000E-03 0. -1.
        -11    1    3    3    0    0  0.62867526119E+01  0.78738650571E+01  0.62128928917E+01  0.11837273659E+02  0.51100000000E-03 0.  1.
         12    1    3    3    0    0  0.16549547937E+01  0.32466617213E+01  0.70679715318E+01  0.79521009348E+01  0.00000000000E+00 0. -1.
</event>
<event>
 7    1  0.2438448E-008  0.4614232E+02  0.7816164E-02  0.1320468E+00
        -11   -1    0    0    0    0  0.00000000000E+00  0.00000000000E+00  0.45593999997E+02  0.45594000000E+02  0.51100000000E-03 0.  1.
         11   -1    0    0    0    0 -0.00000000000E+00 -0.00000000000E+00 -0.45593999997E+02  0.45594000000E+02  0.51100000000E-03 0. -1.
    9900012    2    1    2    0    0 -0.39628634172E+02 -0.55603913493E+01  0.20682525246E+02  0.46142318200E+02  0.10000003998E+02 0.  0.
         12    1    1    2    0    0  0.39628634172E+02  0.55603913493E+01 -0.20682525246E+02  0.45045681800E+02  0.00000000000E+00 0. -1.
         11    1    3    3    0    0 -0.15745928765E+01  0.96384631226E+00  0.20399451182E+01  0.27513121937E+01  0.51100000000E-03 0. -1.
        -11    1    3    3    0    0 -0.42380063654E+01 -0.21971683646E+01  0.57696953002E+00  0.48084447460E+01  0.51100000000E-03 0.  1.
        -12    1    3    3    0    0 -0.33816034930E+02 -0.43270692970E+01  0.18065610598E+02  0.38582561260E+02  0.00000000000E+00 0.  1.
</event>
<event>
 7    1  0.2438448E-008  0.4614231E+02  0.7816164E-02  0.1320468E+00
        -11   -1    0    0    0    0  0.00000000000E+00  0.00000000000E+00  0.45593999997E+02  0.45594000000E+02  0.51100000000E-03 0.  1.
         11   -1    0    0    0    0 -0.00000000000E+00 -0.00000000000E+00 -0.45593999997E+02  0.45594000000E+02  0.51100000000E-03 0. -1.
    9900012    2    1    2    0    0  0.38959969250E+02  0.21474419992E+02 -0.70770232853E+01  0.46142310123E+02  0.99999303467E+01 0.  0.
         12    1    1    2    0    0 -0.38959969250E+02 -0.21474419992E+02  0.70770232853E+01  0.45045689877E+02  0.00000000000E+00 0. -1.
         11    1    3    3    0    0  0.11647395270E+02  0.10701641246E+02 -0.16284740625E+01  0.15900907835E+02  0.51100000000E-03 0. -1.
        -11    1    3    3    0    0  0.23999921009E+02  0.10843978665E+02 -0.40530774118E+01  0.26646116386E+02  0.51100000000E-03 0.  1.
         12    1    3    3    0    0  0.33126529717E+01 -0.71199919746E-01 -0.13954718110E+01  0.35952859017E+01  0.00000000000E+00 0. -1.
</event>
<event>
 7    1  0.2438448E-008  0.4614232E+02  0.7816164E-02  0.1320468E+00
        -11   -1    0    0    0    0  0.00000000000E+00  0.00000000000E+00  0.45593999997E+02  0.45594000000E+02  0.51100000000E-03 0. -1.
         11   -1    0    0    0    0 -0.00000000000E+00 -0.00000000000E+00 -0.45593999997E+02  0.45594000000E+02  0.51100000000E-03 0.  1.
    9900012    2    1    2    0    0 -0.37820955259E+02  0.13282392406E+02 -0.20549131055E+02  0.46142318833E+02  0.10000009770E+02 0.  0.
         12    1    1    2    0    0  0.37820955259E+02 -0.13282392406E+02  0.20549131055E+02  0.45045681167E+02  0.00000000000E+00 0. -1.
         11    1    3    3    0    0 -0.18222015796E+02  0.66780708599E+01 -0.14278950410E+02  0.24094126155E+02  0.51100000000E-03 0. -1.
        -11    1    3    3    0    0 -0.51317907181E+01  0.61384309206E+00 -0.32381122441E+01  0.60989712643E+01  0.51100000000E-03 0.  1.
        -12    1    3    3    0    0 -0.14467148745E+02  0.59904784539E+01 -0.30320684006E+01  0.15949221413E+02  0.00000000000E+00 0.  1.
</event>
<event>
 7    1  0.2438448E-008  0.4614232E+02  0.7816164E-02  0.1320468E+00
        -11   -1    0    0    0    0  0.00000000000E+00  0.00000000000E+00  0.45593999997E+02  0.45594000000E+02  0.51100000000E-03 0.  1.
         11   -1    0    0    0    0 -0.00000000000E+00 -0.00000000000E+00 -0.45593999997E+02  0.45594000000E+02  0.51100000000E-03 0. -1.
    9900012    2    1    2    0    0  0.76659951922E+01  0.34911263068E+02  0.27414403260E+02  0.46142320103E+02  0.10000021356E+02 0.  0.
         12    1    1    2    0    0 -0.76659951922E+01 -0.34911263068E+02 -0.27414403260E+02  0.45045679897E+02  0.00000000000E+00 0. -1.
         11    1    3    3    0    0  0.16102658657E+01  0.52862899319E+01  0.16330349396E+01  0.57623450762E+01  0.51100000000E-03 0. -1.
        -11    1    3    3    0    0  0.76619102959E+01  0.22495687381E+02  0.20042483299E+02  0.31087971262E+02  0.51100000000E-03 0.  1.
        -12    1    3    3    0    0 -0.16061809694E+01  0.71292857549E+01  0.57388850213E+01  0.92920037651E+01  0.00000000000E+00 0.  1.
</event>
<event>
 7    1  0.2438448E-008  0.4614232E+02  0.7816164E-02  0.1320468E+00
        -11   -1    0    0    0    0  0.00000000000E+00  0.00000000000E+00  0.45593999997E+02  0.45594000000E+02  0.51100000000E-03 0.  1.
         11   -1    0    0    0    0 -0.00000000000E+00 -0.00000000000E+00 -0.45593999997E+02  0.45594000000E+02  0.51100000000E-03 0. -1.
    9900012    2    1    2    0    0  0.25968111805E+02  0.12043299867E+02  0.34781168013E+02  0.46142317069E+02  0.99999936871E+01 0.  0.
         12    1    1    2    0    0 -0.25968111805E+02 -0.12043299867E+02 -0.34781168013E+02  0.45045682931E+02  0.00000000000E+00 0. -1.
         11    1    3    3    0    0  0.10705138063E+01  0.28508679330E+01  0.35891395171E+01  0.47069491728E+01  0.51100000000E-03 0. -1.
        -11    1    3    3    0    0  0.86277777499E+01  0.59940287089E+00  0.75748354260E+01  0.11496780623E+02  0.51100000000E-03 0.  1.
        -12    1    3    3    0    0  0.16269820249E+02  0.85930290627E+01  0.23617193070E+02  0.29938587273E+02  0.00000000000E+00 0.  1.
</event>
<event>
 7    1  0.2438448E-008  0.4614232E+02  0.7816164E-02  0.1320468E+00
        -11   -1    0    0    0    0  0.00000000000E+00  0.00000000000E+00  0.45593999997E+02  0.45594000000E+02  0.51100000000E-03 0. -1.
         11   -1    0    0    0    0 -0.00000000000E+00 -0.00000000000E+00 -0.45593999997E+02  0.45594000000E+02  0.51100000000E-03 0.  1.
    9900012    2    1    2    0    0  0.36575698663E+02  0.16495803445E+02 -0.20474869337E+02  0.46142317206E+02  0.99999949396E+01 0.  0.
         12    1    1    2    0    0 -0.36575698663E+02 -0.16495803445E+02  0.20474869337E+02  0.45045682794E+02  0.00000000000E+00 0. -1.
         11    1    3    3    0    0 -0.29226867877E+00  0.38611334348E+00 -0.41770697046E-01  0.48605508623E+00  0.51100000000E-03 0. -1.
        -11    1    3    3    0    0  0.19833240539E+02  0.12158112353E+02 -0.10259023267E+02  0.25424883184E+02  0.51100000000E-03 0.  1.
         12    1    3    3    0    0  0.17034726803E+02  0.39515777485E+01 -0.10174075374E+02  0.20231378936E+02  0.00000000000E+00 0. -1.
</event>
<event>
 7    1  0.2438448E-008  0.4614232E+02  0.7816164E-02  0.1320468E+00
        -11   -1    0    0    0    0  0.00000000000E+00  0.00000000000E+00  0.45593999997E+02  0.45594000000E+02  0.51100000000E-03 0.  1.
         11   -1    0    0    0    0 -0.00000000000E+00 -0.00000000000E+00 -0.45593999997E+02  0.45594000000E+02  0.51100000000E-03 0. -1.
    9900012    2    1    2    0    0  0.49830097843E+01 -0.61745560983E+01  0.44341381878E+02  0.46142315674E+02  0.99999809671E+01 0.  0.
         12    1    1    2    0    0 -0.49830097843E+01  0.61745560983E+01 -0.44341381878E+02  0.45045684326E+02  0.00000000000E+00 0. -1.
         11    1    3    3    0    0 -0.13468209485E+01 -0.16316674847E+01  0.21463751640E+02  0.21567774576E+02  0.51100000000E-03 0.  1.
        -11    1    3    3    0    0  0.44775233468E+01 -0.49879926158E+00  0.12332934761E+02  0.13130053165E+02  0.51100000000E-03 0. -1.
         12    1    3    3    0    0  0.18523073860E+01 -0.40440893520E+01  0.10544695477E+02  0.11444487933E+02  0.00000000000E+00 0. -1.
</event>
<event>
 7    1  0.2438448E-008  0.4614232E+02  0.7816164E-02  0.1320468E+00
        -11   -1    0    0    0    0  0.00000000000E+00  0.00000000000E+00  0.45593999997E+02  0.45594000000E+02  0.51100000000E-03 0. -1.
         11   -1    0    0    0    0 -0.00000000000E+00 -0.00000000000E+00 -0.45593999997E+02  0.45594000000E+02  0.51100000000E-03 0.  1.
    9900012    2    1    2    0    0  0.14669402278E+01 -0.20859423740E+02 -0.39897943446E+02  0.46142319146E+02  0.10000012630E+02 0.  0.
         12    1    1    2    0    0 -0.14669402278E+01  0.20859423740E+02  0.39897943446E+02  0.45045680854E+02  0.00000000000E+00 0. -1.
         11    1    3    3    0    0  0.22376742763E+01 -0.18105261293E+01 -0.99176928049E+01  0.10326946396E+02  0.51100000000E-03 0. -1.
        -11    1    3    3    0    0 -0.99609747912E+00 -0.17879230671E+01 -0.54357987696E+01  0.58083377662E+01  0.51100000000E-03 0.  1.
        -12    1    3    3    0    0  0.22536343060E+00 -0.17260974544E+02 -0.24544451871E+02  0.30007034984E+02  0.00000000000E+00 0.  1.
</event>
<event>
 7    1  0.2438448E-008  0.4614232E+02  0.7816164E-02  0.1320468E+00
        -11   -1    0    0    0    0  0.00000000000E+00  0.00000000000E+00  0.45593999997E+02  0.45594000000E+02  0.51100000000E-03 0.  1.
         11   -1    0    0    0    0 -0.00000000000E+00 -0.00000000000E+00 -0.45593999997E+02  0.45594000000E+02  0.51100000000E-03 0. -1.
    9900012    2    1    2    0    0  0.93253782717E+00 -0.10050335203E+02  0.43900281725E+02  0.46142316521E+02  0.99999886946E+01 0.  0.
         12    1    1    2    0    0 -0.93253782717E+00  0.10050335203E+02 -0.43900281725E+02  0.45045683479E+02  0.00000000000E+00 0. -1.
         11    1    3    3    0    0 -0.18174844026E+00 -0.13494916344E+01  0.33030045851E+00  0.14011633813E+01  0.51100000000E-03 0. -1.
        -11    1    3    3    0    0  0.26187817464E+00  0.47690053076E+00  0.72307508255E+01  0.72511910785E+01  0.51100000000E-03 0.  1.
         12    1    3    3    0    0  0.85240809279E+00 -0.91777440995E+01  0.36339230441E+02  0.37489962062E+02  0.00000000000E+00 0. -1.
</event>
<event>
 7    1  0.2438448E-008  0.4614232E+02  0.7816164E-02  0.1320468E+00
        -11   -1    0    0    0    0  0.00000000000E+00  0.00000000000E+00  0.45593999997E+02  0.45594000000E+02  0.51100000000E-03 0. -1.
         11   -1    0    0    0    0 -0.00000000000E+00 -0.00000000000E+00 -0.45593999997E+02  0.45594000000E+02  0.51100000000E-03 0.  1.
    9900012    2    1    2    0    0 -0.42004750218E+02  0.55908168654E+01 -0.15279304646E+02  0.46142318469E+02  0.10000006459E+02 0.  0.
         12    1    1    2    0    0  0.42004750218E+02 -0.55908168654E+01  0.15279304646E+02  0.45045681531E+02  0.00000000000E+00 0. -1.
         11    1    3    3    0    0 -0.11589756653E+02  0.47190793702E+01 -0.20328575238E+01  0.12677723745E+02  0.51100000000E-03 0. -1.
        -11    1    3    3    0    0 -0.18361025658E+02  0.38585107557E+00 -0.10259818454E+02  0.21036635169E+02  0.51100000000E-03 0.  1.
        -12    1    3    3    0    0 -0.12053967907E+02  0.48588641958E+00 -0.29866286683E+01  0.12427959555E+02  0.00000000000E+00 0.  1.
</event>
<event>
 7    1  0.2438448E-008  0.4614232E+02  0.7816164E-02  0.1320468E+00
        -11   -1    0    0    0    0  0.00000000000E+00  0.00000000000E+00  0.45593999997E+02  0.45594000000E+02  0.51100000000E-03 0.  1.
         11   -1    0    0    0    0 -0.00000000000E+00 -0.00000000000E+00 -0.45593999997E+02  0.45594000000E+02  0.51100000000E-03 0. -1.
    9900012    2    1    2    0    0 -0.28211987862E+01 -0.13094045866E+02  0.43008143471E+02  0.46142316472E+02  0.99999882451E+01 0.  0.
         12    1    1    2    0    0  0.28211987862E+01  0.13094045866E+02 -0.43008143471E+02  0.45045683528E+02  0.00000000000E+00 0. -1.
         11    1    3    3    0    0 -0.66001312910E+00 -0.13466824200E+01  0.27751490757E+01  0.31544608929E+01  0.51100000000E-03 0. -1.
        -11    1    3    3    0    0 -0.11281833550E+01 -0.51061327142E+00  0.18118814335E+02  0.18161083579E+02  0.51100000000E-03 0.  1.
         12    1    3    3    0    0 -0.10330023021E+01 -0.11236750174E+02  0.22114180060E+02  0.24826772000E+02  0.00000000000E+00 0. -1.
</event>
<event>
 7    1  0.2438448E-008  0.4614232E+02  0.7816164E-02  0.1320468E+00
        -11   -1    0    0    0    0  0.00000000000E+00  0.00000000000E+00  0.45593999997E+02  0.45594000000E+02  0.51100000000E-03 0.  1.
         11   -1    0    0    0    0 -0.00000000000E+00 -0.00000000000E+00 -0.45593999997E+02  0.45594000000E+02  0.51100000000E-03 0. -1.
    9900012    2    1    2    0    0  0.94363609612E+01  0.43404891154E+02  0.74889266654E+01  0.46142317555E+02  0.99999981222E+01 0.  0.
         12    1    1    2    0    0 -0.94363609612E+01 -0.43404891154E+02 -0.74889266654E+01  0.45045682445E+02  0.00000000000E+00 0. -1.
         11    1    3    3    0    0 -0.18977570557E+00  0.21110889224E+02  0.41662358033E+01  0.21518902846E+02  0.51100000000E-03 0.  1.
        -11    1    3    3    0    0  0.15776385963E+01  0.41657140791E+01  0.15216010287E+01  0.47071634007E+01  0.51100000000E-03 0. -1.
        -12    1    3    3    0    0  0.80484980704E+01  0.18128287851E+02  0.18010898334E+01  0.19916251309E+02  0.00000000000E+00 0.  1.
</event>
<event>
 7    1  0.2438448E-008  0.4614232E+02  0.7816164E-02  0.1320468E+00
        -11   -1    0    0    0    0  0.00000000000E+00  0.00000000000E+00  0.45593999997E+02  0.45594000000E+02  0.51100000000E-03 0. -1.
         11   -1    0    0    0    0 -0.00000000000E+00 -0.00000000000E+00 -0.45593999997E+02  0.45594000000E+02  0.51100000000E-03 0.  1.
    9900012    2    1    2    0    0 -0.21142724931E+02  0.36004829440E+02 -0.16904166353E+02  0.46142318735E+02  0.10000008881E+02 0.  0.
         12    1    1    2    0    0  0.21142724931E+02 -0.36004829440E+02  0.16904166353E+02  0.45045681265E+02  0.00000000000E+00 0. -1.
         11    1    3    3    0    0  0.56707807527E+00  0.13527814601E+01 -0.11349531085E+00  0.14712160510E+01  0.51100000000E-03 0. -1.
        -11    1    3    3    0    0 -0.52574903184E+01  0.11233674136E+02 -0.78864352338E+01  0.14698044088E+02  0.51100000000E-03 0.  1.
         12    1    3    3    0    0 -0.16452312688E+02  0.23418373844E+02 -0.89042358080E+01  0.29973058596E+02  0.00000000000E+00 0. -1.
</event>
<event>
 7    1  0.2438448E-008  0.4614232E+02  0.7816164E-02  0.1320468E+00
        -11   -1    0    0    0    0  0.00000000000E+00  0.00000000000E+00  0.45593999997E+02  0.45594000000E+02  0.51100000000E-03 0.  1.
         11   -1    0    0    0    0 -0.00000000000E+00 -0.00000000000E+00 -0.45593999997E+02  0.45594000000E+02  0.51100000000E-03 0. -1.
    9900012    2    1    2    0    0  0.82052700943E+01  0.44283845344E+02  0.85326632842E+00  0.46142317863E+02  0.10000000925E+02 0.  0.
         12    1    1    2    0    0 -0.82052700943E+01 -0.44283845344E+02 -0.85326632842E+00  0.45045682137E+02  0.00000000000E+00 0. -1.
         11    1    3    3    0    0 -0.17970497234E+00  0.49997283035E+01 -0.27865979770E+01  0.57266661796E+01  0.51100000000E-03 0. -1.
        -11    1    3    3    0    0  0.56546817316E+01  0.31462692338E+02  0.29576711356E+01  0.32103337107E+02  0.51100000000E-03 0.  1.
        -12    1    3    3    0    0  0.27302933350E+01  0.78214247033E+01  0.68219316981E+00  0.83123145757E+01  0.00000000000E+00 0.  1.
</event>
<event>
 7    1  0.2438448E-008  0.4614232E+02  0.7816164E-02  0.1320468E+00
        -11   -1    0    0    0    0  0.00000000000E+00  0.00000000000E+00  0.45593999997E+02  0.45594000000E+02  0.51100000000E-03 0.  1.
         11   -1    0    0    0    0 -0.00000000000E+00 -0.00000000000E+00 -0.45593999997E+02  0.45594000000E+02  0.51100000000E-03 0. -1.
    9900012    2    1    2    0    0  0.62097520565E+01 -0.35344814138E+02  0.27226762762E+02  0.46142317438E+02  0.99999970511E+01 0.  0.
         12    1    1    2    0    0 -0.62097520565E+01  0.35344814138E+02 -0.27226762762E+02  0.45045682562E+02  0.00000000000E+00 0. -1.
         11    1    3    3    0    0  0.18921888045E+01 -0.11181636201E+02  0.91092482604E+01  0.14546056880E+02  0.51100000000E-03 0. -1.
        -11    1    3    3    0    0  0.87602922555E-01 -0.19402038724E+02  0.14884215836E+02  0.24453765808E+02  0.51100000000E-03 0.  1.
         12    1    3    3    0    0  0.42299603294E+01 -0.47611392127E+01  0.32332986651E+01  0.71424947497E+01  0.00000000000E+00 0. -1.
</event>
<event>
 7    1  0.2438448E-008  0.4614232E+02  0.7816164E-02  0.1320468E+00
        -11   -1    0    0    0    0  0.00000000000E+00  0.00000000000E+00  0.45593999997E+02  0.45594000000E+02  0.51100000000E-03 0. -1.
         11   -1    0    0    0    0 -0.00000000000E+00 -0.00000000000E+00 -0.45593999997E+02  0.45594000000E+02  0.51100000000E-03 0.  1.
    9900012    2    1    2    0    0  0.27024592394E+02 -0.35986058532E+02  0.19463995265E+01  0.46142317922E+02  0.10000001465E+02 0.  0.
         12    1    1    2    0    0 -0.27024592394E+02  0.35986058532E+02 -0.19463995265E+01  0.45045682078E+02  0.00000000000E+00 0. -1.
         11    1    3    3    0    0  0.43577602608E+01 -0.55688207069E+01 -0.23647228484E+01  0.74561218449E+01  0.51100000000E-03 0. -1.
        -11    1    3    3    0    0  0.15266401547E+01 -0.49199959095E+01  0.18504134296E+01  0.54736660506E+01  0.51100000000E-03 0.  1.
        -12    1    3    3    0    0  0.21140191979E+02 -0.25497241916E+02  0.24607089453E+01  0.33212530026E+02  0.00000000000E+00 0.  1.
</event>
<event>
 7    1  0.2438448E-008  0.4614232E+02  0.7816164E-02  0.1320468E+00
        -11   -1    0    0    0    0  0.00000000000E+00  0.00000000000E+00  0.45593999997E+02  0.45594000000E+02  0.51100000000E-03 0.  1.
         11   -1    0    0    0    0 -0.00000000000E+00 -0.00000000000E+00 -0.45593999997E+02  0.45594000000E+02  0.51100000000E-03 0. -1.
    9900012    2    1    2    0    0  0.41144037424E+02  0.18295794432E+02 -0.12432246578E+01  0.46142317443E+02  0.99999971001E+01 0.  0.
         12    1    1    2    0    0 -0.41144037424E+02 -0.18295794432E+02  0.12432246578E+01  0.45045682557E+02  0.00000000000E+00 0. -1.
         11    1    3    3    0    0  0.45255620387E+01  0.51952686731E+00  0.25710968721E+01  0.52307895503E+01  0.51100000000E-03 0.  1.
        -11    1    3    3    0    0  0.26925076399E+02  0.13797834261E+02 -0.29360040486E+01  0.30396711819E+02  0.51100000000E-03 0. -1.
         12    1    3    3    0    0  0.96933989865E+01  0.39784333037E+01 -0.87831748130E+00  0.10514816074E+02  0.00000000000E+00 0. -1.
</event>
<event>
 7    1  0.2438448E-008  0.4614232E+02  0.7816164E-02  0.1320468E+00
        -11   -1    0    0    0    0  0.00000000000E+00  0.00000000000E+00  0.45593999997E+02  0.45594000000E+02  0.51100000000E-03 0. -1.
         11   -1    0    0    0    0 -0.00000000000E+00 -0.00000000000E+00 -0.45593999997E+02  0.45594000000E+02  0.51100000000E-03 0.  1.
    9900012    2    1    2    0    0 -0.15760541521E+01  0.29891470538E+02 -0.33661989160E+02  0.46142317945E+02  0.10000001674E+02 0.  0.
         12    1    1    2    0    0  0.15760541521E+01 -0.29891470538E+02  0.33661989160E+02  0.45045682055E+02  0.00000000000E+00 0. -1.
         11    1    3    3    0    0  0.62164643457E+00  0.55330701920E+01 -0.20326549863E+01  0.59273093890E+01  0.51100000000E-03 0. -1.
        -11    1    3    3    0    0 -0.60875343616E+00  0.69219351382E+01 -0.12359168793E+02  0.14178604315E+02  0.51100000000E-03 0.  1.
        -12    1    3    3    0    0 -0.15889471505E+01  0.17436465207E+02 -0.19270165381E+02  0.26036404241E+02  0.00000000000E+00 0.  1.
</event>
<event>
 7    1  0.2438448E-008  0.4614232E+02  0.7816164E-02  0.1320468E+00
        -11   -1    0    0    0    0  0.00000000000E+00  0.00000000000E+00  0.45593999997E+02  0.45594000000E+02  0.51100000000E-03 0.  1.
         11   -1    0    0    0    0 -0.00000000000E+00 -0.00000000000E+00 -0.45593999997E+02  0.45594000000E+02  0.51100000000E-03 0. -1.
    9900012    2    1    2    0    0 -0.31862031571E+02 -0.11614102453E+02  0.29648559886E+02  0.46142317245E+02  0.99999952919E+01 0.  0.
         12    1    1    2    0    0  0.31862031571E+02  0.11614102453E+02 -0.29648559886E+02  0.45045682755E+02  0.00000000000E+00 0. -1.
         11    1    3    3    0    0 -0.68604168581E+01 -0.10339113720E+01  0.17475285975E+01  0.71545893419E+01  0.51100000000E-03 0. -1.
        -11    1    3    3    0    0 -0.90919088478E+01 -0.27565423543E+01  0.99595229879E+01  0.13764208319E+02  0.51100000000E-03 0.  1.
         12    1    3    3    0    0 -0.15909705865E+02 -0.78236487268E+01  0.17941508300E+02  0.25223519584E+02  0.00000000000E+00 0. -1.
</event>
<event>
 7    1  0.2438448E-008  0.4614232E+02  0.7816164E-02  0.1320468E+00
        -11   -1    0    0    0    0  0.00000000000E+00  0.00000000000E+00  0.45593999997E+02  0.45594000000E+02  0.51100000000E-03 0. -1.
         11   -1    0    0    0    0 -0.00000000000E+00 -0.00000000000E+00 -0.45593999997E+02  0.45594000000E+02  0.51100000000E-03 0.  1.
    9900012    2    1    2    0    0  0.58493068088E+00 -0.41982120764E+02 -0.16317850877E+02  0.46142324680E+02  0.10000063095E+02 0.  0.
         12    1    1    2    0    0 -0.58493068088E+00  0.41982120764E+02  0.16317850877E+02  0.45045675320E+02  0.00000000000E+00 0. -1.
         11    1    3    3    0    0  0.31449901273E+01 -0.23812058692E+02 -0.10180374594E+02  0.26087259902E+02  0.51100000000E-03 0. -1.
        -11    1    3    3    0    0 -0.19698832704E+01 -0.17070743996E+01 -0.59050451185E+00  0.26726838467E+01  0.51100000000E-03 0.  1.
        -12    1    3    3    0    0 -0.59017617608E+00 -0.16462987672E+02 -0.55469717709E+01  0.17382380931E+02  0.00000000000E+00 0.  1.
</event>
<event>
 7    1  0.2438448E-008  0.4614233E+02  0.7816164E-02  0.1320468E+00
        -11   -1    0    0    0    0  0.00000000000E+00  0.00000000000E+00  0.45593999997E+02  0.45594000000E+02  0.51100000000E-03 0. -1.
         11   -1    0    0    0    0 -0.00000000000E+00 -0.00000000000E+00 -0.45593999997E+02  0.45594000000E+02  0.51100000000E-03 0.  1.
    9900012    2    1    2    0    0  0.12894603848E+02 -0.41158347395E+02 -0.12993549950E+02  0.46142326412E+02  0.10000078883E+02 0.  0.
         12    1    1    2    0    0 -0.12894603848E+02  0.41158347395E+02  0.12993549950E+02  0.45045673588E+02  0.00000000000E+00 0. -1.
         11    1    3    3    0    0  0.25937940293E+01 -0.49290464642E+01 -0.98772981365E+00  0.56567549848E+01  0.51100000000E-03 0. -1.
        -11    1    3    3    0    0  0.91952905290E+01 -0.29826879244E+02 -0.13184158635E+02  0.33882416274E+02  0.51100000000E-03 0.  1.
        -12    1    3    3    0    0  0.11055192897E+01 -0.64024216868E+01  0.11783384993E+01  0.66031551530E+01  0.00000000000E+00 0.  1.
</event>
<event>
 7    1  0.2438448E-008  0.4614232E+02  0.7816164E-02  0.1320468E+00
        -11   -1    0    0    0    0  0.00000000000E+00  0.00000000000E+00  0.45593999997E+02  0.45594000000E+02  0.51100000000E-03 0.  1.
         11   -1    0    0    0    0 -0.00000000000E+00 -0.00000000000E+00 -0.45593999997E+02  0.45594000000E+02  0.51100000000E-03 0. -1.
    9900012    2    1    2    0    0  0.17305374390E+02  0.15387165511E+02  0.38637710390E+02  0.46142317527E+02  0.99999978655E+01 0.  0.
         12    1    1    2    0    0 -0.17305374390E+02 -0.15387165511E+02 -0.38637710390E+02  0.45045682473E+02  0.00000000000E+00 0. -1.
         11    1    3    3    0    0  0.55525657904E+00 -0.97006177735E+00  0.39499905115E+01  0.41050889177E+01  0.51100000000E-03 0. -1.
        -11    1    3    3    0    0  0.97722038445E+01  0.97620198006E+01  0.23824296279E+02  0.27538883275E+02  0.51100000000E-03 0.  1.
         12    1    3    3    0    0  0.69779139665E+01  0.65952074876E+01  0.10863423600E+02  0.14498345334E+02  0.00000000000E+00 0. -1.
</event>
<event>
 7    1  0.2438448E-008  0.4614232E+02  0.7816164E-02  0.1320468E+00
        -11   -1    0    0    0    0  0.00000000000E+00  0.00000000000E+00  0.45593999997E+02  0.45594000000E+02  0.51100000000E-03 0.  1.
         11   -1    0    0    0    0 -0.00000000000E+00 -0.00000000000E+00 -0.45593999997E+02  0.45594000000E+02  0.51100000000E-03 0. -1.
    9900012    2    1    2    0    0  0.10622502046E+02 -0.22465074764E+02  0.37571218557E+02  0.46142316548E+02  0.99999889357E+01 0.  0.
         12    1    1    2    0    0 -0.10622502046E+02  0.22465074764E+02 -0.37571218557E+02  0.45045683452E+02  0.00000000000E+00 0. -1.
         11    1    3    3    0    0  0.75943040717E+01 -0.15514415505E+02  0.19503345912E+02  0.26052850992E+02  0.51100000000E-03 0. -1.
        -11    1    3    3    0    0  0.52955589468E+00  0.28433665078E+00  0.17170372233E+00  0.62510735554E+00  0.51100000000E-03 0.  1.
        -12    1    3    3    0    0  0.24986420795E+01 -0.72349959099E+01  0.17896168922E+02  0.19464358200E+02  0.00000000000E+00 0.  1.
</event>
<event>
 7    1  0.2438448E-008  0.4614232E+02  0.7816164E-02  0.1320468E+00
        -11   -1    0    0    0    0  0.00000000000E+00  0.00000000000E+00  0.45593999997E+02  0.45594000000E+02  0.51100000000E-03 0. -1.
         11   -1    0    0    0    0 -0.00000000000E+00 -0.00000000000E+00 -0.45593999997E+02  0.45594000000E+02  0.51100000000E-03 0.  1.
    9900012    2    1    2    0    0 -0.16259971901E+02  0.99594106212E+01 -0.40810990511E+02  0.46142317714E+02  0.99999995695E+01 0.  0.
         12    1    1    2    0    0  0.16259971901E+02 -0.99594106212E+01  0.40810990511E+02  0.45045682286E+02  0.00000000000E+00 0. -1.
         11    1    3    3    0    0 -0.48910170122E+01  0.14332966108E+01 -0.60253595913E+01  0.78918530812E+01  0.51100000000E-03 0. -1.
        -11    1    3    3    0    0  0.46922846432E+00  0.26389154123E+01 -0.62731198780E+01  0.68217360818E+01  0.51100000000E-03 0.  1.
        -12    1    3    3    0    0 -0.11838183353E+02  0.58871985980E+01 -0.28512511041E+02  0.31428728551E+02  0.00000000000E+00 0.  1.
</event>
<event>
 7    1  0.2438448E-008  0.4614232E+02  0.7816164E-02  0.1320468E+00
        -11   -1    0    0    0    0  0.00000000000E+00  0.00000000000E+00  0.45593999997E+02  0.45594000000E+02  0.51100000000E-03 0.  1.
         11   -1    0    0    0    0 -0.00000000000E+00 -0.00000000000E+00 -0.45593999997E+02  0.45594000000E+02  0.51100000000E-03 0. -1.
    9900012    2    1    2    0    0 -0.32704123095E+02 -0.23522330816E+01  0.30887222953E+02  0.46142320855E+02  0.10000028209E+02 0.  0.
         12    1    1    2    0    0  0.32704123095E+02  0.23522330816E+01 -0.30887222953E+02  0.45045679145E+02  0.00000000000E+00 0. -1.
         11    1    3    3    0    0 -0.12585248976E+02 -0.47542512452E+01  0.13868918285E+02  0.19321963962E+02  0.51100000000E-03 0. -1.
        -11    1    3    3    0    0 -0.41463306724E+01 -0.12118478114E+01  0.41866889830E+01  0.60157292214E+01  0.51100000000E-03 0.  1.
        -12    1    3    3    0    0 -0.15972543447E+02  0.36138659750E+01  0.12831615685E+02  0.20804627671E+02  0.00000000000E+00 0.  1.
</event>
<event>
 7    1  0.2438448E-008  0.4614232E+02  0.7816164E-02  0.1320468E+00
        -11   -1    0    0    0    0  0.00000000000E+00  0.00000000000E+00  0.45593999997E+02  0.45594000000E+02  0.51100000000E-03 0. -1.
         11   -1    0    0    0    0 -0.00000000000E+00 -0.00000000000E+00 -0.45593999997E+02  0.45594000000E+02  0.51100000000E-03 0.  1.
    9900012    2    1    2    0    0  0.24416039577E+02  0.12810612550E+02 -0.35621043220E+02  0.46142317603E+02  0.99999985551E+01 0.  0.
         12    1    1    2    0    0 -0.24416039577E+02 -0.12810612550E+02  0.35621043220E+02  0.45045682397E+02  0.00000000000E+00 0. -1.
         11    1    3    3    0    0  0.16213460517E+02  0.52702397251E+01 -0.19740353073E+02  0.26083198968E+02  0.51100000000E-03 0. -1.
        -11    1    3    3    0    0  0.84176084303E+01  0.73232352430E+01 -0.12870136245E+02  0.17033094649E+02  0.51100000000E-03 0.  1.
         12    1    3    3    0    0 -0.21502937032E+00  0.21713758232E+00 -0.30105539030E+01  0.30260239858E+01  0.00000000000E+00 0. -1.
</event>
<event>
 7    1  0.2438448E-008  0.4614232E+02  0.7816164E-02  0.1320468E+00
        -11   -1    0    0    0    0  0.00000000000E+00  0.00000000000E+00  0.45593999997E+02  0.45594000000E+02  0.51100000000E-03 0. -1.
         11   -1    0    0    0    0 -0.00000000000E+00 -0.00000000000E+00 -0.45593999997E+02  0.45594000000E+02  0.51100000000E-03 0.  1.
    9900012    2    1    2    0    0  0.59182949889E+01 -0.23400030486E+02 -0.38033220915E+02  0.46142317238E+02  0.99999952268E+01 0.  0.
         12    1    1    2    0    0 -0.59182949889E+01  0.23400030486E+02  0.38033220915E+02  0.45045682762E+02  0.00000000000E+00 0. -1.
         11    1    3    3    0    0  0.44017281733E+01 -0.41966480375E+01 -0.12791502042E+02  0.14163671502E+02  0.51100000000E-03 0. -1.
        -11    1    3    3    0    0  0.20801078221E+01 -0.51979471618E+01 -0.65893114335E+01  0.86466484072E+01  0.51100000000E-03 0.  1.
         12    1    3    3    0    0 -0.56354100648E+00 -0.14005435287E+02 -0.18652407440E+02  0.23331997329E+02  0.00000000000E+00 0. -1.
</event>
<event>
 7    1  0.2438448E-008  0.4614232E+02  0.7816164E-02  0.1320468E+00
        -11   -1    0    0    0    0  0.00000000000E+00  0.00000000000E+00  0.45593999997E+02  0.45594000000E+02  0.51100000000E-03 0.  1.
         11   -1    0    0    0    0 -0.00000000000E+00 -0.00000000000E+00 -0.45593999997E+02  0.45594000000E+02  0.51100000000E-03 0. -1.
    9900012    2    1    2    0    0 -0.38191304362E+02 -0.23737925565E+02 -0.26549098043E+01  0.46142318907E+02  0.10000010452E+02 0.  0.
         12    1    1    2    0    0  0.38191304362E+02  0.23737925565E+02  0.26549098043E+01  0.45045681093E+02  0.00000000000E+00 0. -1.
         11    1    3    3    0    0 -0.12475802237E+01 -0.16734137723E+01  0.95547556682E+00  0.22955835615E+01  0.51100000000E-03 0. -1.
        -11    1    3    3    0    0 -0.15188389989E+02 -0.86436042300E+01  0.22546877352E+01  0.17620519333E+02  0.51100000000E-03 0.  1.
        -12    1    3    3    0    0 -0.21755334150E+02 -0.13420907563E+02 -0.58650731063E+01  0.26226216012E+02  0.00000000000E+00 0.  1.
</event>
<event>
 7    1  0.2438448E-008  0.4614232E+02  0.7816164E-02  0.1320468E+00
        -11   -1    0    0    0    0  0.00000000000E+00  0.00000000000E+00  0.45593999997E+02  0.45594000000E+02  0.51100000000E-03 0. -1.
         11   -1    0    0    0    0 -0.00000000000E+00 -0.00000000000E+00 -0.45593999997E+02  0.45594000000E+02  0.51100000000E-03 0.  1.
    9900012    2    1    2    0    0 -0.40865563094E+01  0.32873475482E+02 -0.30524550892E+02  0.46142317189E+02  0.99999947849E+01 0.  0.
         12    1    1    2    0    0  0.40865563094E+01 -0.32873475482E+02  0.30524550892E+02  0.45045682811E+02  0.00000000000E+00 0. -1.
         11    1    3    3    0    0 -0.14689454585E+01  0.84753888733E+01 -0.44823581815E+01  0.96995645491E+01  0.51100000000E-03 0. -1.
        -11    1    3    3    0    0  0.49445499467E+00  0.13604470593E+02 -0.10147943727E+02  0.16979601527E+02  0.51100000000E-03 0.  1.
         12    1    3    3    0    0 -0.31120658455E+01  0.10793616016E+02 -0.15894248983E+02  0.19463151113E+02  0.00000000000E+00 0. -1.
</event>
<event>
 7    1  0.2438448E-008  0.4614232E+02  0.7816164E-02  0.1320468E+00
        -11   -1    0    0    0    0  0.00000000000E+00  0.00000000000E+00  0.45593999997E+02  0.45594000000E+02  0.51100000000E-03 0.  1.
         11   -1    0    0    0    0 -0.00000000000E+00 -0.00000000000E+00 -0.45593999997E+02  0.45594000000E+02  0.51100000000E-03 0. -1.
    9900012    2    1    2    0    0 -0.10299323923E+01  0.44404093777E+02 -0.75052760019E+01  0.46142317935E+02  0.10000001583E+02 0.  0.
         12    1    1    2    0    0  0.10299323923E+01 -0.44404093777E+02  0.75052760019E+01  0.45045682065E+02  0.00000000000E+00 0. -1.
         11    1    3    3    0    0  0.14328927265E+01  0.25127002781E+02 -0.20991486255E+01  0.25255214818E+02  0.51100000000E-03 0.  1.
        -11    1    3    3    0    0  0.47438065017E+00  0.60365156824E+00  0.68296507138E+00  0.10275571843E+01  0.51100000000E-03 0. -1.
        -12    1    3    3    0    0 -0.29372057690E+01  0.18673439428E+02 -0.60890924478E+01  0.19859545932E+02  0.00000000000E+00 0.  1.
</event>
<event>
 7    1  0.2438448E-008  0.4614232E+02  0.7816164E-02  0.1320468E+00
        -11   -1    0    0    0    0  0.00000000000E+00  0.00000000000E+00  0.45593999997E+02  0.45594000000E+02  0.51100000000E-03 0.  1.
         11   -1    0    0    0    0 -0.00000000000E+00 -0.00000000000E+00 -0.45593999997E+02  0.45594000000E+02  0.51100000000E-03 0. -1.
    9900012    2    1    2    0    0 -0.14938709175E+01 -0.52544857059E+01  0.44713220645E+02  0.46142319066E+02  0.10000011901E+02 0.  0.
         12    1    1    2    0    0  0.14938709175E+01  0.52544857059E+01 -0.44713220645E+02  0.45045680934E+02  0.00000000000E+00 0. -1.
         11    1    3    3    0    0  0.27348760736E+01 -0.17792333821E+01  0.69147963752E+01  0.76458895975E+01  0.51100000000E-03 0. -1.
        -11    1    3    3    0    0 -0.15060463772E+01 -0.37496219524E+01  0.29058949730E+02  0.29338548024E+02  0.51100000000E-03 0.  1.
        -12    1    3    3    0    0 -0.27227006140E+01  0.27436962856E+00  0.87394745398E+01  0.91578814449E+01  0.00000000000E+00 0.  1.
</event>
<event>
 7    1  0.2438448E-008  0.4614232E+02  0.7816164E-02  0.1320468E+00
        -11   -1    0    0    0    0  0.00000000000E+00  0.00000000000E+00  0.45593999997E+02  0.45594000000E+02  0.51100000000E-03 0.  1.
         11   -1    0    0    0    0 -0.00000000000E+00 -0.00000000000E+00 -0.45593999997E+02  0.45594000000E+02  0.51100000000E-03 0. -1.
    9900012    2    1    2    0    0  0.95350020094E+01 -0.31254199845E+02  0.31006003137E+02  0.46142317612E+02  0.99999986386E+01 0.  0.
         12    1    1    2    0    0 -0.95350020094E+01  0.31254199845E+02 -0.31006003137E+02  0.45045682388E+02  0.00000000000E+00 0. -1.
         11    1    3    3    0    0  0.17242257134E+01 -0.98550024200E+01  0.54789311391E+01  0.11406696003E+02  0.51100000000E-03 0. -1.
        -11    1    3    3    0    0  0.46759702764E+01 -0.16247243628E+02  0.14991373236E+02  0.22595992903E+02  0.51100000000E-03 0.  1.
         12    1    3    3    0    0  0.31348060195E+01 -0.51519537974E+01  0.10535698762E+02  0.12139628706E+02  0.00000000000E+00 0. -1.
</event>
<event>
 7    1  0.2620127E-008  0.4614232E+02  0.7816164E-02  0.1320468E+00
        -11   -1    0    0    0    0  0.00000000000E+00  0.00000000000E+00  0.45593999997E+02  0.45594000000E+02  0.51100000000E-03 0.  1.
         11   -1    0    0    0    0 -0.00000000000E+00 -0.00000000000E+00 -0.45593999997E+02  0.45594000000E+02  0.51100000000E-03 0. -1.
    9900012    2    1    2    0    0  0.30157866854E+02  0.32873745473E+02  0.62396635570E+01  0.46142317899E+02  0.10000001260E+02 0.  0.
         12    1    1    2    0    0 -0.30157866854E+02 -0.32873745473E+02 -0.62396635570E+01  0.45045682101E+02  0.00000000000E+00 0. -1.
         11    1    3    3    0    0  0.14330414501E+02  0.14775281060E+02  0.20858450068E+01  0.20688655342E+02  0.51100000000E-03 0. -1.
        -11    1    3    3    0    0  0.16385583326E+02  0.18213395879E+02  0.38259493183E+01  0.24796229932E+02  0.51100000000E-03 0.  1.
         12    1    3    3    0    0 -0.55813097253E+00 -0.11493146694E+00  0.32786923189E+00  0.65743262606E+00  0.00000000000E+00 0. -1.
</event>
<event>
 7    1  0.2438448E-008  0.4614232E+02  0.7816164E-02  0.1320468E+00
        -11   -1    0    0    0    0  0.00000000000E+00  0.00000000000E+00  0.45593999997E+02  0.45594000000E+02  0.51100000000E-03 0. -1.
         11   -1    0    0    0    0 -0.00000000000E+00 -0.00000000000E+00 -0.45593999997E+02  0.45594000000E+02  0.51100000000E-03 0.  1.
    9900012    2    1    2    0    0 -0.34587172203E+02  0.27515425583E+02  0.87030105120E+01  0.46142317432E+02  0.99999969998E+01 0.  0.
         12    1    1    2    0    0  0.34587172203E+02 -0.27515425583E+02 -0.87030105120E+01  0.45045682568E+02  0.00000000000E+00 0. -1.
         11    1    3    3    0    0 -0.47765144667E+01  0.71424796067E+00  0.28972955905E+01  0.56320123046E+01  0.51100000000E-03 0. -1.
        -11    1    3    3    0    0 -0.21970450376E+02  0.19933249030E+02  0.40507445818E+01  0.29940668639E+02  0.51100000000E-03 0.  1.
         12    1    3    3    0    0 -0.78402073608E+01  0.68679285924E+01  0.17549703397E+01  0.10569636489E+02  0.00000000000E+00 0. -1.
</event>
<event>
 7    1  0.2438448E-008  0.4614232E+02  0.7816164E-02  0.1320468E+00
        -11   -1    0    0    0    0  0.00000000000E+00  0.00000000000E+00  0.45593999997E+02  0.45594000000E+02  0.51100000000E-03 0. -1.
         11   -1    0    0    0    0 -0.00000000000E+00 -0.00000000000E+00 -0.45593999997E+02  0.45594000000E+02  0.51100000000E-03 0.  1.
    9900012    2    1    2    0    0 -0.38200205700E+02  0.17707812795E+02  0.16009090810E+02  0.46142319430E+02  0.10000015215E+02 0.  0.
         12    1    1    2    0    0  0.38200205700E+02 -0.17707812795E+02 -0.16009090810E+02  0.45045680570E+02  0.00000000000E+00 0. -1.
         11    1    3    3    0    0 -0.18939612376E+02  0.59834863023E+01  0.65160116297E+01  0.20903813841E+02  0.51100000000E-03 0. -1.
        -11    1    3    3    0    0 -0.90366311671E+01  0.73149453516E+01  0.77402001006E+01  0.13967097988E+02  0.51100000000E-03 0.  1.
        -12    1    3    3    0    0 -0.10223962157E+02  0.44093811407E+01  0.17528790793E+01  0.11271407601E+02  0.00000000000E+00 0.  1.
</event>
<event>
 7    1  0.2438448E-008  0.4614232E+02  0.7816164E-02  0.1320468E+00
        -11   -1    0    0    0    0  0.00000000000E+00  0.00000000000E+00  0.45593999997E+02  0.45594000000E+02  0.51100000000E-03 0. -1.
         11   -1    0    0    0    0 -0.00000000000E+00 -0.00000000000E+00 -0.45593999997E+02  0.45594000000E+02  0.51100000000E-03 0.  1.
    9900012    2    1    2    0    0 -0.19936195642E+02 -0.36004418219E+02 -0.18312384112E+02  0.46142318300E+02  0.10000004914E+02 0.  0.
         12    1    1    2    0    0  0.19936195642E+02  0.36004418219E+02  0.18312384112E+02  0.45045681700E+02  0.00000000000E+00 0. -1.
         11    1    3    3    0    0 -0.31885443079E+00 -0.36234240374E+01  0.61862717956E+00  0.36896571320E+01  0.51100000000E-03 0. -1.
        -11    1    3    3    0    0 -0.14837521897E+02 -0.25040013262E+02 -0.13022630764E+02  0.31886411408E+02  0.51100000000E-03 0.  1.
        -12    1    3    3    0    0 -0.47798193142E+01 -0.73409809195E+01 -0.59083805270E+01  0.10566249760E+02  0.00000000000E+00 0.  1.
</event>
<event>
 7    1  0.2438448E-008  0.4614232E+02  0.7816164E-02  0.1320468E+00
        -11   -1    0    0    0    0  0.00000000000E+00  0.00000000000E+00  0.45593999997E+02  0.45594000000E+02  0.51100000000E-03 0.  1.
         11   -1    0    0    0    0 -0.00000000000E+00 -0.00000000000E+00 -0.45593999997E+02  0.45594000000E+02  0.51100000000E-03 0. -1.
    9900012    2    1    2    0    0 -0.21885802325E+02 -0.18074756678E+02  0.34977541373E+02  0.46142316823E+02  0.99999914496E+01 0.  0.
         12    1    1    2    0    0  0.21885802325E+02  0.18074756678E+02 -0.34977541373E+02  0.45045683177E+02  0.00000000000E+00 0. -1.
         11    1    3    3    0    0 -0.16251752599E+02 -0.12064524165E+02  0.21795279167E+02  0.29744014526E+02  0.51100000000E-03 0. -1.
        -11    1    3    3    0    0 -0.29499052101E+01 -0.55549978037E+01  0.59000868320E+01  0.86238602861E+01  0.51100000000E-03 0.  1.
        -12    1    3    3    0    0 -0.26841445158E+01 -0.45523470902E+00  0.72821753735E+01  0.77744420116E+01  0.00000000000E+00 0.  1.
</event>
<event>
 7    1  0.2438448E-008  0.4614232E+02  0.7816164E-02  0.1320468E+00
        -11   -1    0    0    0    0  0.00000000000E+00  0.00000000000E+00  0.45593999997E+02  0.45594000000E+02  0.51100000000E-03 0.  1.
         11   -1    0    0    0    0 -0.00000000000E+00 -0.00000000000E+00 -0.45593999997E+02  0.45594000000E+02  0.51100000000E-03 0. -1.
    9900012    2    1    2    0    0  0.96922910095E+01 -0.35183261580E+01  0.43849680906E+02  0.46142316083E+02  0.99999847011E+01 0.  0.
         12    1    1    2    0    0 -0.96922910095E+01  0.35183261580E+01 -0.43849680906E+02  0.45045683917E+02  0.00000000000E+00 0. -1.
         11    1    3    3    0    0  0.19507690155E+01 -0.69531531040E+00  0.28705784748E+01  0.35396587652E+01  0.51100000000E-03 0. -1.
        -11    1    3    3    0    0  0.11364384105E+01 -0.45058892400E+01  0.13010891055E+02  0.13815853807E+02  0.51100000000E-03 0.  1.
        -12    1    3    3    0    0  0.66050835835E+01  0.16828783924E+01  0.27968211376E+02  0.28786803511E+02  0.00000000000E+00 0.  1.
</event>
<event>
 7    1  0.2438448E-008  0.4614232E+02  0.7816164E-02  0.1320468E+00
        -11   -1    0    0    0    0  0.00000000000E+00  0.00000000000E+00  0.45593999997E+02  0.45594000000E+02  0.51100000000E-03 0. -1.
         11   -1    0    0    0    0 -0.00000000000E+00 -0.00000000000E+00 -0.45593999997E+02  0.45594000000E+02  0.51100000000E-03 0.  1.
    9900012    2    1    2    0    0 -0.56276111446E+01  0.26967536969E+02 -0.35639799569E+02  0.46142319068E+02  0.10000011915E+02 0.  0.
         12    1    1    2    0    0  0.56276111446E+01 -0.26967536969E+02  0.35639799569E+02  0.45045680932E+02  0.00000000000E+00 0. -1.
         11    1    3    3    0    0 -0.90969163735E+00  0.19744307902E+01 -0.21616740014E+01  0.30657381770E+01  0.51100000000E-03 0. -1.
        -11    1    3    3    0    0 -0.65327311238E+01  0.23274347906E+02 -0.27603446591E+02  0.36692262268E+02  0.51100000000E-03 0.  1.
         12    1    3    3    0    0  0.18148116165E+01  0.17187582727E+01 -0.58746789758E+01  0.63843186224E+01  0.00000000000E+00 0. -1.
</event>
<event>
 7    1  0.2438448E-008  0.4614232E+02  0.7816164E-02  0.1320468E+00
        -11   -1    0    0    0    0  0.00000000000E+00  0.00000000000E+00  0.45593999997E+02  0.45594000000E+02  0.51100000000E-03 0. -1.
         11   -1    0    0    0    0 -0.00000000000E+00 -0.00000000000E+00 -0.45593999997E+02  0.45594000000E+02  0.51100000000E-03 0.  1.
    9900012    2    1    2    0    0 -0.69117334596E+01  0.44178076233E+02  0.54441397812E+01  0.46142321661E+02  0.10000035565E+02 0.  0.
         12    1    1    2    0    0  0.69117334596E+01 -0.44178076233E+02 -0.54441397812E+01  0.45045678339E+02  0.00000000000E+00 0. -1.
         11    1    3    3    0    0  0.10192703270E+01  0.15714853531E+02 -0.27034409999E+00  0.15750194274E+02  0.51100000000E-03 0. -1.
        -11    1    3    3    0    0 -0.14207363165E+01  0.44534773216E+01 -0.63587026139E+00  0.47176565353E+01  0.51100000000E-03 0.  1.
        -12    1    3    3    0    0 -0.65102674701E+01  0.24009745381E+02  0.63503541426E+01  0.25674470852E+02  0.00000000000E+00 0.  1.
</event>
<event>
 7    1  0.2438448E-008  0.4614232E+02  0.7816164E-02  0.1320468E+00
        -11   -1    0    0    0    0  0.00000000000E+00  0.00000000000E+00  0.45593999997E+02  0.45594000000E+02  0.51100000000E-03 0.  1.
         11   -1    0    0    0    0 -0.00000000000E+00 -0.00000000000E+00 -0.45593999997E+02  0.45594000000E+02  0.51100000000E-03 0. -1.
    9900012    2    1    2    0    0 -0.75687333311E+01  0.15421558316E+02  0.41641365199E+02  0.46142317846E+02  0.10000000773E+02 0.  0.
         12    1    1    2    0    0  0.75687333311E+01 -0.15421558316E+02 -0.41641365199E+02  0.45045682154E+02  0.00000000000E+00 0. -1.
         11    1    3    3    0    0  0.14871423338E+01  0.20427592040E+01  0.62770255092E+01  0.67664988724E+01  0.51100000000E-03 0. -1.
        -11    1    3    3    0    0 -0.69828284652E+01  0.54560552893E+01  0.14934714356E+02  0.17365889722E+02  0.51100000000E-03 0.  1.
         12    1    3    3    0    0 -0.20730471996E+01  0.79227438223E+01  0.20429625334E+02  0.22009929251E+02  0.00000000000E+00 0. -1.
</event>
<event>
 7    1  0.2438448E-008  0.4614232E+02  0.7816164E-02  0.1320468E+00
        -11   -1    0    0    0    0  0.00000000000E+00  0.00000000000E+00  0.45593999997E+02  0.45594000000E+02  0.51100000000E-03 0. -1.
         11   -1    0    0    0    0 -0.00000000000E+00 -0.00000000000E+00 -0.45593999997E+02  0.45594000000E+02  0.51100000000E-03 0.  1.
    9900012    2    1    2    0    0  0.35603730257E+02 -0.18432181895E+02 -0.20536369627E+02  0.46142318575E+02  0.10000007419E+02 0.  0.
         12    1    1    2    0    0 -0.35603730257E+02  0.18432181895E+02  0.20536369627E+02  0.45045681425E+02  0.00000000000E+00 0. -1.
         11    1    3    3    0    0  0.53626441519E+01 -0.60523964895E+01 -0.18335680652E+01  0.82916480676E+01  0.51100000000E-03 0. -1.
        -11    1    3    3    0    0  0.11058318711E+02 -0.63878863327E+01 -0.81767731196E+01  0.15164139389E+02  0.51100000000E-03 0.  1.
         12    1    3    3    0    0  0.19182767394E+02 -0.59918990733E+01 -0.10526028442E+02  0.22686531118E+02  0.00000000000E+00 0. -1.
</event>
<event>
 7    1  0.2438448E-008  0.4614232E+02  0.7816164E-02  0.1320468E+00
        -11   -1    0    0    0    0  0.00000000000E+00  0.00000000000E+00  0.45593999997E+02  0.45594000000E+02  0.51100000000E-03 0.  1.
         11   -1    0    0    0    0 -0.00000000000E+00 -0.00000000000E+00 -0.45593999997E+02  0.45594000000E+02  0.51100000000E-03 0. -1.
    9900012    2    1    2    0    0 -0.26643724602E+01  0.38961699441E+02  0.22449957471E+02  0.46142317694E+02  0.99999993911E+01 0.  0.
         12    1    1    2    0    0  0.26643724602E+01 -0.38961699441E+02 -0.22449957471E+02  0.45045682306E+02  0.00000000000E+00 0. -1.
         11    1    3    3    0    0  0.93168532764E-02  0.18955808456E+02  0.12014408555E+02  0.22442566124E+02  0.51100000000E-03 0. -1.
        -11    1    3    3    0    0  0.68576147824E+00  0.13431999678E+02  0.89888795563E+01  0.16176799439E+02  0.51100000000E-03 0.  1.
         12    1    3    3    0    0 -0.33594507917E+01  0.65738913071E+01  0.14466693595E+01  0.75229521316E+01  0.00000000000E+00 0. -1.
</event>
<event>
 7    1  0.2438448E-008  0.4614232E+02  0.7816164E-02  0.1320468E+00
        -11   -1    0    0    0    0  0.00000000000E+00  0.00000000000E+00  0.45593999997E+02  0.45594000000E+02  0.51100000000E-03 0.  1.
         11   -1    0    0    0    0 -0.00000000000E+00 -0.00000000000E+00 -0.45593999997E+02  0.45594000000E+02  0.51100000000E-03 0. -1.
    9900012    2    1    2    0    0 -0.10120656784E+02 -0.29587503510E+02  0.32423222366E+02  0.46142318672E+02  0.10000008305E+02 0.  0.
         12    1    1    2    0    0  0.10120656784E+02  0.29587503510E+02 -0.32423222366E+02  0.45045681328E+02  0.00000000000E+00 0. -1.
         11    1    3    3    0    0 -0.24184139739E+01 -0.12890172016E+01  0.14315775396E+01  0.30918774245E+01  0.51100000000E-03 0. -1.
        -11    1    3    3    0    0 -0.16661048990E+01 -0.96958948673E+01  0.68835678489E+01  0.12007072474E+02  0.51100000000E-03 0.  1.
        -12    1    3    3    0    0 -0.60361379108E+01 -0.18602591441E+02  0.24108076978E+02  0.31043368773E+02  0.00000000000E+00 0.  1.
</event>
<event>
 7    1  0.2671595E-008  0.4614232E+02  0.7816164E-02  0.1320468E+00
        -11   -1    0    0    0    0  0.00000000000E+00  0.00000000000E+00  0.45593999997E+02  0.45594000000E+02  0.51100000000E-03 0. -1.
         11   -1    0    0    0    0 -0.00000000000E+00 -0.00000000000E+00 -0.45593999997E+02  0.45594000000E+02  0.51100000000E-03 0.  1.
    9900012    2    1    2    0    0 -0.35055816356E+02  0.28013708676E+02  0.39287239025E+01  0.46142323119E+02  0.10000048859E+02 0.  0.
         12    1    1    2    0    0  0.35055816356E+02 -0.28013708676E+02 -0.39287239025E+01  0.45045676881E+02  0.00000000000E+00 0. -1.
         11    1    3    3    0    0 -0.42073161454E+01  0.38697522778E+01  0.12750368569E+01  0.58568089508E+01  0.51100000000E-03 0. -1.
        -11    1    3    3    0    0 -0.22707766712E+02  0.19328923805E+02  0.56771548163E+01  0.30355889899E+02  0.51100000000E-03 0.  1.
         12    1    3    3    0    0 -0.81407334985E+01  0.48150325938E+01 -0.30234677708E+01  0.99296242695E+01  0.00000000000E+00 0. -1.
</event>
<event>
 7    1  0.2438448E-008  0.4614232E+02  0.7816164E-02  0.1320468E+00
        -11   -1    0    0    0    0  0.00000000000E+00  0.00000000000E+00  0.45593999997E+02  0.45594000000E+02  0.51100000000E-03 0.  1.
         11   -1    0    0    0    0 -0.00000000000E+00 -0.00000000000E+00 -0.45593999997E+02  0.45594000000E+02  0.51100000000E-03 0. -1.
    9900012    2    1    2    0    0 -0.19887077891E+02  0.32782890198E+02  0.23641054348E+02  0.46142320879E+02  0.10000028435E+02 0.  0.
         12    1    1    2    0    0  0.19887077891E+02 -0.32782890198E+02 -0.23641054348E+02  0.45045679121E+02  0.00000000000E+00 0. -1.
         11    1    3    3    0    0 -0.30441237623E+01  0.41154532890E+01  0.14415821838E+01  0.53180639999E+01  0.51100000000E-03 0. -1.
        -11    1    3    3    0    0 -0.15717986349E+02  0.21754616942E+02  0.14854524512E+02  0.30675321545E+02  0.51100000000E-03 0.  1.
         12    1    3    3    0    0 -0.11249677790E+01  0.69128199668E+01  0.73449476530E+01  0.10148935335E+02  0.00000000000E+00 0. -1.
</event>
<event>
 7    1  0.2438448E-008  0.4614232E+02  0.7816164E-02  0.1320468E+00
        -11   -1    0    0    0    0  0.00000000000E+00  0.00000000000E+00  0.45593999997E+02  0.45594000000E+02  0.51100000000E-03 0.  1.
         11   -1    0    0    0    0 -0.00000000000E+00 -0.00000000000E+00 -0.45593999997E+02  0.45594000000E+02  0.51100000000E-03 0. -1.
    9900012    2    1    2    0    0  0.96559639701E+01  0.42344068953E+02  0.11952223525E+02  0.46142318044E+02  0.10000002580E+02 0.  0.
         12    1    1    2    0    0 -0.96559639701E+01 -0.42344068953E+02 -0.11952223525E+02  0.45045681956E+02  0.00000000000E+00 0. -1.
         11    1    3    3    0    0 -0.48255241573E+00  0.12136212592E+01 -0.14984679323E+00  0.13146055367E+01  0.51100000000E-03 0. -1.
        -11    1    3    3    0    0  0.35306901505E+01  0.54809231078E+01 -0.25044460991E+00  0.65244933762E+01  0.51100000000E-03 0.  1.
        -12    1    3    3    0    0  0.66078262353E+01  0.35649524586E+02  0.12352514928E+02  0.38303219131E+02  0.00000000000E+00 0.  1.
</event>
<event>
 7    1  0.2438448E-008  0.4614232E+02  0.7816164E-02  0.1320468E+00
        -11   -1    0    0    0    0  0.00000000000E+00  0.00000000000E+00  0.45593999997E+02  0.45594000000E+02  0.51100000000E-03 0. -1.
         11   -1    0    0    0    0 -0.00000000000E+00 -0.00000000000E+00 -0.45593999997E+02  0.45594000000E+02  0.51100000000E-03 0.  1.
    9900012    2    1    2    0    0 -0.13294458161E+01  0.18285546931E+02 -0.41145896202E+02  0.46142318442E+02  0.10000006208E+02 0.  0.
         12    1    1    2    0    0  0.13294458161E+01 -0.18285546931E+02  0.41145896202E+02  0.45045681558E+02  0.00000000000E+00 0. -1.
         11    1    3    3    0    0 -0.23060126175E+01  0.11652945417E+02 -0.15158095474E+02  0.19258159044E+02  0.51100000000E-03 0. -1.
        -11    1    3    3    0    0  0.13092807707E+01  0.46141074567E+01 -0.19516037559E+02  0.20096764068E+02  0.51100000000E-03 0.  1.
         12    1    3    3    0    0 -0.33271396931E+00  0.20184940569E+01 -0.64717631695E+01  0.67873953300E+01  0.00000000000E+00 0. -1.
</event>
<event>
 7    1  0.2438448E-008  0.4614232E+02  0.7816164E-02  0.1320468E+00
        -11   -1    0    0    0    0  0.00000000000E+00  0.00000000000E+00  0.45593999997E+02  0.45594000000E+02  0.51100000000E-03 0.  1.
         11   -1    0    0    0    0 -0.00000000000E+00 -0.00000000000E+00 -0.45593999997E+02  0.45594000000E+02  0.51100000000E-03 0. -1.
    9900012    2    1    2    0    0 -0.15514414853E+01  0.42473552343E+02  0.14923264761E+02  0.46142318182E+02  0.10000003837E+02 0.  0.
         12    1    1    2    0    0  0.15514414853E+01 -0.42473552343E+02 -0.14923264761E+02  0.45045681818E+02  0.00000000000E+00 0. -1.
         11    1    3    3    0    0 -0.15236423207E+01  0.66022446739E+01  0.10791604974E+00  0.67766338834E+01  0.51100000000E-03 0. -1.
        -11    1    3    3    0    0  0.25656012993E+01  0.24568300595E+02  0.82709924193E+01  0.26049818042E+02  0.51100000000E-03 0.  1.
         12    1    3    3    0    0 -0.25934004639E+01  0.11303007074E+02  0.65443562919E+01  0.13315866257E+02  0.00000000000E+00 0. -1.
</event>
<event>
 7    1  0.2438448E-008  0.4614232E+02  0.7816164E-02  0.1320468E+00
        -11   -1    0    0    0    0  0.00000000000E+00  0.00000000000E+00  0.45593999997E+02  0.45594000000E+02  0.51100000000E-03 0.  1.
         11   -1    0    0    0    0 -0.00000000000E+00 -0.00000000000E+00 -0.45593999997E+02  0.45594000000E+02  0.51100000000E-03 0. -1.
    9900012    2    1    2    0    0  0.63389999314E+01  0.30669836858E+02  0.32377333304E+02  0.46142317356E+02  0.99999963041E+01 0.  0.
         12    1    1    2    0    0 -0.63389999314E+01 -0.30669836858E+02 -0.32377333304E+02  0.45045682644E+02  0.00000000000E+00 0. -1.
         11    1    3    3    0    0  0.23346638643E+01  0.63845655821E+01  0.72700405336E+01  0.99532317693E+01  0.51100000000E-03 0. -1.
        -11    1    3    3    0    0  0.33660186436E+01  0.14744014754E+02  0.94206555167E+01  0.17817542008E+02  0.51100000000E-03 0.  1.
         12    1    3    3    0    0  0.63831742359E+00  0.95412565221E+01  0.15686637254E+02  0.18371543579E+02  0.00000000000E+00 0. -1.
</event>
<event>
 7    1  0.2438448E-008  0.4614232E+02  0.7816164E-02  0.1320468E+00
        -11   -1    0    0    0    0  0.00000000000E+00  0.00000000000E+00  0.45593999997E+02  0.45594000000E+02  0.51100000000E-03 0.  1.
         11   -1    0    0    0    0 -0.00000000000E+00 -0.00000000000E+00 -0.45593999997E+02  0.45594000000E+02  0.51100000000E-03 0. -1.
    9900012    2    1    2    0    0  0.23394816924E+02 -0.15427450290E+02  0.35267404332E+02  0.46142317747E+02  0.99999998718E+01 0.  0.
         12    1    1    2    0    0 -0.23394816924E+02  0.15427450290E+02 -0.35267404332E+02  0.45045682253E+02  0.00000000000E+00 0. -1.
         11    1    3    3    0    0  0.15735511671E+02 -0.11011711918E+02  0.27260579938E+02  0.33346714167E+02  0.51100000000E-03 0.  1.
        -11    1    3    3    0    0  0.34422543885E+01  0.41456465177E+00  0.19640075952E+01  0.39847591170E+01  0.51100000000E-03 0. -1.
        -12    1    3    3    0    0  0.42170508646E+01 -0.48303030237E+01  0.60428167979E+01  0.88108444628E+01  0.00000000000E+00 0.  1.
</event>
<event>
 7    1  0.2438448E-008  0.4614232E+02  0.7816164E-02  0.1320468E+00
        -11   -1    0    0    0    0  0.00000000000E+00  0.00000000000E+00  0.45593999997E+02  0.45594000000E+02  0.51100000000E-03 0. -1.
         11   -1    0    0    0    0 -0.00000000000E+00 -0.00000000000E+00 -0.45593999997E+02  0.45594000000E+02  0.51100000000E-03 0.  1.
    9900012    2    1    2    0    0  0.14893123047E+02 -0.33725960401E+02 -0.25881807764E+02  0.46142317718E+02  0.99999996110E+01 0.  0.
         12    1    1    2    0    0 -0.14893123047E+02  0.33725960401E+02  0.25881807764E+02  0.45045682282E+02  0.00000000000E+00 0. -1.
         11    1    3    3    0    0  0.12750330864E+02 -0.22198269861E+02 -0.22024178219E+02  0.33769787509E+02  0.51100000000E-03 0. -1.
        -11    1    3    3    0    0  0.10609458391E+01 -0.46826378871E+01 -0.19723250868E+01  0.51906425580E+01  0.51100000000E-03 0.  1.
         12    1    3    3    0    0  0.10818463440E+01 -0.68450526526E+01 -0.18853044590E+01  0.71818876511E+01  0.00000000000E+00 0. -1.
</event>
<event>
 7    1  0.2438448E-008  0.4614232E+02  0.7816164E-02  0.1320468E+00
        -11   -1    0    0    0    0  0.00000000000E+00  0.00000000000E+00  0.45593999997E+02  0.45594000000E+02  0.51100000000E-03 0.  1.
         11   -1    0    0    0    0 -0.00000000000E+00 -0.00000000000E+00 -0.45593999997E+02  0.45594000000E+02  0.51100000000E-03 0. -1.
    9900012    2    1    2    0    0 -0.22101943888E+01  0.41521270768E+01  0.44799424649E+02  0.46142316884E+02  0.99999920011E+01 0.  0.
         12    1    1    2    0    0  0.22101943888E+01 -0.41521270768E+01 -0.44799424649E+02  0.45045683116E+02  0.00000000000E+00 0. -1.
         11    1    3    3    0    0  0.33871337059E+01  0.63977287615E+00  0.23783322977E+02  0.24031821325E+02  0.51100000000E-03 0.  1.
        -11    1    3    3    0    0 -0.14464946694E+01  0.19579406430E+01  0.71211517640E+01  0.75257345885E+01  0.51100000000E-03 0. -1.
         12    1    3    3    0    0 -0.41508334253E+01  0.15544135576E+01  0.13894949908E+02  0.14584760971E+02  0.00000000000E+00 0. -1.
</event>
<event>
 7    1  0.2438448E-008  0.4614232E+02  0.7816164E-02  0.1320468E+00
        -11   -1    0    0    0    0  0.00000000000E+00  0.00000000000E+00  0.45593999997E+02  0.45594000000E+02  0.51100000000E-03 0.  1.
         11   -1    0    0    0    0 -0.00000000000E+00 -0.00000000000E+00 -0.45593999997E+02  0.45594000000E+02  0.51100000000E-03 0. -1.
    9900012    2    1    2    0    0 -0.41932920481E+02 -0.16054181307E+02  0.36065054146E+01  0.46142318312E+02  0.10000005020E+02 0.  0.
         12    1    1    2    0    0  0.41932920481E+02  0.16054181307E+02 -0.36065054146E+01  0.45045681688E+02  0.00000000000E+00 0. -1.
         11    1    3    3    0    0  0.37075193012E-01 -0.69724454587E+00 -0.37841146487E+00  0.79417883663E+00  0.51100000000E-03 0.  1.
        -11    1    3    3    0    0 -0.36600395608E+01 -0.11896778082E+01 -0.15108171431E+01  0.41344638800E+01  0.51100000000E-03 0. -1.
        -12    1    3    3    0    0 -0.38309956113E+02 -0.14167258953E+02  0.54957340226E+01  0.41213675595E+02  0.00000000000E+00 0.  1.
</event>
<event>
 7    1  0.2438448E-008  0.4614232E+02  0.7816164E-02  0.1320468E+00
        -11   -1    0    0    0    0  0.00000000000E+00  0.00000000000E+00  0.45593999997E+02  0.45594000000E+02  0.51100000000E-03 0. -1.
         11   -1    0    0    0    0 -0.00000000000E+00 -0.00000000000E+00 -0.45593999997E+02  0.45594000000E+02  0.51100000000E-03 0.  1.
    9900012    2    1    2    0    0 -0.50588675099E+01  0.26427548978E+02 -0.36126250779E+02  0.46142317845E+02  0.10000000764E+02 0.  0.
         12    1    1    2    0    0  0.50588675099E+01 -0.26427548978E+02  0.36126250779E+02  0.45045682155E+02  0.00000000000E+00 0. -1.
         11    1    3    3    0    0 -0.38748053455E+01  0.10374089331E+02 -0.10695260519E+02  0.15395598194E+02  0.51100000000E-03 0. -1.
        -11    1    3    3    0    0 -0.25729551179E+01  0.12883939853E+02 -0.16012919566E+02  0.20713029654E+02  0.51100000000E-03 0.  1.
        -12    1    3    3    0    0  0.13888929535E+01  0.31695197947E+01 -0.94180706938E+01  0.10033689997E+02  0.00000000000E+00 0.  1.
</event>
<event>
 7    1  0.2484888E-008  0.4614232E+02  0.7816164E-02  0.1320468E+00
        -11   -1    0    0    0    0  0.00000000000E+00  0.00000000000E+00  0.45593999997E+02  0.45594000000E+02  0.51100000000E-03 0.  1.
         11   -1    0    0    0    0 -0.00000000000E+00 -0.00000000000E+00 -0.45593999997E+02  0.45594000000E+02  0.51100000000E-03 0. -1.
    9900012    2    1    2    0    0  0.42620056354E+02  0.12598785072E+02  0.73426839192E+01  0.46142316566E+02  0.99999891002E+01 0.  0.
         12    1    1    2    0    0 -0.42620056354E+02 -0.12598785072E+02 -0.73426839192E+01  0.45045683434E+02  0.00000000000E+00 0. -1.
         11    1    3    3    0    0  0.15717129922E+01  0.13171672533E+00  0.11008573636E+01  0.19234131698E+01  0.51100000000E-03 0. -1.
        -11    1    3    3    0    0  0.27487069786E+02  0.89116139664E+01  0.82642342390E+01  0.30054175030E+02  0.51100000000E-03 0.  1.
         12    1    3    3    0    0  0.13561273575E+02  0.35554543808E+01 -0.20224076834E+01  0.14164728366E+02  0.00000000000E+00 0. -1.
</event>
<event>
 7    1  0.2718442E-008  0.4614232E+02  0.7816164E-02  0.1320468E+00
        -11   -1    0    0    0    0  0.00000000000E+00  0.00000000000E+00  0.45593999997E+02  0.45594000000E+02  0.51100000000E-03 0.  1.
         11   -1    0    0    0    0 -0.00000000000E+00 -0.00000000000E+00 -0.45593999997E+02  0.45594000000E+02  0.51100000000E-03 0. -1.
    9900012    2    1    2    0    0  0.40258370371E+01  0.43231431939E+02  0.11997889879E+02  0.46142318377E+02  0.10000005612E+02 0.  0.
         12    1    1    2    0    0 -0.40258370371E+01 -0.43231431939E+02 -0.11997889879E+02  0.45045681623E+02  0.00000000000E+00 0. -1.
         11    1    3    3    0    0  0.10461276484E+01  0.19361294623E+02  0.81010780256E+01  0.21013842533E+02  0.51100000000E-03 0. -1.
        -11    1    3    3    0    0  0.14864677623E+01  0.12943239362E+02  0.51909011525E+01  0.14024353340E+02  0.51100000000E-03 0.  1.
         12    1    3    3    0    0  0.14932416265E+01  0.10926897954E+02 -0.12940892989E+01  0.11104122504E+02  0.00000000000E+00 0. -1.
</event>
<event>
 7    1  0.2438448E-008  0.4614232E+02  0.7816164E-02  0.1320468E+00
        -11   -1    0    0    0    0  0.00000000000E+00  0.00000000000E+00  0.45593999997E+02  0.45594000000E+02  0.51100000000E-03 0.  1.
         11   -1    0    0    0    0 -0.00000000000E+00 -0.00000000000E+00 -0.45593999997E+02  0.45594000000E+02  0.51100000000E-03 0. -1.
    9900012    2    1    2    0    0 -0.30614337370E+02  0.24105386227E+02  0.22601022884E+02  0.46142317264E+02  0.99999954686E+01 0.  0.
         12    1    1    2    0    0  0.30614337370E+02 -0.24105386227E+02 -0.22601022884E+02  0.45045682736E+02  0.00000000000E+00 0. -1.
         11    1    3    3    0    0 -0.32657419682E+01  0.11806837941E+01 -0.20830411870E+00  0.34788612636E+01  0.51100000000E-03 0.  1.
        -11    1    3    3    0    0 -0.15157987676E+01  0.14036319024E+01  0.29892541692E+01  0.36336578224E+01  0.51100000000E-03 0. -1.
        -12    1    3    3    0    0 -0.25832796634E+02  0.21521070530E+02  0.19820072833E+02  0.39029798178E+02  0.00000000000E+00 0.  1.
</event>
<event>
 7    1  0.2438448E-008  0.4614232E+02  0.7816164E-02  0.1320468E+00
        -11   -1    0    0    0    0  0.00000000000E+00  0.00000000000E+00  0.45593999997E+02  0.45594000000E+02  0.51100000000E-03 0.  1.
         11   -1    0    0    0    0 -0.00000000000E+00 -0.00000000000E+00 -0.45593999997E+02  0.45594000000E+02  0.51100000000E-03 0. -1.
    9900012    2    1    2    0    0  0.30927349709E+02  0.10162902623E+01  0.32734991714E+02  0.46142317760E+02  0.99999999924E+01 0.  0.
         12    1    1    2    0    0 -0.30927349709E+02 -0.10162902623E+01 -0.32734991714E+02  0.45045682240E+02  0.00000000000E+00 0. -1.
         11    1    3    3    0    0  0.14818007340E+02 -0.50689271937E-01  0.10437918469E+02  0.18125287672E+02  0.51100000000E-03 0.  1.
        -11    1    3    3    0    0  0.21247274041E+01 -0.11096586710E+01  0.13927964352E+01  0.27723078976E+01  0.51100000000E-03 0. -1.
        -12    1    3    3    0    0  0.13984614965E+02  0.21766382052E+01  0.20904276809E+02  0.25244722191E+02  0.00000000000E+00 0.  1.
</event>
<event>
 7    1  0.2438448E-008  0.4614232E+02  0.7816164E-02  0.1320468E+00
        -11   -1    0    0    0    0  0.00000000000E+00  0.00000000000E+00  0.45593999997E+02  0.45594000000E+02  0.51100000000E-03 0. -1.
         11   -1    0    0    0    0 -0.00000000000E+00 -0.00000000000E+00 -0.45593999997E+02  0.45594000000E+02  0.51100000000E-03 0.  1.
    9900012    2    1    2    0    0 -0.16581627820E+01  0.37646283131E+02 -0.24680380669E+02  0.46142319548E+02  0.10000016298E+02 0.  0.
         12    1    1    2    0    0  0.16581627820E+01 -0.37646283131E+02  0.24680380669E+02  0.45045680452E+02  0.00000000000E+00 0. -1.
         11    1    3    3    0    0 -0.12018886133E+01  0.52190264394E+01 -0.18940784108E+01  0.56806959521E+01  0.51100000000E-03 0. -1.
        -11    1    3    3    0    0  0.21611968773E+01  0.13616411420E+02 -0.57136452997E+01  0.14923912851E+02  0.51100000000E-03 0.  1.
        -12    1    3    3    0    0 -0.26174710460E+01  0.18810845271E+02 -0.17072656958E+02  0.25537710745E+02  0.00000000000E+00 0.  1.
</event>
<event>
 7    1  0.2438448E-008  0.4614232E+02  0.7816164E-02  0.1320468E+00
        -11   -1    0    0    0    0  0.00000000000E+00  0.00000000000E+00  0.45593999997E+02  0.45594000000E+02  0.51100000000E-03 0.  1.
         11   -1    0    0    0    0 -0.00000000000E+00 -0.00000000000E+00 -0.45593999997E+02  0.45594000000E+02  0.51100000000E-03 0. -1.
    9900012    2    1    2    0    0  0.13560331945E+02  0.20763246573E+02  0.37604767929E+02  0.46142316725E+02  0.99999905528E+01 0.  0.
         12    1    1    2    0    0 -0.13560331945E+02 -0.20763246573E+02 -0.37604767929E+02  0.45045683275E+02  0.00000000000E+00 0. -1.
         11    1    3    3    0    0  0.46841499286E+01  0.10459707645E+02  0.12150837343E+02  0.16702981559E+02  0.51100000000E-03 0.  1.
        -11    1    3    3    0    0 -0.25307050981E+00 -0.53457355080E+00  0.70134504230E+00  0.91744138430E+00  0.51100000000E-03 0. -1.
        -12    1    3    3    0    0  0.91292525263E+01  0.10838112479E+02  0.24752585543E+02  0.28521893781E+02  0.00000000000E+00 0.  1.
</event>
<event>
 7    1  0.2438448E-008  0.4614232E+02  0.7816164E-02  0.1320468E+00
        -11   -1    0    0    0    0  0.00000000000E+00  0.00000000000E+00  0.45593999997E+02  0.45594000000E+02  0.51100000000E-03 0. -1.
         11   -1    0    0    0    0 -0.00000000000E+00 -0.00000000000E+00 -0.45593999997E+02  0.45594000000E+02  0.51100000000E-03 0.  1.
    9900012    2    1    2    0    0  0.10798741516E+02 -0.25321097506E+00 -0.43731416334E+02  0.46142315316E+02  0.99999777008E+01 0.  0.
         12    1    1    2    0    0 -0.10798741516E+02  0.25321097506E+00  0.43731416334E+02  0.45045684684E+02  0.00000000000E+00 0. -1.
         11    1    3    3    0    0  0.12905463700E+01 -0.31296458559E+01 -0.14215547380E+02  0.14613075675E+02  0.51100000000E-03 0. -1.
        -11    1    3    3    0    0  0.53142006099E+01 -0.91922513585E+00 -0.13128049853E+02  0.14192652895E+02  0.51100000000E-03 0.  1.
        -12    1    3    3    0    0  0.41939945364E+01  0.37956600167E+01 -0.16387819100E+02  0.17336586746E+02  0.00000000000E+00 0.  1.
</event>
<event>
 7    1  0.2438448E-008  0.4614232E+02  0.7816164E-02  0.1320468E+00
        -11   -1    0    0    0    0  0.00000000000E+00  0.00000000000E+00  0.45593999997E+02  0.45594000000E+02  0.51100000000E-03 0. -1.
         11   -1    0    0    0    0 -0.00000000000E+00 -0.00000000000E+00 -0.45593999997E+02  0.45594000000E+02  0.51100000000E-03 0.  1.
    9900012    2    1    2    0    0  0.41202867355E+02  0.17801775502E+01 -0.18118171259E+02  0.46142318296E+02  0.10000004880E+02 0.  0.
         12    1    1    2    0    0 -0.41202867355E+02 -0.17801775502E+01  0.18118171259E+02  0.45045681704E+02  0.00000000000E+00 0. -1.
         11    1    3    3    0    0  0.32659477220E+02  0.16350901784E+01 -0.15075859663E+02  0.36008284005E+02  0.51100000000E-03 0.  1.
        -11    1    3    3    0    0  0.33708316785E+01  0.22724588940E+01 -0.14889342796E+01  0.43293765347E+01  0.51100000000E-03 0. -1.
        -12    1    3    3    0    0  0.51725584567E+01 -0.21273715221E+01 -0.15533773162E+01  0.58046577563E+01  0.00000000000E+00 0.  1.
</event>
<event>
 7    1  0.2438448E-008  0.4614232E+02  0.7816164E-02  0.1320468E+00
        -11   -1    0    0    0    0  0.00000000000E+00  0.00000000000E+00  0.45593999997E+02  0.45594000000E+02  0.51100000000E-03 0. -1.
         11   -1    0    0    0    0 -0.00000000000E+00 -0.00000000000E+00 -0.45593999997E+02  0.45594000000E+02  0.51100000000E-03 0.  1.
    9900012    2    1    2    0    0 -0.22118440589E+02  0.55292263125E+01 -0.38849913781E+02  0.46142316983E+02  0.99999929035E+01 0.  0.
         12    1    1    2    0    0  0.22118440589E+02 -0.55292263125E+01  0.38849913781E+02  0.45045683017E+02  0.00000000000E+00 0. -1.
         11    1    3    3    0    0 -0.55783497639E+01  0.20457086131E+01 -0.16040440936E+02  0.17105515353E+02  0.51100000000E-03 0. -1.
        -11    1    3    3    0    0 -0.57153377347E+01  0.10514800027E+01 -0.12950780211E+02  0.14194837229E+02  0.51100000000E-03 0.  1.
         12    1    3    3    0    0 -0.10824753090E+02  0.24320376967E+01 -0.98586926336E+01  0.14841964401E+02  0.00000000000E+00 0. -1.
</event>
<event>
 7    1  0.2438448E-008  0.4614232E+02  0.7816164E-02  0.1320468E+00
        -11   -1    0    0    0    0  0.00000000000E+00  0.00000000000E+00  0.45593999997E+02  0.45594000000E+02  0.51100000000E-03 0. -1.
         11   -1    0    0    0    0 -0.00000000000E+00 -0.00000000000E+00 -0.45593999997E+02  0.45594000000E+02  0.51100000000E-03 0.  1.
    9900012    2    1    2    0    0  0.68100135012E+01  0.43692340404E+02  0.85858327793E+01  0.46142318538E+02  0.10000007085E+02 0.  0.
         12    1    1    2    0    0 -0.68100135012E+01 -0.43692340404E+02 -0.85858327793E+01  0.45045681462E+02  0.00000000000E+00 0. -1.
         11    1    3    3    0    0 -0.26662326489E+00  0.96517920855E+00  0.39965025746E-01  0.10021259075E+01  0.51100000000E-03 0. -1.
        -11    1    3    3    0    0  0.29281856220E+01  0.38346451103E+01 -0.88702429413E+00  0.49056688146E+01  0.51100000000E-03 0.  1.
        -12    1    3    3    0    0  0.41484511441E+01  0.38892516085E+02  0.94328920477E+01  0.40234523816E+02  0.00000000000E+00 0.  1.
</event>
<event>
 7    1  0.2438448E-008  0.4614232E+02  0.7816164E-02  0.1320468E+00
        -11   -1    0    0    0    0  0.00000000000E+00  0.00000000000E+00  0.45593999997E+02  0.45594000000E+02  0.51100000000E-03 0.  1.
         11   -1    0    0    0    0 -0.00000000000E+00 -0.00000000000E+00 -0.45593999997E+02  0.45594000000E+02  0.51100000000E-03 0. -1.
    9900012    2    1    2    0    0  0.30649188709E+02 -0.19659275619E+02  0.26518929490E+02  0.46142317547E+02  0.99999980454E+01 0.  0.
         12    1    1    2    0    0 -0.30649188709E+02  0.19659275619E+02 -0.26518929490E+02  0.45045682453E+02  0.00000000000E+00 0. -1.
         11    1    3    3    0    0  0.32851434813E+00 -0.23799756586E+01  0.37225940751E+01  0.44305657338E+01  0.51100000000E-03 0. -1.
        -11    1    3    3    0    0  0.16442815312E+02 -0.89166401899E+01  0.11448038123E+02  0.21930121404E+02  0.51100000000E-03 0.  1.
        -12    1    3    3    0    0  0.13877859048E+02 -0.83626597704E+01  0.11348297292E+02  0.19781630409E+02  0.00000000000E+00 0.  1.
</event>
<event>
 7    1  0.2438448E-008  0.4614232E+02  0.7816164E-02  0.1320468E+00
        -11   -1    0    0    0    0  0.00000000000E+00  0.00000000000E+00  0.45593999997E+02  0.45594000000E+02  0.51100000000E-03 0.  1.
         11   -1    0    0    0    0 -0.00000000000E+00 -0.00000000000E+00 -0.45593999997E+02  0.45594000000E+02  0.51100000000E-03 0. -1.
    9900012    2    1    2    0    0  0.41362522597E+01  0.15444125649E+02  0.42112752223E+02  0.46142317636E+02  0.99999988630E+01 0.  0.
         12    1    1    2    0    0 -0.41362522597E+01 -0.15444125649E+02 -0.42112752223E+02  0.45045682364E+02  0.00000000000E+00 0. -1.
         11    1    3    3    0    0 -0.50951109296E+00  0.97793714292E-01 -0.21094289794E+00  0.56005565055E+00  0.51100000000E-03 0. -1.
        -11    1    3    3    0    0  0.47661132665E+01  0.15648493637E+02  0.39694469386E+02  0.42932995340E+02  0.51100000000E-03 0.  1.
         12    1    3    3    0    0 -0.12034991384E+00 -0.30216170229E+00  0.26292257347E+01  0.26492666457E+01  0.00000000000E+00 0. -1.
</event>
<event>
 7    1  0.2438448E-008  0.4614232E+02  0.7816164E-02  0.1320468E+00
        -11   -1    0    0    0    0  0.00000000000E+00  0.00000000000E+00  0.45593999997E+02  0.45594000000E+02  0.51100000000E-03 0.  1.
         11   -1    0    0    0    0 -0.00000000000E+00 -0.00000000000E+00 -0.45593999997E+02  0.45594000000E+02  0.51100000000E-03 0. -1.
    9900012    2    1    2    0    0  0.20947218729E+02 -0.10871852892E+02  0.38368350218E+02  0.46142318118E+02  0.10000003255E+02 0.  0.
         12    1    1    2    0    0 -0.20947218729E+02  0.10871852892E+02 -0.38368350218E+02  0.45045681882E+02  0.00000000000E+00 0. -1.
         11    1    3    3    0    0  0.86154059071E+01  0.41008691312E+00  0.13748777842E+02  0.16230289049E+02  0.51100000000E-03 0. -1.
        -11    1    3    3    0    0  0.94651423965E+01 -0.72045960102E+01  0.15740031674E+02  0.19729260544E+02  0.51100000000E-03 0.  1.
         12    1    3    3    0    0  0.28666704249E+01 -0.40773437948E+01  0.88795407023E+01  0.10182768525E+02  0.00000000000E+00 0. -1.
</event>
<event>
 7    1  0.2438448E-008  0.4614232E+02  0.7816164E-02  0.1320468E+00
        -11   -1    0    0    0    0  0.00000000000E+00  0.00000000000E+00  0.45593999997E+02  0.45594000000E+02  0.51100000000E-03 0. -1.
         11   -1    0    0    0    0 -0.00000000000E+00 -0.00000000000E+00 -0.45593999997E+02  0.45594000000E+02  0.51100000000E-03 0.  1.
    9900012    2    1    2    0    0  0.23876651002E+02  0.19386539708E+02 -0.32911715922E+02  0.46142318410E+02  0.10000005921E+02 0.  0.
         12    1    1    2    0    0 -0.23876651002E+02 -0.19386539708E+02  0.32911715922E+02  0.45045681590E+02  0.00000000000E+00 0. -1.
         11    1    3    3    0    0  0.10854199688E+02  0.13604684743E+02 -0.19404765008E+02  0.26066185051E+02  0.51100000000E-03 0. -1.
        -11    1    3    3    0    0  0.36841747415E+01  0.33867881649E+01 -0.62661202703E+01  0.80192107531E+01  0.51100000000E-03 0.  1.
         12    1    3    3    0    0  0.93382765728E+01  0.23950668001E+01 -0.72408306436E+01  0.12056922606E+02  0.00000000000E+00 0. -1.
</event>
<event>
 7    1  0.2438448E-008  0.4614232E+02  0.7816164E-02  0.1320468E+00
        -11   -1    0    0    0    0  0.00000000000E+00  0.00000000000E+00  0.45593999997E+02  0.45594000000E+02  0.51100000000E-03 0.  1.
         11   -1    0    0    0    0 -0.00000000000E+00 -0.00000000000E+00 -0.45593999997E+02  0.45594000000E+02  0.51100000000E-03 0. -1.
    9900012    2    1    2    0    0 -0.17457417371E+02  0.23596341538E+02  0.34169647925E+02  0.46142316582E+02  0.99999892475E+01 0.  0.
         12    1    1    2    0    0  0.17457417371E+02 -0.23596341538E+02 -0.34169647925E+02  0.45045683418E+02  0.00000000000E+00 0. -1.
         11    1    3    3    0    0  0.53476665598E+00  0.27468095030E+01  0.32933702862E+01  0.43217156229E+01  0.51100000000E-03 0.  1.
        -11    1    3    3    0    0 -0.30748521615E+01  0.42080347312E+01  0.27388018168E+01  0.58875553303E+01  0.51100000000E-03 0. -1.
        -12    1    3    3    0    0 -0.14917331865E+02  0.16641497304E+02  0.28137475822E+02  0.35933045629E+02  0.00000000000E+00 0.  1.
</event>
<event>
 7    1  0.2438448E-008  0.4614232E+02  0.7816164E-02  0.1320468E+00
        -11   -1    0    0    0    0  0.00000000000E+00  0.00000000000E+00  0.45593999997E+02  0.45594000000E+02  0.51100000000E-03 0.  1.
         11   -1    0    0    0    0 -0.00000000000E+00 -0.00000000000E+00 -0.45593999997E+02  0.45594000000E+02  0.51100000000E-03 0. -1.
    9900012    2    1    2    0    0  0.13157538695E+02 -0.36622464294E+02  0.22688930309E+02  0.46142320140E+02  0.10000021692E+02 0.  0.
         12    1    1    2    0    0 -0.13157538695E+02  0.36622464294E+02 -0.22688930309E+02  0.45045679860E+02  0.00000000000E+00 0. -1.
         11    1    3    3    0    0  0.54965172433E+01 -0.16346456918E+02  0.14593116352E+02  0.22591533828E+02  0.51100000000E-03 0. -1.
        -11    1    3    3    0    0  0.77173550433E+01 -0.20262323231E+02  0.83915210527E+01  0.23249450261E+02  0.51100000000E-03 0.  1.
         12    1    3    3    0    0 -0.56333592085E-01 -0.13684145293E-01 -0.29570709563E+00  0.30133605134E+00  0.00000000000E+00 0. -1.
</event>
<event>
 7    1  0.2438448E-008  0.4614232E+02  0.7816164E-02  0.1320468E+00
        -11   -1    0    0    0    0  0.00000000000E+00  0.00000000000E+00  0.45593999997E+02  0.45594000000E+02  0.51100000000E-03 0.  1.
         11   -1    0    0    0    0 -0.00000000000E+00 -0.00000000000E+00 -0.45593999997E+02  0.45594000000E+02  0.51100000000E-03 0. -1.
    9900012    2    1    2    0    0 -0.56645803818E+01 -0.20605228773E+02  0.39654136412E+02  0.46142318095E+02  0.10000003042E+02 0.  0.
         12    1    1    2    0    0  0.56645803818E+01  0.20605228773E+02 -0.39654136412E+02  0.45045681905E+02  0.00000000000E+00 0. -1.
         11    1    3    3    0    0 -0.73811784471E+00 -0.79377458423E+00  0.74348023376E+01  0.75134001693E+01  0.51100000000E-03 0. -1.
        -11    1    3    3    0    0 -0.91203133784E+00 -0.12530199541E+02  0.15465424176E+02  0.19925286621E+02  0.51100000000E-03 0.  1.
         12    1    3    3    0    0 -0.40144311993E+01 -0.72812546485E+01  0.16753909898E+02  0.18703631305E+02  0.00000000000E+00 0. -1.
</event>
<event>
 7    1  0.2438448E-008  0.4614232E+02  0.7816164E-02  0.1320468E+00
        -11   -1    0    0    0    0  0.00000000000E+00  0.00000000000E+00  0.45593999997E+02  0.45594000000E+02  0.51100000000E-03 0. -1.
         11   -1    0    0    0    0 -0.00000000000E+00 -0.00000000000E+00 -0.45593999997E+02  0.45594000000E+02  0.51100000000E-03 0.  1.
    9900012    2    1    2    0    0 -0.36770061429E+02 -0.10364255655E+02 -0.23867515723E+02  0.46142317415E+02  0.99999968410E+01 0.  0.
         12    1    1    2    0    0  0.36770061429E+02  0.10364255655E+02  0.23867515723E+02  0.45045682585E+02  0.00000000000E+00 0. -1.
         11    1    3    3    0    0 -0.18502716681E+01 -0.22724749133E+01 -0.20676846965E+01  0.35864979775E+01  0.51100000000E-03 0. -1.
        -11    1    3    3    0    0 -0.73800251155E+01  0.74774071811E-01 -0.19313381267E+01  0.76289205716E+01  0.51100000000E-03 0.  1.
        -12    1    3    3    0    0 -0.27539764646E+02 -0.81665548131E+01 -0.19868492900E+02  0.34926898866E+02  0.00000000000E+00 0.  1.
</event>
<event>
 7    1  0.2438448E-008  0.4614232E+02  0.7816164E-02  0.1320468E+00
        -11   -1    0    0    0    0  0.00000000000E+00  0.00000000000E+00  0.45593999997E+02  0.45594000000E+02  0.51100000000E-03 0. -1.
         11   -1    0    0    0    0 -0.00000000000E+00 -0.00000000000E+00 -0.45593999997E+02  0.45594000000E+02  0.51100000000E-03 0.  1.
    9900012    2    1    2    0    0  0.41124168915E+02 -0.11911628069E+02 -0.14001046897E+02  0.46142318004E+02  0.10000002219E+02 0.  0.
         12    1    1    2    0    0 -0.41124168915E+02  0.11911628069E+02  0.14001046897E+02  0.45045681996E+02  0.00000000000E+00 0. -1.
         11    1    3    3    0    0  0.18432910445E+00 -0.12241825540E+01  0.46309509997E+00  0.13217630184E+01  0.51100000000E-03 0. -1.
        -11    1    3    3    0    0  0.48854334406E+01 -0.15222454865E+01 -0.74827808843E+00  0.51715192722E+01  0.51100000000E-03 0.  1.
         12    1    3    3    0    0  0.36054406370E+02 -0.91652000283E+01 -0.13715863908E+02  0.39649035714E+02  0.00000000000E+00 0. -1.
</event>
<event>
 7    1  0.2438448E-008  0.4614232E+02  0.7816164E-02  0.1320468E+00
        -11   -1    0    0    0    0  0.00000000000E+00  0.00000000000E+00  0.45593999997E+02  0.45594000000E+02  0.51100000000E-03 0. -1.
         11   -1    0    0    0    0 -0.00000000000E+00 -0.00000000000E+00 -0.45593999997E+02  0.45594000000E+02  0.51100000000E-03 0.  1.
    9900012    2    1    2    0    0  0.30795944942E+02  0.66472337367E+01 -0.32195300166E+02  0.46142319918E+02  0.10000019671E+02 0.  0.
         12    1    1    2    0    0 -0.30795944942E+02 -0.66472337367E+01  0.32195300166E+02  0.45045680082E+02  0.00000000000E+00 0. -1.
         11    1    3    3    0    0  0.30665759267E+01  0.21062771983E+01 -0.72820040162E+01  0.81772779274E+01  0.51100000000E-03 0. -1.
        -11    1    3    3    0    0  0.81728086432E+01  0.39558858291E+01 -0.81168689067E+01  0.12178973476E+02  0.51100000000E-03 0.  1.
        -12    1    3    3    0    0  0.19556560372E+02  0.58507070936E+00 -0.16796427243E+02  0.25786068515E+02  0.00000000000E+00 0.  1.
</event>
<event>
 7    1  0.2438448E-008  0.4614232E+02  0.7816164E-02  0.1320468E+00
        -11   -1    0    0    0    0  0.00000000000E+00  0.00000000000E+00  0.45593999997E+02  0.45594000000E+02  0.51100000000E-03 0. -1.
         11   -1    0    0    0    0 -0.00000000000E+00 -0.00000000000E+00 -0.45593999997E+02  0.45594000000E+02  0.51100000000E-03 0.  1.
    9900012    2    1    2    0    0 -0.23950114365E+02  0.31214074149E+02 -0.21935977770E+02  0.46142317368E+02  0.99999964133E+01 0.  0.
         12    1    1    2    0    0  0.23950114365E+02 -0.31214074149E+02  0.21935977770E+02  0.45045682632E+02  0.00000000000E+00 0. -1.
         11    1    3    3    0    0 -0.11713131892E+01  0.26311597548E+01  0.36193444121E-01  0.28803274933E+01  0.51100000000E-03 0. -1.
        -11    1    3    3    0    0 -0.11192508757E+02  0.17894511817E+02 -0.94279947601E+01  0.23116506893E+02  0.51100000000E-03 0.  1.
        -12    1    3    3    0    0 -0.11586292419E+02  0.10688402577E+02 -0.12544176454E+02  0.20145482982E+02  0.00000000000E+00 0.  1.
</event>
<event>
 7    1  0.2438448E-008  0.4614232E+02  0.7816164E-02  0.1320468E+00
        -11   -1    0    0    0    0  0.00000000000E+00  0.00000000000E+00  0.45593999997E+02  0.45594000000E+02  0.51100000000E-03 0. -1.
         11   -1    0    0    0    0 -0.00000000000E+00 -0.00000000000E+00 -0.45593999997E+02  0.45594000000E+02  0.51100000000E-03 0.  1.
    9900012    2    1    2    0    0 -0.28272619632E+02  0.34674590714E+02  0.52388249313E+01  0.46142317092E+02  0.99999938948E+01 0.  0.
         12    1    1    2    0    0  0.28272619632E+02 -0.34674590714E+02 -0.52388249313E+01  0.45045682908E+02  0.00000000000E+00 0. -1.
         11    1    3    3    0    0 -0.14329014825E+02  0.22565635856E+02  0.53449315133E+01  0.27259803385E+02  0.51100000000E-03 0. -1.
        -11    1    3    3    0    0 -0.79912233847E+01  0.77249901147E+01  0.17722652453E+01  0.11255045438E+02  0.51100000000E-03 0.  1.
         12    1    3    3    0    0 -0.59523814218E+01  0.43839647433E+01 -0.18783718274E+01  0.76274682683E+01  0.00000000000E+00 0. -1.
</event>
<event>
 7    1  0.2438448E-008  0.4614232E+02  0.7816164E-02  0.1320468E+00
        -11   -1    0    0    0    0  0.00000000000E+00  0.00000000000E+00  0.45593999997E+02  0.45594000000E+02  0.51100000000E-03 0.  1.
         11   -1    0    0    0    0 -0.00000000000E+00 -0.00000000000E+00 -0.45593999997E+02  0.45594000000E+02  0.51100000000E-03 0. -1.
    9900012    2    1    2    0    0 -0.12354621622E+01 -0.30127358733E+02  0.33465345999E+02  0.46142317701E+02  0.99999994478E+01 0.  0.
         12    1    1    2    0    0  0.12354621622E+01  0.30127358733E+02 -0.33465345999E+02  0.45045682299E+02  0.00000000000E+00 0. -1.
         11    1    3    3    0    0 -0.13607541400E+01 -0.45444828863E+00  0.42372734090E+01  0.44735513052E+01  0.51100000000E-03 0. -1.
        -11    1    3    3    0    0  0.63451879696E+00 -0.11407162421E+02  0.11082865178E+02  0.15917156449E+02  0.51100000000E-03 0.  1.
         12    1    3    3    0    0 -0.50922681916E+00 -0.18265748024E+02  0.18145207412E+02  0.25751609947E+02  0.00000000000E+00 0. -1.
</event>
<event>
 7    1  0.2438448E-008  0.4614232E+02  0.7816164E-02  0.1320468E+00
        -11   -1    0    0    0    0  0.00000000000E+00  0.00000000000E+00  0.45593999997E+02  0.45594000000E+02  0.51100000000E-03 0.  1.
         11   -1    0    0    0    0 -0.00000000000E+00 -0.00000000000E+00 -0.45593999997E+02  0.45594000000E+02  0.51100000000E-03 0. -1.
    9900012    2    1    2    0    0  0.28392740168E+02 -0.22906150370E+02  0.26424874552E+02  0.46142318585E+02  0.10000007514E+02 0.  0.
         12    1    1    2    0    0 -0.28392740168E+02  0.22906150370E+02 -0.26424874552E+02  0.45045681415E+02  0.00000000000E+00 0. -1.
         11    1    3    3    0    0  0.89372993669E+01 -0.95407875813E+01  0.76064376157E+01  0.15124808796E+02  0.51100000000E-03 0.  1.
        -11    1    3    3    0    0  0.69025989887E+01 -0.29926928646E+01  0.99534311575E+01  0.12476893662E+02  0.51100000000E-03 0. -1.
         12    1    3    3    0    0  0.12552841813E+02 -0.10372669924E+02  0.88650057790E+01  0.18540616128E+02  0.00000000000E+00 0. -1.
</event>
<event>
 7    1  0.2438448E-008  0.4614232E+02  0.7816164E-02  0.1320468E+00
        -11   -1    0    0    0    0  0.00000000000E+00  0.00000000000E+00  0.45593999997E+02  0.45594000000E+02  0.51100000000E-03 0.  1.
         11   -1    0    0    0    0 -0.00000000000E+00 -0.00000000000E+00 -0.45593999997E+02  0.45594000000E+02  0.51100000000E-03 0. -1.
    9900012    2    1    2    0    0  0.13692854824E+02  0.21202971236E+01  0.42861681484E+02  0.46142315714E+02  0.99999813373E+01 0.  0.
         12    1    1    2    0    0 -0.13692854824E+02 -0.21202971236E+01 -0.42861681484E+02  0.45045684286E+02  0.00000000000E+00 0. -1.
         11    1    3    3    0    0  0.33721939862E+01  0.19582501887E+01  0.64866774946E+01  0.75685811922E+01  0.51100000000E-03 0. -1.
        -11    1    3    3    0    0  0.35619168750E+01 -0.10635134103E+01  0.25080550564E+02  0.25354532720E+02  0.51100000000E-03 0.  1.
        -12    1    3    3    0    0  0.67587439625E+01  0.12255603452E+01  0.11294453425E+02  0.13219201802E+02  0.00000000000E+00 0.  1.
</event>
<event>
 7    1  0.2438448E-008  0.4614232E+02  0.7816164E-02  0.1320468E+00
        -11   -1    0    0    0    0  0.00000000000E+00  0.00000000000E+00  0.45593999997E+02  0.45594000000E+02  0.51100000000E-03 0.  1.
         11   -1    0    0    0    0 -0.00000000000E+00 -0.00000000000E+00 -0.45593999997E+02  0.45594000000E+02  0.51100000000E-03 0. -1.
    9900012    2    1    2    0    0 -0.56305707271E+01 -0.17465909196E+01  0.44658253171E+02  0.46142317823E+02  0.10000000563E+02 0.  0.
         12    1    1    2    0    0  0.56305707271E+01  0.17465909196E+01 -0.44658253171E+02  0.45045682177E+02  0.00000000000E+00 0. -1.
         11    1    3    3    0    0  0.27816057511E+00 -0.10027811501E+01  0.83614123015E+01  0.84259218651E+01  0.51100000000E-03 0.  1.
        -11    1    3    3    0    0 -0.21401509133E+01 -0.88020774851E-01  0.31538473684E+02  0.31611126462E+02  0.51100000000E-03 0. -1.
         12    1    3    3    0    0 -0.37685803888E+01 -0.65578899467E+00  0.47583671851E+01  0.61052694962E+01  0.00000000000E+00 0. -1.
</event>
<event>
 7    1  0.2438448E-008  0.4614232E+02  0.7816164E-02  0.1320468E+00
        -11   -1    0    0    0    0  0.00000000000E+00  0.00000000000E+00  0.45593999997E+02  0.45594000000E+02  0.51100000000E-03 0. -1.
         11   -1    0    0    0    0 -0.00000000000E+00 -0.00000000000E+00 -0.45593999997E+02  0.45594000000E+02  0.51100000000E-03 0.  1.
    9900012    2    1    2    0    0 -0.40382738492E+02  0.21584926678E+01 -0.19841592917E+02  0.46142317985E+02  0.10000002045E+02 0.  0.
         12    1    1    2    0    0  0.40382738492E+02 -0.21584926678E+01  0.19841592917E+02  0.45045682015E+02  0.00000000000E+00 0. -1.
         11    1    3    3    0    0  0.38721100036E+00  0.13730898701E+00 -0.39200099935E-01  0.41270210282E+00  0.51100000000E-03 0. -1.
        -11    1    3    3    0    0 -0.32628593084E+01 -0.12210204506E+01 -0.25524771314E+01  0.43188287272E+01  0.51100000000E-03 0.  1.
        -12    1    3    3    0    0 -0.37507090184E+02  0.32422041313E+01 -0.17249915685E+02  0.41410787155E+02  0.00000000000E+00 0.  1.
</event>
<event>
 7    1  0.2438448E-008  0.4614232E+02  0.7816164E-02  0.1320468E+00
        -11   -1    0    0    0    0  0.00000000000E+00  0.00000000000E+00  0.45593999997E+02  0.45594000000E+02  0.51100000000E-03 0. -1.
         11   -1    0    0    0    0 -0.00000000000E+00 -0.00000000000E+00 -0.45593999997E+02  0.45594000000E+02  0.51100000000E-03 0.  1.
    9900012    2    1    2    0    0  0.21856773117E+02 -0.39109648935E+02 -0.46722844544E+01  0.46142318598E+02  0.10000007636E+02 0.  0.
         12    1    1    2    0    0 -0.21856773117E+02  0.39109648935E+02  0.46722844544E+01  0.45045681402E+02  0.00000000000E+00 0. -1.
         11    1    3    3    0    0 -0.50543062874E-01 -0.12837787711E+01 -0.68463621879E+00  0.14558054635E+01  0.51100000000E-03 0. -1.
        -11    1    3    3    0    0 -0.44150783657E+00  0.12811070523E+00 -0.97222147526E-01  0.46988714564E+00  0.51100000000E-03 0.  1.
        -12    1    3    3    0    0  0.22348824017E+02 -0.37953980869E+02 -0.38904260880E+01  0.44216625989E+02  0.00000000000E+00 0.  1.
</event>
<event>
 7    1  0.2438448E-008  0.4614232E+02  0.7816164E-02  0.1320468E+00
        -11   -1    0    0    0    0  0.00000000000E+00  0.00000000000E+00  0.45593999997E+02  0.45594000000E+02  0.51100000000E-03 0. -1.
         11   -1    0    0    0    0 -0.00000000000E+00 -0.00000000000E+00 -0.45593999997E+02  0.45594000000E+02  0.51100000000E-03 0.  1.
    9900012    2    1    2    0    0  0.11853914520E+02  0.42002737115E+02 -0.11152048973E+02  0.46142318621E+02  0.10000007841E+02 0.  0.
         12    1    1    2    0    0 -0.11853914520E+02 -0.42002737115E+02  0.11152048973E+02  0.45045681379E+02  0.00000000000E+00 0. -1.
         11    1    3    3    0    0  0.72911485475E+01  0.20097235752E+02 -0.63106267922E+01  0.22290889233E+02  0.51100000000E-03 0. -1.
        -11    1    3    3    0    0  0.61570717010E+01  0.14933398851E+02 -0.26323625236E+01  0.16365978917E+02  0.51100000000E-03 0.  1.
         12    1    3    3    0    0 -0.15943057289E+01  0.69721025119E+01 -0.22090596570E+01  0.74854504715E+01  0.00000000000E+00 0. -1.
</event>
<event>
 7    1  0.2438448E-008  0.4614232E+02  0.7816164E-02  0.1320468E+00
        -11   -1    0    0    0    0  0.00000000000E+00  0.00000000000E+00  0.45593999997E+02  0.45594000000E+02  0.51100000000E-03 0.  1.
         11   -1    0    0    0    0 -0.00000000000E+00 -0.00000000000E+00 -0.45593999997E+02  0.45594000000E+02  0.51100000000E-03 0. -1.
    9900012    2    1    2    0    0 -0.42335673578E+02  0.39665401097E+01  0.14868448829E+02  0.46142317984E+02  0.10000002031E+02 0.  0.
         12    1    1    2    0    0  0.42335673578E+02 -0.39665401097E+01 -0.14868448829E+02  0.45045682016E+02  0.00000000000E+00 0. -1.
         11    1    3    3    0    0 -0.10847707019E+02  0.10291269234E+01  0.55894053670E+01  0.12246358741E+02  0.51100000000E-03 0.  1.
        -11    1    3    3    0    0 -0.75867713513E+01  0.53112260462E-01 -0.11241271063E+01  0.76697837298E+01  0.51100000000E-03 0. -1.
         12    1    3    3    0    0 -0.23901195207E+02  0.28843009259E+01  0.10403170568E+02  0.26226175513E+02  0.00000000000E+00 0. -1.
</event>
<event>
 7    1  0.2438448E-008  0.4614232E+02  0.7816164E-02  0.1320468E+00
        -11   -1    0    0    0    0  0.00000000000E+00  0.00000000000E+00  0.45593999997E+02  0.45594000000E+02  0.51100000000E-03 0. -1.
         11   -1    0    0    0    0 -0.00000000000E+00 -0.00000000000E+00 -0.45593999997E+02  0.45594000000E+02  0.51100000000E-03 0.  1.
    9900012    2    1    2    0    0 -0.94460084837E+01 -0.55300015782E+00 -0.44040669909E+02  0.46142317727E+02  0.99999996846E+01 0.  0.
         12    1    1    2    0    0  0.94460084837E+01  0.55300015782E+00  0.44040669909E+02  0.45045682273E+02  0.00000000000E+00 0. -1.
         11    1    3    3    0    0  0.52588253039E+00  0.10577422151E+01 -0.71235199015E+01  0.72207968451E+01  0.51100000000E-03 0. -1.
        -11    1    3    3    0    0 -0.38776830220E+01 -0.28575417424E+01 -0.25193348175E+02  0.25649693233E+02  0.51100000000E-03 0.  1.
         12    1    3    3    0    0 -0.60942079921E+01  0.12467993695E+01 -0.11723801833E+02  0.13271827649E+02  0.00000000000E+00 0. -1.
</event>
<event>
 7    1  0.2438448E-008  0.4614232E+02  0.7816164E-02  0.1320468E+00
        -11   -1    0    0    0    0  0.00000000000E+00  0.00000000000E+00  0.45593999997E+02  0.45594000000E+02  0.51100000000E-03 0.  1.
         11   -1    0    0    0    0 -0.00000000000E+00 -0.00000000000E+00 -0.45593999997E+02  0.45594000000E+02  0.51100000000E-03 0. -1.
    9900012    2    1    2    0    0 -0.32746888629E+02  0.74319397670E+01  0.30025340602E+02  0.46142317390E+02  0.99999966131E+01 0.  0.
         12    1    1    2    0    0  0.32746888629E+02 -0.74319397670E+01 -0.30025340602E+02  0.45045682610E+02  0.00000000000E+00 0. -1.
         11    1    3    3    0    0 -0.19490900396E+02  0.16657315634E+01  0.15819978962E+02  0.25158330519E+02  0.51100000000E-03 0. -1.
        -11    1    3    3    0    0 -0.18647953147E+01 -0.33896737841E+00  0.43046085595E+01  0.47034046776E+01  0.51100000000E-03 0.  1.
        -12    1    3    3    0    0 -0.11391192918E+02  0.61051755820E+01  0.99007530807E+01  0.16280582193E+02  0.00000000000E+00 0.  1.
</event>
<event>
 7    1  0.2438448E-008  0.4614231E+02  0.7816164E-02  0.1320468E+00
        -11   -1    0    0    0    0  0.00000000000E+00  0.00000000000E+00  0.45593999997E+02  0.45594000000E+02  0.51100000000E-03 0. -1.
         11   -1    0    0    0    0 -0.00000000000E+00 -0.00000000000E+00 -0.45593999997E+02  0.45594000000E+02  0.51100000000E-03 0.  1.
    9900012    2    1    2    0    0 -0.33990240990E+02  0.23614599300E+02  0.17779996452E+02  0.46142311455E+02  0.99999424998E+01 0.  0.
         12    1    1    2    0    0  0.33990240990E+02 -0.23614599300E+02 -0.17779996452E+02  0.45045688545E+02  0.00000000000E+00 0. -1.
         11    1    3    3    0    0 -0.16756526932E+02  0.69867486850E+01  0.10366547482E+02  0.20906007724E+02  0.51100000000E-03 0. -1.
        -11    1    3    3    0    0 -0.97613164572E+01  0.10251807541E+02  0.57238057627E+01  0.15269080178E+02  0.51100000000E-03 0.  1.
        -12    1    3    3    0    0 -0.74723976006E+01  0.63760430745E+01  0.16896432074E+01  0.99672235531E+01  0.00000000000E+00 0.  1.
</event>
<event>
 7    1  0.2438448E-008  0.4614232E+02  0.7816164E-02  0.1320468E+00
        -11   -1    0    0    0    0  0.00000000000E+00  0.00000000000E+00  0.45593999997E+02  0.45594000000E+02  0.51100000000E-03 0. -1.
         11   -1    0    0    0    0 -0.00000000000E+00 -0.00000000000E+00 -0.45593999997E+02  0.45594000000E+02  0.51100000000E-03 0.  1.
    9900012    2    1    2    0    0 -0.43700864424E+02  0.10084674519E+02  0.42008648883E+01  0.46142317883E+02  0.10000001112E+02 0.  0.
         12    1    1    2    0    0  0.43700864424E+02 -0.10084674519E+02 -0.42008648883E+01  0.45045682117E+02  0.00000000000E+00 0. -1.
         11    1    3    3    0    0 -0.12333455048E+01  0.98957441474E+00  0.72510139531E-01  0.15829266053E+01  0.51100000000E-03 0. -1.
        -11    1    3    3    0    0 -0.21575096336E+02  0.27100659669E+01  0.62102858488E+01  0.22614086098E+02  0.51100000000E-03 0.  1.
        -12    1    3    3    0    0 -0.20892422583E+02  0.63850341371E+01 -0.20819311000E+01  0.21945305180E+02  0.00000000000E+00 0.  1.
</event>
<event>
 7    1  0.2438448E-008  0.4614232E+02  0.7816164E-02  0.1320468E+00
        -11   -1    0    0    0    0  0.00000000000E+00  0.00000000000E+00  0.45593999997E+02  0.45594000000E+02  0.51100000000E-03 0.  1.
         11   -1    0    0    0    0 -0.00000000000E+00 -0.00000000000E+00 -0.45593999997E+02  0.45594000000E+02  0.51100000000E-03 0. -1.
    9900012    2    1    2    0    0  0.63950891437E+01  0.32904150120E+02  0.30092080375E+02  0.46142316948E+02  0.99999925881E+01 0.  0.
         12    1    1    2    0    0 -0.63950891437E+01 -0.32904150120E+02 -0.30092080375E+02  0.45045683052E+02  0.00000000000E+00 0. -1.
         11    1    3    3    0    0  0.27646844846E+01  0.48241016964E+01  0.66636481916E+01  0.86786891268E+01  0.51100000000E-03 0. -1.
        -11    1    3    3    0    0  0.48159509708E+01  0.11917340145E+02  0.83498654374E+01  0.15327642772E+02  0.51100000000E-03 0.  1.
         12    1    3    3    0    0 -0.11855463117E+01  0.16162708279E+02  0.15078566746E+02  0.22135985049E+02  0.00000000000E+00 0. -1.
</event>
<event>
 7    1  0.2438448E-008  0.4614232E+02  0.7816164E-02  0.1320468E+00
        -11   -1    0    0    0    0  0.00000000000E+00  0.00000000000E+00  0.45593999997E+02  0.45594000000E+02  0.51100000000E-03 0.  1.
         11   -1    0    0    0    0 -0.00000000000E+00 -0.00000000000E+00 -0.45593999997E+02  0.45594000000E+02  0.51100000000E-03 0. -1.
    9900012    2    1    2    0    0  0.12074881225E+02 -0.18212465863E+02  0.39390566917E+02  0.46142318393E+02  0.10000005761E+02 0.  0.
         12    1    1    2    0    0 -0.12074881225E+02  0.18212465863E+02 -0.39390566917E+02  0.45045681607E+02  0.00000000000E+00 0. -1.
         11    1    3    3    0    0  0.22240974994E+01 -0.10282393658E+02  0.14534376981E+02  0.17942194501E+02  0.51100000000E-03 0. -1.
        -11    1    3    3    0    0  0.46413676688E+01 -0.62506022782E+01  0.13248502723E+02  0.15366689537E+02  0.51100000000E-03 0.  1.
        -12    1    3    3    0    0  0.52094160566E+01 -0.16794699261E+01  0.11607687214E+02  0.12833434355E+02  0.00000000000E+00 0.  1.
</event>
<event>
 7    1  0.2438448E-008  0.4614232E+02  0.7816164E-02  0.1320468E+00
        -11   -1    0    0    0    0  0.00000000000E+00  0.00000000000E+00  0.45593999997E+02  0.45594000000E+02  0.51100000000E-03 0. -1.
         11   -1    0    0    0    0 -0.00000000000E+00 -0.00000000000E+00 -0.45593999997E+02  0.45594000000E+02  0.51100000000E-03 0.  1.
    9900012    2    1    2    0    0 -0.17508440181E+02 -0.39513602359E+02 -0.12698158688E+02  0.46142317820E+02  0.10000000540E+02 0.  0.
         12    1    1    2    0    0  0.17508440181E+02  0.39513602359E+02  0.12698158688E+02  0.45045682180E+02  0.00000000000E+00 0. -1.
         11    1    3    3    0    0 -0.10755953922E+01 -0.29019050823E+00 -0.10701979725E+01  0.15448106486E+01  0.51100000000E-03 0. -1.
        -11    1    3    3    0    0 -0.35946771071E+01 -0.95122425564E+01 -0.58130919228E+01  0.11713090964E+02  0.51100000000E-03 0.  1.
        -12    1    3    3    0    0 -0.12838167682E+02 -0.29711169294E+02 -0.58148687925E+01  0.32884416208E+02  0.00000000000E+00 0.  1.
</event>
<event>
 7    1  0.2438448E-008  0.4614232E+02  0.7816164E-02  0.1320468E+00
        -11   -1    0    0    0    0  0.00000000000E+00  0.00000000000E+00  0.45593999997E+02  0.45594000000E+02  0.51100000000E-03 0.  1.
         11   -1    0    0    0    0 -0.00000000000E+00 -0.00000000000E+00 -0.45593999997E+02  0.45594000000E+02  0.51100000000E-03 0. -1.
    9900012    2    1    2    0    0 -0.29314859872E+02  0.14901621927E+02  0.30784641970E+02  0.46142317336E+02  0.99999961263E+01 0.  0.
         12    1    1    2    0    0  0.29314859872E+02 -0.14901621927E+02 -0.30784641970E+02  0.45045682664E+02  0.00000000000E+00 0. -1.
         11    1    3    3    0    0 -0.41929265099E+01 -0.10198022411E+01  0.28907571851E+01  0.51939490460E+01  0.51100000000E-03 0. -1.
        -11    1    3    3    0    0 -0.26549806262E+01  0.21462374514E+01  0.49091958965E+01  0.59795871040E+01  0.51100000000E-03 0.  1.
        -12    1    3    3    0    0 -0.22466952736E+02  0.13775186717E+02  0.22984688889E+02  0.34968781186E+02  0.00000000000E+00 0.  1.
</event>
<event>
 7    1  0.2438448E-008  0.4614232E+02  0.7816164E-02  0.1320468E+00
        -11   -1    0    0    0    0  0.00000000000E+00  0.00000000000E+00  0.45593999997E+02  0.45594000000E+02  0.51100000000E-03 0.  1.
         11   -1    0    0    0    0 -0.00000000000E+00 -0.00000000000E+00 -0.45593999997E+02  0.45594000000E+02  0.51100000000E-03 0. -1.
    9900012    2    1    2    0    0  0.38000488679E+02 -0.99218001196E+01  0.22059786723E+02  0.46142318213E+02  0.10000004116E+02 0.  0.
         12    1    1    2    0    0 -0.38000488679E+02  0.99218001196E+01 -0.22059786723E+02  0.45045681787E+02  0.00000000000E+00 0. -1.
         11    1    3    3    0    0  0.19914698500E+01 -0.17849917561E+01  0.23082321925E+01  0.35327162139E+01  0.51100000000E-03 0. -1.
        -11    1    3    3    0    0  0.32966678427E+02 -0.76572380404E+01  0.15168919159E+02  0.37088155651E+02  0.51100000000E-03 0.  1.
        -12    1    3    3    0    0  0.30423404021E+01 -0.47957032320E+00  0.45826353720E+01  0.55214463476E+01  0.00000000000E+00 0.  1.
</event>
<event>
 7    1  0.2438448E-008  0.4614232E+02  0.7816164E-02  0.1320468E+00
        -11   -1    0    0    0    0  0.00000000000E+00  0.00000000000E+00  0.45593999997E+02  0.45594000000E+02  0.51100000000E-03 0.  1.
         11   -1    0    0    0    0 -0.00000000000E+00 -0.00000000000E+00 -0.45593999997E+02  0.45594000000E+02  0.51100000000E-03 0. -1.
    9900012    2    1    2    0    0  0.25078311794E+02 -0.49027960305E+01  0.37096554325E+02  0.46142317919E+02  0.10000001442E+02 0.  0.
         12    1    1    2    0    0 -0.25078311794E+02  0.49027960305E+01 -0.37096554325E+02  0.45045682081E+02  0.00000000000E+00 0. -1.
         11    1    3    3    0    0 -0.62858343351E+00 -0.10823441844E+01  0.26854222084E+01  0.29627822676E+01  0.51100000000E-03 0. -1.
        -11    1    3    3    0    0  0.39627454953E+01 -0.13566335222E+01  0.60121837612E+01  0.73273569732E+01  0.51100000000E-03 0.  1.
         12    1    3    3    0    0  0.21744149732E+02 -0.24638183238E+01  0.28398948356E+02  0.35852178678E+02  0.00000000000E+00 0. -1.
</event>
<event>
 7    1  0.2438448E-008  0.4614232E+02  0.7816164E-02  0.1320468E+00
        -11   -1    0    0    0    0  0.00000000000E+00  0.00000000000E+00  0.45593999997E+02  0.45594000000E+02  0.51100000000E-03 0.  1.
         11   -1    0    0    0    0 -0.00000000000E+00 -0.00000000000E+00 -0.45593999997E+02  0.45594000000E+02  0.51100000000E-03 0. -1.
    9900012    2    1    2    0    0  0.11627964378E+02  0.42740192571E+02  0.81963279740E+01  0.46142318644E+02  0.10000008051E+02 0.  0.
         12    1    1    2    0    0 -0.11627964378E+02 -0.42740192571E+02 -0.81963279740E+01  0.45045681356E+02  0.00000000000E+00 0. -1.
         11    1    3    3    0    0  0.23081018444E+01  0.41148965103E+01  0.26664988794E+00  0.47255486283E+01  0.51100000000E-03 0. -1.
        -11    1    3    3    0    0 -0.53733965115E+00  0.95238427605E+01 -0.51183922029E+00  0.95527113678E+01  0.51100000000E-03 0.  1.
         12    1    3    3    0    0  0.98572021847E+01  0.29101453300E+02  0.84415173064E+01  0.31864058648E+02  0.00000000000E+00 0. -1.
</event>
<event>
 7    1  0.2438448E-008  0.4614232E+02  0.7816164E-02  0.1320468E+00
        -11   -1    0    0    0    0  0.00000000000E+00  0.00000000000E+00  0.45593999997E+02  0.45594000000E+02  0.51100000000E-03 0.  1.
         11   -1    0    0    0    0 -0.00000000000E+00 -0.00000000000E+00 -0.45593999997E+02  0.45594000000E+02  0.51100000000E-03 0. -1.
    9900012    2    1    2    0    0 -0.43605602072E+02 -0.96595519413E+01  0.58615412619E+01  0.46142321608E+02  0.10000035083E+02 0.  0.
         12    1    1    2    0    0  0.43605602072E+02  0.96595519413E+01 -0.58615412619E+01  0.45045678392E+02  0.00000000000E+00 0. -1.
         11    1    3    3    0    0 -0.71951378702E+01 -0.25107686855E+01  0.14868725021E+00  0.76220782286E+01  0.51100000000E-03 0. -1.
        -11    1    3    3    0    0 -0.28121866187E+02 -0.30044613433E+01  0.70757863559E+01  0.29153608672E+02  0.51100000000E-03 0.  1.
        -12    1    3    3    0    0 -0.82885980149E+01 -0.41443219125E+01 -0.13629323442E+01  0.93666347074E+01  0.00000000000E+00 0.  1.
</event>
<event>
 7    1  0.2438448E-008  0.4614231E+02  0.7816164E-02  0.1320468E+00
        -11   -1    0    0    0    0  0.00000000000E+00  0.00000000000E+00  0.45593999997E+02  0.45594000000E+02  0.51100000000E-03 0.  1.
         11   -1    0    0    0    0 -0.00000000000E+00 -0.00000000000E+00 -0.45593999997E+02  0.45594000000E+02  0.51100000000E-03 0. -1.
    9900012    2    1    2    0    0  0.21278516098E+02 -0.20271812605E+02  0.34137840124E+02  0.46142314724E+02  0.99999723037E+01 0.  0.
         12    1    1    2    0    0 -0.21278516098E+02  0.20271812605E+02 -0.34137840124E+02  0.45045685276E+02  0.00000000000E+00 0. -1.
         11    1    3    3    0    0  0.45544206453E+01 -0.85835461038E+01  0.94286543471E+01  0.13539554431E+02  0.51100000000E-03 0. -1.
        -11    1    3    3    0    0  0.15307227029E+01 -0.25669437043E+01  0.13425926795E+01  0.32764107401E+01  0.51100000000E-03 0.  1.
        -12    1    3    3    0    0  0.15193372750E+02 -0.91213227969E+01  0.23366593098E+02  0.29326349553E+02  0.00000000000E+00 0.  1.
</event>
<event>
 7    1  0.2438448E-008  0.4614232E+02  0.7816164E-02  0.1320468E+00
        -11   -1    0    0    0    0  0.00000000000E+00  0.00000000000E+00  0.45593999997E+02  0.45594000000E+02  0.51100000000E-03 0. -1.
         11   -1    0    0    0    0 -0.00000000000E+00 -0.00000000000E+00 -0.45593999997E+02  0.45594000000E+02  0.51100000000E-03 0.  1.
    9900012    2    1    2    0    0 -0.16391570880E+02  0.41327870509E+02 -0.72413358429E+01  0.46142318503E+02  0.10000006767E+02 0.  0.
         12    1    1    2    0    0  0.16391570880E+02 -0.41327870509E+02  0.72413358429E+01  0.45045681497E+02  0.00000000000E+00 0. -1.
         11    1    3    3    0    0 -0.49709316057E+01  0.83800731561E+01 -0.33221105156E+01  0.10294280240E+02  0.51100000000E-03 0. -1.
        -11    1    3    3    0    0 -0.85809434713E+01  0.29104385104E+02 -0.54533401568E+01  0.30829154096E+02  0.51100000000E-03 0.  1.
        -12    1    3    3    0    0 -0.28396958034E+01  0.38434122484E+01  0.15341148295E+01  0.50188841665E+01  0.00000000000E+00 0.  1.
</event>
<event>
 7    1  0.2438448E-008  0.4614232E+02  0.7816164E-02  0.1320468E+00
        -11   -1    0    0    0    0  0.00000000000E+00  0.00000000000E+00  0.45593999997E+02  0.45594000000E+02  0.51100000000E-03 0.  1.
         11   -1    0    0    0    0 -0.00000000000E+00 -0.00000000000E+00 -0.45593999997E+02  0.45594000000E+02  0.51100000000E-03 0. -1.
    9900012    2    1    2    0    0 -0.19998876736E+02 -0.83154479914E+01  0.39496983913E+02  0.46142317807E+02  0.10000000417E+02 0.  0.
         12    1    1    2    0    0  0.19998876736E+02  0.83154479914E+01 -0.39496983913E+02  0.45045682193E+02  0.00000000000E+00 0. -1.
         11    1    3    3    0    0 -0.37658868926E+00  0.69156261761E+00  0.55075929633E+01  0.55636012083E+01  0.51100000000E-03 0. -1.
        -11    1    3    3    0    0 -0.53096919106E+01 -0.71640113538E+00  0.11242330637E+02  0.12453756750E+02  0.51100000000E-03 0.  1.
        -12    1    3    3    0    0 -0.14312596137E+02 -0.82906094736E+01  0.22747060313E+02  0.28124959848E+02  0.00000000000E+00 0.  1.
</event>
<event>
 7    1  0.2438448E-008  0.4614232E+02  0.7816164E-02  0.1320468E+00
        -11   -1    0    0    0    0  0.00000000000E+00  0.00000000000E+00  0.45593999997E+02  0.45594000000E+02  0.51100000000E-03 0.  1.
         11   -1    0    0    0    0 -0.00000000000E+00 -0.00000000000E+00 -0.45593999997E+02  0.45594000000E+02  0.51100000000E-03 0. -1.
    9900012    2    1    2    0    0 -0.26467277937E+02  0.18727750537E+02  0.31270882140E+02  0.46142317506E+02  0.99999976718E+01 0.  0.
         12    1    1    2    0    0  0.26467277937E+02 -0.18727750537E+02 -0.31270882140E+02  0.45045682494E+02  0.00000000000E+00 0. -1.
         11    1    3    3    0    0 -0.16339564122E+02  0.13136852926E+02  0.18324310345E+02  0.27844902772E+02  0.51100000000E-03 0. -1.
        -11    1    3    3    0    0 -0.88187169265E+01  0.54336212944E+01  0.77511592143E+01  0.12937328860E+02  0.51100000000E-03 0.  1.
         12    1    3    3    0    0 -0.13089968878E+01  0.15727631670E+00  0.51954125804E+01  0.53600858736E+01  0.00000000000E+00 0. -1.
</event>
<event>
 7    1  0.2438448E-008  0.4614232E+02  0.7816164E-02  0.1320468E+00
        -11   -1    0    0    0    0  0.00000000000E+00  0.00000000000E+00  0.45593999997E+02  0.45594000000E+02  0.51100000000E-03 0.  1.
         11   -1    0    0    0    0 -0.00000000000E+00 -0.00000000000E+00 -0.45593999997E+02  0.45594000000E+02  0.51100000000E-03 0. -1.
    9900012    2    1    2    0    0  0.51633835861E+01  0.77207508540E+01  0.44077692591E+02  0.46142317543E+02  0.99999980142E+01 0.  0.
         12    1    1    2    0    0 -0.51633835861E+01 -0.77207508540E+01 -0.44077692591E+02  0.45045682457E+02  0.00000000000E+00 0. -1.
         11    1    3    3    0    0 -0.22263129656E+00  0.23782681612E+01  0.62798318848E+01  0.67187806113E+01  0.51100000000E-03 0.  1.
        -11    1    3    3    0    0  0.43210175182E+01  0.42252056277E+01  0.37322243761E+02  0.37808377836E+02  0.51100000000E-03 0. -1.
         12    1    3    3    0    0  0.10649973645E+01  0.11172770650E+01  0.47561694586E+00  0.16151590961E+01  0.00000000000E+00 0. -1.
</event>
<event>
 7    1  0.2438448E-008  0.4614232E+02  0.7816164E-02  0.1320468E+00
        -11   -1    0    0    0    0  0.00000000000E+00  0.00000000000E+00  0.45593999997E+02  0.45594000000E+02  0.51100000000E-03 0.  1.
         11   -1    0    0    0    0 -0.00000000000E+00 -0.00000000000E+00 -0.45593999997E+02  0.45594000000E+02  0.51100000000E-03 0. -1.
    9900012    2    1    2    0    0  0.29379915444E+02  0.12970814216E+02  0.31586264012E+02  0.46142317331E+02  0.99999960747E+01 0.  0.
         12    1    1    2    0    0 -0.29379915444E+02 -0.12970814216E+02 -0.31586264012E+02  0.45045682669E+02  0.00000000000E+00 0. -1.
         11    1    3    3    0    0  0.32929243465E+01  0.45683622237E+00  0.18028349891E+01  0.37818334634E+01  0.51100000000E-03 0. -1.
        -11    1    3    3    0    0  0.46325951263E+01  0.62351850806E+01  0.77642983054E+01  0.10982841118E+02  0.51100000000E-03 0.  1.
        -12    1    3    3    0    0  0.21454395971E+02  0.62787929128E+01  0.22019130718E+02  0.31377642749E+02  0.00000000000E+00 0.  1.
</event>
<event>
 7    1  0.2438448E-008  0.4614233E+02  0.7816164E-02  0.1320468E+00
        -11   -1    0    0    0    0  0.00000000000E+00  0.00000000000E+00  0.45593999997E+02  0.45594000000E+02  0.51100000000E-03 0.  1.
         11   -1    0    0    0    0 -0.00000000000E+00 -0.00000000000E+00 -0.45593999997E+02  0.45594000000E+02  0.51100000000E-03 0. -1.
    9900012    2    1    2    0    0 -0.46910699675E+01 -0.96365696815E+01  0.43752063757E+02  0.46142326560E+02  0.10000080238E+02 0.  0.
         12    1    1    2    0    0  0.46910699675E+01  0.96365696815E+01 -0.43752063757E+02  0.45045673440E+02  0.00000000000E+00 0. -1.
         11    1    3    3    0    0 -0.37626761807E+00  0.10708285500E+01  0.13510970724E+02  0.13558561180E+02  0.51100000000E-03 0. -1.
        -11    1    3    3    0    0 -0.13450579901E+00 -0.49389775181E+01  0.14096826952E+02  0.14937607610E+02  0.51100000000E-03 0.  1.
         12    1    3    3    0    0 -0.41802965504E+01 -0.57684207133E+01  0.16144266081E+02  0.17646157771E+02  0.00000000000E+00 0. -1.
</event>
<event>
 7    1  0.2438448E-008  0.4614232E+02  0.7816164E-02  0.1320468E+00
        -11   -1    0    0    0    0  0.00000000000E+00  0.00000000000E+00  0.45593999997E+02  0.45594000000E+02  0.51100000000E-03 0.  1.
         11   -1    0    0    0    0 -0.00000000000E+00 -0.00000000000E+00 -0.45593999997E+02  0.45594000000E+02  0.51100000000E-03 0. -1.
    9900012    2    1    2    0    0 -0.18910330478E+02  0.77523394802E+01  0.40142422413E+02  0.46142318260E+02  0.10000004551E+02 0.  0.
         12    1    1    2    0    0  0.18910330478E+02 -0.77523394802E+01 -0.40142422413E+02  0.45045681740E+02  0.00000000000E+00 0. -1.
         11    1    3    3    0    0 -0.39217432103E+01 -0.15245911207E+01  0.63074515973E+01  0.75821101157E+01  0.51100000000E-03 0. -1.
        -11    1    3    3    0    0 -0.77088414909E+01  0.54982980170E+01  0.12344642844E+02  0.15557883063E+02  0.51100000000E-03 0.  1.
         12    1    3    3    0    0 -0.72797457768E+01  0.37786325839E+01  0.21490327972E+02  0.23002325081E+02  0.00000000000E+00 0. -1.
</event>
<event>
 7    1  0.2438448E-008  0.4614232E+02  0.7816164E-02  0.1320468E+00
        -11   -1    0    0    0    0  0.00000000000E+00  0.00000000000E+00  0.45593999997E+02  0.45594000000E+02  0.51100000000E-03 0.  1.
         11   -1    0    0    0    0 -0.00000000000E+00 -0.00000000000E+00 -0.45593999997E+02  0.45594000000E+02  0.51100000000E-03 0. -1.
    9900012    2    1    2    0    0  0.29372970530E+02  0.33775471416E+02 -0.50556480891E+01  0.46142318245E+02  0.10000004416E+02 0.  0.
         12    1    1    2    0    0 -0.29372970530E+02 -0.33775471416E+02  0.50556480891E+01  0.45045681755E+02  0.00000000000E+00 0. -1.
         11    1    3    3    0    0  0.76958204400E+01  0.78615410336E+01 -0.41468886405E+01  0.11756962419E+02  0.51100000000E-03 0. -1.
        -11    1    3    3    0    0  0.71606666487E+01  0.12670276163E+02 -0.20743325421E+01  0.14700812925E+02  0.51100000000E-03 0.  1.
         12    1    3    3    0    0  0.14516483442E+02  0.13243654219E+02  0.11655730935E+01  0.19684542901E+02  0.00000000000E+00 0. -1.
</event>
<event>
 7    1  0.2438448E-008  0.4614231E+02  0.7816164E-02  0.1320468E+00
        -11   -1    0    0    0    0  0.00000000000E+00  0.00000000000E+00  0.45593999997E+02  0.45594000000E+02  0.51100000000E-03 0.  1.
         11   -1    0    0    0    0 -0.00000000000E+00 -0.00000000000E+00 -0.45593999997E+02  0.45594000000E+02  0.51100000000E-03 0. -1.
    9900012    2    1    2    0    0  0.10199747633E+02 -0.37957888772E+01  0.43711227782E+02  0.46142308761E+02  0.99999179269E+01 0.  0.
         12    1    1    2    0    0 -0.10199747633E+02  0.37957888772E+01 -0.43711227782E+02  0.45045691239E+02  0.00000000000E+00 0. -1.
         11    1    3    3    0    0 -0.61329575242E+00 -0.79138484239E+00  0.79449378269E+01  0.80077749084E+01  0.51100000000E-03 0. -1.
        -11    1    3    3    0    0  0.16196697303E+01 -0.13324542943E+01  0.14026945298E+01  0.25231560964E+01  0.51100000000E-03 0.  1.
        -12    1    3    3    0    0  0.91933736548E+01 -0.16719497406E+01  0.34363595426E+02  0.35611377756E+02  0.00000000000E+00 0.  1.
</event>
<event>
 7    1  0.2438448E-008  0.4614232E+02  0.7816164E-02  0.1320468E+00
        -11   -1    0    0    0    0  0.00000000000E+00  0.00000000000E+00  0.45593999997E+02  0.45594000000E+02  0.51100000000E-03 0. -1.
         11   -1    0    0    0    0 -0.00000000000E+00 -0.00000000000E+00 -0.45593999997E+02  0.45594000000E+02  0.51100000000E-03 0.  1.
    9900012    2    1    2    0    0 -0.12753928405E+01  0.77841506929E+01 -0.44349676034E+02  0.46142318817E+02  0.10000009627E+02 0.  0.
         12    1    1    2    0    0  0.12753928405E+01 -0.77841506929E+01  0.44349676034E+02  0.45045681183E+02  0.00000000000E+00 0. -1.
         11    1    3    3    0    0  0.14561704280E+01 -0.12315603004E+01 -0.70476349462E+01  0.73011185229E+01  0.51100000000E-03 0. -1.
        -11    1    3    3    0    0 -0.27946657269E+01  0.53908942654E+01 -0.30835897533E+02  0.31428084168E+02  0.51100000000E-03 0.  1.
        -12    1    3    3    0    0  0.63102458409E-01  0.36248167280E+01 -0.64661435547E+01  0.74131161262E+01  0.00000000000E+00 0.  1.
</event>
<event>
 7    1  0.2438448E-008  0.4614232E+02  0.7816164E-02  0.1320468E+00
        -11   -1    0    0    0    0  0.00000000000E+00  0.00000000000E+00  0.45593999997E+02  0.45594000000E+02  0.51100000000E-03 0.  1.
         11   -1    0    0    0    0 -0.00000000000E+00 -0.00000000000E+00 -0.45593999997E+02  0.45594000000E+02  0.51100000000E-03 0. -1.
    9900012    2    1    2    0    0 -0.26694591668E+02 -0.10630757895E+02  0.34691484647E+02  0.46142319355E+02  0.10000014537E+02 0.  0.
         12    1    1    2    0    0  0.26694591668E+02  0.10630757895E+02 -0.34691484647E+02  0.45045680645E+02  0.00000000000E+00 0. -1.
         11    1    3    3    0    0 -0.84265738334E+01 -0.34370883163E+01  0.10138267651E+02  0.13623699714E+02  0.51100000000E-03 0. -1.
        -11    1    3    3    0    0 -0.60197646998E+01 -0.20393840856E+01  0.26216491186E+01  0.68752962737E+01  0.51100000000E-03 0.  1.
        -12    1    3    3    0    0 -0.12248253134E+02 -0.51542854931E+01  0.21931567877E+02  0.25643323368E+02  0.00000000000E+00 0.  1.
</event>
<event>
 7    1  0.2438448E-008  0.4614232E+02  0.7816164E-02  0.1320468E+00
        -11   -1    0    0    0    0  0.00000000000E+00  0.00000000000E+00  0.45593999997E+02  0.45594000000E+02  0.51100000000E-03 0.  1.
         11   -1    0    0    0    0 -0.00000000000E+00 -0.00000000000E+00 -0.45593999997E+02  0.45594000000E+02  0.51100000000E-03 0. -1.
    9900012    2    1    2    0    0 -0.38244799421E+02  0.11780846721E+02  0.20679952420E+02  0.46142318028E+02  0.10000002434E+02 0.  0.
         12    1    1    2    0    0  0.38244799421E+02 -0.11780846721E+02 -0.20679952420E+02  0.45045681972E+02  0.00000000000E+00 0. -1.
         11    1    3    3    0    0 -0.22678952865E+02  0.74149471056E+01  0.11920453867E+02  0.26672337061E+02  0.51100000000E-03 0. -1.
        -11    1    3    3    0    0 -0.96410918657E+01  0.17960631612E+01  0.17911116385E+01  0.99691813307E+01  0.51100000000E-03 0.  1.
         12    1    3    3    0    0 -0.59247546905E+01  0.25698364546E+01  0.69683869143E+01  0.95007996366E+01  0.00000000000E+00 0. -1.
</event>
<event>
 7    1  0.2438448E-008  0.4614233E+02  0.7816164E-02  0.1320468E+00
        -11   -1    0    0    0    0  0.00000000000E+00  0.00000000000E+00  0.45593999997E+02  0.45594000000E+02  0.51100000000E-03 0. -1.
         11   -1    0    0    0    0 -0.00000000000E+00 -0.00000000000E+00 -0.45593999997E+02  0.45594000000E+02  0.51100000000E-03 0.  1.
    9900012    2    1    2    0    0 -0.24032849965E+02  0.15396811705E+02  0.34849289341E+02  0.46142327003E+02  0.10000084279E+02 0.  0.
         12    1    1    2    0    0  0.24032849965E+02 -0.15396811705E+02 -0.34849289341E+02  0.45045672997E+02  0.00000000000E+00 0. -1.
         11    1    3    3    0    0 -0.11050514799E+02  0.51745535047E+01  0.21498436485E+02  0.24719883755E+02  0.51100000000E-03 0. -1.
        -11    1    3    3    0    0 -0.13083169705E+01  0.12741524083E+01  0.27108954179E+01  0.32686559750E+01  0.51100000000E-03 0.  1.
        -12    1    3    3    0    0 -0.11674018195E+02  0.89481057917E+01  0.10639957439E+02  0.18153787274E+02  0.00000000000E+00 0.  1.
</event>
<event>
 7    1  0.2438448E-008  0.4614232E+02  0.7816164E-02  0.1320468E+00
        -11   -1    0    0    0    0  0.00000000000E+00  0.00000000000E+00  0.45593999997E+02  0.45594000000E+02  0.51100000000E-03 0.  1.
         11   -1    0    0    0    0 -0.00000000000E+00 -0.00000000000E+00 -0.45593999997E+02  0.45594000000E+02  0.51100000000E-03 0. -1.
    9900012    2    1    2    0    0 -0.12406965968E+02 -0.60772865650E+01  0.42874785927E+02  0.46142317801E+02  0.10000000362E+02 0.  0.
         12    1    1    2    0    0  0.12406965968E+02  0.60772865650E+01 -0.42874785927E+02  0.45045682199E+02  0.00000000000E+00 0. -1.
         11    1    3    3    0    0 -0.59078232375E+01 -0.54278886252E+01  0.13049461692E+02  0.15318381149E+02  0.51100000000E-03 0.  1.
        -11    1    3    3    0    0 -0.17094515700E+01  0.16957328477E+01  0.10810680244E+02  0.11075583153E+02  0.51100000000E-03 0. -1.
        -12    1    3    3    0    0 -0.47896911603E+01 -0.23451307875E+01  0.19014643991E+02  0.19748353499E+02  0.00000000000E+00 0.  1.
</event>
<event>
 7    1  0.2438448E-008  0.4614232E+02  0.7816164E-02  0.1320468E+00
        -11   -1    0    0    0    0  0.00000000000E+00  0.00000000000E+00  0.45593999997E+02  0.45594000000E+02  0.51100000000E-03 0.  1.
         11   -1    0    0    0    0 -0.00000000000E+00 -0.00000000000E+00 -0.45593999997E+02  0.45594000000E+02  0.51100000000E-03 0. -1.
    9900012    2    1    2    0    0 -0.35470170711E+02 -0.19461027095E+02  0.19805273645E+02  0.46142318187E+02  0.10000003885E+02 0.  0.
         12    1    1    2    0    0  0.35470170711E+02  0.19461027095E+02 -0.19805273645E+02  0.45045681813E+02  0.00000000000E+00 0. -1.
         11    1    3    3    0    0 -0.18616563300E+01 -0.34324785354E+01  0.37030143468E+01  0.53814485691E+01  0.51100000000E-03 0. -1.
        -11    1    3    3    0    0 -0.66656050086E+01 -0.46970679770E+01  0.25553690957E+01  0.85453290860E+01  0.51100000000E-03 0.  1.
        -12    1    3    3    0    0 -0.26942909372E+02 -0.11331480582E+02  0.13546890203E+02  0.32215540532E+02  0.00000000000E+00 0.  1.
</event>
<event>
 7    1  0.2438448E-008  0.4614232E+02  0.7816164E-02  0.1320468E+00
        -11   -1    0    0    0    0  0.00000000000E+00  0.00000000000E+00  0.45593999997E+02  0.45594000000E+02  0.51100000000E-03 0. -1.
         11   -1    0    0    0    0 -0.00000000000E+00 -0.00000000000E+00 -0.45593999997E+02  0.45594000000E+02  0.51100000000E-03 0.  1.
    9900012    2    1    2    0    0  0.40584772025E+02 -0.31554395213E+01 -0.19288152564E+02  0.46142319317E+02  0.10000014186E+02 0.  0.
         12    1    1    2    0    0 -0.40584772025E+02  0.31554395213E+01  0.19288152564E+02  0.45045680683E+02  0.00000000000E+00 0. -1.
         11    1    3    3    0    0  0.13605373705E+02  0.34321226605E+00 -0.85727883458E+01  0.16084672474E+02  0.51100000000E-03 0. -1.
        -11    1    3    3    0    0  0.25086892514E+02 -0.25850392898E+01 -0.11622168520E+02  0.27768856756E+02  0.51100000000E-03 0.  1.
         12    1    3    3    0    0  0.18925058054E+01 -0.91361249761E+00  0.90680430204E+00  0.22887900868E+01  0.00000000000E+00 0. -1.
</event>
<event>
 7    1  0.2438448E-008  0.4614232E+02  0.7816164E-02  0.1320468E+00
        -11   -1    0    0    0    0  0.00000000000E+00  0.00000000000E+00  0.45593999997E+02  0.45594000000E+02  0.51100000000E-03 0. -1.
         11   -1    0    0    0    0 -0.00000000000E+00 -0.00000000000E+00 -0.45593999997E+02  0.45594000000E+02  0.51100000000E-03 0.  1.
    9900012    2    1    2    0    0 -0.27525165009E+02  0.19094223667E+02 -0.30114605373E+02  0.46142317154E+02  0.99999944683E+01 0.  0.
         12    1    1    2    0    0  0.27525165009E+02 -0.19094223667E+02  0.30114605373E+02  0.45045682846E+02  0.00000000000E+00 0. -1.
         11    1    3    3    0    0 -0.69831315869E+01  0.48839865124E+01 -0.31457807822E+01  0.90836880177E+01  0.51100000000E-03 0. -1.
        -11    1    3    3    0    0 -0.82788635395E+01  0.61205881062E+01 -0.14535751099E+02  0.17812614646E+02  0.51100000000E-03 0.  1.
         12    1    3    3    0    0 -0.12263169882E+02  0.80896490488E+01 -0.12433073493E+02  0.19246014490E+02  0.00000000000E+00 0. -1.
</event>
<event>
 7    1  0.2438448E-008  0.4614232E+02  0.7816164E-02  0.1320468E+00
        -11   -1    0    0    0    0  0.00000000000E+00  0.00000000000E+00  0.45593999997E+02  0.45594000000E+02  0.51100000000E-03 0.  1.
         11   -1    0    0    0    0 -0.00000000000E+00 -0.00000000000E+00 -0.45593999997E+02  0.45594000000E+02  0.51100000000E-03 0. -1.
    9900012    2    1    2    0    0  0.33502712101E+02 -0.29519779002E+02  0.59383860588E+01  0.46142317638E+02  0.99999988784E+01 0.  0.
         12    1    1    2    0    0 -0.33502712101E+02  0.29519779002E+02 -0.59383860588E+01  0.45045682362E+02  0.00000000000E+00 0. -1.
         11    1    3    3    0    0  0.34696030975E+01 -0.61977754590E+01 -0.56842271822E+00  0.71255646051E+01  0.51100000000E-03 0. -1.
        -11    1    3    3    0    0  0.44942837225E+01 -0.50841561337E+01  0.30661468277E+01  0.74463740438E+01  0.51100000000E-03 0.  1.
        -12    1    3    3    0    0  0.25538825281E+02 -0.18237847409E+02  0.34406619494E+01  0.31570378989E+02  0.00000000000E+00 0.  1.
</event>
<event>
 7    1  0.2438448E-008  0.4614232E+02  0.7816164E-02  0.1320468E+00
        -11   -1    0    0    0    0  0.00000000000E+00  0.00000000000E+00  0.45593999997E+02  0.45594000000E+02  0.51100000000E-03 0.  1.
         11   -1    0    0    0    0 -0.00000000000E+00 -0.00000000000E+00 -0.45593999997E+02  0.45594000000E+02  0.51100000000E-03 0. -1.
    9900012    2    1    2    0    0  0.90218101882E+01 -0.16979995850E+02  0.40735736113E+02  0.46142317468E+02  0.99999973264E+01 0.  0.
         12    1    1    2    0    0 -0.90218101882E+01  0.16979995850E+02 -0.40735736113E+02  0.45045682532E+02  0.00000000000E+00 0. -1.
         11    1    3    3    0    0  0.73302726209E+01 -0.10797751647E+02  0.22822117029E+02  0.26290176175E+02  0.51100000000E-03 0. -1.
        -11    1    3    3    0    0  0.36637297589E+01 -0.36359773926E+01  0.12886214522E+02  0.13881562315E+02  0.51100000000E-03 0.  1.
         12    1    3    3    0    0 -0.19721921915E+01 -0.25462668096E+01  0.50274045615E+01  0.59705789779E+01  0.00000000000E+00 0. -1.
</event>
<event>
 7    1  0.2438448E-008  0.4614232E+02  0.7816164E-02  0.1320468E+00
        -11   -1    0    0    0    0  0.00000000000E+00  0.00000000000E+00  0.45593999997E+02  0.45594000000E+02  0.51100000000E-03 0.  1.
         11   -1    0    0    0    0 -0.00000000000E+00 -0.00000000000E+00 -0.45593999997E+02  0.45594000000E+02  0.51100000000E-03 0. -1.
    9900012    2    1    2    0    0  0.11412081221E+02  0.33313724050E+02  0.28090459501E+02  0.46142315158E+02  0.99999762668E+01 0.  0.
         12    1    1    2    0    0 -0.11412081221E+02 -0.33313724050E+02 -0.28090459501E+02  0.45045684842E+02  0.00000000000E+00 0. -1.
         11    1    3    3    0    0  0.21721015334E+01  0.27366086790E+01  0.16541545622E+01  0.38656538529E+01  0.51100000000E-03 0. -1.
        -11    1    3    3    0    0  0.69370345219E+01  0.12049476572E+02  0.80151930777E+01  0.16048540555E+02  0.51100000000E-03 0.  1.
        -12    1    3    3    0    0  0.23029451659E+01  0.18527638798E+02  0.18421111861E+02  0.26228120750E+02  0.00000000000E+00 0.  1.
</event>
<event>
 7    1  0.2438448E-008  0.4614232E+02  0.7816164E-02  0.1320468E+00
        -11   -1    0    0    0    0  0.00000000000E+00  0.00000000000E+00  0.45593999997E+02  0.45594000000E+02  0.51100000000E-03 0.  1.
         11   -1    0    0    0    0 -0.00000000000E+00 -0.00000000000E+00 -0.45593999997E+02  0.45594000000E+02  0.51100000000E-03 0. -1.
    9900012    2    1    2    0    0 -0.79017962991E+01  0.91859433798E+01  0.43385402549E+02  0.46142322129E+02  0.10000039827E+02 0.  0.
         12    1    1    2    0    0  0.79017962991E+01 -0.91859433798E+01 -0.43385402549E+02  0.45045677871E+02  0.00000000000E+00 0. -1.
         11    1    3    3    0    0 -0.21775684006E+01  0.67500914620E+00  0.79971652500E+01  0.83157737934E+01  0.51100000000E-03 0. -1.
        -11    1    3    3    0    0 -0.74171245374E+01  0.89331072919E+01  0.31119157490E+02  0.33214697130E+02  0.51100000000E-03 0.  1.
         12    1    3    3    0    0  0.16928966390E+01 -0.42217305825E+00  0.42690798091E+01  0.46118512050E+01  0.00000000000E+00 0. -1.
</event>
<event>
 7    1  0.2438448E-008  0.4614232E+02  0.7816164E-02  0.1320468E+00
        -11   -1    0    0    0    0  0.00000000000E+00  0.00000000000E+00  0.45593999997E+02  0.45594000000E+02  0.51100000000E-03 0. -1.
         11   -1    0    0    0    0 -0.00000000000E+00 -0.00000000000E+00 -0.45593999997E+02  0.45594000000E+02  0.51100000000E-03 0.  1.
    9900012    2    1    2    0    0 -0.11632586283E+02 -0.95822817758E+01 -0.42449689940E+02  0.46142319145E+02  0.10000012620E+02 0.  0.
         12    1    1    2    0    0  0.11632586283E+02  0.95822817758E+01  0.42449689940E+02  0.45045680855E+02  0.00000000000E+00 0. -1.
         11    1    3    3    0    0 -0.13657252496E+01 -0.26377417961E+01 -0.17565084707E+01  0.34508273658E+01  0.51100000000E-03 0. -1.
        -11    1    3    3    0    0 -0.22364265274E+01 -0.31393601868E+01 -0.15675696252E+02  0.16142634210E+02  0.51100000000E-03 0.  1.
         12    1    3    3    0    0 -0.80304345057E+01 -0.38051797929E+01 -0.25017485218E+02  0.26548857569E+02  0.00000000000E+00 0. -1.
</event>
<event>
 7    1  0.2438448E-008  0.4614232E+02  0.7816164E-02  0.1320468E+00
        -11   -1    0    0    0    0  0.00000000000E+00  0.00000000000E+00  0.45593999997E+02  0.45594000000E+02  0.51100000000E-03 0. -1.
         11   -1    0    0    0    0 -0.00000000000E+00 -0.00000000000E+00 -0.45593999997E+02  0.45594000000E+02  0.51100000000E-03 0.  1.
    9900012    2    1    2    0    0  0.19820524841E+02 -0.35357044726E+02 -0.19650437021E+02  0.46142317722E+02  0.99999996439E+01 0.  0.
         12    1    1    2    0    0 -0.19820524841E+02  0.35357044726E+02  0.19650437021E+02  0.45045682278E+02  0.00000000000E+00 0. -1.
         11    1    3    3    0    0  0.73858426307E+01 -0.17820544518E+02 -0.64609699654E+01  0.20343711840E+02  0.51100000000E-03 0. -1.
        -11    1    3    3    0    0  0.91086264713E+01 -0.13710354249E+02 -0.12528787803E+02  0.20686019769E+02  0.51100000000E-03 0.  1.
         12    1    3    3    0    0  0.33260557393E+01 -0.38261459595E+01 -0.66067925311E+00  0.51125861127E+01  0.00000000000E+00 0. -1.
</event>
<event>
 7    1  0.2438448E-008  0.4614232E+02  0.7816164E-02  0.1320468E+00
        -11   -1    0    0    0    0  0.00000000000E+00  0.00000000000E+00  0.45593999997E+02  0.45594000000E+02  0.51100000000E-03 0.  1.
         11   -1    0    0    0    0 -0.00000000000E+00 -0.00000000000E+00 -0.45593999997E+02  0.45594000000E+02  0.51100000000E-03 0. -1.
    9900012    2    1    2    0    0 -0.16435214796E+02 -0.53041928356E+01  0.41603640818E+02  0.46142315675E+02  0.99999809739E+01 0.  0.
         12    1    1    2    0    0  0.16435214796E+02  0.53041928356E+01 -0.41603640818E+02  0.45045684325E+02  0.00000000000E+00 0. -1.
         11    1    3    3    0    0 -0.37010702279E+01  0.59170732639E+00  0.55581926863E+01  0.67038455076E+01  0.51100000000E-03 0. -1.
        -11    1    3    3    0    0  0.50814822167E+00  0.91249141267E+00  0.15788527754E+01  0.18930482141E+01  0.51100000000E-03 0.  1.
        -12    1    3    3    0    0 -0.13242292789E+02 -0.68083915746E+01  0.34466595356E+02  0.37545421953E+02  0.00000000000E+00 0.  1.
</event>
<event>
 7    1  0.2438448E-008  0.4614232E+02  0.7816164E-02  0.1320468E+00
        -11   -1    0    0    0    0  0.00000000000E+00  0.00000000000E+00  0.45593999997E+02  0.45594000000E+02  0.51100000000E-03 0.  1.
         11   -1    0    0    0    0 -0.00000000000E+00 -0.00000000000E+00 -0.45593999997E+02  0.45594000000E+02  0.51100000000E-03 0. -1.
    9900012    2    1    2    0    0  0.15756756842E+02  0.11504212620E+02  0.40601616131E+02  0.46142317336E+02  0.99999961243E+01 0.  0.
         12    1    1    2    0    0 -0.15756756842E+02 -0.11504212620E+02 -0.40601616131E+02  0.45045682664E+02  0.00000000000E+00 0. -1.
         11    1    3    3    0    0  0.32894896112E+01  0.16577038639E+01  0.23289388161E+01  0.43580592324E+01  0.51100000000E-03 0. -1.
        -11    1    3    3    0    0  0.94922436964E+01  0.88124179384E+01  0.25154709183E+02  0.28293476185E+02  0.51100000000E-03 0.  1.
        -12    1    3    3    0    0  0.29750235348E+01  0.10340908175E+01  0.13117968132E+02  0.13490781918E+02  0.00000000000E+00 0.  1.
</event>
<event>
 7    1  0.2438448E-008  0.4614232E+02  0.7816164E-02  0.1320468E+00
        -11   -1    0    0    0    0  0.00000000000E+00  0.00000000000E+00  0.45593999997E+02  0.45594000000E+02  0.51100000000E-03 0.  1.
         11   -1    0    0    0    0 -0.00000000000E+00 -0.00000000000E+00 -0.45593999997E+02  0.45594000000E+02  0.51100000000E-03 0. -1.
    9900012    2    1    2    0    0 -0.35735314685E+02 -0.71417332210E+01  0.26478224948E+02  0.46142318016E+02  0.10000002320E+02 0.  0.
         12    1    1    2    0    0  0.35735314685E+02  0.71417332210E+01 -0.26478224948E+02  0.45045681984E+02  0.00000000000E+00 0. -1.
         11    1    3    3    0    0 -0.24299391802E+01  0.77337133813E-01 -0.68869751212E-01  0.24321448879E+01  0.51100000000E-03 0. -1.
        -11    1    3    3    0    0 -0.25832719307E+01 -0.98704852061E+00  0.22096254394E+00  0.27742356348E+01  0.51100000000E-03 0.  1.
        -12    1    3    3    0    0 -0.30722103574E+02 -0.62320218342E+01  0.26326132155E+02  0.40935937493E+02  0.00000000000E+00 0.  1.
</event>
<event>
 7    1  0.2438448E-008  0.4614232E+02  0.7816164E-02  0.1320468E+00
        -11   -1    0    0    0    0  0.00000000000E+00  0.00000000000E+00  0.45593999997E+02  0.45594000000E+02  0.51100000000E-03 0. -1.
         11   -1    0    0    0    0 -0.00000000000E+00 -0.00000000000E+00 -0.45593999997E+02  0.45594000000E+02  0.51100000000E-03 0.  1.
    9900012    2    1    2    0    0 -0.96373580144E+01 -0.43626101483E+02  0.57443986877E+01  0.46142317450E+02  0.99999971635E+01 0.  0.
         12    1    1    2    0    0  0.96373580144E+01  0.43626101483E+02 -0.57443986877E+01  0.45045682550E+02  0.00000000000E+00 0. -1.
         11    1    3    3    0    0 -0.16208450946E+01 -0.13813127452E+02  0.34278219222E+01  0.14324091323E+02  0.51100000000E-03 0. -1.
        -11    1    3    3    0    0 -0.22610417823E+01 -0.18057255549E+02  0.39668299924E+01  0.18625588000E+02  0.51100000000E-03 0.  1.
         12    1    3    3    0    0 -0.57554711375E+01 -0.11755718482E+02 -0.16502532269E+01  0.13192638127E+02  0.00000000000E+00 0. -1.
</event>
<event>
 7    1  0.2438448E-008  0.4614232E+02  0.7816164E-02  0.1320468E+00
        -11   -1    0    0    0    0  0.00000000000E+00  0.00000000000E+00  0.45593999997E+02  0.45594000000E+02  0.51100000000E-03 0.  1.
         11   -1    0    0    0    0 -0.00000000000E+00 -0.00000000000E+00 -0.45593999997E+02  0.45594000000E+02  0.51100000000E-03 0. -1.
    9900012    2    1    2    0    0 -0.99228814381E+01  0.43777540062E+02  0.37652051458E+01  0.46142319189E+02  0.10000013022E+02 0.  0.
         12    1    1    2    0    0  0.99228814381E+01 -0.43777540062E+02 -0.37652051458E+01  0.45045680811E+02  0.00000000000E+00 0. -1.
         11    1    3    3    0    0 -0.25068126558E+01  0.81035165323E+01  0.29693550762E+01  0.89871107542E+01  0.51100000000E-03 0. -1.
        -11    1    3    3    0    0 -0.64653217724E+01  0.26289131444E+02  0.36084424763E+01  0.27311896219E+02  0.51100000000E-03 0.  1.
        -12    1    3    3    0    0 -0.95074700993E+00  0.93848920855E+01 -0.28125924066E+01  0.98433122159E+01  0.00000000000E+00 0.  1.
</event>
<event>
 7    1  0.2438448E-008  0.4614232E+02  0.7816164E-02  0.1320468E+00
        -11   -1    0    0    0    0  0.00000000000E+00  0.00000000000E+00  0.45593999997E+02  0.45594000000E+02  0.51100000000E-03 0.  1.
         11   -1    0    0    0    0 -0.00000000000E+00 -0.00000000000E+00 -0.45593999997E+02  0.45594000000E+02  0.51100000000E-03 0. -1.
    9900012    2    1    2    0    0  0.39176540636E+02  0.17405300225E+02  0.13833571222E+02  0.46142317578E+02  0.99999983265E+01 0.  0.
         12    1    1    2    0    0 -0.39176540636E+02 -0.17405300225E+02 -0.13833571222E+02  0.45045682422E+02  0.00000000000E+00 0. -1.
         11    1    3    3    0    0  0.41602521173E+01  0.18364866343E+01 -0.41324192519E+00  0.45663059455E+01  0.51100000000E-03 0. -1.
        -11    1    3    3    0    0  0.22509964926E+02  0.13768496708E+02  0.10471981032E+02  0.28388948722E+02  0.51100000000E-03 0.  1.
         12    1    3    3    0    0  0.12506323593E+02  0.18003168830E+01  0.37748321153E+01  0.13187062910E+02  0.00000000000E+00 0. -1.
</event>
<event>
 7    1  0.2438448E-008  0.4614232E+02  0.7816164E-02  0.1320468E+00
        -11   -1    0    0    0    0  0.00000000000E+00  0.00000000000E+00  0.45593999997E+02  0.45594000000E+02  0.51100000000E-03 0. -1.
         11   -1    0    0    0    0 -0.00000000000E+00 -0.00000000000E+00 -0.45593999997E+02  0.45594000000E+02  0.51100000000E-03 0.  1.
    9900012    2    1    2    0    0  0.63838841287E+00  0.44932756385E+02 -0.31230350932E+01  0.46142317806E+02  0.10000000413E+02 0.  0.
         12    1    1    2    0    0 -0.63838841287E+00 -0.44932756385E+02  0.31230350932E+01  0.45045682194E+02  0.00000000000E+00 0. -1.
         11    1    3    3    0    0  0.10306360759E+01  0.10816582169E+02  0.24360911678E+01  0.11135313241E+02  0.51100000000E-03 0. -1.
        -11    1    3    3    0    0  0.13012154977E+01  0.28784961281E+02 -0.34132720242E+01  0.29015816099E+02  0.51100000000E-03 0.  1.
        -12    1    3    3    0    0 -0.16934631607E+01  0.53312129349E+01 -0.21458542368E+01  0.59911884664E+01  0.00000000000E+00 0.  1.
</event>
<event>
 7    1  0.2438448E-008  0.4614232E+02  0.7816164E-02  0.1320468E+00
        -11   -1    0    0    0    0  0.00000000000E+00  0.00000000000E+00  0.45593999997E+02  0.45594000000E+02  0.51100000000E-03 0.  1.
         11   -1    0    0    0    0 -0.00000000000E+00 -0.00000000000E+00 -0.45593999997E+02  0.45594000000E+02  0.51100000000E-03 0. -1.
    9900012    2    1    2    0    0  0.15661804661E+02 -0.30651143089E+02  0.29057336046E+02  0.46142317898E+02  0.10000001252E+02 0.  0.
         12    1    1    2    0    0 -0.15661804661E+02  0.30651143089E+02 -0.29057336046E+02  0.45045682102E+02  0.00000000000E+00 0. -1.
         11    1    3    3    0    0 -0.78278031984E+00 -0.17623268138E+00  0.53745092632E+00  0.96574155261E+00  0.51100000000E-03 0. -1.
        -11    1    3    3    0    0  0.31620698306E+01 -0.10988693386E+02  0.10017482560E+02  0.15201974380E+02  0.51100000000E-03 0.  1.
         12    1    3    3    0    0  0.13282515150E+02 -0.19486217022E+02  0.18502402560E+02  0.29974601966E+02  0.00000000000E+00 0. -1.
</event>
<event>
 7    1  0.2438448E-008  0.4614232E+02  0.7816164E-02  0.1320468E+00
        -11   -1    0    0    0    0  0.00000000000E+00  0.00000000000E+00  0.45593999997E+02  0.45594000000E+02  0.51100000000E-03 0.  1.
         11   -1    0    0    0    0 -0.00000000000E+00 -0.00000000000E+00 -0.45593999997E+02  0.45594000000E+02  0.51100000000E-03 0. -1.
    9900012    2    1    2    0    0 -0.38431740244E+02  0.16440623206E+02  0.16787517265E+02  0.46142317793E+02  0.10000000292E+02 0.  0.
         12    1    1    2    0    0  0.38431740244E+02 -0.16440623206E+02 -0.16787517265E+02  0.45045682207E+02  0.00000000000E+00 0. -1.
         11    1    3    3    0    0 -0.16953206553E+02  0.63397880031E+01  0.51410243756E+01  0.18815798050E+02  0.51100000000E-03 0.  1.
        -11    1    3    3    0    0 -0.19215494320E+02  0.69322664867E+01  0.11472668089E+02  0.23428906375E+02  0.51100000000E-03 0. -1.
         12    1    3    3    0    0 -0.22630393704E+01  0.31685687166E+01  0.17382480005E+00  0.38976133678E+01  0.00000000000E+00 0. -1.
</event>
<event>
 7    1  0.2438448E-008  0.4614232E+02  0.7816164E-02  0.1320468E+00
        -11   -1    0    0    0    0  0.00000000000E+00  0.00000000000E+00  0.45593999997E+02  0.45594000000E+02  0.51100000000E-03 0.  1.
         11   -1    0    0    0    0 -0.00000000000E+00 -0.00000000000E+00 -0.45593999997E+02  0.45594000000E+02  0.51100000000E-03 0. -1.
    9900012    2    1    2    0    0 -0.33999440865E+02 -0.10725510006E+02 -0.27533887550E+02  0.46142317547E+02  0.99999980514E+01 0.  0.
         12    1    1    2    0    0  0.33999440865E+02  0.10725510006E+02  0.27533887550E+02  0.45045682453E+02  0.00000000000E+00 0. -1.
         11    1    3    3    0    0 -0.10034431779E+02 -0.48189203662E+01 -0.74131060389E+01  0.13374077764E+02  0.51100000000E-03 0.  1.
        -11    1    3    3    0    0 -0.17838117231E+02 -0.17920498609E+01 -0.17158091022E+02  0.24815518467E+02  0.51100000000E-03 0. -1.
         12    1    3    3    0    0 -0.61268918547E+01 -0.41145397794E+01 -0.29626904892E+01  0.79527213160E+01  0.00000000000E+00 0. -1.
</event>
<event>
 7    1  0.2438448E-008  0.4614232E+02  0.7816164E-02  0.1320468E+00
        -11   -1    0    0    0    0  0.00000000000E+00  0.00000000000E+00  0.45593999997E+02  0.45594000000E+02  0.51100000000E-03 0. -1.
         11   -1    0    0    0    0 -0.00000000000E+00 -0.00000000000E+00 -0.45593999997E+02  0.45594000000E+02  0.51100000000E-03 0.  1.
    9900012    2    1    2    0    0  0.32655403208E+02  0.11106539354E+02 -0.28972103766E+02  0.46142319056E+02  0.10000011807E+02 0.  0.
         12    1    1    2    0    0 -0.32655403208E+02 -0.11106539354E+02  0.28972103766E+02  0.45045680944E+02  0.00000000000E+00 0. -1.
         11    1    3    3    0    0  0.30789350216E+01  0.21808568781E+01 -0.14814903595E+01  0.40534912775E+01  0.51100000000E-03 0. -1.
        -11    1    3    3    0    0  0.20653014820E+02  0.70083954607E+01 -0.23693990369E+02  0.32203568249E+02  0.51100000000E-03 0.  1.
        -12    1    3    3    0    0  0.89234533660E+01  0.19172870154E+01 -0.37966230374E+01  0.98852595294E+01  0.00000000000E+00 0.  1.
</event>
<event>
 7    1  0.2438448E-008  0.4614232E+02  0.7816164E-02  0.1320468E+00
        -11   -1    0    0    0    0  0.00000000000E+00  0.00000000000E+00  0.45593999997E+02  0.45594000000E+02  0.51100000000E-03 0.  1.
         11   -1    0    0    0    0 -0.00000000000E+00 -0.00000000000E+00 -0.45593999997E+02  0.45594000000E+02  0.51100000000E-03 0. -1.
    9900012    2    1    2    0    0 -0.31851716846E+02 -0.73708630653E+01  0.30987924942E+02  0.46142323398E+02  0.10000051399E+02 0.  0.
         12    1    1    2    0    0  0.31851716846E+02  0.73708630653E+01 -0.30987924942E+02  0.45045676602E+02  0.00000000000E+00 0. -1.
         11    1    3    3    0    0 -0.12986752115E+02 -0.40180141967E+01  0.15809522153E+02  0.20850447467E+02  0.51100000000E-03 0. -1.
        -11    1    3    3    0    0 -0.90890515931E+01 -0.12378513875E+01  0.11323263179E+02  0.14572557230E+02  0.51100000000E-03 0.  1.
         12    1    3    3    0    0 -0.97759131375E+01 -0.21149974812E+01  0.38551396094E+01  0.10719318702E+02  0.00000000000E+00 0. -1.
</event>
<event>
 7    1  0.2438448E-008  0.4614232E+02  0.7816164E-02  0.1320468E+00
        -11   -1    0    0    0    0  0.00000000000E+00  0.00000000000E+00  0.45593999997E+02  0.45594000000E+02  0.51100000000E-03 0. -1.
         11   -1    0    0    0    0 -0.00000000000E+00 -0.00000000000E+00 -0.45593999997E+02  0.45594000000E+02  0.51100000000E-03 0.  1.
    9900012    2    1    2    0    0 -0.11106560038E+02  0.36445889620E+02 -0.24030294151E+02  0.46142316710E+02  0.99999904113E+01 0.  0.
         12    1    1    2    0    0  0.11106560038E+02 -0.36445889620E+02  0.24030294151E+02  0.45045683290E+02  0.00000000000E+00 0. -1.
         11    1    3    3    0    0 -0.57244298430E+00  0.26429396374E+00 -0.18568688003E+01  0.19609957348E+01  0.51100000000E-03 0. -1.
        -11    1    3    3    0    0 -0.58312313179E+00  0.74204493393E+01 -0.21373692863E+01  0.77441234954E+01  0.51100000000E-03 0.  1.
        -12    1    3    3    0    0 -0.99509939219E+01  0.28761146317E+02 -0.20036056065E+02  0.36437197479E+02  0.00000000000E+00 0.  1.
</event>
<event>
 7    1  0.2438448E-008  0.4614232E+02  0.7816164E-02  0.1320468E+00
        -11   -1    0    0    0    0  0.00000000000E+00  0.00000000000E+00  0.45593999997E+02  0.45594000000E+02  0.51100000000E-03 0.  1.
         11   -1    0    0    0    0 -0.00000000000E+00 -0.00000000000E+00 -0.45593999997E+02  0.45594000000E+02  0.51100000000E-03 0. -1.
    9900012    2    1    2    0    0 -0.29512894803E+02  0.10972716643E+02  0.32213381916E+02  0.46142318247E+02  0.10000004428E+02 0.  0.
         12    1    1    2    0    0  0.29512894803E+02 -0.10972716643E+02 -0.32213381916E+02  0.45045681753E+02  0.00000000000E+00 0. -1.
         11    1    3    3    0    0 -0.58938076271E+01  0.47603174875E-01  0.22742396875E+01  0.63175470576E+01  0.51100000000E-03 0. -1.
        -11    1    3    3    0    0 -0.15076136272E+01  0.16252624076E+01  0.18536791257E+01  0.28897237419E+01  0.51100000000E-03 0.  1.
        -12    1    3    3    0    0 -0.22111473549E+02  0.92998510601E+01  0.28085463103E+02  0.36935047447E+02  0.00000000000E+00 0.  1.
</event>
<event>
 7    1  0.2438448E-008  0.4614231E+02  0.7816164E-02  0.1320468E+00
        -11   -1    0    0    0    0  0.00000000000E+00  0.00000000000E+00  0.45593999997E+02  0.45594000000E+02  0.51100000000E-03 0.  1.
         11   -1    0    0    0    0 -0.00000000000E+00 -0.00000000000E+00 -0.45593999997E+02  0.45594000000E+02  0.51100000000E-03 0. -1.
    9900012    2    1    2    0    0  0.35520828339E+02 -0.24588948259E+02  0.12758083400E+02  0.46142308592E+02  0.99999163877E+01 0.  0.
         12    1    1    2    0    0 -0.35520828339E+02  0.24588948259E+02 -0.12758083400E+02  0.45045691408E+02  0.00000000000E+00 0. -1.
         11    1    3    3    0    0  0.16580527717E+02 -0.98182597835E+01  0.59877389107E+01  0.20178333481E+02  0.51100000000E-03 0.  1.
        -11    1    3    3    0    0  0.32618040498E+01  0.35155906123E+00  0.99892065210E+00  0.34294025956E+01  0.51100000000E-03 0. -1.
         12    1    3    3    0    0  0.15678496572E+02 -0.15122247536E+02  0.57714238372E+01  0.22534572515E+02  0.00000000000E+00 0. -1.
</event>
<event>
 7    1  0.2438448E-008  0.4614232E+02  0.7816164E-02  0.1320468E+00
        -11   -1    0    0    0    0  0.00000000000E+00  0.00000000000E+00  0.45593999997E+02  0.45594000000E+02  0.51100000000E-03 0.  1.
         11   -1    0    0    0    0 -0.00000000000E+00 -0.00000000000E+00 -0.45593999997E+02  0.45594000000E+02  0.51100000000E-03 0. -1.
    9900012    2    1    2    0    0  0.30933570975E+02  0.70548466849E+01  0.31975878428E+02  0.46142317895E+02  0.10000001221E+02 0.  0.
         12    1    1    2    0    0 -0.30933570975E+02 -0.70548466849E+01 -0.31975878428E+02  0.45045682105E+02  0.00000000000E+00 0. -1.
         11    1    3    3    0    0  0.17115595989E+01  0.26968566564E+01  0.35558873547E+01  0.47798333890E+01  0.51100000000E-03 0. -1.
        -11    1    3    3    0    0  0.15625781895E+01 -0.97584292179E+00  0.12559754649E+01  0.22296624489E+01  0.51100000000E-03 0.  1.
        -12    1    3    3    0    0  0.27659433187E+02  0.53338329503E+01  0.27164015609E+02  0.39132822057E+02  0.00000000000E+00 0.  1.
</event>
<event>
 7    1  0.2438448E-008  0.4614232E+02  0.7816164E-02  0.1320468E+00
        -11   -1    0    0    0    0  0.00000000000E+00  0.00000000000E+00  0.45593999997E+02  0.45594000000E+02  0.51100000000E-03 0.  1.
         11   -1    0    0    0    0 -0.00000000000E+00 -0.00000000000E+00 -0.45593999997E+02  0.45594000000E+02  0.51100000000E-03 0. -1.
    9900012    2    1    2    0    0 -0.29734211914E+01 -0.24071625862E+02  0.37958253955E+02  0.46142318204E+02  0.10000004034E+02 0.  0.
         12    1    1    2    0    0  0.29734211914E+01  0.24071625862E+02 -0.37958253955E+02  0.45045681796E+02  0.00000000000E+00 0. -1.
         11    1    3    3    0    0 -0.43455990558E+01 -0.88693887299E+01  0.13684946196E+02  0.16876849239E+02  0.51100000000E-03 0. -1.
        -11    1    3    3    0    0 -0.30149217076E+00 -0.14424815468E+02  0.20539911521E+02  0.25100879753E+02  0.51100000000E-03 0.  1.
        -12    1    3    3    0    0  0.16736700351E+01 -0.77742166347E+00  0.37333962376E+01  0.41645892110E+01  0.00000000000E+00 0.  1.
</event>
<event>
 7    1  0.2438448E-008  0.4614232E+02  0.7816164E-02  0.1320468E+00
        -11   -1    0    0    0    0  0.00000000000E+00  0.00000000000E+00  0.45593999997E+02  0.45594000000E+02  0.51100000000E-03 0. -1.
         11   -1    0    0    0    0 -0.00000000000E+00 -0.00000000000E+00 -0.45593999997E+02  0.45594000000E+02  0.51100000000E-03 0.  1.
    9900012    2    1    2    0    0 -0.39106402096E+02  0.21876317587E+02  0.46075493956E+01  0.46142317993E+02  0.10000002111E+02 0.  0.
         12    1    1    2    0    0  0.39106402096E+02 -0.21876317587E+02 -0.46075493956E+01  0.45045682007E+02  0.00000000000E+00 0. -1.
         11    1    3    3    0    0  0.20860661516E+00 -0.34479969741E+00 -0.66915778149E-01  0.40851136301E+00  0.51100000000E-03 0. -1.
        -11    1    3    3    0    0 -0.32494184076E+01  0.33240924929E+00  0.83412458984E+00  0.33711985983E+01  0.51100000000E-03 0.  1.
         12    1    3    3    0    0 -0.36065590304E+02  0.21888708035E+02  0.38403405839E+01  0.42362608031E+02  0.00000000000E+00 0. -1.
</event>
<event>
 7    1  0.2438448E-008  0.4614232E+02  0.7816164E-02  0.1320468E+00
        -11   -1    0    0    0    0  0.00000000000E+00  0.00000000000E+00  0.45593999997E+02  0.45594000000E+02  0.51100000000E-03 0.  1.
         11   -1    0    0    0    0 -0.00000000000E+00 -0.00000000000E+00 -0.45593999997E+02  0.45594000000E+02  0.51100000000E-03 0. -1.
    9900012    2    1    2    0    0  0.99805036850E+01  0.25789201137E+02  0.35558686457E+02  0.46142317281E+02  0.99999956205E+01 0.  0.
         12    1    1    2    0    0 -0.99805036850E+01 -0.25789201137E+02 -0.35558686457E+02  0.45045682719E+02  0.00000000000E+00 0. -1.
         11    1    3    3    0    0  0.10233620570E+01  0.14209216820E+01  0.48887516341E+00  0.18180449699E+01  0.51100000000E-03 0. -1.
        -11    1    3    3    0    0  0.36629709715E+01  0.62885305512E+01  0.49617323071E+01  0.88080508957E+01  0.51100000000E-03 0.  1.
         12    1    3    3    0    0  0.52941706565E+01  0.18079748903E+02  0.30108078987E+02  0.35516221415E+02  0.00000000000E+00 0. -1.
</event>
<event>
 7    1  0.2438448E-008  0.4614232E+02  0.7816164E-02  0.1320468E+00
        -11   -1    0    0    0    0  0.00000000000E+00  0.00000000000E+00  0.45593999997E+02  0.45594000000E+02  0.51100000000E-03 0.  1.
         11   -1    0    0    0    0 -0.00000000000E+00 -0.00000000000E+00 -0.45593999997E+02  0.45594000000E+02  0.51100000000E-03 0. -1.
    9900012    2    1    2    0    0 -0.27830053017E+02  0.86883628798E+01  0.34338229020E+02  0.46142317935E+02  0.10000001587E+02 0.  0.
         12    1    1    2    0    0  0.27830053017E+02 -0.86883628798E+01 -0.34338229020E+02  0.45045682065E+02  0.00000000000E+00 0. -1.
         11    1    3    3    0    0 -0.12858816110E+02  0.17006403309E+01  0.15341306323E+02  0.20089723971E+02  0.51100000000E-03 0. -1.
        -11    1    3    3    0    0 -0.77977359132E+01  0.17310275340E+01  0.13226278903E+02  0.15451071017E+02  0.51100000000E-03 0.  1.
         12    1    3    3    0    0 -0.71735009943E+01  0.52566950150E+01  0.57706437936E+01  0.10601522947E+02  0.00000000000E+00 0. -1.
</event>
<event>
 7    1  0.2438448E-008  0.4614232E+02  0.7816164E-02  0.1320468E+00
        -11   -1    0    0    0    0  0.00000000000E+00  0.00000000000E+00  0.45593999997E+02  0.45594000000E+02  0.51100000000E-03 0. -1.
         11   -1    0    0    0    0 -0.00000000000E+00 -0.00000000000E+00 -0.45593999997E+02  0.45594000000E+02  0.51100000000E-03 0.  1.
    9900012    2    1    2    0    0 -0.13049299336E+02 -0.43547215862E+01 -0.42893655130E+02  0.46142318035E+02  0.10000002501E+02 0.  0.
         12    1    1    2    0    0  0.13049299336E+02  0.43547215862E+01  0.42893655130E+02  0.45045681965E+02  0.00000000000E+00 0. -1.
         11    1    3    3    0    0  0.61630792658E+00 -0.64508424781E+00 -0.14868466824E+01  0.17339787961E+01  0.51100000000E-03 0. -1.
        -11    1    3    3    0    0 -0.53124401439E+01  0.14423881505E+01 -0.21775434282E+02  0.22460455078E+02  0.51100000000E-03 0.  1.
         12    1    3    3    0    0 -0.83531671182E+01 -0.51520254889E+01 -0.19631374165E+02  0.21947884161E+02  0.00000000000E+00 0. -1.
</event>
<event>
 7    1  0.2438448E-008  0.4614232E+02  0.7816164E-02  0.1320468E+00
        -11   -1    0    0    0    0  0.00000000000E+00  0.00000000000E+00  0.45593999997E+02  0.45594000000E+02  0.51100000000E-03 0.  1.
         11   -1    0    0    0    0 -0.00000000000E+00 -0.00000000000E+00 -0.45593999997E+02  0.45594000000E+02  0.51100000000E-03 0. -1.
    9900012    2    1    2    0    0 -0.36431293459E+02  0.26326184969E+02  0.29675682580E+01  0.46142316306E+02  0.99999867314E+01 0.  0.
         12    1    1    2    0    0  0.36431293459E+02 -0.26326184969E+02 -0.29675682580E+01  0.45045683694E+02  0.00000000000E+00 0. -1.
         11    1    3    3    0    0 -0.21434135102E+01  0.25525154386E+01  0.21404224200E+01  0.39611822651E+01  0.51100000000E-03 0. -1.
        -11    1    3    3    0    0 -0.70783944457E+01  0.79642278827E+01  0.10928637159E+01  0.10711066476E+02  0.51100000000E-03 0.  1.
        -12    1    3    3    0    0 -0.27209485503E+02  0.15809441648E+02 -0.26571787798E+00  0.31470067565E+02  0.00000000000E+00 0.  1.
</event>
<event>
 7    1  0.2438448E-008  0.4614232E+02  0.7816164E-02  0.1320468E+00
        -11   -1    0    0    0    0  0.00000000000E+00  0.00000000000E+00  0.45593999997E+02  0.45594000000E+02  0.51100000000E-03 0. -1.
         11   -1    0    0    0    0 -0.00000000000E+00 -0.00000000000E+00 -0.45593999997E+02  0.45594000000E+02  0.51100000000E-03 0.  1.
    9900012    2    1    2    0    0 -0.33074661513E+02 -0.12748464824E+02 -0.27796706986E+02  0.46142317534E+02  0.99999979310E+01 0.  0.
         12    1    1    2    0    0  0.33074661513E+02  0.12748464824E+02  0.27796706986E+02  0.45045682466E+02  0.00000000000E+00 0. -1.
         11    1    3    3    0    0 -0.57888554479E+01 -0.27777688473E+01 -0.44839002946E+01  0.78314883183E+01  0.51100000000E-03 0. -1.
        -11    1    3    3    0    0 -0.20601102450E+02 -0.92175010046E+01 -0.21877616065E+02  0.31432432802E+02  0.51100000000E-03 0.  1.
         12    1    3    3    0    0 -0.66847036155E+01 -0.75319497185E+00 -0.14351906259E+01  0.68783964138E+01  0.00000000000E+00 0. -1.
</event>
<event>
 7    1  0.2438448E-008  0.4614232E+02  0.7816164E-02  0.1320468E+00
        -11   -1    0    0    0    0  0.00000000000E+00  0.00000000000E+00  0.45593999997E+02  0.45594000000E+02  0.51100000000E-03 0. -1.
         11   -1    0    0    0    0 -0.00000000000E+00 -0.00000000000E+00 -0.45593999997E+02  0.45594000000E+02  0.51100000000E-03 0.  1.
    9900012    2    1    2    0    0 -0.22209388209E+02  0.27868902539E+02 -0.27553236427E+02  0.46142317733E+02  0.99999997397E+01 0.  0.
         12    1    1    2    0    0  0.22209388209E+02 -0.27868902539E+02  0.27553236427E+02  0.45045682267E+02  0.00000000000E+00 0. -1.
         11    1    3    3    0    0 -0.87577106914E+01  0.10157879323E+02 -0.11857055057E+02  0.17901669301E+02  0.51100000000E-03 0. -1.
        -11    1    3    3    0    0 -0.11720003291E+02  0.18163663051E+02 -0.15041402593E+02  0.26334785452E+02  0.51100000000E-03 0.  1.
         12    1    3    3    0    0 -0.17316742267E+01 -0.45263983542E+00 -0.65477877697E+00  0.19058629790E+01  0.00000000000E+00 0. -1.
</event>
<event>
 7    1  0.2438448E-008  0.4614232E+02  0.7816164E-02  0.1320468E+00
        -11   -1    0    0    0    0  0.00000000000E+00  0.00000000000E+00  0.45593999997E+02  0.45594000000E+02  0.51100000000E-03 0. -1.
         11   -1    0    0    0    0 -0.00000000000E+00 -0.00000000000E+00 -0.45593999997E+02  0.45594000000E+02  0.51100000000E-03 0.  1.
    9900012    2    1    2    0    0 -0.69821350179E+01  0.39431808037E+02 -0.20627549527E+02  0.46142317699E+02  0.99999994344E+01 0.  0.
         12    1    1    2    0    0  0.69821350179E+01 -0.39431808037E+02  0.20627549527E+02  0.45045682301E+02  0.00000000000E+00 0. -1.
         11    1    3    3    0    0 -0.89445595841E+00  0.84028075411E+01 -0.56510656984E+01  0.10165715411E+02  0.51100000000E-03 0. -1.
        -11    1    3    3    0    0 -0.29701676029E+01  0.41463573189E+01 -0.11499424583E+00  0.51017054543E+01  0.51100000000E-03 0.  1.
        -12    1    3    3    0    0 -0.31175114566E+01  0.26882643177E+02 -0.14861489582E+02  0.30874896834E+02  0.00000000000E+00 0.  1.
</event>
<event>
 7    1  0.2438448E-008  0.4614232E+02  0.7816164E-02  0.1320468E+00
        -11   -1    0    0    0    0  0.00000000000E+00  0.00000000000E+00  0.45593999997E+02  0.45594000000E+02  0.51100000000E-03 0.  1.
         11   -1    0    0    0    0 -0.00000000000E+00 -0.00000000000E+00 -0.45593999997E+02  0.45594000000E+02  0.51100000000E-03 0. -1.
    9900012    2    1    2    0    0 -0.32479553366E+02 -0.66566982929E+01  0.30493941789E+02  0.46142317578E+02  0.99999983334E+01 0.  0.
         12    1    1    2    0    0  0.32479553366E+02  0.66566982929E+01 -0.30493941789E+02  0.45045682422E+02  0.00000000000E+00 0. -1.
         11    1    3    3    0    0 -0.19059680016E+01 -0.20220449240E+01  0.27557691026E+01  0.39135205769E+01  0.51100000000E-03 0. -1.
        -11    1    3    3    0    0 -0.80157306872E+01 -0.27766919649E+01  0.38349436757E+01  0.93096052534E+01  0.51100000000E-03 0.  1.
         12    1    3    3    0    0 -0.22557854677E+02 -0.18579614039E+01  0.23903229011E+02  0.32919191748E+02  0.00000000000E+00 0. -1.
</event>
<event>
 7    1  0.2438448E-008  0.4614232E+02  0.7816164E-02  0.1320468E+00
        -11   -1    0    0    0    0  0.00000000000E+00  0.00000000000E+00  0.45593999997E+02  0.45594000000E+02  0.51100000000E-03 0.  1.
         11   -1    0    0    0    0 -0.00000000000E+00 -0.00000000000E+00 -0.45593999997E+02  0.45594000000E+02  0.51100000000E-03 0. -1.
    9900012    2    1    2    0    0  0.91342068753E+01 -0.29804080495E+02  0.32517633672E+02  0.46142318198E+02  0.10000003980E+02 0.  0.
         12    1    1    2    0    0 -0.91342068753E+01  0.29804080495E+02 -0.32517633672E+02  0.45045681802E+02  0.00000000000E+00 0. -1.
         11    1    3    3    0    0  0.19882457117E+01 -0.19321965671E+01  0.68986168639E+01  0.74348785787E+01  0.51100000000E-03 0. -1.
        -11    1    3    3    0    0  0.34543207505E+01 -0.68419483426E+01  0.67314436907E+01  0.10200829544E+02  0.51100000000E-03 0.  1.
        -12    1    3    3    0    0  0.36916404131E+01 -0.21029935586E+02  0.18887573117E+02  0.28506610075E+02  0.00000000000E+00 0.  1.
</event>
<event>
 7    1  0.2438448E-008  0.4614232E+02  0.7816164E-02  0.1320468E+00
        -11   -1    0    0    0    0  0.00000000000E+00  0.00000000000E+00  0.45593999997E+02  0.45594000000E+02  0.51100000000E-03 0.  1.
         11   -1    0    0    0    0 -0.00000000000E+00 -0.00000000000E+00 -0.45593999997E+02  0.45594000000E+02  0.51100000000E-03 0. -1.
    9900012    2    1    2    0    0 -0.25508668711E+01 -0.24432237075E+02  0.37758075163E+02  0.46142319072E+02  0.10000011953E+02 0.  0.
         12    1    1    2    0    0  0.25508668711E+01  0.24432237075E+02 -0.37758075163E+02  0.45045680928E+02  0.00000000000E+00 0. -1.
         11    1    3    3    0    0 -0.14244383638E+01 -0.13195131745E+02  0.11624558417E+02  0.17642870659E+02  0.51100000000E-03 0. -1.
        -11    1    3    3    0    0  0.47557747789E-01 -0.77321597947E+00  0.27005809139E+01  0.28094950123E+01  0.51100000000E-03 0.  1.
         12    1    3    3    0    0 -0.11739862550E+01 -0.10463889350E+02  0.23432935832E+02  0.25689953401E+02  0.00000000000E+00 0. -1.
</event>
<event>
 7    1  0.2438448E-008  0.4614232E+02  0.7816164E-02  0.1320468E+00
        -11   -1    0    0    0    0  0.00000000000E+00  0.00000000000E+00  0.45593999997E+02  0.45594000000E+02  0.51100000000E-03 0.  1.
         11   -1    0    0    0    0 -0.00000000000E+00 -0.00000000000E+00 -0.45593999997E+02  0.45594000000E+02  0.51100000000E-03 0. -1.
    9900012    2    1    2    0    0  0.14667519120E+02 -0.27822663060E+02  0.32247121470E+02  0.46142317188E+02  0.99999947725E+01 0.  0.
         12    1    1    2    0    0 -0.14667519120E+02  0.27822663060E+02 -0.32247121470E+02  0.45045682812E+02  0.00000000000E+00 0. -1.
         11    1    3    3    0    0  0.47126989031E+01 -0.96443536113E+01  0.55851277097E+01  0.12100278481E+02  0.51100000000E-03 0. -1.
        -11    1    3    3    0    0  0.45297455158E+01 -0.11662988051E+02  0.18000407081E+02  0.21921645469E+02  0.51100000000E-03 0.  1.
         12    1    3    3    0    0  0.54250747009E+01 -0.65153213978E+01  0.86615866796E+01  0.12120393238E+02  0.00000000000E+00 0. -1.
</event>
<event>
 7    1  0.2438448E-008  0.4614232E+02  0.7816164E-02  0.1320468E+00
        -11   -1    0    0    0    0  0.00000000000E+00  0.00000000000E+00  0.45593999997E+02  0.45594000000E+02  0.51100000000E-03 0.  1.
         11   -1    0    0    0    0 -0.00000000000E+00 -0.00000000000E+00 -0.45593999997E+02  0.45594000000E+02  0.51100000000E-03 0. -1.
    9900012    2    1    2    0    0  0.27642564908E+01 -0.57846192375E+01  0.44587112940E+02  0.46142316811E+02  0.99999913320E+01 0.  0.
         12    1    1    2    0    0 -0.27642564908E+01  0.57846192375E+01 -0.44587112940E+02  0.45045683189E+02  0.00000000000E+00 0. -1.
         11    1    3    3    0    0  0.27531001070E+01 -0.18920836763E+01  0.26574984093E+02  0.26784124415E+02  0.51100000000E-03 0. -1.
        -11    1    3    3    0    0 -0.11128661555E+01 -0.46118371597E+01  0.17089577093E+02  0.17735872083E+02  0.51100000000E-03 0.  1.
         12    1    3    3    0    0  0.11240225393E+01  0.71930159848E+00  0.92255175332E+00  0.16223203124E+01  0.00000000000E+00 0. -1.
</event>
<event>
 7    1  0.2438448E-008  0.4614232E+02  0.7816164E-02  0.1320468E+00
        -11   -1    0    0    0    0  0.00000000000E+00  0.00000000000E+00  0.45593999997E+02  0.45594000000E+02  0.51100000000E-03 0.  1.
         11   -1    0    0    0    0 -0.00000000000E+00 -0.00000000000E+00 -0.45593999997E+02  0.45594000000E+02  0.51100000000E-03 0. -1.
    9900012    2    1    2    0    0 -0.14669139659E+02 -0.32383737159E+02  0.27662671504E+02  0.46142317794E+02  0.10000000299E+02 0.  0.
         12    1    1    2    0    0  0.14669139659E+02  0.32383737159E+02 -0.27662671504E+02  0.45045682206E+02  0.00000000000E+00 0. -1.
         11    1    3    3    0    0 -0.29515262375E+01 -0.50704219460E+01  0.76597660212E+00  0.59167056930E+01  0.51100000000E-03 0. -1.
        -11    1    3    3    0    0 -0.21645487589E+01 -0.86744112865E+01  0.72856787874E+01  0.11533074098E+02  0.51100000000E-03 0.  1.
         12    1    3    3    0    0 -0.95530646623E+01 -0.18638903926E+02  0.19611016114E+02  0.28692538003E+02  0.00000000000E+00 0. -1.
</event>
<event>
 7    1  0.2438448E-008  0.4614232E+02  0.7816164E-02  0.1320468E+00
        -11   -1    0    0    0    0  0.00000000000E+00  0.00000000000E+00  0.45593999997E+02  0.45594000000E+02  0.51100000000E-03 0.  1.
         11   -1    0    0    0    0 -0.00000000000E+00 -0.00000000000E+00 -0.45593999997E+02  0.45594000000E+02  0.51100000000E-03 0. -1.
    9900012    2    1    2    0    0  0.43222130097E+02 -0.12213553188E+01 -0.12628111610E+02  0.46142318279E+02  0.10000004719E+02 0.  0.
         12    1    1    2    0    0 -0.43222130097E+02  0.12213553188E+01  0.12628111610E+02  0.45045681721E+02  0.00000000000E+00 0. -1.
         11    1    3    3    0    0  0.17032953923E+02  0.17619696072E+01 -0.15885453745E+01  0.17197369942E+02  0.51100000000E-03 0. -1.
        -11    1    3    3    0    0  0.15634272920E+02 -0.12819322798E+01 -0.41507690804E+01  0.16226605447E+02  0.51100000000E-03 0.  1.
        -12    1    3    3    0    0  0.10554903254E+02 -0.17013926462E+01 -0.68887971548E+01  0.12718342890E+02  0.00000000000E+00 0.  1.
</event>
<event>
 7    1  0.2438448E-008  0.4614232E+02  0.7816164E-02  0.1320468E+00
        -11   -1    0    0    0    0  0.00000000000E+00  0.00000000000E+00  0.45593999997E+02  0.45594000000E+02  0.51100000000E-03 0.  1.
         11   -1    0    0    0    0 -0.00000000000E+00 -0.00000000000E+00 -0.45593999997E+02  0.45594000000E+02  0.51100000000E-03 0. -1.
    9900012    2    1    2    0    0  0.35977253835E+02  0.83408292939E-01  0.27106157114E+02  0.46142317588E+02  0.99999984220E+01 0.  0.
         12    1    1    2    0    0 -0.35977253835E+02 -0.83408292939E-01 -0.27106157114E+02  0.45045682412E+02  0.00000000000E+00 0. -1.
         11    1    3    3    0    0  0.89657132513E+01 -0.11801144156E+01  0.64012727886E+01  0.11079394285E+02  0.51100000000E-03 0. -1.
        -11    1    3    3    0    0  0.26668761054E+02  0.13337009249E+01  0.17695574157E+02  0.32033340745E+02  0.51100000000E-03 0.  1.
         12    1    3    3    0    0  0.34277953035E+00 -0.70178216307E-01  0.30093101681E+01  0.30295825581E+01  0.00000000000E+00 0. -1.
</event>
<event>
 7    1  0.2438448E-008  0.4614232E+02  0.7816164E-02  0.1320468E+00
        -11   -1    0    0    0    0  0.00000000000E+00  0.00000000000E+00  0.45593999997E+02  0.45594000000E+02  0.51100000000E-03 0.  1.
         11   -1    0    0    0    0 -0.00000000000E+00 -0.00000000000E+00 -0.45593999997E+02  0.45594000000E+02  0.51100000000E-03 0. -1.
    9900012    2    1    2    0    0  0.60607838079E+01  0.25246421420E+02  0.36810305660E+02  0.46142317658E+02  0.99999990615E+01 0.  0.
         12    1    1    2    0    0 -0.60607838079E+01 -0.25246421420E+02 -0.36810305660E+02  0.45045682342E+02  0.00000000000E+00 0. -1.
         11    1    3    3    0    0  0.54105559559E+01  0.13538948902E+02  0.25471621441E+02  0.29349288785E+02  0.51100000000E-03 0. -1.
        -11    1    3    3    0    0 -0.11780362700E+01  0.25596553029E+01  0.13461516482E+01  0.31227758876E+01  0.51100000000E-03 0.  1.
        -12    1    3    3    0    0  0.18282641220E+01  0.91478172153E+01  0.99925325705E+01  0.13670252985E+02  0.00000000000E+00 0.  1.
</event>
<event>
 7    1  0.2438448E-008  0.4614232E+02  0.7816164E-02  0.1320468E+00
        -11   -1    0    0    0    0  0.00000000000E+00  0.00000000000E+00  0.45593999997E+02  0.45594000000E+02  0.51100000000E-03 0.  1.
         11   -1    0    0    0    0 -0.00000000000E+00 -0.00000000000E+00 -0.45593999997E+02  0.45594000000E+02  0.51100000000E-03 0. -1.
    9900012    2    1    2    0    0  0.15226117489E+02 -0.41449325755E+02  0.89012520462E+01  0.46142317106E+02  0.99999940303E+01 0.  0.
         12    1    1    2    0    0 -0.15226117489E+02  0.41449325755E+02 -0.89012520462E+01  0.45045682894E+02  0.00000000000E+00 0. -1.
         11    1    3    3    0    0  0.43194988763E+01 -0.17698658250E+02  0.85906184115E+00  0.18238381560E+02  0.51100000000E-03 0. -1.
        -11    1    3    3    0    0  0.91819142832E+01 -0.18572500645E+02  0.85697474105E+01  0.22420657908E+02  0.51100000000E-03 0.  1.
        -12    1    3    3    0    0  0.17247043299E+01 -0.51781668600E+01 -0.52755720538E+00  0.54832776385E+01  0.00000000000E+00 0.  1.
</event>
<event>
 7    1  0.2438448E-008  0.4614232E+02  0.7816164E-02  0.1320468E+00
        -11   -1    0    0    0    0  0.00000000000E+00  0.00000000000E+00  0.45593999997E+02  0.45594000000E+02  0.51100000000E-03 0.  1.
         11   -1    0    0    0    0 -0.00000000000E+00 -0.00000000000E+00 -0.45593999997E+02  0.45594000000E+02  0.51100000000E-03 0. -1.
    9900012    2    1    2    0    0 -0.20055328802E+01  0.32685938886E+02  0.30930902470E+02  0.46142317736E+02  0.99999997748E+01 0.  0.
         12    1    1    2    0    0  0.20055328802E+01 -0.32685938886E+02 -0.30930902470E+02  0.45045682264E+02  0.00000000000E+00 0. -1.
         11    1    3    3    0    0 -0.14347342474E+01  0.51482261624E+01  0.28180895049E+01  0.60418808081E+01  0.51100000000E-03 0. -1.
        -11    1    3    3    0    0  0.33121256798E+01  0.10381203937E+02  0.90819202481E+01  0.14185233426E+02  0.51100000000E-03 0.  1.
        -12    1    3    3    0    0 -0.38829243126E+01  0.17156508787E+02  0.19030892717E+02  0.25915203503E+02  0.00000000000E+00 0.  1.
</event>
<event>
 7    1  0.2438448E-008  0.4614232E+02  0.7816164E-02  0.1320468E+00
        -11   -1    0    0    0    0  0.00000000000E+00  0.00000000000E+00  0.45593999997E+02  0.45594000000E+02  0.51100000000E-03 0. -1.
         11   -1    0    0    0    0 -0.00000000000E+00 -0.00000000000E+00 -0.45593999997E+02  0.45594000000E+02  0.51100000000E-03 0.  1.
    9900012    2    1    2    0    0 -0.62231165910E+01 -0.44533140027E+02  0.26806326187E+01  0.46142317277E+02  0.99999955856E+01 0.  0.
         12    1    1    2    0    0  0.62231165910E+01  0.44533140027E+02 -0.26806326187E+01  0.45045682723E+02  0.00000000000E+00 0. -1.
         11    1    3    3    0    0  0.20509542646E+01 -0.69144149722E+01  0.14498282152E+01  0.73564631392E+01  0.51100000000E-03 0. -1.
        -11    1    3    3    0    0 -0.51547885439E+00 -0.65039765071E+01 -0.11707148483E+01  0.66285746863E+01  0.51100000000E-03 0.  1.
        -12    1    3    3    0    0 -0.77585920012E+01 -0.31114748547E+02  0.24015192518E+01  0.32157279452E+02  0.00000000000E+00 0.  1.
</event>
<event>
 7    1  0.2438448E-008  0.4614232E+02  0.7816164E-02  0.1320468E+00
        -11   -1    0    0    0    0  0.00000000000E+00  0.00000000000E+00  0.45593999997E+02  0.45594000000E+02  0.51100000000E-03 0. -1.
         11   -1    0    0    0    0 -0.00000000000E+00 -0.00000000000E+00 -0.45593999997E+02  0.45594000000E+02  0.51100000000E-03 0.  1.
    9900012    2    1    2    0    0 -0.42178799851E+02 -0.15355312897E+02 -0.37784507962E+01  0.46142317838E+02  0.10000000703E+02 0.  0.
         12    1    1    2    0    0  0.42178799851E+02  0.15355312897E+02  0.37784507962E+01  0.45045682162E+02  0.00000000000E+00 0. -1.
         11    1    3    3    0    0 -0.25998900364E+02 -0.11137221003E+02 -0.10045646988E+01  0.28301760764E+02  0.51100000000E-03 0. -1.
        -11    1    3    3    0    0 -0.14554501288E+02 -0.32878897961E+01 -0.54753952611E+00  0.14931293542E+02  0.51100000000E-03 0.  1.
         12    1    3    3    0    0 -0.16253981985E+01 -0.93020209772E+00 -0.22263465713E+01  0.29092635325E+01  0.00000000000E+00 0. -1.
</event>
<event>
 7    1  0.2438448E-008  0.4614232E+02  0.7816164E-02  0.1320468E+00
        -11   -1    0    0    0    0  0.00000000000E+00  0.00000000000E+00  0.45593999997E+02  0.45594000000E+02  0.51100000000E-03 0.  1.
         11   -1    0    0    0    0 -0.00000000000E+00 -0.00000000000E+00 -0.45593999997E+02  0.45594000000E+02  0.51100000000E-03 0. -1.
    9900012    2    1    2    0    0 -0.15384907313E+02  0.21899769912E+02  0.36232833244E+02  0.46142317631E+02  0.99999988125E+01 0.  0.
         12    1    1    2    0    0  0.15384907313E+02 -0.21899769912E+02 -0.36232833244E+02  0.45045682369E+02  0.00000000000E+00 0. -1.
         11    1    3    3    0    0 -0.28060112133E+01  0.36712932035E+01  0.27349613928E+01  0.53695536869E+01  0.51100000000E-03 0. -1.
        -11    1    3    3    0    0 -0.11684208767E+02  0.18826215091E+02  0.31664363188E+02  0.38646849879E+02  0.51100000000E-03 0.  1.
        -12    1    3    3    0    0 -0.89468733304E+00 -0.59773838238E+00  0.18335086626E+01  0.21259140654E+01  0.00000000000E+00 0.  1.
</event>
<event>
 7    1  0.2438448E-008  0.4614232E+02  0.7816164E-02  0.1320468E+00
        -11   -1    0    0    0    0  0.00000000000E+00  0.00000000000E+00  0.45593999997E+02  0.45594000000E+02  0.51100000000E-03 0.  1.
         11   -1    0    0    0    0 -0.00000000000E+00 -0.00000000000E+00 -0.45593999997E+02  0.45594000000E+02  0.51100000000E-03 0. -1.
    9900012    2    1    2    0    0 -0.23723940590E+01  0.25864632724E+02  0.36803614784E+02  0.46142317180E+02  0.99999947038E+01 0.  0.
         12    1    1    2    0    0  0.23723940590E+01 -0.25864632724E+02 -0.36803614784E+02  0.45045682820E+02  0.00000000000E+00 0. -1.
         11    1    3    3    0    0 -0.31366672364E+01  0.61066158516E+01  0.49993619472E+01  0.84925295790E+01  0.51100000000E-03 0. -1.
        -11    1    3    3    0    0  0.12955648497E+00  0.13468065329E+02  0.18135450365E+02  0.22589823567E+02  0.51100000000E-03 0.  1.
         12    1    3    3    0    0  0.63471669240E+00  0.62899515437E+01  0.13668802472E+02  0.15059964034E+02  0.00000000000E+00 0. -1.
</event>
<event>
 7    1  0.2438448E-008  0.4614232E+02  0.7816164E-02  0.1320468E+00
        -11   -1    0    0    0    0  0.00000000000E+00  0.00000000000E+00  0.45593999997E+02  0.45594000000E+02  0.51100000000E-03 0.  1.
         11   -1    0    0    0    0 -0.00000000000E+00 -0.00000000000E+00 -0.45593999997E+02  0.45594000000E+02  0.51100000000E-03 0. -1.
    9900012    2    1    2    0    0  0.13303360424E+02  0.18537591022E+02  0.38839308213E+02  0.46142317167E+02  0.99999945814E+01 0.  0.
         12    1    1    2    0    0 -0.13303360424E+02 -0.18537591022E+02 -0.38839308213E+02  0.45045682833E+02  0.00000000000E+00 0. -1.
         11    1    3    3    0    0  0.16376763417E+01  0.55097396417E+01  0.65565287919E+01  0.87193626361E+01  0.51100000000E-03 0. -1.
        -11    1    3    3    0    0  0.32779685171E+01 -0.85873771116E-01  0.70402718536E+01  0.77664586484E+01  0.51100000000E-03 0.  1.
        -12    1    3    3    0    0  0.83877155656E+01  0.13113725151E+02  0.25242507567E+02  0.29656495882E+02  0.00000000000E+00 0.  1.
</event>
<event>
 7    1  0.2438448E-008  0.4614232E+02  0.7816164E-02  0.1320468E+00
        -11   -1    0    0    0    0  0.00000000000E+00  0.00000000000E+00  0.45593999997E+02  0.45594000000E+02  0.51100000000E-03 0.  1.
         11   -1    0    0    0    0 -0.00000000000E+00 -0.00000000000E+00 -0.45593999997E+02  0.45594000000E+02  0.51100000000E-03 0. -1.
    9900012    2    1    2    0    0 -0.44071636258E+01 -0.29585269416E+02  0.33680888718E+02  0.46142317382E+02  0.99999965462E+01 0.  0.
         12    1    1    2    0    0  0.44071636258E+01  0.29585269416E+02 -0.33680888718E+02  0.45045682618E+02  0.00000000000E+00 0. -1.
         11    1    3    3    0    0 -0.35549977842E+01 -0.37379325623E+01  0.59489625005E+01  0.78740271894E+01  0.51100000000E-03 0. -1.
        -11    1    3    3    0    0  0.14691097287E+01 -0.12871919529E+02  0.16289200483E+02  0.20813040345E+02  0.51100000000E-03 0.  1.
         12    1    3    3    0    0 -0.23212755702E+01 -0.12975417324E+02  0.11442725734E+02  0.17455249848E+02  0.00000000000E+00 0. -1.
</event>
<event>
 7    1  0.2438448E-008  0.4614232E+02  0.7816164E-02  0.1320468E+00
        -11   -1    0    0    0    0  0.00000000000E+00  0.00000000000E+00  0.45593999997E+02  0.45594000000E+02  0.51100000000E-03 0.  1.
         11   -1    0    0    0    0 -0.00000000000E+00 -0.00000000000E+00 -0.45593999997E+02  0.45594000000E+02  0.51100000000E-03 0. -1.
    9900012    2    1    2    0    0 -0.27962237613E+02  0.34299316554E+02  0.84133030764E+01  0.46142317443E+02  0.99999970959E+01 0.  0.
         12    1    1    2    0    0  0.27962237613E+02 -0.34299316554E+02 -0.84133030764E+01  0.45045682557E+02  0.00000000000E+00 0. -1.
         11    1    3    3    0    0 -0.17401624071E+02  0.26440321462E+02  0.75304955615E+01  0.32536371694E+02  0.51100000000E-03 0.  1.
        -11    1    3    3    0    0 -0.22549747330E+01  0.33670043109E+00  0.74753075254E+00  0.23993917383E+01  0.51100000000E-03 0. -1.
         12    1    3    3    0    0 -0.83056388090E+01  0.75222946610E+01  0.13527676231E+00  0.11206554011E+02  0.00000000000E+00 0. -1.
</event>
<event>
 7    1  0.2438448E-008  0.4614232E+02  0.7816164E-02  0.1320468E+00
        -11   -1    0    0    0    0  0.00000000000E+00  0.00000000000E+00  0.45593999997E+02  0.45594000000E+02  0.51100000000E-03 0.  1.
         11   -1    0    0    0    0 -0.00000000000E+00 -0.00000000000E+00 -0.45593999997E+02  0.45594000000E+02  0.51100000000E-03 0. -1.
    9900012    2    1    2    0    0 -0.24024291761E+02  0.67756658998E+01  0.37497162830E+02  0.46142318039E+02  0.10000002534E+02 0.  0.
         12    1    1    2    0    0  0.24024291761E+02 -0.67756658998E+01 -0.37497162830E+02  0.45045681961E+02  0.00000000000E+00 0. -1.
         11    1    3    3    0    0 -0.25542119544E+01  0.89958429831E+00  0.11822207351E+02  0.12128389734E+02  0.51100000000E-03 0. -1.
        -11    1    3    3    0    0 -0.54516482279E+01  0.82375105843E+00  0.62655871153E+01  0.83460539399E+01  0.51100000000E-03 0.  1.
         12    1    3    3    0    0 -0.16018431579E+02  0.50523305431E+01  0.19409368364E+02  0.25667874366E+02  0.00000000000E+00 0. -1.
</event>
<event>
 7    1  0.2438448E-008  0.4614232E+02  0.7816164E-02  0.1320468E+00
        -11   -1    0    0    0    0  0.00000000000E+00  0.00000000000E+00  0.45593999997E+02  0.45594000000E+02  0.51100000000E-03 0.  1.
         11   -1    0    0    0    0 -0.00000000000E+00 -0.00000000000E+00 -0.45593999997E+02  0.45594000000E+02  0.51100000000E-03 0. -1.
    9900012    2    1    2    0    0 -0.32558788401E+02 -0.27528033076E+02  0.14534310304E+02  0.46142317818E+02  0.10000000523E+02 0.  0.
         12    1    1    2    0    0  0.32558788401E+02  0.27528033076E+02 -0.14534310304E+02  0.45045682182E+02  0.00000000000E+00 0. -1.
         11    1    3    3    0    0 -0.40160330356E+01 -0.13432079964E+01  0.80470013962E+00  0.43104839219E+01  0.51100000000E-03 0. -1.
        -11    1    3    3    0    0 -0.35858682546E+01 -0.75144681496E+01  0.34497433806E+01  0.90125696870E+01  0.51100000000E-03 0.  1.
        -12    1    3    3    0    0 -0.24956887111E+02 -0.18670356930E+02  0.10279866784E+02  0.32819264210E+02  0.00000000000E+00 0.  1.
</event>
<event>
 7    1  0.2438448E-008  0.4614232E+02  0.7816164E-02  0.1320468E+00
        -11   -1    0    0    0    0  0.00000000000E+00  0.00000000000E+00  0.45593999997E+02  0.45594000000E+02  0.51100000000E-03 0.  1.
         11   -1    0    0    0    0 -0.00000000000E+00 -0.00000000000E+00 -0.45593999997E+02  0.45594000000E+02  0.51100000000E-03 0. -1.
    9900012    2    1    2    0    0 -0.82367020764E+01 -0.39188189371E+02  0.20629010030E+02  0.46142317609E+02  0.99999986110E+01 0.  0.
         12    1    1    2    0    0  0.82367020764E+01  0.39188189371E+02 -0.20629010030E+02  0.45045682391E+02  0.00000000000E+00 0. -1.
         11    1    3    3    0    0  0.19208076516E+01 -0.33106397203E+01  0.19489620116E+01  0.42951473288E+01  0.51100000000E-03 0. -1.
        -11    1    3    3    0    0 -0.70070732094E+01 -0.20801645159E+02  0.12434509595E+02  0.25227456182E+02  0.51100000000E-03 0.  1.
         12    1    3    3    0    0 -0.31504365185E+01 -0.15075904492E+02  0.62455384226E+01  0.16619714098E+02  0.00000000000E+00 0. -1.
</event>
<event>
 7    1  0.2438448E-008  0.4614232E+02  0.7816164E-02  0.1320468E+00
        -11   -1    0    0    0    0  0.00000000000E+00  0.00000000000E+00  0.45593999997E+02  0.45594000000E+02  0.51100000000E-03 0.  1.
         11   -1    0    0    0    0 -0.00000000000E+00 -0.00000000000E+00 -0.45593999997E+02  0.45594000000E+02  0.51100000000E-03 0. -1.
    9900012    2    1    2    0    0  0.53007459166E+01 -0.35457919791E+02  0.27271807012E+02  0.46142318288E+02  0.10000004804E+02 0.  0.
         12    1    1    2    0    0 -0.53007459166E+01  0.35457919791E+02 -0.27271807012E+02  0.45045681712E+02  0.00000000000E+00 0. -1.
         11    1    3    3    0    0  0.57346139445E+01 -0.17452802366E+02  0.12227495668E+02  0.22068025695E+02  0.51100000000E-03 0. -1.
        -11    1    3    3    0    0  0.15765987304E+01 -0.20092174967E+01  0.11904733252E+01  0.28177731465E+01  0.51100000000E-03 0.  1.
        -12    1    3    3    0    0 -0.20104667582E+01 -0.15995899929E+02  0.13853838019E+02  0.21256519447E+02  0.00000000000E+00 0.  1.
</event>
<event>
 7    1  0.2438448E-008  0.4614232E+02  0.7816164E-02  0.1320468E+00
        -11   -1    0    0    0    0  0.00000000000E+00  0.00000000000E+00  0.45593999997E+02  0.45594000000E+02  0.51100000000E-03 0. -1.
         11   -1    0    0    0    0 -0.00000000000E+00 -0.00000000000E+00 -0.45593999997E+02  0.45594000000E+02  0.51100000000E-03 0.  1.
    9900012    2    1    2    0    0 -0.11743918488E+02  0.38840310941E+02 -0.19560779803E+02  0.46142317832E+02  0.10000000649E+02 0.  0.
         12    1    1    2    0    0  0.11743918488E+02 -0.38840310941E+02  0.19560779803E+02  0.45045682168E+02  0.00000000000E+00 0. -1.
         11    1    3    3    0    0 -0.47899318559E+01  0.26492196361E+02 -0.13297955949E+02  0.30026913726E+02  0.51100000000E-03 0. -1.
        -11    1    3    3    0    0 -0.27456439089E+01  0.80698965824E+01 -0.20037440996E+01  0.87565279651E+01  0.51100000000E-03 0.  1.
         12    1    3    3    0    0 -0.42083427232E+01  0.42782179979E+01 -0.42590797542E+01  0.73588761415E+01  0.00000000000E+00 0. -1.
</event>
<event>
 7    1  0.2438448E-008  0.4614232E+02  0.7816164E-02  0.1320468E+00
        -11   -1    0    0    0    0  0.00000000000E+00  0.00000000000E+00  0.45593999997E+02  0.45594000000E+02  0.51100000000E-03 0.  1.
         11   -1    0    0    0    0 -0.00000000000E+00 -0.00000000000E+00 -0.45593999997E+02  0.45594000000E+02  0.51100000000E-03 0. -1.
    9900012    2    1    2    0    0  0.12477672775E+02 -0.19887635228E+02  0.38443504257E+02  0.46142319048E+02  0.10000011737E+02 0.  0.
         12    1    1    2    0    0 -0.12477672775E+02  0.19887635228E+02 -0.38443504257E+02  0.45045680952E+02  0.00000000000E+00 0. -1.
         11    1    3    3    0    0  0.61392711678E+01 -0.15675299499E+02  0.27156091574E+02  0.31950883786E+02  0.51100000000E-03 0. -1.
        -11    1    3    3    0    0  0.15007308187E+01 -0.15756446206E+01  0.66272032997E+01  0.69752901587E+01  0.51100000000E-03 0.  1.
         12    1    3    3    0    0  0.48376707889E+01 -0.26366911083E+01  0.46602093829E+01  0.72161451035E+01  0.00000000000E+00 0. -1.
</event>
<event>
 7    1  0.2438448E-008  0.4614232E+02  0.7816164E-02  0.1320468E+00
        -11   -1    0    0    0    0  0.00000000000E+00  0.00000000000E+00  0.45593999997E+02  0.45594000000E+02  0.51100000000E-03 0.  1.
         11   -1    0    0    0    0 -0.00000000000E+00 -0.00000000000E+00 -0.45593999997E+02  0.45594000000E+02  0.51100000000E-03 0. -1.
    9900012    2    1    2    0    0  0.37706331586E+02  0.98047273307E+01  0.22610029429E+02  0.46142317072E+02  0.99999937118E+01 0.  0.
         12    1    1    2    0    0 -0.37706331586E+02 -0.98047273307E+01 -0.22610029429E+02  0.45045682928E+02  0.00000000000E+00 0. -1.
         11    1    3    3    0    0  0.81872049230E+01  0.56689406417E+01  0.62189090230E+01  0.11740615067E+02  0.51100000000E-03 0. -1.
        -11    1    3    3    0    0  0.26008240796E+02  0.34169118413E+01  0.12328752709E+02  0.28984513442E+02  0.51100000000E-03 0.  1.
         12    1    3    3    0    0  0.35108858668E+01  0.71887484771E+00  0.40623676975E+01  0.54171885629E+01  0.00000000000E+00 0. -1.
</event>
<event>
 7    1  0.2438448E-008  0.4614232E+02  0.7816164E-02  0.1320468E+00
        -11   -1    0    0    0    0  0.00000000000E+00  0.00000000000E+00  0.45593999997E+02  0.45594000000E+02  0.51100000000E-03 0. -1.
         11   -1    0    0    0    0 -0.00000000000E+00 -0.00000000000E+00 -0.45593999997E+02  0.45594000000E+02  0.51100000000E-03 0.  1.
    9900012    2    1    2    0    0 -0.42608732091E+02 -0.13743504118E+02  0.49724764391E+01  0.46142317879E+02  0.10000001074E+02 0.  0.
         12    1    1    2    0    0  0.42608732091E+02  0.13743504118E+02 -0.49724764391E+01  0.45045682121E+02  0.00000000000E+00 0. -1.
         11    1    3    3    0    0 -0.31807088899E+02 -0.10416812606E+02  0.63831062249E+01  0.34072642023E+02  0.51100000000E-03 0. -1.
        -11    1    3    3    0    0 -0.68688167289E+01 -0.40384667662E+01 -0.59225248440E+00  0.79900325620E+01  0.51100000000E-03 0.  1.
         12    1    3    3    0    0 -0.39328264626E+01  0.71177525358E+00 -0.81837730134E+00  0.40796432938E+01  0.00000000000E+00 0. -1.
</event>
<event>
 7    1  0.2438448E-008  0.4614232E+02  0.7816164E-02  0.1320468E+00
        -11   -1    0    0    0    0  0.00000000000E+00  0.00000000000E+00  0.45593999997E+02  0.45594000000E+02  0.51100000000E-03 0.  1.
         11   -1    0    0    0    0 -0.00000000000E+00 -0.00000000000E+00 -0.45593999997E+02  0.45594000000E+02  0.51100000000E-03 0. -1.
    9900012    2    1    2    0    0 -0.26563949955E+02  0.33469886289E+01  0.36225235383E+02  0.46142318202E+02  0.10000004020E+02 0.  0.
         12    1    1    2    0    0  0.26563949955E+02 -0.33469886289E+01 -0.36225235383E+02  0.45045681798E+02  0.00000000000E+00 0. -1.
         11    1    3    3    0    0 -0.12877413501E+02  0.13050229046E+01  0.16463208144E+02  0.20942017236E+02  0.51100000000E-03 0. -1.
        -11    1    3    3    0    0 -0.91875902379E+01 -0.34881978146E+00  0.17187195428E+02  0.19491874629E+02  0.51100000000E-03 0.  1.
         12    1    3    3    0    0 -0.44989462160E+01  0.23907855058E+01  0.25748318117E+01  0.57084263372E+01  0.00000000000E+00 0. -1.
</event>
<event>
 7    1  0.2438448E-008  0.4614232E+02  0.7816164E-02  0.1320468E+00
        -11   -1    0    0    0    0  0.00000000000E+00  0.00000000000E+00  0.45593999997E+02  0.45594000000E+02  0.51100000000E-03 0. -1.
         11   -1    0    0    0    0 -0.00000000000E+00 -0.00000000000E+00 -0.45593999997E+02  0.45594000000E+02  0.51100000000E-03 0.  1.
    9900012    2    1    2    0    0  0.36593834373E+02 -0.20519039688E+02 -0.16400420357E+02  0.46142317724E+02  0.99999996592E+01 0.  0.
         12    1    1    2    0    0 -0.36593834373E+02  0.20519039688E+02  0.16400420357E+02  0.45045682276E+02  0.00000000000E+00 0. -1.
         11    1    3    3    0    0  0.42263481340E+01 -0.79039162943E+00  0.68420521548E+00  0.43537196184E+01  0.51100000000E-03 0. -1.
        -11    1    3    3    0    0  0.69270645900E+01 -0.39749017047E+01 -0.55198666166E+01  0.97083981749E+01  0.51100000000E-03 0.  1.
        -12    1    3    3    0    0  0.25440421649E+02 -0.15753746354E+02 -0.11564758955E+02  0.32080199930E+02  0.00000000000E+00 0.  1.
</event>
<event>
 7    1  0.2438448E-008  0.4614232E+02  0.7816164E-02  0.1320468E+00
        -11   -1    0    0    0    0  0.00000000000E+00  0.00000000000E+00  0.45593999997E+02  0.45594000000E+02  0.51100000000E-03 0.  1.
         11   -1    0    0    0    0 -0.00000000000E+00 -0.00000000000E+00 -0.45593999997E+02  0.45594000000E+02  0.51100000000E-03 0. -1.
    9900012    2    1    2    0    0 -0.38316648464E+02 -0.62387407700E+01  0.22847883925E+02  0.46142320565E+02  0.10000025567E+02 0.  0.
         12    1    1    2    0    0  0.38316648464E+02  0.62387407700E+01 -0.22847883925E+02  0.45045679435E+02  0.00000000000E+00 0. -1.
         11    1    3    3    0    0 -0.34510635778E+01  0.79030435008E+00  0.44492402715E+01  0.56859616635E+01  0.51100000000E-03 0. -1.
        -11    1    3    3    0    0 -0.46383551732E+01  0.88822732377E-01  0.43967241923E+01  0.63916673939E+01  0.51100000000E-03 0.  1.
         12    1    3    3    0    0 -0.30227229713E+02 -0.71178678525E+01  0.14001919461E+02  0.34064691507E+02  0.00000000000E+00 0. -1.
</event>
<event>
 7    1  0.2438448E-008  0.4614232E+02  0.7816164E-02  0.1320468E+00
        -11   -1    0    0    0    0  0.00000000000E+00  0.00000000000E+00  0.45593999997E+02  0.45594000000E+02  0.51100000000E-03 0.  1.
         11   -1    0    0    0    0 -0.00000000000E+00 -0.00000000000E+00 -0.45593999997E+02  0.45594000000E+02  0.51100000000E-03 0. -1.
    9900012    2    1    2    0    0 -0.62929122022E+01 -0.13438946789E+02  0.42531249586E+02  0.46142320672E+02  0.10000026543E+02 0.  0.
         12    1    1    2    0    0  0.62929122022E+01  0.13438946789E+02 -0.42531249586E+02  0.45045679328E+02  0.00000000000E+00 0. -1.
         11    1    3    3    0    0  0.18599333793E+01 -0.23685959285E+01  0.40783406173E+01  0.50697594913E+01  0.51100000000E-03 0. -1.
        -11    1    3    3    0    0 -0.21477443345E+01 -0.25601300851E+01  0.48298964175E+01  0.58732419875E+01  0.51100000000E-03 0.  1.
        -12    1    3    3    0    0 -0.60051012470E+01 -0.85102207751E+01  0.33623012551E+02  0.35199319193E+02  0.00000000000E+00 0.  1.
</event>
<event>
 7    1  0.2438448E-008  0.4614232E+02  0.7816164E-02  0.1320468E+00
        -11   -1    0    0    0    0  0.00000000000E+00  0.00000000000E+00  0.45593999997E+02  0.45594000000E+02  0.51100000000E-03 0.  1.
         11   -1    0    0    0    0 -0.00000000000E+00 -0.00000000000E+00 -0.45593999997E+02  0.45594000000E+02  0.51100000000E-03 0. -1.
    9900012    2    1    2    0    0  0.19269054907E+02 -0.40612062790E+02 -0.29115720342E+01  0.46142319044E+02  0.10000011698E+02 0.  0.
         12    1    1    2    0    0 -0.19269054907E+02  0.40612062790E+02  0.29115720342E+01  0.45045680956E+02  0.00000000000E+00 0. -1.
         11    1    3    3    0    0  0.10035808875E+02 -0.24397216038E+02 -0.21273994073E+01  0.26466345397E+02  0.51100000000E-03 0.  1.
        -11    1    3    3    0    0  0.41497624594E+01 -0.59467123987E+01  0.26408974578E+01  0.77173995922E+01  0.51100000000E-03 0. -1.
         12    1    3    3    0    0  0.50834835726E+01 -0.10268134354E+02 -0.34250700848E+01  0.11958574055E+02  0.00000000000E+00 0. -1.
</event>
<event>
 7    1  0.2438448E-008  0.4614232E+02  0.7816164E-02  0.1320468E+00
        -11   -1    0    0    0    0  0.00000000000E+00  0.00000000000E+00  0.45593999997E+02  0.45594000000E+02  0.51100000000E-03 0.  1.
         11   -1    0    0    0    0 -0.00000000000E+00 -0.00000000000E+00 -0.45593999997E+02  0.45594000000E+02  0.51100000000E-03 0. -1.
    9900012    2    1    2    0    0 -0.17162799099E+02  0.25294021540E+02  0.33087223255E+02  0.46142317173E+02  0.99999946392E+01 0.  0.
         12    1    1    2    0    0  0.17162799099E+02 -0.25294021540E+02 -0.33087223255E+02  0.45045682827E+02  0.00000000000E+00 0. -1.
         11    1    3    3    0    0 -0.20746872572E+01  0.18207643978E+01  0.39165529588E+01  0.47915443802E+01  0.51100000000E-03 0. -1.
        -11    1    3    3    0    0 -0.69514137425E+01  0.77003943389E+01  0.16699251422E+02  0.19659176592E+02  0.51100000000E-03 0.  1.
         12    1    3    3    0    0 -0.81366980997E+01  0.15772862803E+02  0.12471418875E+02  0.21691596201E+02  0.00000000000E+00 0. -1.
</event>
<event>
 7    1  0.2438448E-008  0.4614232E+02  0.7816164E-02  0.1320468E+00
        -11   -1    0    0    0    0  0.00000000000E+00  0.00000000000E+00  0.45593999997E+02  0.45594000000E+02  0.51100000000E-03 0. -1.
         11   -1    0    0    0    0 -0.00000000000E+00 -0.00000000000E+00 -0.45593999997E+02  0.45594000000E+02  0.51100000000E-03 0.  1.
    9900012    2    1    2    0    0  0.33765621378E+02  0.29801180971E+02 -0.94123555863E+00  0.46142317647E+02  0.99999989566E+01 0.  0.
         12    1    1    2    0    0 -0.33765621378E+02 -0.29801180971E+02  0.94123555863E+00  0.45045682353E+02  0.00000000000E+00 0. -1.
         11    1    3    3    0    0  0.87876898542E+00  0.35885203378E+01 -0.12710324143E+00  0.36967375670E+01  0.51100000000E-03 0. -1.
        -11    1    3    3    0    0  0.11695415805E+02  0.89680736562E+01 -0.29883045973E+01  0.15037920753E+02  0.51100000000E-03 0.  1.
        -12    1    3    3    0    0  0.21191436587E+02  0.17244586977E+02  0.21741722801E+01  0.27407659327E+02  0.00000000000E+00 0.  1.
</event>
<event>
 7    1  0.2438448E-008  0.4614232E+02  0.7816164E-02  0.1320468E+00
        -11   -1    0    0    0    0  0.00000000000E+00  0.00000000000E+00  0.45593999997E+02  0.45594000000E+02  0.51100000000E-03 0.  1.
         11   -1    0    0    0    0 -0.00000000000E+00 -0.00000000000E+00 -0.45593999997E+02  0.45594000000E+02  0.51100000000E-03 0. -1.
    9900012    2    1    2    0    0  0.10318170182E+01  0.38521864132E+02  0.23326269340E+02  0.46142317589E+02  0.99999984327E+01 0.  0.
         12    1    1    2    0    0 -0.10318170182E+01 -0.38521864132E+02 -0.23326269340E+02  0.45045682411E+02  0.00000000000E+00 0. -1.
         11    1    3    3    0    0 -0.16401614177E+01  0.19299910606E+02  0.78535787191E+01  0.20901085566E+02  0.51100000000E-03 0. -1.
        -11    1    3    3    0    0  0.15831567137E+01  0.19886435580E+01  0.30442659823E+01  0.39659354525E+01  0.51100000000E-03 0.  1.
        -12    1    3    3    0    0  0.10888217223E+01  0.17233309968E+02  0.12428424639E+02  0.21275296571E+02  0.00000000000E+00 0.  1.
</event>
<event>
 7    1  0.2438448E-008  0.4614232E+02  0.7816164E-02  0.1320468E+00
        -11   -1    0    0    0    0  0.00000000000E+00  0.00000000000E+00  0.45593999997E+02  0.45594000000E+02  0.51100000000E-03 0.  1.
         11   -1    0    0    0    0 -0.00000000000E+00 -0.00000000000E+00 -0.45593999997E+02  0.45594000000E+02  0.51100000000E-03 0. -1.
    9900012    2    1    2    0    0 -0.13326335234E+02  0.40542409316E+02  0.14416487544E+02  0.46142320107E+02  0.10000021395E+02 0.  0.
         12    1    1    2    0    0  0.13326335234E+02 -0.40542409316E+02 -0.14416487544E+02  0.45045679893E+02  0.00000000000E+00 0. -1.
         11    1    3    3    0    0 -0.15303457561E+01  0.15333783782E+01  0.23263170116E+01  0.31788297349E+01  0.51100000000E-03 0. -1.
        -11    1    3    3    0    0 -0.99773055462E+01  0.22780601339E+02  0.80647120141E+01  0.26144636227E+02  0.51100000000E-03 0.  1.
         12    1    3    3    0    0 -0.18186839315E+01  0.16228429598E+02  0.40254585179E+01  0.16818854145E+02  0.00000000000E+00 0. -1.
</event>
<event>
 7    1  0.2438448E-008  0.4614232E+02  0.7816164E-02  0.1320468E+00
        -11   -1    0    0    0    0  0.00000000000E+00  0.00000000000E+00  0.45593999997E+02  0.45594000000E+02  0.51100000000E-03 0.  1.
         11   -1    0    0    0    0 -0.00000000000E+00 -0.00000000000E+00 -0.45593999997E+02  0.45594000000E+02  0.51100000000E-03 0. -1.
    9900012    2    1    2    0    0 -0.18135479047E+02  0.26670829178E+02  0.31446536857E+02  0.46142318636E+02  0.10000007976E+02 0.  0.
         12    1    1    2    0    0  0.18135479047E+02 -0.26670829178E+02 -0.31446536857E+02  0.45045681364E+02  0.00000000000E+00 0. -1.
         11    1    3    3    0    0 -0.93325340371E+01  0.20466959107E+02  0.20044590122E+02  0.30129357777E+02  0.51100000000E-03 0. -1.
        -11    1    3    3    0    0 -0.54049476350E+01  0.53896295558E+01  0.67107091481E+01  0.10163423794E+02  0.51100000000E-03 0.  1.
         12    1    3    3    0    0 -0.33979973754E+01  0.81424051506E+00  0.46912375865E+01  0.58495370648E+01  0.00000000000E+00 0. -1.
</event>
<event>
 7    1  0.2438448E-008  0.4614232E+02  0.7816164E-02  0.1320468E+00
        -11   -1    0    0    0    0  0.00000000000E+00  0.00000000000E+00  0.45593999997E+02  0.45594000000E+02  0.51100000000E-03 0. -1.
         11   -1    0    0    0    0 -0.00000000000E+00 -0.00000000000E+00 -0.45593999997E+02  0.45594000000E+02  0.51100000000E-03 0.  1.
    9900012    2    1    2    0    0 -0.10205335610E+02  0.21746758769E+02 -0.38105684241E+02  0.46142316929E+02  0.99999924113E+01 0.  0.
         12    1    1    2    0    0  0.10205335610E+02 -0.21746758769E+02  0.38105684241E+02  0.45045683071E+02  0.00000000000E+00 0. -1.
         11    1    3    3    0    0  0.60934079436E+00  0.45719814453E+01 -0.57388069668E+01  0.73626229160E+01  0.51100000000E-03 0. -1.
        -11    1    3    3    0    0 -0.54942503827E+00  0.18978716937E+00 -0.46725991750E+01  0.47086166072E+01  0.51100000000E-03 0.  1.
        -12    1    3    3    0    0 -0.10265251366E+02  0.16984990155E+02 -0.27694278099E+02  0.34071077406E+02  0.00000000000E+00 0.  1.
</event>
<event>
 7    1  0.2891543E-008  0.4614232E+02  0.7816164E-02  0.1320468E+00
        -11   -1    0    0    0    0  0.00000000000E+00  0.00000000000E+00  0.45593999997E+02  0.45594000000E+02  0.51100000000E-03 0.  1.
         11   -1    0    0    0    0 -0.00000000000E+00 -0.00000000000E+00 -0.45593999997E+02  0.45594000000E+02  0.51100000000E-03 0. -1.
    9900012    2    1    2    0    0 -0.31616484786E+02 -0.30177079521E+02  0.10902072636E+02  0.46142318449E+02  0.10000006272E+02 0.  0.
         12    1    1    2    0    0  0.31616484786E+02  0.30177079521E+02 -0.10902072636E+02  0.45045681551E+02  0.00000000000E+00 0. -1.
         11    1    3    3    0    0 -0.94082298326E+01 -0.88072308657E+01  0.20595048050E+01  0.13050810872E+02  0.51100000000E-03 0. -1.
        -11    1    3    3    0    0 -0.22227676536E+02 -0.18407263892E+02  0.73856655964E+01  0.29790015521E+02  0.51100000000E-03 0.  1.
         12    1    3    3    0    0  0.19421582306E-01 -0.29625847636E+01  0.14569022345E+01  0.33014920567E+01  0.00000000000E+00 0. -1.
</event>
<event>
 7    1  0.2438448E-008  0.4614232E+02  0.7816164E-02  0.1320468E+00
        -11   -1    0    0    0    0  0.00000000000E+00  0.00000000000E+00  0.45593999997E+02  0.45594000000E+02  0.51100000000E-03 0.  1.
         11   -1    0    0    0    0 -0.00000000000E+00 -0.00000000000E+00 -0.45593999997E+02  0.45594000000E+02  0.51100000000E-03 0. -1.
    9900012    2    1    2    0    0 -0.15222557891E+02 -0.99128538903E+00  0.42384012731E+02  0.46142318180E+02  0.10000003820E+02 0.  0.
         12    1    1    2    0    0  0.15222557891E+02  0.99128538903E+00 -0.42384012731E+02  0.45045681820E+02  0.00000000000E+00 0. -1.
         11    1    3    3    0    0 -0.27687744020E+01 -0.86631876843E+00  0.14131650243E+02  0.14426370256E+02  0.51100000000E-03 0. -1.
        -11    1    3    3    0    0 -0.84950065480E+01  0.14634721930E+00  0.25522563564E+02  0.26899587449E+02  0.51100000000E-03 0.  1.
         12    1    3    3    0    0 -0.39587769412E+01 -0.27131383990E+00  0.27297989234E+01  0.48163604758E+01  0.00000000000E+00 0. -1.
</event>
<event>
 7    1  0.2438448E-008  0.4614232E+02  0.7816164E-02  0.1320468E+00
        -11   -1    0    0    0    0  0.00000000000E+00  0.00000000000E+00  0.45593999997E+02  0.45594000000E+02  0.51100000000E-03 0.  1.
         11   -1    0    0    0    0 -0.00000000000E+00 -0.00000000000E+00 -0.45593999997E+02  0.45594000000E+02  0.51100000000E-03 0. -1.
    9900012    2    1    2    0    0  0.24982409870E+02  0.67048001116E+01  0.36878697247E+02  0.46142318097E+02  0.10000003064E+02 0.  0.
         12    1    1    2    0    0 -0.24982409870E+02 -0.67048001116E+01 -0.36878697247E+02  0.45045681903E+02  0.00000000000E+00 0. -1.
         11    1    3    3    0    0  0.38489638286E+01  0.32396899280E+01  0.74638191114E+01  0.90010393495E+01  0.51100000000E-03 0. -1.
        -11    1    3    3    0    0  0.16903664115E+02  0.57621647638E+01  0.22854180174E+02  0.29004309248E+02  0.51100000000E-03 0.  1.
         12    1    3    3    0    0  0.42297819267E+01 -0.22970545802E+01  0.65606979619E+01  0.81369694997E+01  0.00000000000E+00 0. -1.
</event>
<event>
 7    1  0.2438448E-008  0.4614232E+02  0.7816164E-02  0.1320468E+00
        -11   -1    0    0    0    0  0.00000000000E+00  0.00000000000E+00  0.45593999997E+02  0.45594000000E+02  0.51100000000E-03 0.  1.
         11   -1    0    0    0    0 -0.00000000000E+00 -0.00000000000E+00 -0.45593999997E+02  0.45594000000E+02  0.51100000000E-03 0. -1.
    9900012    2    1    2    0    0  0.28550140719E+02 -0.34832491014E+02 -0.83698638315E+00  0.46142317504E+02  0.99999976528E+01 0.  0.
         12    1    1    2    0    0 -0.28550140719E+02  0.34832491014E+02  0.83698638315E+00  0.45045682496E+02  0.00000000000E+00 0. -1.
         11    1    3    3    0    0  0.10305902242E+02 -0.17393480714E+02 -0.40759640122E+01  0.20624215749E+02  0.51100000000E-03 0. -1.
        -11    1    3    3    0    0  0.50818667503E+01 -0.60565688013E+01  0.79748286512E+00  0.79462805446E+01  0.51100000000E-03 0.  1.
         12    1    3    3    0    0  0.13162371727E+02 -0.11382441499E+02  0.24414947639E+01  0.17571821210E+02  0.00000000000E+00 0. -1.
</event>
<event>
 7    1  0.2438448E-008  0.4614232E+02  0.7816164E-02  0.1320468E+00
        -11   -1    0    0    0    0  0.00000000000E+00  0.00000000000E+00  0.45593999997E+02  0.45594000000E+02  0.51100000000E-03 0. -1.
         11   -1    0    0    0    0 -0.00000000000E+00 -0.00000000000E+00 -0.45593999997E+02  0.45594000000E+02  0.51100000000E-03 0.  1.
    9900012    2    1    2    0    0  0.13949414581E+02  0.12994614272E+02 -0.40812587588E+02  0.46142317933E+02  0.10000001567E+02 0.  0.
         12    1    1    2    0    0 -0.13949414581E+02 -0.12994614272E+02  0.40812587588E+02  0.45045682067E+02  0.00000000000E+00 0. -1.
         11    1    3    3    0    0  0.15515567453E+01  0.89077809887E+00 -0.10636426353E+02  0.10785841635E+02  0.51100000000E-03 0. -1.
        -11    1    3    3    0    0  0.49006436168E+01  0.14362455778E+01 -0.11460425552E+02  0.12546731180E+02  0.51100000000E-03 0.  1.
         12    1    3    3    0    0  0.74972142186E+01  0.10667590595E+02 -0.18715735684E+02  0.22809745118E+02  0.00000000000E+00 0. -1.
</event>
<event>
 7    1  0.2438448E-008  0.4614232E+02  0.7816164E-02  0.1320468E+00
        -11   -1    0    0    0    0  0.00000000000E+00  0.00000000000E+00  0.45593999997E+02  0.45594000000E+02  0.51100000000E-03 0. -1.
         11   -1    0    0    0    0 -0.00000000000E+00 -0.00000000000E+00 -0.45593999997E+02  0.45594000000E+02  0.51100000000E-03 0.  1.
    9900012    2    1    2    0    0  0.57195596141E+00 -0.10920293004E+01 -0.45028811460E+02  0.46142317376E+02  0.99999964847E+01 0.  0.
         12    1    1    2    0    0 -0.57195596141E+00  0.10920293004E+01  0.45028811460E+02  0.45045682624E+02  0.00000000000E+00 0. -1.
         11    1    3    3    0    0  0.15863331014E+01  0.10475301343E+01 -0.19875172085E+02  0.19965876835E+02  0.51100000000E-03 0. -1.
        -11    1    3    3    0    0 -0.52253098177E+00 -0.23025869414E+01 -0.25463475908E+02  0.25572711058E+02  0.51100000000E-03 0.  1.
         12    1    3    3    0    0 -0.49184615820E+00  0.16302750671E+00  0.30983653384E+00  0.60372948328E+00  0.00000000000E+00 0. -1.
</event>
<event>
 7    1  0.2438448E-008  0.4614232E+02  0.7816164E-02  0.1320468E+00
        -11   -1    0    0    0    0  0.00000000000E+00  0.00000000000E+00  0.45593999997E+02  0.45594000000E+02  0.51100000000E-03 0.  1.
         11   -1    0    0    0    0 -0.00000000000E+00 -0.00000000000E+00 -0.45593999997E+02  0.45594000000E+02  0.51100000000E-03 0. -1.
    9900012    2    1    2    0    0 -0.24045075195E+02  0.16913247963E+02  0.34130483400E+02  0.46142317689E+02  0.99999993391E+01 0.  0.
         12    1    1    2    0    0  0.24045075195E+02 -0.16913247963E+02 -0.34130483400E+02  0.45045682311E+02  0.00000000000E+00 0. -1.
         11    1    3    3    0    0 -0.17629101220E+00  0.46478652534E-01 -0.29087671219E+00  0.34329041487E+00  0.51100000000E-03 0. -1.
        -11    1    3    3    0    0 -0.18820209717E+02  0.16515432427E+02  0.27076710787E+02  0.36879643021E+02  0.51100000000E-03 0.  1.
        -12    1    3    3    0    0 -0.50485744658E+01  0.35133688335E+00  0.73446493253E+01  0.89193842531E+01  0.00000000000E+00 0.  1.
</event>
<event>
 7    1  0.2438448E-008  0.4614232E+02  0.7816164E-02  0.1320468E+00
        -11   -1    0    0    0    0  0.00000000000E+00  0.00000000000E+00  0.45593999997E+02  0.45594000000E+02  0.51100000000E-03 0. -1.
         11   -1    0    0    0    0 -0.00000000000E+00 -0.00000000000E+00 -0.45593999997E+02  0.45594000000E+02  0.51100000000E-03 0.  1.
    9900012    2    1    2    0    0 -0.19915706773E+02  0.38013269706E+02 -0.13691947322E+02  0.46142317948E+02  0.10000001705E+02 0.  0.
         12    1    1    2    0    0  0.19915706773E+02 -0.38013269706E+02  0.13691947322E+02  0.45045682052E+02  0.00000000000E+00 0. -1.
         11    1    3    3    0    0 -0.65627850124E+00  0.23600361232E+01  0.17477538676E+00  0.24558132402E+01  0.51100000000E-03 0. -1.
        -11    1    3    3    0    0 -0.11243421033E+02  0.15851361117E+02 -0.28231226502E+01  0.19637978194E+02  0.51100000000E-03 0.  1.
        -12    1    3    3    0    0 -0.80160072384E+01  0.19801872466E+02 -0.11043600059E+02  0.24048526513E+02  0.00000000000E+00 0.  1.
</event>
<event>
 7    1  0.2438448E-008  0.4614232E+02  0.7816164E-02  0.1320468E+00
        -11   -1    0    0    0    0  0.00000000000E+00  0.00000000000E+00  0.45593999997E+02  0.45594000000E+02  0.51100000000E-03 0.  1.
         11   -1    0    0    0    0 -0.00000000000E+00 -0.00000000000E+00 -0.45593999997E+02  0.45594000000E+02  0.51100000000E-03 0. -1.
    9900012    2    1    2    0    0 -0.35716041175E+02  0.15232914485E+02  0.22834981146E+02  0.46142316024E+02  0.99999841621E+01 0.  0.
         12    1    1    2    0    0  0.35716041175E+02 -0.15232914485E+02 -0.22834981146E+02  0.45045683976E+02  0.00000000000E+00 0. -1.
         11    1    3    3    0    0 -0.63308889126E+01  0.65097647953E+00  0.41090491001E+01  0.75755006150E+01  0.51100000000E-03 0. -1.
        -11    1    3    3    0    0 -0.54167807712E+01  0.37831724098E+01  0.74616831693E+01  0.99664749729E+01  0.51100000000E-03 0.  1.
         12    1    3    3    0    0 -0.23968371491E+02  0.10798765596E+02  0.11264248877E+02  0.28600340436E+02  0.00000000000E+00 0. -1.
</event>
<event>
 7    1  0.2438448E-008  0.4614232E+02  0.7816164E-02  0.1320468E+00
        -11   -1    0    0    0    0  0.00000000000E+00  0.00000000000E+00  0.45593999997E+02  0.45594000000E+02  0.51100000000E-03 0.  1.
         11   -1    0    0    0    0 -0.00000000000E+00 -0.00000000000E+00 -0.45593999997E+02  0.45594000000E+02  0.51100000000E-03 0. -1.
    9900012    2    1    2    0    0 -0.45795853546E+01  0.29018634143E+02  0.34147617328E+02  0.46142317646E+02  0.99999989546E+01 0.  0.
         12    1    1    2    0    0  0.45795853546E+01 -0.29018634143E+02 -0.34147617328E+02  0.45045682354E+02  0.00000000000E+00 0. -1.
         11    1    3    3    0    0 -0.17507766745E+01  0.31576978253E+01  0.88343531981E+01  0.95436927449E+01  0.51100000000E-03 0. -1.
        -11    1    3    3    0    0  0.11415563363E+01  0.82098097498E+01  0.90366965346E+01  0.12262381967E+02  0.51100000000E-03 0.  1.
        -12    1    3    3    0    0 -0.39703650164E+01  0.17651126567E+02  0.16276567595E+02  0.24336242934E+02  0.00000000000E+00 0.  1.
</event>
<event>
 7    1  0.2438448E-008  0.4614232E+02  0.7816164E-02  0.1320468E+00
        -11   -1    0    0    0    0  0.00000000000E+00  0.00000000000E+00  0.45593999997E+02  0.45594000000E+02  0.51100000000E-03 0.  1.
         11   -1    0    0    0    0 -0.00000000000E+00 -0.00000000000E+00 -0.45593999997E+02  0.45594000000E+02  0.51100000000E-03 0. -1.
    9900012    2    1    2    0    0  0.32441443063E+01 -0.29111666615E+02  0.34221339874E+02  0.46142315321E+02  0.99999777492E+01 0.  0.
         12    1    1    2    0    0 -0.32441443063E+01  0.29111666615E+02 -0.34221339874E+02  0.45045684679E+02  0.00000000000E+00 0. -1.
         11    1    3    3    0    0 -0.13415169734E+01 -0.16231622931E+01  0.23131904805E+01  0.31281262890E+01  0.51100000000E-03 0. -1.
        -11    1    3    3    0    0  0.49877708945E+01 -0.85202428107E+01  0.10784955654E+02  0.14621479569E+02  0.51100000000E-03 0.  1.
         12    1    3    3    0    0 -0.40210961483E+00 -0.18968261512E+02  0.21123193740E+02  0.28392709463E+02  0.00000000000E+00 0. -1.
</event>
<event>
 7    1  0.2438448E-008  0.4614232E+02  0.7816164E-02  0.1320468E+00
        -11   -1    0    0    0    0  0.00000000000E+00  0.00000000000E+00  0.45593999997E+02  0.45594000000E+02  0.51100000000E-03 0.  1.
         11   -1    0    0    0    0 -0.00000000000E+00 -0.00000000000E+00 -0.45593999997E+02  0.45594000000E+02  0.51100000000E-03 0. -1.
    9900012    2    1    2    0    0  0.48006061475E+01  0.26533628068E+02  0.36083711504E+02  0.46142317923E+02  0.10000001480E+02 0.  0.
         12    1    1    2    0    0 -0.48006061475E+01 -0.26533628068E+02 -0.36083711504E+02  0.45045682077E+02  0.00000000000E+00 0. -1.
         11    1    3    3    0    0 -0.59508004220E+00 -0.68376758546E+00  0.18750927133E+01  0.20826980848E+01  0.51100000000E-03 0. -1.
        -11    1    3    3    0    0  0.21904769087E+01  0.13723371306E+02  0.17277855433E+02  0.22173258618E+02  0.51100000000E-03 0.  1.
         12    1    3    3    0    0  0.32052092810E+01  0.13494024347E+02  0.16930763358E+02  0.21886361221E+02  0.00000000000E+00 0. -1.
</event>
<event>
 7    1  0.2438448E-008  0.4614232E+02  0.7816164E-02  0.1320468E+00
        -11   -1    0    0    0    0  0.00000000000E+00  0.00000000000E+00  0.45593999997E+02  0.45594000000E+02  0.51100000000E-03 0.  1.
         11   -1    0    0    0    0 -0.00000000000E+00 -0.00000000000E+00 -0.45593999997E+02  0.45594000000E+02  0.51100000000E-03 0. -1.
    9900012    2    1    2    0    0 -0.32688275880E+02  0.16973466993E+02  0.25932441524E+02  0.46142317797E+02  0.10000000327E+02 0.  0.
         12    1    1    2    0    0  0.32688275880E+02 -0.16973466993E+02 -0.25932441524E+02  0.45045682203E+02  0.00000000000E+00 0. -1.
         11    1    3    3    0    0 -0.95074284619E+01  0.40546852071E+01  0.12201503322E+02  0.15990883393E+02  0.51100000000E-03 0. -1.
        -11    1    3    3    0    0 -0.14466226844E+02  0.57804793047E+01  0.80051483429E+01  0.17514795470E+02  0.51100000000E-03 0.  1.
         12    1    3    3    0    0 -0.87146205735E+01  0.71383024812E+01  0.57257898586E+01  0.12636638934E+02  0.00000000000E+00 0. -1.
</event>
<event>
 7    1  0.2438448E-008  0.4614232E+02  0.7816164E-02  0.1320468E+00
        -11   -1    0    0    0    0  0.00000000000E+00  0.00000000000E+00  0.45593999997E+02  0.45594000000E+02  0.51100000000E-03 0.  1.
         11   -1    0    0    0    0 -0.00000000000E+00 -0.00000000000E+00 -0.45593999997E+02  0.45594000000E+02  0.51100000000E-03 0. -1.
    9900012    2    1    2    0    0  0.37313236615E+02 -0.22315359640E+02  0.11783913225E+02  0.46142317483E+02  0.99999974613E+01 0.  0.
         12    1    1    2    0    0 -0.37313236615E+02  0.22315359640E+02 -0.11783913225E+02  0.45045682517E+02  0.00000000000E+00 0. -1.
         11    1    3    3    0    0 -0.24114895994E+00 -0.11992407529E+01  0.71922047610E-01  0.12253588235E+01  0.51100000000E-03 0. -1.
        -11    1    3    3    0    0  0.17565877005E+02 -0.80503506526E+01  0.71620524413E+01  0.20607357327E+02  0.51100000000E-03 0.  1.
         12    1    3    3    0    0  0.19988508570E+02 -0.13065768235E+02  0.45499387360E+01  0.24309601332E+02  0.00000000000E+00 0. -1.
</event>
<event>
 7    1  0.2438448E-008  0.4614232E+02  0.7816164E-02  0.1320468E+00
        -11   -1    0    0    0    0  0.00000000000E+00  0.00000000000E+00  0.45593999997E+02  0.45594000000E+02  0.51100000000E-03 0. -1.
         11   -1    0    0    0    0 -0.00000000000E+00 -0.00000000000E+00 -0.45593999997E+02  0.45594000000E+02  0.51100000000E-03 0.  1.
    9900012    2    1    2    0    0  0.43385954929E+02 -0.29097270949E+01 -0.11760348736E+02  0.46142318750E+02  0.10000009015E+02 0.  0.
         12    1    1    2    0    0 -0.43385954929E+02  0.29097270949E+01  0.11760348736E+02  0.45045681250E+02  0.00000000000E+00 0. -1.
         11    1    3    3    0    0  0.35209449002E+01  0.83004328175E+00 -0.86909491289E-01  0.36185049897E+01  0.51100000000E-03 0. -1.
        -11    1    3    3    0    0  0.18539665199E+02  0.19470748532E+01 -0.73239021605E+01  0.20028725104E+02  0.51100000000E-03 0.  1.
         12    1    3    3    0    0  0.21325344830E+02 -0.56868452298E+01 -0.43495370842E+01  0.22495088656E+02  0.00000000000E+00 0. -1.
</event>
<event>
 7    1  0.2438448E-008  0.4614232E+02  0.7816164E-02  0.1320468E+00
        -11   -1    0    0    0    0  0.00000000000E+00  0.00000000000E+00  0.45593999997E+02  0.45594000000E+02  0.51100000000E-03 0. -1.
         11   -1    0    0    0    0 -0.00000000000E+00 -0.00000000000E+00 -0.45593999997E+02  0.45594000000E+02  0.51100000000E-03 0.  1.
    9900012    2    1    2    0    0 -0.15321849372E+02  0.40428172852E+02  0.12645837449E+02  0.46142318374E+02  0.10000005589E+02 0.  0.
         12    1    1    2    0    0  0.15321849372E+02 -0.40428172852E+02 -0.12645837449E+02  0.45045681626E+02  0.00000000000E+00 0. -1.
         11    1    3    3    0    0 -0.19097384156E+01  0.16471825249E+02  0.44930554144E+01  0.17180095316E+02  0.51100000000E-03 0. -1.
        -11    1    3    3    0    0 -0.14678074687E+01  0.34110525445E+01 -0.33132711047E+00  0.37282054855E+01  0.51100000000E-03 0.  1.
        -12    1    3    3    0    0 -0.11944303488E+02  0.20545295059E+02  0.84841091452E+01  0.25234017573E+02  0.00000000000E+00 0.  1.
</event>
<event>
 7    1  0.2438448E-008  0.4614231E+02  0.7816164E-02  0.1320468E+00
        -11   -1    0    0    0    0  0.00000000000E+00  0.00000000000E+00  0.45593999997E+02  0.45594000000E+02  0.51100000000E-03 0.  1.
         11   -1    0    0    0    0 -0.00000000000E+00 -0.00000000000E+00 -0.45593999997E+02  0.45594000000E+02  0.51100000000E-03 0. -1.
    9900012    2    1    2    0    0  0.12607432317E+02 -0.35711432013E+02  0.24389767658E+02  0.46142306616E+02  0.99998983689E+01 0.  0.
         12    1    1    2    0    0 -0.12607432317E+02  0.35711432013E+02 -0.24389767658E+02  0.45045693384E+02  0.00000000000E+00 0. -1.
         11    1    3    3    0    0  0.18333981968E+01 -0.85565920019E+00  0.15155880805E+00  0.20289090537E+01  0.51100000000E-03 0. -1.
        -11    1    3    3    0    0  0.27521132763E+01 -0.11939292573E+02  0.10964085075E+02  0.16441775951E+02  0.51100000000E-03 0.  1.
        -12    1    3    3    0    0  0.80219208436E+01 -0.22916480240E+02  0.13274123775E+02  0.27671621611E+02  0.00000000000E+00 0.  1.
</event>
<event>
 7    1  0.2438448E-008  0.4614232E+02  0.7816164E-02  0.1320468E+00
        -11   -1    0    0    0    0  0.00000000000E+00  0.00000000000E+00  0.45593999997E+02  0.45594000000E+02  0.51100000000E-03 0.  1.
         11   -1    0    0    0    0 -0.00000000000E+00 -0.00000000000E+00 -0.45593999997E+02  0.45594000000E+02  0.51100000000E-03 0. -1.
    9900012    2    1    2    0    0  0.38656952149E+02 -0.73904453583E+01  0.21911980848E+02  0.46142317225E+02  0.99999951069E+01 0.  0.
         12    1    1    2    0    0 -0.38656952149E+02  0.73904453583E+01 -0.21911980848E+02  0.45045682775E+02  0.00000000000E+00 0. -1.
         11    1    3    3    0    0  0.28595040633E+02 -0.50440877859E+01  0.16038387701E+02  0.33171509623E+02  0.51100000000E-03 0. -1.
        -11    1    3    3    0    0  0.97653973339E+01 -0.33288435173E+01  0.60028713001E+01  0.11936442031E+02  0.51100000000E-03 0.  1.
         12    1    3    3    0    0  0.29651418219E+00  0.98248594494E+00 -0.12927815305E+00  0.10343655703E+01  0.00000000000E+00 0. -1.
</event>
<event>
 7    1  0.2438448E-008  0.4614232E+02  0.7816164E-02  0.1320468E+00
        -11   -1    0    0    0    0  0.00000000000E+00  0.00000000000E+00  0.45593999997E+02  0.45594000000E+02  0.51100000000E-03 0.  1.
         11   -1    0    0    0    0 -0.00000000000E+00 -0.00000000000E+00 -0.45593999997E+02  0.45594000000E+02  0.51100000000E-03 0. -1.
    9900012    2    1    2    0    0  0.71337350719E+01  0.34948912317E+02  0.27509940666E+02  0.46142317813E+02  0.10000000474E+02 0.  0.
         12    1    1    2    0    0 -0.71337350719E+01 -0.34948912317E+02 -0.27509940666E+02  0.45045682187E+02  0.00000000000E+00 0. -1.
         11    1    3    3    0    0 -0.58458951577E+00  0.43293582507E+01  0.21405852602E+01  0.48648939641E+01  0.51100000000E-03 0. -1.
        -11    1    3    3    0    0  0.14012289211E+01  0.16734581350E+02  0.16921300671E+02  0.23839884062E+02  0.51100000000E-03 0.  1.
        -12    1    3    3    0    0  0.63170956666E+01  0.13884972717E+02  0.84480547348E+01  0.17437539787E+02  0.00000000000E+00 0.  1.
</event>
<event>
 7    1  0.2438448E-008  0.4614232E+02  0.7816164E-02  0.1320468E+00
        -11   -1    0    0    0    0  0.00000000000E+00  0.00000000000E+00  0.45593999997E+02  0.45594000000E+02  0.51100000000E-03 0. -1.
         11   -1    0    0    0    0 -0.00000000000E+00 -0.00000000000E+00 -0.45593999997E+02  0.45594000000E+02  0.51100000000E-03 0.  1.
    9900012    2    1    2    0    0  0.82019511994E+00  0.32314684533E+02 -0.31371993048E+02  0.46142317584E+02  0.99999983880E+01 0.  0.
         12    1    1    2    0    0 -0.82019511994E+00 -0.32314684533E+02  0.31371993048E+02  0.45045682416E+02  0.00000000000E+00 0. -1.
         11    1    3    3    0    0  0.11076361605E+01  0.28896833155E+01 -0.77511249350E+01  0.83460808495E+01  0.51100000000E-03 0. -1.
        -11    1    3    3    0    0 -0.36791060234E+00  0.79762995987E+00 -0.67818403148E+00  0.11097322226E+01  0.51100000000E-03 0.  1.
        -12    1    3    3    0    0  0.80469561797E-01  0.28627371257E+02 -0.22942684082E+02  0.36686504512E+02  0.00000000000E+00 0.  1.
</event>
<event>
 7    1  0.2438448E-008  0.4614232E+02  0.7816164E-02  0.1320468E+00
        -11   -1    0    0    0    0  0.00000000000E+00  0.00000000000E+00  0.45593999997E+02  0.45594000000E+02  0.51100000000E-03 0.  1.
         11   -1    0    0    0    0 -0.00000000000E+00 -0.00000000000E+00 -0.45593999997E+02  0.45594000000E+02  0.51100000000E-03 0. -1.
    9900012    2    1    2    0    0 -0.66961340126E+01  0.26642782586E+02  0.35699263758E+02  0.46142317548E+02  0.99999980607E+01 0.  0.
         12    1    1    2    0    0  0.66961340126E+01 -0.26642782586E+02 -0.35699263758E+02  0.45045682452E+02  0.00000000000E+00 0. -1.
         11    1    3    3    0    0 -0.11237864830E+01  0.94323000582E+01  0.15847815638E+02  0.18476591710E+02  0.51100000000E-03 0. -1.
        -11    1    3    3    0    0 -0.20530305533E+01  0.74246703825E+01  0.13314745748E+02  0.15382558933E+02  0.51100000000E-03 0.  1.
        -12    1    3    3    0    0 -0.35193169763E+01  0.97858121453E+01  0.65367023721E+01  0.12283166905E+02  0.00000000000E+00 0.  1.
</event>
<event>
 7    1  0.2438448E-008  0.4614232E+02  0.7816164E-02  0.1320468E+00
        -11   -1    0    0    0    0  0.00000000000E+00  0.00000000000E+00  0.45593999997E+02  0.45594000000E+02  0.51100000000E-03 0. -1.
         11   -1    0    0    0    0 -0.00000000000E+00 -0.00000000000E+00 -0.45593999997E+02  0.45594000000E+02  0.51100000000E-03 0.  1.
    9900012    2    1    2    0    0 -0.54495818990E+01  0.33685401909E+00 -0.44713555586E+02  0.46142318002E+02  0.10000002200E+02 0.  0.
         12    1    1    2    0    0  0.54495818990E+01 -0.33685401909E+00  0.44713555586E+02  0.45045681998E+02  0.00000000000E+00 0. -1.
         11    1    3    3    0    0 -0.17557876774E+01  0.74198941119E+00 -0.44004882444E+01  0.47955850222E+01  0.51100000000E-03 0. -1.
        -11    1    3    3    0    0 -0.81667682814E+00  0.25351693172E+01 -0.40264011491E+01  0.48276237408E+01  0.51100000000E-03 0.  1.
        -12    1    3    3    0    0 -0.28771173934E+01 -0.29403047092E+01 -0.36286666192E+02  0.36519109239E+02  0.00000000000E+00 0.  1.
</event>
<event>
 7    1  0.2438448E-008  0.4614232E+02  0.7816164E-02  0.1320468E+00
        -11   -1    0    0    0    0  0.00000000000E+00  0.00000000000E+00  0.45593999997E+02  0.45594000000E+02  0.51100000000E-03 0.  1.
         11   -1    0    0    0    0 -0.00000000000E+00 -0.00000000000E+00 -0.45593999997E+02  0.45594000000E+02  0.51100000000E-03 0. -1.
    9900012    2    1    2    0    0  0.63210321684E+01 -0.41311205063E+02  0.16808997793E+02  0.46142317430E+02  0.99999969808E+01 0.  0.
         12    1    1    2    0    0 -0.63210321684E+01  0.41311205063E+02 -0.16808997793E+02  0.45045682570E+02  0.00000000000E+00 0. -1.
         11    1    3    3    0    0  0.10714350229E+01 -0.13908131032E+01  0.59773545594E-01  0.17566750508E+01  0.51100000000E-03 0. -1.
        -11    1    3    3    0    0  0.40959659576E+01 -0.10352260544E+02  0.19574093238E+01  0.11303879290E+02  0.51100000000E-03 0.  1.
        -12    1    3    3    0    0  0.11536311879E+01 -0.29568131416E+02  0.14791814923E+02  0.33081763089E+02  0.00000000000E+00 0.  1.
</event>
<event>
 7    1  0.2438448E-008  0.4614232E+02  0.7816164E-02  0.1320468E+00
        -11   -1    0    0    0    0  0.00000000000E+00  0.00000000000E+00  0.45593999997E+02  0.45594000000E+02  0.51100000000E-03 0.  1.
         11   -1    0    0    0    0 -0.00000000000E+00 -0.00000000000E+00 -0.45593999997E+02  0.45594000000E+02  0.51100000000E-03 0. -1.
    9900012    2    1    2    0    0  0.32503151673E+02 -0.27099257316E+02  0.15436608476E+02  0.46142317665E+02  0.99999991277E+01 0.  0.
         12    1    1    2    0    0 -0.32503151673E+02  0.27099257316E+02 -0.15436608476E+02  0.45045682335E+02  0.00000000000E+00 0. -1.
         11    1    3    3    0    0 -0.42777621298E+00 -0.12550199420E+00  0.40764641053E+00  0.60408533841E+00  0.51100000000E-03 0. -1.
        -11    1    3    3    0    0  0.10216311035E+02 -0.55913879889E+01  0.24448272503E+01  0.11900160139E+02  0.51100000000E-03 0.  1.
        -12    1    3    3    0    0  0.22714616851E+02 -0.21382367333E+02  0.12584134815E+02  0.33638072188E+02  0.00000000000E+00 0.  1.
</event>
<event>
 7    1  0.2438448E-008  0.4614232E+02  0.7816164E-02  0.1320468E+00
        -11   -1    0    0    0    0  0.00000000000E+00  0.00000000000E+00  0.45593999997E+02  0.45594000000E+02  0.51100000000E-03 0.  1.
         11   -1    0    0    0    0 -0.00000000000E+00 -0.00000000000E+00 -0.45593999997E+02  0.45594000000E+02  0.51100000000E-03 0. -1.
    9900012    2    1    2    0    0  0.25714216129E+02 -0.36601955261E+02  0.53093962450E+01  0.46142315096E+02  0.99999756935E+01 0.  0.
         12    1    1    2    0    0 -0.25714216129E+02  0.36601955261E+02 -0.53093962450E+01  0.45045684904E+02  0.00000000000E+00 0. -1.
         11    1    3    3    0    0  0.13593303174E+02 -0.21639033185E+02  0.51733157751E+01  0.26072760589E+02  0.51100000000E-03 0. -1.
        -11    1    3    3    0    0  0.85114430723E+01 -0.12481669634E+02  0.21301573703E+01  0.15256943033E+02  0.51100000000E-03 0.  1.
         12    1    3    3    0    0  0.36094698827E+01 -0.24812524417E+01 -0.19940769003E+01  0.48126114738E+01  0.00000000000E+00 0. -1.
</event>
<event>
 7    1  0.2438448E-008  0.4614232E+02  0.7816164E-02  0.1320468E+00
        -11   -1    0    0    0    0  0.00000000000E+00  0.00000000000E+00  0.45593999997E+02  0.45594000000E+02  0.51100000000E-03 0. -1.
         11   -1    0    0    0    0 -0.00000000000E+00 -0.00000000000E+00 -0.45593999997E+02  0.45594000000E+02  0.51100000000E-03 0.  1.
    9900012    2    1    2    0    0  0.67538409340E-02 -0.34189359810E+02 -0.29329184216E+02  0.46142318558E+02  0.10000007265E+02 0.  0.
         12    1    1    2    0    0 -0.67538409340E-02  0.34189359810E+02  0.29329184216E+02  0.45045681442E+02  0.00000000000E+00 0. -1.
         11    1    3    3    0    0  0.34002377178E+00  0.49510198347E+00 -0.33462484653E+00  0.68754359021E+00  0.51100000000E-03 0. -1.
        -11    1    3    3    0    0 -0.11398113701E+01 -0.16395733187E+02 -0.16513578077E+02  0.23298444108E+02  0.51100000000E-03 0.  1.
         12    1    3    3    0    0  0.80654143929E+00 -0.18288728606E+02 -0.12480981293E+02  0.22156330860E+02  0.00000000000E+00 0. -1.
</event>
<event>
 7    1  0.2438448E-008  0.4614232E+02  0.7816164E-02  0.1320468E+00
        -11   -1    0    0    0    0  0.00000000000E+00  0.00000000000E+00  0.45593999997E+02  0.45594000000E+02  0.51100000000E-03 0. -1.
         11   -1    0    0    0    0 -0.00000000000E+00 -0.00000000000E+00 -0.45593999997E+02  0.45594000000E+02  0.51100000000E-03 0.  1.
    9900012    2    1    2    0    0  0.44123873421E+02  0.81074560066E+01  0.40578908482E+01  0.46142317336E+02  0.99999961233E+01 0.  0.
         12    1    1    2    0    0 -0.44123873421E+02 -0.81074560066E+01 -0.40578908482E+01  0.45045682664E+02  0.00000000000E+00 0. -1.
         11    1    3    3    0    0  0.85269451639E+01 -0.86470310713E+00  0.73457356094E-01  0.85709918641E+01  0.51100000000E-03 0. -1.
        -11    1    3    3    0    0  0.26925731093E+02  0.87216708892E+01  0.74950990629E+00  0.28312970585E+02  0.51100000000E-03 0.  1.
         12    1    3    3    0    0  0.86711971635E+01  0.25048822456E+00  0.32349235859E+01  0.92583548866E+01  0.00000000000E+00 0. -1.
</event>
<event>
 7    1  0.2438448E-008  0.4614232E+02  0.7816164E-02  0.1320468E+00
        -11   -1    0    0    0    0  0.00000000000E+00  0.00000000000E+00  0.45593999997E+02  0.45594000000E+02  0.51100000000E-03 0. -1.
         11   -1    0    0    0    0 -0.00000000000E+00 -0.00000000000E+00 -0.45593999997E+02  0.45594000000E+02  0.51100000000E-03 0.  1.
    9900012    2    1    2    0    0  0.40073964349E+02 -0.16563179260E+02  0.12200491910E+02  0.46142317313E+02  0.99999959154E+01 0.  0.
         12    1    1    2    0    0 -0.40073964349E+02  0.16563179260E+02 -0.12200491910E+02  0.45045682687E+02  0.00000000000E+00 0. -1.
         11    1    3    3    0    0  0.95418659673E+01 -0.22241644621E-01  0.18510771744E+01  0.97197833204E+01  0.51100000000E-03 0. -1.
        -11    1    3    3    0    0  0.29939322360E+01 -0.23609964293E+01  0.16419109603E+00  0.38163979549E+01  0.51100000000E-03 0.  1.
         12    1    3    3    0    0  0.27538166146E+02 -0.14179941186E+02  0.10185223640E+02  0.32606136038E+02  0.00000000000E+00 0. -1.
</event>
<event>
 7    1  0.2438448E-008  0.4614232E+02  0.7816164E-02  0.1320468E+00
        -11   -1    0    0    0    0  0.00000000000E+00  0.00000000000E+00  0.45593999997E+02  0.45594000000E+02  0.51100000000E-03 0.  1.
         11   -1    0    0    0    0 -0.00000000000E+00 -0.00000000000E+00 -0.45593999997E+02  0.45594000000E+02  0.51100000000E-03 0. -1.
    9900012    2    1    2    0    0  0.68677705852E+01  0.39315962924E+02  0.20885454124E+02  0.46142318660E+02  0.10000008195E+02 0.  0.
         12    1    1    2    0    0 -0.68677705852E+01 -0.39315962924E+02 -0.20885454124E+02  0.45045681340E+02  0.00000000000E+00 0. -1.
         11    1    3    3    0    0  0.31000750889E+01  0.58642190687E+01  0.19839516743E+01  0.69235536648E+01  0.51100000000E-03 0. -1.
        -11    1    3    3    0    0  0.54947369527E+01  0.30007204845E+02  0.16969737007E+02  0.34908400868E+02  0.51100000000E-03 0.  1.
        -12    1    3    3    0    0 -0.17270414564E+01  0.34445390102E+01  0.19317654426E+01  0.43103641273E+01  0.00000000000E+00 0.  1.
</event>
<event>
 7    1  0.2438448E-008  0.4614232E+02  0.7816164E-02  0.1320468E+00
        -11   -1    0    0    0    0  0.00000000000E+00  0.00000000000E+00  0.45593999997E+02  0.45594000000E+02  0.51100000000E-03 0.  1.
         11   -1    0    0    0    0 -0.00000000000E+00 -0.00000000000E+00 -0.45593999997E+02  0.45594000000E+02  0.51100000000E-03 0. -1.
    9900012    2    1    2    0    0  0.39294954154E+02 -0.46465018083E+00  0.22018268235E+02  0.46142318101E+02  0.10000003097E+02 0.  0.
         12    1    1    2    0    0 -0.39294954154E+02  0.46465018083E+00 -0.22018268235E+02  0.45045681899E+02  0.00000000000E+00 0. -1.
         11    1    3    3    0    0  0.17175223366E+02  0.10452648639E+01  0.13200832346E+02  0.21687389221E+02  0.51100000000E-03 0. -1.
        -11    1    3    3    0    0  0.44706564520E+01 -0.23492522438E+01  0.28867417289E+01  0.58171327377E+01  0.51100000000E-03 0.  1.
         12    1    3    3    0    0  0.17649074335E+02  0.83933719911E+00  0.59306941595E+01  0.18637796142E+02  0.00000000000E+00 0. -1.
</event>
<event>
 7    1  0.2438448E-008  0.4614232E+02  0.7816164E-02  0.1320468E+00
        -11   -1    0    0    0    0  0.00000000000E+00  0.00000000000E+00  0.45593999997E+02  0.45594000000E+02  0.51100000000E-03 0.  1.
         11   -1    0    0    0    0 -0.00000000000E+00 -0.00000000000E+00 -0.45593999997E+02  0.45594000000E+02  0.51100000000E-03 0. -1.
    9900012    2    1    2    0    0  0.37775286877E+02  0.15780420100E+01  0.24487772806E+02  0.46142317274E+02  0.99999955619E+01 0.  0.
         12    1    1    2    0    0 -0.37775286877E+02 -0.15780420100E+01 -0.24487772806E+02  0.45045682726E+02  0.00000000000E+00 0. -1.
         11    1    3    3    0    0  0.35325276456E+01  0.30654889117E+01  0.24191722422E+01  0.52657732987E+01  0.51100000000E-03 0. -1.
        -11    1    3    3    0    0  0.18062749992E+01 -0.27675156565E+00  0.20252470450E+01  0.27277915346E+01  0.51100000000E-03 0.  1.
        -12    1    3    3    0    0  0.32436484232E+02 -0.12106953361E+01  0.20043353519E+02  0.38148752441E+02  0.00000000000E+00 0.  1.
</event>
<event>
 7    1  0.2438448E-008  0.4614232E+02  0.7816164E-02  0.1320468E+00
        -11   -1    0    0    0    0  0.00000000000E+00  0.00000000000E+00  0.45593999997E+02  0.45594000000E+02  0.51100000000E-03 0.  1.
         11   -1    0    0    0    0 -0.00000000000E+00 -0.00000000000E+00 -0.45593999997E+02  0.45594000000E+02  0.51100000000E-03 0. -1.
    9900012    2    1    2    0    0 -0.14317675655E+02 -0.21473110687E+02  0.36919144357E+02  0.46142317201E+02  0.99999948947E+01 0.  0.
         12    1    1    2    0    0  0.14317675655E+02  0.21473110687E+02 -0.36919144357E+02  0.45045682799E+02  0.00000000000E+00 0. -1.
         11    1    3    3    0    0 -0.61593593414E+01 -0.11313169811E+02  0.20996066108E+02  0.24632505170E+02  0.51100000000E-03 0. -1.
        -11    1    3    3    0    0 -0.74411376132E+01 -0.44090977388E+01  0.10035051496E+02  0.13248129326E+02  0.51100000000E-03 0.  1.
         12    1    3    3    0    0 -0.71717870018E+00 -0.57508431372E+01  0.58880267527E+01  0.82616827049E+01  0.00000000000E+00 0. -1.
</event>
<event>
 7    1  0.2438448E-008  0.4614232E+02  0.7816164E-02  0.1320468E+00
        -11   -1    0    0    0    0  0.00000000000E+00  0.00000000000E+00  0.45593999997E+02  0.45594000000E+02  0.51100000000E-03 0.  1.
         11   -1    0    0    0    0 -0.00000000000E+00 -0.00000000000E+00 -0.45593999997E+02  0.45594000000E+02  0.51100000000E-03 0. -1.
    9900012    2    1    2    0    0  0.35276179318E+02  0.10853463080E+01  0.27991547845E+02  0.46142317025E+02  0.99999932910E+01 0.  0.
         12    1    1    2    0    0 -0.35276179318E+02 -0.10853463080E+01 -0.27991547845E+02  0.45045682975E+02  0.00000000000E+00 0. -1.
         11    1    3    3    0    0  0.99379004531E+01  0.40566446356E+01  0.84066807656E+01  0.13634167113E+02  0.51100000000E-03 0. -1.
        -11    1    3    3    0    0  0.68543817806E+01 -0.44811265397E+00  0.80175193581E+01  0.10557649902E+02  0.51100000000E-03 0.  1.
        -12    1    3    3    0    0  0.18483897084E+02 -0.25231856736E+01  0.11567347722E+02  0.21950500010E+02  0.00000000000E+00 0.  1.
</event>
<event>
 7    1  0.2438448E-008  0.4614232E+02  0.7816164E-02  0.1320468E+00
        -11   -1    0    0    0    0  0.00000000000E+00  0.00000000000E+00  0.45593999997E+02  0.45594000000E+02  0.51100000000E-03 0.  1.
         11   -1    0    0    0    0 -0.00000000000E+00 -0.00000000000E+00 -0.45593999997E+02  0.45594000000E+02  0.51100000000E-03 0. -1.
    9900012    2    1    2    0    0 -0.39127004101E+02 -0.18864418921E+02  0.11929994282E+02  0.46142317469E+02  0.99999973382E+01 0.  0.
         12    1    1    2    0    0  0.39127004101E+02  0.18864418921E+02 -0.11929994282E+02  0.45045682531E+02  0.00000000000E+00 0. -1.
         11    1    3    3    0    0 -0.54546752046E+01 -0.24100933705E+01  0.43061863717E+01  0.73556286591E+01  0.51100000000E-03 0. -1.
        -11    1    3    3    0    0 -0.14305318017E+02 -0.36990461619E+01  0.18716569514E+01  0.14893896941E+02  0.51100000000E-03 0.  1.
        -12    1    3    3    0    0 -0.19367010879E+02 -0.12755279388E+02  0.57521509588E+01  0.23892791869E+02  0.00000000000E+00 0.  1.
</event>
<event>
 7    1  0.2438448E-008  0.4614232E+02  0.7816164E-02  0.1320468E+00
        -11   -1    0    0    0    0  0.00000000000E+00  0.00000000000E+00  0.45593999997E+02  0.45594000000E+02  0.51100000000E-03 0.  1.
         11   -1    0    0    0    0 -0.00000000000E+00 -0.00000000000E+00 -0.45593999997E+02  0.45594000000E+02  0.51100000000E-03 0. -1.
    9900012    2    1    2    0    0 -0.15799194487E+02  0.36221743223E+02  0.21621385249E+02  0.46142317314E+02  0.99999959230E+01 0.  0.
         12    1    1    2    0    0  0.15799194487E+02 -0.36221743223E+02 -0.21621385249E+02  0.45045682686E+02  0.00000000000E+00 0. -1.
         11    1    3    3    0    0 -0.44195822243E+01  0.14861997063E+02  0.11322616950E+02  0.19199305159E+02  0.51100000000E-03 0. -1.
        -11    1    3    3    0    0 -0.11428526787E+02  0.19192618265E+02  0.10650914490E+02  0.24746914962E+02  0.51100000000E-03 0.  1.
        -12    1    3    3    0    0  0.48914523927E-01  0.21671278948E+01 -0.35214619048E+00  0.21960971933E+01  0.00000000000E+00 0.  1.
</event>
<event>
 7    1  0.2438448E-008  0.4614232E+02  0.7816164E-02  0.1320468E+00
        -11   -1    0    0    0    0  0.00000000000E+00  0.00000000000E+00  0.45593999997E+02  0.45594000000E+02  0.51100000000E-03 0.  1.
         11   -1    0    0    0    0 -0.00000000000E+00 -0.00000000000E+00 -0.45593999997E+02  0.45594000000E+02  0.51100000000E-03 0. -1.
    9900012    2    1    2    0    0 -0.11199255668E+02 -0.32325460832E+02  0.29304517883E+02  0.46142317478E+02  0.99999974165E+01 0.  0.
         12    1    1    2    0    0  0.11199255668E+02  0.32325460832E+02 -0.29304517883E+02  0.45045682522E+02  0.00000000000E+00 0. -1.
         11    1    3    3    0    0 -0.22732985577E+00 -0.10146177194E+02  0.55859636508E+01  0.11584454268E+02  0.51100000000E-03 0. -1.
        -11    1    3    3    0    0 -0.10414006223E+01 -0.52216265519E+01  0.67271927147E+01  0.85793368733E+01  0.51100000000E-03 0.  1.
        -12    1    3    3    0    0 -0.99305251902E+01 -0.16957657087E+02  0.16991361517E+02  0.25978526337E+02  0.00000000000E+00 0.  1.
</event>
<event>
 7    1  0.2438448E-008  0.4614232E+02  0.7816164E-02  0.1320468E+00
        -11   -1    0    0    0    0  0.00000000000E+00  0.00000000000E+00  0.45593999997E+02  0.45594000000E+02  0.51100000000E-03 0. -1.
         11   -1    0    0    0    0 -0.00000000000E+00 -0.00000000000E+00 -0.45593999997E+02  0.45594000000E+02  0.51100000000E-03 0.  1.
    9900012    2    1    2    0    0  0.30105279176E+02 -0.13573105388E+02 -0.30635869544E+02  0.46142317334E+02  0.99999961029E+01 0.  0.
         12    1    1    2    0    0 -0.30105279176E+02  0.13573105388E+02  0.30635869544E+02  0.45045682666E+02  0.00000000000E+00 0. -1.
         11    1    3    3    0    0  0.47134444707E+01 -0.40563562969E+01 -0.37227828208E+01  0.72477373971E+01  0.51100000000E-03 0. -1.
        -11    1    3    3    0    0  0.19979893907E+02 -0.88833689948E+01 -0.17451480637E+02  0.27976143085E+02  0.51100000000E-03 0.  1.
        -12    1    3    3    0    0  0.54119407987E+01 -0.63338009618E+00 -0.94616060856E+01  0.10918436851E+02  0.00000000000E+00 0.  1.
</event>
<event>
 7    1  0.2438448E-008  0.4614232E+02  0.7816164E-02  0.1320468E+00
        -11   -1    0    0    0    0  0.00000000000E+00  0.00000000000E+00  0.45593999997E+02  0.45594000000E+02  0.51100000000E-03 0. -1.
         11   -1    0    0    0    0 -0.00000000000E+00 -0.00000000000E+00 -0.45593999997E+02  0.45594000000E+02  0.51100000000E-03 0.  1.
    9900012    2    1    2    0    0 -0.14498035865E+01 -0.44549669719E+02  0.65068008065E+01  0.46142318085E+02  0.10000002950E+02 0.  0.
         12    1    1    2    0    0  0.14498035865E+01  0.44549669719E+02 -0.65068008065E+01  0.45045681915E+02  0.00000000000E+00 0. -1.
         11    1    3    3    0    0  0.25333842513E+01 -0.53901924515E+01  0.31185525054E+00  0.59640141170E+01  0.51100000000E-03 0. -1.
        -11    1    3    3    0    0 -0.35063002084E+01 -0.11396509205E+02  0.22094177216E+01  0.12126668550E+02  0.51100000000E-03 0.  1.
         12    1    3    3    0    0 -0.47688762940E+00 -0.27762968063E+02  0.39855278343E+01  0.28051635417E+02  0.00000000000E+00 0. -1.
</event>
<event>
 7    1  0.2438448E-008  0.4614232E+02  0.7816164E-02  0.1320468E+00
        -11   -1    0    0    0    0  0.00000000000E+00  0.00000000000E+00  0.45593999997E+02  0.45594000000E+02  0.51100000000E-03 0.  1.
         11   -1    0    0    0    0 -0.00000000000E+00 -0.00000000000E+00 -0.45593999997E+02  0.45594000000E+02  0.51100000000E-03 0. -1.
    9900012    2    1    2    0    0  0.36046466836E+02 -0.16791656688E+02  0.21161431783E+02  0.46142315403E+02  0.99999785010E+01 0.  0.
         12    1    1    2    0    0 -0.36046466836E+02  0.16791656688E+02 -0.21161431783E+02  0.45045684597E+02  0.00000000000E+00 0. -1.
         11    1    3    3    0    0  0.50555849256E+00  0.10987152538E+00 -0.16913174741E+00  0.54430409753E+00  0.51100000000E-03 0. -1.
        -11    1    3    3    0    0  0.24927022739E+02 -0.10474899097E+02  0.10102890438E+02  0.28864309609E+02  0.51100000000E-03 0.  1.
        -12    1    3    3    0    0  0.10613885604E+02 -0.64266291167E+01  0.11227673093E+02  0.16733701697E+02  0.00000000000E+00 0.  1.
</event>
<event>
 7    1  0.2438448E-008  0.4614232E+02  0.7816164E-02  0.1320468E+00
        -11   -1    0    0    0    0  0.00000000000E+00  0.00000000000E+00  0.45593999997E+02  0.45594000000E+02  0.51100000000E-03 0.  1.
         11   -1    0    0    0    0 -0.00000000000E+00 -0.00000000000E+00 -0.45593999997E+02  0.45594000000E+02  0.51100000000E-03 0. -1.
    9900012    2    1    2    0    0  0.28653420767E+02 -0.28798169834E+02 -0.19461765906E+02  0.46142318302E+02  0.10000004932E+02 0.  0.
         12    1    1    2    0    0 -0.28653420767E+02  0.28798169834E+02  0.19461765906E+02  0.45045681698E+02  0.00000000000E+00 0. -1.
         11    1    3    3    0    0  0.85221136386E+01 -0.83109192145E+01 -0.10266226851E+02  0.15719198869E+02  0.51100000000E-03 0. -1.
        -11    1    3    3    0    0  0.13118581466E+02 -0.11111241950E+02 -0.67030254412E+01  0.18452301420E+02  0.51100000000E-03 0.  1.
         12    1    3    3    0    0  0.70127256623E+01 -0.93760086698E+01 -0.24925136136E+01  0.11970818013E+02  0.00000000000E+00 0. -1.
</event>
<event>
 7    1  0.2438448E-008  0.4614232E+02  0.7816164E-02  0.1320468E+00
        -11   -1    0    0    0    0  0.00000000000E+00  0.00000000000E+00  0.45593999997E+02  0.45594000000E+02  0.51100000000E-03 0.  1.
         11   -1    0    0    0    0 -0.00000000000E+00 -0.00000000000E+00 -0.45593999997E+02  0.45594000000E+02  0.51100000000E-03 0. -1.
    9900012    2    1    2    0    0  0.72544994330E+00  0.25778207538E+01  0.44966010443E+02  0.46142317270E+02  0.99999955218E+01 0.  0.
         12    1    1    2    0    0 -0.72544994330E+00 -0.25778207538E+01 -0.44966010443E+02  0.45045682730E+02  0.00000000000E+00 0. -1.
         11    1    3    3    0    0  0.33581315242E+01  0.33847773473E+01  0.16240555331E+02  0.16925997836E+02  0.51100000000E-03 0.  1.
        -11    1    3    3    0    0  0.12245540020E+01 -0.82215692823E+00  0.81807875124E+01  0.83126866356E+01  0.51100000000E-03 0. -1.
        -12    1    3    3    0    0 -0.38572355829E+01  0.15200334663E-01  0.20544667600E+02  0.20903632799E+02  0.00000000000E+00 0.  1.
</event>
<event>
 7    1  0.2438448E-008  0.4614232E+02  0.7816164E-02  0.1320468E+00
        -11   -1    0    0    0    0  0.00000000000E+00  0.00000000000E+00  0.45593999997E+02  0.45594000000E+02  0.51100000000E-03 0.  1.
         11   -1    0    0    0    0 -0.00000000000E+00 -0.00000000000E+00 -0.45593999997E+02  0.45594000000E+02  0.51100000000E-03 0. -1.
    9900012    2    1    2    0    0  0.43783311349E+02 -0.10550039340E+02 -0.91203798751E+00  0.46142317676E+02  0.99999992223E+01 0.  0.
         12    1    1    2    0    0 -0.43783311349E+02  0.10550039340E+02  0.91203798751E+00  0.45045682324E+02  0.00000000000E+00 0. -1.
         11    1    3    3    0    0  0.27022661924E+02 -0.66739384361E+01 -0.73674819723E+00  0.27844362263E+02  0.51100000000E-03 0. -1.
        -11    1    3    3    0    0  0.15953996216E+02 -0.31630113177E+01 -0.17841436013E+01  0.16362084357E+02  0.51100000000E-03 0.  1.
         12    1    3    3    0    0  0.80665320941E+00 -0.71308958564E+00  0.16088538110E+01  0.19358710553E+01  0.00000000000E+00 0. -1.
</event>
<event>
 7    1  0.2438448E-008  0.4614232E+02  0.7816164E-02  0.1320468E+00
        -11   -1    0    0    0    0  0.00000000000E+00  0.00000000000E+00  0.45593999997E+02  0.45594000000E+02  0.51100000000E-03 0.  1.
         11   -1    0    0    0    0 -0.00000000000E+00 -0.00000000000E+00 -0.45593999997E+02  0.45594000000E+02  0.51100000000E-03 0. -1.
    9900012    2    1    2    0    0  0.22437370807E+02 -0.36649529852E+02  0.13508875561E+02  0.46142319119E+02  0.10000012380E+02 0.  0.
         12    1    1    2    0    0 -0.22437370807E+02  0.36649529852E+02 -0.13508875561E+02  0.45045680881E+02  0.00000000000E+00 0. -1.
         11    1    3    3    0    0  0.22372850900E+01 -0.98415238330E+01  0.41938072638E+01  0.10929275162E+02  0.51100000000E-03 0. -1.
        -11    1    3    3    0    0  0.13331118134E+02 -0.21318746318E+02  0.74540788491E+01  0.26225387452E+02  0.51100000000E-03 0.  1.
        -12    1    3    3    0    0  0.68689675831E+01 -0.54892597014E+01  0.18609894483E+01  0.89876565052E+01  0.00000000000E+00 0.  1.
</event>
<event>
 7    1  0.2438448E-008  0.4614232E+02  0.7816164E-02  0.1320468E+00
        -11   -1    0    0    0    0  0.00000000000E+00  0.00000000000E+00  0.45593999997E+02  0.45594000000E+02  0.51100000000E-03 0. -1.
         11   -1    0    0    0    0 -0.00000000000E+00 -0.00000000000E+00 -0.45593999997E+02  0.45594000000E+02  0.51100000000E-03 0.  1.
    9900012    2    1    2    0    0  0.25958215709E+02  0.36199822724E+02 -0.66975659410E+01  0.46142317437E+02  0.99999970427E+01 0.  0.
         12    1    1    2    0    0 -0.25958215709E+02 -0.36199822724E+02  0.66975659410E+01  0.45045682563E+02  0.00000000000E+00 0. -1.
         11    1    3    3    0    0  0.27731118149E+01  0.62246684353E+01 -0.39092803602E+01  0.78561516955E+01  0.51100000000E-03 0. -1.
        -11    1    3    3    0    0  0.10330287092E+02  0.96565961966E+01 -0.98877264524E+00  0.14175413684E+02  0.51100000000E-03 0.  1.
        -12    1    3    3    0    0  0.12854816802E+02  0.20318558092E+02 -0.17995129356E+01  0.24110752057E+02  0.00000000000E+00 0.  1.
</event>
<event>
 7    1  0.2438448E-008  0.4614232E+02  0.7816164E-02  0.1320468E+00
        -11   -1    0    0    0    0  0.00000000000E+00  0.00000000000E+00  0.45593999997E+02  0.45594000000E+02  0.51100000000E-03 0. -1.
         11   -1    0    0    0    0 -0.00000000000E+00 -0.00000000000E+00 -0.45593999997E+02  0.45594000000E+02  0.51100000000E-03 0.  1.
    9900012    2    1    2    0    0  0.36696915997E+02  0.19427198302E+02 -0.17465217661E+02  0.46142317571E+02  0.99999982691E+01 0.  0.
         12    1    1    2    0    0 -0.36696915997E+02 -0.19427198302E+02  0.17465217661E+02  0.45045682429E+02  0.00000000000E+00 0. -1.
         11    1    3    3    0    0  0.12939607305E+02  0.10657709343E+02 -0.43090480507E+01  0.17308613492E+02  0.51100000000E-03 0. -1.
        -11    1    3    3    0    0  0.93221900693E+01  0.31378502017E+01 -0.29098670567E+01  0.10257517152E+02  0.51100000000E-03 0.  1.
         12    1    3    3    0    0  0.14435118622E+02  0.56316387564E+01 -0.10246302554E+02  0.18576186927E+02  0.00000000000E+00 0. -1.
</event>
<event>
 7    1  0.2438448E-008  0.4614232E+02  0.7816164E-02  0.1320468E+00
        -11   -1    0    0    0    0  0.00000000000E+00  0.00000000000E+00  0.45593999997E+02  0.45594000000E+02  0.51100000000E-03 0. -1.
         11   -1    0    0    0    0 -0.00000000000E+00 -0.00000000000E+00 -0.45593999997E+02  0.45594000000E+02  0.51100000000E-03 0.  1.
    9900012    2    1    2    0    0  0.22415685722E+02 -0.35777666876E+02  0.15703792618E+02  0.46142317453E+02  0.99999971937E+01 0.  0.
         12    1    1    2    0    0 -0.22415685722E+02  0.35777666876E+02 -0.15703792618E+02  0.45045682547E+02  0.00000000000E+00 0. -1.
         11    1    3    3    0    0  0.84348625633E+01 -0.10630923079E+02  0.43543051138E+01  0.14252136866E+02  0.51100000000E-03 0. -1.
        -11    1    3    3    0    0  0.12779783442E+02 -0.17806005287E+02  0.59873500941E+01  0.22720586491E+02  0.51100000000E-03 0.  1.
         12    1    3    3    0    0  0.12010397174E+01 -0.73407385108E+01  0.53621374097E+01  0.91695940961E+01  0.00000000000E+00 0. -1.
</event>
<event>
 7    1  0.2438448E-008  0.4614232E+02  0.7816164E-02  0.1320468E+00
        -11   -1    0    0    0    0  0.00000000000E+00  0.00000000000E+00  0.45593999997E+02  0.45594000000E+02  0.51100000000E-03 0. -1.
         11   -1    0    0    0    0 -0.00000000000E+00 -0.00000000000E+00 -0.45593999997E+02  0.45594000000E+02  0.51100000000E-03 0.  1.
    9900012    2    1    2    0    0  0.15455009006E+02  0.34612272644E+02 -0.24336120668E+02  0.46142317741E+02  0.99999998200E+01 0.  0.
         12    1    1    2    0    0 -0.15455009006E+02 -0.34612272644E+02  0.24336120668E+02  0.45045682259E+02  0.00000000000E+00 0. -1.
         11    1    3    3    0    0  0.37309732586E+01  0.97678369167E+01 -0.60097858554E+01  0.12060195926E+02  0.51100000000E-03 0. -1.
        -11    1    3    3    0    0  0.10607158544E+02  0.19363845685E+02 -0.10463024796E+02  0.24432462427E+02  0.51100000000E-03 0.  1.
         12    1    3    3    0    0  0.11168772036E+01  0.54805900426E+01 -0.78633100160E+01  0.96496593883E+01  0.00000000000E+00 0. -1.
</event>
<event>
 7    1  0.2438448E-008  0.4614232E+02  0.7816164E-02  0.1320468E+00
        -11   -1    0    0    0    0  0.00000000000E+00  0.00000000000E+00  0.45593999997E+02  0.45594000000E+02  0.51100000000E-03 0.  1.
         11   -1    0    0    0    0 -0.00000000000E+00 -0.00000000000E+00 -0.45593999997E+02  0.45594000000E+02  0.51100000000E-03 0. -1.
    9900012    2    1    2    0    0  0.19375907239E+01  0.33534829291E+02  0.30012906180E+02  0.46142316846E+02  0.99999916572E+01 0.  0.
         12    1    1    2    0    0 -0.19375907239E+01 -0.33534829291E+02 -0.30012906180E+02  0.45045683154E+02  0.00000000000E+00 0. -1.
         11    1    3    3    0    0  0.27823313248E+01  0.23841688009E+02  0.21262739425E+02  0.32066673398E+02  0.51100000000E-03 0.  1.
        -11    1    3    3    0    0  0.20965752415E+01  0.44187183553E+01  0.48419798109E+01  0.68822575073E+01  0.51100000000E-03 0. -1.
        -12    1    3    3    0    0 -0.29413158424E+01  0.52744229272E+01  0.39081869442E+01  0.71933859406E+01  0.00000000000E+00 0.  1.
</event>
<event>
 7    1  0.2438448E-008  0.4614232E+02  0.7816164E-02  0.1320468E+00
        -11   -1    0    0    0    0  0.00000000000E+00  0.00000000000E+00  0.45593999997E+02  0.45594000000E+02  0.51100000000E-03 0.  1.
         11   -1    0    0    0    0 -0.00000000000E+00 -0.00000000000E+00 -0.45593999997E+02  0.45594000000E+02  0.51100000000E-03 0. -1.
    9900012    2    1    2    0    0  0.32179675797E+02 -0.30226407393E+02  0.89412450123E+01  0.46142322065E+02  0.10000039243E+02 0.  0.
         12    1    1    2    0    0 -0.32179675797E+02  0.30226407393E+02 -0.89412450123E+01  0.45045677935E+02  0.00000000000E+00 0. -1.
         11    1    3    3    0    0  0.67110320885E+01 -0.81748885831E+01  0.42726120117E+01  0.11407101679E+02  0.51100000000E-03 0. -1.
        -11    1    3    3    0    0  0.20650302548E+02 -0.14171197472E+02  0.20206841206E+01  0.25126499909E+02  0.51100000000E-03 0.  1.
        -12    1    3    3    0    0  0.48183411603E+01 -0.78803213386E+01  0.26479488800E+01  0.96087204771E+01  0.00000000000E+00 0.  1.
</event>
<event>
 7    1  0.2438448E-008  0.4614232E+02  0.7816164E-02  0.1320468E+00
        -11   -1    0    0    0    0  0.00000000000E+00  0.00000000000E+00  0.45593999997E+02  0.45594000000E+02  0.51100000000E-03 0.  1.
         11   -1    0    0    0    0 -0.00000000000E+00 -0.00000000000E+00 -0.45593999997E+02  0.45594000000E+02  0.51100000000E-03 0. -1.
    9900012    2    1    2    0    0  0.35634113295E+02  0.17108483977E+02  0.21601457081E+02  0.46142320936E+02  0.10000028955E+02 0.  0.
         12    1    1    2    0    0 -0.35634113295E+02 -0.17108483977E+02 -0.21601457081E+02  0.45045679064E+02  0.00000000000E+00 0. -1.
         11    1    3    3    0    0  0.11452766719E+02  0.39174161698E+01  0.61102740024E+01  0.13559036234E+02  0.51100000000E-03 0. -1.
        -11    1    3    3    0    0  0.94260719092E+01  0.32023245809E+01  0.95641671380E+01  0.13805035591E+02  0.51100000000E-03 0.  1.
         12    1    3    3    0    0  0.14755274667E+02  0.99887432260E+01  0.59270159406E+01  0.18778249111E+02  0.00000000000E+00 0. -1.
</event>
<event>
 7    1  0.2438448E-008  0.4614232E+02  0.7816164E-02  0.1320468E+00
        -11   -1    0    0    0    0  0.00000000000E+00  0.00000000000E+00  0.45593999997E+02  0.45594000000E+02  0.51100000000E-03 0.  1.
         11   -1    0    0    0    0 -0.00000000000E+00 -0.00000000000E+00 -0.45593999997E+02  0.45594000000E+02  0.51100000000E-03 0. -1.
    9900012    2    1    2    0    0  0.85551464832E+01 -0.35732060127E+01  0.44081233310E+02  0.46142318046E+02  0.10000002601E+02 0.  0.
         12    1    1    2    0    0 -0.85551464832E+01  0.35732060127E+01 -0.44081233310E+02  0.45045681954E+02  0.00000000000E+00 0. -1.
         11    1    3    3    0    0  0.52575978251E+01  0.52860115791E+00  0.23729289577E+02  0.24310510858E+02  0.51100000000E-03 0. -1.
        -11    1    3    3    0    0  0.48114295275E+01 -0.27677327347E+01  0.17337313814E+02  0.18204193175E+02  0.51100000000E-03 0.  1.
         12    1    3    3    0    0 -0.15138808694E+01 -0.13340744359E+01  0.30146299181E+01  0.36276140134E+01  0.00000000000E+00 0. -1.
</event>
<event>
 7    1  0.2438448E-008  0.4614232E+02  0.7816164E-02  0.1320468E+00
        -11   -1    0    0    0    0  0.00000000000E+00  0.00000000000E+00  0.45593999997E+02  0.45594000000E+02  0.51100000000E-03 0. -1.
         11   -1    0    0    0    0 -0.00000000000E+00 -0.00000000000E+00 -0.45593999997E+02  0.45594000000E+02  0.51100000000E-03 0.  1.
    9900012    2    1    2    0    0 -0.13864767990E+02 -0.30692780828E+02 -0.29913790084E+02  0.46142318480E+02  0.10000006559E+02 0.  0.
         12    1    1    2    0    0  0.13864767990E+02  0.30692780828E+02  0.29913790084E+02  0.45045681520E+02  0.00000000000E+00 0. -1.
         11    1    3    3    0    0 -0.25134206340E+01 -0.98005160490E+00 -0.11310453716E+01  0.29252432934E+01  0.51100000000E-03 0. -1.
        -11    1    3    3    0    0 -0.11393290561E+02 -0.25848047956E+02 -0.26478316226E+02  0.38717307285E+02  0.51100000000E-03 0.  1.
         12    1    3    3    0    0  0.41943204480E-01 -0.38646812667E+01 -0.23044284867E+01  0.44997679025E+01  0.00000000000E+00 0. -1.
</event>
<event>
 7    1  0.2438448E-008  0.4614232E+02  0.7816164E-02  0.1320468E+00
        -11   -1    0    0    0    0  0.00000000000E+00  0.00000000000E+00  0.45593999997E+02  0.45594000000E+02  0.51100000000E-03 0.  1.
         11   -1    0    0    0    0 -0.00000000000E+00 -0.00000000000E+00 -0.45593999997E+02  0.45594000000E+02  0.51100000000E-03 0. -1.
    9900012    2    1    2    0    0  0.19866404766E+02 -0.44132092971E+01  0.40186602741E+02  0.46142317693E+02  0.99999993834E+01 0.  0.
         12    1    1    2    0    0 -0.19866404766E+02  0.44132092971E+01 -0.40186602741E+02  0.45045682307E+02  0.00000000000E+00 0. -1.
         11    1    3    3    0    0  0.73994147513E+00 -0.29485199737E+01  0.40759958414E+01  0.50847837498E+01  0.51100000000E-03 0. -1.
        -11    1    3    3    0    0  0.23690327176E+01 -0.75636707387E+00  0.74011537552E+01  0.78077835738E+01  0.51100000000E-03 0.  1.
        -12    1    3    3    0    0  0.16757430573E+02 -0.70832224951E+00  0.28709453144E+02  0.33249750370E+02  0.00000000000E+00 0.  1.
</event>
<event>
 7    1  0.2438448E-008  0.4614232E+02  0.7816164E-02  0.1320468E+00
        -11   -1    0    0    0    0  0.00000000000E+00  0.00000000000E+00  0.45593999997E+02  0.45594000000E+02  0.51100000000E-03 0. -1.
         11   -1    0    0    0    0 -0.00000000000E+00 -0.00000000000E+00 -0.45593999997E+02  0.45594000000E+02  0.51100000000E-03 0.  1.
    9900012    2    1    2    0    0 -0.29520165594E+02 -0.32945195065E+02 -0.85022041964E+01  0.46142317291E+02  0.99999957092E+01 0.  0.
         12    1    1    2    0    0  0.29520165594E+02  0.32945195065E+02  0.85022041964E+01  0.45045682709E+02  0.00000000000E+00 0. -1.
         11    1    3    3    0    0 -0.58436851921E+01 -0.48513227536E+01 -0.39746672023E+01  0.85721624293E+01  0.51100000000E-03 0. -1.
        -11    1    3    3    0    0 -0.99121055875E+01 -0.13401108910E+02  0.98056682932E+00  0.16697337176E+02  0.51100000000E-03 0.  1.
         12    1    3    3    0    0 -0.13764374814E+02 -0.14692763401E+02 -0.55081038234E+01  0.20872817685E+02  0.00000000000E+00 0. -1.
</event>
<event>
 7    1  0.2438448E-008  0.4614232E+02  0.7816164E-02  0.1320468E+00
        -11   -1    0    0    0    0  0.00000000000E+00  0.00000000000E+00  0.45593999997E+02  0.45594000000E+02  0.51100000000E-03 0.  1.
         11   -1    0    0    0    0 -0.00000000000E+00 -0.00000000000E+00 -0.45593999997E+02  0.45594000000E+02  0.51100000000E-03 0. -1.
    9900012    2    1    2    0    0  0.15174842765E+01  0.40984507708E+01  0.44833172601E+02  0.46142318490E+02  0.10000006643E+02 0.  0.
         12    1    1    2    0    0 -0.15174842765E+01 -0.40984507708E+01 -0.44833172601E+02  0.45045681510E+02  0.00000000000E+00 0. -1.
         11    1    3    3    0    0  0.15432812573E+01 -0.41403352828E+00  0.96037965554E+00  0.18642612869E+01  0.51100000000E-03 0. -1.
        -11    1    3    3    0    0 -0.11914342067E+01  0.12462716547E+01  0.26866435469E+02  0.26921702465E+02  0.51100000000E-03 0.  1.
        -12    1    3    3    0    0  0.11656372258E+01  0.32662126444E+01  0.17006357476E+02  0.17356354738E+02  0.00000000000E+00 0.  1.
</event>
<event>
 7    1  0.2438448E-008  0.4614232E+02  0.7816164E-02  0.1320468E+00
        -11   -1    0    0    0    0  0.00000000000E+00  0.00000000000E+00  0.45593999997E+02  0.45594000000E+02  0.51100000000E-03 0. -1.
         11   -1    0    0    0    0 -0.00000000000E+00 -0.00000000000E+00 -0.45593999997E+02  0.45594000000E+02  0.51100000000E-03 0.  1.
    9900012    2    1    2    0    0  0.33509643476E+02  0.55502153189E+01 -0.29587367724E+02  0.46142318467E+02  0.10000006438E+02 0.  0.
         12    1    1    2    0    0 -0.33509643476E+02 -0.55502153189E+01  0.29587367724E+02  0.45045681533E+02  0.00000000000E+00 0. -1.
         11    1    3    3    0    0  0.26855111252E+01  0.33126375836E+01 -0.33018607000E+01  0.53933127210E+01  0.51100000000E-03 0. -1.
        -11    1    3    3    0    0  0.53346791450E+01  0.23543560380E+00 -0.65462545432E+01  0.84479394120E+01  0.51100000000E-03 0.  1.
         12    1    3    3    0    0  0.25489453205E+02  0.20021421315E+01 -0.19739252481E+02  0.32301066334E+02  0.00000000000E+00 0. -1.
</event>
<event>
 7    1  0.2438448E-008  0.4614232E+02  0.7816164E-02  0.1320468E+00
        -11   -1    0    0    0    0  0.00000000000E+00  0.00000000000E+00  0.45593999997E+02  0.45594000000E+02  0.51100000000E-03 0. -1.
         11   -1    0    0    0    0 -0.00000000000E+00 -0.00000000000E+00 -0.45593999997E+02  0.45594000000E+02  0.51100000000E-03 0.  1.
    9900012    2    1    2    0    0 -0.22049742016E+02 -0.28757448866E+02 -0.26756896770E+02  0.46142317487E+02  0.99999975029E+01 0.  0.
         12    1    1    2    0    0  0.22049742016E+02  0.28757448866E+02  0.26756896770E+02  0.45045682513E+02  0.00000000000E+00 0. -1.
         11    1    3    3    0    0 -0.57044498879E+01 -0.74946934882E+01 -0.33664537432E+01  0.10002209260E+02  0.51100000000E-03 0. -1.
        -11    1    3    3    0    0 -0.11870536002E+02 -0.10672109449E+02 -0.12143653458E+02  0.20056716198E+02  0.51100000000E-03 0.  1.
         12    1    3    3    0    0 -0.44747561260E+01 -0.10590645929E+02 -0.11246789569E+02  0.16083392029E+02  0.00000000000E+00 0. -1.
</event>
<event>
 7    1  0.2438448E-008  0.4614232E+02  0.7816164E-02  0.1320468E+00
        -11   -1    0    0    0    0  0.00000000000E+00  0.00000000000E+00  0.45593999997E+02  0.45594000000E+02  0.51100000000E-03 0.  1.
         11   -1    0    0    0    0 -0.00000000000E+00 -0.00000000000E+00 -0.45593999997E+02  0.45594000000E+02  0.51100000000E-03 0. -1.
    9900012    2    1    2    0    0 -0.18516955387E+02 -0.42138228738E+01  0.40847028228E+02  0.46142315911E+02  0.99999831253E+01 0.  0.
         12    1    1    2    0    0  0.18516955387E+02  0.42138228738E+01 -0.40847028228E+02  0.45045684089E+02  0.00000000000E+00 0. -1.
         11    1    3    3    0    0 -0.40195995674E+01 -0.36300762455E+01  0.48981054759E+01  0.73024702495E+01  0.51100000000E-03 0.  1.
        -11    1    3    3    0    0 -0.37190089919E+01  0.75840522259E+00  0.80053321743E+01  0.88595456907E+01  0.51100000000E-03 0. -1.
        -12    1    3    3    0    0 -0.10778346828E+02 -0.13421518508E+01  0.27943590578E+02  0.29980299970E+02  0.00000000000E+00 0.  1.
</event>
<event>
 7    1  0.2438448E-008  0.4614232E+02  0.7816164E-02  0.1320468E+00
        -11   -1    0    0    0    0  0.00000000000E+00  0.00000000000E+00  0.45593999997E+02  0.45594000000E+02  0.51100000000E-03 0.  1.
         11   -1    0    0    0    0 -0.00000000000E+00 -0.00000000000E+00 -0.45593999997E+02  0.45594000000E+02  0.51100000000E-03 0. -1.
    9900012    2    1    2    0    0 -0.77567668688E+01  0.29398848865E+02  0.33236328903E+02  0.46142319788E+02  0.10000018482E+02 0.  0.
         12    1    1    2    0    0  0.77567668688E+01 -0.29398848865E+02 -0.33236328903E+02  0.45045680212E+02  0.00000000000E+00 0. -1.
         11    1    3    3    0    0 -0.54234059314E+01  0.71833361123E+01  0.91804750456E+01  0.12856701440E+02  0.51100000000E-03 0. -1.
        -11    1    3    3    0    0  0.14362634432E+01  0.47901066030E+01  0.70787615341E+01  0.86669971192E+01  0.51100000000E-03 0.  1.
         12    1    3    3    0    0 -0.37696243807E+01  0.17425406150E+02  0.16977092323E+02  0.24618621229E+02  0.00000000000E+00 0. -1.
</event>
<event>
 7    1  0.2438448E-008  0.4614232E+02  0.7816164E-02  0.1320468E+00
        -11   -1    0    0    0    0  0.00000000000E+00  0.00000000000E+00  0.45593999997E+02  0.45594000000E+02  0.51100000000E-03 0.  1.
         11   -1    0    0    0    0 -0.00000000000E+00 -0.00000000000E+00 -0.45593999997E+02  0.45594000000E+02  0.51100000000E-03 0. -1.
    9900012    2    1    2    0    0 -0.21085277520E+02  0.30004566866E+02  0.26158183648E+02  0.46142317270E+02  0.99999955178E+01 0.  0.
         12    1    1    2    0    0  0.21085277520E+02 -0.30004566866E+02 -0.26158183648E+02  0.45045682730E+02  0.00000000000E+00 0. -1.
         11    1    3    3    0    0 -0.13533743891E+02  0.13990204028E+02  0.10931523477E+02  0.22324565802E+02  0.51100000000E-03 0.  1.
        -11    1    3    3    0    0 -0.13093800806E+00  0.23154770822E+00 -0.34623056731E+00  0.43661764738E+00  0.51100000000E-03 0. -1.
        -12    1    3    3    0    0 -0.74205956209E+01  0.15782815130E+02  0.15572890738E+02  0.23381133820E+02  0.00000000000E+00 0.  1.
</event>
<event>
 7    1  0.2438448E-008  0.4614232E+02  0.7816164E-02  0.1320468E+00
        -11   -1    0    0    0    0  0.00000000000E+00  0.00000000000E+00  0.45593999997E+02  0.45594000000E+02  0.51100000000E-03 0. -1.
         11   -1    0    0    0    0 -0.00000000000E+00 -0.00000000000E+00 -0.45593999997E+02  0.45594000000E+02  0.51100000000E-03 0.  1.
    9900012    2    1    2    0    0  0.40023978790E+02 -0.75904655775E+00 -0.20654745984E+02  0.46142316949E+02  0.99999925975E+01 0.  0.
         12    1    1    2    0    0 -0.40023978790E+02  0.75904655775E+00  0.20654745984E+02  0.45045683051E+02  0.00000000000E+00 0. -1.
         11    1    3    3    0    0  0.14559981474E+02 -0.17067942901E+00 -0.53461308900E+01  0.15511392837E+02  0.51100000000E-03 0. -1.
        -11    1    3    3    0    0  0.53081216615E+01 -0.32006789710E+01 -0.32573363681E+01  0.70021955074E+01  0.51100000000E-03 0.  1.
         12    1    3    3    0    0  0.20155875654E+02  0.26123118422E+01 -0.12051278726E+02  0.23628728605E+02  0.00000000000E+00 0. -1.
</event>
<event>
 7    1  0.2438448E-008  0.4614232E+02  0.7816164E-02  0.1320468E+00
        -11   -1    0    0    0    0  0.00000000000E+00  0.00000000000E+00  0.45593999997E+02  0.45594000000E+02  0.51100000000E-03 0. -1.
         11   -1    0    0    0    0 -0.00000000000E+00 -0.00000000000E+00 -0.45593999997E+02  0.45594000000E+02  0.51100000000E-03 0.  1.
    9900012    2    1    2    0    0 -0.22052075479E+02 -0.11880385184E+02 -0.37438963719E+02  0.46142316639E+02  0.99999897714E+01 0.  0.
         12    1    1    2    0    0  0.22052075479E+02  0.11880385184E+02  0.37438963719E+02  0.45045683361E+02  0.00000000000E+00 0. -1.
         11    1    3    3    0    0 -0.79324299127E+01 -0.13413835029E+01 -0.13174104104E+02  0.15436313460E+02  0.51100000000E-03 0. -1.
        -11    1    3    3    0    0 -0.63510783488E+01 -0.84496389529E+01 -0.15966144113E+02  0.19148116166E+02  0.51100000000E-03 0.  1.
        -12    1    3    3    0    0 -0.77685672176E+01 -0.20893627286E+01 -0.82987155021E+01  0.11557887013E+02  0.00000000000E+00 0.  1.
</event>
<event>
 7    1  0.2438448E-008  0.4614232E+02  0.7816164E-02  0.1320468E+00
        -11   -1    0    0    0    0  0.00000000000E+00  0.00000000000E+00  0.45593999997E+02  0.45594000000E+02  0.51100000000E-03 0. -1.
         11   -1    0    0    0    0 -0.00000000000E+00 -0.00000000000E+00 -0.45593999997E+02  0.45594000000E+02  0.51100000000E-03 0.  1.
    9900012    2    1    2    0    0  0.43325590236E+02 -0.93887536751E+00  0.12293298002E+02  0.46142318387E+02  0.10000005707E+02 0.  0.
         12    1    1    2    0    0 -0.43325590236E+02  0.93887536751E+00 -0.12293298002E+02  0.45045681613E+02  0.00000000000E+00 0. -1.
         11    1    3    3    0    0  0.11747556680E+01  0.10804432243E+00 -0.34101514006E+00  0.12280130463E+01  0.51100000000E-03 0. -1.
        -11    1    3    3    0    0  0.15421017778E+02  0.35540721003E+01  0.64886315565E+01  0.17103846279E+02  0.51100000000E-03 0.  1.
        -12    1    3    3    0    0  0.26729816790E+02 -0.46009917902E+01  0.61456815857E+01  0.27810459062E+02  0.00000000000E+00 0.  1.
</event>
<event>
 7    1  0.2438448E-008  0.4614232E+02  0.7816164E-02  0.1320468E+00
        -11   -1    0    0    0    0  0.00000000000E+00  0.00000000000E+00  0.45593999997E+02  0.45594000000E+02  0.51100000000E-03 0.  1.
         11   -1    0    0    0    0 -0.00000000000E+00 -0.00000000000E+00 -0.45593999997E+02  0.45594000000E+02  0.51100000000E-03 0. -1.
    9900012    2    1    2    0    0 -0.56180922433E+00  0.32795844088E+02  0.30874427072E+02  0.46142320229E+02  0.10000022501E+02 0.  0.
         12    1    1    2    0    0  0.56180922433E+00 -0.32795844088E+02 -0.30874427072E+02  0.45045679771E+02  0.00000000000E+00 0. -1.
         11    1    3    3    0    0 -0.10564160584E+01  0.28570485506E+02  0.23825602914E+02  0.37216233170E+02  0.51100000000E-03 0.  1.
        -11    1    3    3    0    0  0.12758866686E+01  0.29258058783E+01  0.22815671442E+01  0.39234902476E+01  0.51100000000E-03 0. -1.
        -12    1    3    3    0    0 -0.78127983452E+00  0.12995527036E+01  0.47672570146E+01  0.50025968109E+01  0.00000000000E+00 0.  1.
</event>
<event>
 7    1  0.2438448E-008  0.4614232E+02  0.7816164E-02  0.1320468E+00
        -11   -1    0    0    0    0  0.00000000000E+00  0.00000000000E+00  0.45593999997E+02  0.45594000000E+02  0.51100000000E-03 0.  1.
         11   -1    0    0    0    0 -0.00000000000E+00 -0.00000000000E+00 -0.45593999997E+02  0.45594000000E+02  0.51100000000E-03 0. -1.
    9900012    2    1    2    0    0  0.40437348417E+02  0.19541853880E+02  0.34713188515E+01  0.46142320355E+02  0.10000023656E+02 0.  0.
         12    1    1    2    0    0 -0.40437348417E+02 -0.19541853880E+02 -0.34713188515E+01  0.45045679645E+02  0.00000000000E+00 0. -1.
         11    1    3    3    0    0  0.11119487413E+02  0.23585179296E+01  0.48632078491E+00  0.11377263086E+02  0.51100000000E-03 0. -1.
        -11    1    3    3    0    0  0.28500849993E+02  0.16814491932E+02  0.40891197250E+01  0.33342862649E+02  0.51100000000E-03 0.  1.
        -12    1    3    3    0    0  0.81701101181E+00  0.36884401790E+00 -0.11041216584E+01  0.14221946208E+01  0.00000000000E+00 0.  1.
</event>
<event>
 7    1  0.2438448E-008  0.4614232E+02  0.7816164E-02  0.1320468E+00
        -11   -1    0    0    0    0  0.00000000000E+00  0.00000000000E+00  0.45593999997E+02  0.45594000000E+02  0.51100000000E-03 0. -1.
         11   -1    0    0    0    0 -0.00000000000E+00 -0.00000000000E+00 -0.45593999997E+02  0.45594000000E+02  0.51100000000E-03 0.  1.
    9900012    2    1    2    0    0  0.22921324439E+02 -0.33160572949E+02  0.20102307789E+02  0.46142317734E+02  0.99999997560E+01 0.  0.
         12    1    1    2    0    0 -0.22921324439E+02  0.33160572949E+02 -0.20102307789E+02  0.45045682266E+02  0.00000000000E+00 0. -1.
         11    1    3    3    0    0  0.74735835397E+00 -0.12089740410E+01  0.14932483496E+01  0.20615415678E+01  0.51100000000E-03 0. -1.
        -11    1    3    3    0    0  0.10726742824E+02 -0.79028845666E+01  0.64336871022E+01  0.14795638752E+02  0.51100000000E-03 0.  1.
        -12    1    3    3    0    0  0.11447223261E+02 -0.24048714341E+02  0.12175372338E+02  0.29285137415E+02  0.00000000000E+00 0.  1.
</event>
<event>
 7    1  0.2438448E-008  0.4614232E+02  0.7816164E-02  0.1320468E+00
        -11   -1    0    0    0    0  0.00000000000E+00  0.00000000000E+00  0.45593999997E+02  0.45594000000E+02  0.51100000000E-03 0.  1.
         11   -1    0    0    0    0 -0.00000000000E+00 -0.00000000000E+00 -0.45593999997E+02  0.45594000000E+02  0.51100000000E-03 0. -1.
    9900012    2    1    2    0    0  0.34784523582E+02 -0.28476891921E+02  0.28665298607E+01  0.46142318212E+02  0.10000004110E+02 0.  0.
         12    1    1    2    0    0 -0.34784523582E+02  0.28476891921E+02 -0.28665298607E+01  0.45045681788E+02  0.00000000000E+00 0. -1.
         11    1    3    3    0    0  0.72155484327E+01 -0.81195555193E+01  0.50364075829E+00  0.10874050547E+02  0.51100000000E-03 0. -1.
        -11    1    3    3    0    0  0.12289245393E+02 -0.13095435246E+02 -0.11284935199E+01  0.17994151119E+02  0.51100000000E-03 0.  1.
         12    1    3    3    0    0  0.15279729757E+02 -0.72619011555E+01  0.34913826223E+01  0.17274116546E+02  0.00000000000E+00 0. -1.
</event>
<event>
 7    1  0.2438448E-008  0.4614232E+02  0.7816164E-02  0.1320468E+00
        -11   -1    0    0    0    0  0.00000000000E+00  0.00000000000E+00  0.45593999997E+02  0.45594000000E+02  0.51100000000E-03 0.  1.
         11   -1    0    0    0    0 -0.00000000000E+00 -0.00000000000E+00 -0.45593999997E+02  0.45594000000E+02  0.51100000000E-03 0. -1.
    9900012    2    1    2    0    0 -0.20803673339E+01  0.21481536565E+02  0.39538956261E+02  0.46142318702E+02  0.10000008579E+02 0.  0.
         12    1    1    2    0    0  0.20803673339E+01 -0.21481536565E+02 -0.39538956261E+02  0.45045681298E+02  0.00000000000E+00 0. -1.
         11    1    3    3    0    0  0.65231452591E+00  0.47640169166E+01  0.34946203339E+01  0.59442192896E+01  0.51100000000E-03 0. -1.
        -11    1    3    3    0    0 -0.14886884553E+01  0.91996103576E+01  0.25792143484E+02  0.27424144286E+02  0.51100000000E-03 0.  1.
        -12    1    3    3    0    0 -0.12439934045E+01  0.75179092907E+01  0.10252192442E+02  0.12773955126E+02  0.00000000000E+00 0.  1.
</event>
<event>
 7    1  0.2438448E-008  0.4614232E+02  0.7816164E-02  0.1320468E+00
        -11   -1    0    0    0    0  0.00000000000E+00  0.00000000000E+00  0.45593999997E+02  0.45594000000E+02  0.51100000000E-03 0. -1.
         11   -1    0    0    0    0 -0.00000000000E+00 -0.00000000000E+00 -0.45593999997E+02  0.45594000000E+02  0.51100000000E-03 0.  1.
    9900012    2    1    2    0    0 -0.45188623352E+01  0.34301671214E+02 -0.28845946491E+02  0.46142318810E+02  0.10000009569E+02 0.  0.
         12    1    1    2    0    0  0.45188623352E+01 -0.34301671214E+02  0.28845946491E+02  0.45045681190E+02  0.00000000000E+00 0. -1.
         11    1    3    3    0    0 -0.89554417397E+00  0.45927061044E+01 -0.84185234271E+01  0.96315359981E+01  0.51100000000E-03 0. -1.
        -11    1    3    3    0    0 -0.14213044781E+01  0.13155850822E+02 -0.11727994096E+02  0.17681695706E+02  0.51100000000E-03 0.  1.
        -12    1    3    3    0    0 -0.22020136832E+01  0.16553114288E+02 -0.86994289673E+01  0.18829087106E+02  0.00000000000E+00 0.  1.
</event>
<event>
 7    1  0.2438448E-008  0.4614232E+02  0.7816164E-02  0.1320468E+00
        -11   -1    0    0    0    0  0.00000000000E+00  0.00000000000E+00  0.45593999997E+02  0.45594000000E+02  0.51100000000E-03 0.  1.
         11   -1    0    0    0    0 -0.00000000000E+00 -0.00000000000E+00 -0.45593999997E+02  0.45594000000E+02  0.51100000000E-03 0. -1.
    9900012    2    1    2    0    0  0.49528253846E+01  0.14709519435E+02  0.42287269889E+02  0.46142316123E+02  0.99999850613E+01 0.  0.
         12    1    1    2    0    0 -0.49528253846E+01 -0.14709519435E+02 -0.42287269889E+02  0.45045683877E+02  0.00000000000E+00 0. -1.
         11    1    3    3    0    0  0.17848781485E+01 -0.43061309792E+00  0.93767324255E+01  0.95548065855E+01  0.51100000000E-03 0. -1.
        -11    1    3    3    0    0  0.29697544506E+01  0.50302274269E+01  0.13189958098E+02  0.14425589221E+02  0.51100000000E-03 0.  1.
        -12    1    3    3    0    0  0.19819278548E+00  0.10109905106E+02  0.19720579365E+02  0.22161920317E+02  0.00000000000E+00 0.  1.
</event>
<event>
 7    1  0.2438448E-008  0.4614232E+02  0.7816164E-02  0.1320468E+00
        -11   -1    0    0    0    0  0.00000000000E+00  0.00000000000E+00  0.45593999997E+02  0.45594000000E+02  0.51100000000E-03 0. -1.
         11   -1    0    0    0    0 -0.00000000000E+00 -0.00000000000E+00 -0.45593999997E+02  0.45594000000E+02  0.51100000000E-03 0.  1.
    9900012    2    1    2    0    0 -0.12607794227E+02  0.96736613606E+01 -0.42149464204E+02  0.46142317276E+02  0.99999955791E+01 0.  0.
         12    1    1    2    0    0  0.12607794227E+02 -0.96736613606E+01  0.42149464204E+02  0.45045682724E+02  0.00000000000E+00 0. -1.
         11    1    3    3    0    0 -0.65774231694E+00  0.55079101982E+00 -0.21185155701E+00  0.88367247685E+00  0.51100000000E-03 0. -1.
        -11    1    3    3    0    0 -0.29916623250E+01  0.68839949067E+01 -0.22921195206E+02  0.24118885117E+02  0.51100000000E-03 0.  1.
         12    1    3    3    0    0 -0.89583895849E+01  0.22388754340E+01 -0.19016417441E+02  0.21139759683E+02  0.00000000000E+00 0. -1.
</event>
<event>
 7    1  0.2438448E-008  0.4614232E+02  0.7816164E-02  0.1320468E+00
        -11   -1    0    0    0    0  0.00000000000E+00  0.00000000000E+00  0.45593999997E+02  0.45594000000E+02  0.51100000000E-03 0.  1.
         11   -1    0    0    0    0 -0.00000000000E+00 -0.00000000000E+00 -0.45593999997E+02  0.45594000000E+02  0.51100000000E-03 0. -1.
    9900012    2    1    2    0    0 -0.34624375089E+02 -0.13236252434E+02  0.25594290091E+02  0.46142318586E+02  0.10000007524E+02 0.  0.
         12    1    1    2    0    0  0.34624375089E+02  0.13236252434E+02 -0.25594290091E+02  0.45045681414E+02  0.00000000000E+00 0. -1.
         11    1    3    3    0    0 -0.74636780992E+01 -0.16854755281E+01  0.10417425216E+02  0.12925558669E+02  0.51100000000E-03 0. -1.
        -11    1    3    3    0    0 -0.15121544040E+02 -0.71409061757E+01  0.88087479631E+01  0.18900996696E+02  0.51100000000E-03 0.  1.
         12    1    3    3    0    0 -0.12039152949E+02 -0.44098707304E+01  0.63681169123E+01  0.14315763221E+02  0.00000000000E+00 0. -1.
</event>
<event>
 7    1  0.2438448E-008  0.4614232E+02  0.7816164E-02  0.1320468E+00
        -11   -1    0    0    0    0  0.00000000000E+00  0.00000000000E+00  0.45593999997E+02  0.45594000000E+02  0.51100000000E-03 0. -1.
         11   -1    0    0    0    0 -0.00000000000E+00 -0.00000000000E+00 -0.45593999997E+02  0.45594000000E+02  0.51100000000E-03 0.  1.
    9900012    2    1    2    0    0 -0.26215521773E+02 -0.35302852695E+02  0.97759151396E+01  0.46142317554E+02  0.99999981105E+01 0.  0.
         12    1    1    2    0    0  0.26215521773E+02  0.35302852695E+02 -0.97759151396E+01  0.45045682446E+02  0.00000000000E+00 0. -1.
         11    1    3    3    0    0 -0.12373296257E+01 -0.29360084339E+01  0.29827622923E+01  0.43644015947E+01  0.51100000000E-03 0. -1.
        -11    1    3    3    0    0 -0.50993630869E+01 -0.96950047693E+01  0.43918663062E+00  0.10963097488E+02  0.51100000000E-03 0.  1.
        -12    1    3    3    0    0 -0.19878829060E+02 -0.22671839492E+02  0.63539662167E+01  0.30814818471E+02  0.00000000000E+00 0.  1.
</event>
<event>
 7    1  0.2438448E-008  0.4614232E+02  0.7816164E-02  0.1320468E+00
        -11   -1    0    0    0    0  0.00000000000E+00  0.00000000000E+00  0.45593999997E+02  0.45594000000E+02  0.51100000000E-03 0.  1.
         11   -1    0    0    0    0 -0.00000000000E+00 -0.00000000000E+00 -0.45593999997E+02  0.45594000000E+02  0.51100000000E-03 0. -1.
    9900012    2    1    2    0    0  0.11375015384E+02 -0.14669683869E+01  0.43561114052E+02  0.46142316204E+02  0.99999858004E+01 0.  0.
         12    1    1    2    0    0 -0.11375015384E+02  0.14669683869E+01 -0.43561114052E+02  0.45045683796E+02  0.00000000000E+00 0. -1.
         11    1    3    3    0    0  0.46881588672E+01 -0.12652635714E+01  0.11558394782E+02  0.12536993885E+02  0.51100000000E-03 0. -1.
        -11    1    3    3    0    0  0.48965651077E+01 -0.15317253873E+01  0.30470559677E+02  0.30899474749E+02  0.51100000000E-03 0.  1.
        -12    1    3    3    0    0  0.17902914095E+01  0.13300205719E+01  0.15321595926E+01  0.27058475696E+01  0.00000000000E+00 0.  1.
</event>
<event>
 7    1  0.2438448E-008  0.4614232E+02  0.7816164E-02  0.1320468E+00
        -11   -1    0    0    0    0  0.00000000000E+00  0.00000000000E+00  0.45593999997E+02  0.45594000000E+02  0.51100000000E-03 0. -1.
         11   -1    0    0    0    0 -0.00000000000E+00 -0.00000000000E+00 -0.45593999997E+02  0.45594000000E+02  0.51100000000E-03 0.  1.
    9900012    2    1    2    0    0  0.18078049542E+02 -0.33511300925E+02 -0.24068451035E+02  0.46142317631E+02  0.99999988129E+01 0.  0.
         12    1    1    2    0    0 -0.18078049542E+02  0.33511300925E+02  0.24068451035E+02  0.45045682369E+02  0.00000000000E+00 0. -1.
         11    1    3    3    0    0  0.12279733778E+02 -0.16531715741E+02 -0.97738951828E+01  0.22795142340E+02  0.51100000000E-03 0. -1.
        -11    1    3    3    0    0  0.45616807594E+01 -0.10319904010E+02 -0.65030440339E+01  0.13023015476E+02  0.51100000000E-03 0.  1.
         12    1    3    3    0    0  0.12366350042E+01 -0.66596811733E+01 -0.77915118181E+01  0.10324159814E+02  0.00000000000E+00 0. -1.
</event>
<event>
 7    1  0.2438448E-008  0.4614232E+02  0.7816164E-02  0.1320468E+00
        -11   -1    0    0    0    0  0.00000000000E+00  0.00000000000E+00  0.45593999997E+02  0.45594000000E+02  0.51100000000E-03 0.  1.
         11   -1    0    0    0    0 -0.00000000000E+00 -0.00000000000E+00 -0.45593999997E+02  0.45594000000E+02  0.51100000000E-03 0. -1.
    9900012    2    1    2    0    0  0.98425798098E+01 -0.30411690382E+02 -0.31739034215E+02  0.46142316721E+02  0.99999905143E+01 0.  0.
         12    1    1    2    0    0 -0.98425798098E+01  0.30411690382E+02  0.31739034215E+02  0.45045683279E+02  0.00000000000E+00 0. -1.
         11    1    3    3    0    0 -0.86491528747E+00 -0.12218841507E+01 -0.30849576486E+01  0.34290003335E+01  0.51100000000E-03 0. -1.
        -11    1    3    3    0    0  0.96440715455E+00 -0.10863003244E+02 -0.92577826028E+01  0.14305294810E+02  0.51100000000E-03 0.  1.
        -12    1    3    3    0    0  0.97430879427E+01 -0.18326802987E+02 -0.19396293964E+02  0.28408021577E+02  0.00000000000E+00 0.  1.
</event>
<event>
 7    1  0.2438448E-008  0.4614232E+02  0.7816164E-02  0.1320468E+00
        -11   -1    0    0    0    0  0.00000000000E+00  0.00000000000E+00  0.45593999997E+02  0.45594000000E+02  0.51100000000E-03 0.  1.
         11   -1    0    0    0    0 -0.00000000000E+00 -0.00000000000E+00 -0.45593999997E+02  0.45594000000E+02  0.51100000000E-03 0. -1.
    9900012    2    1    2    0    0  0.18536189450E+02 -0.14884194926E+02  0.38262041365E+02  0.46142318882E+02  0.10000010224E+02 0.  0.
         12    1    1    2    0    0 -0.18536189450E+02  0.14884194926E+02 -0.38262041365E+02  0.45045681118E+02  0.00000000000E+00 0. -1.
         11    1    3    3    0    0  0.68289563396E+01 -0.37670143384E+01  0.95655720808E+01  0.12342010015E+02  0.51100000000E-03 0. -1.
        -11    1    3    3    0    0  0.12575992763E+02 -0.10285429527E+02  0.28098285637E+02  0.32457037920E+02  0.51100000000E-03 0.  1.
         12    1    3    3    0    0 -0.86875965321E+00 -0.83175106064E+00  0.59818364760E+00  0.13432709474E+01  0.00000000000E+00 0. -1.
</event>
<event>
 7    1  0.2438448E-008  0.4614232E+02  0.7816164E-02  0.1320468E+00
        -11   -1    0    0    0    0  0.00000000000E+00  0.00000000000E+00  0.45593999997E+02  0.45594000000E+02  0.51100000000E-03 0.  1.
         11   -1    0    0    0    0 -0.00000000000E+00 -0.00000000000E+00 -0.45593999997E+02  0.45594000000E+02  0.51100000000E-03 0. -1.
    9900012    2    1    2    0    0 -0.42151139516E+01 -0.77485970081E+00  0.44841342482E+02  0.46142316646E+02  0.99999898333E+01 0.  0.
         12    1    1    2    0    0  0.42151139516E+01  0.77485970081E+00 -0.44841342482E+02  0.45045683354E+02  0.00000000000E+00 0. -1.
         11    1    3    3    0    0 -0.60597708233E+01 -0.10683901848E+01  0.17468189280E+02  0.18520256936E+02  0.51100000000E-03 0.  1.
        -11    1    3    3    0    0  0.31776785161E+00  0.16109549801E+01  0.10272548319E+02  0.10402951580E+02  0.51100000000E-03 0. -1.
        -12    1    3    3    0    0  0.15268890201E+01 -0.13174244962E+01  0.17100604884E+02  0.17219108129E+02  0.00000000000E+00 0.  1.
</event>
<event>
 7    1  0.2438448E-008  0.4614232E+02  0.7816164E-02  0.1320468E+00
        -11   -1    0    0    0    0  0.00000000000E+00  0.00000000000E+00  0.45593999997E+02  0.45594000000E+02  0.51100000000E-03 0. -1.
         11   -1    0    0    0    0 -0.00000000000E+00 -0.00000000000E+00 -0.45593999997E+02  0.45594000000E+02  0.51100000000E-03 0.  1.
    9900012    2    1    2    0    0 -0.44201643074E+02  0.38874275500E+01 -0.77599077590E+01  0.46142317500E+02  0.99999976221E+01 0.  0.
         12    1    1    2    0    0  0.44201643074E+02 -0.38874275500E+01  0.77599077590E+01  0.45045682500E+02  0.00000000000E+00 0. -1.
         11    1    3    3    0    0 -0.33185667081E+02  0.38125541902E+01 -0.23984068433E+01  0.33489945128E+02  0.51100000000E-03 0. -1.
        -11    1    3    3    0    0 -0.98077670801E+01 -0.41701843781E+00 -0.35902004686E+01  0.10452547017E+02  0.51100000000E-03 0.  1.
         12    1    3    3    0    0 -0.12082089136E+01  0.49189179759E+00 -0.17713004471E+01  0.21998253552E+01  0.00000000000E+00 0. -1.
</event>
<event>
 7    1  0.2438448E-008  0.4614232E+02  0.7816164E-02  0.1320468E+00
        -11   -1    0    0    0    0  0.00000000000E+00  0.00000000000E+00  0.45593999997E+02  0.45594000000E+02  0.51100000000E-03 0.  1.
         11   -1    0    0    0    0 -0.00000000000E+00 -0.00000000000E+00 -0.45593999997E+02  0.45594000000E+02  0.51100000000E-03 0. -1.
    9900012    2    1    2    0    0  0.53755407119E+01 -0.35701233264E+00  0.44722359458E+02  0.46142319505E+02  0.10000015904E+02 0.  0.
         12    1    1    2    0    0 -0.53755407119E+01  0.35701233264E+00 -0.44722359458E+02  0.45045680495E+02  0.00000000000E+00 0. -1.
         11    1    3    3    0    0  0.32888479517E+01 -0.11594794433E+01  0.18945090835E+02  0.19263368876E+02  0.51100000000E-03 0. -1.
        -11    1    3    3    0    0 -0.21127850815E+01 -0.79809317395E+00  0.35917536676E+01  0.42428184247E+01  0.51100000000E-03 0.  1.
        -12    1    3    3    0    0  0.41994778418E+01  0.16005602846E+01  0.22185514955E+02  0.22636132205E+02  0.00000000000E+00 0.  1.
</event>
<event>
 7    1  0.2438448E-008  0.4614232E+02  0.7816164E-02  0.1320468E+00
        -11   -1    0    0    0    0  0.00000000000E+00  0.00000000000E+00  0.45593999997E+02  0.45594000000E+02  0.51100000000E-03 0. -1.
         11   -1    0    0    0    0 -0.00000000000E+00 -0.00000000000E+00 -0.45593999997E+02  0.45594000000E+02  0.51100000000E-03 0.  1.
    9900012    2    1    2    0    0 -0.59247311277E+01 -0.16822012094E+02 -0.41364608795E+02  0.46142318847E+02  0.10000009902E+02 0.  0.
         12    1    1    2    0    0  0.59247311277E+01  0.16822012094E+02  0.41364608795E+02  0.45045681153E+02  0.00000000000E+00 0. -1.
         11    1    3    3    0    0 -0.74164414745E+00 -0.30855941498E+01 -0.19189340747E+01  0.37085354984E+01  0.51100000000E-03 0. -1.
        -11    1    3    3    0    0 -0.43250528162E+01 -0.12905879281E+02 -0.30380300486E+02  0.33290095520E+02  0.51100000000E-03 0.  1.
        -12    1    3    3    0    0 -0.85803416405E+00 -0.83053866256E+00 -0.90653742342E+01  0.91436878284E+01  0.00000000000E+00 0.  1.
</event>
<event>
 7    1  0.2438448E-008  0.4614232E+02  0.7816164E-02  0.1320468E+00
        -11   -1    0    0    0    0  0.00000000000E+00  0.00000000000E+00  0.45593999997E+02  0.45594000000E+02  0.51100000000E-03 0.  1.
         11   -1    0    0    0    0 -0.00000000000E+00 -0.00000000000E+00 -0.45593999997E+02  0.45594000000E+02  0.51100000000E-03 0. -1.
    9900012    2    1    2    0    0 -0.29882813211E+01 -0.17059839241E+02  0.41582995924E+02  0.46142317740E+02  0.99999998117E+01 0.  0.
         12    1    1    2    0    0  0.29882813211E+01  0.17059839241E+02 -0.41582995924E+02  0.45045682260E+02  0.00000000000E+00 0. -1.
         11    1    3    3    0    0  0.98228405696E+00 -0.20127247636E+01  0.15947946768E+01  0.27494205325E+01  0.51100000000E-03 0. -1.
        -11    1    3    3    0    0 -0.33867463477E+01 -0.99738853477E+01  0.33611987335E+02  0.35223772266E+02  0.51100000000E-03 0.  1.
        -12    1    3    3    0    0 -0.58381903039E+00 -0.50732291296E+01  0.63762139122E+01  0.81691249418E+01  0.00000000000E+00 0.  1.
</event>
<event>
 7    1  0.2438448E-008  0.4614232E+02  0.7816164E-02  0.1320468E+00
        -11   -1    0    0    0    0  0.00000000000E+00  0.00000000000E+00  0.45593999997E+02  0.45594000000E+02  0.51100000000E-03 0.  1.
         11   -1    0    0    0    0 -0.00000000000E+00 -0.00000000000E+00 -0.45593999997E+02  0.45594000000E+02  0.51100000000E-03 0. -1.
    9900012    2    1    2    0    0 -0.24131110738E+02 -0.38035889537E+02 -0.27225459615E+00  0.46142317400E+02  0.99999967080E+01 0.  0.
         12    1    1    2    0    0  0.24131110738E+02  0.38035889537E+02  0.27225459615E+00  0.45045682600E+02  0.00000000000E+00 0. -1.
         11    1    3    3    0    0 -0.22968237196E+01 -0.17406111420E+01 -0.14112893111E+01  0.32088727191E+01  0.51100000000E-03 0. -1.
        -11    1    3    3    0    0 -0.19585547784E+02 -0.27233782357E+02  0.15566415332E+00  0.33545444028E+02  0.51100000000E-03 0.  1.
         12    1    3    3    0    0 -0.22487392343E+01 -0.90614960384E+01  0.98337056163E+00  0.93880006530E+01  0.00000000000E+00 0. -1.
</event>
<event>
 7    1  0.2438448E-008  0.4614232E+02  0.7816164E-02  0.1320468E+00
        -11   -1    0    0    0    0  0.00000000000E+00  0.00000000000E+00  0.45593999997E+02  0.45594000000E+02  0.51100000000E-03 0.  1.
         11   -1    0    0    0    0 -0.00000000000E+00 -0.00000000000E+00 -0.45593999997E+02  0.45594000000E+02  0.51100000000E-03 0. -1.
    9900012    2    1    2    0    0 -0.39358274040E+00 -0.45020568912E+02 -0.14515412889E+01  0.46142317581E+02  0.99999983541E+01 0.  0.
         12    1    1    2    0    0  0.39358274040E+00  0.45020568912E+02  0.14515412889E+01  0.45045682419E+02  0.00000000000E+00 0. -1.
         11    1    3    3    0    0 -0.23097415037E+01 -0.83482885661E+01 -0.18167468469E+01  0.88503896616E+01  0.51100000000E-03 0. -1.
        -11    1    3    3    0    0 -0.11385644228E+01 -0.65861427843E+01  0.20871434687E+01  0.70021263799E+01  0.51100000000E-03 0.  1.
         12    1    3    3    0    0  0.30547231861E+01 -0.30086137561E+02 -0.17219379106E+01  0.30289801539E+02  0.00000000000E+00 0. -1.
</event>
<event>
 7    1  0.2438448E-008  0.4614231E+02  0.7816164E-02  0.1320468E+00
        -11   -1    0    0    0    0  0.00000000000E+00  0.00000000000E+00  0.45593999997E+02  0.45594000000E+02  0.51100000000E-03 0.  1.
         11   -1    0    0    0    0 -0.00000000000E+00 -0.00000000000E+00 -0.45593999997E+02  0.45594000000E+02  0.51100000000E-03 0. -1.
    9900012    2    1    2    0    0 -0.35075943228E+02  0.16719780874E+02  0.22786858032E+02  0.46142314693E+02  0.99999720249E+01 0.  0.
         12    1    1    2    0    0  0.35075943228E+02 -0.16719780874E+02 -0.22786858032E+02  0.45045685307E+02  0.00000000000E+00 0. -1.
         11    1    3    3    0    0 -0.17317560595E+02  0.12028335606E+02  0.12381159415E+02  0.24451418591E+02  0.51100000000E-03 0. -1.
        -11    1    3    3    0    0 -0.13246541632E+02  0.54861505564E+01  0.68408210550E+01  0.15886017314E+02  0.51100000000E-03 0.  1.
        -12    1    3    3    0    0 -0.45118410014E+01 -0.79470528836E+00  0.35648775612E+01  0.58048787881E+01  0.00000000000E+00 0.  1.
</event>
<event>
 7    1  0.2438448E-008  0.4614232E+02  0.7816164E-02  0.1320468E+00
        -11   -1    0    0    0    0  0.00000000000E+00  0.00000000000E+00  0.45593999997E+02  0.45594000000E+02  0.51100000000E-03 0.  1.
         11   -1    0    0    0    0 -0.00000000000E+00 -0.00000000000E+00 -0.45593999997E+02  0.45594000000E+02  0.51100000000E-03 0. -1.
    9900012    2    1    2    0    0  0.13431094294E+02 -0.38844852562E+02  0.18433572957E+02  0.46142317894E+02  0.10000001208E+02 0.  0.
         12    1    1    2    0    0 -0.13431094294E+02  0.38844852562E+02 -0.18433572957E+02  0.45045682106E+02  0.00000000000E+00 0. -1.
         11    1    3    3    0    0  0.69978993097E+01 -0.20513258678E+02  0.64849334851E+01  0.22623411301E+02  0.51100000000E-03 0.  1.
        -11    1    3    3    0    0  0.67909296837E+01 -0.11071197682E+02  0.75934228887E+01  0.15044873397E+02  0.51100000000E-03 0. -1.
        -12    1    3    3    0    0 -0.35773469985E+00 -0.72603962016E+01  0.43552165834E+01  0.84740331961E+01  0.00000000000E+00 0.  1.
</event>
<event>
 7    1  0.2438448E-008  0.4614233E+02  0.7816164E-02  0.1320468E+00
        -11   -1    0    0    0    0  0.00000000000E+00  0.00000000000E+00  0.45593999997E+02  0.45594000000E+02  0.51100000000E-03 0.  1.
         11   -1    0    0    0    0 -0.00000000000E+00 -0.00000000000E+00 -0.45593999997E+02  0.45594000000E+02  0.51100000000E-03 0. -1.
    9900012    2    1    2    0    0  0.17015750737E+02  0.40858714270E+02  0.83751091194E+01  0.46142325872E+02  0.10000073957E+02 0.  0.
         12    1    1    2    0    0 -0.17015750737E+02 -0.40858714270E+02 -0.83751091194E+01  0.45045674128E+02  0.00000000000E+00 0. -1.
         11    1    3    3    0    0  0.60868828435E+01  0.10094969532E+02  0.16983276201E-01  0.11788080475E+02  0.51100000000E-03 0. -1.
        -11    1    3    3    0    0  0.42025281079E+01  0.47740130691E+01  0.49059522056E+00  0.63791164916E+01  0.51100000000E-03 0.  1.
        -12    1    3    3    0    0  0.67263397852E+01  0.25989731669E+02  0.78675306226E+01  0.27975128905E+02  0.00000000000E+00 0.  1.
</event>
<event>
 7    1  0.2438448E-008  0.4614232E+02  0.7816164E-02  0.1320468E+00
        -11   -1    0    0    0    0  0.00000000000E+00  0.00000000000E+00  0.45593999997E+02  0.45594000000E+02  0.51100000000E-03 0.  1.
         11   -1    0    0    0    0 -0.00000000000E+00 -0.00000000000E+00 -0.45593999997E+02  0.45594000000E+02  0.51100000000E-03 0. -1.
    9900012    2    1    2    0    0  0.41697346049E+02 -0.52989075291E+00 -0.17034201295E+02  0.46142318015E+02  0.10000002315E+02 0.  0.
         12    1    1    2    0    0 -0.41697346049E+02  0.52989075291E+00  0.17034201295E+02  0.45045681985E+02  0.00000000000E+00 0. -1.
         11    1    3    3    0    0  0.22975758538E+02  0.35304021280E+01 -0.76842322424E+01  0.24482578398E+02  0.51100000000E-03 0. -1.
        -11    1    3    3    0    0  0.12772979559E+00 -0.81481460822E-01  0.30024016115E+00  0.33630127063E+00  0.51100000000E-03 0.  1.
        -12    1    3    3    0    0  0.18593857715E+02 -0.39788114201E+01 -0.96502092142E+01  0.21323438347E+02  0.00000000000E+00 0.  1.
</event>
<event>
 7    1  0.2438448E-008  0.4614232E+02  0.7816164E-02  0.1320468E+00
        -11   -1    0    0    0    0  0.00000000000E+00  0.00000000000E+00  0.45593999997E+02  0.45594000000E+02  0.51100000000E-03 0. -1.
         11   -1    0    0    0    0 -0.00000000000E+00 -0.00000000000E+00 -0.45593999997E+02  0.45594000000E+02  0.51100000000E-03 0.  1.
    9900012    2    1    2    0    0  0.11485221736E+01  0.29028164455E+02 -0.34426153735E+02  0.46142317678E+02  0.99999992462E+01 0.  0.
         12    1    1    2    0    0 -0.11485221736E+01 -0.29028164455E+02  0.34426153735E+02  0.45045682322E+02  0.00000000000E+00 0. -1.
         11    1    3    3    0    0  0.12689422191E+01  0.10709068783E+02 -0.87659829683E+01  0.13897367600E+02  0.51100000000E-03 0. -1.
        -11    1    3    3    0    0  0.11039866576E+01  0.19867125837E+01 -0.67649430740E+00  0.23713831912E+01  0.51100000000E-03 0.  1.
         12    1    3    3    0    0 -0.12244067032E+01  0.16332383089E+02 -0.24983676459E+02  0.29873566887E+02  0.00000000000E+00 0. -1.
</event>
<event>
 7    1  0.2438448E-008  0.4614232E+02  0.7816164E-02  0.1320468E+00
        -11   -1    0    0    0    0  0.00000000000E+00  0.00000000000E+00  0.45593999997E+02  0.45594000000E+02  0.51100000000E-03 0.  1.
         11   -1    0    0    0    0 -0.00000000000E+00 -0.00000000000E+00 -0.45593999997E+02  0.45594000000E+02  0.51100000000E-03 0. -1.
    9900012    2    1    2    0    0 -0.22130901672E+02 -0.19153054312E+02  0.34241747341E+02  0.46142316974E+02  0.99999928241E+01 0.  0.
         12    1    1    2    0    0  0.22130901672E+02  0.19153054312E+02 -0.34241747341E+02  0.45045683026E+02  0.00000000000E+00 0. -1.
         11    1    3    3    0    0 -0.55470672806E+01 -0.36642175804E+01  0.13221785799E+02  0.14799056249E+02  0.51100000000E-03 0. -1.
        -11    1    3    3    0    0 -0.28605880992E+01 -0.57485075559E+01  0.58928874825E+01  0.87151836777E+01  0.51100000000E-03 0.  1.
         12    1    3    3    0    0 -0.13723246293E+02 -0.97403291757E+01  0.15127074059E+02  0.22628077047E+02  0.00000000000E+00 0. -1.
</event>
<event>
 7    1  0.2438448E-008  0.4614232E+02  0.7816164E-02  0.1320468E+00
        -11   -1    0    0    0    0  0.00000000000E+00  0.00000000000E+00  0.45593999997E+02  0.45594000000E+02  0.51100000000E-03 0.  1.
         11   -1    0    0    0    0 -0.00000000000E+00 -0.00000000000E+00 -0.45593999997E+02  0.45594000000E+02  0.51100000000E-03 0. -1.
    9900012    2    1    2    0    0  0.17156609574E+02  0.40950994895E+02  0.76013294149E+01  0.46142318255E+02  0.10000004505E+02 0.  0.
         12    1    1    2    0    0 -0.17156609574E+02 -0.40950994895E+02 -0.76013294149E+01  0.45045681745E+02  0.00000000000E+00 0. -1.
         11    1    3    3    0    0  0.29241185233E+01  0.21439066832E+01 -0.59779571379E+00  0.36748013526E+01  0.51100000000E-03 0. -1.
        -11    1    3    3    0    0  0.10476590555E+02  0.26573417776E+02  0.80216276264E+01  0.29669040968E+02  0.51100000000E-03 0.  1.
         12    1    3    3    0    0  0.37559004965E+01  0.12233670436E+02  0.17749750231E+00  0.12798475934E+02  0.00000000000E+00 0. -1.
</event>
<event>
 7    1  0.2438448E-008  0.4614232E+02  0.7816164E-02  0.1320468E+00
        -11   -1    0    0    0    0  0.00000000000E+00  0.00000000000E+00  0.45593999997E+02  0.45594000000E+02  0.51100000000E-03 0. -1.
         11   -1    0    0    0    0 -0.00000000000E+00 -0.00000000000E+00 -0.45593999997E+02  0.45594000000E+02  0.51100000000E-03 0.  1.
    9900012    2    1    2    0    0 -0.37977130223E+02  0.22164274653E+02 -0.97773233441E+01  0.46142317159E+02  0.99999945087E+01 0.  0.
         12    1    1    2    0    0  0.37977130223E+02 -0.22164274653E+02  0.97773233441E+01  0.45045682841E+02  0.00000000000E+00 0. -1.
         11    1    3    3    0    0 -0.16293300959E+02  0.64458010482E+01 -0.55532487098E+01  0.18380929759E+02  0.51100000000E-03 0. -1.
        -11    1    3    3    0    0 -0.92662465703E+01  0.33126990325E+01 -0.75857506879E+00  0.98697890949E+01  0.51100000000E-03 0.  1.
        -12    1    3    3    0    0 -0.12417582693E+02  0.12405774572E+02 -0.34654995655E+01  0.17891598305E+02  0.00000000000E+00 0.  1.
</event>
<event>
 7    1  0.2438448E-008  0.4614232E+02  0.7816164E-02  0.1320468E+00
        -11   -1    0    0    0    0  0.00000000000E+00  0.00000000000E+00  0.45593999997E+02  0.45594000000E+02  0.51100000000E-03 0.  1.
         11   -1    0    0    0    0 -0.00000000000E+00 -0.00000000000E+00 -0.45593999997E+02  0.45594000000E+02  0.51100000000E-03 0. -1.
    9900012    2    1    2    0    0  0.30426185294E+02  0.76689484631E+01  0.32319467000E+02  0.46142317974E+02  0.10000001939E+02 0.  0.
         12    1    1    2    0    0 -0.30426185294E+02 -0.76689484631E+01 -0.32319467000E+02  0.45045682026E+02  0.00000000000E+00 0. -1.
         11    1    3    3    0    0  0.15868641732E+02  0.61977354793E+01  0.22401861160E+02  0.28143722198E+02  0.51100000000E-03 0. -1.
        -11    1    3    3    0    0  0.71299222263E+01  0.84943817834E+00  0.68969776035E+01  0.99561858408E+01  0.51100000000E-03 0.  1.
         12    1    3    3    0    0  0.74276213355E+01  0.62177480542E+00  0.30206282363E+01  0.80424099344E+01  0.00000000000E+00 0. -1.
</event>
<event>
 7    1  0.2438448E-008  0.4614231E+02  0.7816164E-02  0.1320468E+00
        -11   -1    0    0    0    0  0.00000000000E+00  0.00000000000E+00  0.45593999997E+02  0.45594000000E+02  0.51100000000E-03 0.  1.
         11   -1    0    0    0    0 -0.00000000000E+00 -0.00000000000E+00 -0.45593999997E+02  0.45594000000E+02  0.51100000000E-03 0. -1.
    9900012    2    1    2    0    0 -0.19166302320E+02 -0.67554035666E+01  0.40201139227E+02  0.46142309672E+02  0.99999262394E+01 0.  0.
         12    1    1    2    0    0  0.19166302320E+02  0.67554035666E+01 -0.40201139227E+02  0.45045690328E+02  0.00000000000E+00 0. -1.
         11    1    3    3    0    0 -0.68810744868E+01  0.51807613456E+00  0.10594774311E+02  0.12643845615E+02  0.51100000000E-03 0. -1.
        -11    1    3    3    0    0 -0.10786026969E+02 -0.42148394307E+01  0.18006533837E+02  0.21408841872E+02  0.51100000000E-03 0.  1.
         12    1    3    3    0    0 -0.14992008642E+01 -0.30586402705E+01  0.11599831078E+02  0.12089622185E+02  0.00000000000E+00 0. -1.
</event>
<event>
 7    1  0.2438448E-008  0.4614232E+02  0.7816164E-02  0.1320468E+00
        -11   -1    0    0    0    0  0.00000000000E+00  0.00000000000E+00  0.45593999997E+02  0.45594000000E+02  0.51100000000E-03 0.  1.
         11   -1    0    0    0    0 -0.00000000000E+00 -0.00000000000E+00 -0.45593999997E+02  0.45594000000E+02  0.51100000000E-03 0. -1.
    9900012    2    1    2    0    0 -0.26781790013E+02  0.32526829397E+00  0.36217997408E+02  0.46142318609E+02  0.10000007729E+02 0.  0.
         12    1    1    2    0    0  0.26781790013E+02 -0.32526829397E+00 -0.36217997408E+02  0.45045681391E+02  0.00000000000E+00 0. -1.
         11    1    3    3    0    0 -0.47860959630E+01 -0.25259569757E+01  0.52974217885E+01  0.75729684455E+01  0.51100000000E-03 0.  1.
        -11    1    3    3    0    0 -0.16846358549E+01  0.45265456690E+00  0.33581624418E+00  0.17764196946E+01  0.51100000000E-03 0. -1.
         12    1    3    3    0    0 -0.20311058195E+02  0.23985707028E+01  0.30584759375E+02  0.36792930469E+02  0.00000000000E+00 0. -1.
</event>
<event>
 7    1  0.2438448E-008  0.4614232E+02  0.7816164E-02  0.1320468E+00
        -11   -1    0    0    0    0  0.00000000000E+00  0.00000000000E+00  0.45593999997E+02  0.45594000000E+02  0.51100000000E-03 0.  1.
         11   -1    0    0    0    0 -0.00000000000E+00 -0.00000000000E+00 -0.45593999997E+02  0.45594000000E+02  0.51100000000E-03 0. -1.
    9900012    2    1    2    0    0 -0.25689416806E+02  0.35402812043E+02  0.10761426413E+02  0.46142317245E+02  0.99999952942E+01 0.  0.
         12    1    1    2    0    0  0.25689416806E+02 -0.35402812043E+02 -0.10761426413E+02  0.45045682755E+02  0.00000000000E+00 0. -1.
         11    1    3    3    0    0 -0.12385301461E+02  0.21953149332E+02  0.58215515829E+01  0.25869420576E+02  0.51100000000E-03 0. -1.
        -11    1    3    3    0    0 -0.75644403224E+01  0.11041834558E+02  0.40606195509E+01  0.13986833065E+02  0.51100000000E-03 0.  1.
         12    1    3    3    0    0 -0.57396750223E+01  0.24078281539E+01  0.87925527887E+00  0.62860636034E+01  0.00000000000E+00 0. -1.
</event>
<event>
 7    1  0.2438448E-008  0.4614232E+02  0.7816164E-02  0.1320468E+00
        -11   -1    0    0    0    0  0.00000000000E+00  0.00000000000E+00  0.45593999997E+02  0.45594000000E+02  0.51100000000E-03 0.  1.
         11   -1    0    0    0    0 -0.00000000000E+00 -0.00000000000E+00 -0.45593999997E+02  0.45594000000E+02  0.51100000000E-03 0. -1.
    9900012    2    1    2    0    0  0.29529313859E+02  0.11039028476E+02  0.32175654819E+02  0.46142319966E+02  0.10000020108E+02 0.  0.
         12    1    1    2    0    0 -0.29529313859E+02 -0.11039028476E+02 -0.32175654819E+02  0.45045680034E+02  0.00000000000E+00 0. -1.
         11    1    3    3    0    0  0.78057433266E+01  0.49174047523E+01  0.14721036737E+02  0.17372950850E+02  0.51100000000E-03 0.  1.
        -11    1    3    3    0    0  0.26435918016E+01  0.19026080151E+00  0.83110490548E+00  0.27776811212E+01  0.51100000000E-03 0. -1.
        -12    1    3    3    0    0  0.19079978731E+02  0.59313629217E+01  0.16623513176E+02  0.25991687995E+02  0.00000000000E+00 0.  1.
</event>
<event>
 7    1  0.2438448E-008  0.4614232E+02  0.7816164E-02  0.1320468E+00
        -11   -1    0    0    0    0  0.00000000000E+00  0.00000000000E+00  0.45593999997E+02  0.45594000000E+02  0.51100000000E-03 0. -1.
         11   -1    0    0    0    0 -0.00000000000E+00 -0.00000000000E+00 -0.45593999997E+02  0.45594000000E+02  0.51100000000E-03 0.  1.
    9900012    2    1    2    0    0  0.88164228285E+01 -0.91758659484E+01 -0.43210967574E+02  0.46142317121E+02  0.99999941591E+01 0.  0.
         12    1    1    2    0    0 -0.88164228285E+01  0.91758659484E+01  0.43210967574E+02  0.45045682879E+02  0.00000000000E+00 0. -1.
         11    1    3    3    0    0  0.99814502716E+00 -0.94879264240E+00 -0.53813454392E+00  0.14785432094E+01  0.51100000000E-03 0. -1.
        -11    1    3    3    0    0  0.64882888421E+01 -0.93858488030E+01 -0.37586905870E+02  0.39280625542E+02  0.51100000000E-03 0.  1.
        -12    1    3    3    0    0  0.13299889593E+01  0.11587754971E+01 -0.50859271604E+01  0.53831483693E+01  0.00000000000E+00 0.  1.
</event>
<event>
 7    1  0.2438448E-008  0.4614232E+02  0.7816164E-02  0.1320468E+00
        -11   -1    0    0    0    0  0.00000000000E+00  0.00000000000E+00  0.45593999997E+02  0.45594000000E+02  0.51100000000E-03 0.  1.
         11   -1    0    0    0    0 -0.00000000000E+00 -0.00000000000E+00 -0.45593999997E+02  0.45594000000E+02  0.51100000000E-03 0. -1.
    9900012    2    1    2    0    0 -0.74408177384E+01  0.32781321791E+02  0.29985533983E+02  0.46142322347E+02  0.10000041818E+02 0.  0.
         12    1    1    2    0    0  0.74408177384E+01 -0.32781321791E+02 -0.29985533983E+02  0.45045677653E+02  0.00000000000E+00 0. -1.
         11    1    3    3    0    0 -0.18801505092E+01  0.22022858960E+02  0.17137326982E+02  0.27968361751E+02  0.51100000000E-03 0. -1.
        -11    1    3    3    0    0 -0.27867013997E+01  0.92581371143E+01  0.10220216459E+02  0.14068817728E+02  0.51100000000E-03 0.  1.
        -12    1    3    3    0    0 -0.27739658295E+01  0.15003257166E+01  0.26279905426E+01  0.41051428685E+01  0.00000000000E+00 0.  1.
</event>
<event>
 7    1  0.2438448E-008  0.4614232E+02  0.7816164E-02  0.1320468E+00
        -11   -1    0    0    0    0  0.00000000000E+00  0.00000000000E+00  0.45593999997E+02  0.45594000000E+02  0.51100000000E-03 0.  1.
         11   -1    0    0    0    0 -0.00000000000E+00 -0.00000000000E+00 -0.45593999997E+02  0.45594000000E+02  0.51100000000E-03 0. -1.
    9900012    2    1    2    0    0  0.89274811589E+01  0.65361849649E+01  0.43665682973E+02  0.46142317596E+02  0.99999984973E+01 0.  0.
         12    1    1    2    0    0 -0.89274811589E+01 -0.65361849649E+01 -0.43665682973E+02  0.45045682404E+02  0.00000000000E+00 0. -1.
         11    1    3    3    0    0  0.29105875530E+01  0.46614006942E+01  0.26173333436E+02  0.26744037835E+02  0.51100000000E-03 0. -1.
        -11    1    3    3    0    0  0.54940672253E+01  0.90097693673E+00  0.17422901446E+02  0.18290818165E+02  0.51100000000E-03 0.  1.
         12    1    3    3    0    0  0.52282638067E+00  0.97380733400E+00  0.69448091255E-01  0.11074615955E+01  0.00000000000E+00 0. -1.
</event>
<event>
 7    1  0.2438448E-008  0.4614232E+02  0.7816164E-02  0.1320468E+00
        -11   -1    0    0    0    0  0.00000000000E+00  0.00000000000E+00  0.45593999997E+02  0.45594000000E+02  0.51100000000E-03 0. -1.
         11   -1    0    0    0    0 -0.00000000000E+00 -0.00000000000E+00 -0.45593999997E+02  0.45594000000E+02  0.51100000000E-03 0.  1.
    9900012    2    1    2    0    0  0.18409036877E+02  0.40854090157E+02 -0.46004416449E+01  0.46142318913E+02  0.10000010499E+02 0.  0.
         12    1    1    2    0    0 -0.18409036877E+02 -0.40854090157E+02  0.46004416449E+01  0.45045681087E+02  0.00000000000E+00 0. -1.
         11    1    3    3    0    0  0.30142179588E+01  0.27284056902E+01 -0.74114397631E+00  0.41326749410E+01  0.51100000000E-03 0. -1.
        -11    1    3    3    0    0  0.10111797070E+02  0.20608386851E+02  0.13221019378E+01  0.22993520878E+02  0.51100000000E-03 0.  1.
        -12    1    3    3    0    0  0.52830218481E+01  0.17517297616E+02 -0.51813996064E+01  0.19016123093E+02  0.00000000000E+00 0.  1.
</event>
<event>
 7    1  0.2438448E-008  0.4614232E+02  0.7816164E-02  0.1320468E+00
        -11   -1    0    0    0    0  0.00000000000E+00  0.00000000000E+00  0.45593999997E+02  0.45594000000E+02  0.51100000000E-03 0.  1.
         11   -1    0    0    0    0 -0.00000000000E+00 -0.00000000000E+00 -0.45593999997E+02  0.45594000000E+02  0.51100000000E-03 0. -1.
    9900012    2    1    2    0    0 -0.59243128535E+01 -0.27640784008E+02  0.35071399855E+02  0.46142317508E+02  0.99999976913E+01 0.  0.
         12    1    1    2    0    0  0.59243128535E+01  0.27640784008E+02 -0.35071399855E+02  0.45045682492E+02  0.00000000000E+00 0. -1.
         11    1    3    3    0    0 -0.55375094656E+00 -0.94851751536E+01  0.15869270094E+02  0.18496186671E+02  0.51100000000E-03 0. -1.
        -11    1    3    3    0    0 -0.10764323197E+01 -0.47808444201E+00 -0.23488643055E-01  0.11780591030E+01  0.51100000000E-03 0.  1.
        -12    1    3    3    0    0 -0.42941295872E+01 -0.17677524413E+02  0.19225618404E+02  0.26468071734E+02  0.00000000000E+00 0.  1.
</event>
<event>
 7    1  0.2438448E-008  0.4614232E+02  0.7816164E-02  0.1320468E+00
        -11   -1    0    0    0    0  0.00000000000E+00  0.00000000000E+00  0.45593999997E+02  0.45594000000E+02  0.51100000000E-03 0.  1.
         11   -1    0    0    0    0 -0.00000000000E+00 -0.00000000000E+00 -0.45593999997E+02  0.45594000000E+02  0.51100000000E-03 0. -1.
    9900012    2    1    2    0    0  0.89244523372E+01 -0.37377565126E+02  0.23502878409E+02  0.46142317435E+02  0.99999970218E+01 0.  0.
         12    1    1    2    0    0 -0.89244523372E+01  0.37377565126E+02 -0.23502878409E+02  0.45045682565E+02  0.00000000000E+00 0. -1.
         11    1    3    3    0    0 -0.16720641477E+01 -0.58208241320E+01  0.43853378589E+01  0.74772308034E+01  0.51100000000E-03 0. -1.
        -11    1    3    3    0    0 -0.95709327878E-01 -0.28167325621E+01  0.73451187962E+00  0.29124990239E+01  0.51100000000E-03 0.  1.
        -12    1    3    3    0    0  0.10692225813E+02 -0.28740008432E+02  0.18383028671E+02  0.35752587607E+02  0.00000000000E+00 0.  1.
</event>
<event>
 7    1  0.2438448E-008  0.4614232E+02  0.7816164E-02  0.1320468E+00
        -11   -1    0    0    0    0  0.00000000000E+00  0.00000000000E+00  0.45593999997E+02  0.45594000000E+02  0.51100000000E-03 0. -1.
         11   -1    0    0    0    0 -0.00000000000E+00 -0.00000000000E+00 -0.45593999997E+02  0.45594000000E+02  0.51100000000E-03 0.  1.
    9900012    2    1    2    0    0  0.30236180025E+01 -0.11001211834E+02 -0.43576881262E+02  0.46142317542E+02  0.99999979981E+01 0.  0.
         12    1    1    2    0    0 -0.30236180025E+01  0.11001211834E+02  0.43576881262E+02  0.45045682458E+02  0.00000000000E+00 0. -1.
         11    1    3    3    0    0 -0.11741695307E+01 -0.18258797057E+01 -0.62687128105E+01  0.66339483981E+01  0.51100000000E-03 0. -1.
        -11    1    3    3    0    0  0.37613474009E+00 -0.83701509137E+01 -0.30790520044E+02  0.31910139901E+02  0.51100000000E-03 0.  1.
         12    1    3    3    0    0  0.38216527931E+01 -0.80518121442E+00 -0.65176484069E+01  0.75982292421E+01  0.00000000000E+00 0. -1.
</event>
<event>
 7    1  0.2438448E-008  0.4614232E+02  0.7816164E-02  0.1320468E+00
        -11   -1    0    0    0    0  0.00000000000E+00  0.00000000000E+00  0.45593999997E+02  0.45594000000E+02  0.51100000000E-03 0. -1.
         11   -1    0    0    0    0 -0.00000000000E+00 -0.00000000000E+00 -0.45593999997E+02  0.45594000000E+02  0.51100000000E-03 0.  1.
    9900012    2    1    2    0    0  0.38751520210E+02 -0.16922814284E+02  0.15525833122E+02  0.46142318120E+02  0.10000003274E+02 0.  0.
         12    1    1    2    0    0 -0.38751520210E+02  0.16922814284E+02 -0.15525833122E+02  0.45045681880E+02  0.00000000000E+00 0. -1.
         11    1    3    3    0    0  0.33851389805E+01 -0.26243107211E+01  0.20048884787E+01  0.47292442051E+01  0.51100000000E-03 0. -1.
        -11    1    3    3    0    0  0.60943857369E+01 -0.46068940348E+00 -0.49463718138E+00  0.61317565541E+01  0.51100000000E-03 0.  1.
        -12    1    3    3    0    0  0.29271995493E+02 -0.13837814159E+02  0.14015581824E+02  0.35281317361E+02  0.00000000000E+00 0.  1.
</event>
<event>
 7    1  0.2438448E-008  0.4614232E+02  0.7816164E-02  0.1320468E+00
        -11   -1    0    0    0    0  0.00000000000E+00  0.00000000000E+00  0.45593999997E+02  0.45594000000E+02  0.51100000000E-03 0.  1.
         11   -1    0    0    0    0 -0.00000000000E+00 -0.00000000000E+00 -0.45593999997E+02  0.45594000000E+02  0.51100000000E-03 0. -1.
    9900012    2    1    2    0    0 -0.35593879811E+02  0.32949730204E+01  0.27410441449E+02  0.46142318435E+02  0.10000006145E+02 0.  0.
         12    1    1    2    0    0  0.35593879811E+02 -0.32949730204E+01 -0.27410441449E+02  0.45045681565E+02  0.00000000000E+00 0. -1.
         11    1    3    3    0    0 -0.17441769696E+01  0.55070434965E+00  0.20330874288E+01  0.27347528840E+01  0.51100000000E-03 0. -1.
        -11    1    3    3    0    0 -0.20768297681E+02 -0.25340281037E+01  0.17329274248E+02  0.27167024740E+02  0.51100000000E-03 0.  1.
         12    1    3    3    0    0 -0.13081405161E+02  0.52782967744E+01  0.80480797726E+01  0.16240540811E+02  0.00000000000E+00 0. -1.
</event>
<event>
 7    1  0.2438448E-008  0.4614232E+02  0.7816164E-02  0.1320468E+00
        -11   -1    0    0    0    0  0.00000000000E+00  0.00000000000E+00  0.45593999997E+02  0.45594000000E+02  0.51100000000E-03 0.  1.
         11   -1    0    0    0    0 -0.00000000000E+00 -0.00000000000E+00 -0.45593999997E+02  0.45594000000E+02  0.51100000000E-03 0. -1.
    9900012    2    1    2    0    0  0.21090634868E+02 -0.39724625426E+02  0.25005431570E+01  0.46142318071E+02  0.10000002825E+02 0.  0.
         12    1    1    2    0    0 -0.21090634868E+02  0.39724625426E+02 -0.25005431570E+01  0.45045681929E+02  0.00000000000E+00 0. -1.
         11    1    3    3    0    0  0.17641827956E+01 -0.34117670605E+01  0.23641130596E+01  0.45101581160E+01  0.51100000000E-03 0. -1.
        -11    1    3    3    0    0  0.60329500886E+00 -0.23315838598E+01 -0.14329878327E+01  0.28024458162E+01  0.51100000000E-03 0.  1.
        -12    1    3    3    0    0  0.18723157064E+02 -0.33981274506E+02  0.15694179301E+01  0.38829714139E+02  0.00000000000E+00 0.  1.
</event>
<event>
 7    1  0.2438448E-008  0.4614232E+02  0.7816164E-02  0.1320468E+00
        -11   -1    0    0    0    0  0.00000000000E+00  0.00000000000E+00  0.45593999997E+02  0.45594000000E+02  0.51100000000E-03 0. -1.
         11   -1    0    0    0    0 -0.00000000000E+00 -0.00000000000E+00 -0.45593999997E+02  0.45594000000E+02  0.51100000000E-03 0.  1.
    9900012    2    1    2    0    0  0.41027606375E+02  0.18563922874E+02  0.11089467615E+01  0.46142317851E+02  0.10000000821E+02 0.  0.
         12    1    1    2    0    0 -0.41027606375E+02 -0.18563922874E+02 -0.11089467615E+01  0.45045682149E+02  0.00000000000E+00 0. -1.
         11    1    3    3    0    0  0.22555673699E+02  0.93811950799E+01  0.37776669173E+01  0.24719142476E+02  0.51100000000E-03 0. -1.
        -11    1    3    3    0    0  0.11220079177E+02  0.77631793148E+01 -0.24426632261E+00  0.13646127514E+02  0.51100000000E-03 0.  1.
         12    1    3    3    0    0  0.72518534988E+01  0.14195484790E+01 -0.24244538332E+01  0.77770478616E+01  0.00000000000E+00 0. -1.
</event>
<event>
 7    1  0.2438448E-008  0.4614232E+02  0.7816164E-02  0.1320468E+00
        -11   -1    0    0    0    0  0.00000000000E+00  0.00000000000E+00  0.45593999997E+02  0.45594000000E+02  0.51100000000E-03 0.  1.
         11   -1    0    0    0    0 -0.00000000000E+00 -0.00000000000E+00 -0.45593999997E+02  0.45594000000E+02  0.51100000000E-03 0. -1.
    9900012    2    1    2    0    0  0.19918721968E+01 -0.19375472437E+02  0.40616953865E+02  0.46142318428E+02  0.10000006085E+02 0.  0.
         12    1    1    2    0    0 -0.19918721968E+01  0.19375472437E+02 -0.40616953865E+02  0.45045681572E+02  0.00000000000E+00 0. -1.
         11    1    3    3    0    0 -0.17486891156E+01 -0.10828674017E+02  0.13742634836E+02  0.17583461180E+02  0.51100000000E-03 0. -1.
        -11    1    3    3    0    0  0.72582534589E+00 -0.19450404336E+00  0.15427702618E+01  0.17160403834E+01  0.51100000000E-03 0.  1.
        -12    1    3    3    0    0  0.30147359665E+01 -0.83522943771E+01  0.25331548767E+02  0.26842816865E+02  0.00000000000E+00 0.  1.
</event>
<event>
 7    1  0.2438448E-008  0.4614232E+02  0.7816164E-02  0.1320468E+00
        -11   -1    0    0    0    0  0.00000000000E+00  0.00000000000E+00  0.45593999997E+02  0.45594000000E+02  0.51100000000E-03 0.  1.
         11   -1    0    0    0    0 -0.00000000000E+00 -0.00000000000E+00 -0.45593999997E+02  0.45594000000E+02  0.51100000000E-03 0. -1.
    9900012    2    1    2    0    0 -0.38240020229E+02 -0.32060849821E+01  0.23591002576E+02  0.46142317293E+02  0.99999957285E+01 0.  0.
         12    1    1    2    0    0  0.38240020229E+02  0.32060849821E+01 -0.23591002576E+02  0.45045682707E+02  0.00000000000E+00 0. -1.
         11    1    3    3    0    0 -0.65627425957E+01 -0.25996986729E+00  0.10364499086E+01  0.66491656156E+01  0.51100000000E-03 0. -1.
        -11    1    3    3    0    0 -0.15854132330E+02 -0.19711236630E+01  0.75698288970E+01  0.17678833395E+02  0.51100000000E-03 0.  1.
         12    1    3    3    0    0 -0.15823145304E+02 -0.97499145181E+00  0.14984723771E+02  0.21814318282E+02  0.00000000000E+00 0. -1.
</event>
<event>
 7    1  0.2438448E-008  0.4614232E+02  0.7816164E-02  0.1320468E+00
        -11   -1    0    0    0    0  0.00000000000E+00  0.00000000000E+00  0.45593999997E+02  0.45594000000E+02  0.51100000000E-03 0.  1.
         11   -1    0    0    0    0 -0.00000000000E+00 -0.00000000000E+00 -0.45593999997E+02  0.45594000000E+02  0.51100000000E-03 0. -1.
    9900012    2    1    2    0    0 -0.61969399671E+01 -0.19691891137E+02  0.40036743132E+02  0.46142318275E+02  0.10000004682E+02 0.  0.
         12    1    1    2    0    0  0.61969399671E+01  0.19691891137E+02 -0.40036743132E+02  0.45045681725E+02  0.00000000000E+00 0. -1.
         11    1    3    3    0    0  0.14491881489E+01 -0.10015795585E+01  0.17065098466E+01  0.24526483687E+01  0.51100000000E-03 0. -1.
        -11    1    3    3    0    0  0.90184003584E+00 -0.12990625775E+01  0.31856819089E+01  0.35566063201E+01  0.51100000000E-03 0.  1.
        -12    1    3    3    0    0 -0.85479681518E+01 -0.17391249001E+02  0.35144551376E+02  0.40133063586E+02  0.00000000000E+00 0.  1.
</event>
<event>
 7    1  0.2438448E-008  0.4614232E+02  0.7816164E-02  0.1320468E+00
        -11   -1    0    0    0    0  0.00000000000E+00  0.00000000000E+00  0.45593999997E+02  0.45594000000E+02  0.51100000000E-03 0.  1.
         11   -1    0    0    0    0 -0.00000000000E+00 -0.00000000000E+00 -0.45593999997E+02  0.45594000000E+02  0.51100000000E-03 0. -1.
    9900012    2    1    2    0    0 -0.13739959790E+02  0.35034891132E+02  0.24756480585E+02  0.46142318491E+02  0.10000006653E+02 0.  0.
         12    1    1    2    0    0  0.13739959790E+02 -0.35034891132E+02 -0.24756480585E+02  0.45045681509E+02  0.00000000000E+00 0. -1.
         11    1    3    3    0    0 -0.55273055188E+01  0.14815201641E+02  0.63390937526E+01  0.17036003517E+02  0.51100000000E-03 0. -1.
        -11    1    3    3    0    0 -0.44152038302E+01  0.13860759436E+02  0.89263029714E+01  0.17067324395E+02  0.51100000000E-03 0.  1.
         12    1    3    3    0    0 -0.37974504406E+01  0.63589300556E+01  0.94910838613E+01  0.12038990579E+02  0.00000000000E+00 0. -1.
</event>
<event>
 7    1  0.2438448E-008  0.4614232E+02  0.7816164E-02  0.1320468E+00
        -11   -1    0    0    0    0  0.00000000000E+00  0.00000000000E+00  0.45593999997E+02  0.45594000000E+02  0.51100000000E-03 0.  1.
         11   -1    0    0    0    0 -0.00000000000E+00 -0.00000000000E+00 -0.45593999997E+02  0.45594000000E+02  0.51100000000E-03 0. -1.
    9900012    2    1    2    0    0  0.41554926508E+02  0.81343930485E+01  0.15366627873E+02  0.46142317415E+02  0.99999968460E+01 0.  0.
         12    1    1    2    0    0 -0.41554926508E+02 -0.81343930485E+01 -0.15366627873E+02  0.45045682585E+02  0.00000000000E+00 0. -1.
         11    1    3    3    0    0  0.32421893641E+01  0.23559570718E+01  0.32233002682E+00  0.40207241269E+01  0.51100000000E-03 0. -1.
        -11    1    3    3    0    0  0.19194496915E+02  0.31180467892E+01  0.11197403957E+02  0.22439536164E+02  0.51100000000E-03 0.  1.
         12    1    3    3    0    0  0.19118240229E+02  0.26603891875E+01  0.38468938895E+01  0.19682057125E+02  0.00000000000E+00 0. -1.
</event>
<event>
 7    1  0.2438448E-008  0.4614232E+02  0.7816164E-02  0.1320468E+00
        -11   -1    0    0    0    0  0.00000000000E+00  0.00000000000E+00  0.45593999997E+02  0.45594000000E+02  0.51100000000E-03 0.  1.
         11   -1    0    0    0    0 -0.00000000000E+00 -0.00000000000E+00 -0.45593999997E+02  0.45594000000E+02  0.51100000000E-03 0. -1.
    9900012    2    1    2    0    0  0.22191626304E+01  0.24211998217E+02  0.37920548100E+02  0.46142317536E+02  0.99999979464E+01 0.  0.
         12    1    1    2    0    0 -0.22191626304E+01 -0.24211998217E+02 -0.37920548100E+02  0.45045682464E+02  0.00000000000E+00 0. -1.
         11    1    3    3    0    0  0.35020008347E+00  0.18600173529E+02  0.21140223848E+02  0.28160223011E+02  0.51100000000E-03 0. -1.
        -11    1    3    3    0    0 -0.46252598523E+00  0.44162786324E+00  0.32301652214E+01  0.32928609256E+01  0.51100000000E-03 0.  1.
         12    1    3    3    0    0  0.23314885321E+01  0.51701968243E+01  0.13550159031E+02  0.14689233600E+02  0.00000000000E+00 0. -1.
</event>
<event>
 7    1  0.2438448E-008  0.4614232E+02  0.7816164E-02  0.1320468E+00
        -11   -1    0    0    0    0  0.00000000000E+00  0.00000000000E+00  0.45593999997E+02  0.45594000000E+02  0.51100000000E-03 0.  1.
         11   -1    0    0    0    0 -0.00000000000E+00 -0.00000000000E+00 -0.45593999997E+02  0.45594000000E+02  0.51100000000E-03 0. -1.
    9900012    2    1    2    0    0 -0.29033572882E+02  0.20667052367E+02  0.27550645272E+02  0.46142318046E+02  0.10000002597E+02 0.  0.
         12    1    1    2    0    0  0.29033572882E+02 -0.20667052367E+02 -0.27550645272E+02  0.45045681954E+02  0.00000000000E+00 0. -1.
         11    1    3    3    0    0 -0.97480227232E+01  0.39091953210E+01  0.49432645610E+01  0.11607825802E+02  0.51100000000E-03 0. -1.
        -11    1    3    3    0    0 -0.18626731047E+02  0.14192571651E+02  0.19702727576E+02  0.30603621906E+02  0.51100000000E-03 0.  1.
         12    1    3    3    0    0 -0.65881911150E+00  0.25652853953E+01  0.29046531349E+01  0.39308703381E+01  0.00000000000E+00 0. -1.
</event>
<event>
 7    1  0.2438448E-008  0.4614232E+02  0.7816164E-02  0.1320468E+00
        -11   -1    0    0    0    0  0.00000000000E+00  0.00000000000E+00  0.45593999997E+02  0.45594000000E+02  0.51100000000E-03 0.  1.
         11   -1    0    0    0    0 -0.00000000000E+00 -0.00000000000E+00 -0.45593999997E+02  0.45594000000E+02  0.51100000000E-03 0. -1.
    9900012    2    1    2    0    0  0.36693432487E+02  0.12277029931E+02  0.23064695418E+02  0.46142316229E+02  0.99999860332E+01 0.  0.
         12    1    1    2    0    0 -0.36693432487E+02 -0.12277029931E+02 -0.23064695418E+02  0.45045683771E+02  0.00000000000E+00 0. -1.
         11    1    3    3    0    0  0.29343430785E+01 -0.14130234396E+01  0.79062807553E+00  0.33514321652E+01  0.51100000000E-03 0. -1.
        -11    1    3    3    0    0  0.14648248172E+02  0.50906844252E+01  0.81468369103E+01  0.17517339819E+02  0.51100000000E-03 0.  1.
        -12    1    3    3    0    0  0.19110841237E+02  0.85993689451E+01  0.14127230432E+02  0.25273544245E+02  0.00000000000E+00 0.  1.
</event>
<event>
 7    1  0.2438448E-008  0.4614232E+02  0.7816164E-02  0.1320468E+00
        -11   -1    0    0    0    0  0.00000000000E+00  0.00000000000E+00  0.45593999997E+02  0.45594000000E+02  0.51100000000E-03 0. -1.
         11   -1    0    0    0    0 -0.00000000000E+00 -0.00000000000E+00 -0.45593999997E+02  0.45594000000E+02  0.51100000000E-03 0.  1.
    9900012    2    1    2    0    0 -0.16116256992E+02 -0.34467598274E+02  0.24111500809E+02  0.46142317171E+02  0.99999946224E+01 0.  0.
         12    1    1    2    0    0  0.16116256992E+02  0.34467598274E+02 -0.24111500809E+02  0.45045682829E+02  0.00000000000E+00 0. -1.
         11    1    3    3    0    0 -0.54474813610E+00 -0.54805743352E+01  0.60532413432E+01  0.81838363006E+01  0.51100000000E-03 0. -1.
        -11    1    3    3    0    0 -0.80864086332E+01 -0.20368635961E+02  0.10805383497E+02  0.24434149223E+02  0.51100000000E-03 0.  1.
        -12    1    3    3    0    0 -0.74851002229E+01 -0.86183879780E+01  0.72528759690E+01  0.13524331647E+02  0.00000000000E+00 0.  1.
</event>
<event>
 7    1  0.2438448E-008  0.4614232E+02  0.7816164E-02  0.1320468E+00
        -11   -1    0    0    0    0  0.00000000000E+00  0.00000000000E+00  0.45593999997E+02  0.45594000000E+02  0.51100000000E-03 0.  1.
         11   -1    0    0    0    0 -0.00000000000E+00 -0.00000000000E+00 -0.45593999997E+02  0.45594000000E+02  0.51100000000E-03 0. -1.
    9900012    2    1    2    0    0  0.44927833979E+01  0.37097641054E+02  0.25153397465E+02  0.46142317871E+02  0.10000001000E+02 0.  0.
         12    1    1    2    0    0 -0.44927833979E+01 -0.37097641054E+02 -0.25153397465E+02  0.45045682129E+02  0.00000000000E+00 0. -1.
         11    1    3    3    0    0  0.11505425810E+01  0.15682193864E+02  0.10066690511E+02  0.18670651052E+02  0.51100000000E-03 0. -1.
        -11    1    3    3    0    0  0.57521421126E+01  0.13634919151E+02  0.92605623096E+01  0.17457267074E+02  0.51100000000E-03 0.  1.
         12    1    3    3    0    0 -0.24099012956E+01  0.77805280397E+01  0.58261446443E+01  0.10014399745E+02  0.00000000000E+00 0. -1.
</event>
<event>
 7    1  0.2438448E-008  0.4614232E+02  0.7816164E-02  0.1320468E+00
        -11   -1    0    0    0    0  0.00000000000E+00  0.00000000000E+00  0.45593999997E+02  0.45594000000E+02  0.51100000000E-03 0.  1.
         11   -1    0    0    0    0 -0.00000000000E+00 -0.00000000000E+00 -0.45593999997E+02  0.45594000000E+02  0.51100000000E-03 0. -1.
    9900012    2    1    2    0    0 -0.17562687889E+02 -0.40830526267E+02  0.73166603157E+01  0.46142318749E+02  0.10000009011E+02 0.  0.
         12    1    1    2    0    0  0.17562687889E+02  0.40830526267E+02 -0.73166603157E+01  0.45045681251E+02  0.00000000000E+00 0. -1.
         11    1    3    3    0    0 -0.42969018822E+01 -0.42243327764E+01 -0.23300592285E+00  0.60301447090E+01  0.51100000000E-03 0. -1.
        -11    1    3    3    0    0 -0.35085958343E+01 -0.18477041409E+02  0.36087252957E+01  0.19150305545E+02  0.51100000000E-03 0.  1.
         12    1    3    3    0    0 -0.97571901729E+01 -0.18129152082E+02  0.39409409428E+01  0.20961868495E+02  0.00000000000E+00 0. -1.
</event>
<event>
 7    1  0.2438448E-008  0.4614232E+02  0.7816164E-02  0.1320468E+00
        -11   -1    0    0    0    0  0.00000000000E+00  0.00000000000E+00  0.45593999997E+02  0.45594000000E+02  0.51100000000E-03 0. -1.
         11   -1    0    0    0    0 -0.00000000000E+00 -0.00000000000E+00 -0.45593999997E+02  0.45594000000E+02  0.51100000000E-03 0.  1.
    9900012    2    1    2    0    0 -0.40743625263E+02 -0.31338480320E+00 -0.19208649943E+02  0.46142318273E+02  0.10000004672E+02 0.  0.
         12    1    1    2    0    0  0.40743625263E+02  0.31338480320E+00  0.19208649943E+02  0.45045681727E+02  0.00000000000E+00 0. -1.
         11    1    3    3    0    0 -0.20658832300E+02 -0.22887059299E+00 -0.65355223710E+01  0.21669166727E+02  0.51100000000E-03 0. -1.
        -11    1    3    3    0    0 -0.71153143912E+01  0.99161506103E-01 -0.79490487859E+01  0.10668875702E+02  0.51100000000E-03 0.  1.
        -12    1    3    3    0    0 -0.12969478572E+02 -0.18367571631E+00 -0.47240787858E+01  0.13804275844E+02  0.00000000000E+00 0.  1.
</event>
<event>
 7    1  0.2438448E-008  0.4614232E+02  0.7816164E-02  0.1320468E+00
        -11   -1    0    0    0    0  0.00000000000E+00  0.00000000000E+00  0.45593999997E+02  0.45594000000E+02  0.51100000000E-03 0. -1.
         11   -1    0    0    0    0 -0.00000000000E+00 -0.00000000000E+00 -0.45593999997E+02  0.45594000000E+02  0.51100000000E-03 0.  1.
    9900012    2    1    2    0    0  0.10872145410E+02  0.24079920136E+02 -0.36483795864E+02  0.46142318073E+02  0.10000002845E+02 0.  0.
         12    1    1    2    0    0 -0.10872145410E+02 -0.24079920136E+02  0.36483795864E+02  0.45045681927E+02  0.00000000000E+00 0. -1.
         11    1    3    3    0    0  0.84419269457E+01  0.18100198553E+02 -0.19923752631E+02  0.28210622776E+02  0.51100000000E-03 0.  1.
        -11    1    3    3    0    0  0.12472252614E+01  0.66365656734E+00 -0.39831130275E+01  0.42262513583E+01  0.51100000000E-03 0. -1.
        -12    1    3    3    0    0  0.11829932032E+01  0.53160650153E+01 -0.12576930206E+02  0.13705443939E+02  0.00000000000E+00 0.  1.
</event>
<event>
 7    1  0.2438448E-008  0.4614232E+02  0.7816164E-02  0.1320468E+00
        -11   -1    0    0    0    0  0.00000000000E+00  0.00000000000E+00  0.45593999997E+02  0.45594000000E+02  0.51100000000E-03 0.  1.
         11   -1    0    0    0    0 -0.00000000000E+00 -0.00000000000E+00 -0.45593999997E+02  0.45594000000E+02  0.51100000000E-03 0. -1.
    9900012    2    1    2    0    0  0.39150150017E+02  0.12422693606E+02  0.18494757153E+02  0.46142316468E+02  0.99999882051E+01 0.  0.
         12    1    1    2    0    0 -0.39150150017E+02 -0.12422693606E+02 -0.18494757153E+02  0.45045683532E+02  0.00000000000E+00 0. -1.
         11    1    3    3    0    0  0.45160356336E+01  0.35657628068E+00  0.47222365291E+01  0.65437942041E+01  0.51100000000E-03 0. -1.
        -11    1    3    3    0    0  0.22394163318E+00 -0.12595961636E+00 -0.36841178510E+00  0.44915830678E+00  0.51100000000E-03 0.  1.
        -12    1    3    3    0    0  0.34410172750E+02  0.12192076942E+02  0.14140932409E+02  0.39149363957E+02  0.00000000000E+00 0.  1.
</event>
<event>
 7    1  0.2438448E-008  0.4614231E+02  0.7816164E-02  0.1320468E+00
        -11   -1    0    0    0    0  0.00000000000E+00  0.00000000000E+00  0.45593999997E+02  0.45594000000E+02  0.51100000000E-03 0.  1.
         11   -1    0    0    0    0 -0.00000000000E+00 -0.00000000000E+00 -0.45593999997E+02  0.45594000000E+02  0.51100000000E-03 0. -1.
    9900012    2    1    2    0    0 -0.42355395246E+02 -0.13148795333E+02 -0.78894939260E+01  0.46142307203E+02  0.99999037214E+01 0.  0.
         12    1    1    2    0    0  0.42355395246E+02  0.13148795333E+02  0.78894939260E+01  0.45045692797E+02  0.00000000000E+00 0. -1.
         11    1    3    3    0    0 -0.11027865432E+01 -0.18809011690E+01 -0.15195366014E+00  0.21856389325E+01  0.51100000000E-03 0. -1.
        -11    1    3    3    0    0 -0.16255018199E+02 -0.43113826715E+01 -0.63370056390E+01  0.17971401668E+02  0.51100000000E-03 0.  1.
         12    1    3    3    0    0 -0.24997590504E+02 -0.69565114922E+01 -0.14005346268E+01  0.25985266602E+02  0.00000000000E+00 0. -1.
</event>
<event>
 7    1  0.2438448E-008  0.4614232E+02  0.7816164E-02  0.1320468E+00
        -11   -1    0    0    0    0  0.00000000000E+00  0.00000000000E+00  0.45593999997E+02  0.45594000000E+02  0.51100000000E-03 0.  1.
         11   -1    0    0    0    0 -0.00000000000E+00 -0.00000000000E+00 -0.45593999997E+02  0.45594000000E+02  0.51100000000E-03 0. -1.
    9900012    2    1    2    0    0 -0.62584887532E+01 -0.43604184741E+02 -0.94138140849E+01  0.46142317588E+02  0.99999984194E+01 0.  0.
         12    1    1    2    0    0  0.62584887532E+01  0.43604184741E+02  0.94138140849E+01  0.45045682412E+02  0.00000000000E+00 0. -1.
         11    1    3    3    0    0 -0.37875492878E+01 -0.16481846172E+02 -0.55601505332E+01  0.17802023959E+02  0.51100000000E-03 0. -1.
        -11    1    3    3    0    0 -0.16895329095E+01 -0.53572661124E+01  0.16912059077E+01  0.58664298627E+01  0.51100000000E-03 0.  1.
        -12    1    3    3    0    0 -0.78140655587E+00 -0.21765072456E+02 -0.55448694594E+01  0.22473863766E+02  0.00000000000E+00 0.  1.
</event>
<event>
 7    1  0.2438448E-008  0.4614232E+02  0.7816164E-02  0.1320468E+00
        -11   -1    0    0    0    0  0.00000000000E+00  0.00000000000E+00  0.45593999997E+02  0.45594000000E+02  0.51100000000E-03 0.  1.
         11   -1    0    0    0    0 -0.00000000000E+00 -0.00000000000E+00 -0.45593999997E+02  0.45594000000E+02  0.51100000000E-03 0. -1.
    9900012    2    1    2    0    0 -0.32937417105E+02 -0.28453670941E+02  0.11602945455E+02  0.46142321197E+02  0.10000031330E+02 0.  0.
         12    1    1    2    0    0  0.32937417105E+02  0.28453670941E+02 -0.11602945455E+02  0.45045678803E+02  0.00000000000E+00 0. -1.
         11    1    3    3    0    0 -0.15734329245E+02 -0.12802035217E+02  0.84790889428E+01  0.21985362677E+02  0.51100000000E-03 0. -1.
        -11    1    3    3    0    0 -0.12439284810E+02 -0.14385966295E+02  0.22466163955E+01  0.19150433893E+02  0.51100000000E-03 0.  1.
         12    1    3    3    0    0 -0.47638030512E+01 -0.12656694291E+01  0.87724011631E+00  0.50065246265E+01  0.00000000000E+00 0. -1.
</event>
<event>
 7    1  0.2438448E-008  0.4614231E+02  0.7816164E-02  0.1320468E+00
        -11   -1    0    0    0    0  0.00000000000E+00  0.00000000000E+00  0.45593999997E+02  0.45594000000E+02  0.51100000000E-03 0. -1.
         11   -1    0    0    0    0 -0.00000000000E+00 -0.00000000000E+00 -0.45593999997E+02  0.45594000000E+02  0.51100000000E-03 0.  1.
    9900012    2    1    2    0    0 -0.16131967311E+02  0.28739149025E+02 -0.30707244386E+02  0.46142313039E+02  0.99999569374E+01 0.  0.
         12    1    1    2    0    0  0.16131967311E+02 -0.28739149025E+02  0.30707244386E+02  0.45045686961E+02  0.00000000000E+00 0. -1.
         11    1    3    3    0    0  0.11280267017E+00 -0.26669457793E+00 -0.80650649271E+00  0.85691506242E+00  0.51100000000E-03 0. -1.
        -11    1    3    3    0    0 -0.15722396134E+02  0.23986719553E+02 -0.27352506559E+02  0.39632260476E+02  0.51100000000E-03 0.  1.
        -12    1    3    3    0    0 -0.52237384689E+00  0.50191240495E+01 -0.25482313352E+01  0.56531375003E+01  0.00000000000E+00 0.  1.
</event>
<event>
 7    1  0.2438448E-008  0.4614232E+02  0.7816164E-02  0.1320468E+00
        -11   -1    0    0    0    0  0.00000000000E+00  0.00000000000E+00  0.45593999997E+02  0.45594000000E+02  0.51100000000E-03 0. -1.
         11   -1    0    0    0    0 -0.00000000000E+00 -0.00000000000E+00 -0.45593999997E+02  0.45594000000E+02  0.51100000000E-03 0.  1.
    9900012    2    1    2    0    0 -0.30711572492E+01 -0.24961456057E+02 -0.37371208430E+02  0.46142317467E+02  0.99999973152E+01 0.  0.
         12    1    1    2    0    0  0.30711572492E+01  0.24961456057E+02  0.37371208430E+02  0.45045682533E+02  0.00000000000E+00 0. -1.
         11    1    3    3    0    0  0.23294344051E+01 -0.82564947965E+01 -0.14790269385E+02  0.17098188200E+02  0.51100000000E-03 0. -1.
        -11    1    3    3    0    0  0.86468150853E+00 -0.37672888970E+01 -0.54411363033E+01  0.66742867992E+01  0.51100000000E-03 0.  1.
        -12    1    3    3    0    0 -0.62652731629E+01 -0.12937672364E+02 -0.17139802742E+02  0.22369842468E+02  0.00000000000E+00 0.  1.
</event>
<event>
 7    1  0.2438448E-008  0.4614232E+02  0.7816164E-02  0.1320468E+00
        -11   -1    0    0    0    0  0.00000000000E+00  0.00000000000E+00  0.45593999997E+02  0.45594000000E+02  0.51100000000E-03 0.  1.
         11   -1    0    0    0    0 -0.00000000000E+00 -0.00000000000E+00 -0.45593999997E+02  0.45594000000E+02  0.51100000000E-03 0. -1.
    9900012    2    1    2    0    0 -0.27947802633E+02  0.30737111269E+02  0.17414468996E+02  0.46142318613E+02  0.10000007771E+02 0.  0.
         12    1    1    2    0    0  0.27947802633E+02 -0.30737111269E+02 -0.17414468996E+02  0.45045681387E+02  0.00000000000E+00 0. -1.
         11    1    3    3    0    0 -0.49450018790E+01  0.56959070762E+01  0.62410303704E+01  0.97901410281E+01  0.51100000000E-03 0. -1.
        -11    1    3    3    0    0 -0.12181644237E+02  0.89801716957E+01  0.62209625913E+01  0.16362650024E+02  0.51100000000E-03 0.  1.
         12    1    3    3    0    0 -0.10821156517E+02  0.16061032497E+02  0.49524760346E+01  0.19989527561E+02  0.00000000000E+00 0. -1.
</event>
<event>
 7    1  0.2438448E-008  0.4614232E+02  0.7816164E-02  0.1320468E+00
        -11   -1    0    0    0    0  0.00000000000E+00  0.00000000000E+00  0.45593999997E+02  0.45594000000E+02  0.51100000000E-03 0.  1.
         11   -1    0    0    0    0 -0.00000000000E+00 -0.00000000000E+00 -0.45593999997E+02  0.45594000000E+02  0.51100000000E-03 0. -1.
    9900012    2    1    2    0    0 -0.93310004250E+01 -0.18737917196E+01  0.44028797600E+02  0.46142315607E+02  0.99999803565E+01 0.  0.
         12    1    1    2    0    0  0.93310004250E+01  0.18737917196E+01 -0.44028797600E+02  0.45045684393E+02  0.00000000000E+00 0. -1.
         11    1    3    3    0    0  0.78594518695E+00 -0.12175207330E+01  0.50915925927E+01  0.52938059998E+01  0.51100000000E-03 0. -1.
        -11    1    3    3    0    0  0.20827521157E+00  0.33711780560E+00 -0.13826150968E+00  0.41969451365E+00  0.51100000000E-03 0.  1.
        -12    1    3    3    0    0 -0.10325220824E+02 -0.99338879218E+00  0.39075466517E+02  0.40428815094E+02  0.00000000000E+00 0.  1.
</event>
<event>
 7    1  0.2438448E-008  0.4614232E+02  0.7816164E-02  0.1320468E+00
        -11   -1    0    0    0    0  0.00000000000E+00  0.00000000000E+00  0.45593999997E+02  0.45594000000E+02  0.51100000000E-03 0. -1.
         11   -1    0    0    0    0 -0.00000000000E+00 -0.00000000000E+00 -0.45593999997E+02  0.45594000000E+02  0.51100000000E-03 0.  1.
    9900012    2    1    2    0    0 -0.73882757411E+01 -0.29443316614E+02 -0.33280894863E+02  0.46142317915E+02  0.10000001399E+02 0.  0.
         12    1    1    2    0    0  0.73882757411E+01  0.29443316614E+02  0.33280894863E+02  0.45045682085E+02  0.00000000000E+00 0. -1.
         11    1    3    3    0    0 -0.30910998151E+01 -0.17760858640E+01 -0.22416581308E+01  0.42112243469E+01  0.51100000000E-03 0. -1.
        -11    1    3    3    0    0 -0.39702116068E+01 -0.15121617334E+02 -0.16724142396E+02  0.22893729057E+02  0.51100000000E-03 0.  1.
         12    1    3    3    0    0 -0.32696431917E+00 -0.12545613416E+02 -0.14315094336E+02  0.19037364510E+02  0.00000000000E+00 0. -1.
</event>
<event>
 7    1  0.2438448E-008  0.4614232E+02  0.7816164E-02  0.1320468E+00
        -11   -1    0    0    0    0  0.00000000000E+00  0.00000000000E+00  0.45593999997E+02  0.45594000000E+02  0.51100000000E-03 0. -1.
         11   -1    0    0    0    0 -0.00000000000E+00 -0.00000000000E+00 -0.45593999997E+02  0.45594000000E+02  0.51100000000E-03 0.  1.
    9900012    2    1    2    0    0 -0.30411346479E+02 -0.30847676768E+02  0.12356548974E+02  0.46142318085E+02  0.10000002953E+02 0.  0.
         12    1    1    2    0    0  0.30411346479E+02  0.30847676768E+02 -0.12356548974E+02  0.45045681915E+02  0.00000000000E+00 0. -1.
         11    1    3    3    0    0 -0.16467255618E+01 -0.20832793920E+01 -0.10936529613E+01  0.28719044486E+01  0.51100000000E-03 0. -1.
        -11    1    3    3    0    0 -0.13240924214E+02 -0.10425208026E+02  0.32272498984E+01  0.17158734761E+02  0.51100000000E-03 0.  1.
        -12    1    3    3    0    0 -0.15523696703E+02 -0.18339189350E+02  0.10222952037E+02  0.26111678875E+02  0.00000000000E+00 0.  1.
</event>
<event>
 7    1  0.2438448E-008  0.4614232E+02  0.7816164E-02  0.1320468E+00
        -11   -1    0    0    0    0  0.00000000000E+00  0.00000000000E+00  0.45593999997E+02  0.45594000000E+02  0.51100000000E-03 0. -1.
         11   -1    0    0    0    0 -0.00000000000E+00 -0.00000000000E+00 -0.45593999997E+02  0.45594000000E+02  0.51100000000E-03 0.  1.
    9900012    2    1    2    0    0 -0.35299725264E+02  0.13876250399E+01 -0.27948477488E+02  0.46142317623E+02  0.99999987379E+01 0.  0.
         12    1    1    2    0    0  0.35299725264E+02 -0.13876250399E+01  0.27948477488E+02  0.45045682377E+02  0.00000000000E+00 0. -1.
         11    1    3    3    0    0 -0.23971632479E+01  0.16150397255E+01 -0.14406183369E+01  0.32295706225E+01  0.51100000000E-03 0. -1.
        -11    1    3    3    0    0 -0.78448179095E+01  0.31437105305E+01 -0.71391171411E+01  0.11063050111E+02  0.51100000000E-03 0.  1.
        -12    1    3    3    0    0 -0.25057744106E+02 -0.33711252160E+01 -0.19368742010E+02  0.31849696890E+02  0.00000000000E+00 0.  1.
</event>
<event>
 7    1  0.2438448E-008  0.4614232E+02  0.7816164E-02  0.1320468E+00
        -11   -1    0    0    0    0  0.00000000000E+00  0.00000000000E+00  0.45593999997E+02  0.45594000000E+02  0.51100000000E-03 0.  1.
         11   -1    0    0    0    0 -0.00000000000E+00 -0.00000000000E+00 -0.45593999997E+02  0.45594000000E+02  0.51100000000E-03 0. -1.
    9900012    2    1    2    0    0  0.64549920432E+01  0.25074106508E+02  0.36861031644E+02  0.46142318816E+02  0.10000009620E+02 0.  0.
         12    1    1    2    0    0 -0.64549920432E+01 -0.25074106508E+02 -0.36861031644E+02  0.45045681184E+02  0.00000000000E+00 0. -1.
         11    1    3    3    0    0 -0.39480205918E+00  0.44404976604E+01  0.22517783006E+01  0.49944362960E+01  0.51100000000E-03 0. -1.
        -11    1    3    3    0    0  0.25270695078E+01  0.10365042632E+02  0.21043590256E+02  0.23593492327E+02  0.51100000000E-03 0.  1.
         12    1    3    3    0    0  0.43227245946E+01  0.10268566216E+02  0.13565663088E+02  0.17554390193E+02  0.00000000000E+00 0. -1.
</event>
<event>
 7    1  0.2438448E-008  0.4614232E+02  0.7816164E-02  0.1320468E+00
        -11   -1    0    0    0    0  0.00000000000E+00  0.00000000000E+00  0.45593999997E+02  0.45594000000E+02  0.51100000000E-03 0.  1.
         11   -1    0    0    0    0 -0.00000000000E+00 -0.00000000000E+00 -0.45593999997E+02  0.45594000000E+02  0.51100000000E-03 0. -1.
    9900012    2    1    2    0    0 -0.10644884416E+02 -0.42569497315E+02  0.10180265322E+02  0.46142317988E+02  0.10000002073E+02 0.  0.
         12    1    1    2    0    0  0.10644884416E+02  0.42569497315E+02 -0.10180265322E+02  0.45045682012E+02  0.00000000000E+00 0. -1.
         11    1    3    3    0    0 -0.45542436405E+01 -0.56222068232E+01  0.13925402949E+01  0.73681417898E+01  0.51100000000E-03 0. -1.
        -11    1    3    3    0    0 -0.67212066830E+01 -0.35319935486E+02  0.78807206840E+01  0.36807312055E+02  0.51100000000E-03 0.  1.
         12    1    3    3    0    0  0.63056590763E+00 -0.16273550059E+01  0.90700434331E+00  0.19668641433E+01  0.00000000000E+00 0. -1.
</event>
<event>
 7    1  0.2438448E-008  0.4614232E+02  0.7816164E-02  0.1320468E+00
        -11   -1    0    0    0    0  0.00000000000E+00  0.00000000000E+00  0.45593999997E+02  0.45594000000E+02  0.51100000000E-03 0.  1.
         11   -1    0    0    0    0 -0.00000000000E+00 -0.00000000000E+00 -0.45593999997E+02  0.45594000000E+02  0.51100000000E-03 0. -1.
    9900012    2    1    2    0    0  0.25148710849E+01  0.44688725401E+02 -0.50701837896E+01  0.46142317430E+02  0.99999969827E+01 0.  0.
         12    1    1    2    0    0 -0.25148710849E+01 -0.44688725401E+02  0.50701837896E+01  0.45045682570E+02  0.00000000000E+00 0. -1.
         11    1    3    3    0    0 -0.90888011240E+00  0.31690432272E+02 -0.25062700921E+01  0.31802373350E+02  0.51100000000E-03 0.  1.
        -11    1    3    3    0    0  0.36755756598E+01  0.95075199795E+01 -0.35126019989E+00  0.10199322359E+02  0.51100000000E-03 0. -1.
         12    1    3    3    0    0 -0.25182446259E+00  0.34907731489E+01 -0.22126534976E+01  0.41406217211E+01  0.00000000000E+00 0. -1.
</event>
<event>
 7    1  0.2438448E-008  0.4614232E+02  0.7816164E-02  0.1320468E+00
        -11   -1    0    0    0    0  0.00000000000E+00  0.00000000000E+00  0.45593999997E+02  0.45594000000E+02  0.51100000000E-03 0.  1.
         11   -1    0    0    0    0 -0.00000000000E+00 -0.00000000000E+00 -0.45593999997E+02  0.45594000000E+02  0.51100000000E-03 0. -1.
    9900012    2    1    2    0    0 -0.10513266719E+02  0.19432579932E+02  0.39255058815E+02  0.46142316716E+02  0.99999904728E+01 0.  0.
         12    1    1    2    0    0  0.10513266719E+02 -0.19432579932E+02 -0.39255058815E+02  0.45045683284E+02  0.00000000000E+00 0. -1.
         11    1    3    3    0    0  0.47229299952E+00  0.44022874988E+00  0.12420075645E+01  0.13998018007E+01  0.51100000000E-03 0. -1.
        -11    1    3    3    0    0 -0.12175422012E+02  0.16093279427E+02  0.34966751909E+02  0.40372122600E+02  0.51100000000E-03 0.  1.
        -12    1    3    3    0    0  0.11898622928E+01  0.28990717552E+01  0.30462993410E+01  0.43703923156E+01  0.00000000000E+00 0.  1.
</event>
<event>
 7    1  0.2438448E-008  0.4614232E+02  0.7816164E-02  0.1320468E+00
        -11   -1    0    0    0    0  0.00000000000E+00  0.00000000000E+00  0.45593999997E+02  0.45594000000E+02  0.51100000000E-03 0.  1.
         11   -1    0    0    0    0 -0.00000000000E+00 -0.00000000000E+00 -0.45593999997E+02  0.45594000000E+02  0.51100000000E-03 0. -1.
    9900012    2    1    2    0    0  0.75236477851E+01 -0.37365900029E+02  0.24006203570E+02  0.46142316846E+02  0.99999916568E+01 0.  0.
         12    1    1    2    0    0 -0.75236477851E+01  0.37365900029E+02 -0.24006203570E+02  0.45045683154E+02  0.00000000000E+00 0. -1.
         11    1    3    3    0    0  0.52417861788E+01 -0.11804231478E+02  0.10656806325E+02  0.16744662566E+02  0.51100000000E-03 0. -1.
        -11    1    3    3    0    0  0.37082346750E+01 -0.18195056432E+02  0.82112639151E+01  0.20303594222E+02  0.51100000000E-03 0.  1.
        -12    1    3    3    0    0 -0.14263730688E+01 -0.73666121182E+01  0.51381333303E+01  0.90940600587E+01  0.00000000000E+00 0.  1.
</event>
<event>
 7    1  0.2438448E-008  0.4614232E+02  0.7816164E-02  0.1320468E+00
        -11   -1    0    0    0    0  0.00000000000E+00  0.00000000000E+00  0.45593999997E+02  0.45594000000E+02  0.51100000000E-03 0.  1.
         11   -1    0    0    0    0 -0.00000000000E+00 -0.00000000000E+00 -0.45593999997E+02  0.45594000000E+02  0.51100000000E-03 0. -1.
    9900012    2    1    2    0    0 -0.23639014670E+02  0.38008614872E+02  0.50651402262E+01  0.46142318026E+02  0.10000002411E+02 0.  0.
         12    1    1    2    0    0  0.23639014670E+02 -0.38008614872E+02 -0.50651402262E+01  0.45045681974E+02  0.00000000000E+00 0. -1.
         11    1    3    3    0    0 -0.60680234724E+01  0.10088023122E+02  0.25899496691E+01  0.12053918820E+02  0.51100000000E-03 0.  1.
        -11    1    3    3    0    0 -0.71890333312E+00  0.51397139070E+00 -0.14279477108E+01  0.16792925650E+01  0.51100000000E-03 0. -1.
         12    1    3    3    0    0 -0.16852087865E+02  0.27406620359E+02  0.39031382679E+01  0.32409106641E+02  0.00000000000E+00 0. -1.
</event>
<event>
 7    1  0.2438448E-008  0.4614232E+02  0.7816164E-02  0.1320468E+00
        -11   -1    0    0    0    0  0.00000000000E+00  0.00000000000E+00  0.45593999997E+02  0.45594000000E+02  0.51100000000E-03 0.  1.
         11   -1    0    0    0    0 -0.00000000000E+00 -0.00000000000E+00 -0.45593999997E+02  0.45594000000E+02  0.51100000000E-03 0. -1.
    9900012    2    1    2    0    0  0.34264538491E+02  0.76732745470E+01  0.28216587807E+02  0.46142316880E+02  0.99999919666E+01 0.  0.
         12    1    1    2    0    0 -0.34264538491E+02 -0.76732745470E+01 -0.28216587807E+02  0.45045683120E+02  0.00000000000E+00 0. -1.
         11    1    3    3    0    0  0.47183423213E+01 -0.13738862219E+01  0.51017515255E+01  0.70836562946E+01  0.51100000000E-03 0. -1.
        -11    1    3    3    0    0  0.11911360913E+02  0.59756592951E+01  0.12361025739E+02  0.18176467764E+02  0.51100000000E-03 0.  1.
        -12    1    3    3    0    0  0.17634835257E+02  0.30715014738E+01  0.10753810543E+02  0.20882192821E+02  0.00000000000E+00 0.  1.
</event>
<event>
 7    1  0.2438448E-008  0.4614232E+02  0.7816164E-02  0.1320468E+00
        -11   -1    0    0    0    0  0.00000000000E+00  0.00000000000E+00  0.45593999997E+02  0.45594000000E+02  0.51100000000E-03 0. -1.
         11   -1    0    0    0    0 -0.00000000000E+00 -0.00000000000E+00 -0.45593999997E+02  0.45594000000E+02  0.51100000000E-03 0.  1.
    9900012    2    1    2    0    0 -0.35192523989E+01 -0.37184996735E+02 -0.25179444572E+02  0.46142317093E+02  0.99999939081E+01 0.  0.
         12    1    1    2    0    0  0.35192523989E+01  0.37184996735E+02  0.25179444572E+02  0.45045682907E+02  0.00000000000E+00 0. -1.
         11    1    3    3    0    0  0.15555246820E+01 -0.90548622343E+01 -0.91477037472E+01  0.12964978643E+02  0.51100000000E-03 0.  1.
        -11    1    3    3    0    0 -0.40092338173E+00 -0.78430268408E+00  0.36300514354E+00  0.95270312985E+00  0.51100000000E-03 0. -1.
        -12    1    3    3    0    0 -0.46738536991E+01 -0.27345831816E+02 -0.16394745968E+02  0.32224635320E+02  0.00000000000E+00 0.  1.
</event>
<event>
 7    1  0.2438448E-008  0.4614232E+02  0.7816164E-02  0.1320468E+00
        -11   -1    0    0    0    0  0.00000000000E+00  0.00000000000E+00  0.45593999997E+02  0.45594000000E+02  0.51100000000E-03 0. -1.
         11   -1    0    0    0    0 -0.00000000000E+00 -0.00000000000E+00 -0.45593999997E+02  0.45594000000E+02  0.51100000000E-03 0.  1.
    9900012    2    1    2    0    0  0.12820889381E+02 -0.38696694028E+02 -0.19165176052E+02  0.46142319782E+02  0.10000018432E+02 0.  0.
         12    1    1    2    0    0 -0.12820889381E+02  0.38696694028E+02  0.19165176052E+02  0.45045680218E+02  0.00000000000E+00 0. -1.
         11    1    3    3    0    0  0.32505502439E+00 -0.10425522604E+00 -0.13863897654E+01  0.14277978721E+01  0.51100000000E-03 0. -1.
        -11    1    3    3    0    0 -0.27331632419E+00 -0.86048684873E+00 -0.13533409812E+01  0.16268593985E+01  0.51100000000E-03 0.  1.
        -12    1    3    3    0    0  0.12769150681E+02 -0.37731951953E+02 -0.16425445305E+02  0.43087662512E+02  0.00000000000E+00 0.  1.
</event>
<event>
 7    1  0.2438448E-008  0.4614232E+02  0.7816164E-02  0.1320468E+00
        -11   -1    0    0    0    0  0.00000000000E+00  0.00000000000E+00  0.45593999997E+02  0.45594000000E+02  0.51100000000E-03 0.  1.
         11   -1    0    0    0    0 -0.00000000000E+00 -0.00000000000E+00 -0.45593999997E+02  0.45594000000E+02  0.51100000000E-03 0. -1.
    9900012    2    1    2    0    0 -0.16589141534E+02  0.60669425337E+01  0.41437978337E+02  0.46142318107E+02  0.10000003150E+02 0.  0.
         12    1    1    2    0    0  0.16589141534E+02 -0.60669425337E+01 -0.41437978337E+02  0.45045681893E+02  0.00000000000E+00 0. -1.
         11    1    3    3    0    0 -0.25911165587E+01  0.24188222486E+01  0.32302662776E+01  0.47957488025E+01  0.51100000000E-03 0. -1.
        -11    1    3    3    0    0 -0.53251608667E+00 -0.98828993027E+00  0.63793094089E+01  0.64773358076E+01  0.51100000000E-03 0.  1.
        -12    1    3    3    0    0 -0.13465508889E+02  0.46364102153E+01  0.31828402651E+02  0.34869233496E+02  0.00000000000E+00 0.  1.
</event>
<event>
 7    1  0.2438448E-008  0.4614232E+02  0.7816164E-02  0.1320468E+00
        -11   -1    0    0    0    0  0.00000000000E+00  0.00000000000E+00  0.45593999997E+02  0.45594000000E+02  0.51100000000E-03 0. -1.
         11   -1    0    0    0    0 -0.00000000000E+00 -0.00000000000E+00 -0.45593999997E+02  0.45594000000E+02  0.51100000000E-03 0.  1.
    9900012    2    1    2    0    0  0.29781355043E+02  0.19199666139E+02 -0.27812894972E+02  0.46142318578E+02  0.10000007452E+02 0.  0.
         12    1    1    2    0    0 -0.29781355043E+02 -0.19199666139E+02  0.27812894972E+02  0.45045681422E+02  0.00000000000E+00 0. -1.
         11    1    3    3    0    0  0.17741813050E+02  0.83320515522E+01 -0.13396121209E+02  0.23741336885E+02  0.51100000000E-03 0. -1.
        -11    1    3    3    0    0  0.17721269407E+01  0.34252014090E+01 -0.10956725799E+01  0.40091067895E+01  0.51100000000E-03 0.  1.
         12    1    3    3    0    0  0.10267415052E+02  0.74424131781E+01 -0.13321101183E+02  0.18391874904E+02  0.00000000000E+00 0. -1.
</event>
<event>
 7    1  0.2438448E-008  0.4614232E+02  0.7816164E-02  0.1320468E+00
        -11   -1    0    0    0    0  0.00000000000E+00  0.00000000000E+00  0.45593999997E+02  0.45594000000E+02  0.51100000000E-03 0.  1.
         11   -1    0    0    0    0 -0.00000000000E+00 -0.00000000000E+00 -0.45593999997E+02  0.45594000000E+02  0.51100000000E-03 0. -1.
    9900012    2    1    2    0    0 -0.33455516533E+02  0.26532576379E+02  0.14347972160E+02  0.46142317622E+02  0.99999987318E+01 0.  0.
         12    1    1    2    0    0  0.33455516533E+02 -0.26532576379E+02 -0.14347972160E+02  0.45045682378E+02  0.00000000000E+00 0. -1.
         11    1    3    3    0    0 -0.79634714346E+01  0.99283643014E+01  0.52589388985E+01  0.13771192163E+02  0.51100000000E-03 0. -1.
        -11    1    3    3    0    0 -0.12039044781E+02  0.10932017264E+02  0.29224993174E+01  0.16522366756E+02  0.51100000000E-03 0.  1.
        -12    1    3    3    0    0 -0.13453000318E+02  0.56721948135E+01  0.61665339437E+01  0.15848758703E+02  0.00000000000E+00 0.  1.
</event>
<event>
 7    1  0.2438448E-008  0.4614232E+02  0.7816164E-02  0.1320468E+00
        -11   -1    0    0    0    0  0.00000000000E+00  0.00000000000E+00  0.45593999997E+02  0.45594000000E+02  0.51100000000E-03 0. -1.
         11   -1    0    0    0    0 -0.00000000000E+00 -0.00000000000E+00 -0.45593999997E+02  0.45594000000E+02  0.51100000000E-03 0.  1.
    9900012    2    1    2    0    0 -0.11294839236E+02  0.16498679743E+02 -0.40365004782E+02  0.46142318324E+02  0.10000005129E+02 0.  0.
         12    1    1    2    0    0  0.11294839236E+02 -0.16498679743E+02  0.40365004782E+02  0.45045681676E+02  0.00000000000E+00 0. -1.
         11    1    3    3    0    0  0.97194421553E-01 -0.20920760269E+00 -0.59950097659E-01  0.23834607598E+00  0.51100000000E-03 0. -1.
        -11    1    3    3    0    0 -0.10096220346E+02  0.10775032426E+02 -0.34392633134E+02  0.37428441101E+02  0.51100000000E-03 0.  1.
        -12    1    3    3    0    0 -0.12958133110E+01  0.59328549197E+01 -0.59124215505E+01  0.84755311471E+01  0.00000000000E+00 0.  1.
</event>
<event>
 7    1  0.2438448E-008  0.4614232E+02  0.7816164E-02  0.1320468E+00
        -11   -1    0    0    0    0  0.00000000000E+00  0.00000000000E+00  0.45593999997E+02  0.45594000000E+02  0.51100000000E-03 0. -1.
         11   -1    0    0    0    0 -0.00000000000E+00 -0.00000000000E+00 -0.45593999997E+02  0.45594000000E+02  0.51100000000E-03 0.  1.
    9900012    2    1    2    0    0 -0.27581687377E+02 -0.11530438452E+02 -0.33695890136E+02  0.46142317615E+02  0.99999986686E+01 0.  0.
         12    1    1    2    0    0  0.27581687377E+02  0.11530438452E+02  0.33695890136E+02  0.45045682385E+02  0.00000000000E+00 0. -1.
         11    1    3    3    0    0 -0.61000000995E+01 -0.39140779533E+00 -0.32907027697E+01  0.69420404965E+01  0.51100000000E-03 0. -1.
        -11    1    3    3    0    0 -0.22886301597E+01 -0.32176290479E+01 -0.41712855943E+01  0.57437434194E+01  0.51100000000E-03 0.  1.
        -12    1    3    3    0    0 -0.19193057118E+02 -0.79214016087E+01 -0.26233901772E+02  0.33456533699E+02  0.00000000000E+00 0.  1.
</event>
<event>
 7    1  0.2438448E-008  0.4614232E+02  0.7816164E-02  0.1320468E+00
        -11   -1    0    0    0    0  0.00000000000E+00  0.00000000000E+00  0.45593999997E+02  0.45594000000E+02  0.51100000000E-03 0. -1.
         11   -1    0    0    0    0 -0.00000000000E+00 -0.00000000000E+00 -0.45593999997E+02  0.45594000000E+02  0.51100000000E-03 0.  1.
    9900012    2    1    2    0    0 -0.26234348469E+02  0.60131052143E+01 -0.36120839110E+02  0.46142317721E+02  0.99999996369E+01 0.  0.
         12    1    1    2    0    0  0.26234348469E+02 -0.60131052143E+01  0.36120839110E+02  0.45045682279E+02  0.00000000000E+00 0. -1.
         11    1    3    3    0    0 -0.14365475526E+01  0.31555589057E+01 -0.38272846709E+01  0.51642355767E+01  0.51100000000E-03 0. -1.
        -11    1    3    3    0    0 -0.10051372037E+02  0.27647208742E+01 -0.14708521207E+02  0.18028154584E+02  0.51100000000E-03 0.  1.
        -12    1    3    3    0    0 -0.14746428880E+02  0.92825434465E-01 -0.17585033233E+02  0.22949927561E+02  0.00000000000E+00 0.  1.
</event>
<event>
 7    1  0.2438448E-008  0.4614232E+02  0.7816164E-02  0.1320468E+00
        -11   -1    0    0    0    0  0.00000000000E+00  0.00000000000E+00  0.45593999997E+02  0.45594000000E+02  0.51100000000E-03 0.  1.
         11   -1    0    0    0    0 -0.00000000000E+00 -0.00000000000E+00 -0.45593999997E+02  0.45594000000E+02  0.51100000000E-03 0. -1.
    9900012    2    1    2    0    0  0.12564011880E+02  0.41548709659E+02  0.12040094585E+02  0.46142317117E+02  0.99999941234E+01 0.  0.
         12    1    1    2    0    0 -0.12564011880E+02 -0.41548709659E+02 -0.12040094585E+02  0.45045682883E+02  0.00000000000E+00 0. -1.
         11    1    3    3    0    0  0.29053706883E+01  0.17682512691E+01  0.61404427749E+00  0.34561455442E+01  0.51100000000E-03 0. -1.
        -11    1    3    3    0    0  0.18819537514E+01  0.15849288872E+02  0.47546903952E+01  0.16653792021E+02  0.51100000000E-03 0.  1.
         12    1    3    3    0    0  0.77766874407E+01  0.23931169517E+02  0.66713599120E+01  0.26032379551E+02  0.00000000000E+00 0. -1.
</event>
<event>
 7    1  0.2438448E-008  0.4614232E+02  0.7816164E-02  0.1320468E+00
        -11   -1    0    0    0    0  0.00000000000E+00  0.00000000000E+00  0.45593999997E+02  0.45594000000E+02  0.51100000000E-03 0. -1.
         11   -1    0    0    0    0 -0.00000000000E+00 -0.00000000000E+00 -0.45593999997E+02  0.45594000000E+02  0.51100000000E-03 0.  1.
    9900012    2    1    2    0    0  0.68619232202E+01 -0.23996716707E+02 -0.37499133917E+02  0.46142318215E+02  0.10000004137E+02 0.  0.
         12    1    1    2    0    0 -0.68619232202E+01  0.23996716707E+02  0.37499133917E+02  0.45045681785E+02  0.00000000000E+00 0. -1.
         11    1    3    3    0    0  0.22019997935E+01 -0.15407036642E+02 -0.15079185831E+02  0.21670427471E+02  0.51100000000E-03 0.  1.
        -11    1    3    3    0    0  0.16351379482E+01 -0.22541882103E+01 -0.60627047428E+01  0.66716886661E+01  0.51100000000E-03 0. -1.
        -12    1    3    3    0    0  0.30247854785E+01 -0.63354918542E+01 -0.16357243343E+02  0.17800202078E+02  0.00000000000E+00 0.  1.
</event>
<event>
 7    1  0.2438448E-008  0.4614232E+02  0.7816164E-02  0.1320468E+00
        -11   -1    0    0    0    0  0.00000000000E+00  0.00000000000E+00  0.45593999997E+02  0.45594000000E+02  0.51100000000E-03 0.  1.
         11   -1    0    0    0    0 -0.00000000000E+00 -0.00000000000E+00 -0.45593999997E+02  0.45594000000E+02  0.51100000000E-03 0. -1.
    9900012    2    1    2    0    0 -0.41122329055E+02 -0.98198877157E+01  0.15544688192E+02  0.46142317935E+02  0.10000001589E+02 0.  0.
         12    1    1    2    0    0  0.41122329055E+02  0.98198877157E+01 -0.15544688192E+02  0.45045682065E+02  0.00000000000E+00 0. -1.
         11    1    3    3    0    0 -0.15134570603E+02 -0.76798650325E+01  0.76656684820E+01  0.18622514003E+02  0.51100000000E-03 0. -1.
        -11    1    3    3    0    0 -0.87015446249E+01 -0.44893529389E+00  0.45692781192E+01  0.98385326420E+01  0.51100000000E-03 0.  1.
         12    1    3    3    0    0 -0.17286213827E+02 -0.16910873893E+01  0.33097415907E+01  0.17681271290E+02  0.00000000000E+00 0. -1.
</event>
<event>
 7    1  0.2438448E-008  0.4614232E+02  0.7816164E-02  0.1320468E+00
        -11   -1    0    0    0    0  0.00000000000E+00  0.00000000000E+00  0.45593999997E+02  0.45594000000E+02  0.51100000000E-03 0.  1.
         11   -1    0    0    0    0 -0.00000000000E+00 -0.00000000000E+00 -0.45593999997E+02  0.45594000000E+02  0.51100000000E-03 0. -1.
    9900012    2    1    2    0    0 -0.20419005917E+02 -0.24181154765E+02  0.32053852253E+02  0.46142317713E+02  0.99999995631E+01 0.  0.
         12    1    1    2    0    0  0.20419005917E+02  0.24181154765E+02 -0.32053852253E+02  0.45045682287E+02  0.00000000000E+00 0. -1.
         11    1    3    3    0    0 -0.98594882908E+01 -0.13492192399E+02  0.12777132063E+02  0.21035775933E+02  0.51100000000E-03 0. -1.
        -11    1    3    3    0    0 -0.10961984720E+02 -0.10974766015E+02  0.19040998977E+02  0.24559524433E+02  0.51100000000E-03 0.  1.
        -12    1    3    3    0    0  0.40246709418E+00  0.28580364858E+00  0.23572121327E+00  0.54701734692E+00  0.00000000000E+00 0.  1.
</event>
<event>
 7    1  0.2438448E-008  0.4614232E+02  0.7816164E-02  0.1320468E+00
        -11   -1    0    0    0    0  0.00000000000E+00  0.00000000000E+00  0.45593999997E+02  0.45594000000E+02  0.51100000000E-03 0.  1.
         11   -1    0    0    0    0 -0.00000000000E+00 -0.00000000000E+00 -0.45593999997E+02  0.45594000000E+02  0.51100000000E-03 0. -1.
    9900012    2    1    2    0    0 -0.36885108751E+02 -0.25783776445E+02  0.19491623619E+01  0.46142316419E+02  0.99999877644E+01 0.  0.
         12    1    1    2    0    0  0.36885108751E+02  0.25783776445E+02 -0.19491623619E+01  0.45045683581E+02  0.00000000000E+00 0. -1.
         11    1    3    3    0    0 -0.18653851911E+02 -0.12489319133E+02 -0.14048811124E+01  0.22492731598E+02  0.51100000000E-03 0. -1.
        -11    1    3    3    0    0 -0.16902402775E+02 -0.95393694236E+01  0.31368842319E+01  0.19660387370E+02  0.51100000000E-03 0.  1.
         12    1    3    3    0    0 -0.13288540648E+01 -0.37550878884E+01  0.21715924242E+00  0.39891974521E+01  0.00000000000E+00 0. -1.
</event>
<event>
 7    1  0.2438448E-008  0.4614232E+02  0.7816164E-02  0.1320468E+00
        -11   -1    0    0    0    0  0.00000000000E+00  0.00000000000E+00  0.45593999997E+02  0.45594000000E+02  0.51100000000E-03 0.  1.
         11   -1    0    0    0    0 -0.00000000000E+00 -0.00000000000E+00 -0.45593999997E+02  0.45594000000E+02  0.51100000000E-03 0. -1.
    9900012    2    1    2    0    0  0.48342863280E+01  0.16559756884E+02  0.41611508099E+02  0.46142317869E+02  0.10000000987E+02 0.  0.
         12    1    1    2    0    0 -0.48342863280E+01 -0.16559756884E+02 -0.41611508099E+02  0.45045682131E+02  0.00000000000E+00 0. -1.
         11    1    3    3    0    0  0.24409459771E+00  0.63537427197E+01  0.11459747345E+02  0.13105549901E+02  0.51100000000E-03 0. -1.
        -11    1    3    3    0    0  0.27265404976E+01  0.55893049987E+01  0.25414971431E+02  0.26164768803E+02  0.51100000000E-03 0.  1.
         12    1    3    3    0    0  0.18636512327E+01  0.46167091656E+01  0.47367893227E+01  0.68719991650E+01  0.00000000000E+00 0. -1.
</event>
<event>
 7    1  0.2438448E-008  0.4614232E+02  0.7816164E-02  0.1320468E+00
        -11   -1    0    0    0    0  0.00000000000E+00  0.00000000000E+00  0.45593999997E+02  0.45594000000E+02  0.51100000000E-03 0. -1.
         11   -1    0    0    0    0 -0.00000000000E+00 -0.00000000000E+00 -0.45593999997E+02  0.45594000000E+02  0.51100000000E-03 0.  1.
    9900012    2    1    2    0    0 -0.43996553316E+02 -0.16307074404E+01 -0.95266790503E+01  0.46142317364E+02  0.99999963753E+01 0.  0.
         12    1    1    2    0    0  0.43996553316E+02  0.16307074404E+01  0.95266790503E+01  0.45045682636E+02  0.00000000000E+00 0. -1.
         11    1    3    3    0    0 -0.11640298410E+00  0.36675071434E+00  0.71636816177E+00  0.81316624714E+00  0.51100000000E-03 0. -1.
        -11    1    3    3    0    0 -0.44518032858E+01 -0.58727476645E+00  0.27139443311E+00  0.44985663657E+01  0.51100000000E-03 0.  1.
        -12    1    3    3    0    0 -0.39428347046E+02 -0.14101833883E+01 -0.10514441645E+02  0.40830584751E+02  0.00000000000E+00 0.  1.
</event>
<event>
 7    1  0.2438448E-008  0.4614232E+02  0.7816164E-02  0.1320468E+00
        -11   -1    0    0    0    0  0.00000000000E+00  0.00000000000E+00  0.45593999997E+02  0.45594000000E+02  0.51100000000E-03 0.  1.
         11   -1    0    0    0    0 -0.00000000000E+00 -0.00000000000E+00 -0.45593999997E+02  0.45594000000E+02  0.51100000000E-03 0. -1.
    9900012    2    1    2    0    0 -0.19211252675E+02 -0.15366174293E+02  0.37734890336E+02  0.46142317738E+02  0.99999997898E+01 0.  0.
         12    1    1    2    0    0  0.19211252675E+02  0.15366174293E+02 -0.37734890336E+02  0.45045682262E+02  0.00000000000E+00 0. -1.
         11    1    3    3    0    0 -0.40731992186E+01  0.51822932429E-02  0.37728577936E+01  0.55520658247E+01  0.51100000000E-03 0. -1.
        -11    1    3    3    0    0 -0.46956203705E+01 -0.16561613516E+01  0.81839007786E+01  0.95795591392E+01  0.51100000000E-03 0.  1.
        -12    1    3    3    0    0 -0.10442433086E+02 -0.13715195235E+02  0.25778131764E+02  0.31010692774E+02  0.00000000000E+00 0.  1.
</event>
<event>
 7    1  0.2438448E-008  0.4614232E+02  0.7816164E-02  0.1320468E+00
        -11   -1    0    0    0    0  0.00000000000E+00  0.00000000000E+00  0.45593999997E+02  0.45594000000E+02  0.51100000000E-03 0.  1.
         11   -1    0    0    0    0 -0.00000000000E+00 -0.00000000000E+00 -0.45593999997E+02  0.45594000000E+02  0.51100000000E-03 0. -1.
    9900012    2    1    2    0    0  0.73577789997E+01  0.55694849772E+01  0.44090330985E+02  0.46142319174E+02  0.10000012885E+02 0.  0.
         12    1    1    2    0    0 -0.73577789997E+01 -0.55694849772E+01 -0.44090330985E+02  0.45045680826E+02  0.00000000000E+00 0. -1.
         11    1    3    3    0    0  0.10708793500E+01 -0.86734779980E+00  0.48504299814E+01  0.50423948728E+01  0.51100000000E-03 0. -1.
        -11    1    3    3    0    0  0.73821545454E+01  0.21528177839E+01  0.22131879339E+02  0.23429701524E+02  0.51100000000E-03 0.  1.
        -12    1    3    3    0    0 -0.10952548957E+01  0.42840149930E+01  0.17108021664E+02  0.17670222778E+02  0.00000000000E+00 0.  1.
</event>
<event>
 7    1  0.2438448E-008  0.4614232E+02  0.7816164E-02  0.1320468E+00
        -11   -1    0    0    0    0  0.00000000000E+00  0.00000000000E+00  0.45593999997E+02  0.45594000000E+02  0.51100000000E-03 0.  1.
         11   -1    0    0    0    0 -0.00000000000E+00 -0.00000000000E+00 -0.45593999997E+02  0.45594000000E+02  0.51100000000E-03 0. -1.
    9900012    2    1    2    0    0  0.42116994718E+02 -0.14826540207E+02 -0.59536648391E+01  0.46142315816E+02  0.99999822615E+01 0.  0.
         12    1    1    2    0    0 -0.42116994718E+02  0.14826540207E+02  0.59536648391E+01  0.45045684184E+02  0.00000000000E+00 0. -1.
         11    1    3    3    0    0  0.29117619163E+00 -0.52736105887E+00 -0.97483473756E+00  0.11459477683E+01  0.51100000000E-03 0. -1.
        -11    1    3    3    0    0  0.19818491283E+02 -0.84052607080E+01  0.61797429163E+00  0.21536083599E+02  0.51100000000E-03 0.  1.
        -12    1    3    3    0    0  0.22007327244E+02 -0.58939184402E+01 -0.55968043932E+01  0.23460284449E+02  0.00000000000E+00 0.  1.
</event>
<event>
 7    1  0.2438448E-008  0.4614232E+02  0.7816164E-02  0.1320468E+00
        -11   -1    0    0    0    0  0.00000000000E+00  0.00000000000E+00  0.45593999997E+02  0.45594000000E+02  0.51100000000E-03 0.  1.
         11   -1    0    0    0    0 -0.00000000000E+00 -0.00000000000E+00 -0.45593999997E+02  0.45594000000E+02  0.51100000000E-03 0. -1.
    9900012    2    1    2    0    0 -0.10848012812E+02 -0.43705909936E+02 -0.11079597182E+01  0.46142317410E+02  0.99999967963E+01 0.  0.
         12    1    1    2    0    0  0.10848012812E+02  0.43705909936E+02  0.11079597182E+01  0.45045682590E+02  0.00000000000E+00 0. -1.
         11    1    3    3    0    0 -0.61557195402E+00 -0.32571254630E+01 -0.14217629378E+01  0.36068275845E+01  0.51100000000E-03 0. -1.
        -11    1    3    3    0    0 -0.85289821968E+01 -0.18814362716E+02  0.20833414294E+01  0.20762083072E+02  0.51100000000E-03 0.  1.
        -12    1    3    3    0    0 -0.17034586615E+01 -0.21634421757E+02 -0.17695382098E+01  0.21773406753E+02  0.00000000000E+00 0.  1.
</event>
<event>
 7    1  0.2438448E-008  0.4614232E+02  0.7816164E-02  0.1320468E+00
        -11   -1    0    0    0    0  0.00000000000E+00  0.00000000000E+00  0.45593999997E+02  0.45594000000E+02  0.51100000000E-03 0. -1.
         11   -1    0    0    0    0 -0.00000000000E+00 -0.00000000000E+00 -0.45593999997E+02  0.45594000000E+02  0.51100000000E-03 0.  1.
    9900012    2    1    2    0    0 -0.16066861847E+02  0.16997035183E+02 -0.38497665739E+02  0.46142317388E+02  0.99999965998E+01 0.  0.
         12    1    1    2    0    0  0.16066861847E+02 -0.16997035183E+02  0.38497665739E+02  0.45045682612E+02  0.00000000000E+00 0. -1.
         11    1    3    3    0    0 -0.42443172614E+01  0.21317302899E+01 -0.43198877059E+01  0.64202751574E+01  0.51100000000E-03 0. -1.
        -11    1    3    3    0    0 -0.83283753811E+01  0.49284139182E+01 -0.17462746408E+02  0.19964934576E+02  0.51100000000E-03 0.  1.
         12    1    3    3    0    0 -0.34941692047E+01  0.99368909752E+01 -0.16715031625E+02  0.19757107655E+02  0.00000000000E+00 0. -1.
</event>
<event>
 7    1  0.2438448E-008  0.4614232E+02  0.7816164E-02  0.1320468E+00
        -11   -1    0    0    0    0  0.00000000000E+00  0.00000000000E+00  0.45593999997E+02  0.45594000000E+02  0.51100000000E-03 0. -1.
         11   -1    0    0    0    0 -0.00000000000E+00 -0.00000000000E+00 -0.45593999997E+02  0.45594000000E+02  0.51100000000E-03 0.  1.
    9900012    2    1    2    0    0 -0.39056180992E+02  0.22191253028E+02  0.33580487014E+01  0.46142317902E+02  0.10000001281E+02 0.  0.
         12    1    1    2    0    0  0.39056180992E+02 -0.22191253028E+02 -0.33580487014E+01  0.45045682098E+02  0.00000000000E+00 0. -1.
         11    1    3    3    0    0 -0.18412165979E+02  0.12872949409E+02  0.11606016657E+01  0.22495948058E+02  0.51100000000E-03 0. -1.
        -11    1    3    3    0    0 -0.10465314151E+02  0.81296468828E+01  0.52017967894E+00  0.13262147107E+02  0.51100000000E-03 0.  1.
         12    1    3    3    0    0 -0.10178700862E+02  0.11886567363E+01  0.16772673568E+01  0.10384222737E+02  0.00000000000E+00 0. -1.
</event>
<event>
 7    1  0.2438448E-008  0.4614232E+02  0.7816164E-02  0.1320468E+00
        -11   -1    0    0    0    0  0.00000000000E+00  0.00000000000E+00  0.45593999997E+02  0.45594000000E+02  0.51100000000E-03 0.  1.
         11   -1    0    0    0    0 -0.00000000000E+00 -0.00000000000E+00 -0.45593999997E+02  0.45594000000E+02  0.51100000000E-03 0. -1.
    9900012    2    1    2    0    0  0.22526338547E+02 -0.61992200119E+00  0.39003759127E+02  0.46142318102E+02  0.10000003110E+02 0.  0.
         12    1    1    2    0    0 -0.22526338547E+02  0.61992200119E+00 -0.39003759127E+02  0.45045681898E+02  0.00000000000E+00 0. -1.
         11    1    3    3    0    0  0.14761380790E+02 -0.10738820740E+01  0.16980827636E+02  0.22525543123E+02  0.51100000000E-03 0. -1.
        -11    1    3    3    0    0  0.53390870344E+01 -0.11877375156E+01  0.12279535953E+02  0.13442602957E+02  0.51100000000E-03 0.  1.
         12    1    3    3    0    0  0.24258707231E+01  0.16416975885E+01  0.97433955375E+01  0.10174172022E+02  0.00000000000E+00 0. -1.
</event>
<event>
 7    1  0.2438448E-008  0.4614232E+02  0.7816164E-02  0.1320468E+00
        -11   -1    0    0    0    0  0.00000000000E+00  0.00000000000E+00  0.45593999997E+02  0.45594000000E+02  0.51100000000E-03 0.  1.
         11   -1    0    0    0    0 -0.00000000000E+00 -0.00000000000E+00 -0.45593999997E+02  0.45594000000E+02  0.51100000000E-03 0. -1.
    9900012    2    1    2    0    0 -0.12810847562E+02 -0.19124853316E+02  0.38719965981E+02  0.46142316575E+02  0.99999891867E+01 0.  0.
         12    1    1    2    0    0  0.12810847562E+02  0.19124853316E+02 -0.38719965981E+02  0.45045683425E+02  0.00000000000E+00 0. -1.
         11    1    3    3    0    0 -0.53252707051E+01 -0.71748755412E+01  0.10733864655E+02  0.13966144701E+02  0.51100000000E-03 0. -1.
        -11    1    3    3    0    0 -0.65827434497E+01 -0.96909066420E+01  0.15359613656E+02  0.19317451043E+02  0.51100000000E-03 0.  1.
         12    1    3    3    0    0 -0.90283340731E+00 -0.22590711331E+01  0.12626487669E+02  0.12858720831E+02  0.00000000000E+00 0. -1.
</event>
<event>
 7    1  0.2438448E-008  0.4614232E+02  0.7816164E-02  0.1320468E+00
        -11   -1    0    0    0    0  0.00000000000E+00  0.00000000000E+00  0.45593999997E+02  0.45594000000E+02  0.51100000000E-03 0.  1.
         11   -1    0    0    0    0 -0.00000000000E+00 -0.00000000000E+00 -0.45593999997E+02  0.45594000000E+02  0.51100000000E-03 0. -1.
    9900012    2    1    2    0    0  0.24924640881E+02 -0.31586801165E+02  0.20252160515E+02  0.46142315008E+02  0.99999748923E+01 0.  0.
         12    1    1    2    0    0 -0.24924640881E+02  0.31586801165E+02 -0.20252160515E+02  0.45045684992E+02  0.00000000000E+00 0. -1.
         11    1    3    3    0    0  0.10972032589E+02 -0.18352262499E+02  0.84888050212E+01  0.23005452591E+02  0.51100000000E-03 0. -1.
        -11    1    3    3    0    0  0.17527868722E+01 -0.46801318827E+01  0.34706888799E+01  0.60845359578E+01  0.51100000000E-03 0.  1.
         12    1    3    3    0    0  0.12199821420E+02 -0.85544067834E+01  0.82926666137E+01  0.17052326459E+02  0.00000000000E+00 0. -1.
</event>
<event>
 7    1  0.2438448E-008  0.4614232E+02  0.7816164E-02  0.1320468E+00
        -11   -1    0    0    0    0  0.00000000000E+00  0.00000000000E+00  0.45593999997E+02  0.45594000000E+02  0.51100000000E-03 0.  1.
         11   -1    0    0    0    0 -0.00000000000E+00 -0.00000000000E+00 -0.45593999997E+02  0.45594000000E+02  0.51100000000E-03 0. -1.
    9900012    2    1    2    0    0 -0.12720933506E+02  0.64316578609E+01  0.42730839348E+02  0.46142323143E+02  0.10000049077E+02 0.  0.
         12    1    1    2    0    0  0.12720933506E+02 -0.64316578609E+01 -0.42730839348E+02  0.45045676857E+02  0.00000000000E+00 0. -1.
         11    1    3    3    0    0 -0.32319710524E+01  0.58782546703E+01  0.19823458780E+02  0.20927709696E+02  0.51100000000E-03 0. -1.
        -11    1    3    3    0    0 -0.46805061049E+01  0.10259665515E+01  0.16549288927E+02  0.17229007778E+02  0.51100000000E-03 0.  1.
         12    1    3    3    0    0 -0.48084563487E+01 -0.47256336079E+00  0.63580916412E+01  0.79856056693E+01  0.00000000000E+00 0. -1.
</event>
<event>
 7    1  0.2438448E-008  0.4614232E+02  0.7816164E-02  0.1320468E+00
        -11   -1    0    0    0    0  0.00000000000E+00  0.00000000000E+00  0.45593999997E+02  0.45594000000E+02  0.51100000000E-03 0.  1.
         11   -1    0    0    0    0 -0.00000000000E+00 -0.00000000000E+00 -0.45593999997E+02  0.45594000000E+02  0.51100000000E-03 0. -1.
    9900012    2    1    2    0    0 -0.27085841033E+02 -0.33319768207E+02  0.13611163251E+02  0.46142317601E+02  0.99999985356E+01 0.  0.
         12    1    1    2    0    0  0.27085841033E+02  0.33319768207E+02 -0.13611163251E+02  0.45045682399E+02  0.00000000000E+00 0. -1.
         11    1    3    3    0    0 -0.89726452396E+01 -0.68746418878E+01  0.95726639904E+00  0.11343959754E+02  0.51100000000E-03 0. -1.
        -11    1    3    3    0    0 -0.77942110810E+01 -0.76074872436E+01  0.51381613102E+01  0.12042603142E+02  0.51100000000E-03 0.  1.
        -12    1    3    3    0    0 -0.10318984712E+02 -0.18837639075E+02  0.75157355414E+01  0.22755754704E+02  0.00000000000E+00 0.  1.
</event>
<event>
 7    1  0.2438448E-008  0.4614232E+02  0.7816164E-02  0.1320468E+00
        -11   -1    0    0    0    0  0.00000000000E+00  0.00000000000E+00  0.45593999997E+02  0.45594000000E+02  0.51100000000E-03 0.  1.
         11   -1    0    0    0    0 -0.00000000000E+00 -0.00000000000E+00 -0.45593999997E+02  0.45594000000E+02  0.51100000000E-03 0. -1.
    9900012    2    1    2    0    0 -0.22907161511E+02 -0.82891762538E+01  0.37890166320E+02  0.46142321015E+02  0.10000029672E+02 0.  0.
         12    1    1    2    0    0  0.22907161511E+02  0.82891762538E+01 -0.37890166320E+02  0.45045678985E+02  0.00000000000E+00 0. -1.
         11    1    3    3    0    0 -0.66062778264E+01 -0.46097852069E+01  0.14448741965E+02  0.16542647037E+02  0.51100000000E-03 0. -1.
        -11    1    3    3    0    0 -0.78597804034E+01  0.10728932866E+01  0.13891012554E+02  0.15996483302E+02  0.51100000000E-03 0.  1.
        -12    1    3    3    0    0 -0.84411032810E+01 -0.47522843335E+01  0.95504118015E+01  0.13603190676E+02  0.00000000000E+00 0.  1.
</event>
<event>
 7    1  0.2438448E-008  0.4614232E+02  0.7816164E-02  0.1320468E+00
        -11   -1    0    0    0    0  0.00000000000E+00  0.00000000000E+00  0.45593999997E+02  0.45594000000E+02  0.51100000000E-03 0.  1.
         11   -1    0    0    0    0 -0.00000000000E+00 -0.00000000000E+00 -0.45593999997E+02  0.45594000000E+02  0.51100000000E-03 0. -1.
    9900012    2    1    2    0    0  0.27009379643E+02  0.34567703317E+02  0.10231360374E+02  0.46142318338E+02  0.10000005257E+02 0.  0.
         12    1    1    2    0    0 -0.27009379643E+02 -0.34567703317E+02 -0.10231360374E+02  0.45045681662E+02  0.00000000000E+00 0. -1.
         11    1    3    3    0    0  0.83057787789E+01  0.14192883166E+02 -0.13542953666E+00  0.16445128005E+02  0.51100000000E-03 0. -1.
        -11    1    3    3    0    0  0.17119397288E+02  0.19151514181E+02  0.87925823527E+01  0.27150759909E+02  0.51100000000E-03 0.  1.
         12    1    3    3    0    0  0.15842035760E+01  0.12233059703E+01  0.15742075582E+01  0.25464304238E+01  0.00000000000E+00 0. -1.
</event>
<event>
 7    1  0.2438448E-008  0.4614232E+02  0.7816164E-02  0.1320468E+00
        -11   -1    0    0    0    0  0.00000000000E+00  0.00000000000E+00  0.45593999997E+02  0.45594000000E+02  0.51100000000E-03 0. -1.
         11   -1    0    0    0    0 -0.00000000000E+00 -0.00000000000E+00 -0.45593999997E+02  0.45594000000E+02  0.51100000000E-03 0.  1.
    9900012    2    1    2    0    0 -0.42841422996E+02 -0.91354076209E+01  0.10500964984E+02  0.46142318050E+02  0.10000002638E+02 0.  0.
         12    1    1    2    0    0  0.42841422996E+02  0.91354076209E+01 -0.10500964984E+02  0.45045681950E+02  0.00000000000E+00 0. -1.
         11    1    3    3    0    0 -0.18338212863E+02 -0.58117784140E+01  0.25262618138E+01  0.19402288998E+02  0.51100000000E-03 0.  1.
        -11    1    3    3    0    0 -0.81890112121E+01 -0.39243048883E+01  0.40878662868E+01  0.99584499059E+01  0.51100000000E-03 0. -1.
        -12    1    3    3    0    0 -0.16314198921E+02  0.60067568148E+00  0.38868368832E+01  0.16781579147E+02  0.00000000000E+00 0.  1.
</event>
<event>
 7    1  0.2438448E-008  0.4614231E+02  0.7816164E-02  0.1320468E+00
        -11   -1    0    0    0    0  0.00000000000E+00  0.00000000000E+00  0.45593999997E+02  0.45594000000E+02  0.51100000000E-03 0.  1.
         11   -1    0    0    0    0 -0.00000000000E+00 -0.00000000000E+00 -0.45593999997E+02  0.45594000000E+02  0.51100000000E-03 0. -1.
    9900012    2    1    2    0    0  0.70118609645E+01  0.17987832780E+01  0.44460230676E+02  0.46142312890E+02  0.99999555781E+01 0.  0.
         12    1    1    2    0    0 -0.70118609645E+01 -0.17987832780E+01 -0.44460230676E+02  0.45045687110E+02  0.00000000000E+00 0. -1.
         11    1    3    3    0    0  0.10288329069E-01  0.31489547830E+01  0.54248836458E+01  0.62725899680E+01  0.51100000000E-03 0. -1.
        -11    1    3    3    0    0  0.21000443631E+00 -0.12722037614E+01  0.76451771672E+01  0.77531502277E+01  0.51100000000E-03 0.  1.
         12    1    3    3    0    0  0.67915681991E+01 -0.77967743577E-01  0.31390169863E+02  0.32116572694E+02  0.00000000000E+00 0. -1.
</event>
<event>
 7    1  0.2438448E-008  0.4614231E+02  0.7816164E-02  0.1320468E+00
        -11   -1    0    0    0    0  0.00000000000E+00  0.00000000000E+00  0.45593999997E+02  0.45594000000E+02  0.51100000000E-03 0.  1.
         11   -1    0    0    0    0 -0.00000000000E+00 -0.00000000000E+00 -0.45593999997E+02  0.45594000000E+02  0.51100000000E-03 0. -1.
    9900012    2    1    2    0    0  0.10579893354E+01 -0.44507198953E+02  0.68632109752E+01  0.46142314691E+02  0.99999720031E+01 0.  0.
         12    1    1    2    0    0 -0.10579893354E+01  0.44507198953E+02 -0.68632109752E+01  0.45045685309E+02  0.00000000000E+00 0. -1.
         11    1    3    3    0    0 -0.19438980995E+01 -0.17714487289E+02  0.50518238922E+01  0.18523032274E+02  0.51100000000E-03 0. -1.
        -11    1    3    3    0    0  0.27003107366E+01 -0.18588473841E+02  0.38183428757E+01  0.19167753661E+02  0.51100000000E-03 0.  1.
        -12    1    3    3    0    0  0.30157669833E+00 -0.82042378227E+01 -0.20069557927E+01  0.84515287558E+01  0.00000000000E+00 0.  1.
</event>
<event>
 7    1  0.2438448E-008  0.4614232E+02  0.7816164E-02  0.1320468E+00
        -11   -1    0    0    0    0  0.00000000000E+00  0.00000000000E+00  0.45593999997E+02  0.45594000000E+02  0.51100000000E-03 0.  1.
         11   -1    0    0    0    0 -0.00000000000E+00 -0.00000000000E+00 -0.45593999997E+02  0.45594000000E+02  0.51100000000E-03 0. -1.
    9900012    2    1    2    0    0  0.36274646338E+02  0.26694905314E+02  0.80340482846E+00  0.46142318786E+02  0.10000009347E+02 0.  0.
         12    1    1    2    0    0 -0.36274646338E+02 -0.26694905314E+02 -0.80340482846E+00  0.45045681214E+02  0.00000000000E+00 0. -1.
         11    1    3    3    0    0  0.38596965189E+01  0.23964417751E+01  0.23368003843E+01  0.51088968179E+01  0.51100000000E-03 0. -1.
        -11    1    3    3    0    0  0.14936332259E+02  0.11183290885E+02 -0.38722686609E+01  0.19056612533E+02  0.51100000000E-03 0.  1.
        -12    1    3    3    0    0  0.17478617560E+02  0.13115172654E+02  0.23388731051E+01  0.21976809436E+02  0.00000000000E+00 0.  1.
</event>
<event>
 7    1  0.2438448E-008  0.4614232E+02  0.7816164E-02  0.1320468E+00
        -11   -1    0    0    0    0  0.00000000000E+00  0.00000000000E+00  0.45593999997E+02  0.45594000000E+02  0.51100000000E-03 0.  1.
         11   -1    0    0    0    0 -0.00000000000E+00 -0.00000000000E+00 -0.45593999997E+02  0.45594000000E+02  0.51100000000E-03 0. -1.
    9900012    2    1    2    0    0  0.39367016422E+02  0.15644996565E+02  0.15316186880E+02  0.46142317853E+02  0.10000000840E+02 0.  0.
         12    1    1    2    0    0 -0.39367016422E+02 -0.15644996565E+02 -0.15316186880E+02  0.45045682147E+02  0.00000000000E+00 0. -1.
         11    1    3    3    0    0  0.27962038719E+02  0.10913296856E+02  0.10978191065E+02  0.31960856323E+02  0.51100000000E-03 0.  1.
        -11    1    3    3    0    0  0.71046364584E+01  0.32746645998E+00  0.36311497890E+01  0.79855082831E+01  0.51100000000E-03 0. -1.
         12    1    3    3    0    0  0.43003412451E+01  0.44042332488E+01  0.70684602622E+00  0.61959532470E+01  0.00000000000E+00 0. -1.
</event>
<event>
 7    1  0.2438448E-008  0.4614232E+02  0.7816164E-02  0.1320468E+00
        -11   -1    0    0    0    0  0.00000000000E+00  0.00000000000E+00  0.45593999997E+02  0.45594000000E+02  0.51100000000E-03 0.  1.
         11   -1    0    0    0    0 -0.00000000000E+00 -0.00000000000E+00 -0.45593999997E+02  0.45594000000E+02  0.51100000000E-03 0. -1.
    9900012    2    1    2    0    0 -0.44480895497E+02  0.54093269219E+01  0.46154790656E+01  0.46142317311E+02  0.99999958922E+01 0.  0.
         12    1    1    2    0    0  0.44480895497E+02 -0.54093269219E+01 -0.46154790656E+01  0.45045682689E+02  0.00000000000E+00 0. -1.
         11    1    3    3    0    0 -0.15230325536E+02  0.40469894239E+01 -0.18666003188E+01  0.15868999223E+02  0.51100000000E-03 0. -1.
        -11    1    3    3    0    0 -0.67589027781E+01  0.19119004034E+01  0.80772189903E+00  0.70703991998E+01  0.51100000000E-03 0.  1.
        -12    1    3    3    0    0 -0.22491667182E+02 -0.54956290541E+00  0.56743574854E+01  0.23202918887E+02  0.00000000000E+00 0.  1.
</event>
<event>
 7    1  0.2438448E-008  0.4614232E+02  0.7816164E-02  0.1320468E+00
        -11   -1    0    0    0    0  0.00000000000E+00  0.00000000000E+00  0.45593999997E+02  0.45594000000E+02  0.51100000000E-03 0.  1.
         11   -1    0    0    0    0 -0.00000000000E+00 -0.00000000000E+00 -0.45593999997E+02  0.45594000000E+02  0.51100000000E-03 0. -1.
    9900012    2    1    2    0    0  0.14621927849E+02  0.15122713849E+02  0.39832348956E+02  0.46142320168E+02  0.10000021952E+02 0.  0.
         12    1    1    2    0    0 -0.14621927849E+02 -0.15122713849E+02 -0.39832348956E+02  0.45045679832E+02  0.00000000000E+00 0. -1.
         11    1    3    3    0    0 -0.60271460889E+00  0.44015667360E+01  0.55259653576E+01  0.70903700908E+01  0.51100000000E-03 0. -1.
        -11    1    3    3    0    0  0.78365014567E+01  0.48057121527E+01  0.16706184924E+02  0.19068357018E+02  0.51100000000E-03 0.  1.
         12    1    3    3    0    0  0.73881410011E+01  0.59154349600E+01  0.17600198674E+02  0.19983593060E+02  0.00000000000E+00 0. -1.
</event>
<event>
 7    1  0.2438448E-008  0.4614232E+02  0.7816164E-02  0.1320468E+00
        -11   -1    0    0    0    0  0.00000000000E+00  0.00000000000E+00  0.45593999997E+02  0.45594000000E+02  0.51100000000E-03 0.  1.
         11   -1    0    0    0    0 -0.00000000000E+00 -0.00000000000E+00 -0.45593999997E+02  0.45594000000E+02  0.51100000000E-03 0. -1.
    9900012    2    1    2    0    0 -0.24880053000E+02 -0.10572307313E+02  0.36032246678E+02  0.46142317411E+02  0.99999968084E+01 0.  0.
         12    1    1    2    0    0  0.24880053000E+02  0.10572307313E+02 -0.36032246678E+02  0.45045682589E+02  0.00000000000E+00 0. -1.
         11    1    3    3    0    0 -0.72280705661E+01 -0.12597092904E+00  0.12828073945E+02  0.14724821024E+02  0.51100000000E-03 0. -1.
        -11    1    3    3    0    0 -0.41119585750E+01 -0.26457333363E+00  0.59438085374E+01  0.72323621703E+01  0.51100000000E-03 0.  1.
         12    1    3    3    0    0 -0.13540023859E+02 -0.10181763050E+02  0.17260364195E+02  0.24185134217E+02  0.00000000000E+00 0. -1.
</event>
<event>
 7    1  0.2438448E-008  0.4614232E+02  0.7816164E-02  0.1320468E+00
        -11   -1    0    0    0    0  0.00000000000E+00  0.00000000000E+00  0.45593999997E+02  0.45594000000E+02  0.51100000000E-03 0.  1.
         11   -1    0    0    0    0 -0.00000000000E+00 -0.00000000000E+00 -0.45593999997E+02  0.45594000000E+02  0.51100000000E-03 0. -1.
    9900012    2    1    2    0    0 -0.24916401000E+02 -0.36501765003E+02  0.87125080026E+01  0.46142315603E+02  0.99999803206E+01 0.  0.
         12    1    1    2    0    0  0.24916401000E+02  0.36501765003E+02 -0.87125080026E+01  0.45045684397E+02  0.00000000000E+00 0. -1.
         11    1    3    3    0    0 -0.25581199667E+01 -0.68996359694E+01  0.27850801311E+01  0.78680128286E+01  0.51100000000E-03 0. -1.
        -11    1    3    3    0    0 -0.77010600543E+01 -0.16260431634E+02  0.27142251897E+01  0.18195465960E+02  0.51100000000E-03 0.  1.
        -12    1    3    3    0    0 -0.14657220979E+02 -0.13341697400E+02  0.32132026818E+01  0.20078836814E+02  0.00000000000E+00 0.  1.
</event>
<event>
 7    1  0.2438448E-008  0.4614232E+02  0.7816164E-02  0.1320468E+00
        -11   -1    0    0    0    0  0.00000000000E+00  0.00000000000E+00  0.45593999997E+02  0.45594000000E+02  0.51100000000E-03 0.  1.
         11   -1    0    0    0    0 -0.00000000000E+00 -0.00000000000E+00 -0.45593999997E+02  0.45594000000E+02  0.51100000000E-03 0. -1.
    9900012    2    1    2    0    0  0.26601827257E+02  0.11763845853E+01  0.36332801120E+02  0.46142317284E+02  0.99999956539E+01 0.  0.
         12    1    1    2    0    0 -0.26601827257E+02 -0.11763845853E+01 -0.36332801120E+02  0.45045682716E+02  0.00000000000E+00 0. -1.
         11    1    3    3    0    0  0.52681007626E+01 -0.16986912751E+00  0.45872101196E+01  0.69874343008E+01  0.51100000000E-03 0. -1.
        -11    1    3    3    0    0  0.81538727300E+01 -0.73868503237E-01  0.57601116838E+01  0.99834855598E+01  0.51100000000E-03 0.  1.
         12    1    3    3    0    0  0.13179853764E+02  0.14201222161E+01  0.25985479317E+02  0.29171397424E+02  0.00000000000E+00 0. -1.
</event>
<event>
 7    1  0.2438448E-008  0.4614232E+02  0.7816164E-02  0.1320468E+00
        -11   -1    0    0    0    0  0.00000000000E+00  0.00000000000E+00  0.45593999997E+02  0.45594000000E+02  0.51100000000E-03 0.  1.
         11   -1    0    0    0    0 -0.00000000000E+00 -0.00000000000E+00 -0.45593999997E+02  0.45594000000E+02  0.51100000000E-03 0. -1.
    9900012    2    1    2    0    0 -0.25286603241E+02  0.25743566969E+02  0.26962379281E+02  0.46142318295E+02  0.10000004867E+02 0.  0.
         12    1    1    2    0    0  0.25286603241E+02 -0.25743566969E+02 -0.26962379281E+02  0.45045681705E+02  0.00000000000E+00 0. -1.
         11    1    3    3    0    0  0.12748202139E+00 -0.54868947480E+00  0.36954251429E+00  0.67370151887E+00  0.51100000000E-03 0. -1.
        -11    1    3    3    0    0 -0.66274950302E+01  0.50009963586E+01  0.79902677522E+01  0.11522935128E+02  0.51100000000E-03 0.  1.
        -12    1    3    3    0    0 -0.18786590232E+02  0.21291260086E+02  0.18602569015E+02  0.33945681648E+02  0.00000000000E+00 0.  1.
</event>
<event>
 7    1  0.2438448E-008  0.4614232E+02  0.7816164E-02  0.1320468E+00
        -11   -1    0    0    0    0  0.00000000000E+00  0.00000000000E+00  0.45593999997E+02  0.45594000000E+02  0.51100000000E-03 0.  1.
         11   -1    0    0    0    0 -0.00000000000E+00 -0.00000000000E+00 -0.45593999997E+02  0.45594000000E+02  0.51100000000E-03 0. -1.
    9900012    2    1    2    0    0  0.39672583641E+02 -0.31109300560E+01  0.21107381409E+02  0.46142319535E+02  0.10000016178E+02 0.  0.
         12    1    1    2    0    0 -0.39672583641E+02  0.31109300560E+01 -0.21107381409E+02  0.45045680465E+02  0.00000000000E+00 0. -1.
         11    1    3    3    0    0 -0.14188381449E-01 -0.70366426516E+00  0.11690018235E-01  0.70390455736E+00  0.51100000000E-03 0. -1.
        -11    1    3    3    0    0  0.20886483951E+02 -0.42524858885E+01  0.10185721806E+02  0.23623669847E+02  0.51100000000E-03 0.  1.
        -12    1    3    3    0    0  0.18800288071E+02  0.18452200977E+01  0.10909969585E+02  0.21814745131E+02  0.00000000000E+00 0.  1.
</event>
<event>
 7    1  0.2438448E-008  0.4614232E+02  0.7816164E-02  0.1320468E+00
        -11   -1    0    0    0    0  0.00000000000E+00  0.00000000000E+00  0.45593999997E+02  0.45594000000E+02  0.51100000000E-03 0.  1.
         11   -1    0    0    0    0 -0.00000000000E+00 -0.00000000000E+00 -0.45593999997E+02  0.45594000000E+02  0.51100000000E-03 0. -1.
    9900012    2    1    2    0    0 -0.36547499741E+02 -0.20933573021E+02  0.15974330386E+02  0.46142318209E+02  0.10000004086E+02 0.  0.
         12    1    1    2    0    0  0.36547499741E+02  0.20933573021E+02 -0.15974330386E+02  0.45045681791E+02  0.00000000000E+00 0. -1.
         11    1    3    3    0    0 -0.17529937401E+02 -0.10104503341E+02  0.39065690998E+01  0.20607303934E+02  0.51100000000E-03 0. -1.
        -11    1    3    3    0    0 -0.14803616625E+02 -0.75193872683E+01  0.65656105035E+01  0.17854845046E+02  0.51100000000E-03 0.  1.
        -12    1    3    3    0    0 -0.42139457151E+01 -0.33096824117E+01  0.55021507823E+01  0.76801692291E+01  0.00000000000E+00 0.  1.
</event>
<event>
 7    1  0.2438448E-008  0.4614232E+02  0.7816164E-02  0.1320468E+00
        -11   -1    0    0    0    0  0.00000000000E+00  0.00000000000E+00  0.45593999997E+02  0.45594000000E+02  0.51100000000E-03 0. -1.
         11   -1    0    0    0    0 -0.00000000000E+00 -0.00000000000E+00 -0.45593999997E+02  0.45594000000E+02  0.51100000000E-03 0.  1.
    9900012    2    1    2    0    0  0.19508461894E+02  0.39720814874E+02 -0.84136908500E+01  0.46142318593E+02  0.10000007584E+02 0.  0.
         12    1    1    2    0    0 -0.19508461894E+02 -0.39720814874E+02  0.84136908500E+01  0.45045681407E+02  0.00000000000E+00 0. -1.
         11    1    3    3    0    0  0.15806531320E+01  0.85569646360E+01 -0.32130314343E+01  0.92759732301E+01  0.51100000000E-03 0. -1.
        -11    1    3    3    0    0  0.10352812899E+02  0.16995184243E+02  0.24613621608E+00  0.19901698563E+02  0.51100000000E-03 0.  1.
        -12    1    3    3    0    0  0.75749958627E+01  0.14168665995E+02 -0.54467956318E+01  0.16964646800E+02  0.00000000000E+00 0.  1.
</event>
<event>
 7    1  0.2438448E-008  0.4614232E+02  0.7816164E-02  0.1320468E+00
        -11   -1    0    0    0    0  0.00000000000E+00  0.00000000000E+00  0.45593999997E+02  0.45594000000E+02  0.51100000000E-03 0.  1.
         11   -1    0    0    0    0 -0.00000000000E+00 -0.00000000000E+00 -0.45593999997E+02  0.45594000000E+02  0.51100000000E-03 0. -1.
    9900012    2    1    2    0    0  0.28434616596E+02 -0.18337700916E+02  0.29737430917E+02  0.46142317706E+02  0.99999994963E+01 0.  0.
         12    1    1    2    0    0 -0.28434616596E+02  0.18337700916E+02 -0.29737430917E+02  0.45045682294E+02  0.00000000000E+00 0. -1.
         11    1    3    3    0    0  0.76163424339E+01 -0.39422207294E+01  0.76015967421E+01  0.11460106877E+02  0.51100000000E-03 0. -1.
        -11    1    3    3    0    0  0.21464340591E+02 -0.13061772665E+02  0.21501278704E+02  0.33070119569E+02  0.51100000000E-03 0.  1.
         12    1    3    3    0    0 -0.64606642918E+00 -0.13337075212E+01  0.63455547104E+00  0.16120912595E+01  0.00000000000E+00 0. -1.
</event>
<event>
 7    1  0.2438448E-008  0.4614232E+02  0.7816164E-02  0.1320468E+00
        -11   -1    0    0    0    0  0.00000000000E+00  0.00000000000E+00  0.45593999997E+02  0.45594000000E+02  0.51100000000E-03 0.  1.
         11   -1    0    0    0    0 -0.00000000000E+00 -0.00000000000E+00 -0.45593999997E+02  0.45594000000E+02  0.51100000000E-03 0. -1.
    9900012    2    1    2    0    0  0.30702049487E+02 -0.32404657107E+02 -0.60362050032E+01  0.46142318567E+02  0.10000007352E+02 0.  0.
         12    1    1    2    0    0 -0.30702049487E+02  0.32404657107E+02  0.60362050032E+01  0.45045681433E+02  0.00000000000E+00 0. -1.
         11    1    3    3    0    0  0.10099365896E+02 -0.86252594558E+01 -0.41532444860E+01  0.13915521270E+02  0.51100000000E-03 0. -1.
        -11    1    3    3    0    0  0.18780823300E+02 -0.23221073279E+02 -0.30039613762E+01  0.30016018261E+02  0.51100000000E-03 0.  1.
         12    1    3    3    0    0  0.18218602901E+01 -0.55832437213E+00  0.11210008590E+01  0.22107790362E+01  0.00000000000E+00 0. -1.
</event>
<event>
 7    1  0.2438448E-008  0.4614232E+02  0.7816164E-02  0.1320468E+00
        -11   -1    0    0    0    0  0.00000000000E+00  0.00000000000E+00  0.45593999997E+02  0.45594000000E+02  0.51100000000E-03 0.  1.
         11   -1    0    0    0    0 -0.00000000000E+00 -0.00000000000E+00 -0.45593999997E+02  0.45594000000E+02  0.51100000000E-03 0. -1.
    9900012    2    1    2    0    0  0.11934944208E+02 -0.21688601001E+00  0.43435279134E+02  0.46142318673E+02  0.10000008316E+02 0.  0.
         12    1    1    2    0    0 -0.11934944208E+02  0.21688601001E+00 -0.43435279134E+02  0.45045681327E+02  0.00000000000E+00 0. -1.
         11    1    3    3    0    0  0.55451825845E+00  0.18018871499E-01 -0.79472504165E-01  0.56047419095E+00  0.51100000000E-03 0. -1.
        -11    1    3    3    0    0 -0.76784476529E-01  0.13469544622E+01  0.10776541543E+02  0.10860664347E+02  0.51100000000E-03 0.  1.
        -12    1    3    3    0    0  0.11457210426E+02 -0.15818593437E+01  0.32738210095E+02  0.34721180135E+02  0.00000000000E+00 0.  1.
</event>
<event>
 7    1  0.2438448E-008  0.4614232E+02  0.7816164E-02  0.1320468E+00
        -11   -1    0    0    0    0  0.00000000000E+00  0.00000000000E+00  0.45593999997E+02  0.45594000000E+02  0.51100000000E-03 0.  1.
         11   -1    0    0    0    0 -0.00000000000E+00 -0.00000000000E+00 -0.45593999997E+02  0.45594000000E+02  0.51100000000E-03 0. -1.
    9900012    2    1    2    0    0  0.16499655263E+02  0.29872220860E+02  0.29402804552E+02  0.46142321867E+02  0.10000037444E+02 0.  0.
         12    1    1    2    0    0 -0.16499655263E+02 -0.29872220860E+02 -0.29402804552E+02  0.45045678133E+02  0.00000000000E+00 0. -1.
         11    1    3    3    0    0 -0.71013518090E+00  0.56259312286E+00  0.21058994073E+00  0.93013514142E+00  0.51100000000E-03 0. -1.
        -11    1    3    3    0    0  0.86092701105E+01  0.11275968630E+02  0.89700726691E+01  0.16784790864E+02  0.51100000000E-03 0.  1.
        -12    1    3    3    0    0  0.86005203339E+01  0.18033659107E+02  0.20222141942E+02  0.28427395862E+02  0.00000000000E+00 0.  1.
</event>
<event>
 7    1  0.2438448E-008  0.4614232E+02  0.7816164E-02  0.1320468E+00
        -11   -1    0    0    0    0  0.00000000000E+00  0.00000000000E+00  0.45593999997E+02  0.45594000000E+02  0.51100000000E-03 0.  1.
         11   -1    0    0    0    0 -0.00000000000E+00 -0.00000000000E+00 -0.45593999997E+02  0.45594000000E+02  0.51100000000E-03 0. -1.
    9900012    2    1    2    0    0  0.21441137815E+02  0.16043483261E+01  0.39583041265E+02  0.46142317852E+02  0.10000000830E+02 0.  0.
         12    1    1    2    0    0 -0.21441137815E+02 -0.16043483261E+01 -0.39583041265E+02  0.45045682148E+02  0.00000000000E+00 0. -1.
         11    1    3    3    0    0  0.40762765035E+01 -0.77877610142E+00  0.46919131253E+01  0.62639102313E+01  0.51100000000E-03 0. -1.
        -11    1    3    3    0    0  0.10961254880E+02  0.51438701758E+01  0.24980625656E+02  0.27760406470E+02  0.51100000000E-03 0.  1.
        -12    1    3    3    0    0  0.64036064317E+01 -0.27607457483E+01  0.99105024834E+01  0.12118001151E+02  0.00000000000E+00 0.  1.
</event>
<event>
 7    1  0.2438448E-008  0.4614232E+02  0.7816164E-02  0.1320468E+00
        -11   -1    0    0    0    0  0.00000000000E+00  0.00000000000E+00  0.45593999997E+02  0.45594000000E+02  0.51100000000E-03 0.  1.
         11   -1    0    0    0    0 -0.00000000000E+00 -0.00000000000E+00 -0.45593999997E+02  0.45594000000E+02  0.51100000000E-03 0. -1.
    9900012    2    1    2    0    0  0.18803541744E+02  0.21112988509E+02  0.35068246036E+02  0.46142319342E+02  0.10000014416E+02 0.  0.
         12    1    1    2    0    0 -0.18803541744E+02 -0.21112988509E+02 -0.35068246036E+02  0.45045680658E+02  0.00000000000E+00 0. -1.
         11    1    3    3    0    0  0.26552998218E+00  0.44338962927E+00 -0.56184966746E+00  0.76339756662E+00  0.51100000000E-03 0. -1.
        -11    1    3    3    0    0  0.68476892678E+01  0.87566194329E+01  0.11102304982E+02  0.15710837290E+02  0.51100000000E-03 0.  1.
        -12    1    3    3    0    0  0.11690322494E+02  0.11912979447E+02  0.24527790722E+02  0.29668084485E+02  0.00000000000E+00 0.  1.
</event>
<event>
 7    1  0.2438448E-008  0.4614231E+02  0.7816164E-02  0.1320468E+00
        -11   -1    0    0    0    0  0.00000000000E+00  0.00000000000E+00  0.45593999997E+02  0.45594000000E+02  0.51100000000E-03 0.  1.
         11   -1    0    0    0    0 -0.00000000000E+00 -0.00000000000E+00 -0.45593999997E+02  0.45594000000E+02  0.51100000000E-03 0. -1.
    9900012    2    1    2    0    0  0.32310723888E+02  0.31014003888E+02  0.48231835957E+01  0.46142307472E+02  0.99999061734E+01 0.  0.
         12    1    1    2    0    0 -0.32310723888E+02 -0.31014003888E+02 -0.48231835957E+01  0.45045692528E+02  0.00000000000E+00 0. -1.
         11    1    3    3    0    0  0.12547022376E+02  0.10749159201E+02  0.15580620596E+01  0.16595172541E+02  0.51100000000E-03 0. -1.
        -11    1    3    3    0    0  0.16391918975E+02  0.19574591325E+02  0.12570924492E+01  0.25562470830E+02  0.51100000000E-03 0.  1.
         12    1    3    3    0    0  0.33717825373E+01  0.69025336165E+00  0.20080290869E+01  0.39846641007E+01  0.00000000000E+00 0. -1.
</event>
<event>
 7    1  0.2438448E-008  0.4614231E+02  0.7816164E-02  0.1320468E+00
        -11   -1    0    0    0    0  0.00000000000E+00  0.00000000000E+00  0.45593999997E+02  0.45594000000E+02  0.51100000000E-03 0.  1.
         11   -1    0    0    0    0 -0.00000000000E+00 -0.00000000000E+00 -0.45593999997E+02  0.45594000000E+02  0.51100000000E-03 0. -1.
    9900012    2    1    2    0    0 -0.33631435698E+02 -0.29680789167E+02  0.41341352165E+01  0.46142314450E+02  0.99999698023E+01 0.  0.
         12    1    1    2    0    0  0.33631435698E+02  0.29680789167E+02 -0.41341352165E+01  0.45045685550E+02  0.00000000000E+00 0. -1.
         11    1    3    3    0    0 -0.10117148442E+02 -0.10405186720E+02  0.45868545675E+01  0.15220507165E+02  0.51100000000E-03 0. -1.
        -11    1    3    3    0    0 -0.18561805698E+02 -0.17823045587E+02  0.78871842672E-01  0.25733398644E+02  0.51100000000E-03 0.  1.
         12    1    3    3    0    0 -0.49524815588E+01 -0.14525568603E+01 -0.53159119370E+00  0.51884086404E+01  0.00000000000E+00 0. -1.
</event>
<event>
 7    1  0.2438448E-008  0.4614232E+02  0.7816164E-02  0.1320468E+00
        -11   -1    0    0    0    0  0.00000000000E+00  0.00000000000E+00  0.45593999997E+02  0.45594000000E+02  0.51100000000E-03 0. -1.
         11   -1    0    0    0    0 -0.00000000000E+00 -0.00000000000E+00 -0.45593999997E+02  0.45594000000E+02  0.51100000000E-03 0.  1.
    9900012    2    1    2    0    0  0.15502454931E+02  0.36353648543E+02  0.21614802259E+02  0.46142317099E+02  0.99999939658E+01 0.  0.
         12    1    1    2    0    0 -0.15502454931E+02 -0.36353648543E+02 -0.21614802259E+02  0.45045682901E+02  0.00000000000E+00 0. -1.
         11    1    3    3    0    0  0.93923584401E+00  0.74793620454E+01  0.39396133078E+01  0.85055025632E+01  0.51100000000E-03 0. -1.
        -11    1    3    3    0    0  0.13947136467E+02  0.29208058603E+02  0.16659586893E+02  0.36402955082E+02  0.51100000000E-03 0.  1.
        -12    1    3    3    0    0  0.61608261946E+00 -0.33377210516E+00  0.10156020580E+01  0.12338594541E+01  0.00000000000E+00 0.  1.
</event>
<event>
 7    1  0.2438448E-008  0.4614232E+02  0.7816164E-02  0.1320468E+00
        -11   -1    0    0    0    0  0.00000000000E+00  0.00000000000E+00  0.45593999997E+02  0.45594000000E+02  0.51100000000E-03 0.  1.
         11   -1    0    0    0    0 -0.00000000000E+00 -0.00000000000E+00 -0.45593999997E+02  0.45594000000E+02  0.51100000000E-03 0. -1.
    9900012    2    1    2    0    0 -0.15507453596E+02 -0.23871205019E+02  0.34911287874E+02  0.46142316888E+02  0.99999920345E+01 0.  0.
         12    1    1    2    0    0  0.15507453596E+02  0.23871205019E+02 -0.34911287874E+02  0.45045683112E+02  0.00000000000E+00 0. -1.
         11    1    3    3    0    0 -0.36048483035E+01 -0.82740922801E+01  0.90980060279E+01  0.12815195991E+02  0.51100000000E-03 0.  1.
        -11    1    3    3    0    0 -0.10601225435E+01 -0.32411873612E+01  0.98405871106E+00  0.35492995260E+01  0.51100000000E-03 0. -1.
        -12    1    3    3    0    0 -0.10842482749E+02 -0.12355925378E+02  0.24829223135E+02  0.29777821370E+02  0.00000000000E+00 0.  1.
</event>
<event>
 7    1  0.2438448E-008  0.4614232E+02  0.7816164E-02  0.1320468E+00
        -11   -1    0    0    0    0  0.00000000000E+00  0.00000000000E+00  0.45593999997E+02  0.45594000000E+02  0.51100000000E-03 0.  1.
         11   -1    0    0    0    0 -0.00000000000E+00 -0.00000000000E+00 -0.45593999997E+02  0.45594000000E+02  0.51100000000E-03 0. -1.
    9900012    2    1    2    0    0  0.42860723637E+02 -0.13620440008E+02  0.25603522588E+01  0.46142318515E+02  0.10000006876E+02 0.  0.
         12    1    1    2    0    0 -0.42860723637E+02  0.13620440008E+02 -0.25603522588E+01  0.45045681485E+02  0.00000000000E+00 0. -1.
         11    1    3    3    0    0  0.11449945341E+02 -0.55391100110E+01  0.17546338801E+01  0.12839849233E+02  0.51100000000E-03 0. -1.
        -11    1    3    3    0    0  0.28778799682E+02 -0.94941627857E+01  0.65657971425E+00  0.30311541289E+02  0.51100000000E-03 0.  1.
        -12    1    3    3    0    0  0.26319786151E+01  0.14128327886E+01  0.14913866440E+00  0.29909279932E+01  0.00000000000E+00 0.  1.
</event>
<event>
 7    1  0.2438448E-008  0.4614232E+02  0.7816164E-02  0.1320468E+00
        -11   -1    0    0    0    0  0.00000000000E+00  0.00000000000E+00  0.45593999997E+02  0.45594000000E+02  0.51100000000E-03 0.  1.
         11   -1    0    0    0    0 -0.00000000000E+00 -0.00000000000E+00 -0.45593999997E+02  0.45594000000E+02  0.51100000000E-03 0. -1.
    9900012    2    1    2    0    0  0.15904226263E+02 -0.35501507248E+02  0.22711495734E+02  0.46142317983E+02  0.10000002022E+02 0.  0.
         12    1    1    2    0    0 -0.15904226263E+02  0.35501507248E+02 -0.22711495734E+02  0.45045682017E+02  0.00000000000E+00 0. -1.
         11    1    3    3    0    0  0.23277938121E+01 -0.76578890392E+01  0.71927951496E+01  0.10760956783E+02  0.51100000000E-03 0. -1.
        -11    1    3    3    0    0  0.95929972568E+01 -0.25279078328E+02  0.13653287314E+02  0.30289761508E+02  0.51100000000E-03 0.  1.
        -12    1    3    3    0    0  0.39834351945E+01 -0.25645398810E+01  0.18654132702E+01  0.50915996915E+01  0.00000000000E+00 0.  1.
</event>
<event>
 7    1  0.2438448E-008  0.4614232E+02  0.7816164E-02  0.1320468E+00
        -11   -1    0    0    0    0  0.00000000000E+00  0.00000000000E+00  0.45593999997E+02  0.45594000000E+02  0.51100000000E-03 0. -1.
         11   -1    0    0    0    0 -0.00000000000E+00 -0.00000000000E+00 -0.45593999997E+02  0.45594000000E+02  0.51100000000E-03 0.  1.
    9900012    2    1    2    0    0  0.27719163626E+02  0.32880573618E+02 -0.13402588100E+02  0.46142317395E+02  0.99999966610E+01 0.  0.
         12    1    1    2    0    0 -0.27719163626E+02 -0.32880573618E+02  0.13402588100E+02  0.45045682605E+02  0.00000000000E+00 0. -1.
         11    1    3    3    0    0  0.22883428725E+02  0.25487621489E+02 -0.75033634387E+01  0.35065233816E+02  0.51100000000E-03 0. -1.
        -11    1    3    3    0    0  0.28356473737E+01  0.16207103699E+01 -0.21088321097E+01  0.38877720174E+01  0.51100000000E-03 0.  1.
        -12    1    3    3    0    0  0.20000875277E+01  0.57722417586E+01 -0.37903925520E+01  0.71893115620E+01  0.00000000000E+00 0.  1.
</event>
<event>
 7    1  0.2438448E-008  0.4614232E+02  0.7816164E-02  0.1320468E+00
        -11   -1    0    0    0    0  0.00000000000E+00  0.00000000000E+00  0.45593999997E+02  0.45594000000E+02  0.51100000000E-03 0.  1.
         11   -1    0    0    0    0 -0.00000000000E+00 -0.00000000000E+00 -0.45593999997E+02  0.45594000000E+02  0.51100000000E-03 0. -1.
    9900012    2    1    2    0    0 -0.99717969375E+00 -0.42033037209E+02 -0.16166101281E+02  0.46142318576E+02  0.10000007428E+02 0.  0.
         12    1    1    2    0    0  0.99717969375E+00  0.42033037209E+02  0.16166101281E+02  0.45045681424E+02  0.00000000000E+00 0. -1.
         11    1    3    3    0    0 -0.26169461212E+01 -0.91113988407E+01 -0.51639121580E+01  0.10794998141E+02  0.51100000000E-03 0. -1.
        -11    1    3    3    0    0 -0.18096190687E+00 -0.75618982874E+01 -0.54542195920E+01  0.93254257029E+01  0.51100000000E-03 0.  1.
        -12    1    3    3    0    0  0.18007283343E+01 -0.25359740081E+02 -0.55479695314E+01  0.26021894731E+02  0.00000000000E+00 0.  1.
</event>
<event>
 7    1  0.2438448E-008  0.4614232E+02  0.7816164E-02  0.1320468E+00
        -11   -1    0    0    0    0  0.00000000000E+00  0.00000000000E+00  0.45593999997E+02  0.45594000000E+02  0.51100000000E-03 0. -1.
         11   -1    0    0    0    0 -0.00000000000E+00 -0.00000000000E+00 -0.45593999997E+02  0.45594000000E+02  0.51100000000E-03 0.  1.
    9900012    2    1    2    0    0 -0.34180445829E+02  0.18355766278E+02 -0.22888344487E+02  0.46142319340E+02  0.10000014401E+02 0.  0.
         12    1    1    2    0    0  0.34180445829E+02 -0.18355766278E+02  0.22888344487E+02  0.45045680660E+02  0.00000000000E+00 0. -1.
         11    1    3    3    0    0 -0.15986931032E+02  0.96573584201E+01 -0.66626678938E+01  0.19830221361E+02  0.51100000000E-03 0. -1.
        -11    1    3    3    0    0 -0.22423732221E+01  0.89851686529E-01 -0.35276648385E+01  0.41809963485E+01  0.51100000000E-03 0.  1.
        -12    1    3    3    0    0 -0.15951141575E+02  0.86085561714E+01 -0.12698011755E+02  0.22131101631E+02  0.00000000000E+00 0.  1.
</event>
<event>
 7    1  0.2438448E-008  0.4614232E+02  0.7816164E-02  0.1320468E+00
        -11   -1    0    0    0    0  0.00000000000E+00  0.00000000000E+00  0.45593999997E+02  0.45594000000E+02  0.51100000000E-03 0. -1.
         11   -1    0    0    0    0 -0.00000000000E+00 -0.00000000000E+00 -0.45593999997E+02  0.45594000000E+02  0.51100000000E-03 0.  1.
    9900012    2    1    2    0    0 -0.38101857067E+02  0.24006572202E+02 -0.10228327965E+01  0.46142320876E+02  0.10000028404E+02 0.  0.
         12    1    1    2    0    0  0.38101857067E+02 -0.24006572202E+02  0.10228327965E+01  0.45045679124E+02  0.00000000000E+00 0. -1.
         11    1    3    3    0    0 -0.11211270126E+02  0.12261093827E+02 -0.13843274186E+01  0.16671633464E+02  0.51100000000E-03 0.  1.
        -11    1    3    3    0    0 -0.91923809552E+01  0.46070842995E+01  0.12995137984E+01  0.10364064345E+02  0.51100000000E-03 0. -1.
        -12    1    3    3    0    0 -0.17698205985E+02  0.71383940750E+01 -0.93801917635E+00  0.19106623068E+02  0.00000000000E+00 0.  1.
</event>
<event>
 7    1  0.2438448E-008  0.4614232E+02  0.7816164E-02  0.1320468E+00
        -11   -1    0    0    0    0  0.00000000000E+00  0.00000000000E+00  0.45593999997E+02  0.45594000000E+02  0.51100000000E-03 0.  1.
         11   -1    0    0    0    0 -0.00000000000E+00 -0.00000000000E+00 -0.45593999997E+02  0.45594000000E+02  0.51100000000E-03 0. -1.
    9900012    2    1    2    0    0 -0.12816791586E+02  0.42868828130E+02  0.52064314642E+01  0.46142317628E+02  0.99999987851E+01 0.  0.
         12    1    1    2    0    0  0.12816791586E+02 -0.42868828130E+02 -0.52064314642E+01  0.45045682372E+02  0.00000000000E+00 0. -1.
         11    1    3    3    0    0 -0.32402772915E+01  0.13743096003E+02 -0.19047385461E+01  0.14247810844E+02  0.51100000000E-03 0. -1.
        -11    1    3    3    0    0 -0.18345572575E+01  0.21794527888E+01  0.17699679647E+01  0.33538636893E+01  0.51100000000E-03 0.  1.
        -12    1    3    3    0    0 -0.77419570373E+01  0.26946279338E+02  0.53412020456E+01  0.28540643094E+02  0.00000000000E+00 0.  1.
</event>
<event>
 7    1  0.2438448E-008  0.4614232E+02  0.7816164E-02  0.1320468E+00
        -11   -1    0    0    0    0  0.00000000000E+00  0.00000000000E+00  0.45593999997E+02  0.45594000000E+02  0.51100000000E-03 0. -1.
         11   -1    0    0    0    0 -0.00000000000E+00 -0.00000000000E+00 -0.45593999997E+02  0.45594000000E+02  0.51100000000E-03 0.  1.
    9900012    2    1    2    0    0  0.20524033836E+02  0.56447139255E+01 -0.39699053180E+02  0.46142316704E+02  0.99999903644E+01 0.  0.
         12    1    1    2    0    0 -0.20524033836E+02 -0.56447139255E+01  0.39699053180E+02  0.45045683296E+02  0.00000000000E+00 0. -1.
         11    1    3    3    0    0  0.28217836836E+01  0.24245416411E+01 -0.21414798472E+01  0.42926450498E+01  0.51100000000E-03 0. -1.
        -11    1    3    3    0    0  0.14393332436E+02  0.41884576121E+01 -0.31326294207E+02  0.34728200425E+02  0.51100000000E-03 0.  1.
        -12    1    3    3    0    0  0.33089177158E+01 -0.96828532773E+00 -0.62312791258E+01  0.71214712293E+01  0.00000000000E+00 0.  1.
</event>
<event>
 7    1  0.2438448E-008  0.4614232E+02  0.7816164E-02  0.1320468E+00
        -11   -1    0    0    0    0  0.00000000000E+00  0.00000000000E+00  0.45593999997E+02  0.45594000000E+02  0.51100000000E-03 0.  1.
         11   -1    0    0    0    0 -0.00000000000E+00 -0.00000000000E+00 -0.45593999997E+02  0.45594000000E+02  0.51100000000E-03 0. -1.
    9900012    2    1    2    0    0  0.10317396465E+02 -0.36843500271E+02  0.23774385565E+02  0.46142316621E+02  0.99999896073E+01 0.  0.
         12    1    1    2    0    0 -0.10317396465E+02  0.36843500271E+02 -0.23774385565E+02  0.45045683379E+02  0.00000000000E+00 0. -1.
         11    1    3    3    0    0 -0.29292525528E+00 -0.43969973948E+00  0.47969084948E+00  0.71361378790E+00  0.51100000000E-03 0. -1.
        -11    1    3    3    0    0  0.41766591598E+01 -0.15908550059E+02  0.15431533994E+02  0.22553462892E+02  0.51100000000E-03 0.  1.
         12    1    3    3    0    0  0.64336625609E+01 -0.20495250472E+02  0.78631607214E+01  0.22875239942E+02  0.00000000000E+00 0. -1.
</event>
<event>
 7    1  0.2438448E-008  0.4614232E+02  0.7816164E-02  0.1320468E+00
        -11   -1    0    0    0    0  0.00000000000E+00  0.00000000000E+00  0.45593999997E+02  0.45594000000E+02  0.51100000000E-03 0.  1.
         11   -1    0    0    0    0 -0.00000000000E+00 -0.00000000000E+00 -0.45593999997E+02  0.45594000000E+02  0.51100000000E-03 0. -1.
    9900012    2    1    2    0    0  0.21834350202E+02  0.22595511160E+02  0.32277197581E+02  0.46142318109E+02  0.10000003173E+02 0.  0.
         12    1    1    2    0    0 -0.21834350202E+02 -0.22595511160E+02 -0.32277197581E+02  0.45045681891E+02  0.00000000000E+00 0. -1.
         11    1    3    3    0    0  0.10436131912E+02  0.66381954933E+01  0.85166601478E+01  0.15017056603E+02  0.51100000000E-03 0. -1.
        -11    1    3    3    0    0  0.10324011732E+02  0.11435423681E+02  0.19158659361E+02  0.24584718054E+02  0.51100000000E-03 0.  1.
         12    1    3    3    0    0  0.10742065582E+01  0.45218919852E+01  0.46018780722E+01  0.65405434519E+01  0.00000000000E+00 0. -1.
</event>
<event>
 7    1  0.2438448E-008  0.4614232E+02  0.7816164E-02  0.1320468E+00
        -11   -1    0    0    0    0  0.00000000000E+00  0.00000000000E+00  0.45593999997E+02  0.45594000000E+02  0.51100000000E-03 0.  1.
         11   -1    0    0    0    0 -0.00000000000E+00 -0.00000000000E+00 -0.45593999997E+02  0.45594000000E+02  0.51100000000E-03 0. -1.
    9900012    2    1    2    0    0  0.30070774658E+02  0.10765057334E+02  0.31764374283E+02  0.46142318503E+02  0.10000006763E+02 0.  0.
         12    1    1    2    0    0 -0.30070774658E+02 -0.10765057334E+02 -0.31764374283E+02  0.45045681497E+02  0.00000000000E+00 0. -1.
         11    1    3    3    0    0  0.98339128088E+00 -0.11346869169E+01  0.37776276074E+00  0.15483144949E+01  0.51100000000E-03 0. -1.
        -11    1    3    3    0    0  0.15079857381E+02  0.75453834209E+01  0.14633008774E+02  0.22326214539E+02  0.51100000000E-03 0.  1.
        -12    1    3    3    0    0  0.14007525996E+02  0.43543608302E+01  0.16753602749E+02  0.22267789469E+02  0.00000000000E+00 0.  1.
</event>
<event>
 7    1  0.2438448E-008  0.4614232E+02  0.7816164E-02  0.1320468E+00
        -11   -1    0    0    0    0  0.00000000000E+00  0.00000000000E+00  0.45593999997E+02  0.45594000000E+02  0.51100000000E-03 0.  1.
         11   -1    0    0    0    0 -0.00000000000E+00 -0.00000000000E+00 -0.45593999997E+02  0.45594000000E+02  0.51100000000E-03 0. -1.
    9900012    2    1    2    0    0 -0.20339890836E+02  0.12533255543E+02  0.38187953812E+02  0.46142317964E+02  0.10000001853E+02 0.  0.
         12    1    1    2    0    0  0.20339890836E+02 -0.12533255543E+02 -0.38187953812E+02  0.45045682036E+02  0.00000000000E+00 0. -1.
         11    1    3    3    0    0 -0.59605526900E+01  0.71689589529E+01  0.18174888687E+02  0.20426667371E+02  0.51100000000E-03 0. -1.
        -11    1    3    3    0    0 -0.12214940168E+02  0.62365446351E+01  0.18028795574E+02  0.22652521326E+02  0.51100000000E-03 0.  1.
         12    1    3    3    0    0 -0.21643979780E+01 -0.87224804523E+00  0.19842695502E+01  0.30631292671E+01  0.00000000000E+00 0. -1.
</event>
<event>
 7    1  0.2438448E-008  0.4614232E+02  0.7816164E-02  0.1320468E+00
        -11   -1    0    0    0    0  0.00000000000E+00  0.00000000000E+00  0.45593999997E+02  0.45594000000E+02  0.51100000000E-03 0.  1.
         11   -1    0    0    0    0 -0.00000000000E+00 -0.00000000000E+00 -0.45593999997E+02  0.45594000000E+02  0.51100000000E-03 0. -1.
    9900012    2    1    2    0    0 -0.16926712877E+01 -0.34817552990E+02  0.28530446301E+02  0.46142317649E+02  0.99999989804E+01 0.  0.
         12    1    1    2    0    0  0.16926712877E+01  0.34817552990E+02 -0.28530446301E+02  0.45045682351E+02  0.00000000000E+00 0. -1.
         11    1    3    3    0    0 -0.10978566306E+01 -0.13473649404E+02  0.93497140090E+01  0.16436595443E+02  0.51100000000E-03 0. -1.
        -11    1    3    3    0    0 -0.17023053836E+01 -0.20371339964E+02  0.19439073929E+02  0.28209341202E+02  0.51100000000E-03 0.  1.
         12    1    3    3    0    0  0.11074907266E+01 -0.97256362255E+00 -0.25834163771E+00  0.14963810047E+01  0.00000000000E+00 0. -1.
</event>
<event>
 7    1  0.2438448E-008  0.4614231E+02  0.7816164E-02  0.1320468E+00
        -11   -1    0    0    0    0  0.00000000000E+00  0.00000000000E+00  0.45593999997E+02  0.45594000000E+02  0.51100000000E-03 0.  1.
         11   -1    0    0    0    0 -0.00000000000E+00 -0.00000000000E+00 -0.45593999997E+02  0.45594000000E+02  0.51100000000E-03 0. -1.
    9900012    2    1    2    0    0  0.16217877956E+02  0.21973702182E+01  0.41967437495E+02  0.46142314178E+02  0.99999673305E+01 0.  0.
         12    1    1    2    0    0 -0.16217877956E+02 -0.21973702182E+01 -0.41967437495E+02  0.45045685822E+02  0.00000000000E+00 0. -1.
         11    1    3    3    0    0 -0.80488476381E+00  0.17362994089E+01  0.42394346313E+01  0.46513848878E+01  0.51100000000E-03 0. -1.
        -11    1    3    3    0    0  0.11777669258E+02  0.16344973337E+01  0.25907656093E+02  0.28505994443E+02  0.51100000000E-03 0.  1.
         12    1    3    3    0    0  0.52450934619E+01 -0.11734265244E+01  0.11820346770E+02  0.12984934848E+02  0.00000000000E+00 0. -1.
</event>
<event>
 7    1  0.2438448E-008  0.4614232E+02  0.7816164E-02  0.1320468E+00
        -11   -1    0    0    0    0  0.00000000000E+00  0.00000000000E+00  0.45593999997E+02  0.45594000000E+02  0.51100000000E-03 0. -1.
         11   -1    0    0    0    0 -0.00000000000E+00 -0.00000000000E+00 -0.45593999997E+02  0.45594000000E+02  0.51100000000E-03 0.  1.
    9900012    2    1    2    0    0  0.32063231215E+02  0.31591668154E+02 -0.17404771708E+01  0.46142317038E+02  0.99999934075E+01 0.  0.
         12    1    1    2    0    0 -0.32063231215E+02 -0.31591668154E+02  0.17404771708E+01  0.45045682962E+02  0.00000000000E+00 0. -1.
         11    1    3    3    0    0  0.70220420567E+01  0.58485939776E+01  0.33670839078E+01  0.97392186783E+01  0.51100000000E-03 0. -1.
        -11    1    3    3    0    0  0.96465470082E+01  0.81844923771E+01 -0.97158317641E+00  0.12688016345E+02  0.51100000000E-03 0.  1.
         12    1    3    3    0    0  0.15394642150E+02  0.17558581800E+02 -0.41359779021E+01  0.23715082014E+02  0.00000000000E+00 0. -1.
</event>
<event>
 7    1  0.2438448E-008  0.4614232E+02  0.7816164E-02  0.1320468E+00
        -11   -1    0    0    0    0  0.00000000000E+00  0.00000000000E+00  0.45593999997E+02  0.45594000000E+02  0.51100000000E-03 0.  1.
         11   -1    0    0    0    0 -0.00000000000E+00 -0.00000000000E+00 -0.45593999997E+02  0.45594000000E+02  0.51100000000E-03 0. -1.
    9900012    2    1    2    0    0  0.42145871404E+02  0.15414600715E+02  0.39024427572E+01  0.46142318176E+02  0.10000003779E+02 0.  0.
         12    1    1    2    0    0 -0.42145871404E+02 -0.15414600715E+02 -0.39024427572E+01  0.45045681824E+02  0.00000000000E+00 0. -1.
         11    1    3    3    0    0  0.16163763921E+01 -0.34069538888E+00  0.99171164804E+00  0.19267169597E+01  0.51100000000E-03 0. -1.
        -11    1    3    3    0    0  0.17748019200E+02  0.30057537619E+01  0.67075292147E+00  0.18013235438E+02  0.51100000000E-03 0.  1.
         12    1    3    3    0    0  0.22781475811E+02  0.12749542342E+02  0.22399781876E+01  0.26202365778E+02  0.00000000000E+00 0. -1.
</event>
<event>
 7    1  0.2438448E-008  0.4614232E+02  0.7816164E-02  0.1320468E+00
        -11   -1    0    0    0    0  0.00000000000E+00  0.00000000000E+00  0.45593999997E+02  0.45594000000E+02  0.51100000000E-03 0. -1.
         11   -1    0    0    0    0 -0.00000000000E+00 -0.00000000000E+00 -0.45593999997E+02  0.45594000000E+02  0.51100000000E-03 0.  1.
    9900012    2    1    2    0    0  0.30679048057E+02  0.25749609497E+02 -0.20612306109E+02  0.46142317165E+02  0.99999945665E+01 0.  0.
         12    1    1    2    0    0 -0.30679048057E+02 -0.25749609497E+02  0.20612306109E+02  0.45045682835E+02  0.00000000000E+00 0. -1.
         11    1    3    3    0    0  0.23687905992E+02  0.16039295692E+02 -0.17180288079E+02  0.33369719737E+02  0.51100000000E-03 0. -1.
        -11    1    3    3    0    0  0.36446959560E+01  0.28547833296E+01 -0.77274400933E+00  0.46936904495E+01  0.51100000000E-03 0.  1.
         12    1    3    3    0    0  0.33464461092E+01  0.68555304752E+01 -0.26592740206E+01  0.80789069789E+01  0.00000000000E+00 0. -1.
</event>
<event>
 7    1  0.2438448E-008  0.4614232E+02  0.7816164E-02  0.1320468E+00
        -11   -1    0    0    0    0  0.00000000000E+00  0.00000000000E+00  0.45593999997E+02  0.45594000000E+02  0.51100000000E-03 0.  1.
         11   -1    0    0    0    0 -0.00000000000E+00 -0.00000000000E+00 -0.45593999997E+02  0.45594000000E+02  0.51100000000E-03 0. -1.
    9900012    2    1    2    0    0 -0.45246346901E+00 -0.44341168337E+02  0.79227293299E+01  0.46142316825E+02  0.99999914605E+01 0.  0.
         12    1    1    2    0    0  0.45246346901E+00  0.44341168337E+02 -0.79227293299E+01  0.45045683175E+02  0.00000000000E+00 0. -1.
         11    1    3    3    0    0 -0.15877140664E+01 -0.86748379636E+01  0.13610040145E+01  0.89233391642E+01  0.51100000000E-03 0. -1.
        -11    1    3    3    0    0  0.29701821863E+01 -0.33730252967E+02  0.53180961548E+01  0.34275852935E+02  0.51100000000E-03 0.  1.
        -12    1    3    3    0    0 -0.18349315889E+01 -0.19360774062E+01  0.12436291606E+01  0.29431247252E+01  0.00000000000E+00 0.  1.
</event>
<event>
 7    1  0.2438448E-008  0.4614232E+02  0.7816164E-02  0.1320468E+00
        -11   -1    0    0    0    0  0.00000000000E+00  0.00000000000E+00  0.45593999997E+02  0.45594000000E+02  0.51100000000E-03 0.  1.
         11   -1    0    0    0    0 -0.00000000000E+00 -0.00000000000E+00 -0.45593999997E+02  0.45594000000E+02  0.51100000000E-03 0. -1.
    9900012    2    1    2    0    0 -0.24524378650E+02  0.21639504368E+02  0.30974185957E+02  0.46142317708E+02  0.99999995161E+01 0.  0.
         12    1    1    2    0    0  0.24524378650E+02 -0.21639504368E+02 -0.30974185957E+02  0.45045682292E+02  0.00000000000E+00 0. -1.
         11    1    3    3    0    0 -0.30678843356E+00  0.10271212362E+01  0.97819493379E+00  0.14511935661E+01  0.51100000000E-03 0. -1.
        -11    1    3    3    0    0 -0.90907347629E+01  0.42505894019E+01  0.50238303548E+01  0.11222648551E+02  0.51100000000E-03 0.  1.
         12    1    3    3    0    0 -0.15126855453E+02  0.16361793730E+02  0.24972160669E+02  0.33468475591E+02  0.00000000000E+00 0. -1.
</event>
<event>
 7    1  0.2438448E-008  0.4614232E+02  0.7816164E-02  0.1320468E+00
        -11   -1    0    0    0    0  0.00000000000E+00  0.00000000000E+00  0.45593999997E+02  0.45594000000E+02  0.51100000000E-03 0.  1.
         11   -1    0    0    0    0 -0.00000000000E+00 -0.00000000000E+00 -0.45593999997E+02  0.45594000000E+02  0.51100000000E-03 0. -1.
    9900012    2    1    2    0    0 -0.29147333216E+02 -0.28818456303E+02  0.18682692322E+02  0.46142318190E+02  0.10000003913E+02 0.  0.
         12    1    1    2    0    0  0.29147333216E+02  0.28818456303E+02 -0.18682692322E+02  0.45045681810E+02  0.00000000000E+00 0. -1.
         11    1    3    3    0    0 -0.98001379740E+01 -0.14384797385E+02  0.62362892765E+01  0.18489359218E+02  0.51100000000E-03 0. -1.
        -11    1    3    3    0    0 -0.14600173545E+02 -0.13408038343E+02  0.96184705415E+01  0.22033055521E+02  0.51100000000E-03 0.  1.
        -12    1    3    3    0    0 -0.47470216969E+01 -0.10256205759E+01  0.28279325037E+01  0.56199034513E+01  0.00000000000E+00 0.  1.
</event>
<event>
 7    1  0.2438448E-008  0.4614232E+02  0.7816164E-02  0.1320468E+00
        -11   -1    0    0    0    0  0.00000000000E+00  0.00000000000E+00  0.45593999997E+02  0.45594000000E+02  0.51100000000E-03 0.  1.
         11   -1    0    0    0    0 -0.00000000000E+00 -0.00000000000E+00 -0.45593999997E+02  0.45594000000E+02  0.51100000000E-03 0. -1.
    9900012    2    1    2    0    0 -0.52536160223E+01  0.43547497401E+02  0.10253220451E+02  0.46142317179E+02  0.99999946875E+01 0.  0.
         12    1    1    2    0    0  0.52536160223E+01 -0.43547497401E+02 -0.10253220451E+02  0.45045682821E+02  0.00000000000E+00 0. -1.
         11    1    3    3    0    0  0.21717755776E+01  0.56280588623E+01  0.36913822157E+00  0.60438331384E+01  0.51100000000E-03 0. -1.
        -11    1    3    3    0    0  0.43806786226E+00  0.95511058476E+00  0.47592838383E+00  0.11535370686E+01  0.51100000000E-03 0.  1.
        -12    1    3    3    0    0 -0.78634594621E+01  0.36964327954E+02  0.94081538457E+01  0.38944946972E+02  0.00000000000E+00 0.  1.
</event>
<event>
 7    1  0.2438448E-008  0.4614232E+02  0.7816164E-02  0.1320468E+00
        -11   -1    0    0    0    0  0.00000000000E+00  0.00000000000E+00  0.45593999997E+02  0.45594000000E+02  0.51100000000E-03 0. -1.
         11   -1    0    0    0    0 -0.00000000000E+00 -0.00000000000E+00 -0.45593999997E+02  0.45594000000E+02  0.51100000000E-03 0.  1.
    9900012    2    1    2    0    0 -0.17431431291E+01 -0.40964040527E+02 -0.18655357100E+02  0.46142317490E+02  0.99999975249E+01 0.  0.
         12    1    1    2    0    0  0.17431431291E+01  0.40964040527E+02  0.18655357100E+02  0.45045682510E+02  0.00000000000E+00 0. -1.
         11    1    3    3    0    0 -0.20413972187E+01 -0.23780208972E+02 -0.14890242234E+02  0.28131565107E+02  0.51100000000E-03 0. -1.
        -11    1    3    3    0    0 -0.14535299348E+01 -0.10922773078E+02 -0.32525410866E+01  0.11489070666E+02  0.51100000000E-03 0.  1.
         12    1    3    3    0    0  0.17517840245E+01 -0.62610584778E+01 -0.51257377900E+00  0.65216817164E+01  0.00000000000E+00 0. -1.
</event>
<event>
 7    1  0.2438448E-008  0.4614232E+02  0.7816164E-02  0.1320468E+00
        -11   -1    0    0    0    0  0.00000000000E+00  0.00000000000E+00  0.45593999997E+02  0.45594000000E+02  0.51100000000E-03 0.  1.
         11   -1    0    0    0    0 -0.00000000000E+00 -0.00000000000E+00 -0.45593999997E+02  0.45594000000E+02  0.51100000000E-03 0. -1.
    9900012    2    1    2    0    0 -0.31830037753E+02  0.22297265770E+02  0.22777052645E+02  0.46142317728E+02  0.99999996939E+01 0.  0.
         12    1    1    2    0    0  0.31830037753E+02 -0.22297265770E+02 -0.22777052645E+02  0.45045682272E+02  0.00000000000E+00 0. -1.
         11    1    3    3    0    0  0.51071826842E+00  0.13821855507E+00  0.12231588959E+01  0.13326873093E+01  0.51100000000E-03 0. -1.
        -11    1    3    3    0    0 -0.16092571980E+01  0.80557599460E+00  0.15588379341E+01  0.23808900391E+01  0.51100000000E-03 0.  1.
         12    1    3    3    0    0 -0.30731498824E+02  0.21353471221E+02  0.19995055815E+02  0.42428740379E+02  0.00000000000E+00 0. -1.
</event>
<event>
 7    1  0.2438448E-008  0.4614232E+02  0.7816164E-02  0.1320468E+00
        -11   -1    0    0    0    0  0.00000000000E+00  0.00000000000E+00  0.45593999997E+02  0.45594000000E+02  0.51100000000E-03 0. -1.
         11   -1    0    0    0    0 -0.00000000000E+00 -0.00000000000E+00 -0.45593999997E+02  0.45594000000E+02  0.51100000000E-03 0.  1.
    9900012    2    1    2    0    0 -0.13648659741E+02  0.38810211271E+02 -0.18346527482E+02  0.46142317829E+02  0.10000000619E+02 0.  0.
         12    1    1    2    0    0  0.13648659741E+02 -0.38810211271E+02  0.18346527482E+02  0.45045682171E+02  0.00000000000E+00 0. -1.
         11    1    3    3    0    0 -0.88675754774E+01  0.17519330269E+02 -0.77903529498E+01  0.21124640287E+02  0.51100000000E-03 0. -1.
        -11    1    3    3    0    0 -0.11798236078E+01  0.17107183306E+02 -0.83530447075E+01  0.19074093964E+02  0.51100000000E-03 0.  1.
        -12    1    3    3    0    0 -0.36012606554E+01  0.41836976960E+01 -0.22031298244E+01  0.59435835775E+01  0.00000000000E+00 0.  1.
</event>
<event>
 7    1  0.2438448E-008  0.4614232E+02  0.7816164E-02  0.1320468E+00
        -11   -1    0    0    0    0  0.00000000000E+00  0.00000000000E+00  0.45593999997E+02  0.45594000000E+02  0.51100000000E-03 0. -1.
         11   -1    0    0    0    0 -0.00000000000E+00 -0.00000000000E+00 -0.45593999997E+02  0.45594000000E+02  0.51100000000E-03 0.  1.
    9900012    2    1    2    0    0 -0.10625019653E+02  0.74472867012E+01 -0.43136531588E+02  0.46142317862E+02  0.10000000921E+02 0.  0.
         12    1    1    2    0    0  0.10625019653E+02 -0.74472867012E+01  0.43136531588E+02  0.45045682138E+02  0.00000000000E+00 0. -1.
         11    1    3    3    0    0 -0.53178408424E+01  0.64902483742E+01 -0.25426723515E+02  0.26775380934E+02  0.51100000000E-03 0. -1.
        -11    1    3    3    0    0 -0.54090331455E+01  0.22371927120E+01 -0.16807046947E+02  0.17797176690E+02  0.51100000000E-03 0.  1.
         12    1    3    3    0    0  0.10185433520E+00 -0.12801543850E+01 -0.90276112606E+00  0.15697602383E+01  0.00000000000E+00 0. -1.
</event>
<event>
 7    1  0.2438448E-008  0.4614232E+02  0.7816164E-02  0.1320468E+00
        -11   -1    0    0    0    0  0.00000000000E+00  0.00000000000E+00  0.45593999997E+02  0.45594000000E+02  0.51100000000E-03 0.  1.
         11   -1    0    0    0    0 -0.00000000000E+00 -0.00000000000E+00 -0.45593999997E+02  0.45594000000E+02  0.51100000000E-03 0. -1.
    9900012    2    1    2    0    0 -0.12625831354E+02 -0.33771527608E+02  0.27003438890E+02  0.46142318672E+02  0.10000008310E+02 0.  0.
         12    1    1    2    0    0  0.12625831354E+02  0.33771527608E+02 -0.27003438890E+02  0.45045681328E+02  0.00000000000E+00 0. -1.
         11    1    3    3    0    0 -0.39366682440E+01 -0.99661971939E+01  0.91035229888E+01  0.14060461388E+02  0.51100000000E-03 0. -1.
        -11    1    3    3    0    0 -0.61855835471E+01 -0.12866562129E+02  0.14518979441E+02  0.20361989812E+02  0.51100000000E-03 0.  1.
         12    1    3    3    0    0 -0.25035795632E+01 -0.10938768285E+02  0.33809364608E+01  0.11719867473E+02  0.00000000000E+00 0. -1.
</event>
<event>
 7    1  0.2438448E-008  0.4614232E+02  0.7816164E-02  0.1320468E+00
        -11   -1    0    0    0    0  0.00000000000E+00  0.00000000000E+00  0.45593999997E+02  0.45594000000E+02  0.51100000000E-03 0.  1.
         11   -1    0    0    0    0 -0.00000000000E+00 -0.00000000000E+00 -0.45593999997E+02  0.45594000000E+02  0.51100000000E-03 0. -1.
    9900012    2    1    2    0    0 -0.36159236395E+02 -0.25724092366E+02  0.77390969033E+01  0.46142324008E+02  0.10000056965E+02 0.  0.
         12    1    1    2    0    0  0.36159236395E+02  0.25724092366E+02 -0.77390969033E+01  0.45045675992E+02  0.00000000000E+00 0. -1.
         11    1    3    3    0    0 -0.14234282469E+00 -0.22307626357E+00  0.76042046572E+00  0.80514846141E+00  0.51100000000E-03 0. -1.
        -11    1    3    3    0    0 -0.23419780811E+02 -0.15802849708E+02  0.74995313202E+00  0.28262671885E+02  0.51100000000E-03 0.  1.
        -12    1    3    3    0    0 -0.12597112759E+02 -0.96981663943E+01  0.62287233056E+01  0.17074503661E+02  0.00000000000E+00 0.  1.
</event>
<event>
 7    1  0.2438448E-008  0.4614232E+02  0.7816164E-02  0.1320468E+00
        -11   -1    0    0    0    0  0.00000000000E+00  0.00000000000E+00  0.45593999997E+02  0.45594000000E+02  0.51100000000E-03 0.  1.
         11   -1    0    0    0    0 -0.00000000000E+00 -0.00000000000E+00 -0.45593999997E+02  0.45594000000E+02  0.51100000000E-03 0. -1.
    9900012    2    1    2    0    0  0.68185667952E+01 -0.35548830152E+02  0.26812335099E+02  0.46142317723E+02  0.99999996527E+01 0.  0.
         12    1    1    2    0    0 -0.68185667952E+01  0.35548830152E+02 -0.26812335099E+02  0.45045682277E+02  0.00000000000E+00 0. -1.
         11    1    3    3    0    0  0.33549270729E+01 -0.92828380122E+01  0.48192091596E+01  0.10984142862E+02  0.51100000000E-03 0.  1.
        -11    1    3    3    0    0  0.45438655597E+01 -0.95905515753E+01  0.70490871614E+01  0.12740291355E+02  0.51100000000E-03 0. -1.
        -12    1    3    3    0    0 -0.10802258374E+01 -0.16675440565E+02  0.14944038778E+02  0.22417883506E+02  0.00000000000E+00 0.  1.
</event>
<event>
 7    1  0.2438448E-008  0.4614232E+02  0.7816164E-02  0.1320468E+00
        -11   -1    0    0    0    0  0.00000000000E+00  0.00000000000E+00  0.45593999997E+02  0.45594000000E+02  0.51100000000E-03 0.  1.
         11   -1    0    0    0    0 -0.00000000000E+00 -0.00000000000E+00 -0.45593999997E+02  0.45594000000E+02  0.51100000000E-03 0. -1.
    9900012    2    1    2    0    0 -0.95032668361E+01 -0.13609413100E+02  0.41875826405E+02  0.46142322709E+02  0.10000045119E+02 0.  0.
         12    1    1    2    0    0  0.95032668361E+01  0.13609413100E+02 -0.41875826405E+02  0.45045677291E+02  0.00000000000E+00 0. -1.
         11    1    3    3    0    0 -0.19213040801E+01 -0.17465272875E+01  0.36509895626E+01  0.44801218713E+01  0.51100000000E-03 0. -1.
        -11    1    3    3    0    0 -0.95461177706E+01 -0.92102030188E+01  0.30170697457E+02  0.32957960942E+02  0.51100000000E-03 0.  1.
         12    1    3    3    0    0  0.19641550146E+01 -0.26526827937E+01  0.80541393854E+01  0.87042398959E+01  0.00000000000E+00 0. -1.
</event>
<event>
 7    1  0.2438448E-008  0.4614231E+02  0.7816164E-02  0.1320468E+00
        -11   -1    0    0    0    0  0.00000000000E+00  0.00000000000E+00  0.45593999997E+02  0.45594000000E+02  0.51100000000E-03 0.  1.
         11   -1    0    0    0    0 -0.00000000000E+00 -0.00000000000E+00 -0.45593999997E+02  0.45594000000E+02  0.51100000000E-03 0. -1.
    9900012    2    1    2    0    0 -0.20929727588E+02 -0.21361551220E+01  0.39830866177E+02  0.46142305910E+02  0.99998919295E+01 0.  0.
         12    1    1    2    0    0  0.20929727588E+02  0.21361551220E+01 -0.39830866177E+02  0.45045694090E+02  0.00000000000E+00 0. -1.
         11    1    3    3    0    0 -0.96806002569E+01 -0.40660685866E+01  0.18447263315E+02  0.21226126806E+02  0.51100000000E-03 0. -1.
        -11    1    3    3    0    0 -0.38052637098E+01 -0.26965605123E+00  0.12740087796E+02  0.13298969268E+02  0.51100000000E-03 0.  1.
        -12    1    3    3    0    0 -0.74438636217E+01  0.21995695158E+01  0.86435150660E+01  0.11617209836E+02  0.00000000000E+00 0.  1.
</event>
<event>
 7    1  0.2438448E-008  0.4614232E+02  0.7816164E-02  0.1320468E+00
        -11   -1    0    0    0    0  0.00000000000E+00  0.00000000000E+00  0.45593999997E+02  0.45594000000E+02  0.51100000000E-03 0.  1.
         11   -1    0    0    0    0 -0.00000000000E+00 -0.00000000000E+00 -0.45593999997E+02  0.45594000000E+02  0.51100000000E-03 0. -1.
    9900012    2    1    2    0    0 -0.35331626316E+02  0.11298531847E+02  0.25556463029E+02  0.46142318269E+02  0.10000004636E+02 0.  0.
         12    1    1    2    0    0  0.35331626316E+02 -0.11298531847E+02 -0.25556463029E+02  0.45045681731E+02  0.00000000000E+00 0. -1.
         11    1    3    3    0    0 -0.58113453599E+01 -0.12130331063E+01  0.17330348485E+01  0.61843830943E+01  0.51100000000E-03 0. -1.
        -11    1    3    3    0    0 -0.13150896451E+02  0.50561865893E+01  0.10721400878E+02  0.17704788542E+02  0.51100000000E-03 0.  1.
         12    1    3    3    0    0 -0.16369384505E+02  0.74553783645E+01  0.13102027303E+02  0.22253146633E+02  0.00000000000E+00 0. -1.
</event>
<event>
 7    1  0.2438448E-008  0.4614232E+02  0.7816164E-02  0.1320468E+00
        -11   -1    0    0    0    0  0.00000000000E+00  0.00000000000E+00  0.45593999997E+02  0.45594000000E+02  0.51100000000E-03 0.  1.
         11   -1    0    0    0    0 -0.00000000000E+00 -0.00000000000E+00 -0.45593999997E+02  0.45594000000E+02  0.51100000000E-03 0. -1.
    9900012    2    1    2    0    0 -0.37635095665E+02 -0.22684960163E+02  0.99048282509E+01  0.46142318009E+02  0.10000002261E+02 0.  0.
         12    1    1    2    0    0  0.37635095665E+02  0.22684960163E+02 -0.99048282509E+01  0.45045681991E+02  0.00000000000E+00 0. -1.
         11    1    3    3    0    0 -0.33299281418E+01 -0.36863319016E+01 -0.22846845256E+00  0.49728927610E+01  0.51100000000E-03 0. -1.
        -11    1    3    3    0    0 -0.10485686351E+02 -0.93367380208E+01  0.53431275723E+01  0.15022426822E+02  0.51100000000E-03 0.  1.
        -12    1    3    3    0    0 -0.23819481173E+02 -0.96618902408E+01  0.47901691311E+01  0.26146998425E+02  0.00000000000E+00 0.  1.
</event>
<event>
 7    1  0.2438448E-008  0.4614232E+02  0.7816164E-02  0.1320468E+00
        -11   -1    0    0    0    0  0.00000000000E+00  0.00000000000E+00  0.45593999997E+02  0.45594000000E+02  0.51100000000E-03 0. -1.
         11   -1    0    0    0    0 -0.00000000000E+00 -0.00000000000E+00 -0.45593999997E+02  0.45594000000E+02  0.51100000000E-03 0.  1.
    9900012    2    1    2    0    0 -0.13704825248E+02  0.68843088068E+01 -0.42354426778E+02  0.46142318625E+02  0.10000007880E+02 0.  0.
         12    1    1    2    0    0  0.13704825248E+02 -0.68843088068E+01  0.42354426778E+02  0.45045681375E+02  0.00000000000E+00 0. -1.
         11    1    3    3    0    0 -0.75960369947E+00  0.17052252841E+01 -0.10144537291E+01  0.21245958861E+01  0.51100000000E-03 0. -1.
        -11    1    3    3    0    0 -0.24754779206E+01  0.32599617289E+01 -0.75148086124E+01  0.85573179298E+01  0.51100000000E-03 0.  1.
         12    1    3    3    0    0 -0.10469743628E+02  0.19191217939E+01 -0.33825164436E+02  0.35460404809E+02  0.00000000000E+00 0. -1.
</event>
<event>
 7    1  0.2438448E-008  0.4614232E+02  0.7816164E-02  0.1320468E+00
        -11   -1    0    0    0    0  0.00000000000E+00  0.00000000000E+00  0.45593999997E+02  0.45594000000E+02  0.51100000000E-03 0.  1.
         11   -1    0    0    0    0 -0.00000000000E+00 -0.00000000000E+00 -0.45593999997E+02  0.45594000000E+02  0.51100000000E-03 0. -1.
    9900012    2    1    2    0    0 -0.36382475495E+02 -0.23055509222E+02  0.13186067505E+02  0.46142318688E+02  0.10000008452E+02 0.  0.
         12    1    1    2    0    0  0.36382475495E+02  0.23055509222E+02 -0.13186067505E+02  0.45045681312E+02  0.00000000000E+00 0. -1.
         11    1    3    3    0    0 -0.10029196773E+02 -0.60088075036E+01  0.66106598282E+01  0.13430985785E+02  0.51100000000E-03 0. -1.
        -11    1    3    3    0    0 -0.13783602751E+02 -0.61590712625E+01  0.54248866472E+01  0.16042171269E+02  0.51100000000E-03 0.  1.
         12    1    3    3    0    0 -0.12569675970E+02 -0.10887630456E+02  0.11505210294E+01  0.16669161634E+02  0.00000000000E+00 0. -1.
</event>
<event>
 7    1  0.2438448E-008  0.4614232E+02  0.7816164E-02  0.1320468E+00
        -11   -1    0    0    0    0  0.00000000000E+00  0.00000000000E+00  0.45593999997E+02  0.45594000000E+02  0.51100000000E-03 0.  1.
         11   -1    0    0    0    0 -0.00000000000E+00 -0.00000000000E+00 -0.45593999997E+02  0.45594000000E+02  0.51100000000E-03 0. -1.
    9900012    2    1    2    0    0 -0.23824832728E+02  0.71318612112E+00  0.38222797225E+02  0.46142317447E+02  0.99999971393E+01 0.  0.
         12    1    1    2    0    0  0.23824832728E+02 -0.71318612112E+00 -0.38222797225E+02  0.45045682553E+02  0.00000000000E+00 0. -1.
         11    1    3    3    0    0 -0.12123937825E+01 -0.19286349122E+01  0.65912615561E+01  0.69738268168E+01  0.51100000000E-03 0. -1.
        -11    1    3    3    0    0 -0.12782826473E+01  0.31314625473E+00  0.61874489486E+00  0.14542739114E+01  0.51100000000E-03 0.  1.
         12    1    3    3    0    0 -0.21334156298E+02  0.23286747786E+01  0.31012790774E+02  0.37714216719E+02  0.00000000000E+00 0. -1.
</event>
<event>
 7    1  0.2438448E-008  0.4614232E+02  0.7816164E-02  0.1320468E+00
        -11   -1    0    0    0    0  0.00000000000E+00  0.00000000000E+00  0.45593999997E+02  0.45594000000E+02  0.51100000000E-03 0.  1.
         11   -1    0    0    0    0 -0.00000000000E+00 -0.00000000000E+00 -0.45593999997E+02  0.45594000000E+02  0.51100000000E-03 0. -1.
    9900012    2    1    2    0    0  0.59106675050E+01  0.31745724061E+02  0.31406787679E+02  0.46142319865E+02  0.10000019188E+02 0.  0.
         12    1    1    2    0    0 -0.59106675050E+01 -0.31745724061E+02 -0.31406787679E+02  0.45045680135E+02  0.00000000000E+00 0. -1.
         11    1    3    3    0    0  0.10867989880E-01 -0.52597837349E+00  0.84360489985E+00  0.99420362640E+00  0.51100000000E-03 0. -1.
        -11    1    3    3    0    0  0.31684027968E+00 -0.11913227871E+00  0.50473179982E+00  0.60772914488E+00  0.51100000000E-03 0.  1.
        -12    1    3    3    0    0  0.55829592354E+01  0.32390834713E+02  0.30058450979E+02  0.44540387094E+02  0.00000000000E+00 0.  1.
</event>
<event>
 7    1  0.2438448E-008  0.4614232E+02  0.7816164E-02  0.1320468E+00
        -11   -1    0    0    0    0  0.00000000000E+00  0.00000000000E+00  0.45593999997E+02  0.45594000000E+02  0.51100000000E-03 0.  1.
         11   -1    0    0    0    0 -0.00000000000E+00 -0.00000000000E+00 -0.45593999997E+02  0.45594000000E+02  0.51100000000E-03 0. -1.
    9900012    2    1    2    0    0 -0.23736595947E+02  0.36610633706E+02  0.11195933516E+02  0.46142318578E+02  0.10000007448E+02 0.  0.
         12    1    1    2    0    0  0.23736595947E+02 -0.36610633706E+02 -0.11195933516E+02  0.45045681422E+02  0.00000000000E+00 0. -1.
         11    1    3    3    0    0 -0.15675552673E+02  0.18874666039E+02  0.83070574312E+01  0.25903342895E+02  0.51100000000E-03 0. -1.
        -11    1    3    3    0    0 -0.68393408623E+01  0.12413292913E+02  0.38673918902E+01  0.14690920484E+02  0.51100000000E-03 0.  1.
         12    1    3    3    0    0 -0.12217024120E+01  0.53226747531E+01 -0.97851580498E+00  0.55480551990E+01  0.00000000000E+00 0. -1.
</event>
<event>
 7    1  0.2438448E-008  0.4614232E+02  0.7816164E-02  0.1320468E+00
        -11   -1    0    0    0    0  0.00000000000E+00  0.00000000000E+00  0.45593999997E+02  0.45594000000E+02  0.51100000000E-03 0. -1.
         11   -1    0    0    0    0 -0.00000000000E+00 -0.00000000000E+00 -0.45593999997E+02  0.45594000000E+02  0.51100000000E-03 0.  1.
    9900012    2    1    2    0    0 -0.36380035416E+02 -0.12973011974E+01 -0.26531557371E+02  0.46142317590E+02  0.99999984358E+01 0.  0.
         12    1    1    2    0    0  0.36380035416E+02  0.12973011974E+01  0.26531557371E+02  0.45045682410E+02  0.00000000000E+00 0. -1.
         11    1    3    3    0    0 -0.13817443537E+02  0.17925949696E+00 -0.11453838916E+02  0.17948378925E+02  0.51100000000E-03 0. -1.
        -11    1    3    3    0    0 -0.22738106217E+02 -0.24158159817E+01 -0.14401245552E+02  0.27023203269E+02  0.51100000000E-03 0.  1.
         12    1    3    3    0    0  0.17551433804E+00  0.93925528728E+00 -0.67647290377E+00  0.11707353958E+01  0.00000000000E+00 0. -1.
</event>
<event>
 7    1  0.2438448E-008  0.4614232E+02  0.7816164E-02  0.1320468E+00
        -11   -1    0    0    0    0  0.00000000000E+00  0.00000000000E+00  0.45593999997E+02  0.45594000000E+02  0.51100000000E-03 0.  1.
         11   -1    0    0    0    0 -0.00000000000E+00 -0.00000000000E+00 -0.45593999997E+02  0.45594000000E+02  0.51100000000E-03 0. -1.
    9900012    2    1    2    0    0  0.30395216388E+02  0.25062416167E+02  0.21843067900E+02  0.46142317647E+02  0.99999989556E+01 0.  0.
         12    1    1    2    0    0 -0.30395216388E+02 -0.25062416167E+02 -0.21843067900E+02  0.45045682353E+02  0.00000000000E+00 0. -1.
         11    1    3    3    0    0  0.56338525701E+01  0.46880033626E+01  0.38239956248E+01  0.82668381567E+01  0.51100000000E-03 0. -1.
        -11    1    3    3    0    0  0.12384707756E+02  0.50263651038E+01  0.51128690638E+01  0.14310372555E+02  0.51100000000E-03 0.  1.
         12    1    3    3    0    0  0.12376656062E+02  0.15348047700E+02  0.12906203211E+02  0.23565106934E+02  0.00000000000E+00 0. -1.
</event>
<event>
 7    1  0.2438448E-008  0.4614232E+02  0.7816164E-02  0.1320468E+00
        -11   -1    0    0    0    0  0.00000000000E+00  0.00000000000E+00  0.45593999997E+02  0.45594000000E+02  0.51100000000E-03 0.  1.
         11   -1    0    0    0    0 -0.00000000000E+00 -0.00000000000E+00 -0.45593999997E+02  0.45594000000E+02  0.51100000000E-03 0. -1.
    9900012    2    1    2    0    0 -0.38407563064E+01  0.31330487902E+02  0.32136624751E+02  0.46142317281E+02  0.99999956226E+01 0.  0.
         12    1    1    2    0    0  0.38407563064E+01 -0.31330487902E+02 -0.32136624751E+02  0.45045682719E+02  0.00000000000E+00 0. -1.
         11    1    3    3    0    0 -0.48585474975E+01  0.20584617769E+02  0.22209411658E+02  0.30669038768E+02  0.51100000000E-03 0. -1.
        -11    1    3    3    0    0 -0.13446692959E+01  0.83994395796E+01  0.76403759531E+01  0.11433899848E+02  0.51100000000E-03 0.  1.
         12    1    3    3    0    0  0.23624604870E+01  0.23464305539E+01  0.22868371402E+01  0.40393786655E+01  0.00000000000E+00 0. -1.
</event>
<event>
 7    1  0.2438448E-008  0.4614232E+02  0.7816164E-02  0.1320468E+00
        -11   -1    0    0    0    0  0.00000000000E+00  0.00000000000E+00  0.45593999997E+02  0.45594000000E+02  0.51100000000E-03 0. -1.
         11   -1    0    0    0    0 -0.00000000000E+00 -0.00000000000E+00 -0.45593999997E+02  0.45594000000E+02  0.51100000000E-03 0.  1.
    9900012    2    1    2    0    0  0.11222472584E+02  0.37159350425E+02 -0.22855026644E+02  0.46142318101E+02  0.10000003099E+02 0.  0.
         12    1    1    2    0    0 -0.11222472584E+02 -0.37159350425E+02  0.22855026644E+02  0.45045681899E+02  0.00000000000E+00 0. -1.
         11    1    3    3    0    0  0.16723591166E+01  0.85919812875E+01 -0.73976346723E+01  0.11460537791E+02  0.51100000000E-03 0. -1.
        -11    1    3    3    0    0  0.20224652450E+01  0.17122696897E+02 -0.10033703699E+02  0.19948742438E+02  0.51100000000E-03 0.  1.
         12    1    3    3    0    0  0.75276482220E+01  0.11444672240E+02 -0.54236882723E+01  0.14733037871E+02  0.00000000000E+00 0. -1.
</event>
<event>
 7    1  0.2438448E-008  0.4614232E+02  0.7816164E-02  0.1320468E+00
        -11   -1    0    0    0    0  0.00000000000E+00  0.00000000000E+00  0.45593999997E+02  0.45594000000E+02  0.51100000000E-03 0. -1.
         11   -1    0    0    0    0 -0.00000000000E+00 -0.00000000000E+00 -0.45593999997E+02  0.45594000000E+02  0.51100000000E-03 0.  1.
    9900012    2    1    2    0    0  0.47239011541E+01 -0.44789335926E+02 -0.84480017819E+00  0.46142317164E+02  0.99999945579E+01 0.  0.
         12    1    1    2    0    0 -0.47239011541E+01  0.44789335926E+02  0.84480017819E+00  0.45045682836E+02  0.00000000000E+00 0. -1.
         11    1    3    3    0    0  0.25121500051E+01 -0.10233791850E+02 -0.24351921217E+01  0.10815338839E+02  0.51100000000E-03 0. -1.
        -11    1    3    3    0    0  0.35059485473E+01 -0.83825433184E+01  0.40924877931E+00  0.90953940281E+01  0.51100000000E-03 0.  1.
        -12    1    3    3    0    0 -0.12941973983E+01 -0.26173000758E+02  0.11811431642E+01  0.26231584297E+02  0.00000000000E+00 0.  1.
</event>
<event>
 7    1  0.2438448E-008  0.4614232E+02  0.7816164E-02  0.1320468E+00
        -11   -1    0    0    0    0  0.00000000000E+00  0.00000000000E+00  0.45593999997E+02  0.45594000000E+02  0.51100000000E-03 0.  1.
         11   -1    0    0    0    0 -0.00000000000E+00 -0.00000000000E+00 -0.45593999997E+02  0.45594000000E+02  0.51100000000E-03 0. -1.
    9900012    2    1    2    0    0  0.15769873538E+02  0.38207954949E+02  0.17904657713E+02  0.46142317626E+02  0.99999987638E+01 0.  0.
         12    1    1    2    0    0 -0.15769873538E+02 -0.38207954949E+02 -0.17904657713E+02  0.45045682374E+02  0.00000000000E+00 0. -1.
         11    1    3    3    0    0 -0.43716157887E+00  0.41141594436E+01  0.27796493396E+01  0.49843624352E+01  0.51100000000E-03 0. -1.
        -11    1    3    3    0    0 -0.23246693359E+00  0.38313324328E+01  0.15638727365E+01  0.41447372997E+01  0.51100000000E-03 0.  1.
        -12    1    3    3    0    0  0.16439502050E+02  0.30262463072E+02  0.13561135637E+02  0.37013217891E+02  0.00000000000E+00 0.  1.
</event>
<event>
 7    1  0.2438448E-008  0.4614232E+02  0.7816164E-02  0.1320468E+00
        -11   -1    0    0    0    0  0.00000000000E+00  0.00000000000E+00  0.45593999997E+02  0.45594000000E+02  0.51100000000E-03 0.  1.
         11   -1    0    0    0    0 -0.00000000000E+00 -0.00000000000E+00 -0.45593999997E+02  0.45594000000E+02  0.51100000000E-03 0. -1.
    9900012    2    1    2    0    0  0.13867274909E+02 -0.10823740848E+02  0.41468769307E+02  0.46142317552E+02  0.99999980933E+01 0.  0.
         12    1    1    2    0    0 -0.13867274909E+02  0.10823740848E+02 -0.41468769307E+02  0.45045682448E+02  0.00000000000E+00 0. -1.
         11    1    3    3    0    0  0.77553676408E+01 -0.31162993329E+01  0.15713922808E+02  0.17798438669E+02  0.51100000000E-03 0. -1.
        -11    1    3    3    0    0  0.45795007675E+01 -0.88443509195E+00  0.12780531608E+02  0.13605000594E+02  0.51100000000E-03 0.  1.
        -12    1    3    3    0    0  0.15324065010E+01 -0.68230064227E+01  0.12974314892E+02  0.14738878290E+02  0.00000000000E+00 0.  1.
</event>
<event>
 7    1  0.2438448E-008  0.4614232E+02  0.7816164E-02  0.1320468E+00
        -11   -1    0    0    0    0  0.00000000000E+00  0.00000000000E+00  0.45593999997E+02  0.45594000000E+02  0.51100000000E-03 0.  1.
         11   -1    0    0    0    0 -0.00000000000E+00 -0.00000000000E+00 -0.45593999997E+02  0.45594000000E+02  0.51100000000E-03 0. -1.
    9900012    2    1    2    0    0 -0.20902873009E+02  0.14908955344E+02  0.37012247002E+02  0.46142317880E+02  0.10000001087E+02 0.  0.
         12    1    1    2    0    0  0.20902873009E+02 -0.14908955344E+02 -0.37012247002E+02  0.45045682120E+02  0.00000000000E+00 0. -1.
         11    1    3    3    0    0 -0.26471686551E+01 -0.11928189291E+01  0.31952105701E+01  0.43173706969E+01  0.51100000000E-03 0. -1.
        -11    1    3    3    0    0 -0.12149698370E+02  0.85315418231E+01  0.19256340109E+02  0.24314789964E+02  0.51100000000E-03 0.  1.
         12    1    3    3    0    0 -0.61060059846E+01  0.75702324505E+01  0.14560696323E+02  0.17510157219E+02  0.00000000000E+00 0. -1.
</event>
<event>
 7    1  0.2438448E-008  0.4614232E+02  0.7816164E-02  0.1320468E+00
        -11   -1    0    0    0    0  0.00000000000E+00  0.00000000000E+00  0.45593999997E+02  0.45594000000E+02  0.51100000000E-03 0.  1.
         11   -1    0    0    0    0 -0.00000000000E+00 -0.00000000000E+00 -0.45593999997E+02  0.45594000000E+02  0.51100000000E-03 0. -1.
    9900012    2    1    2    0    0 -0.11307450752E+02 -0.14575416931E+02  0.41095161527E+02  0.46142317386E+02  0.99999965808E+01 0.  0.
         12    1    1    2    0    0  0.11307450752E+02  0.14575416931E+02 -0.41095161527E+02  0.45045682614E+02  0.00000000000E+00 0. -1.
         11    1    3    3    0    0 -0.10201980555E+02 -0.11975654688E+02  0.27796885059E+02  0.31939998931E+02  0.51100000000E-03 0. -1.
        -11    1    3    3    0    0 -0.18814954617E+01 -0.53170101988E+00  0.10267649955E+02  0.10452146527E+02  0.51100000000E-03 0.  1.
         12    1    3    3    0    0  0.77602526544E+00 -0.20680612231E+01  0.30306265125E+01  0.37501719285E+01  0.00000000000E+00 0. -1.
</event>
<event>
 7    1  0.2438448E-008  0.4614232E+02  0.7816164E-02  0.1320468E+00
        -11   -1    0    0    0    0  0.00000000000E+00  0.00000000000E+00  0.45593999997E+02  0.45594000000E+02  0.51100000000E-03 0.  1.
         11   -1    0    0    0    0 -0.00000000000E+00 -0.00000000000E+00 -0.45593999997E+02  0.45594000000E+02  0.51100000000E-03 0. -1.
    9900012    2    1    2    0    0  0.60666229050E+01 -0.26069073423E+02  0.36231383433E+02  0.46142315988E+02  0.99999838348E+01 0.  0.
         12    1    1    2    0    0 -0.60666229050E+01  0.26069073423E+02 -0.36231383433E+02  0.45045684012E+02  0.00000000000E+00 0. -1.
         11    1    3    3    0    0  0.39755311093E+01 -0.77602404949E+01  0.15235459460E+02  0.17554070906E+02  0.51100000000E-03 0. -1.
        -11    1    3    3    0    0  0.16845935100E+01 -0.17832865538E+02  0.21350225640E+02  0.27868998614E+02  0.51100000000E-03 0.  1.
         12    1    3    3    0    0  0.40649828563E+00 -0.47596738972E+00 -0.35430166668E+00  0.71924646910E+00  0.00000000000E+00 0. -1.
</event>
<event>
 7    1  0.2438448E-008  0.4614232E+02  0.7816164E-02  0.1320468E+00
        -11   -1    0    0    0    0  0.00000000000E+00  0.00000000000E+00  0.45593999997E+02  0.45594000000E+02  0.51100000000E-03 0.  1.
         11   -1    0    0    0    0 -0.00000000000E+00 -0.00000000000E+00 -0.45593999997E+02  0.45594000000E+02  0.51100000000E-03 0. -1.
    9900012    2    1    2    0    0 -0.33075588161E+02  0.30577557854E+02 -0.36317330807E+00  0.46142317950E+02  0.10000001721E+02 0.  0.
         12    1    1    2    0    0  0.33075588161E+02 -0.30577557854E+02  0.36317330807E+00  0.45045682050E+02  0.00000000000E+00 0. -1.
         11    1    3    3    0    0 -0.33762388159E+01  0.24578716990E+01  0.18406705911E+01  0.45637912219E+01  0.51100000000E-03 0. -1.
        -11    1    3    3    0    0 -0.14984288392E+02  0.11683586914E+02  0.20505726249E+01  0.19111251925E+02  0.51100000000E-03 0.  1.
         12    1    3    3    0    0 -0.14715060953E+02  0.16436099241E+02 -0.42544165240E+01  0.22467274803E+02  0.00000000000E+00 0. -1.
</event>
<event>
 7    1  0.2438448E-008  0.4614232E+02  0.7816164E-02  0.1320468E+00
        -11   -1    0    0    0    0  0.00000000000E+00  0.00000000000E+00  0.45593999997E+02  0.45594000000E+02  0.51100000000E-03 0.  1.
         11   -1    0    0    0    0 -0.00000000000E+00 -0.00000000000E+00 -0.45593999997E+02  0.45594000000E+02  0.51100000000E-03 0. -1.
    9900012    2    1    2    0    0 -0.23816933702E+02 -0.11073436682E+02  0.36595709583E+02  0.46142319954E+02  0.10000019994E+02 0.  0.
         12    1    1    2    0    0  0.23816933702E+02  0.11073436682E+02 -0.36595709583E+02  0.45045680046E+02  0.00000000000E+00 0. -1.
         11    1    3    3    0    0 -0.25750002252E+01 -0.37910050421E+01  0.67832313516E+01  0.81862429245E+01  0.51100000000E-03 0. -1.
        -11    1    3    3    0    0 -0.10781726529E+02 -0.64865591795E+01  0.12655409115E+02  0.17846020763E+02  0.51100000000E-03 0.  1.
         12    1    3    3    0    0 -0.10460206947E+02 -0.79587246079E+00  0.17157069116E+02  0.20110056266E+02  0.00000000000E+00 0. -1.
</event>
<event>
 7    1  0.2438448E-008  0.4614232E+02  0.7816164E-02  0.1320468E+00
        -11   -1    0    0    0    0  0.00000000000E+00  0.00000000000E+00  0.45593999997E+02  0.45594000000E+02  0.51100000000E-03 0.  1.
         11   -1    0    0    0    0 -0.00000000000E+00 -0.00000000000E+00 -0.45593999997E+02  0.45594000000E+02  0.51100000000E-03 0. -1.
    9900012    2    1    2    0    0 -0.50597649490E+01  0.41474358445E+02 -0.16834185620E+02  0.46142318350E+02  0.10000005372E+02 0.  0.
         12    1    1    2    0    0  0.50597649490E+01 -0.41474358445E+02  0.16834185620E+02  0.45045681650E+02  0.00000000000E+00 0. -1.
         11    1    3    3    0    0 -0.51556214007E+01  0.18621840377E+02 -0.10319954309E+02  0.21905588973E+02  0.51100000000E-03 0. -1.
        -11    1    3    3    0    0 -0.42555680982E+00  0.20105196376E+02 -0.71960494719E+01  0.21358444423E+02  0.51100000000E-03 0.  1.
         12    1    3    3    0    0  0.52141326146E+00  0.27473216927E+01  0.68181816090E+00  0.28782849541E+01  0.00000000000E+00 0. -1.
</event>
<event>
 7    1  0.2438448E-008  0.4614232E+02  0.7816164E-02  0.1320468E+00
        -11   -1    0    0    0    0  0.00000000000E+00  0.00000000000E+00  0.45593999997E+02  0.45594000000E+02  0.51100000000E-03 0. -1.
         11   -1    0    0    0    0 -0.00000000000E+00 -0.00000000000E+00 -0.45593999997E+02  0.45594000000E+02  0.51100000000E-03 0.  1.
    9900012    2    1    2    0    0 -0.76856866569E+00  0.33245201248E+02 -0.30385511230E+02  0.46142318781E+02  0.10000009297E+02 0.  0.
         12    1    1    2    0    0  0.76856866569E+00 -0.33245201248E+02  0.30385511230E+02  0.45045681219E+02  0.00000000000E+00 0. -1.
         11    1    3    3    0    0 -0.19209185799E+00 -0.54119298715E-01  0.35966541727E+00  0.41132426855E+00  0.51100000000E-03 0. -1.
        -11    1    3    3    0    0 -0.30228530101E+01  0.10828904254E+02 -0.10664952130E+02  0.15496580651E+02  0.51100000000E-03 0.  1.
        -12    1    3    3    0    0  0.24463762024E+01  0.22470416292E+02 -0.20080224517E+02  0.30234413861E+02  0.00000000000E+00 0.  1.
</event>
<event>
 7    1  0.2438448E-008  0.4614232E+02  0.7816164E-02  0.1320468E+00
        -11   -1    0    0    0    0  0.00000000000E+00  0.00000000000E+00  0.45593999997E+02  0.45594000000E+02  0.51100000000E-03 0.  1.
         11   -1    0    0    0    0 -0.00000000000E+00 -0.00000000000E+00 -0.45593999997E+02  0.45594000000E+02  0.51100000000E-03 0. -1.
    9900012    2    1    2    0    0  0.44419284166E+02  0.83234838153E+00  0.74396173716E+01  0.46142317451E+02  0.99999971743E+01 0.  0.
         12    1    1    2    0    0 -0.44419284166E+02 -0.83234838153E+00 -0.74396173716E+01  0.45045682549E+02  0.00000000000E+00 0. -1.
         11    1    3    3    0    0  0.11484112791E+02 -0.30033788975E+01  0.38745269841E+01  0.12486676539E+02  0.51100000000E-03 0. -1.
        -11    1    3    3    0    0  0.13933136001E+02 -0.28849663685E+00  0.26771068072E+01  0.14190927039E+02  0.51100000000E-03 0.  1.
         12    1    3    3    0    0  0.19002035375E+02  0.41242239159E+01  0.88798358034E+00  0.19464713872E+02  0.00000000000E+00 0. -1.
</event>
<event>
 7    1  0.2438448E-008  0.4614232E+02  0.7816164E-02  0.1320468E+00
        -11   -1    0    0    0    0  0.00000000000E+00  0.00000000000E+00  0.45593999997E+02  0.45594000000E+02  0.51100000000E-03 0.  1.
         11   -1    0    0    0    0 -0.00000000000E+00 -0.00000000000E+00 -0.45593999997E+02  0.45594000000E+02  0.51100000000E-03 0. -1.
    9900012    2    1    2    0    0  0.19886582214E+02 -0.64989528662E+01  0.39892367187E+02  0.46142317629E+02  0.99999987941E+01 0.  0.
         12    1    1    2    0    0 -0.19886582214E+02  0.64989528662E+01 -0.39892367187E+02  0.45045682371E+02  0.00000000000E+00 0. -1.
         11    1    3    3    0    0 -0.16252607954E+00 -0.50950457021E+00  0.27289985608E+00  0.60040338621E+00  0.51100000000E-03 0. -1.
        -11    1    3    3    0    0  0.85505820300E+01 -0.66842988480E+01  0.17242050648E+02  0.20373527307E+02  0.51100000000E-03 0.  1.
        -12    1    3    3    0    0  0.11498526263E+02  0.69485055199E+00  0.22377416683E+02  0.25168386935E+02  0.00000000000E+00 0.  1.
</event>
<event>
 7    1  0.2438448E-008  0.4614232E+02  0.7816164E-02  0.1320468E+00
        -11   -1    0    0    0    0  0.00000000000E+00  0.00000000000E+00  0.45593999997E+02  0.45594000000E+02  0.51100000000E-03 0.  1.
         11   -1    0    0    0    0 -0.00000000000E+00 -0.00000000000E+00 -0.45593999997E+02  0.45594000000E+02  0.51100000000E-03 0. -1.
    9900012    2    1    2    0    0 -0.30481479111E+02 -0.89933017558E+01  0.31923557295E+02  0.46142317015E+02  0.99999931922E+01 0.  0.
         12    1    1    2    0    0  0.30481479111E+02  0.89933017558E+01 -0.31923557295E+02  0.45045682985E+02  0.00000000000E+00 0. -1.
         11    1    3    3    0    0 -0.62067106963E+01  0.72880131939E+00  0.38538324814E+01  0.73421001142E+01  0.51100000000E-03 0. -1.
        -11    1    3    3    0    0 -0.26610048795E+01 -0.32422741455E+01  0.37698926232E+01  0.56396258080E+01  0.51100000000E-03 0.  1.
        -12    1    3    3    0    0 -0.21613763535E+02 -0.64798289297E+01  0.24299832190E+02  0.33160591092E+02  0.00000000000E+00 0.  1.
</event>
<event>
 7    1  0.2438448E-008  0.4614232E+02  0.7816164E-02  0.1320468E+00
        -11   -1    0    0    0    0  0.00000000000E+00  0.00000000000E+00  0.45593999997E+02  0.45594000000E+02  0.51100000000E-03 0. -1.
         11   -1    0    0    0    0 -0.00000000000E+00 -0.00000000000E+00 -0.45593999997E+02  0.45594000000E+02  0.51100000000E-03 0.  1.
    9900012    2    1    2    0    0 -0.86686949619E+01  0.68951783367E+01 -0.43662608001E+02  0.46142322137E+02  0.10000039904E+02 0.  0.
         12    1    1    2    0    0  0.86686949619E+01 -0.68951783367E+01  0.43662608001E+02  0.45045677863E+02  0.00000000000E+00 0. -1.
         11    1    3    3    0    0  0.26194650560E+00  0.38931401991E+00 -0.13718883011E+02  0.13726905430E+02  0.51100000000E-03 0. -1.
        -11    1    3    3    0    0 -0.47950139581E+01  0.78618490560E+00 -0.79545426586E+01  0.93212120849E+01  0.51100000000E-03 0.  1.
        -12    1    3    3    0    0 -0.41356275094E+01  0.57196794112E+01 -0.21989182332E+02  0.23094204622E+02  0.00000000000E+00 0.  1.
</event>
<event>
 7    1  0.2438448E-008  0.4614232E+02  0.7816164E-02  0.1320468E+00
        -11   -1    0    0    0    0  0.00000000000E+00  0.00000000000E+00  0.45593999997E+02  0.45594000000E+02  0.51100000000E-03 0.  1.
         11   -1    0    0    0    0 -0.00000000000E+00 -0.00000000000E+00 -0.45593999997E+02  0.45594000000E+02  0.51100000000E-03 0. -1.
    9900012    2    1    2    0    0 -0.37616453028E+02  0.19504555753E+02  0.15286865535E+02  0.46142317727E+02  0.99999996876E+01 0.  0.
         12    1    1    2    0    0  0.37616453028E+02 -0.19504555753E+02 -0.15286865535E+02  0.45045682273E+02  0.00000000000E+00 0. -1.
         11    1    3    3    0    0 -0.59628226495E+01  0.36626595142E+01 -0.33712489978E+00  0.70059961551E+01  0.51100000000E-03 0. -1.
        -11    1    3    3    0    0 -0.97099679535E+01  0.76769722492E+01  0.40925201414E+01  0.13037181518E+02  0.51100000000E-03 0.  1.
         12    1    3    3    0    0 -0.21943662425E+02  0.81649239900E+01  0.11531470294E+02  0.26099140053E+02  0.00000000000E+00 0. -1.
</event>
<event>
 7    1  0.2438448E-008  0.4614232E+02  0.7816164E-02  0.1320468E+00
        -11   -1    0    0    0    0  0.00000000000E+00  0.00000000000E+00  0.45593999997E+02  0.45594000000E+02  0.51100000000E-03 0. -1.
         11   -1    0    0    0    0 -0.00000000000E+00 -0.00000000000E+00 -0.45593999997E+02  0.45594000000E+02  0.51100000000E-03 0.  1.
    9900012    2    1    2    0    0 -0.24123119965E+02  0.25226652916E+02 -0.28474629611E+02  0.46142318013E+02  0.10000002297E+02 0.  0.
         12    1    1    2    0    0  0.24123119965E+02 -0.25226652916E+02  0.28474629611E+02  0.45045681987E+02  0.00000000000E+00 0. -1.
         11    1    3    3    0    0 -0.10015658117E+02  0.58100739617E+01 -0.66454703895E+01  0.13350379917E+02  0.51100000000E-03 0. -1.
        -11    1    3    3    0    0 -0.13051748709E+02  0.17453040126E+02 -0.17606373734E+02  0.28016801215E+02  0.51100000000E-03 0.  1.
        -12    1    3    3    0    0 -0.10557131391E+01  0.19635388281E+01 -0.42227854877E+01  0.47751368815E+01  0.00000000000E+00 0.  1.
</event>
<event>
 7    1  0.2438448E-008  0.4614233E+02  0.7816164E-02  0.1320468E+00
        -11   -1    0    0    0    0  0.00000000000E+00  0.00000000000E+00  0.45593999997E+02  0.45594000000E+02  0.51100000000E-03 0. -1.
         11   -1    0    0    0    0 -0.00000000000E+00 -0.00000000000E+00 -0.45593999997E+02  0.45594000000E+02  0.51100000000E-03 0.  1.
    9900012    2    1    2    0    0  0.38311483706E+02  0.20872207702E+02 -0.11211302683E+02  0.46142332661E+02  0.10000135872E+02 0.  0.
         12    1    1    2    0    0 -0.38311483706E+02 -0.20872207702E+02  0.11211302683E+02  0.45045667339E+02  0.00000000000E+00 0. -1.
         11    1    3    3    0    0  0.18626794909E+01  0.35915108817E+00  0.40561039285E+00  0.19398671196E+01  0.51100000000E-03 0. -1.
        -11    1    3    3    0    0  0.31592807830E+01  0.42923031089E+01  0.19476768899E+00  0.53331843919E+01  0.51100000000E-03 0.  1.
        -12    1    3    3    0    0  0.33289523432E+02  0.16220753505E+02 -0.11811680765E+02  0.38869281150E+02  0.00000000000E+00 0.  1.
</event>
<event>
 7    1  0.2438448E-008  0.4614231E+02  0.7816164E-02  0.1320468E+00
        -11   -1    0    0    0    0  0.00000000000E+00  0.00000000000E+00  0.45593999997E+02  0.45594000000E+02  0.51100000000E-03 0.  1.
         11   -1    0    0    0    0 -0.00000000000E+00 -0.00000000000E+00 -0.45593999997E+02  0.45594000000E+02  0.51100000000E-03 0. -1.
    9900012    2    1    2    0    0 -0.33343431889E+01  0.19423556791E+02  0.40505819953E+02  0.46142313714E+02  0.99999630961E+01 0.  0.
         12    1    1    2    0    0  0.33343431889E+01 -0.19423556791E+02 -0.40505819953E+02  0.45045686286E+02  0.00000000000E+00 0. -1.
         11    1    3    3    0    0 -0.52867151491E+01  0.10666050047E+02  0.16023321901E+02  0.19961483554E+02  0.51100000000E-03 0. -1.
        -11    1    3    3    0    0  0.86609088860E-01  0.53778220560E+01  0.13085210233E+02  0.14147480281E+02  0.51100000000E-03 0.  1.
         12    1    3    3    0    0  0.18657628714E+01  0.33796846878E+01  0.11397287820E+02  0.12033349880E+02  0.00000000000E+00 0. -1.
</event>
<event>
 7    1  0.2438448E-008  0.4614232E+02  0.7816164E-02  0.1320468E+00
        -11   -1    0    0    0    0  0.00000000000E+00  0.00000000000E+00  0.45593999997E+02  0.45594000000E+02  0.51100000000E-03 0.  1.
         11   -1    0    0    0    0 -0.00000000000E+00 -0.00000000000E+00 -0.45593999997E+02  0.45594000000E+02  0.51100000000E-03 0. -1.
    9900012    2    1    2    0    0 -0.31534180418E+02  0.24457084132E+02  0.20894019214E+02  0.46142317212E+02  0.99999949922E+01 0.  0.
         12    1    1    2    0    0  0.31534180418E+02 -0.24457084132E+02 -0.20894019214E+02  0.45045682788E+02  0.00000000000E+00 0. -1.
         11    1    3    3    0    0 -0.17260093169E+02  0.12079199601E+02  0.11474228515E+02  0.23989076670E+02  0.51100000000E-03 0. -1.
        -11    1    3    3    0    0 -0.13712275224E+02  0.12966261783E+02  0.97891754025E+01  0.21259783436E+02  0.51100000000E-03 0.  1.
        -12    1    3    3    0    0 -0.56181202579E+00 -0.58837725099E+00 -0.36938470301E+00  0.89345710620E+00  0.00000000000E+00 0.  1.
</event>
<event>
 7    1  0.2438448E-008  0.4614232E+02  0.7816164E-02  0.1320468E+00
        -11   -1    0    0    0    0  0.00000000000E+00  0.00000000000E+00  0.45593999997E+02  0.45594000000E+02  0.51100000000E-03 0. -1.
         11   -1    0    0    0    0 -0.00000000000E+00 -0.00000000000E+00 -0.45593999997E+02  0.45594000000E+02  0.51100000000E-03 0.  1.
    9900012    2    1    2    0    0 -0.30324338413E+02  0.27373861604E+02 -0.18979457962E+02  0.46142316258E+02  0.99999862914E+01 0.  0.
         12    1    1    2    0    0  0.30324338413E+02 -0.27373861604E+02  0.18979457962E+02  0.45045683742E+02  0.00000000000E+00 0. -1.
         11    1    3    3    0    0 -0.69634516734E+00  0.27277951188E+01 -0.82071383479E+00  0.29324621501E+01  0.51100000000E-03 0. -1.
        -11    1    3    3    0    0 -0.16228791142E+02  0.13152461368E+02 -0.58630056963E+01  0.21696445285E+02  0.51100000000E-03 0.  1.
        -12    1    3    3    0    0 -0.13399202104E+02  0.11493605117E+02 -0.12295738431E+02  0.21513408822E+02  0.00000000000E+00 0.  1.
</event>
<event>
 7    1  0.2438448E-008  0.4614232E+02  0.7816164E-02  0.1320468E+00
        -11   -1    0    0    0    0  0.00000000000E+00  0.00000000000E+00  0.45593999997E+02  0.45594000000E+02  0.51100000000E-03 0.  1.
         11   -1    0    0    0    0 -0.00000000000E+00 -0.00000000000E+00 -0.45593999997E+02  0.45594000000E+02  0.51100000000E-03 0. -1.
    9900012    2    1    2    0    0 -0.32891809179E+02 -0.20577056485E+02  0.22887268534E+02  0.46142318458E+02  0.10000006354E+02 0.  0.
         12    1    1    2    0    0  0.32891809179E+02  0.20577056485E+02 -0.22887268534E+02  0.45045681542E+02  0.00000000000E+00 0. -1.
         11    1    3    3    0    0 -0.36767420850E+01 -0.40394767278E+01  0.24898791667E+01  0.60029412058E+01  0.51100000000E-03 0. -1.
        -11    1    3    3    0    0 -0.28495691634E+02 -0.16922005785E+02  0.18231966074E+02  0.37825432036E+02  0.51100000000E-03 0.  1.
         12    1    3    3    0    0 -0.71937545953E+00  0.38442602832E+00  0.21654232940E+01  0.23139452165E+01  0.00000000000E+00 0. -1.
</event>
<event>
 7    1  0.2438448E-008  0.4614232E+02  0.7816164E-02  0.1320468E+00
        -11   -1    0    0    0    0  0.00000000000E+00  0.00000000000E+00  0.45593999997E+02  0.45594000000E+02  0.51100000000E-03 0.  1.
         11   -1    0    0    0    0 -0.00000000000E+00 -0.00000000000E+00 -0.45593999997E+02  0.45594000000E+02  0.51100000000E-03 0. -1.
    9900012    2    1    2    0    0  0.38323007495E+01  0.96367530658E+01  0.43835601402E+02  0.46142317755E+02  0.99999999413E+01 0.  0.
         12    1    1    2    0    0 -0.38323007495E+01 -0.96367530658E+01 -0.43835601402E+02  0.45045682245E+02  0.00000000000E+00 0. -1.
         11    1    3    3    0    0 -0.10679331778E+01 -0.36591333402E+00  0.12777964989E+01  0.17050331357E+01  0.51100000000E-03 0. -1.
        -11    1    3    3    0    0  0.32553882454E+01  0.15496161484E+01  0.19355197326E+02  0.19688131619E+02  0.51100000000E-03 0.  1.
         12    1    3    3    0    0  0.16448456818E+01  0.84530502515E+01  0.23202607577E+02  0.24749153000E+02  0.00000000000E+00 0. -1.
</event>
<event>
 7    1  0.2438448E-008  0.4614232E+02  0.7816164E-02  0.1320468E+00
        -11   -1    0    0    0    0  0.00000000000E+00  0.00000000000E+00  0.45593999997E+02  0.45594000000E+02  0.51100000000E-03 0.  1.
         11   -1    0    0    0    0 -0.00000000000E+00 -0.00000000000E+00 -0.45593999997E+02  0.45594000000E+02  0.51100000000E-03 0. -1.
    9900012    2    1    2    0    0  0.45694212653E+01  0.39118681405E+02  0.21862347614E+02  0.46142322197E+02  0.10000040446E+02 0.  0.
         12    1    1    2    0    0 -0.45694212653E+01 -0.39118681405E+02 -0.21862347614E+02  0.45045677803E+02  0.00000000000E+00 0. -1.
         11    1    3    3    0    0  0.36306876970E+01  0.16819882157E+02  0.10512638740E+02  0.20164471291E+02  0.51100000000E-03 0. -1.
        -11    1    3    3    0    0  0.70604243284E+00  0.92427628882E+01  0.85761418408E+01  0.12628435012E+02  0.51100000000E-03 0.  1.
        -12    1    3    3    0    0  0.23269113545E+00  0.13056036360E+02  0.27735670336E+01  0.13349415893E+02  0.00000000000E+00 0.  1.
</event>
<event>
 7    1  0.2438448E-008  0.4614232E+02  0.7816164E-02  0.1320468E+00
        -11   -1    0    0    0    0  0.00000000000E+00  0.00000000000E+00  0.45593999997E+02  0.45594000000E+02  0.51100000000E-03 0.  1.
         11   -1    0    0    0    0 -0.00000000000E+00 -0.00000000000E+00 -0.45593999997E+02  0.45594000000E+02  0.51100000000E-03 0. -1.
    9900012    2    1    2    0    0  0.38336150194E+02  0.43455185891E+01  0.23250149813E+02  0.46142318633E+02  0.10000007949E+02 0.  0.
         12    1    1    2    0    0 -0.38336150194E+02 -0.43455185891E+01 -0.23250149813E+02  0.45045681367E+02  0.00000000000E+00 0. -1.
         11    1    3    3    0    0  0.50007247658E+01  0.33002287276E+01  0.15804548467E+01  0.61964986582E+01  0.51100000000E-03 0. -1.
        -11    1    3    3    0    0  0.13630771167E+02  0.12832427241E+01  0.10819560559E+02  0.17450143995E+02  0.51100000000E-03 0.  1.
         12    1    3    3    0    0  0.19704654261E+02 -0.23795286263E+00  0.10850134408E+02  0.22495675980E+02  0.00000000000E+00 0. -1.
</event>
<event>
 7    1  0.2438448E-008  0.4614232E+02  0.7816164E-02  0.1320468E+00
        -11   -1    0    0    0    0  0.00000000000E+00  0.00000000000E+00  0.45593999997E+02  0.45594000000E+02  0.51100000000E-03 0. -1.
         11   -1    0    0    0    0 -0.00000000000E+00 -0.00000000000E+00 -0.45593999997E+02  0.45594000000E+02  0.51100000000E-03 0.  1.
    9900012    2    1    2    0    0  0.31441216886E+00 -0.25219353871E+02 -0.37322899475E+02  0.46142317744E+02  0.99999998467E+01 0.  0.
         12    1    1    2    0    0 -0.31441216886E+00  0.25219353871E+02  0.37322899475E+02  0.45045682256E+02  0.00000000000E+00 0. -1.
         11    1    3    3    0    0 -0.44442654954E+00 -0.33902449557E+00 -0.44113447773E+01  0.44466184424E+01  0.51100000000E-03 0. -1.
        -11    1    3    3    0    0 -0.20055176463E+01 -0.34379594314E+01 -0.51409220196E+01  0.65015956161E+01  0.51100000000E-03 0.  1.
        -12    1    3    3    0    0  0.27643563647E+01 -0.21442369944E+02 -0.27770632678E+02  0.35194103686E+02  0.00000000000E+00 0.  1.
</event>
<event>
 7    1  0.2438448E-008  0.4614232E+02  0.7816164E-02  0.1320468E+00
        -11   -1    0    0    0    0  0.00000000000E+00  0.00000000000E+00  0.45593999997E+02  0.45594000000E+02  0.51100000000E-03 0. -1.
         11   -1    0    0    0    0 -0.00000000000E+00 -0.00000000000E+00 -0.45593999997E+02  0.45594000000E+02  0.51100000000E-03 0.  1.
    9900012    2    1    2    0    0 -0.16837189924E+01 -0.16938897011E+02 -0.41705544833E+02  0.46142316396E+02  0.99999875478E+01 0.  0.
         12    1    1    2    0    0  0.16837189924E+01  0.16938897011E+02  0.41705544833E+02  0.45045683604E+02  0.00000000000E+00 0. -1.
         11    1    3    3    0    0  0.72244864343E+00 -0.78341115024E-01 -0.40620552672E+01  0.41265436660E+01  0.51100000000E-03 0. -1.
        -11    1    3    3    0    0 -0.35288223769E+01 -0.30226106747E+01 -0.11746228442E+02  0.12631810857E+02  0.51100000000E-03 0.  1.
         12    1    3    3    0    0  0.11226547411E+01 -0.13837945221E+02 -0.25897261124E+02  0.29383961873E+02  0.00000000000E+00 0. -1.
</event>
<event>
 7    1  0.2438448E-008  0.4614232E+02  0.7816164E-02  0.1320468E+00
        -11   -1    0    0    0    0  0.00000000000E+00  0.00000000000E+00  0.45593999997E+02  0.45594000000E+02  0.51100000000E-03 0.  1.
         11   -1    0    0    0    0 -0.00000000000E+00 -0.00000000000E+00 -0.45593999997E+02  0.45594000000E+02  0.51100000000E-03 0. -1.
    9900012    2    1    2    0    0 -0.52081154925E+01  0.37846240947E+02  0.23867365535E+02  0.46142316984E+02  0.99999929143E+01 0.  0.
         12    1    1    2    0    0  0.52081154925E+01 -0.37846240947E+02 -0.23867365535E+02  0.45045683016E+02  0.00000000000E+00 0. -1.
         11    1    3    3    0    0  0.92863624579E+00  0.20497069466E+01  0.39254236909E+01  0.45246674197E+01  0.51100000000E-03 0. -1.
        -11    1    3    3    0    0 -0.44084437689E+00  0.10559951225E+02  0.44919290111E+01  0.11484090741E+02  0.51100000000E-03 0.  1.
        -12    1    3    3    0    0 -0.56959073614E+01  0.25236582774E+02  0.15450012833E+02  0.30133558823E+02  0.00000000000E+00 0.  1.
</event>
<event>
 7    1  0.2438448E-008  0.4614232E+02  0.7816164E-02  0.1320468E+00
        -11   -1    0    0    0    0  0.00000000000E+00  0.00000000000E+00  0.45593999997E+02  0.45594000000E+02  0.51100000000E-03 0.  1.
         11   -1    0    0    0    0 -0.00000000000E+00 -0.00000000000E+00 -0.45593999997E+02  0.45594000000E+02  0.51100000000E-03 0. -1.
    9900012    2    1    2    0    0  0.22671770399E+02 -0.30895237712E+02  0.23676753311E+02  0.46142317258E+02  0.99999954155E+01 0.  0.
         12    1    1    2    0    0 -0.22671770399E+02  0.30895237712E+02 -0.23676753311E+02  0.45045682742E+02  0.00000000000E+00 0. -1.
         11    1    3    3    0    0  0.64872173796E+01 -0.76544653619E+01  0.45880885833E+01  0.11032922841E+02  0.51100000000E-03 0. -1.
        -11    1    3    3    0    0  0.68512478564E+01 -0.16509095112E+02  0.10300590157E+02  0.20629880670E+02  0.51100000000E-03 0.  1.
         12    1    3    3    0    0  0.93333051628E+01 -0.67316772383E+01  0.87880745706E+01  0.14479513747E+02  0.00000000000E+00 0. -1.
</event>
<event>
 7    1  0.2438448E-008  0.4614232E+02  0.7816164E-02  0.1320468E+00
        -11   -1    0    0    0    0  0.00000000000E+00  0.00000000000E+00  0.45593999997E+02  0.45594000000E+02  0.51100000000E-03 0.  1.
         11   -1    0    0    0    0 -0.00000000000E+00 -0.00000000000E+00 -0.45593999997E+02  0.45594000000E+02  0.51100000000E-03 0. -1.
    9900012    2    1    2    0    0 -0.30067780218E+01  0.21962842355E+01  0.44891525620E+02  0.46142318175E+02  0.10000003777E+02 0.  0.
         12    1    1    2    0    0  0.30067780218E+01 -0.21962842355E+01 -0.44891525620E+02  0.45045681825E+02  0.00000000000E+00 0. -1.
         11    1    3    3    0    0  0.21416107881E+01  0.15971492811E+01  0.38476983944E+01  0.46842465552E+01  0.51100000000E-03 0. -1.
        -11    1    3    3    0    0 -0.63211872126E+00  0.10020656149E+01  0.54971171014E+01  0.56233447575E+01  0.51100000000E-03 0.  1.
         12    1    3    3    0    0 -0.45162700886E+01 -0.40293066064E+00  0.35546710125E+02  0.35834726863E+02  0.00000000000E+00 0. -1.
</event>
<event>
 7    1  0.2438448E-008  0.4614232E+02  0.7816164E-02  0.1320468E+00
        -11   -1    0    0    0    0  0.00000000000E+00  0.00000000000E+00  0.45593999997E+02  0.45594000000E+02  0.51100000000E-03 0.  1.
         11   -1    0    0    0    0 -0.00000000000E+00 -0.00000000000E+00 -0.45593999997E+02  0.45594000000E+02  0.51100000000E-03 0. -1.
    9900012    2    1    2    0    0 -0.16511223177E+02  0.32300236993E+02  0.26705578013E+02  0.46142315439E+02  0.99999788212E+01 0.  0.
         12    1    1    2    0    0  0.16511223177E+02 -0.32300236993E+02 -0.26705578013E+02  0.45045684561E+02  0.00000000000E+00 0. -1.
         11    1    3    3    0    0 -0.42615303463E+01  0.14053342585E+02  0.11528487198E+02  0.18669844564E+02  0.51100000000E-03 0. -1.
        -11    1    3    3    0    0 -0.90437470745E+01  0.14663152000E+02  0.14687945276E+02  0.22639194430E+02  0.51100000000E-03 0.  1.
         12    1    3    3    0    0 -0.32059457565E+01  0.35837424075E+01  0.48914553914E+00  0.48332764452E+01  0.00000000000E+00 0. -1.
</event>
<event>
 7    1  0.2438448E-008  0.4614232E+02  0.7816164E-02  0.1320468E+00
        -11   -1    0    0    0    0  0.00000000000E+00  0.00000000000E+00  0.45593999997E+02  0.45594000000E+02  0.51100000000E-03 0.  1.
         11   -1    0    0    0    0 -0.00000000000E+00 -0.00000000000E+00 -0.45593999997E+02  0.45594000000E+02  0.51100000000E-03 0. -1.
    9900012    2    1    2    0    0  0.12282433878E+02  0.38984268829E+01  0.43163149874E+02  0.46142318507E+02  0.10000006801E+02 0.  0.
         12    1    1    2    0    0 -0.12282433878E+02 -0.38984268829E+01 -0.43163149874E+02  0.45045681493E+02  0.00000000000E+00 0. -1.
         11    1    3    3    0    0  0.10538739482E+01 -0.26553763574E+01  0.81349879735E+01  0.86220475229E+01  0.51100000000E-03 0. -1.
        -11    1    3    3    0    0  0.52815493847E+01  0.49817363847E+01  0.20293698672E+02  0.21553344691E+02  0.51100000000E-03 0.  1.
         12    1    3    3    0    0  0.59470105448E+01  0.15720668556E+01  0.14734463229E+02  0.15966926293E+02  0.00000000000E+00 0. -1.
</event>
