<event>
 7    1  0.2285268E-015  0.9000777E+02  0.7816164E-02  0.1186339E+00
        -11   -1    0    0    0    0  0.00000000000E+00  0.00000000000E+00  0.45593999997E+02  0.45594000000E+02  0.51100000000E-03 0. -1.
         11   -1    0    0    0    0 -0.00000000000E+00 -0.00000000000E+00 -0.45593999997E+02  0.45594000000E+02  0.51100000000E-03 0.  1.
    9900012    2    1    2    0    0 -0.10119698406E+01  0.41095896149E+00 -0.44719434733E+00  0.90007765697E+02  0.90000027404E+02 0.  0.
         12    1    1    2    0    0  0.10119698406E+01 -0.41095896149E+00  0.44719434733E+00  0.11802343032E+01  0.00000000000E+00 0. -1.
         11    1    3    3    0    0  0.64725208441E+01 -0.80020458440E+01  0.32871973743E+02  0.34445506554E+02  0.51100000000E-03 0. -1.
        -11    1    3    3    0    0  0.93704968895E+00  0.19149974035E+01  0.10375095773E+02  0.10591878480E+02  0.51100000000E-03 0.  1.
        -12    1    3    3    0    0 -0.84215403736E+01  0.64980074019E+01 -0.43694263863E+02  0.44970380663E+02  0.00000000000E+00 0.  1.
</event>
<event>
 7    1  0.2285268E-015  0.9000771E+02  0.7816164E-02  0.1186339E+00
        -11   -1    0    0    0    0  0.00000000000E+00  0.00000000000E+00  0.45593999997E+02  0.45594000000E+02  0.51100000000E-03 0.  1.
         11   -1    0    0    0    0 -0.00000000000E+00 -0.00000000000E+00 -0.45593999997E+02  0.45594000000E+02  0.51100000000E-03 0. -1.
    9900012    2    1    2    0    0  0.18061510436E+00  0.40498238117E+00  0.10938295629E+01  0.90007705267E+02  0.89999966176E+02 0.  0.
         12    1    1    2    0    0 -0.18061510436E+00 -0.40498238117E+00 -0.10938295629E+01  0.11802947334E+01  0.00000000000E+00 0. -1.
         11    1    3    3    0    0  0.96459294598E+01  0.40778266620E+02 -0.42800014397E+01  0.42121602489E+02  0.51100000000E-03 0. -1.
        -11    1    3    3    0    0  0.68249544177E+01 -0.46615396845E+01 -0.23290633551E-01  0.82650165002E+01  0.51100000000E-03 0.  1.
        -12    1    3    3    0    0 -0.16290268773E+02 -0.35711744554E+02  0.53971216362E+01  0.39621086277E+02  0.00000000000E+00 0.  1.
</event>
<event>
 7    1  0.2285268E-015  0.9000774E+02  0.7816164E-02  0.1186339E+00
        -11   -1    0    0    0    0  0.00000000000E+00  0.00000000000E+00  0.45593999997E+02  0.45594000000E+02  0.51100000000E-03 0. -1.
         11   -1    0    0    0    0 -0.00000000000E+00 -0.00000000000E+00 -0.45593999997E+02  0.45594000000E+02  0.51100000000E-03 0.  1.
    9900012    2    1    2    0    0  0.44879854978E+00  0.48962089143E-01 -0.10905011533E+01  0.90007741473E+02  0.90000002861E+02 0.  0.
         12    1    1    2    0    0 -0.44879854978E+00 -0.48962089143E-01  0.10905011533E+01  0.11802585267E+01  0.00000000000E+00 0. -1.
         11    1    3    3    0    0  0.84596471680E+01  0.37878655273E+01 -0.61960679610E+01  0.11149206873E+02  0.51100000000E-03 0. -1.
        -11    1    3    3    0    0 -0.36932666564E+02 -0.83232820964E+01 -0.17652302098E+02  0.41772031960E+02  0.51100000000E-03 0.  1.
         12    1    3    3    0    0  0.28921817946E+02  0.45843786582E+01  0.22757868906E+02  0.37086502641E+02  0.00000000000E+00 0. -1.
</event>
<event>
 7    1  0.2285268E-015  0.9000732E+02  0.7816164E-02  0.1186340E+00
        -11   -1    0    0    0    0  0.00000000000E+00  0.00000000000E+00  0.45593999997E+02  0.45594000000E+02  0.51100000000E-03 0.  1.
         11   -1    0    0    0    0 -0.00000000000E+00 -0.00000000000E+00 -0.45593999997E+02  0.45594000000E+02  0.51100000000E-03 0. -1.
    9900012    2    1    2    0    0  0.37249932270E+00  0.98734099458E+00 -0.52954008133E+00  0.90007317705E+02  0.89999573497E+02 0.  0.
         12    1    1    2    0    0 -0.37249932270E+00 -0.98734099458E+00  0.52954008133E+00  0.11806822954E+01  0.00000000000E+00 0. -1.
         11    1    3    3    0    0  0.85159599357E+01 -0.44823365803E+01  0.21476462819E+01  0.98602890251E+01  0.51100000000E-03 0. -1.
        -11    1    3    3    0    0  0.32189195640E+02 -0.13341510676E+02  0.42668388447E+01  0.35104787950E+02  0.51100000000E-03 0.  1.
         12    1    3    3    0    0 -0.40332656253E+02  0.18811188251E+02 -0.69440252080E+01  0.45042240729E+02  0.00000000000E+00 0. -1.
</event>
<event>
 7    1  0.2285268E-015  0.9000769E+02  0.7816164E-02  0.1186339E+00
        -11   -1    0    0    0    0  0.00000000000E+00  0.00000000000E+00  0.45593999997E+02  0.45594000000E+02  0.51100000000E-03 0.  1.
         11   -1    0    0    0    0 -0.00000000000E+00 -0.00000000000E+00 -0.45593999997E+02  0.45594000000E+02  0.51100000000E-03 0. -1.
    9900012    2    1    2    0    0 -0.50732418266E+00  0.74985891243E+00  0.75727866710E+00  0.90007687671E+02  0.89999948348E+02 0.  0.
         12    1    1    2    0    0  0.50732418266E+00 -0.74985891243E+00 -0.75727866710E+00  0.11803123292E+01  0.00000000000E+00 0. -1.
         11    1    3    3    0    0  0.10034495264E+02 -0.30450265615E+02 -0.19716733597E+02  0.37638535509E+02  0.51100000000E-03 0. -1.
        -11    1    3    3    0    0 -0.15296591206E+01  0.43217839835E+00 -0.88071441265E+01  0.89494370281E+01  0.51100000000E-03 0.  1.
        -12    1    3    3    0    0 -0.90121603261E+01  0.30767946129E+02  0.29281156390E+02  0.43419715134E+02  0.00000000000E+00 0.  1.
</event>
<event>
 7    1  0.2285268E-015  0.9000769E+02  0.7816164E-02  0.1186339E+00
        -11   -1    0    0    0    0  0.00000000000E+00  0.00000000000E+00  0.45593999997E+02  0.45594000000E+02  0.51100000000E-03 0. -1.
         11   -1    0    0    0    0 -0.00000000000E+00 -0.00000000000E+00 -0.45593999997E+02  0.45594000000E+02  0.51100000000E-03 0.  1.
    9900012    2    1    2    0    0  0.88804739921E+00 -0.22118938320E+00  0.74536969505E+00  0.90007691181E+02  0.89999951904E+02 0.  0.
         12    1    1    2    0    0 -0.88804739921E+00  0.22118938320E+00 -0.74536969505E+00  0.11803088192E+01  0.00000000000E+00 0. -1.
         11    1    3    3    0    0 -0.31843405566E+02  0.27134526422E+00  0.21024647902E+02  0.38159034657E+02  0.51100000000E-03 0. -1.
        -11    1    3    3    0    0  0.10257601215E+02  0.15344023911E+02 -0.14253319609E+01  0.18511861709E+02  0.51100000000E-03 0.  1.
        -12    1    3    3    0    0  0.22473851749E+02 -0.15836558559E+02 -0.18853946246E+02  0.33336794814E+02  0.00000000000E+00 0.  1.
</event>
<event>
 7    1  0.2285268E-015  0.9000784E+02  0.7816164E-02  0.1186339E+00
        -11   -1    0    0    0    0  0.00000000000E+00  0.00000000000E+00  0.45593999997E+02  0.45594000000E+02  0.51100000000E-03 0. -1.
         11   -1    0    0    0    0 -0.00000000000E+00 -0.00000000000E+00 -0.45593999997E+02  0.45594000000E+02  0.51100000000E-03 0.  1.
    9900012    2    1    2    0    0  0.55318560479E+00  0.10145963053E+01 -0.23949760586E+00  0.90007839384E+02  0.90000102064E+02 0.  0.
         12    1    1    2    0    0 -0.55318560479E+00 -0.10145963053E+01  0.23949760586E+00  0.11801606159E+01  0.00000000000E+00 0. -1.
         11    1    3    3    0    0 -0.11013322225E+02 -0.20793260617E+02  0.31170761322E+02  0.39054696455E+02  0.51100000000E-03 0. -1.
        -11    1    3    3    0    0 -0.85059678848E+01 -0.13009319846E+01 -0.27843110667E+01  0.90441308075E+01  0.51100000000E-03 0.  1.
        -12    1    3    3    0    0  0.20072475715E+02  0.23108788907E+02 -0.28625947861E+02  0.41909012122E+02  0.00000000000E+00 0.  1.
</event>
<event>
 7    1  0.2285268E-015  0.9000825E+02  0.7816164E-02  0.1186338E+00
        -11   -1    0    0    0    0  0.00000000000E+00  0.00000000000E+00  0.45593999997E+02  0.45594000000E+02  0.51100000000E-03 0.  1.
         11   -1    0    0    0    0 -0.00000000000E+00 -0.00000000000E+00 -0.45593999997E+02  0.45594000000E+02  0.51100000000E-03 0. -1.
    9900012    2    1    2    0    0 -0.67783387639E+00  0.42779933665E+00  0.86563722482E+00  0.90008254756E+02  0.90000522917E+02 0.  0.
         12    1    1    2    0    0  0.67783387639E+00 -0.42779933665E+00 -0.86563722482E+00  0.11797452443E+01  0.00000000000E+00 0. -1.
         11    1    3    3    0    0 -0.47624373862E+01 -0.67547349876E+01  0.36844926347E+01  0.90489082682E+01  0.51100000000E-03 0. -1.
        -11    1    3    3    0    0 -0.30419681155E+02  0.27248716557E+02 -0.39383658482E+01  0.41028773823E+02  0.51100000000E-03 0.  1.
         12    1    3    3    0    0  0.34504284665E+02 -0.20066182233E+02  0.11195104383E+01  0.39930572664E+02  0.00000000000E+00 0. -1.
</event>
<event>
 7    1  0.2285268E-015  0.9000778E+02  0.7816164E-02  0.1186339E+00
        -11   -1    0    0    0    0  0.00000000000E+00  0.00000000000E+00  0.45593999997E+02  0.45594000000E+02  0.51100000000E-03 0. -1.
         11   -1    0    0    0    0 -0.00000000000E+00 -0.00000000000E+00 -0.45593999997E+02  0.45594000000E+02  0.51100000000E-03 0.  1.
    9900012    2    1    2    0    0 -0.14573056991E+00  0.33403062815E-01 -0.11707146252E+01  0.90007777183E+02  0.90000039042E+02 0.  0.
         12    1    1    2    0    0  0.14573056991E+00 -0.33403062815E-01  0.11707146252E+01  0.11802228167E+01  0.00000000000E+00 0. -1.
         11    1    3    3    0    0 -0.26531774808E+01 -0.83436673107E+01 -0.80279558187E+00  0.87920768845E+01  0.51100000000E-03 0. -1.
        -11    1    3    3    0    0 -0.34276048613E+02 -0.22985778159E+01  0.17949339735E+02  0.38759640939E+02  0.51100000000E-03 0.  1.
         12    1    3    3    0    0  0.36783495524E+02  0.10675648189E+02 -0.18317258779E+02  0.42456059360E+02  0.00000000000E+00 0. -1.
</event>
<event>
 7    1  0.2285268E-015  0.9000769E+02  0.7816164E-02  0.1186339E+00
        -11   -1    0    0    0    0  0.00000000000E+00  0.00000000000E+00  0.45593999997E+02  0.45594000000E+02  0.51100000000E-03 0. -1.
         11   -1    0    0    0    0 -0.00000000000E+00 -0.00000000000E+00 -0.45593999997E+02  0.45594000000E+02  0.51100000000E-03 0.  1.
    9900012    2    1    2    0    0  0.45704210217E+00 -0.61593021839E+00 -0.89714606499E+00  0.90007691320E+02  0.89999952046E+02 0.  0.
         12    1    1    2    0    0 -0.45704210217E+00  0.61593021839E+00  0.89714606499E+00  0.11803086795E+01  0.00000000000E+00 0. -1.
         11    1    3    3    0    0 -0.35289947917E+02  0.10974254354E+02  0.57030748009E+01  0.37394381197E+02  0.51100000000E-03 0. -1.
        -11    1    3    3    0    0 -0.28293296011E+01  0.79713091298E+01  0.15504747687E+01  0.85994678616E+01  0.51100000000E-03 0.  1.
        -12    1    3    3    0    0  0.38576319621E+02 -0.19561493702E+02 -0.81506956346E+01  0.44013842262E+02  0.00000000000E+00 0.  1.
</event>
<event>
 7    1  0.2285268E-015  0.9000774E+02  0.7816164E-02  0.1186339E+00
        -11   -1    0    0    0    0  0.00000000000E+00  0.00000000000E+00  0.45593999997E+02  0.45594000000E+02  0.51100000000E-03 0. -1.
         11   -1    0    0    0    0 -0.00000000000E+00 -0.00000000000E+00 -0.45593999997E+02  0.45594000000E+02  0.51100000000E-03 0.  1.
    9900012    2    1    2    0    0  0.18963534274E+00  0.54723570145E+00 -0.10283891273E+01  0.90007740421E+02  0.90000001795E+02 0.  0.
         12    1    1    2    0    0 -0.18963534274E+00 -0.54723570145E+00  0.10283891273E+01  0.11802595788E+01  0.00000000000E+00 0. -1.
         11    1    3    3    0    0  0.38507361745E+02 -0.11490364498E+01 -0.13038237585E+02  0.40671031864E+02  0.51100000000E-03 0. -1.
        -11    1    3    3    0    0 -0.22024805825E+01  0.95109851393E+01 -0.17281833672E+01  0.99144529374E+01  0.51100000000E-03 0.  1.
        -12    1    3    3    0    0 -0.36115245820E+02 -0.78147129880E+01  0.13738031825E+02  0.39422255619E+02  0.00000000000E+00 0.  1.
</event>
<event>
 7    1  0.2285268E-015  0.9000774E+02  0.7816164E-02  0.1186339E+00
        -11   -1    0    0    0    0  0.00000000000E+00  0.00000000000E+00  0.45593999997E+02  0.45594000000E+02  0.51100000000E-03 0.  1.
         11   -1    0    0    0    0 -0.00000000000E+00 -0.00000000000E+00 -0.45593999997E+02  0.45594000000E+02  0.51100000000E-03 0. -1.
    9900012    2    1    2    0    0 -0.38817894024E+00 -0.11031605679E+01 -0.15927468815E+00  0.90007739624E+02  0.90000000987E+02 0.  0.
         12    1    1    2    0    0  0.38817894024E+00  0.11031605679E+01  0.15927468815E+00  0.11802603758E+01  0.00000000000E+00 0. -1.
         11    1    3    3    0    0 -0.32052644879E+02  0.55318055090E+01 -0.23080540477E+02  0.39883383318E+02  0.51100000000E-03 0. -1.
        -11    1    3    3    0    0  0.69791016623E+01  0.35923075548E+01 -0.66368165121E+01  0.10279098562E+02  0.51100000000E-03 0.  1.
        -12    1    3    3    0    0  0.24685364276E+02 -0.10227273632E+02  0.29558082301E+02  0.39845257744E+02  0.00000000000E+00 0.  1.
</event>
<event>
 7    1  0.2285268E-015  0.9000768E+02  0.7816164E-02  0.1186339E+00
        -11   -1    0    0    0    0  0.00000000000E+00  0.00000000000E+00  0.45593999997E+02  0.45594000000E+02  0.51100000000E-03 0.  1.
         11   -1    0    0    0    0 -0.00000000000E+00 -0.00000000000E+00 -0.45593999997E+02  0.45594000000E+02  0.51100000000E-03 0. -1.
    9900012    2    1    2    0    0 -0.72848946113E+00 -0.86671395042E+00  0.33355365481E+00  0.90007683090E+02  0.89999943707E+02 0.  0.
         12    1    1    2    0    0  0.72848946113E+00  0.86671395042E+00 -0.33355365481E+00  0.11803169098E+01  0.00000000000E+00 0. -1.
         11    1    3    3    0    0 -0.33011306689E+02  0.62735248778E+00 -0.27902003997E+02  0.43228020632E+02  0.51100000000E-03 0. -1.
        -11    1    3    3    0    0  0.18509105507E+01  0.28253403553E+01  0.11071112426E+02  0.11574884388E+02  0.51100000000E-03 0.  1.
        -12    1    3    3    0    0  0.30431906677E+02 -0.43194067935E+01  0.17164445226E+02  0.35204778070E+02  0.00000000000E+00 0.  1.
</event>
<event>
 7    1  0.2285268E-015  0.9000756E+02  0.7816164E-02  0.1186339E+00
        -11   -1    0    0    0    0  0.00000000000E+00  0.00000000000E+00  0.45593999997E+02  0.45594000000E+02  0.51100000000E-03 0.  1.
         11   -1    0    0    0    0 -0.00000000000E+00 -0.00000000000E+00 -0.45593999997E+02  0.45594000000E+02  0.51100000000E-03 0. -1.
    9900012    2    1    2    0    0  0.11760769439E+01 -0.97341377125E-01 -0.28448932431E-01  0.90007558700E+02  0.89999817674E+02 0.  0.
         12    1    1    2    0    0 -0.11760769439E+01  0.97341377125E-01  0.28448932431E-01  0.11804413003E+01  0.00000000000E+00 0. -1.
         11    1    3    3    0    0 -0.43430347841E+01 -0.11593491788E+02 -0.37926706903E+02  0.39896191545E+02  0.51100000000E-03 0. -1.
        -11    1    3    3    0    0 -0.53795578062E+01  0.34337660697E+01 -0.29802265761E+01  0.70435887385E+01  0.51100000000E-03 0.  1.
        -12    1    3    3    0    0  0.10898669534E+02  0.80623843411E+01  0.40878484547E+02  0.43067778417E+02  0.00000000000E+00 0.  1.
</event>
<event>
 7    1  0.2285268E-015  0.9000771E+02  0.7816164E-02  0.1186339E+00
        -11   -1    0    0    0    0  0.00000000000E+00  0.00000000000E+00  0.45593999997E+02  0.45594000000E+02  0.51100000000E-03 0.  1.
         11   -1    0    0    0    0 -0.00000000000E+00 -0.00000000000E+00 -0.45593999997E+02  0.45594000000E+02  0.51100000000E-03 0. -1.
    9900012    2    1    2    0    0  0.11311825787E+01  0.38675759370E-01  0.33468275251E+00  0.90007710889E+02  0.89999971873E+02 0.  0.
         12    1    1    2    0    0 -0.11311825787E+01 -0.38675759370E-01 -0.33468275251E+00  0.11802891110E+01  0.00000000000E+00 0. -1.
         11    1    3    3    0    0  0.29003620344E+00  0.51526357936E+01  0.14351410706E+02  0.15251123439E+02  0.51100000000E-03 0. -1.
        -11    1    3    3    0    0  0.19624447184E+02 -0.58713107048E+01  0.24477354184E+02  0.31917582690E+02  0.51100000000E-03 0.  1.
         12    1    3    3    0    0 -0.18783300809E+02  0.75735067056E+00 -0.38494082137E+02  0.42839004761E+02  0.00000000000E+00 0. -1.
</event>
<event>
 7    1  0.2285268E-015  0.9000902E+02  0.7816164E-02  0.1186336E+00
        -11   -1    0    0    0    0  0.00000000000E+00  0.00000000000E+00  0.45593999997E+02  0.45594000000E+02  0.51100000000E-03 0.  1.
         11   -1    0    0    0    0 -0.00000000000E+00 -0.00000000000E+00 -0.45593999997E+02  0.45594000000E+02  0.51100000000E-03 0. -1.
    9900012    2    1    2    0    0  0.97858368332E-01 -0.41479365686E+00  0.10992582633E+01  0.90009017910E+02  0.90001296138E+02 0.  0.
         12    1    1    2    0    0 -0.97858368332E-01  0.41479365686E+00 -0.10992582633E+01  0.11789820896E+01  0.00000000000E+00 0. -1.
         11    1    3    3    0    0 -0.30193822415E+02  0.12542287004E+02 -0.15367848616E+02  0.36126813403E+02  0.51100000000E-03 0. -1.
        -11    1    3    3    0    0 -0.21876894775E+01  0.12084567229E+01 -0.95825795539E+01  0.99031401116E+01  0.51100000000E-03 0.  1.
        -12    1    3    3    0    0  0.32479370261E+02 -0.14165537383E+02  0.26049686433E+02  0.43979064396E+02  0.00000000000E+00 0.  1.
</event>
<event>
 7    1  0.2285268E-015  0.9000782E+02  0.7816164E-02  0.1186339E+00
        -11   -1    0    0    0    0  0.00000000000E+00  0.00000000000E+00  0.45593999997E+02  0.45594000000E+02  0.51100000000E-03 0. -1.
         11   -1    0    0    0    0 -0.00000000000E+00 -0.00000000000E+00 -0.45593999997E+02  0.45594000000E+02  0.51100000000E-03 0.  1.
    9900012    2    1    2    0    0 -0.40236004928E-01  0.10063089866E+01  0.61526584806E+00  0.90007818329E+02  0.90000080731E+02 0.  0.
         12    1    1    2    0    0  0.40236004928E-01 -0.10063089866E+01 -0.61526584806E+00  0.11801816709E+01  0.00000000000E+00 0. -1.
         11    1    3    3    0    0  0.18956312495E+00 -0.96115114868E+01  0.39230333255E+02  0.40391040279E+02  0.51100000000E-03 0. -1.
        -11    1    3    3    0    0 -0.72691571568E+01  0.70844912116E+01  0.57211182604E-01  0.10150563279E+02  0.51100000000E-03 0.  1.
        -12    1    3    3    0    0  0.70393580270E+01  0.35333292618E+01 -0.38672278589E+02  0.39466214772E+02  0.00000000000E+00 0.  1.
</event>
<event>
 7    1  0.2285268E-015  0.9000776E+02  0.7816164E-02  0.1186339E+00
        -11   -1    0    0    0    0  0.00000000000E+00  0.00000000000E+00  0.45593999997E+02  0.45594000000E+02  0.51100000000E-03 0.  1.
         11   -1    0    0    0    0 -0.00000000000E+00 -0.00000000000E+00 -0.45593999997E+02  0.45594000000E+02  0.51100000000E-03 0. -1.
    9900012    2    1    2    0    0 -0.10946439826E+01 -0.12021930984E+00  0.42459332922E+00  0.90007755268E+02  0.90000016838E+02 0.  0.
         12    1    1    2    0    0  0.10946439826E+01  0.12021930984E+00 -0.42459332922E+00  0.11802447315E+01  0.00000000000E+00 0. -1.
         11    1    3    3    0    0 -0.10398896956E+02 -0.16091818609E+01 -0.11922640870E+02  0.15902071869E+02  0.51100000000E-03 0. -1.
        -11    1    3    3    0    0  0.29376033090E+02 -0.25865796333E+02  0.64876889157E+01  0.39674687747E+02  0.51100000000E-03 0.  1.
         12    1    3    3    0    0 -0.20071780117E+02  0.27354758884E+02  0.58595452837E+01  0.34430995652E+02  0.00000000000E+00 0. -1.
</event>
<event>
 7    1  0.2285268E-015  0.9000768E+02  0.7816164E-02  0.1186339E+00
        -11   -1    0    0    0    0  0.00000000000E+00  0.00000000000E+00  0.45593999997E+02  0.45594000000E+02  0.51100000000E-03 0. -1.
         11   -1    0    0    0    0 -0.00000000000E+00 -0.00000000000E+00 -0.45593999997E+02  0.45594000000E+02  0.51100000000E-03 0.  1.
    9900012    2    1    2    0    0  0.61311936183E+00 -0.93363143480E+00  0.38154319481E+00  0.90007678765E+02  0.89999939325E+02 0.  0.
         12    1    1    2    0    0 -0.61311936183E+00  0.93363143480E+00 -0.38154319481E+00  0.11803212348E+01  0.00000000000E+00 0. -1.
         11    1    3    3    0    0  0.30623577887E+02 -0.14510473008E+02  0.25357587698E+02  0.42324515398E+02  0.51100000000E-03 0. -1.
        -11    1    3    3    0    0  0.26016835525E+01 -0.20143064727E+01 -0.60354569463E+01  0.68740765696E+01  0.51100000000E-03 0.  1.
        -12    1    3    3    0    0 -0.32612142078E+02  0.15591148046E+02 -0.18940587557E+02  0.40809086798E+02  0.00000000000E+00 0.  1.
</event>
<event>
 7    1  0.2285268E-015  0.9000779E+02  0.7816164E-02  0.1186339E+00
        -11   -1    0    0    0    0  0.00000000000E+00  0.00000000000E+00  0.45593999997E+02  0.45594000000E+02  0.51100000000E-03 0.  1.
         11   -1    0    0    0    0 -0.00000000000E+00 -0.00000000000E+00 -0.45593999997E+02  0.45594000000E+02  0.51100000000E-03 0. -1.
    9900012    2    1    2    0    0  0.10038068979E+00 -0.20167690267E+00  0.11585136256E+01  0.90007786597E+02  0.90000048580E+02 0.  0.
         12    1    1    2    0    0 -0.10038068979E+00  0.20167690267E+00 -0.11585136256E+01  0.11802134030E+01  0.00000000000E+00 0. -1.
         11    1    3    3    0    0 -0.10886019658E+02 -0.56446906290E+01 -0.63219622188E+00  0.12278747030E+02  0.51100000000E-03 0. -1.
        -11    1    3    3    0    0 -0.15035374287E+02  0.23393812297E+02 -0.24153115940E+02  0.36833489431E+02  0.51100000000E-03 0.  1.
         12    1    3    3    0    0  0.26021774635E+02 -0.17950798571E+02  0.25943825787E+02  0.40895550137E+02  0.00000000000E+00 0. -1.
</event>
<event>
 7    1  0.2285268E-015  0.9000751E+02  0.7816164E-02  0.1186340E+00
        -11   -1    0    0    0    0  0.00000000000E+00  0.00000000000E+00  0.45593999997E+02  0.45594000000E+02  0.51100000000E-03 0.  1.
         11   -1    0    0    0    0 -0.00000000000E+00 -0.00000000000E+00 -0.45593999997E+02  0.45594000000E+02  0.51100000000E-03 0. -1.
    9900012    2    1    2    0    0 -0.31651461388E-01 -0.21527334568E+00  0.11602673123E+01  0.90007506601E+02  0.89999764888E+02 0.  0.
         12    1    1    2    0    0  0.31651461388E-01  0.21527334568E+00 -0.11602673123E+01  0.11804933987E+01  0.00000000000E+00 0. -1.
         11    1    3    3    0    0 -0.85026085863E+01  0.13984787442E+01 -0.42310231267E+01  0.95995652261E+01  0.51100000000E-03 0. -1.
        -11    1    3    3    0    0  0.62134464287E+01 -0.12369156823E+02  0.40930814273E+02  0.43208037613E+02  0.51100000000E-03 0.  1.
         12    1    3    3    0    0  0.22575106962E+01  0.10755404733E+02 -0.35539523834E+02  0.37199903762E+02  0.00000000000E+00 0. -1.
</event>
<event>
 7    1  0.2285268E-015  0.9000775E+02  0.7816164E-02  0.1186339E+00
        -11   -1    0    0    0    0  0.00000000000E+00  0.00000000000E+00  0.45593999997E+02  0.45594000000E+02  0.51100000000E-03 0. -1.
         11   -1    0    0    0    0 -0.00000000000E+00 -0.00000000000E+00 -0.45593999997E+02  0.45594000000E+02  0.51100000000E-03 0.  1.
    9900012    2    1    2    0    0  0.93017654611E+00 -0.62865012000E+00  0.36410459576E+00  0.90007745139E+02  0.90000006575E+02 0.  0.
         12    1    1    2    0    0 -0.93017654611E+00  0.62865012000E+00 -0.36410459576E+00  0.11802548610E+01  0.00000000000E+00 0. -1.
         11    1    3    3    0    0 -0.60967620626E+00 -0.86148124258E+01 -0.66551464372E+01  0.10903103804E+02  0.51100000000E-03 0. -1.
        -11    1    3    3    0    0 -0.23813848699E+02 -0.72162732348E+01 -0.25174646312E+02  0.35396847408E+02  0.51100000000E-03 0.  1.
         12    1    3    3    0    0  0.25353701451E+02  0.15202435541E+02  0.32193897345E+02  0.43707793926E+02  0.00000000000E+00 0. -1.
</event>
<event>
 7    1  0.2285268E-015  0.9000757E+02  0.7816164E-02  0.1186339E+00
        -11   -1    0    0    0    0  0.00000000000E+00  0.00000000000E+00  0.45593999997E+02  0.45594000000E+02  0.51100000000E-03 0.  1.
         11   -1    0    0    0    0 -0.00000000000E+00 -0.00000000000E+00 -0.45593999997E+02  0.45594000000E+02  0.51100000000E-03 0. -1.
    9900012    2    1    2    0    0 -0.19287854805E+00 -0.67409257160E+00  0.94963873195E+00  0.90007569294E+02  0.89999828409E+02 0.  0.
         12    1    1    2    0    0  0.19287854805E+00  0.67409257160E+00 -0.94963873195E+00  0.11804307055E+01  0.00000000000E+00 0. -1.
         11    1    3    3    0    0 -0.20627101934E+01 -0.69748511888E+01 -0.63298652893E+01  0.96421220325E+01  0.51100000000E-03 0. -1.
        -11    1    3    3    0    0 -0.63176523847E+01 -0.24705140082E+02 -0.24396079408E+02  0.35290584706E+02  0.51100000000E-03 0.  1.
         12    1    3    3    0    0  0.81874840300E+01  0.31005898699E+02  0.31675583429E+02  0.45074862556E+02  0.00000000000E+00 0. -1.
</event>
<event>
 7    1  0.2285268E-015  0.9000777E+02  0.7816164E-02  0.1186339E+00
        -11   -1    0    0    0    0  0.00000000000E+00  0.00000000000E+00  0.45593999997E+02  0.45594000000E+02  0.51100000000E-03 0.  1.
         11   -1    0    0    0    0 -0.00000000000E+00 -0.00000000000E+00 -0.45593999997E+02  0.45594000000E+02  0.51100000000E-03 0. -1.
    9900012    2    1    2    0    0 -0.33488291588E+00 -0.85815257155E+00 -0.73782194008E+00  0.90007765439E+02  0.90000027143E+02 0.  0.
         12    1    1    2    0    0  0.33488291588E+00  0.85815257155E+00  0.73782194008E+00  0.11802345609E+01  0.00000000000E+00 0. -1.
         11    1    3    3    0    0 -0.66185703576E+01 -0.81555672827E+01  0.45914467901E+01  0.11462989801E+02  0.51100000000E-03 0. -1.
        -11    1    3    3    0    0 -0.92439503715E+01  0.38955583414E+02 -0.13677056148E+02  0.42308982057E+02  0.51100000000E-03 0.  1.
         12    1    3    3    0    0  0.15527637813E+02 -0.31658168703E+02  0.83477874175E+01  0.36235793581E+02  0.00000000000E+00 0. -1.
</event>
<event>
 7    1  0.2285268E-015  0.9000771E+02  0.7816164E-02  0.1186339E+00
        -11   -1    0    0    0    0  0.00000000000E+00  0.00000000000E+00  0.45593999997E+02  0.45594000000E+02  0.51100000000E-03 0. -1.
         11   -1    0    0    0    0 -0.00000000000E+00 -0.00000000000E+00 -0.45593999997E+02  0.45594000000E+02  0.51100000000E-03 0.  1.
    9900012    2    1    2    0    0  0.74306626971E+00 -0.39337594790E+00 -0.82836721152E+00  0.90007710055E+02  0.89999971028E+02 0.  0.
         12    1    1    2    0    0 -0.74306626971E+00  0.39337594790E+00  0.82836721152E+00  0.11802899452E+01  0.00000000000E+00 0. -1.
         11    1    3    3    0    0  0.12481830611E+02 -0.14862038240E+02  0.31446004262E+02  0.36953043993E+02  0.51100000000E-03 0. -1.
        -11    1    3    3    0    0 -0.50469745650E+01 -0.74503793948E+01  0.42371079011E+01  0.99465164260E+01  0.51100000000E-03 0.  1.
        -12    1    3    3    0    0 -0.66917897765E+01  0.21919041687E+02 -0.36511479375E+02  0.43108149636E+02  0.00000000000E+00 0.  1.
</event>
<event>
 7    1  0.2285268E-015  0.9000770E+02  0.7816164E-02  0.1186339E+00
        -11   -1    0    0    0    0  0.00000000000E+00  0.00000000000E+00  0.45593999997E+02  0.45594000000E+02  0.51100000000E-03 0.  1.
         11   -1    0    0    0    0 -0.00000000000E+00 -0.00000000000E+00 -0.45593999997E+02  0.45594000000E+02  0.51100000000E-03 0. -1.
    9900012    2    1    2    0    0  0.95059893079E+00 -0.13244236698E+00 -0.68697680188E+00  0.90007696465E+02  0.89999957259E+02 0.  0.
         12    1    1    2    0    0 -0.95059893079E+00  0.13244236698E+00  0.68697680188E+00  0.11803035347E+01  0.00000000000E+00 0. -1.
         11    1    3    3    0    0  0.10049701787E+02  0.10114536250E+01 -0.69251189969E+00  0.10124184779E+02  0.51100000000E-03 0. -1.
        -11    1    3    3    0    0  0.29549367671E+02  0.71495956185E+01 -0.19178660785E+02  0.35945832540E+02  0.51100000000E-03 0.  1.
         12    1    3    3    0    0 -0.38648470527E+02 -0.82934916104E+01  0.19184195882E+02  0.43937679147E+02  0.00000000000E+00 0. -1.
</event>
<event>
 7    1  0.2285268E-015  0.9000766E+02  0.7816164E-02  0.1186339E+00
        -11   -1    0    0    0    0  0.00000000000E+00  0.00000000000E+00  0.45593999997E+02  0.45594000000E+02  0.51100000000E-03 0.  1.
         11   -1    0    0    0    0 -0.00000000000E+00 -0.00000000000E+00 -0.45593999997E+02  0.45594000000E+02  0.51100000000E-03 0. -1.
    9900012    2    1    2    0    0  0.85922404284E+00  0.68279006476E+00  0.43442780739E+00  0.90007662867E+02  0.89999923217E+02 0.  0.
         12    1    1    2    0    0 -0.85922404284E+00 -0.68279006476E+00 -0.43442780739E+00  0.11803371333E+01  0.00000000000E+00 0. -1.
         11    1    3    3    0    0 -0.32860357025E+01  0.79296928415E+01 -0.43409621423E+01  0.96188363008E+01  0.51100000000E-03 0. -1.
        -11    1    3    3    0    0  0.41573502108E+02 -0.94394972538E+01  0.32238741106E+00  0.42632899501E+02  0.51100000000E-03 0.  1.
         12    1    3    3    0    0 -0.37428242363E+02  0.21925944770E+01  0.44530025386E+01  0.37755927065E+02  0.00000000000E+00 0. -1.
</event>
<event>
 7    1  0.2285268E-015  0.9000777E+02  0.7816164E-02  0.1186339E+00
        -11   -1    0    0    0    0  0.00000000000E+00  0.00000000000E+00  0.45593999997E+02  0.45594000000E+02  0.51100000000E-03 0.  1.
         11   -1    0    0    0    0 -0.00000000000E+00 -0.00000000000E+00 -0.45593999997E+02  0.45594000000E+02  0.51100000000E-03 0. -1.
    9900012    2    1    2    0    0 -0.10537427491E+01  0.27988275188E+00  0.45192964943E+00  0.90007767589E+02  0.90000029321E+02 0.  0.
         12    1    1    2    0    0  0.10537427491E+01 -0.27988275188E+00 -0.45192964943E+00  0.11802324110E+01  0.00000000000E+00 0. -1.
         11    1    3    3    0    0  0.28938743741E+02 -0.20452827786E+02  0.66695734830E+01  0.36059010864E+02  0.51100000000E-03 0. -1.
        -11    1    3    3    0    0  0.71204647663E+01 -0.29583354168E+01  0.40902789016E+01  0.87282958634E+01  0.51100000000E-03 0.  1.
        -12    1    3    3    0    0 -0.37112951257E+02  0.23691045955E+02 -0.10307922735E+02  0.45220460862E+02  0.00000000000E+00 0.  1.
</event>
<event>
 7    1  0.2285268E-015  0.9000773E+02  0.7816164E-02  0.1186339E+00
        -11   -1    0    0    0    0  0.00000000000E+00  0.00000000000E+00  0.45593999997E+02  0.45594000000E+02  0.51100000000E-03 0.  1.
         11   -1    0    0    0    0 -0.00000000000E+00 -0.00000000000E+00 -0.45593999997E+02  0.45594000000E+02  0.51100000000E-03 0. -1.
    9900012    2    1    2    0    0  0.11197568068E+01 -0.12798180734E+00  0.35044865717E+00  0.90007725070E+02  0.89999986241E+02 0.  0.
         12    1    1    2    0    0 -0.11197568068E+01  0.12798180734E+00 -0.35044865717E+00  0.11802749301E+01  0.00000000000E+00 0. -1.
         11    1    3    3    0    0 -0.78117028842E+01  0.34061237154E+02 -0.17297016997E+02  0.38992016819E+02  0.51100000000E-03 0. -1.
        -11    1    3    3    0    0 -0.45496606481E+01  0.28235654007E+01  0.93275074620E+01  0.10755200105E+02  0.51100000000E-03 0.  1.
        -12    1    3    3    0    0  0.13481120339E+02 -0.37012784362E+02  0.83199581926E+01  0.40260508145E+02  0.00000000000E+00 0.  1.
</event>
<event>
 7    1  0.2285268E-015  0.9000778E+02  0.7816164E-02  0.1186339E+00
        -11   -1    0    0    0    0  0.00000000000E+00  0.00000000000E+00  0.45593999997E+02  0.45594000000E+02  0.51100000000E-03 0. -1.
         11   -1    0    0    0    0 -0.00000000000E+00 -0.00000000000E+00 -0.45593999997E+02  0.45594000000E+02  0.51100000000E-03 0.  1.
    9900012    2    1    2    0    0  0.39477030557E+00 -0.38843863659E+00 -0.10422103687E+01  0.90007775182E+02  0.90000037014E+02 0.  0.
         12    1    1    2    0    0 -0.39477030557E+00  0.38843863659E+00  0.10422103687E+01  0.11802248181E+01  0.00000000000E+00 0. -1.
         11    1    3    3    0    0 -0.51070448472E+01  0.30723303823E+02  0.16620309234E+02  0.35302096031E+02  0.51100000000E-03 0. -1.
        -11    1    3    3    0    0  0.63901843354E+01  0.92196556892E+01 -0.18159169072E+01  0.11363716881E+02  0.51100000000E-03 0.  1.
        -12    1    3    3    0    0 -0.88836918266E+00 -0.40331398149E+02 -0.15846602696E+02  0.43341962270E+02  0.00000000000E+00 0.  1.
</event>
<event>
 7    1  0.2285268E-015  0.9000767E+02  0.7816164E-02  0.1186339E+00
        -11   -1    0    0    0    0  0.00000000000E+00  0.00000000000E+00  0.45593999997E+02  0.45594000000E+02  0.51100000000E-03 0.  1.
         11   -1    0    0    0    0 -0.00000000000E+00 -0.00000000000E+00 -0.45593999997E+02  0.45594000000E+02  0.51100000000E-03 0. -1.
    9900012    2    1    2    0    0 -0.43263913567E+00 -0.79796490989E+00  0.75448386026E+00  0.90007673556E+02  0.89999934047E+02 0.  0.
         12    1    1    2    0    0  0.43263913567E+00  0.79796490989E+00 -0.75448386026E+00  0.11803264441E+01  0.00000000000E+00 0. -1.
         11    1    3    3    0    0  0.23342988872E+02 -0.18463524608E+02 -0.24851696663E+02  0.38773750111E+02  0.51100000000E-03 0. -1.
        -11    1    3    3    0    0 -0.18377738447E+00  0.25306094558E+01 -0.74638858843E+01  0.78833591254E+01  0.51100000000E-03 0.  1.
        -12    1    3    3    0    0 -0.23591850623E+02  0.15134950242E+02  0.33070066407E+02  0.43350564319E+02  0.00000000000E+00 0.  1.
</event>
<event>
 7    1  0.2285268E-015  0.9000783E+02  0.7816164E-02  0.1186339E+00
        -11   -1    0    0    0    0  0.00000000000E+00  0.00000000000E+00  0.45593999997E+02  0.45594000000E+02  0.51100000000E-03 0.  1.
         11   -1    0    0    0    0 -0.00000000000E+00 -0.00000000000E+00 -0.45593999997E+02  0.45594000000E+02  0.51100000000E-03 0. -1.
    9900012    2    1    2    0    0  0.11594578908E+01 -0.21348486392E+00  0.53773205559E-01  0.90007826307E+02  0.90000088814E+02 0.  0.
         12    1    1    2    0    0 -0.11594578908E+01  0.21348486392E+00 -0.53773205559E-01  0.11801736928E+01  0.00000000000E+00 0. -1.
         11    1    3    3    0    0 -0.61822008380E+01  0.11427731375E+00  0.40509689386E+01  0.73920914570E+01  0.51100000000E-03 0. -1.
        -11    1    3    3    0    0  0.89333648238E+01 -0.87337898200E+01  0.37872991941E+02  0.39880416379E+02  0.51100000000E-03 0.  1.
         12    1    3    3    0    0 -0.15917060951E+01  0.84060276423E+01 -0.41870187674E+02  0.42735318472E+02  0.00000000000E+00 0. -1.
</event>
<event>
 7    1  0.2285268E-015  0.9000757E+02  0.7816164E-02  0.1186339E+00
        -11   -1    0    0    0    0  0.00000000000E+00  0.00000000000E+00  0.45593999997E+02  0.45594000000E+02  0.51100000000E-03 0.  1.
         11   -1    0    0    0    0 -0.00000000000E+00 -0.00000000000E+00 -0.45593999997E+02  0.45594000000E+02  0.51100000000E-03 0. -1.
    9900012    2    1    2    0    0 -0.27619649394E+00  0.94272361764E+00  0.65452463702E+00  0.90007570069E+02  0.89999829193E+02 0.  0.
         12    1    1    2    0    0  0.27619649394E+00 -0.94272361764E+00 -0.65452463702E+00  0.11804299314E+01  0.00000000000E+00 0. -1.
         11    1    3    3    0    0  0.10992639813E+01 -0.93703752932E+01  0.25592542931E+01  0.97755867975E+01  0.51100000000E-03 0. -1.
        -11    1    3    3    0    0 -0.34168790321E+02 -0.15614141088E+02  0.48709728786E+01  0.37881842761E+02  0.51100000000E-03 0.  1.
         12    1    3    3    0    0  0.32793329846E+02  0.25927239999E+02 -0.67757025347E+01  0.42350140510E+02  0.00000000000E+00 0. -1.
</event>
<event>
 7    1  0.2285268E-015  0.9000775E+02  0.7816164E-02  0.1186339E+00
        -11   -1    0    0    0    0  0.00000000000E+00  0.00000000000E+00  0.45593999997E+02  0.45594000000E+02  0.51100000000E-03 0.  1.
         11   -1    0    0    0    0 -0.00000000000E+00 -0.00000000000E+00 -0.45593999997E+02  0.45594000000E+02  0.51100000000E-03 0. -1.
    9900012    2    1    2    0    0 -0.21655757212E+00 -0.87877993030E-01  0.11568839760E+01  0.90007745681E+02  0.90000007124E+02 0.  0.
         12    1    1    2    0    0  0.21655757212E+00  0.87877993030E-01 -0.11568839760E+01  0.11802543191E+01  0.00000000000E+00 0. -1.
         11    1    3    3    0    0  0.85499011454E+01  0.37474020310E+02 -0.11826663433E+02  0.40215332599E+02  0.51100000000E-03 0. -1.
        -11    1    3    3    0    0  0.27321502029E+01  0.75864707497E+00  0.91748303858E+01  0.96030048935E+01  0.51100000000E-03 0.  1.
        -12    1    3    3    0    0 -0.11498608920E+02 -0.38320545378E+02  0.38087170232E+01  0.40189408189E+02  0.00000000000E+00 0.  1.
</event>
<event>
 7    1  0.2285268E-015  0.9000767E+02  0.7816164E-02  0.1186339E+00
        -11   -1    0    0    0    0  0.00000000000E+00  0.00000000000E+00  0.45593999997E+02  0.45594000000E+02  0.51100000000E-03 0.  1.
         11   -1    0    0    0    0 -0.00000000000E+00 -0.00000000000E+00 -0.45593999997E+02  0.45594000000E+02  0.51100000000E-03 0. -1.
    9900012    2    1    2    0    0  0.83092541330E+00  0.82583549779E+00  0.14398397297E+00  0.90007672632E+02  0.89999933110E+02 0.  0.
         12    1    1    2    0    0 -0.83092541330E+00 -0.82583549779E+00 -0.14398397297E+00  0.11803273683E+01  0.00000000000E+00 0. -1.
         11    1    3    3    0    0 -0.38238769796E+02  0.76821715481E+01 -0.92540292583E+01  0.40085612543E+02  0.51100000000E-03 0. -1.
        -11    1    3    3    0    0 -0.18516533378E+01  0.32008279024E+01  0.67540850511E+01  0.77001028878E+01  0.51100000000E-03 0.  1.
        -12    1    3    3    0    0  0.40921348547E+02 -0.10057163953E+02  0.26439281802E+01  0.42221957201E+02  0.00000000000E+00 0.  1.
</event>
<event>
 7    1  0.2285268E-015  0.9000773E+02  0.7816164E-02  0.1186339E+00
        -11   -1    0    0    0    0  0.00000000000E+00  0.00000000000E+00  0.45593999997E+02  0.45594000000E+02  0.51100000000E-03 0.  1.
         11   -1    0    0    0    0 -0.00000000000E+00 -0.00000000000E+00 -0.45593999997E+02  0.45594000000E+02  0.51100000000E-03 0. -1.
    9900012    2    1    2    0    0 -0.96289205182E+00 -0.22463109398E+00  0.64453341469E+00  0.90007727339E+02  0.89999988540E+02 0.  0.
         12    1    1    2    0    0  0.96289205182E+00  0.22463109398E+00 -0.64453341469E+00  0.11802726611E+01  0.00000000000E+00 0. -1.
         11    1    3    3    0    0 -0.15062301092E+02 -0.22489020326E+01 -0.27963526498E+02  0.31841628241E+02  0.51100000000E-03 0. -1.
        -11    1    3    3    0    0 -0.46221769954E+01 -0.63969269875E+01 -0.11009416142E+02  0.13545938103E+02  0.51100000000E-03 0.  1.
        -12    1    3    3    0    0  0.18721586036E+02  0.84211979261E+01  0.39617476055E+02  0.44620160994E+02  0.00000000000E+00 0.  1.
</event>
<event>
 7    1  0.2285268E-015  0.9000778E+02  0.7816164E-02  0.1186339E+00
        -11   -1    0    0    0    0  0.00000000000E+00  0.00000000000E+00  0.45593999997E+02  0.45594000000E+02  0.51100000000E-03 0. -1.
         11   -1    0    0    0    0 -0.00000000000E+00 -0.00000000000E+00 -0.45593999997E+02  0.45594000000E+02  0.51100000000E-03 0.  1.
    9900012    2    1    2    0    0 -0.94742503618E+00  0.46752216263E+00 -0.52604580727E+00  0.90007781646E+02  0.90000043564E+02 0.  0.
         12    1    1    2    0    0  0.94742503618E+00 -0.46752216263E+00  0.52604580727E+00  0.11802183540E+01  0.00000000000E+00 0. -1.
         11    1    3    3    0    0  0.33501866519E+01  0.16748585903E+02  0.35381664617E+01  0.17442978603E+02  0.51100000000E-03 0. -1.
        -11    1    3    3    0    0 -0.82686387198E+01  0.19085076970E+02  0.20593035255E+02  0.29269158691E+02  0.51100000000E-03 0.  1.
         12    1    3    3    0    0  0.39710270318E+01 -0.35366140710E+02 -0.24657247524E+02  0.43295644352E+02  0.00000000000E+00 0. -1.
</event>
<event>
 7    1  0.2285268E-015  0.9000773E+02  0.7816164E-02  0.1186339E+00
        -11   -1    0    0    0    0  0.00000000000E+00  0.00000000000E+00  0.45593999997E+02  0.45594000000E+02  0.51100000000E-03 0. -1.
         11   -1    0    0    0    0 -0.00000000000E+00 -0.00000000000E+00 -0.45593999997E+02  0.45594000000E+02  0.51100000000E-03 0.  1.
    9900012    2    1    2    0    0  0.97135849708E+00  0.56557781099E+00 -0.36002380222E+00  0.90007731925E+02  0.89999993187E+02 0.  0.
         12    1    1    2    0    0 -0.97135849708E+00 -0.56557781099E+00  0.36002380222E+00  0.11802680748E+01  0.00000000000E+00 0. -1.
         11    1    3    3    0    0 -0.47496204969E+01 -0.59055066787E+01  0.58548887330E+01  0.95767231522E+01  0.51100000000E-03 0. -1.
        -11    1    3    3    0    0  0.19226893027E+02  0.37605408968E+02  0.90890286133E+01  0.43202437900E+02  0.51100000000E-03 0.  1.
         12    1    3    3    0    0 -0.13505914033E+02 -0.31134324478E+02 -0.15303941149E+02  0.37228570873E+02  0.00000000000E+00 0. -1.
</event>
<event>
 7    1  0.2285268E-015  0.9000773E+02  0.7816164E-02  0.1186339E+00
        -11   -1    0    0    0    0  0.00000000000E+00  0.00000000000E+00  0.45593999997E+02  0.45594000000E+02  0.51100000000E-03 0. -1.
         11   -1    0    0    0    0 -0.00000000000E+00 -0.00000000000E+00 -0.45593999997E+02  0.45594000000E+02  0.51100000000E-03 0.  1.
    9900012    2    1    2    0    0  0.98209418174E+00 -0.43288155707E-01 -0.65318841421E+00  0.90007729713E+02  0.89999990945E+02 0.  0.
         12    1    1    2    0    0 -0.98209418174E+00  0.43288155707E-01  0.65318841421E+00  0.11802702871E+01  0.00000000000E+00 0. -1.
         11    1    3    3    0    0  0.10097698275E+02  0.97637626541E+01  0.32688688892E+02  0.35578714892E+02  0.51100000000E-03 0. -1.
        -11    1    3    3    0    0  0.12436162418E+01  0.43534643731E+01  0.81816676381E+01  0.93508779805E+01  0.51100000000E-03 0.  1.
        -12    1    3    3    0    0 -0.10359220335E+02 -0.14160515183E+02 -0.41523544945E+02  0.45078136840E+02  0.00000000000E+00 0.  1.
</event>
<event>
 7    1  0.2285268E-015  0.9000778E+02  0.7816164E-02  0.1186339E+00
        -11   -1    0    0    0    0  0.00000000000E+00  0.00000000000E+00  0.45593999997E+02  0.45594000000E+02  0.51100000000E-03 0.  1.
         11   -1    0    0    0    0 -0.00000000000E+00 -0.00000000000E+00 -0.45593999997E+02  0.45594000000E+02  0.51100000000E-03 0. -1.
    9900012    2    1    2    0    0  0.38788460712E-01  0.36091235999E+00  0.11230157964E+01  0.90007776820E+02  0.90000038674E+02 0.  0.
         12    1    1    2    0    0 -0.38788460712E-01 -0.36091235999E+00 -0.11230157964E+01  0.11802231803E+01  0.00000000000E+00 0. -1.
         11    1    3    3    0    0 -0.18878079076E+01 -0.99163520724E+01 -0.61941939240E+01  0.11843390382E+02  0.51100000000E-03 0. -1.
        -11    1    3    3    0    0 -0.51580193767E+00 -0.10191494877E+02  0.39029265506E+02  0.40341246704E+02  0.51100000000E-03 0.  1.
         12    1    3    3    0    0  0.24423983060E+01  0.20468759310E+02 -0.31712055785E+02  0.37823139733E+02  0.00000000000E+00 0. -1.
</event>
<event>
 7    1  0.2285268E-015  0.9000767E+02  0.7816164E-02  0.1186339E+00
        -11   -1    0    0    0    0  0.00000000000E+00  0.00000000000E+00  0.45593999997E+02  0.45594000000E+02  0.51100000000E-03 0. -1.
         11   -1    0    0    0    0 -0.00000000000E+00 -0.00000000000E+00 -0.45593999997E+02  0.45594000000E+02  0.51100000000E-03 0.  1.
    9900012    2    1    2    0    0 -0.24172781449E+00  0.15134983407E+00 -0.11453581439E+01  0.90007667680E+02  0.89999928093E+02 0.  0.
         12    1    1    2    0    0  0.24172781449E+00 -0.15134983407E+00  0.11453581439E+01  0.11803323203E+01  0.00000000000E+00 0. -1.
         11    1    3    3    0    0 -0.50770466885E+01  0.29901396334E+02  0.20059548236E+02  0.36362829668E+02  0.51100000000E-03 0. -1.
        -11    1    3    3    0    0  0.21820228361E+01  0.90855185013E+01 -0.54952896872E-01  0.93440296541E+01  0.51100000000E-03 0.  1.
        -12    1    3    3    0    0  0.26532960380E+01 -0.38835565001E+02 -0.21149953483E+02  0.44300808358E+02  0.00000000000E+00 0.  1.
</event>
<event>
 7    1  0.2285268E-015  0.9000790E+02  0.7816164E-02  0.1186339E+00
        -11   -1    0    0    0    0  0.00000000000E+00  0.00000000000E+00  0.45593999997E+02  0.45594000000E+02  0.51100000000E-03 0. -1.
         11   -1    0    0    0    0 -0.00000000000E+00 -0.00000000000E+00 -0.45593999997E+02  0.45594000000E+02  0.51100000000E-03 0.  1.
    9900012    2    1    2    0    0  0.59629379154E+00 -0.10041545598E+01 -0.16951655232E+00  0.90007903170E+02  0.90000166692E+02 0.  0.
         12    1    1    2    0    0 -0.59629379154E+00  0.10041545598E+01  0.16951655232E+00  0.11800968296E+01  0.00000000000E+00 0. -1.
         11    1    3    3    0    0  0.83123076380E+01  0.79926577838E+00  0.77183672249E+01  0.11371300582E+02  0.51100000000E-03 0. -1.
        -11    1    3    3    0    0  0.32661058935E+02 -0.11167443446E+02  0.57684353007E+01  0.34996162789E+02  0.51100000000E-03 0.  1.
         12    1    3    3    0    0 -0.40377072781E+02  0.93640231078E+01 -0.13656319078E+02  0.43640439799E+02  0.00000000000E+00 0. -1.
</event>
<event>
 7    1  0.2285268E-015  0.9000760E+02  0.7816164E-02  0.1186339E+00
        -11   -1    0    0    0    0  0.00000000000E+00  0.00000000000E+00  0.45593999997E+02  0.45594000000E+02  0.51100000000E-03 0.  1.
         11   -1    0    0    0    0 -0.00000000000E+00 -0.00000000000E+00 -0.45593999997E+02  0.45594000000E+02  0.51100000000E-03 0. -1.
    9900012    2    1    2    0    0 -0.61537459924E+00 -0.96856083343E+00 -0.27667155091E+00  0.90007600435E+02  0.89999859961E+02 0.  0.
         12    1    1    2    0    0  0.61537459924E+00  0.96856083343E+00  0.27667155091E+00  0.11803995648E+01  0.00000000000E+00 0. -1.
         11    1    3    3    0    0  0.17136809891E+02 -0.28960681152E+01 -0.10786863140E+02  0.20455167573E+02  0.51100000000E-03 0. -1.
        -11    1    3    3    0    0  0.93939219481E+01 -0.25343590967E+02  0.14833552374E+02  0.30831439294E+02  0.51100000000E-03 0.  1.
         12    1    3    3    0    0 -0.27146106438E+02  0.27271098248E+02 -0.43233607848E+01  0.38720993568E+02  0.00000000000E+00 0. -1.
</event>
<event>
 7    1  0.2285268E-015  0.9000770E+02  0.7816164E-02  0.1186339E+00
        -11   -1    0    0    0    0  0.00000000000E+00  0.00000000000E+00  0.45593999997E+02  0.45594000000E+02  0.51100000000E-03 0. -1.
         11   -1    0    0    0    0 -0.00000000000E+00 -0.00000000000E+00 -0.45593999997E+02  0.45594000000E+02  0.51100000000E-03 0.  1.
    9900012    2    1    2    0    0 -0.15423701314E+00 -0.99100230029E+00  0.62228324038E+00  0.90007698747E+02  0.89999959571E+02 0.  0.
         12    1    1    2    0    0  0.15423701314E+00  0.99100230029E+00 -0.62228324038E+00  0.11803012525E+01  0.00000000000E+00 0. -1.
         11    1    3    3    0    0  0.52295302135E+01  0.14204403228E+02  0.30499981074E+01  0.15440710672E+02  0.51100000000E-03 0. -1.
        -11    1    3    3    0    0  0.29949875135E+02 -0.10408956957E+02 -0.17083085283E+02  0.36016290877E+02  0.51100000000E-03 0.  1.
         12    1    3    3    0    0 -0.35333642361E+02 -0.47864485717E+01  0.14655370416E+02  0.38550697198E+02  0.00000000000E+00 0. -1.
</event>
<event>
 7    1  0.2285268E-015  0.9000774E+02  0.7816164E-02  0.1186339E+00
        -11   -1    0    0    0    0  0.00000000000E+00  0.00000000000E+00  0.45593999997E+02  0.45594000000E+02  0.51100000000E-03 0. -1.
         11   -1    0    0    0    0 -0.00000000000E+00 -0.00000000000E+00 -0.45593999997E+02  0.45594000000E+02  0.51100000000E-03 0.  1.
    9900012    2    1    2    0    0 -0.11194952604E+01 -0.37353186993E+00  0.14918172973E-01  0.90007738060E+02  0.89999999402E+02 0.  0.
         12    1    1    2    0    0  0.11194952604E+01  0.37353186993E+00 -0.14918172973E-01  0.11802619403E+01  0.00000000000E+00 0. -1.
         11    1    3    3    0    0  0.31962642339E+02  0.59141813858E+01  0.35996546359E+01  0.32703907420E+02  0.51100000000E-03 0. -1.
        -11    1    3    3    0    0  0.62782734741E+01  0.10198724615E+02 -0.79998036910E+01  0.14402345675E+02  0.51100000000E-03 0.  1.
        -12    1    3    3    0    0 -0.39360411074E+02 -0.16486437870E+02  0.44150672280E+01  0.42901484965E+02  0.00000000000E+00 0.  1.
</event>
<event>
 7    1  0.2285268E-015  0.9000784E+02  0.7816164E-02  0.1186339E+00
        -11   -1    0    0    0    0  0.00000000000E+00  0.00000000000E+00  0.45593999997E+02  0.45594000000E+02  0.51100000000E-03 0. -1.
         11   -1    0    0    0    0 -0.00000000000E+00 -0.00000000000E+00 -0.45593999997E+02  0.45594000000E+02  0.51100000000E-03 0.  1.
    9900012    2    1    2    0    0  0.10803269181E+01  0.39114550699E+00 -0.26956488115E+00  0.90007844806E+02  0.90000107557E+02 0.  0.
         12    1    1    2    0    0 -0.10803269181E+01 -0.39114550699E+00  0.26956488115E+00  0.11801551944E+01  0.00000000000E+00 0. -1.
         11    1    3    3    0    0  0.83738200693E+00  0.18280717609E+01 -0.15124736037E+02  0.15257807688E+02  0.51100000000E-03 0. -1.
        -11    1    3    3    0    0  0.20309873722E+02  0.16801054260E+02 -0.18173280896E+02  0.32016160507E+02  0.51100000000E-03 0.  1.
         12    1    3    3    0    0 -0.20066928811E+02 -0.18237980514E+02  0.33028452052E+02  0.42733876610E+02  0.00000000000E+00 0. -1.
</event>
<event>
 7    1  0.2285268E-015  0.9000772E+02  0.7816164E-02  0.1186339E+00
        -11   -1    0    0    0    0  0.00000000000E+00  0.00000000000E+00  0.45593999997E+02  0.45594000000E+02  0.51100000000E-03 0.  1.
         11   -1    0    0    0    0 -0.00000000000E+00 -0.00000000000E+00 -0.45593999997E+02  0.45594000000E+02  0.51100000000E-03 0. -1.
    9900012    2    1    2    0    0 -0.42335100279E+00 -0.10110958085E+01  0.43762000505E+00  0.90007723730E+02  0.89999984883E+02 0.  0.
         12    1    1    2    0    0  0.42335100279E+00  0.10110958085E+01 -0.43762000505E+00  0.11802762703E+01  0.00000000000E+00 0. -1.
         11    1    3    3    0    0  0.30319851699E+02 -0.19069557102E+02 -0.11017601824E+02  0.37474377451E+02  0.51100000000E-03 0. -1.
        -11    1    3    3    0    0  0.37226341469E+01 -0.73284207499E+01 -0.38324941162E-02  0.82197184032E+01  0.51100000000E-03 0.  1.
        -12    1    3    3    0    0 -0.34465836848E+02  0.25386882044E+02  0.11459054323E+02  0.44313627876E+02  0.00000000000E+00 0.  1.
</event>
<event>
 7    1  0.2285268E-015  0.9000772E+02  0.7816164E-02  0.1186339E+00
        -11   -1    0    0    0    0  0.00000000000E+00  0.00000000000E+00  0.45593999997E+02  0.45594000000E+02  0.51100000000E-03 0.  1.
         11   -1    0    0    0    0 -0.00000000000E+00 -0.00000000000E+00 -0.45593999997E+02  0.45594000000E+02  0.51100000000E-03 0. -1.
    9900012    2    1    2    0    0  0.98630503083E+00  0.28773069481E+00 -0.58092947255E+00  0.90007717992E+02  0.89999979069E+02 0.  0.
         12    1    1    2    0    0 -0.98630503083E+00 -0.28773069481E+00  0.58092947255E+00  0.11802820081E+01  0.00000000000E+00 0. -1.
         11    1    3    3    0    0  0.33922162098E+02  0.14658937765E+02 -0.14152348064E+02  0.39571283702E+02  0.51100000000E-03 0. -1.
        -11    1    3    3    0    0  0.80388583958E+00  0.40379325678E+01 -0.60222079328E+01  0.72950750861E+01  0.51100000000E-03 0.  1.
        -12    1    3    3    0    0 -0.33739742907E+02 -0.18409139638E+02  0.19593626524E+02  0.43141359204E+02  0.00000000000E+00 0.  1.
</event>
<event>
 7    1  0.2930650E-015  0.9000772E+02  0.7816164E-02  0.1186339E+00
        -11   -1    0    0    0    0  0.00000000000E+00  0.00000000000E+00  0.45593999997E+02  0.45594000000E+02  0.51100000000E-03 0.  1.
         11   -1    0    0    0    0 -0.00000000000E+00 -0.00000000000E+00 -0.45593999997E+02  0.45594000000E+02  0.51100000000E-03 0. -1.
    9900012    2    1    2    0    0 -0.11384843018E+01  0.25696955814E+00  0.17574013859E+00  0.90007718485E+02  0.89999979569E+02 0.  0.
         12    1    1    2    0    0  0.11384843018E+01 -0.25696955814E+00 -0.17574013859E+00  0.11802815154E+01  0.00000000000E+00 0. -1.
         11    1    3    3    0    0  0.37403458919E+01 -0.12873702333E+01  0.89455350206E+01  0.97811096801E+01  0.51100000000E-03 0. -1.
        -11    1    3    3    0    0 -0.19196149278E+01  0.32935669307E+01  0.35559988630E+02  0.35763742761E+02  0.51100000000E-03 0.  1.
         12    1    3    3    0    0 -0.29592152659E+01 -0.17492271393E+01 -0.44329783512E+02  0.44462866044E+02  0.00000000000E+00 0. -1.
</event>
<event>
 7    1  0.2285268E-015  0.9000775E+02  0.7816164E-02  0.1186339E+00
        -11   -1    0    0    0    0  0.00000000000E+00  0.00000000000E+00  0.45593999997E+02  0.45594000000E+02  0.51100000000E-03 0.  1.
         11   -1    0    0    0    0 -0.00000000000E+00 -0.00000000000E+00 -0.45593999997E+02  0.45594000000E+02  0.51100000000E-03 0. -1.
    9900012    2    1    2    0    0  0.90718370232E+00  0.75474204997E+00  0.19109550152E-01  0.90007752989E+02  0.90000014529E+02 0.  0.
         12    1    1    2    0    0 -0.90718370232E+00 -0.75474204997E+00 -0.19109550152E-01  0.11802470109E+01  0.00000000000E+00 0. -1.
         11    1    3    3    0    0 -0.32142099556E+01  0.21371164259E+02 -0.39001482204E+02  0.44588938334E+02  0.51100000000E-03 0. -1.
        -11    1    3    3    0    0  0.61023458305E+00 -0.49302605705E+00  0.94274850201E+01  0.94600705603E+01  0.51100000000E-03 0.  1.
        -12    1    3    3    0    0  0.35111590749E+01 -0.20123396152E+02  0.29593106734E+02  0.35958744095E+02  0.00000000000E+00 0.  1.
</event>
<event>
 7    1  0.2285268E-015  0.9000774E+02  0.7816164E-02  0.1186339E+00
        -11   -1    0    0    0    0  0.00000000000E+00  0.00000000000E+00  0.45593999997E+02  0.45594000000E+02  0.51100000000E-03 0. -1.
         11   -1    0    0    0    0 -0.00000000000E+00 -0.00000000000E+00 -0.45593999997E+02  0.45594000000E+02  0.51100000000E-03 0.  1.
    9900012    2    1    2    0    0 -0.12934172603E+00  0.74001004604E+00 -0.91031465559E+00  0.90007738621E+02  0.89999999971E+02 0.  0.
         12    1    1    2    0    0  0.12934172603E+00 -0.74001004604E+00  0.91031465559E+00  0.11802613789E+01  0.00000000000E+00 0. -1.
         11    1    3    3    0    0 -0.89515223124E+01 -0.28495073261E+02  0.18819658769E+02  0.35302669988E+02  0.51100000000E-03 0. -1.
        -11    1    3    3    0    0  0.76198405525E+00 -0.92024487498E+01  0.25134840238E+01  0.95699156157E+01  0.51100000000E-03 0.  1.
        -12    1    3    3    0    0  0.80601965311E+01  0.38437532056E+02 -0.22243457448E+02  0.45135153018E+02  0.00000000000E+00 0.  1.
</event>
<event>
 7    1  0.2285268E-015  0.9000754E+02  0.7816164E-02  0.1186339E+00
        -11   -1    0    0    0    0  0.00000000000E+00  0.00000000000E+00  0.45593999997E+02  0.45594000000E+02  0.51100000000E-03 0. -1.
         11   -1    0    0    0    0 -0.00000000000E+00 -0.00000000000E+00 -0.45593999997E+02  0.45594000000E+02  0.51100000000E-03 0.  1.
    9900012    2    1    2    0    0 -0.64281511405E+00  0.62641305039E+00 -0.76673661651E+00  0.90007538387E+02  0.89999797094E+02 0.  0.
         12    1    1    2    0    0  0.64281511405E+00 -0.62641305039E+00  0.76673661651E+00  0.11804616129E+01  0.00000000000E+00 0. -1.
         11    1    3    3    0    0 -0.12894305853E+02 -0.14764189014E+02 -0.29682661621E+01  0.19825614870E+02  0.51100000000E-03 0. -1.
        -11    1    3    3    0    0 -0.13180517871E+02 -0.20576340730E+02 -0.64889935298E+01  0.25282778456E+02  0.51100000000E-03 0.  1.
         12    1    3    3    0    0  0.25432008610E+02  0.35966942794E+02  0.86905230754E+01  0.44899145061E+02  0.00000000000E+00 0. -1.
</event>
<event>
 7    1  0.2285268E-015  0.9000668E+02  0.7816164E-02  0.1186341E+00
        -11   -1    0    0    0    0  0.00000000000E+00  0.00000000000E+00  0.45593999997E+02  0.45594000000E+02  0.51100000000E-03 0.  1.
         11   -1    0    0    0    0 -0.00000000000E+00 -0.00000000000E+00 -0.45593999997E+02  0.45594000000E+02  0.51100000000E-03 0. -1.
    9900012    2    1    2    0    0  0.68286036781E+00  0.20140613038E+00  0.94268482307E+00  0.90006679812E+02  0.89998927179E+02 0.  0.
         12    1    1    2    0    0 -0.68286036781E+00 -0.20140613038E+00 -0.94268482307E+00  0.11813201881E+01  0.00000000000E+00 0. -1.
         11    1    3    3    0    0 -0.66683442977E+01  0.57406109777E+01  0.22750112146E+01  0.90882950192E+01  0.51100000000E-03 0. -1.
        -11    1    3    3    0    0 -0.23858620807E+02 -0.21804770910E+02  0.21634096183E+02  0.38893649085E+02  0.51100000000E-03 0.  1.
         12    1    3    3    0    0  0.31209825473E+02  0.16265566062E+02 -0.22966422575E+02  0.42024735707E+02  0.00000000000E+00 0. -1.
</event>
<event>
 7    1  0.2285268E-015  0.9000809E+02  0.7816164E-02  0.1186338E+00
        -11   -1    0    0    0    0  0.00000000000E+00  0.00000000000E+00  0.45593999997E+02  0.45594000000E+02  0.51100000000E-03 0.  1.
         11   -1    0    0    0    0 -0.00000000000E+00 -0.00000000000E+00 -0.45593999997E+02  0.45594000000E+02  0.51100000000E-03 0. -1.
    9900012    2    1    2    0    0  0.44579760384E-01 -0.11692940258E+01  0.15151096966E+00  0.90008088373E+02  0.90000354339E+02 0.  0.
         12    1    1    2    0    0 -0.44579760384E-01  0.11692940258E+01 -0.15151096966E+00  0.11799116271E+01  0.00000000000E+00 0. -1.
         11    1    3    3    0    0 -0.29691354180E+01  0.61995903453E+01  0.61397512474E+01  0.92166822242E+01  0.51100000000E-03 0. -1.
        -11    1    3    3    0    0  0.29364448040E+02  0.20558635258E+02 -0.18589967207E+02  0.40379638103E+02  0.51100000000E-03 0.  1.
         12    1    3    3    0    0 -0.26350732862E+02 -0.27927519629E+02  0.12601726929E+02  0.40411768045E+02  0.00000000000E+00 0. -1.
</event>
<event>
 7    1  0.2285268E-015  0.9000776E+02  0.7816164E-02  0.1186339E+00
        -11   -1    0    0    0    0  0.00000000000E+00  0.00000000000E+00  0.45593999997E+02  0.45594000000E+02  0.51100000000E-03 0. -1.
         11   -1    0    0    0    0 -0.00000000000E+00 -0.00000000000E+00 -0.45593999997E+02  0.45594000000E+02  0.51100000000E-03 0.  1.
    9900012    2    1    2    0    0 -0.11255807670E+01  0.23265546576E+00 -0.26813267493E+00  0.90007764532E+02  0.90000026224E+02 0.  0.
         12    1    1    2    0    0  0.11255807670E+01 -0.23265546576E+00  0.26813267493E+00  0.11802354681E+01  0.00000000000E+00 0. -1.
         11    1    3    3    0    0 -0.92819925479E+01 -0.69747375942E+01 -0.16781798433E+01  0.11731097051E+02  0.51100000000E-03 0. -1.
        -11    1    3    3    0    0 -0.51992114004E+01  0.27944137674E+02 -0.27995845918E+02  0.39895789482E+02  0.51100000000E-03 0.  1.
         12    1    3    3    0    0  0.13355623181E+02 -0.20736744614E+02  0.29405893086E+02  0.38380877999E+02  0.00000000000E+00 0. -1.
</event>
<event>
 7    1  0.2285268E-015  0.9000773E+02  0.7816164E-02  0.1186339E+00
        -11   -1    0    0    0    0  0.00000000000E+00  0.00000000000E+00  0.45593999997E+02  0.45594000000E+02  0.51100000000E-03 0. -1.
         11   -1    0    0    0    0 -0.00000000000E+00 -0.00000000000E+00 -0.45593999997E+02  0.45594000000E+02  0.51100000000E-03 0.  1.
    9900012    2    1    2    0    0 -0.72239109084E+00  0.92413192304E+00 -0.13106314141E+00  0.90007726199E+02  0.89999987384E+02 0.  0.
         12    1    1    2    0    0  0.72239109084E+00 -0.92413192304E+00  0.13106314141E+00  0.11802738014E+01  0.00000000000E+00 0. -1.
         11    1    3    3    0    0 -0.31582012342E+02  0.22560670863E+00  0.18280015076E+02  0.36491551809E+02  0.51100000000E-03 0. -1.
        -11    1    3    3    0    0 -0.60922691080E+01 -0.68662776065E+00  0.64960199367E+01  0.89322715949E+01  0.51100000000E-03 0.  1.
        -12    1    3    3    0    0  0.36951890360E+02  0.13851529751E+01 -0.24907098155E+02  0.44583902795E+02  0.00000000000E+00 0.  1.
</event>
<event>
 7    1  0.2285268E-015  0.9000782E+02  0.7816164E-02  0.1186339E+00
        -11   -1    0    0    0    0  0.00000000000E+00  0.00000000000E+00  0.45593999997E+02  0.45594000000E+02  0.51100000000E-03 0. -1.
         11   -1    0    0    0    0 -0.00000000000E+00 -0.00000000000E+00 -0.45593999997E+02  0.45594000000E+02  0.51100000000E-03 0.  1.
    9900012    2    1    2    0    0 -0.26393117151E+00 -0.58027816859E+00 -0.99319979696E+00  0.90007818551E+02  0.90000080956E+02 0.  0.
         12    1    1    2    0    0  0.26393117151E+00  0.58027816859E+00  0.99319979696E+00  0.11801814492E+01  0.00000000000E+00 0. -1.
         11    1    3    3    0    0 -0.18607628833E+02  0.16196588858E+02  0.22101577149E+02  0.33121791228E+02  0.51100000000E-03 0. -1.
        -11    1    3    3    0    0 -0.95739628503E+01 -0.12479210168E+01 -0.22995249224E+02  0.24939918978E+02  0.51100000000E-03 0.  1.
        -12    1    3    3    0    0  0.27917660512E+02 -0.15528946009E+02 -0.99527722190E-01  0.31946108345E+02  0.00000000000E+00 0.  1.
</event>
<event>
 7    1  0.2285268E-015  0.9000768E+02  0.7816164E-02  0.1186339E+00
        -11   -1    0    0    0    0  0.00000000000E+00  0.00000000000E+00  0.45593999997E+02  0.45594000000E+02  0.51100000000E-03 0.  1.
         11   -1    0    0    0    0 -0.00000000000E+00 -0.00000000000E+00 -0.45593999997E+02  0.45594000000E+02  0.51100000000E-03 0. -1.
    9900012    2    1    2    0    0 -0.29251765611E+00 -0.83828484003E+00  0.77772662242E+00  0.90007683622E+02  0.89999944246E+02 0.  0.
         12    1    1    2    0    0  0.29251765611E+00  0.83828484003E+00 -0.77772662242E+00  0.11803163777E+01  0.00000000000E+00 0. -1.
         11    1    3    3    0    0  0.58846230225E+01 -0.14983792603E+01  0.33606705066E+01  0.69403195200E+01  0.51100000000E-03 0. -1.
        -11    1    3    3    0    0  0.31949555446E+02 -0.98393880399E+01  0.18546728320E+02  0.38230469286E+02  0.51100000000E-03 0.  1.
         12    1    3    3    0    0 -0.38126696124E+02  0.10499482460E+02 -0.21129672204E+02  0.44836894816E+02  0.00000000000E+00 0. -1.
</event>
<event>
 7    1  0.2285268E-015  0.9000841E+02  0.7816164E-02  0.1186338E+00
        -11   -1    0    0    0    0  0.00000000000E+00  0.00000000000E+00  0.45593999997E+02  0.45594000000E+02  0.51100000000E-03 0.  1.
         11   -1    0    0    0    0 -0.00000000000E+00 -0.00000000000E+00 -0.45593999997E+02  0.45594000000E+02  0.51100000000E-03 0. -1.
    9900012    2    1    2    0    0  0.21297030242E-01  0.10739754397E+00  0.11744994010E+01  0.90008408275E+02  0.90000678461E+02 0.  0.
         12    1    1    2    0    0 -0.21297030242E-01 -0.10739754397E+00 -0.11744994010E+01  0.11795917255E+01  0.00000000000E+00 0. -1.
         11    1    3    3    0    0 -0.63384489236E+01  0.20543931301E+02 -0.43260285238E+01  0.21930425694E+02  0.51100000000E-03 0. -1.
        -11    1    3    3    0    0 -0.68669577537E+01 -0.96788611236E+01  0.33364311538E+02  0.35412042388E+02  0.51100000000E-03 0.  1.
        -12    1    3    3    0    0  0.13226703708E+02 -0.10757672633E+02 -0.27863783613E+02  0.32665940193E+02  0.00000000000E+00 0.  1.
</event>
<event>
 7    1  0.2285268E-015  0.9000771E+02  0.7816164E-02  0.1186339E+00
        -11   -1    0    0    0    0  0.00000000000E+00  0.00000000000E+00  0.45593999997E+02  0.45594000000E+02  0.51100000000E-03 0. -1.
         11   -1    0    0    0    0 -0.00000000000E+00 -0.00000000000E+00 -0.45593999997E+02  0.45594000000E+02  0.51100000000E-03 0.  1.
    9900012    2    1    2    0    0  0.39885643946E+00  0.36267261179E+00 -0.10499814338E+01  0.90007712368E+02  0.89999973371E+02 0.  0.
         12    1    1    2    0    0 -0.39885643946E+00 -0.36267261179E+00  0.10499814338E+01  0.11802876319E+01  0.00000000000E+00 0. -1.
         11    1    3    3    0    0 -0.10941252198E+02  0.38331580830E+02  0.12234459528E+02  0.41697758798E+02  0.51100000000E-03 0. -1.
        -11    1    3    3    0    0  0.68052117774E+01  0.89782490242E+00  0.34766971068E+00  0.68729812585E+01  0.51100000000E-03 0.  1.
        -12    1    3    3    0    0  0.45348968596E+01 -0.38866733120E+02 -0.13632110673E+02  0.41436972312E+02  0.00000000000E+00 0.  1.
</event>
<event>
 7    1  0.2285268E-015  0.9000767E+02  0.7816164E-02  0.1186339E+00
        -11   -1    0    0    0    0  0.00000000000E+00  0.00000000000E+00  0.45593999997E+02  0.45594000000E+02  0.51100000000E-03 0.  1.
         11   -1    0    0    0    0 -0.00000000000E+00 -0.00000000000E+00 -0.45593999997E+02  0.45594000000E+02  0.51100000000E-03 0. -1.
    9900012    2    1    2    0    0  0.93277852382E+00 -0.66170823212E+00 -0.29195704323E+00  0.90007672726E+02  0.89999933206E+02 0.  0.
         12    1    1    2    0    0 -0.93277852382E+00  0.66170823212E+00  0.29195704323E+00  0.11803272741E+01  0.00000000000E+00 0. -1.
         11    1    3    3    0    0  0.27758761181E+02 -0.19603417953E+02  0.13286711179E+02  0.36488073557E+02  0.51100000000E-03 0. -1.
        -11    1    3    3    0    0  0.10506883206E+02  0.28140630633E+01 -0.86686308172E+00  0.10911690863E+02  0.51100000000E-03 0.  1.
        -12    1    3    3    0    0 -0.37332865863E+02  0.16127646657E+02 -0.12711805140E+02  0.42607908305E+02  0.00000000000E+00 0.  1.
</event>
<event>
 7    1  0.2285268E-015  0.9000773E+02  0.7816164E-02  0.1186339E+00
        -11   -1    0    0    0    0  0.00000000000E+00  0.00000000000E+00  0.45593999997E+02  0.45594000000E+02  0.51100000000E-03 0.  1.
         11   -1    0    0    0    0 -0.00000000000E+00 -0.00000000000E+00 -0.45593999997E+02  0.45594000000E+02  0.51100000000E-03 0. -1.
    9900012    2    1    2    0    0 -0.11404641544E+01 -0.12643821735E-02  0.30393249134E+00  0.90007730944E+02  0.89999992192E+02 0.  0.
         12    1    1    2    0    0  0.11404641544E+01  0.12643821735E-02 -0.30393249134E+00  0.11802690563E+01  0.00000000000E+00 0. -1.
         11    1    3    3    0    0 -0.15740965371E+01  0.99603274595E+01  0.95688310808E-01  0.10084396835E+02  0.51100000000E-03 0. -1.
        -11    1    3    3    0    0 -0.13060367786E+02  0.15177099161E+02  0.31658927452E+02  0.37459381112E+02  0.51100000000E-03 0.  1.
         12    1    3    3    0    0  0.13494000168E+02 -0.25138691003E+02 -0.31450683271E+02  0.42463952997E+02  0.00000000000E+00 0. -1.
</event>
<event>
 7    1  0.2285268E-015  0.9000848E+02  0.7816164E-02  0.1186338E+00
        -11   -1    0    0    0    0  0.00000000000E+00  0.00000000000E+00  0.45593999997E+02  0.45594000000E+02  0.51100000000E-03 0.  1.
         11   -1    0    0    0    0 -0.00000000000E+00 -0.00000000000E+00 -0.45593999997E+02  0.45594000000E+02  0.51100000000E-03 0. -1.
    9900012    2    1    2    0    0  0.17863958464E+00 -0.11316961153E+01  0.28041204753E+00  0.90008475047E+02  0.90000746114E+02 0.  0.
         12    1    1    2    0    0 -0.17863958464E+00  0.11316961153E+01 -0.28041204753E+00  0.11795249531E+01  0.00000000000E+00 0. -1.
         11    1    3    3    0    0 -0.26951779442E+01  0.11139350435E+02 -0.25310800200E+02  0.27784630991E+02  0.51100000000E-03 0. -1.
        -11    1    3    3    0    0  0.26982048178E+02  0.40888007115E+01  0.92273372091E+01  0.28807862943E+02  0.51100000000E-03 0.  1.
         12    1    3    3    0    0 -0.24108230649E+02 -0.16359847262E+02  0.16363875039E+02  0.33415981113E+02  0.00000000000E+00 0. -1.
</event>
<event>
 7    1  0.2285268E-015  0.9000772E+02  0.7816164E-02  0.1186339E+00
        -11   -1    0    0    0    0  0.00000000000E+00  0.00000000000E+00  0.45593999997E+02  0.45594000000E+02  0.51100000000E-03 0.  1.
         11   -1    0    0    0    0 -0.00000000000E+00 -0.00000000000E+00 -0.45593999997E+02  0.45594000000E+02  0.51100000000E-03 0. -1.
    9900012    2    1    2    0    0 -0.79995004918E+00  0.77699931473E+00  0.38653269632E+00  0.90007722261E+02  0.89999983395E+02 0.  0.
         12    1    1    2    0    0  0.79995004918E+00 -0.77699931473E+00 -0.38653269632E+00  0.11802777392E+01  0.00000000000E+00 0. -1.
         11    1    3    3    0    0 -0.46659493286E+01  0.17489684945E+01 -0.72422217570E+01  0.87908901807E+01  0.51100000000E-03 0. -1.
        -11    1    3    3    0    0  0.15101165582E+01 -0.22672372406E+02  0.37724190289E+02  0.44038976552E+02  0.51100000000E-03 0.  1.
         12    1    3    3    0    0  0.23558827212E+01  0.21700403226E+02 -0.30095435835E+02  0.37177855528E+02  0.00000000000E+00 0. -1.
</event>
<event>
 7    1  0.2285268E-015  0.9000769E+02  0.7816164E-02  0.1186339E+00
        -11   -1    0    0    0    0  0.00000000000E+00  0.00000000000E+00  0.45593999997E+02  0.45594000000E+02  0.51100000000E-03 0.  1.
         11   -1    0    0    0    0 -0.00000000000E+00 -0.00000000000E+00 -0.45593999997E+02  0.45594000000E+02  0.51100000000E-03 0. -1.
    9900012    2    1    2    0    0  0.64025807863E+00  0.72323014266E+00  0.67834009610E+00  0.90007687528E+02  0.89999948203E+02 0.  0.
         12    1    1    2    0    0 -0.64025807863E+00 -0.72323014266E+00 -0.67834009610E+00  0.11803124724E+01  0.00000000000E+00 0. -1.
         11    1    3    3    0    0  0.25010390153E+02 -0.13406130221E+02 -0.28482083259E+02  0.40205385338E+02  0.51100000000E-03 0. -1.
        -11    1    3    3    0    0 -0.10946081235E+02  0.59720904998E+01 -0.40118965515E+01  0.13098773742E+02  0.51100000000E-03 0.  1.
        -12    1    3    3    0    0 -0.13424050839E+02  0.81572698643E+01  0.33172319906E+02  0.36703528448E+02  0.00000000000E+00 0.  1.
</event>
<event>
 7    1  0.2285268E-015  0.9000773E+02  0.7816164E-02  0.1186339E+00
        -11   -1    0    0    0    0  0.00000000000E+00  0.00000000000E+00  0.45593999997E+02  0.45594000000E+02  0.51100000000E-03 0.  1.
         11   -1    0    0    0    0 -0.00000000000E+00 -0.00000000000E+00 -0.45593999997E+02  0.45594000000E+02  0.51100000000E-03 0. -1.
    9900012    2    1    2    0    0 -0.11258252692E+00 -0.86901825090E+00  0.79067545240E+00  0.90007730871E+02  0.89999992119E+02 0.  0.
         12    1    1    2    0    0  0.11258252692E+00  0.86901825090E+00 -0.79067545240E+00  0.11802691290E+01  0.00000000000E+00 0. -1.
         11    1    3    3    0    0 -0.91584927354E+01 -0.37188550357E+00  0.64976167396E+01  0.11235448881E+02  0.51100000000E-03 0. -1.
        -11    1    3    3    0    0  0.91166434741E+01  0.30774066465E+02  0.20404485298E+02  0.38032872302E+02  0.51100000000E-03 0.  1.
         12    1    3    3    0    0 -0.70733265645E-01 -0.31271199212E+02 -0.26111426585E+02  0.40739409687E+02  0.00000000000E+00 0. -1.
</event>
<event>
 7    1  0.2285268E-015  0.9000722E+02  0.7816164E-02  0.1186340E+00
        -11   -1    0    0    0    0  0.00000000000E+00  0.00000000000E+00  0.45593999997E+02  0.45594000000E+02  0.51100000000E-03 0. -1.
         11   -1    0    0    0    0 -0.00000000000E+00 -0.00000000000E+00 -0.45593999997E+02  0.45594000000E+02  0.51100000000E-03 0.  1.
    9900012    2    1    2    0    0  0.44884341052E+00  0.96208179876E+00 -0.51688532697E+00  0.90007223884E+02  0.89999478438E+02 0.  0.
         12    1    1    2    0    0 -0.44884341052E+00 -0.96208179876E+00  0.51688532697E+00  0.11807761159E+01  0.00000000000E+00 0. -1.
         11    1    3    3    0    0 -0.45483788559E+01  0.82970988021E+01  0.39165045869E+01  0.10240537446E+02  0.51100000000E-03 0. -1.
        -11    1    3    3    0    0 -0.30932458494E+02  0.17066727585E+02 -0.78837637288E+01  0.36197291469E+02  0.51100000000E-03 0.  1.
         12    1    3    3    0    0  0.35929680760E+02 -0.24401744588E+02  0.34503738149E+01  0.43569394969E+02  0.00000000000E+00 0. -1.
</event>
<event>
 7    1  0.2285268E-015  0.9000781E+02  0.7816164E-02  0.1186339E+00
        -11   -1    0    0    0    0  0.00000000000E+00  0.00000000000E+00  0.45593999997E+02  0.45594000000E+02  0.51100000000E-03 0.  1.
         11   -1    0    0    0    0 -0.00000000000E+00 -0.00000000000E+00 -0.45593999997E+02  0.45594000000E+02  0.51100000000E-03 0. -1.
    9900012    2    1    2    0    0 -0.97495939892E-01  0.64252043123E-01  0.11743975130E+01  0.90007812175E+02  0.90000074496E+02 0.  0.
         12    1    1    2    0    0  0.97495939892E-01 -0.64252043123E-01 -0.11743975130E+01  0.11801878248E+01  0.00000000000E+00 0. -1.
         11    1    3    3    0    0  0.26939689872E+01 -0.30655612396E+02  0.10324384376E+02  0.32459466313E+02  0.51100000000E-03 0. -1.
        -11    1    3    3    0    0 -0.26417330876E+01 -0.78983400075E+01 -0.16271170665E+02  0.18278772488E+02  0.51100000000E-03 0.  1.
        -12    1    3    3    0    0 -0.14973183953E+00  0.38618204447E+02  0.71211838017E+01  0.39269573375E+02  0.00000000000E+00 0.  1.
</event>
<event>
 7    1  0.2285268E-015  0.9000785E+02  0.7816164E-02  0.1186339E+00
        -11   -1    0    0    0    0  0.00000000000E+00  0.00000000000E+00  0.45593999997E+02  0.45594000000E+02  0.51100000000E-03 0.  1.
         11   -1    0    0    0    0 -0.00000000000E+00 -0.00000000000E+00 -0.45593999997E+02  0.45594000000E+02  0.51100000000E-03 0. -1.
    9900012    2    1    2    0    0  0.65168119622E+00 -0.74240502707E+00 -0.64568259128E+00  0.90007847631E+02  0.90000110420E+02 0.  0.
         12    1    1    2    0    0 -0.65168119622E+00  0.74240502707E+00  0.64568259128E+00  0.11801523692E+01  0.00000000000E+00 0. -1.
         11    1    3    3    0    0 -0.18900480071E+02 -0.26442366728E+02  0.22503598197E+02  0.39532756509E+02  0.51100000000E-03 0. -1.
        -11    1    3    3    0    0 -0.43613465687E+01  0.71208887663E+01  0.44852339291E+01  0.94786984537E+01  0.51100000000E-03 0.  1.
        -12    1    3    3    0    0  0.23913507836E+02  0.18579072935E+02 -0.27634514718E+02  0.40996392668E+02  0.00000000000E+00 0.  1.
</event>
<event>
 7    1  0.2285268E-015  0.9000701E+02  0.7816164E-02  0.1186340E+00
        -11   -1    0    0    0    0  0.00000000000E+00  0.00000000000E+00  0.45593999997E+02  0.45594000000E+02  0.51100000000E-03 0. -1.
         11   -1    0    0    0    0 -0.00000000000E+00 -0.00000000000E+00 -0.45593999997E+02  0.45594000000E+02  0.51100000000E-03 0.  1.
    9900012    2    1    2    0    0  0.75504143737E+00  0.39228531477E+00 -0.81899622965E+00  0.90007013055E+02  0.89999264824E+02 0.  0.
         12    1    1    2    0    0 -0.75504143737E+00 -0.39228531477E+00  0.81899622965E+00  0.11809869451E+01  0.00000000000E+00 0. -1.
         11    1    3    3    0    0  0.27115436658E+00 -0.29524727185E+02  0.17328247451E+02  0.34235233314E+02  0.51100000000E-03 0. -1.
        -11    1    3    3    0    0 -0.65342144399E+00 -0.83008011922E+01  0.62544868045E+01  0.10413878503E+02  0.51100000000E-03 0.  1.
        -12    1    3    3    0    0  0.11373085148E+01  0.38217813692E+02 -0.24401730486E+02  0.45357901239E+02  0.00000000000E+00 0.  1.
</event>
<event>
 7    1  0.2285268E-015  0.9000773E+02  0.7816164E-02  0.1186339E+00
        -11   -1    0    0    0    0  0.00000000000E+00  0.00000000000E+00  0.45593999997E+02  0.45594000000E+02  0.51100000000E-03 0.  1.
         11   -1    0    0    0    0 -0.00000000000E+00 -0.00000000000E+00 -0.45593999997E+02  0.45594000000E+02  0.51100000000E-03 0. -1.
    9900012    2    1    2    0    0  0.74182303287E+00  0.84559843990E+00  0.35736312303E+00  0.90007726076E+02  0.89999987260E+02 0.  0.
         12    1    1    2    0    0 -0.74182303287E+00 -0.84559843990E+00 -0.35736312303E+00  0.11802739239E+01  0.00000000000E+00 0. -1.
         11    1    3    3    0    0  0.35573548441E+02 -0.39414476829E+01  0.77836802553E+01  0.36627831455E+02  0.51100000000E-03 0. -1.
        -11    1    3    3    0    0  0.88111969555E+01 -0.11371045952E+00 -0.26607308937E+01  0.92048688750E+01  0.51100000000E-03 0.  1.
        -12    1    3    3    0    0 -0.43642922363E+02  0.49007565823E+01 -0.47655862385E+01  0.44175025746E+02  0.00000000000E+00 0.  1.
</event>
<event>
 7    1  0.2285268E-015  0.9000746E+02  0.7816164E-02  0.1186340E+00
        -11   -1    0    0    0    0  0.00000000000E+00  0.00000000000E+00  0.45593999997E+02  0.45594000000E+02  0.51100000000E-03 0.  1.
         11   -1    0    0    0    0 -0.00000000000E+00 -0.00000000000E+00 -0.45593999997E+02  0.45594000000E+02  0.51100000000E-03 0. -1.
    9900012    2    1    2    0    0 -0.18762124513E+00  0.90930659310E+00  0.72912893448E+00  0.90007462320E+02  0.89999720022E+02 0.  0.
         12    1    1    2    0    0  0.18762124513E+00 -0.90930659310E+00 -0.72912893448E+00  0.11805376805E+01  0.00000000000E+00 0. -1.
         11    1    3    3    0    0  0.37413418320E+02  0.11579962391E+02  0.14135086384E+02  0.41637243745E+02  0.51100000000E-03 0. -1.
        -11    1    3    3    0    0  0.78016554590E+00  0.49676417276E+01 -0.15903907668E+01  0.52740369420E+01  0.51100000000E-03 0.  1.
        -12    1    3    3    0    0 -0.38381205111E+02 -0.15638297525E+02 -0.11815566683E+02  0.43096181632E+02  0.00000000000E+00 0.  1.
</event>
<event>
 7    1  0.2285268E-015  0.9000765E+02  0.7816164E-02  0.1186339E+00
        -11   -1    0    0    0    0  0.00000000000E+00  0.00000000000E+00  0.45593999997E+02  0.45594000000E+02  0.51100000000E-03 0. -1.
         11   -1    0    0    0    0 -0.00000000000E+00 -0.00000000000E+00 -0.45593999997E+02  0.45594000000E+02  0.51100000000E-03 0.  1.
    9900012    2    1    2    0    0 -0.58159754625E+00 -0.10269276290E+01  0.19524754182E-01  0.90007653747E+02  0.89999913976E+02 0.  0.
         12    1    1    2    0    0  0.58159754625E+00  0.10269276290E+01 -0.19524754182E-01  0.11803462530E+01  0.00000000000E+00 0. -1.
         11    1    3    3    0    0  0.25403243706E+02 -0.21383186847E+02  0.17464933250E+02  0.37517853940E+02  0.51100000000E-03 0. -1.
        -11    1    3    3    0    0 -0.11625688545E+01 -0.10126076779E+02 -0.38182407656E+01  0.10884298787E+02  0.51100000000E-03 0.  1.
        -12    1    3    3    0    0 -0.24822272398E+02  0.30482335997E+02 -0.13627167730E+02  0.41605501021E+02  0.00000000000E+00 0.  1.
</event>
<event>
 7    1  0.2285268E-015  0.9000771E+02  0.7816164E-02  0.1186339E+00
        -11   -1    0    0    0    0  0.00000000000E+00  0.00000000000E+00  0.45593999997E+02  0.45594000000E+02  0.51100000000E-03 0.  1.
         11   -1    0    0    0    0 -0.00000000000E+00 -0.00000000000E+00 -0.45593999997E+02  0.45594000000E+02  0.51100000000E-03 0. -1.
    9900012    2    1    2    0    0  0.11759253487E+00 -0.11739520050E+01  0.33074125101E-01  0.90007709692E+02  0.89999970660E+02 0.  0.
         12    1    1    2    0    0 -0.11759253487E+00  0.11739520050E+01 -0.33074125101E-01  0.11802903084E+01  0.00000000000E+00 0. -1.
         11    1    3    3    0    0 -0.10187108607E+02 -0.59540520985E+01 -0.74700386182E+01  0.13965292528E+02  0.51100000000E-03 0. -1.
        -11    1    3    3    0    0 -0.25888269027E+02 -0.12256416529E+02  0.19059085934E+02  0.34404519707E+02  0.51100000000E-03 0.  1.
         12    1    3    3    0    0  0.36192970169E+02  0.17036516623E+02 -0.11555973191E+02  0.41637897457E+02  0.00000000000E+00 0. -1.
</event>
<event>
 7    1  0.2285268E-015  0.9000797E+02  0.7816164E-02  0.1186339E+00
        -11   -1    0    0    0    0  0.00000000000E+00  0.00000000000E+00  0.45593999997E+02  0.45594000000E+02  0.51100000000E-03 0.  1.
         11   -1    0    0    0    0 -0.00000000000E+00 -0.00000000000E+00 -0.45593999997E+02  0.45594000000E+02  0.51100000000E-03 0. -1.
    9900012    2    1    2    0    0 -0.29355581469E+00  0.66458196833E+00  0.92985037192E+00  0.90007972067E+02  0.90000236498E+02 0.  0.
         12    1    1    2    0    0  0.29355581469E+00 -0.66458196833E+00 -0.92985037192E+00  0.11800279332E+01  0.00000000000E+00 0. -1.
         11    1    3    3    0    0  0.60873676115E+01 -0.36230692104E+01 -0.59169072895E+01  0.92299765479E+01  0.51100000000E-03 0. -1.
        -11    1    3    3    0    0  0.17414648680E+02  0.15819491732E+02  0.34988042994E+02  0.42162654804E+02  0.51100000000E-03 0.  1.
         12    1    3    3    0    0 -0.23795572106E+02 -0.11531840553E+02 -0.28141285332E+02  0.38615340715E+02  0.00000000000E+00 0. -1.
</event>
<event>
 7    1  0.2285268E-015  0.9000775E+02  0.7816164E-02  0.1186339E+00
        -11   -1    0    0    0    0  0.00000000000E+00  0.00000000000E+00  0.45593999997E+02  0.45594000000E+02  0.51100000000E-03 0.  1.
         11   -1    0    0    0    0 -0.00000000000E+00 -0.00000000000E+00 -0.45593999997E+02  0.45594000000E+02  0.51100000000E-03 0. -1.
    9900012    2    1    2    0    0 -0.10211835003E+01  0.28917569787E+00  0.51629488628E+00  0.90007746326E+02  0.90000007777E+02 0.  0.
         12    1    1    2    0    0  0.10211835003E+01 -0.28917569787E+00 -0.51629488628E+00  0.11802536741E+01  0.00000000000E+00 0. -1.
         11    1    3    3    0    0 -0.30024648570E+02 -0.15469464317E+02 -0.23532433692E+02  0.41165025006E+02  0.51100000000E-03 0. -1.
        -11    1    3    3    0    0 -0.42466412859E+01  0.42442155444E+00  0.75692248682E+01  0.86894914255E+01  0.51100000000E-03 0.  1.
        -12    1    3    3    0    0  0.33250106355E+02  0.15334218461E+02  0.16479503710E+02  0.40153229895E+02  0.00000000000E+00 0.  1.
</event>
<event>
 7    1  0.2285268E-015  0.9000771E+02  0.7816164E-02  0.1186339E+00
        -11   -1    0    0    0    0  0.00000000000E+00  0.00000000000E+00  0.45593999997E+02  0.45594000000E+02  0.51100000000E-03 0.  1.
         11   -1    0    0    0    0 -0.00000000000E+00 -0.00000000000E+00 -0.45593999997E+02  0.45594000000E+02  0.51100000000E-03 0. -1.
    9900012    2    1    2    0    0  0.16578065914E+00 -0.70548153562E+00 -0.93161407390E+00  0.90007706729E+02  0.89999967657E+02 0.  0.
         12    1    1    2    0    0 -0.16578065914E+00  0.70548153562E+00  0.93161407390E+00  0.11802932715E+01  0.00000000000E+00 0. -1.
         11    1    3    3    0    0  0.97265107983E+00  0.61657509695E+01 -0.38882146739E+01  0.73539614326E+01  0.51100000000E-03 0. -1.
        -11    1    3    3    0    0 -0.25924582705E+02  0.72942228320E+01  0.31933181535E+02  0.41773409705E+02  0.51100000000E-03 0.  1.
         12    1    3    3    0    0  0.25117712285E+02 -0.14165455337E+02 -0.28976580935E+02  0.40880335591E+02  0.00000000000E+00 0. -1.
</event>
<event>
 7    1  0.2285268E-015  0.9000774E+02  0.7816164E-02  0.1186339E+00
        -11   -1    0    0    0    0  0.00000000000E+00  0.00000000000E+00  0.45593999997E+02  0.45594000000E+02  0.51100000000E-03 0.  1.
         11   -1    0    0    0    0 -0.00000000000E+00 -0.00000000000E+00 -0.45593999997E+02  0.45594000000E+02  0.51100000000E-03 0. -1.
    9900012    2    1    2    0    0  0.51909426275E-01 -0.47059746380E+00  0.10811334685E+01  0.90007743190E+02  0.90000004600E+02 0.  0.
         12    1    1    2    0    0 -0.51909426275E-01  0.47059746380E+00 -0.10811334685E+01  0.11802568103E+01  0.00000000000E+00 0. -1.
         11    1    3    3    0    0 -0.38950306287E+00 -0.57192747480E+01 -0.72444672086E+01  0.92381882247E+01  0.51100000000E-03 0. -1.
        -11    1    3    3    0    0 -0.27788145340E+02  0.77932025020E+01  0.32537257661E+02  0.43492392013E+02  0.51100000000E-03 0.  1.
         12    1    3    3    0    0  0.28229557829E+02 -0.25445252178E+01 -0.24211656984E+02  0.37277162952E+02  0.00000000000E+00 0. -1.
</event>
<event>
 7    1  0.2285268E-015  0.9000771E+02  0.7816164E-02  0.1186339E+00
        -11   -1    0    0    0    0  0.00000000000E+00  0.00000000000E+00  0.45593999997E+02  0.45594000000E+02  0.51100000000E-03 0.  1.
         11   -1    0    0    0    0 -0.00000000000E+00 -0.00000000000E+00 -0.45593999997E+02  0.45594000000E+02  0.51100000000E-03 0. -1.
    9900012    2    1    2    0    0 -0.91541855276E+00 -0.59723329110E+00  0.44543972643E+00  0.90007705426E+02  0.89999966338E+02 0.  0.
         12    1    1    2    0    0  0.91541855276E+00  0.59723329110E+00 -0.44543972643E+00  0.11802945737E+01  0.00000000000E+00 0. -1.
         11    1    3    3    0    0  0.21613583276E+01  0.85419751656E+01  0.13748920377E+01  0.89177989395E+01  0.51100000000E-03 0. -1.
        -11    1    3    3    0    0 -0.17646429124E+02  0.25184185263E+02  0.21549806023E+02  0.37550416616E+02  0.51100000000E-03 0.  1.
         12    1    3    3    0    0  0.14569652244E+02 -0.34323393720E+02 -0.22479258334E+02  0.43539489870E+02  0.00000000000E+00 0. -1.
</event>
<event>
 7    1  0.2285268E-015  0.9000778E+02  0.7816164E-02  0.1186339E+00
        -11   -1    0    0    0    0  0.00000000000E+00  0.00000000000E+00  0.45593999997E+02  0.45594000000E+02  0.51100000000E-03 0. -1.
         11   -1    0    0    0    0 -0.00000000000E+00 -0.00000000000E+00 -0.45593999997E+02  0.45594000000E+02  0.51100000000E-03 0.  1.
    9900012    2    1    2    0    0 -0.10664058195E+01 -0.64096734717E-01  0.50159129920E+00  0.90007778159E+02  0.90000040030E+02 0.  0.
         12    1    1    2    0    0  0.10664058195E+01  0.64096734717E-01 -0.50159129920E+00  0.11802218413E+01  0.00000000000E+00 0. -1.
         11    1    3    3    0    0 -0.54573423991E+01 -0.26131362409E+01  0.75232268345E+01  0.96545330980E+01  0.51100000000E-03 0. -1.
        -11    1    3    3    0    0 -0.36097515829E+02  0.12764734140E+02 -0.35078527965E+01  0.38448330499E+02  0.51100000000E-03 0.  1.
         12    1    3    3    0    0  0.40488452408E+02 -0.10215694634E+02 -0.35137827388E+01  0.41904914562E+02  0.00000000000E+00 0. -1.
</event>
<event>
 7    1  0.4555935E-015  0.9000767E+02  0.7816164E-02  0.1186339E+00
        -11   -1    0    0    0    0  0.00000000000E+00  0.00000000000E+00  0.45593999997E+02  0.45594000000E+02  0.51100000000E-03 0.  1.
         11   -1    0    0    0    0 -0.00000000000E+00 -0.00000000000E+00 -0.45593999997E+02  0.45594000000E+02  0.51100000000E-03 0. -1.
    9900012    2    1    2    0    0  0.53862636147E+00  0.24674190741E-01  0.10499811694E+01  0.90007666306E+02  0.89999926701E+02 0.  0.
         12    1    1    2    0    0 -0.53862636147E+00 -0.24674190741E-01 -0.10499811694E+01  0.11803336939E+01  0.00000000000E+00 0. -1.
         11    1    3    3    0    0 -0.88708189590E+01  0.81576932604E+00  0.35268282640E+01  0.95809929789E+01  0.51100000000E-03 0. -1.
        -11    1    3    3    0    0  0.94836585239E+01  0.40110252010E+01  0.38150889370E+02  0.39516053220E+02  0.51100000000E-03 0.  1.
         12    1    3    3    0    0 -0.74213203418E-01 -0.48021203363E+01 -0.40627736464E+02  0.40910620107E+02  0.00000000000E+00 0. -1.
</event>
<event>
 7    1  0.2285268E-015  0.9000775E+02  0.7816164E-02  0.1186339E+00
        -11   -1    0    0    0    0  0.00000000000E+00  0.00000000000E+00  0.45593999997E+02  0.45594000000E+02  0.51100000000E-03 0.  1.
         11   -1    0    0    0    0 -0.00000000000E+00 -0.00000000000E+00 -0.45593999997E+02  0.45594000000E+02  0.51100000000E-03 0. -1.
    9900012    2    1    2    0    0 -0.67124310068E+00  0.68254628419E+00  0.69032504697E+00  0.90007751975E+02  0.90000013501E+02 0.  0.
         12    1    1    2    0    0  0.67124310068E+00 -0.68254628419E+00 -0.69032504697E+00  0.11802480251E+01  0.00000000000E+00 0. -1.
         11    1    3    3    0    0 -0.92982018417E+00  0.67451887639E+01  0.64253506502E+01  0.93620119779E+01  0.51100000000E-03 0. -1.
        -11    1    3    3    0    0  0.20443439532E+02  0.31540930722E+02 -0.53489728183E+01  0.37965458527E+02  0.51100000000E-03 0.  1.
         12    1    3    3    0    0 -0.20184862449E+02 -0.37603573201E+02 -0.38605278497E+00  0.42680281470E+02  0.00000000000E+00 0. -1.
</event>
<event>
 7    1  0.2285268E-015  0.9000765E+02  0.7816164E-02  0.1186339E+00
        -11   -1    0    0    0    0  0.00000000000E+00  0.00000000000E+00  0.45593999997E+02  0.45594000000E+02  0.51100000000E-03 0. -1.
         11   -1    0    0    0    0 -0.00000000000E+00 -0.00000000000E+00 -0.45593999997E+02  0.45594000000E+02  0.51100000000E-03 0.  1.
    9900012    2    1    2    0    0  0.77396569927E+00 -0.82155857904E+00 -0.34533033688E+00  0.90007646475E+02  0.89999906608E+02 0.  0.
         12    1    1    2    0    0 -0.77396569927E+00  0.82155857904E+00  0.34533033688E+00  0.11803535250E+01  0.00000000000E+00 0. -1.
         11    1    3    3    0    0 -0.12881975483E+02 -0.29512936053E+02  0.23720471943E+02  0.39995243171E+02  0.51100000000E-03 0. -1.
        -11    1    3    3    0    0  0.30259313810E+01  0.16163767855E+01  0.67903508678E+01  0.76077460397E+01  0.51100000000E-03 0.  1.
        -12    1    3    3    0    0  0.10630009801E+02  0.27075000688E+02 -0.30856153148E+02  0.42404657265E+02  0.00000000000E+00 0.  1.
</event>
<event>
 7    1  0.2285268E-015  0.9000746E+02  0.7816164E-02  0.1186340E+00
        -11   -1    0    0    0    0  0.00000000000E+00  0.00000000000E+00  0.45593999997E+02  0.45594000000E+02  0.51100000000E-03 0.  1.
         11   -1    0    0    0    0 -0.00000000000E+00 -0.00000000000E+00 -0.45593999997E+02  0.45594000000E+02  0.51100000000E-03 0. -1.
    9900012    2    1    2    0    0  0.10643810908E+01  0.51065442255E+00 -0.17587011536E-02  0.90007458540E+02  0.89999716192E+02 0.  0.
         12    1    1    2    0    0 -0.10643810908E+01 -0.51065442255E+00  0.17587011536E-02  0.11805414600E+01  0.00000000000E+00 0. -1.
         11    1    3    3    0    0 -0.55494191203E+01 -0.62183930356E+01  0.32604221573E+01  0.89495707955E+01  0.51100000000E-03 0. -1.
        -11    1    3    3    0    0  0.95486768355E+01  0.27994712032E+02  0.29574011567E+02  0.41827064103E+02  0.51100000000E-03 0.  1.
         12    1    3    3    0    0 -0.29348766243E+01 -0.21265664574E+02 -0.32836192426E+02  0.39230823641E+02  0.00000000000E+00 0. -1.
</event>
<event>
 7    1  0.2285268E-015  0.9000781E+02  0.7816164E-02  0.1186339E+00
        -11   -1    0    0    0    0  0.00000000000E+00  0.00000000000E+00  0.45593999997E+02  0.45594000000E+02  0.51100000000E-03 0.  1.
         11   -1    0    0    0    0 -0.00000000000E+00 -0.00000000000E+00 -0.45593999997E+02  0.45594000000E+02  0.51100000000E-03 0. -1.
    9900012    2    1    2    0    0 -0.10751470261E+01  0.47126844738E+00 -0.12166399803E+00  0.90007814758E+02  0.90000077113E+02 0.  0.
         12    1    1    2    0    0  0.10751470261E+01 -0.47126844738E+00  0.12166399803E+00  0.11801852421E+01  0.00000000000E+00 0. -1.
         11    1    3    3    0    0 -0.21260124717E+02  0.18287639211E+01  0.10721400907E+02  0.23880655731E+02  0.51100000000E-03 0. -1.
        -11    1    3    3    0    0 -0.22278390177E+02  0.28992385704E+01 -0.20963255976E+01  0.22563839089E+02  0.51100000000E-03 0.  1.
         12    1    3    3    0    0  0.42463367869E+02 -0.42567340441E+01 -0.87467393072E+01  0.43563319937E+02  0.00000000000E+00 0. -1.
</event>
<event>
 7    1  0.2285268E-015  0.9000787E+02  0.7816164E-02  0.1186339E+00
        -11   -1    0    0    0    0  0.00000000000E+00  0.00000000000E+00  0.45593999997E+02  0.45594000000E+02  0.51100000000E-03 0. -1.
         11   -1    0    0    0    0 -0.00000000000E+00 -0.00000000000E+00 -0.45593999997E+02  0.45594000000E+02  0.51100000000E-03 0.  1.
    9900012    2    1    2    0    0  0.40155594127E+00 -0.59072194953E+00 -0.93941846811E+00  0.90007870069E+02  0.90000133154E+02 0.  0.
         12    1    1    2    0    0 -0.40155594127E+00  0.59072194953E+00  0.93941846811E+00  0.11801299309E+01  0.00000000000E+00 0. -1.
         11    1    3    3    0    0  0.37229965663E+02  0.88588088904E-01  0.92549230269E+01  0.38363156695E+02  0.51100000000E-03 0. -1.
        -11    1    3    3    0    0  0.46802782112E+01 -0.71773798777E+01 -0.25573283444E+01  0.89420196021E+01  0.51100000000E-03 0.  1.
        -12    1    3    3    0    0 -0.41508687933E+02  0.64980698392E+01 -0.76370131506E+01  0.42702693772E+02  0.00000000000E+00 0.  1.
</event>
<event>
 7    1  0.2285268E-015  0.9000783E+02  0.7816164E-02  0.1186339E+00
        -11   -1    0    0    0    0  0.00000000000E+00  0.00000000000E+00  0.45593999997E+02  0.45594000000E+02  0.51100000000E-03 0. -1.
         11   -1    0    0    0    0 -0.00000000000E+00 -0.00000000000E+00 -0.45593999997E+02  0.45594000000E+02  0.51100000000E-03 0.  1.
    9900012    2    1    2    0    0  0.67721422528E+00  0.98411078650E-01 -0.96150909303E+00  0.90007829003E+02  0.90000091545E+02 0.  0.
         12    1    1    2    0    0 -0.67721422528E+00 -0.98411078650E-01  0.96150909303E+00  0.11801709975E+01  0.00000000000E+00 0. -1.
         11    1    3    3    0    0  0.22987960795E+02  0.27256995697E+02 -0.25474233752E+02  0.43821532852E+02  0.51100000000E-03 0. -1.
        -11    1    3    3    0    0  0.39644007472E-01 -0.11950789074E+02  0.56276675848E+01  0.13209601578E+02  0.51100000000E-03 0.  1.
        -12    1    3    3    0    0 -0.22350390577E+02 -0.15207795544E+02  0.18885057074E+02  0.32976694573E+02  0.00000000000E+00 0.  1.
</event>
<event>
 7    1  0.2285268E-015  0.9000782E+02  0.7816164E-02  0.1186339E+00
        -11   -1    0    0    0    0  0.00000000000E+00  0.00000000000E+00  0.45593999997E+02  0.45594000000E+02  0.51100000000E-03 0. -1.
         11   -1    0    0    0    0 -0.00000000000E+00 -0.00000000000E+00 -0.45593999997E+02  0.45594000000E+02  0.51100000000E-03 0.  1.
    9900012    2    1    2    0    0  0.80265513250E+00  0.75364582623E+00 -0.42496365682E+00  0.90007817216E+02  0.90000079604E+02 0.  0.
         12    1    1    2    0    0 -0.80265513250E+00 -0.75364582623E+00  0.42496365682E+00  0.11801827836E+01  0.00000000000E+00 0. -1.
         11    1    3    3    0    0 -0.10683034892E+01  0.30688612501E+01 -0.57944410819E+01  0.66433974313E+01  0.51100000000E-03 0. -1.
        -11    1    3    3    0    0 -0.13763708141E+02  0.37701218977E+02  0.61391220805E+00  0.40139736704E+02  0.51100000000E-03 0.  1.
         12    1    3    3    0    0  0.15634666763E+02 -0.40016434401E+02  0.47555652171E+01  0.43224683082E+02  0.00000000000E+00 0. -1.
</event>
<event>
 7    1  0.2285268E-015  0.9000774E+02  0.7816164E-02  0.1186339E+00
        -11   -1    0    0    0    0  0.00000000000E+00  0.00000000000E+00  0.45593999997E+02  0.45594000000E+02  0.51100000000E-03 0.  1.
         11   -1    0    0    0    0 -0.00000000000E+00 -0.00000000000E+00 -0.45593999997E+02  0.45594000000E+02  0.51100000000E-03 0. -1.
    9900012    2    1    2    0    0 -0.70756687400E+00 -0.81663633368E+00  0.47482441193E+00  0.90007744093E+02  0.90000005516E+02 0.  0.
         12    1    1    2    0    0  0.70756687400E+00  0.81663633368E+00 -0.47482441193E+00  0.11802559065E+01  0.00000000000E+00 0. -1.
         11    1    3    3    0    0  0.13425511628E+02 -0.19188045694E+02  0.22600850836E+01  0.23527291490E+02  0.51100000000E-03 0. -1.
        -11    1    3    3    0    0  0.21838586286E+02 -0.33585718915E+01  0.76983992962E+01  0.23398059922E+02  0.51100000000E-03 0.  1.
        -12    1    3    3    0    0 -0.35971664788E+02  0.21729981252E+02 -0.94836599679E+01  0.43082392682E+02  0.00000000000E+00 0.  1.
</event>
<event>
 7    1  0.2285268E-015  0.9000780E+02  0.7816164E-02  0.1186339E+00
        -11   -1    0    0    0    0  0.00000000000E+00  0.00000000000E+00  0.45593999997E+02  0.45594000000E+02  0.51100000000E-03 0. -1.
         11   -1    0    0    0    0 -0.00000000000E+00 -0.00000000000E+00 -0.45593999997E+02  0.45594000000E+02  0.51100000000E-03 0.  1.
    9900012    2    1    2    0    0 -0.76400528653E+00 -0.89926337223E+00 -0.22309051609E-01  0.90007798160E+02  0.90000060295E+02 0.  0.
         12    1    1    2    0    0  0.76400528653E+00  0.89926337223E+00  0.22309051609E-01  0.11802018405E+01  0.00000000000E+00 0. -1.
         11    1    3    3    0    0  0.83651429429E+01 -0.57061189172E+00  0.58146432824E+01  0.10203494066E+02  0.51100000000E-03 0. -1.
        -11    1    3    3    0    0  0.23467357498E+02 -0.14172453588E+02 -0.27057634711E+02  0.38518708507E+02  0.51100000000E-03 0.  1.
         12    1    3    3    0    0 -0.32596505727E+02  0.13843802108E+02  0.21220682377E+02  0.41285595587E+02  0.00000000000E+00 0. -1.
</event>
<event>
 7    1  0.2285268E-015  0.9000778E+02  0.7816164E-02  0.1186339E+00
        -11   -1    0    0    0    0  0.00000000000E+00  0.00000000000E+00  0.45593999997E+02  0.45594000000E+02  0.51100000000E-03 0. -1.
         11   -1    0    0    0    0 -0.00000000000E+00 -0.00000000000E+00 -0.45593999997E+02  0.45594000000E+02  0.51100000000E-03 0.  1.
    9900012    2    1    2    0    0  0.15532016733E+00  0.10973850772E+01  0.40563448187E+00  0.90007780658E+02  0.90000042563E+02 0.  0.
         12    1    1    2    0    0 -0.15532016733E+00 -0.10973850772E+01 -0.40563448187E+00  0.11802193419E+01  0.00000000000E+00 0. -1.
         11    1    3    3    0    0 -0.63925247753E+01 -0.20415615160E+01 -0.88437944658E+01  0.11101578592E+02  0.51100000000E-03 0. -1.
        -11    1    3    3    0    0  0.22640364561E+02 -0.69655540513E+01 -0.28250190049E+02  0.36867035259E+02  0.51100000000E-03 0.  1.
         12    1    3    3    0    0 -0.16092519618E+02  0.10104500645E+02  0.37499618997E+02  0.42039166807E+02  0.00000000000E+00 0. -1.
</event>
<event>
 8    1  0.2285268E-015  0.9000777E+02  0.7816164E-02  0.1186339E+00
        -11   -1    0    0    0    0  0.00000000000E+00  0.00000000000E+00  0.45593999997E+02  0.45594000000E+02  0.51100000000E-03 0.  1.
         11   -1    0    0    0    0 -0.00000000000E+00 -0.00000000000E+00 -0.45593999997E+02  0.45594000000E+02  0.51100000000E-03 0. -1.
    9900012    2    1    2    0    0 -0.87810830126E+00  0.78403407088E+00 -0.84608709390E-01  0.90007770257E+02  0.90000032024E+02 0.  0.
         23    2    3    3    0    0  0.15920037838E+02  0.21398124451E+02  0.11191253819E+02  0.61124150128E+02  0.53847843337E+02 0.  0.
         12    1    1    2    0    0  0.87810830126E+00 -0.78403407088E+00  0.84608709390E-01  0.11802297432E+01  0.00000000000E+00 0. -1.
         11    1    4    4    0    0 -0.15575500002E+01 -0.16664952882E+02 -0.27895330013E+01  0.16968444572E+02  0.51100000000E-03 0. -1.
        -11    1    4    4    0    0  0.17477587839E+02  0.38063077334E+02  0.13980786821E+02  0.44155705556E+02  0.51100000000E-03 0.  1.
         12    1    3    3    0    0 -0.16798146140E+02 -0.20614090381E+02 -0.11275862529E+02  0.28883620128E+02  0.00000000000E+00 0. -1.
</event>
<event>
 7    1  0.2285268E-015  0.9000774E+02  0.7816164E-02  0.1186339E+00
        -11   -1    0    0    0    0  0.00000000000E+00  0.00000000000E+00  0.45593999997E+02  0.45594000000E+02  0.51100000000E-03 0.  1.
         11   -1    0    0    0    0 -0.00000000000E+00 -0.00000000000E+00 -0.45593999997E+02  0.45594000000E+02  0.51100000000E-03 0. -1.
    9900012    2    1    2    0    0 -0.54237721478E+00 -0.88352636150E+00  0.56410266241E+00  0.90007744228E+02  0.90000005651E+02 0.  0.
         12    1    1    2    0    0  0.54237721478E+00  0.88352636150E+00 -0.56410266241E+00  0.11802557724E+01  0.00000000000E+00 0. -1.
         11    1    3    3    0    0  0.19134913886E+01  0.19281394014E+01 -0.10120240081E+02  0.10478474622E+02  0.51100000000E-03 0. -1.
        -11    1    3    3    0    0  0.43013622963E+01 -0.40250682467E+02  0.88810135450E+01  0.41442629725E+02  0.51100000000E-03 0.  1.
         12    1    3    3    0    0 -0.67572308997E+01  0.37439016704E+02  0.18033291986E+01  0.38086639881E+02  0.00000000000E+00 0. -1.
</event>
<event>
 7    1  0.2285268E-015  0.9000778E+02  0.7816164E-02  0.1186339E+00
        -11   -1    0    0    0    0  0.00000000000E+00  0.00000000000E+00  0.45593999997E+02  0.45594000000E+02  0.51100000000E-03 0.  1.
         11   -1    0    0    0    0 -0.00000000000E+00 -0.00000000000E+00 -0.45593999997E+02  0.45594000000E+02  0.51100000000E-03 0. -1.
    9900012    2    1    2    0    0  0.54459844110E+00  0.10418194323E+01  0.10460782651E+00  0.90007780534E+02  0.90000042437E+02 0.  0.
         12    1    1    2    0    0 -0.54459844110E+00 -0.10418194323E+01 -0.10460782651E+00  0.11802194665E+01  0.00000000000E+00 0. -1.
         11    1    3    3    0    0  0.70670757639E+01 -0.29638148992E+01  0.48566694043E+01  0.90727612431E+01  0.51100000000E-03 0. -1.
        -11    1    3    3    0    0  0.26950444606E+02  0.24147501576E+02 -0.17019234907E+02  0.39988531529E+02  0.51100000000E-03 0.  1.
         12    1    3    3    0    0 -0.33472921928E+02 -0.20141867244E+02  0.12267173329E+02  0.40946487761E+02  0.00000000000E+00 0. -1.
</event>
<event>
 7    1  0.2610753E-015  0.9000771E+02  0.7816164E-02  0.1186339E+00
        -11   -1    0    0    0    0  0.00000000000E+00  0.00000000000E+00  0.45593999997E+02  0.45594000000E+02  0.51100000000E-03 0.  1.
         11   -1    0    0    0    0 -0.00000000000E+00 -0.00000000000E+00 -0.45593999997E+02  0.45594000000E+02  0.51100000000E-03 0. -1.
    9900012    2    1    2    0    0  0.11353053436E+01 -0.29514378603E+00 -0.13061432902E+00  0.90007708434E+02  0.89999969385E+02 0.  0.
         12    1    1    2    0    0 -0.11353053436E+01  0.29514378603E+00  0.13061432902E+00  0.11802915659E+01  0.00000000000E+00 0. -1.
         11    1    3    3    0    0  0.35777175577E+01 -0.87868457039E+01 -0.27555393424E-01  0.94873326023E+01  0.51100000000E-03 0. -1.
        -11    1    3    3    0    0 -0.20561633723E+02 -0.16560346289E+02  0.28181665356E+02  0.38616474633E+02  0.51100000000E-03 0.  1.
         12    1    3    3    0    0  0.18119221509E+02  0.25052048207E+02 -0.28284724291E+02  0.41903901199E+02  0.00000000000E+00 0. -1.
</event>
<event>
 7    1  0.2285268E-015  0.9000774E+02  0.7816164E-02  0.1186339E+00
        -11   -1    0    0    0    0  0.00000000000E+00  0.00000000000E+00  0.45593999997E+02  0.45594000000E+02  0.51100000000E-03 0.  1.
         11   -1    0    0    0    0 -0.00000000000E+00 -0.00000000000E+00 -0.45593999997E+02  0.45594000000E+02  0.51100000000E-03 0. -1.
    9900012    2    1    2    0    0 -0.95242524554E+00  0.99791621436E-02  0.69699705901E+00  0.90007738024E+02  0.89999999366E+02 0.  0.
         12    1    1    2    0    0  0.95242524554E+00 -0.99791621436E-02 -0.69699705901E+00  0.11802619761E+01  0.00000000000E+00 0. -1.
         11    1    3    3    0    0  0.48527057368E+01 -0.44809256115E+01 -0.33644168660E+02  0.34286404483E+02  0.51100000000E-03 0. -1.
        -11    1    3    3    0    0  0.29523281966E+01  0.26316939625E+01 -0.98594739537E+01  0.10623148394E+02  0.51100000000E-03 0.  1.
        -12    1    3    3    0    0 -0.87574591790E+01  0.18592108111E+01  0.44200639672E+02  0.45098185147E+02  0.00000000000E+00 0.  1.
</event>
<event>
 7    1  0.2285268E-015  0.9000765E+02  0.7816164E-02  0.1186339E+00
        -11   -1    0    0    0    0  0.00000000000E+00  0.00000000000E+00  0.45593999997E+02  0.45594000000E+02  0.51100000000E-03 0.  1.
         11   -1    0    0    0    0 -0.00000000000E+00 -0.00000000000E+00 -0.45593999997E+02  0.45594000000E+02  0.51100000000E-03 0. -1.
    9900012    2    1    2    0    0 -0.22552989741E+00  0.72392697863E-01  0.11563356172E+01  0.90007654077E+02  0.89999914311E+02 0.  0.
         12    1    1    2    0    0  0.22552989741E+00 -0.72392697863E-01 -0.11563356172E+01  0.11803459226E+01  0.00000000000E+00 0. -1.
         11    1    3    3    0    0 -0.83221249830E+01 -0.32141117885E+01  0.51235728327E+01  0.10287821813E+02  0.51100000000E-03 0. -1.
        -11    1    3    3    0    0  0.11473453691E+02  0.38581450775E+01  0.36835587220E+02  0.38773520722E+02  0.51100000000E-03 0.  1.
         12    1    3    3    0    0 -0.33768586054E+01 -0.57164059113E+00 -0.40802824436E+02  0.40946311543E+02  0.00000000000E+00 0. -1.
</event>
<event>
 7    1  0.2285268E-015  0.9000769E+02  0.7816164E-02  0.1186339E+00
        -11   -1    0    0    0    0  0.00000000000E+00  0.00000000000E+00  0.45593999997E+02  0.45594000000E+02  0.51100000000E-03 0.  1.
         11   -1    0    0    0    0 -0.00000000000E+00 -0.00000000000E+00 -0.45593999997E+02  0.45594000000E+02  0.51100000000E-03 0. -1.
    9900012    2    1    2    0    0  0.41417765391E+00 -0.38661313506E-01  0.11045827442E+01  0.90007686116E+02  0.89999946773E+02 0.  0.
         12    1    1    2    0    0 -0.41417765391E+00  0.38661313506E-01 -0.11045827442E+01  0.11803138841E+01  0.00000000000E+00 0. -1.
         11    1    3    3    0    0 -0.21094549490E+02  0.70984122368E+01 -0.31623884571E+02  0.38670887630E+02  0.51100000000E-03 0. -1.
        -11    1    3    3    0    0 -0.86143509939E+01 -0.13197665601E+01  0.54129462052E+01  0.10259084447E+02  0.51100000000E-03 0.  1.
        -12    1    3    3    0    0  0.30123078138E+02 -0.58173069903E+01  0.27315521110E+02  0.41077714038E+02  0.00000000000E+00 0.  1.
</event>
<event>
 7    1  0.2285268E-015  0.9000770E+02  0.7816164E-02  0.1186339E+00
        -11   -1    0    0    0    0  0.00000000000E+00  0.00000000000E+00  0.45593999997E+02  0.45594000000E+02  0.51100000000E-03 0.  1.
         11   -1    0    0    0    0 -0.00000000000E+00 -0.00000000000E+00 -0.45593999997E+02  0.45594000000E+02  0.51100000000E-03 0. -1.
    9900012    2    1    2    0    0 -0.27876446922E+00  0.93445840784E+00  0.66496241095E+00  0.90007704633E+02  0.89999965534E+02 0.  0.
         12    1    1    2    0    0  0.27876446922E+00 -0.93445840784E+00 -0.66496241095E+00  0.11802953670E+01  0.00000000000E+00 0. -1.
         11    1    3    3    0    0 -0.11695902520E+02 -0.24015827661E+02 -0.27240905848E+02  0.38152602345E+02  0.51100000000E-03 0. -1.
        -11    1    3    3    0    0  0.77270670486E+01 -0.14311115628E+00 -0.58069173285E+01  0.96668679052E+01  0.51100000000E-03 0.  1.
        -12    1    3    3    0    0  0.36900710027E+01  0.25093397226E+02  0.33712785587E+02  0.42188234383E+02  0.00000000000E+00 0.  1.
</event>
<event>
 7    1  0.2285268E-015  0.9000772E+02  0.7816164E-02  0.1186339E+00
        -11   -1    0    0    0    0  0.00000000000E+00  0.00000000000E+00  0.45593999997E+02  0.45594000000E+02  0.51100000000E-03 0.  1.
         11   -1    0    0    0    0 -0.00000000000E+00 -0.00000000000E+00 -0.45593999997E+02  0.45594000000E+02  0.51100000000E-03 0. -1.
    9900012    2    1    2    0    0  0.28118018833E+00 -0.10382413535E+01 -0.48584800505E+00  0.90007722198E+02  0.89999983331E+02 0.  0.
         12    1    1    2    0    0 -0.28118018833E+00  0.10382413535E+01  0.48584800505E+00  0.11802778022E+01  0.00000000000E+00 0. -1.
         11    1    3    3    0    0 -0.86984241990E+01 -0.53852283436E+01  0.15891024328E+01  0.10353188623E+02  0.51100000000E-03 0. -1.
        -11    1    3    3    0    0 -0.20914347352E+02 -0.32275501971E+01  0.28983165725E+02  0.35886639591E+02  0.51100000000E-03 0.  1.
         12    1    3    3    0    0  0.29893951739E+02  0.75745371872E+01 -0.31058116163E+02  0.43767893984E+02  0.00000000000E+00 0. -1.
</event>
<event>
 7    1  0.2285268E-015  0.9000774E+02  0.7816164E-02  0.1186339E+00
        -11   -1    0    0    0    0  0.00000000000E+00  0.00000000000E+00  0.45593999997E+02  0.45594000000E+02  0.51100000000E-03 0. -1.
         11   -1    0    0    0    0 -0.00000000000E+00 -0.00000000000E+00 -0.45593999997E+02  0.45594000000E+02  0.51100000000E-03 0.  1.
    9900012    2    1    2    0    0 -0.93349383608E+00 -0.71483235757E+00 -0.10308661467E+00  0.90007736092E+02  0.89999997409E+02 0.  0.
         12    1    1    2    0    0  0.93349383608E+00  0.71483235757E+00  0.10308661467E+00  0.11802639076E+01  0.00000000000E+00 0. -1.
         11    1    3    3    0    0  0.14916240388E+02 -0.27071959923E+02 -0.60194650242E+01  0.31489985723E+02  0.51100000000E-03 0. -1.
        -11    1    3    3    0    0 -0.11207338071E+02  0.71559866944E+01 -0.21166005688E+02  0.24996247103E+02  0.51100000000E-03 0.  1.
         12    1    3    3    0    0 -0.46423961538E+01  0.19201140871E+02  0.27082384098E+02  0.33521503266E+02  0.00000000000E+00 0. -1.
</event>
<event>
 7    1  0.2285268E-015  0.9000771E+02  0.7816164E-02  0.1186339E+00
        -11   -1    0    0    0    0  0.00000000000E+00  0.00000000000E+00  0.45593999997E+02  0.45594000000E+02  0.51100000000E-03 0. -1.
         11   -1    0    0    0    0 -0.00000000000E+00 -0.00000000000E+00 -0.45593999997E+02  0.45594000000E+02  0.51100000000E-03 0.  1.
    9900012    2    1    2    0    0 -0.18388746389E+00 -0.10444021978E+01 -0.51816516878E+00  0.90007709488E+02  0.89999970453E+02 0.  0.
         12    1    1    2    0    0  0.18388746389E+00  0.10444021978E+01  0.51816516878E+00  0.11802905118E+01  0.00000000000E+00 0. -1.
         11    1    3    3    0    0 -0.91169612465E+01  0.15842788933E+02 -0.18218656642E+01  0.18369326016E+02  0.51100000000E-03 0. -1.
        -11    1    3    3    0    0  0.32484189980E+02  0.11507227633E+02 -0.24986041694E+01  0.34552596277E+02  0.51100000000E-03 0.  1.
         12    1    3    3    0    0 -0.23551116197E+02 -0.28394418764E+02  0.38023046647E+01  0.37085787194E+02  0.00000000000E+00 0. -1.
</event>
<event>
 7    1  0.2285268E-015  0.9000760E+02  0.7816164E-02  0.1186339E+00
        -11   -1    0    0    0    0  0.00000000000E+00  0.00000000000E+00  0.45593999997E+02  0.45594000000E+02  0.51100000000E-03 0. -1.
         11   -1    0    0    0    0 -0.00000000000E+00 -0.00000000000E+00 -0.45593999997E+02  0.45594000000E+02  0.51100000000E-03 0.  1.
    9900012    2    1    2    0    0 -0.10851129226E+01 -0.41639658749E+00  0.20612988548E+00  0.90007599347E+02  0.89999858858E+02 0.  0.
         12    1    1    2    0    0  0.10851129226E+01  0.41639658749E+00 -0.20612988548E+00  0.11804006534E+01  0.00000000000E+00 0. -1.
         11    1    3    3    0    0  0.70921024039E+01 -0.63418060555E+01 -0.51778795739E+01  0.10831752291E+02  0.51100000000E-03 0. -1.
        -11    1    3    3    0    0 -0.17928063003E+02  0.92708203751E+00 -0.33917533807E+02  0.38375435163E+02  0.51100000000E-03 0.  1.
         12    1    3    3    0    0  0.97508476765E+01  0.49983274305E+01  0.39301543266E+02  0.40800411893E+02  0.00000000000E+00 0. -1.
</event>
<event>
 7    1  0.2285268E-015  0.9000779E+02  0.7816164E-02  0.1186339E+00
        -11   -1    0    0    0    0  0.00000000000E+00  0.00000000000E+00  0.45593999997E+02  0.45594000000E+02  0.51100000000E-03 0.  1.
         11   -1    0    0    0    0 -0.00000000000E+00 -0.00000000000E+00 -0.45593999997E+02  0.45594000000E+02  0.51100000000E-03 0. -1.
    9900012    2    1    2    0    0 -0.31600254629E+00 -0.10768743979E+01  0.36519963055E+00  0.90007793726E+02  0.90000055804E+02 0.  0.
         12    1    1    2    0    0  0.31600254629E+00  0.10768743979E+01 -0.36519963055E+00  0.11802062736E+01  0.00000000000E+00 0. -1.
         11    1    3    3    0    0 -0.13870759948E+02 -0.24632681632E+02 -0.26200544327E+02  0.38543942575E+02  0.51100000000E-03 0. -1.
        -11    1    3    3    0    0 -0.64282885016E+01 -0.57091871280E+01  0.43032036422E+01  0.96143264231E+01  0.51100000000E-03 0.  1.
        -12    1    3    3    0    0  0.19983045904E+02  0.29264994363E+02  0.22262540316E+02  0.41849524728E+02  0.00000000000E+00 0.  1.
</event>
<event>
 7    1  0.2285268E-015  0.9000800E+02  0.7816164E-02  0.1186339E+00
        -11   -1    0    0    0    0  0.00000000000E+00  0.00000000000E+00  0.45593999997E+02  0.45594000000E+02  0.51100000000E-03 0. -1.
         11   -1    0    0    0    0 -0.00000000000E+00 -0.00000000000E+00 -0.45593999997E+02  0.45594000000E+02  0.51100000000E-03 0.  1.
    9900012    2    1    2    0    0  0.57943964191E+00 -0.10172616496E+01  0.14772132710E+00  0.90008002901E+02  0.90000267739E+02 0.  0.
         12    1    1    2    0    0 -0.57943964191E+00  0.10172616496E+01 -0.14772132710E+00  0.11799970987E+01  0.00000000000E+00 0. -1.
         11    1    3    3    0    0  0.16996920384E+02 -0.36585065177E+02 -0.12732498228E+02  0.42302231713E+02  0.51100000000E-03 0. -1.
        -11    1    3    3    0    0  0.22199046135E-01 -0.26603355822E+00  0.79719987810E+01  0.79764673557E+01  0.51100000000E-03 0.  1.
        -12    1    3    3    0    0 -0.16439679789E+02  0.35833837085E+02  0.49082207744E+01  0.39729303832E+02  0.00000000000E+00 0.  1.
</event>
<event>
 7    1  0.2285268E-015  0.9000787E+02  0.7816164E-02  0.1186339E+00
        -11   -1    0    0    0    0  0.00000000000E+00  0.00000000000E+00  0.45593999997E+02  0.45594000000E+02  0.51100000000E-03 0. -1.
         11   -1    0    0    0    0 -0.00000000000E+00 -0.00000000000E+00 -0.45593999997E+02  0.45594000000E+02  0.51100000000E-03 0.  1.
    9900012    2    1    2    0    0 -0.84055692751E+00 -0.82080447825E+00  0.11156886288E+00  0.90007871384E+02  0.90000134486E+02 0.  0.
         12    1    1    2    0    0  0.84055692751E+00  0.82080447825E+00 -0.11156886288E+00  0.11801286163E+01  0.00000000000E+00 0. -1.
         11    1    3    3    0    0 -0.31195125948E+01 -0.75724752545E+01 -0.29036330447E+01  0.86893512663E+01  0.51100000000E-03 0. -1.
        -11    1    3    3    0    0 -0.23835648754E+02  0.34008875304E+02 -0.73447265494E+01  0.42174479953E+02  0.51100000000E-03 0.  1.
         12    1    3    3    0    0  0.26114604421E+02 -0.27257204528E+02  0.10359928457E+02  0.39144040164E+02  0.00000000000E+00 0. -1.
</event>
<event>
 7    1  0.2285268E-015  0.9000761E+02  0.7816164E-02  0.1186339E+00
        -11   -1    0    0    0    0  0.00000000000E+00  0.00000000000E+00  0.45593999997E+02  0.45594000000E+02  0.51100000000E-03 0. -1.
         11   -1    0    0    0    0 -0.00000000000E+00 -0.00000000000E+00 -0.45593999997E+02  0.45594000000E+02  0.51100000000E-03 0.  1.
    9900012    2    1    2    0    0 -0.10403940116E+01  0.13663866946E+00  0.54058830520E+00  0.90007607887E+02  0.89999867511E+02 0.  0.
         12    1    1    2    0    0  0.10403940116E+01 -0.13663866946E+00 -0.54058830520E+00  0.11803921132E+01  0.00000000000E+00 0. -1.
         11    1    3    3    0    0 -0.24334536325E+01 -0.35360859209E+02 -0.64501914896E+01  0.36026615593E+02  0.51100000000E-03 0. -1.
        -11    1    3    3    0    0  0.40448509697E+01 -0.76923944501E+01 -0.36408562935E+01  0.94228226426E+01  0.51100000000E-03 0.  1.
        -12    1    3    3    0    0 -0.26517913488E+01  0.43189892329E+02  0.10631636088E+02  0.44558169651E+02  0.00000000000E+00 0.  1.
</event>
<event>
 7    1  0.2285268E-015  0.9000772E+02  0.7816164E-02  0.1186339E+00
        -11   -1    0    0    0    0  0.00000000000E+00  0.00000000000E+00  0.45593999997E+02  0.45594000000E+02  0.51100000000E-03 0. -1.
         11   -1    0    0    0    0 -0.00000000000E+00 -0.00000000000E+00 -0.45593999997E+02  0.45594000000E+02  0.51100000000E-03 0.  1.
    9900012    2    1    2    0    0  0.40659564862E+00  0.65905162532E+00 -0.89072604486E+00  0.90007719545E+02  0.89999980643E+02 0.  0.
         12    1    1    2    0    0 -0.40659564862E+00 -0.65905162532E+00  0.89072604486E+00  0.11802804554E+01  0.00000000000E+00 0. -1.
         11    1    3    3    0    0 -0.32800786107E+01 -0.26115195377E+02  0.30514899351E+02  0.40297908480E+02  0.51100000000E-03 0. -1.
        -11    1    3    3    0    0  0.95498479890E+01  0.10397692660E+02 -0.35888717981E+00  0.14122337255E+02  0.51100000000E-03 0.  1.
        -12    1    3    3    0    0 -0.58631737296E+01  0.16376554342E+02 -0.31046738216E+02  0.35587473809E+02  0.00000000000E+00 0.  1.
</event>
<event>
 7    1  0.2285268E-015  0.9000772E+02  0.7816164E-02  0.1186339E+00
        -11   -1    0    0    0    0  0.00000000000E+00  0.00000000000E+00  0.45593999997E+02  0.45594000000E+02  0.51100000000E-03 0. -1.
         11   -1    0    0    0    0 -0.00000000000E+00 -0.00000000000E+00 -0.45593999997E+02  0.45594000000E+02  0.51100000000E-03 0.  1.
    9900012    2    1    2    0    0 -0.69069351404E+00  0.87546127704E+00 -0.38673635146E+00  0.90007722497E+02  0.89999983634E+02 0.  0.
         12    1    1    2    0    0  0.69069351404E+00 -0.87546127704E+00  0.38673635146E+00  0.11802775027E+01  0.00000000000E+00 0. -1.
         11    1    3    3    0    0 -0.41809693691E+02  0.46489398428E+01  0.10635485961E+02  0.43390974754E+02  0.51100000000E-03 0. -1.
        -11    1    3    3    0    0  0.60613042442E+01 -0.40899275325E+01 -0.88647092260E+01  0.11491300461E+02  0.51100000000E-03 0.  1.
        -12    1    3    3    0    0  0.35057695933E+02  0.31644896675E+00 -0.21575130860E+01  0.35125447282E+02  0.00000000000E+00 0.  1.
</event>
<event>
 7    1  0.2285268E-015  0.9000770E+02  0.7816164E-02  0.1186339E+00
        -11   -1    0    0    0    0  0.00000000000E+00  0.00000000000E+00  0.45593999997E+02  0.45594000000E+02  0.51100000000E-03 0. -1.
         11   -1    0    0    0    0 -0.00000000000E+00 -0.00000000000E+00 -0.45593999997E+02  0.45594000000E+02  0.51100000000E-03 0.  1.
    9900012    2    1    2    0    0 -0.11228643569E+01  0.10157117319E+00  0.34922923005E+00  0.90007702528E+02  0.89999963401E+02 0.  0.
         12    1    1    2    0    0  0.11228643569E+01 -0.10157117319E+00 -0.34922923005E+00  0.11802974719E+01  0.00000000000E+00 0. -1.
         11    1    3    3    0    0 -0.81142203168E+01 -0.25726542216E+01 -0.40726493524E+01  0.94363973052E+01  0.51100000000E-03 0. -1.
        -11    1    3    3    0    0  0.14332316744E+02  0.38556224672E+02 -0.79848749572E+01  0.41901742118E+02  0.51100000000E-03 0.  1.
         12    1    3    3    0    0 -0.73409607842E+01 -0.35881999277E+02  0.12406753540E+02  0.38669563105E+02  0.00000000000E+00 0. -1.
</event>
<event>
 7    1  0.2285268E-015  0.9000760E+02  0.7816164E-02  0.1186339E+00
        -11   -1    0    0    0    0  0.00000000000E+00  0.00000000000E+00  0.45593999997E+02  0.45594000000E+02  0.51100000000E-03 0.  1.
         11   -1    0    0    0    0 -0.00000000000E+00 -0.00000000000E+00 -0.45593999997E+02  0.45594000000E+02  0.51100000000E-03 0. -1.
    9900012    2    1    2    0    0  0.11114060546E+01  0.16233877022E+00  0.36300654788E+00  0.90007597082E+02  0.89999856564E+02 0.  0.
         12    1    1    2    0    0 -0.11114060546E+01 -0.16233877022E+00 -0.36300654788E+00  0.11804029178E+01  0.00000000000E+00 0. -1.
         11    1    3    3    0    0  0.58981880664E+01  0.72348449859E+01  0.16099484001E+01  0.94722509758E+01  0.51100000000E-03 0. -1.
        -11    1    3    3    0    0 -0.52339467892E+01 -0.35616288510E+02 -0.24643084455E+02  0.43625632579E+02  0.51100000000E-03 0.  1.
         12    1    3    3    0    0  0.44716477747E+00  0.28543782294E+02  0.23396142602E+02  0.36909713527E+02  0.00000000000E+00 0. -1.
</event>
<event>
 7    1  0.2285268E-015  0.9000772E+02  0.7816164E-02  0.1186339E+00
        -11   -1    0    0    0    0  0.00000000000E+00  0.00000000000E+00  0.45593999997E+02  0.45594000000E+02  0.51100000000E-03 0. -1.
         11   -1    0    0    0    0 -0.00000000000E+00 -0.00000000000E+00 -0.45593999997E+02  0.45594000000E+02  0.51100000000E-03 0.  1.
    9900012    2    1    2    0    0 -0.61619842161E-01 -0.11687014807E+01  0.15293636027E+00  0.90007724741E+02  0.89999985908E+02 0.  0.
         12    1    1    2    0    0  0.61619842161E-01  0.11687014807E+01 -0.15293636027E+00  0.11802752587E+01  0.00000000000E+00 0. -1.
         11    1    3    3    0    0 -0.64384321795E+01  0.67735488682E+01 -0.16947402559E+01  0.94977111977E+01  0.51100000000E-03 0. -1.
        -11    1    3    3    0    0  0.37061254195E+02  0.34996044954E+00  0.21783293161E+02  0.42990358174E+02  0.51100000000E-03 0.  1.
         12    1    3    3    0    0 -0.30684441857E+02 -0.82922107984E+01 -0.19935616544E+02  0.37519655369E+02  0.00000000000E+00 0. -1.
</event>
<event>
 7    1  0.2285268E-015  0.9000771E+02  0.7816164E-02  0.1186339E+00
        -11   -1    0    0    0    0  0.00000000000E+00  0.00000000000E+00  0.45593999997E+02  0.45594000000E+02  0.51100000000E-03 0.  1.
         11   -1    0    0    0    0 -0.00000000000E+00 -0.00000000000E+00 -0.45593999997E+02  0.45594000000E+02  0.51100000000E-03 0. -1.
    9900012    2    1    2    0    0  0.81541928326E+00  0.22114435306E+00  0.82417328214E+00  0.90007714004E+02  0.89999975029E+02 0.  0.
         12    1    1    2    0    0 -0.81541928326E+00 -0.22114435306E+00 -0.82417328214E+00  0.11802859956E+01  0.00000000000E+00 0. -1.
         11    1    3    3    0    0  0.32154397451E+02  0.13343135850E+02 -0.17292754216E+02  0.38871376337E+02  0.51100000000E-03 0. -1.
        -11    1    3    3    0    0  0.59353109169E+01 -0.20788672286E+01  0.93764447168E+01  0.11290142622E+02  0.51100000000E-03 0.  1.
        -12    1    3    3    0    0 -0.37274289084E+02 -0.11043124268E+02  0.87404827816E+01  0.39846195045E+02  0.00000000000E+00 0.  1.
</event>
<event>
 7    1  0.2285268E-015  0.9000821E+02  0.7816164E-02  0.1186338E+00
        -11   -1    0    0    0    0  0.00000000000E+00  0.00000000000E+00  0.45593999997E+02  0.45594000000E+02  0.51100000000E-03 0.  1.
         11   -1    0    0    0    0 -0.00000000000E+00 -0.00000000000E+00 -0.45593999997E+02  0.45594000000E+02  0.51100000000E-03 0. -1.
    9900012    2    1    2    0    0  0.25830226627E+00  0.64690195553E+00  0.95220504467E+00  0.90008213304E+02  0.90000480918E+02 0.  0.
         12    1    1    2    0    0 -0.25830226627E+00 -0.64690195553E+00 -0.95220504467E+00  0.11797866959E+01  0.00000000000E+00 0. -1.
         11    1    3    3    0    0 -0.84637367692E+01 -0.60066352810E+01  0.59246131699E+01  0.11950545970E+02  0.51100000000E-03 0. -1.
        -11    1    3    3    0    0  0.36321609338E+02  0.11310632063E+02  0.17775318565E+02  0.41989899415E+02  0.51100000000E-03 0.  1.
         12    1    3    3    0    0 -0.27599570302E+02 -0.46570948269E+01 -0.22747726690E+02  0.36067767919E+02  0.00000000000E+00 0. -1.
</event>
<event>
 7    1  0.2285268E-015  0.9000777E+02  0.7816164E-02  0.1186339E+00
        -11   -1    0    0    0    0  0.00000000000E+00  0.00000000000E+00  0.45593999997E+02  0.45594000000E+02  0.51100000000E-03 0.  1.
         11   -1    0    0    0    0 -0.00000000000E+00 -0.00000000000E+00 -0.45593999997E+02  0.45594000000E+02  0.51100000000E-03 0. -1.
    9900012    2    1    2    0    0  0.39289973579E+00 -0.10592220778E+01 -0.34151553631E+00  0.90007765077E+02  0.90000026776E+02 0.  0.
         12    1    1    2    0    0 -0.39289973579E+00  0.10592220778E+01  0.34151553631E+00  0.11802349233E+01  0.00000000000E+00 0. -1.
         11    1    3    3    0    0 -0.91459231943E+01 -0.39513582796E+00  0.78378906267E+01  0.12051413740E+02  0.51100000000E-03 0. -1.
        -11    1    3    3    0    0  0.35006158475E+01  0.93972931675E+01  0.33337468828E+02  0.34813075967E+02  0.51100000000E-03 0.  1.
         12    1    3    3    0    0  0.60382070827E+01 -0.10061379417E+02 -0.41516874991E+02  0.43143275369E+02  0.00000000000E+00 0. -1.
</event>
<event>
 7    1  0.2285268E-015  0.9000766E+02  0.7816164E-02  0.1186339E+00
        -11   -1    0    0    0    0  0.00000000000E+00  0.00000000000E+00  0.45593999997E+02  0.45594000000E+02  0.51100000000E-03 0.  1.
         11   -1    0    0    0    0 -0.00000000000E+00 -0.00000000000E+00 -0.45593999997E+02  0.45594000000E+02  0.51100000000E-03 0. -1.
    9900012    2    1    2    0    0 -0.64044710748E+00  0.35982406777E+00  0.92388198842E+00  0.90007659462E+02  0.89999919767E+02 0.  0.
         12    1    1    2    0    0  0.64044710748E+00 -0.35982406777E+00 -0.92388198842E+00  0.11803405380E+01  0.00000000000E+00 0. -1.
         11    1    3    3    0    0  0.39010139157E+01 -0.29764849131E+02  0.27917443401E+02  0.40994484991E+02  0.51100000000E-03 0. -1.
        -11    1    3    3    0    0 -0.57113119267E+01  0.58942516625E+01  0.44210362698E+01  0.93223842736E+01  0.51100000000E-03 0.  1.
        -12    1    3    3    0    0  0.11698509035E+01  0.24230421536E+02 -0.31414597682E+02  0.39690790197E+02  0.00000000000E+00 0.  1.
</event>
<event>
 7    1  0.2285268E-015  0.9000767E+02  0.7816164E-02  0.1186339E+00
        -11   -1    0    0    0    0  0.00000000000E+00  0.00000000000E+00  0.45593999997E+02  0.45594000000E+02  0.51100000000E-03 0. -1.
         11   -1    0    0    0    0 -0.00000000000E+00 -0.00000000000E+00 -0.45593999997E+02  0.45594000000E+02  0.51100000000E-03 0.  1.
    9900012    2    1    2    0    0 -0.11296616697E+01  0.16843867166E-01  0.34169921216E+00  0.90007670573E+02  0.89999931025E+02 0.  0.
         12    1    1    2    0    0  0.11296616697E+01 -0.16843867166E-01 -0.34169921216E+00  0.11803294267E+01  0.00000000000E+00 0. -1.
         11    1    3    3    0    0 -0.24363882568E+01 -0.95651519698E+01  0.65208073890E+01  0.11830006306E+02  0.51100000000E-03 0. -1.
        -11    1    3    3    0    0 -0.66394014944E+01 -0.78330011286E+01  0.33006307090E+02  0.34566658312E+02  0.51100000000E-03 0.  1.
         12    1    3    3    0    0  0.79461280815E+01  0.17414996966E+02 -0.39185415267E+02  0.43611005955E+02  0.00000000000E+00 0. -1.
</event>
<event>
 7    1  0.2285268E-015  0.9000765E+02  0.7816164E-02  0.1186339E+00
        -11   -1    0    0    0    0  0.00000000000E+00  0.00000000000E+00  0.45593999997E+02  0.45594000000E+02  0.51100000000E-03 0. -1.
         11   -1    0    0    0    0 -0.00000000000E+00 -0.00000000000E+00 -0.45593999997E+02  0.45594000000E+02  0.51100000000E-03 0.  1.
    9900012    2    1    2    0    0  0.56049708310E+00  0.65262943433E+00  0.80817023849E+00  0.90007652046E+02  0.89999912253E+02 0.  0.
         12    1    1    2    0    0 -0.56049708310E+00 -0.65262943433E+00 -0.80817023849E+00  0.11803479542E+01  0.00000000000E+00 0. -1.
         11    1    3    3    0    0  0.85023798488E+01  0.65335857852E+01 -0.67595088416E+00  0.10744073537E+02  0.51100000000E-03 0. -1.
        -11    1    3    3    0    0  0.18933258537E+02  0.31355925864E+01 -0.30806696384E+02  0.36295354552E+02  0.51100000000E-03 0.  1.
         12    1    3    3    0    0 -0.26875141302E+02 -0.90165489374E+01  0.32290817507E+02  0.42968223957E+02  0.00000000000E+00 0. -1.
</event>
<event>
 7    1  0.2285268E-015  0.9000773E+02  0.7816164E-02  0.1186339E+00
        -11   -1    0    0    0    0  0.00000000000E+00  0.00000000000E+00  0.45593999997E+02  0.45594000000E+02  0.51100000000E-03 0.  1.
         11   -1    0    0    0    0 -0.00000000000E+00 -0.00000000000E+00 -0.45593999997E+02  0.45594000000E+02  0.51100000000E-03 0. -1.
    9900012    2    1    2    0    0  0.26598847399E+00  0.70730895501E+00  0.90664890590E+00  0.90007725428E+02  0.89999986604E+02 0.  0.
         12    1    1    2    0    0 -0.26598847399E+00 -0.70730895501E+00 -0.90664890590E+00  0.11802745717E+01  0.00000000000E+00 0. -1.
         11    1    3    3    0    0  0.18715834171E+02 -0.30949383291E+02 -0.12356049176E+02  0.38220658371E+02  0.51100000000E-03 0. -1.
        -11    1    3    3    0    0  0.35547517827E+01 -0.55357655557E+00 -0.69696106217E+01  0.78433525816E+01  0.51100000000E-03 0.  1.
        -12    1    3    3    0    0 -0.22004597480E+02  0.32210268801E+02  0.20232308704E+02  0.43943714476E+02  0.00000000000E+00 0.  1.
</event>
<event>
 7    1  0.2285268E-015  0.9000792E+02  0.7816164E-02  0.1186339E+00
        -11   -1    0    0    0    0  0.00000000000E+00  0.00000000000E+00  0.45593999997E+02  0.45594000000E+02  0.51100000000E-03 0.  1.
         11   -1    0    0    0    0 -0.00000000000E+00 -0.00000000000E+00 -0.45593999997E+02  0.45594000000E+02  0.51100000000E-03 0. -1.
    9900012    2    1    2    0    0 -0.22198444681E+00 -0.10758987646E+01  0.43097855417E+00  0.90007924680E+02  0.90000188486E+02 0.  0.
         12    1    1    2    0    0  0.22198444681E+00  0.10758987646E+01 -0.43097855417E+00  0.11800753198E+01  0.00000000000E+00 0. -1.
         11    1    3    3    0    0  0.26748634978E+02  0.18923848284E+02 -0.20757222395E+02  0.38787417920E+02  0.51100000000E-03 0. -1.
        -11    1    3    3    0    0  0.36497402344E+01  0.52262808119E+01  0.59549987124E+01  0.87233379408E+01  0.51100000000E-03 0.  1.
        -12    1    3    3    0    0 -0.30620359660E+02 -0.25226027860E+02  0.15233202237E+02  0.42497168820E+02  0.00000000000E+00 0.  1.
</event>
<event>
 7    1  0.2285268E-015  0.9000803E+02  0.7816164E-02  0.1186338E+00
        -11   -1    0    0    0    0  0.00000000000E+00  0.00000000000E+00  0.45593999997E+02  0.45594000000E+02  0.51100000000E-03 0.  1.
         11   -1    0    0    0    0 -0.00000000000E+00 -0.00000000000E+00 -0.45593999997E+02  0.45594000000E+02  0.51100000000E-03 0. -1.
    9900012    2    1    2    0    0  0.38191503246E+00  0.10806582505E+01 -0.28045362241E+00  0.90008027297E+02  0.90000292456E+02 0.  0.
         12    1    1    2    0    0 -0.38191503246E+00 -0.10806582505E+01  0.28045362241E+00  0.11799727034E+01  0.00000000000E+00 0. -1.
         11    1    3    3    0    0  0.21668240063E+01  0.72452037191E+01  0.56053650646E+01  0.94131939837E+01  0.51100000000E-03 0. -1.
        -11    1    3    3    0    0 -0.14253656547E+02  0.34393104258E+02  0.26119312111E+01  0.37321234309E+02  0.51100000000E-03 0.  1.
         12    1    3    3    0    0  0.12468747573E+02 -0.40557649727E+02 -0.84977498981E+01  0.43273599004E+02  0.00000000000E+00 0. -1.
</event>
<event>
 7    1  0.2285268E-015  0.9000771E+02  0.7816164E-02  0.1186339E+00
        -11   -1    0    0    0    0  0.00000000000E+00  0.00000000000E+00  0.45593999997E+02  0.45594000000E+02  0.51100000000E-03 0.  1.
         11   -1    0    0    0    0 -0.00000000000E+00 -0.00000000000E+00 -0.45593999997E+02  0.45594000000E+02  0.51100000000E-03 0. -1.
    9900012    2    1    2    0    0  0.15851981517E+00 -0.29170486980E+00  0.11326350281E+01  0.90007710896E+02  0.89999971880E+02 0.  0.
         12    1    1    2    0    0 -0.15851981517E+00  0.29170486980E+00 -0.11326350281E+01  0.11802891043E+01  0.00000000000E+00 0. -1.
         11    1    3    3    0    0 -0.13931099232E+02  0.32035199458E+02 -0.21282949463E+02  0.40905909943E+02  0.51100000000E-03 0. -1.
        -11    1    3    3    0    0 -0.85871395984E-01  0.31769019825E+01  0.73564437850E+01  0.80135725820E+01  0.51100000000E-03 0.  1.
        -12    1    3    3    0    0  0.14175490443E+02 -0.35503806311E+02  0.15059140706E+02  0.41088228371E+02  0.00000000000E+00 0.  1.
</event>
<event>
 7    1  0.2285268E-015  0.9000776E+02  0.7816164E-02  0.1186339E+00
        -11   -1    0    0    0    0  0.00000000000E+00  0.00000000000E+00  0.45593999997E+02  0.45594000000E+02  0.51100000000E-03 0.  1.
         11   -1    0    0    0    0 -0.00000000000E+00 -0.00000000000E+00 -0.45593999997E+02  0.45594000000E+02  0.51100000000E-03 0. -1.
    9900012    2    1    2    0    0 -0.23127611616E+00 -0.31103925730E-01  0.11569445283E+01  0.90007755645E+02  0.90000017219E+02 0.  0.
         12    1    1    2    0    0  0.23127611616E+00  0.31103925730E-01 -0.11569445283E+01  0.11802443550E+01  0.00000000000E+00 0. -1.
         11    1    3    3    0    0 -0.55670989986E+01  0.15513487564E+02 -0.10164393713E+02  0.19364291557E+02  0.51100000000E-03 0. -1.
        -11    1    3    3    0    0 -0.25185699944E+02  0.10200009161E+02 -0.47799980305E+01  0.27589999094E+02  0.51100000000E-03 0.  1.
         12    1    3    3    0    0  0.30521522826E+02 -0.25744600651E+02  0.16101336272E+02  0.43053464995E+02  0.00000000000E+00 0. -1.
</event>
<event>
 7    1  0.2285268E-015  0.9000771E+02  0.7816164E-02  0.1186339E+00
        -11   -1    0    0    0    0  0.00000000000E+00  0.00000000000E+00  0.45593999997E+02  0.45594000000E+02  0.51100000000E-03 0. -1.
         11   -1    0    0    0    0 -0.00000000000E+00 -0.00000000000E+00 -0.45593999997E+02  0.45594000000E+02  0.51100000000E-03 0.  1.
    9900012    2    1    2    0    0 -0.10747896745E+00  0.80073917923E-01 -0.11726524246E+01  0.90007713056E+02  0.89999974069E+02 0.  0.
         12    1    1    2    0    0  0.10747896745E+00 -0.80073917923E-01  0.11726524246E+01  0.11802869438E+01  0.00000000000E+00 0. -1.
         11    1    3    3    0    0  0.20329571673E+02 -0.33367670107E+02  0.14301035037E+02  0.41607841763E+02  0.51100000000E-03 0. -1.
        -11    1    3    3    0    0 -0.16878519254E+00 -0.55966456591E-01 -0.86506541815E+01  0.86524816507E+01  0.51100000000E-03 0.  1.
        -12    1    3    3    0    0 -0.20268265448E+02  0.33503710481E+02 -0.68230332802E+01  0.39747389643E+02  0.00000000000E+00 0.  1.
</event>
<event>
 7    1  0.2285268E-015  0.9000756E+02  0.7816164E-02  0.1186339E+00
        -11   -1    0    0    0    0  0.00000000000E+00  0.00000000000E+00  0.45593999997E+02  0.45594000000E+02  0.51100000000E-03 0. -1.
         11   -1    0    0    0    0 -0.00000000000E+00 -0.00000000000E+00 -0.45593999997E+02  0.45594000000E+02  0.51100000000E-03 0.  1.
    9900012    2    1    2    0    0  0.33684381858E+00  0.64497966709E+00  0.92950825863E+00  0.90007555960E+02  0.89999814898E+02 0.  0.
         12    1    1    2    0    0 -0.33684381858E+00 -0.64497966709E+00 -0.92950825863E+00  0.11804440402E+01  0.00000000000E+00 0. -1.
         11    1    3    3    0    0 -0.30702313176E+02 -0.78980816247E+01  0.27101267361E+02  0.41707198665E+02  0.51100000000E-03 0. -1.
        -11    1    3    3    0    0  0.38833801880E+01  0.10632146076E+02 -0.12588631240E+01  0.11388937988E+02  0.51100000000E-03 0.  1.
        -12    1    3    3    0    0  0.27155776806E+02 -0.20890847846E+01 -0.24912895978E+02  0.36911419306E+02  0.00000000000E+00 0.  1.
</event>
<event>
 7    1  0.2285268E-015  0.9000774E+02  0.7816164E-02  0.1186339E+00
        -11   -1    0    0    0    0  0.00000000000E+00  0.00000000000E+00  0.45593999997E+02  0.45594000000E+02  0.51100000000E-03 0. -1.
         11   -1    0    0    0    0 -0.00000000000E+00 -0.00000000000E+00 -0.45593999997E+02  0.45594000000E+02  0.51100000000E-03 0.  1.
    9900012    2    1    2    0    0  0.26417045612E-01  0.35443306003E+00 -0.11254722507E+01  0.90007742214E+02  0.90000003611E+02 0.  0.
         12    1    1    2    0    0 -0.26417045612E-01 -0.35443306003E+00  0.11254722507E+01  0.11802577860E+01  0.00000000000E+00 0. -1.
         11    1    3    3    0    0  0.89139257320E+01  0.45491146270E+01 -0.37788206737E+00  0.10014754663E+02  0.51100000000E-03 0. -1.
        -11    1    3    3    0    0  0.30218163293E+02  0.16210974945E+02 -0.81993630760E+01  0.35258511832E+02  0.51100000000E-03 0.  1.
         12    1    3    3    0    0 -0.39105671979E+02 -0.20405656512E+02  0.74517728926E+01  0.44734475719E+02  0.00000000000E+00 0. -1.
</event>
<event>
 7    1  0.2285268E-015  0.9000777E+02  0.7816164E-02  0.1186339E+00
        -11   -1    0    0    0    0  0.00000000000E+00  0.00000000000E+00  0.45593999997E+02  0.45594000000E+02  0.51100000000E-03 0.  1.
         11   -1    0    0    0    0 -0.00000000000E+00 -0.00000000000E+00 -0.45593999997E+02  0.45594000000E+02  0.51100000000E-03 0. -1.
    9900012    2    1    2    0    0 -0.81432872545E+00 -0.76560728620E+00 -0.37900897151E+00  0.90007773924E+02  0.90000035740E+02 0.  0.
         12    1    1    2    0    0  0.81432872545E+00  0.76560728620E+00  0.37900897151E+00  0.11802260759E+01  0.00000000000E+00 0. -1.
         11    1    3    3    0    0  0.84346922111E+01  0.23613326888E+01 -0.30766419210E+01  0.92836227053E+01  0.51100000000E-03 0. -1.
        -11    1    3    3    0    0  0.15520777385E+02 -0.34076788866E+02  0.13219953614E+02  0.39710064768E+02  0.51100000000E-03 0.  1.
         12    1    3    3    0    0 -0.24769798321E+02  0.30949848891E+02 -0.10522320665E+02  0.41014086451E+02  0.00000000000E+00 0. -1.
</event>
<event>
 7    1  0.2285268E-015  0.9000774E+02  0.7816164E-02  0.1186339E+00
        -11   -1    0    0    0    0  0.00000000000E+00  0.00000000000E+00  0.45593999997E+02  0.45594000000E+02  0.51100000000E-03 0. -1.
         11   -1    0    0    0    0 -0.00000000000E+00 -0.00000000000E+00 -0.45593999997E+02  0.45594000000E+02  0.51100000000E-03 0.  1.
    9900012    2    1    2    0    0 -0.11399403335E+01  0.93845188414E-02  0.30573055833E+00  0.90007735959E+02  0.89999997273E+02 0.  0.
         12    1    1    2    0    0  0.11399403335E+01 -0.93845188414E-02 -0.30573055833E+00  0.11802640414E+01  0.00000000000E+00 0. -1.
         11    1    3    3    0    0  0.30942564033E+02  0.34033879293E+00  0.96451582204E+01  0.32412762560E+02  0.51100000000E-03 0. -1.
        -11    1    3    3    0    0  0.95441804434E+01  0.87332036818E+01  0.29236116930E+01  0.13263021242E+02  0.51100000000E-03 0.  1.
        -12    1    3    3    0    0 -0.41626684810E+02 -0.90641579559E+01 -0.12263039355E+02  0.44331952156E+02  0.00000000000E+00 0.  1.
</event>
<event>
 7    1  0.2285268E-015  0.9000779E+02  0.7816164E-02  0.1186339E+00
        -11   -1    0    0    0    0  0.00000000000E+00  0.00000000000E+00  0.45593999997E+02  0.45594000000E+02  0.51100000000E-03 0.  1.
         11   -1    0    0    0    0 -0.00000000000E+00 -0.00000000000E+00 -0.45593999997E+02  0.45594000000E+02  0.51100000000E-03 0. -1.
    9900012    2    1    2    0    0 -0.29643102141E+00  0.12396902024E+00  0.11356302655E+01  0.90007789947E+02  0.90000051975E+02 0.  0.
         12    1    1    2    0    0  0.29643102141E+00 -0.12396902024E+00 -0.11356302655E+01  0.11802100526E+01  0.00000000000E+00 0. -1.
         11    1    3    3    0    0 -0.85722228096E+01  0.48535529552E+00  0.10033886287E+02  0.13205962591E+02  0.51100000000E-03 0. -1.
        -11    1    3    3    0    0  0.18440708171E+02 -0.32787654199E+02  0.85866006309E+01  0.38585226400E+02  0.51100000000E-03 0.  1.
         12    1    3    3    0    0 -0.10164916383E+02  0.32426267923E+02 -0.17484856652E+02  0.38216600957E+02  0.00000000000E+00 0. -1.
</event>
<event>
 7    1  0.2285268E-015  0.9000763E+02  0.7816164E-02  0.1186339E+00
        -11   -1    0    0    0    0  0.00000000000E+00  0.00000000000E+00  0.45593999997E+02  0.45594000000E+02  0.51100000000E-03 0.  1.
         11   -1    0    0    0    0 -0.00000000000E+00 -0.00000000000E+00 -0.45593999997E+02  0.45594000000E+02  0.51100000000E-03 0. -1.
    9900012    2    1    2    0    0 -0.19862216361E+00  0.11148002084E+01 -0.33322497788E+00  0.90007631772E+02  0.89999891711E+02 0.  0.
         12    1    1    2    0    0  0.19862216361E+00 -0.11148002084E+01  0.33322497788E+00  0.11803682283E+01  0.00000000000E+00 0. -1.
         11    1    3    3    0    0  0.12005431336E+02 -0.34457148590E+02  0.18147353760E+02  0.40752324096E+02  0.51100000000E-03 0. -1.
        -11    1    3    3    0    0  0.48993740366E+01  0.12676117183E+02  0.24793464158E+01  0.13814303157E+02  0.51100000000E-03 0.  1.
        -12    1    3    3    0    0 -0.17103427536E+02  0.22895831615E+02 -0.20959925154E+02  0.35441004518E+02  0.00000000000E+00 0.  1.
</event>
<event>
 7    1  0.2285268E-015  0.9000782E+02  0.7816164E-02  0.1186339E+00
        -11   -1    0    0    0    0  0.00000000000E+00  0.00000000000E+00  0.45593999997E+02  0.45594000000E+02  0.51100000000E-03 0. -1.
         11   -1    0    0    0    0 -0.00000000000E+00 -0.00000000000E+00 -0.45593999997E+02  0.45594000000E+02  0.51100000000E-03 0.  1.
    9900012    2    1    2    0    0 -0.30608479549E+00  0.11450705810E-01 -0.11397346085E+01  0.90007824590E+02  0.90000087074E+02 0.  0.
         12    1    1    2    0    0  0.30608479549E+00 -0.11450705810E-01  0.11397346085E+01  0.11801754101E+01  0.00000000000E+00 0. -1.
         11    1    3    3    0    0  0.19813737301E+02 -0.13567335364E+02  0.21526905612E+02  0.32250030081E+02  0.51100000000E-03 0. -1.
        -11    1    3    3    0    0  0.10432556085E+02 -0.39332158753E+01  0.57153133433E+01  0.12528895420E+02  0.51100000000E-03 0.  1.
        -12    1    3    3    0    0 -0.30552378181E+02  0.17512001945E+02 -0.28381953564E+02  0.45228899089E+02  0.00000000000E+00 0.  1.
</event>
<event>
 7    1  0.2285268E-015  0.9000796E+02  0.7816164E-02  0.1186339E+00
        -11   -1    0    0    0    0  0.00000000000E+00  0.00000000000E+00  0.45593999997E+02  0.45594000000E+02  0.51100000000E-03 0.  1.
         11   -1    0    0    0    0 -0.00000000000E+00 -0.00000000000E+00 -0.45593999997E+02  0.45594000000E+02  0.51100000000E-03 0. -1.
    9900012    2    1    2    0    0 -0.61734323493E+00  0.46207088344E+00 -0.89324188010E+00  0.90007956260E+02  0.90000220483E+02 0.  0.
         12    1    1    2    0    0  0.61734323493E+00 -0.46207088344E+00  0.89324188010E+00  0.11800437396E+01  0.00000000000E+00 0. -1.
         11    1    3    3    0    0  0.40767760138E+02 -0.88787631329E+01  0.10253187921E+02  0.42964759563E+02  0.51100000000E-03 0. -1.
        -11    1    3    3    0    0 -0.43195215812E+01  0.64096017744E+01 -0.53802042040E+01  0.94174231685E+01  0.51100000000E-03 0.  1.
        -12    1    3    3    0    0 -0.37065581792E+02  0.29312322419E+01 -0.57662255976E+01  0.37625773529E+02  0.00000000000E+00 0.  1.
</event>
<event>
 7    1  0.2285268E-015  0.9000779E+02  0.7816164E-02  0.1186339E+00
        -11   -1    0    0    0    0  0.00000000000E+00  0.00000000000E+00  0.45593999997E+02  0.45594000000E+02  0.51100000000E-03 0.  1.
         11   -1    0    0    0    0 -0.00000000000E+00 -0.00000000000E+00 -0.45593999997E+02  0.45594000000E+02  0.51100000000E-03 0. -1.
    9900012    2    1    2    0    0  0.47657645359E+00 -0.25180240644E+00  0.10499316365E+01  0.90007794082E+02  0.90000056164E+02 0.  0.
         12    1    1    2    0    0 -0.47657645359E+00  0.25180240644E+00 -0.10499316365E+01  0.11802059182E+01  0.00000000000E+00 0. -1.
         11    1    3    3    0    0 -0.12843579133E+02 -0.39410503558E+02  0.15099957066E+00  0.41450791509E+02  0.51100000000E-03 0. -1.
        -11    1    3    3    0    0 -0.47037722344E+01 -0.31535714957E+00 -0.18764798204E+01  0.50740615036E+01  0.51100000000E-03 0.  1.
        -12    1    3    3    0    0  0.18023927821E+02  0.39474058301E+02  0.27754118863E+01  0.43482941069E+02  0.00000000000E+00 0.  1.
</event>
<event>
 7    1  0.2285268E-015  0.9000772E+02  0.7816164E-02  0.1186339E+00
        -11   -1    0    0    0    0  0.00000000000E+00  0.00000000000E+00  0.45593999997E+02  0.45594000000E+02  0.51100000000E-03 0.  1.
         11   -1    0    0    0    0 -0.00000000000E+00 -0.00000000000E+00 -0.45593999997E+02  0.45594000000E+02  0.51100000000E-03 0. -1.
    9900012    2    1    2    0    0  0.21562301853E+00  0.27993907199E+00  0.11261476332E+01  0.90007717126E+02  0.89999978192E+02 0.  0.
         12    1    1    2    0    0 -0.21562301853E+00 -0.27993907199E+00 -0.11261476332E+01  0.11802828737E+01  0.00000000000E+00 0. -1.
         11    1    3    3    0    0  0.26608953329E+01  0.13088747865E+02 -0.31763700986E+02  0.34457631742E+02  0.51100000000E-03 0. -1.
        -11    1    3    3    0    0 -0.39326790252E+01  0.43603668658E+01 -0.87199513263E+01  0.10512674013E+02  0.51100000000E-03 0.  1.
        -12    1    3    3    0    0  0.14874067107E+01 -0.17169175659E+02  0.41609799946E+02  0.45037411371E+02  0.00000000000E+00 0.  1.
</event>
<event>
 7    1  0.2285268E-015  0.9000774E+02  0.7816164E-02  0.1186339E+00
        -11   -1    0    0    0    0  0.00000000000E+00  0.00000000000E+00  0.45593999997E+02  0.45594000000E+02  0.51100000000E-03 0.  1.
         11   -1    0    0    0    0 -0.00000000000E+00 -0.00000000000E+00 -0.45593999997E+02  0.45594000000E+02  0.51100000000E-03 0. -1.
    9900012    2    1    2    0    0 -0.41046421396E+00 -0.10966161090E+00  0.11011378937E+01  0.90007741045E+02  0.90000002427E+02 0.  0.
         12    1    1    2    0    0  0.41046421396E+00  0.10966161090E+00 -0.11011378937E+01  0.11802589550E+01  0.00000000000E+00 0. -1.
         11    1    3    3    0    0  0.60879187507E+00  0.23712610275E+01  0.11490715508E+02  0.11748619049E+02  0.51100000000E-03 0. -1.
        -11    1    3    3    0    0 -0.17655915530E+02  0.22372920525E+01  0.29685827087E+02  0.34611922209E+02  0.51100000000E-03 0.  1.
         12    1    3    3    0    0  0.16636659441E+02 -0.47182146909E+01 -0.40075404702E+02  0.43647199787E+02  0.00000000000E+00 0. -1.
</event>
<event>
 7    1  0.2285268E-015  0.9000764E+02  0.7816164E-02  0.1186339E+00
        -11   -1    0    0    0    0  0.00000000000E+00  0.00000000000E+00  0.45593999997E+02  0.45594000000E+02  0.51100000000E-03 0. -1.
         11   -1    0    0    0    0 -0.00000000000E+00 -0.00000000000E+00 -0.45593999997E+02  0.45594000000E+02  0.51100000000E-03 0.  1.
    9900012    2    1    2    0    0 -0.99526664013E+00 -0.58992067250E+00 -0.23385769818E+00  0.90007639247E+02  0.89999899285E+02 0.  0.
         12    1    1    2    0    0  0.99526664013E+00  0.58992067250E+00  0.23385769818E+00  0.11803607532E+01  0.00000000000E+00 0. -1.
         11    1    3    3    0    0 -0.80160655307E+01  0.30837412729E+02  0.26096423550E+02  0.41185272280E+02  0.51100000000E-03 0. -1.
        -11    1    3    3    0    0 -0.78840568092E+01 -0.59660315426E+01 -0.10003495772E+01  0.99374334552E+01  0.51100000000E-03 0.  1.
        -12    1    3    3    0    0  0.14904855700E+02 -0.25461301859E+02 -0.25329931671E+02  0.38884933512E+02  0.00000000000E+00 0.  1.
</event>
<event>
 7    1  0.2285268E-015  0.9000765E+02  0.7816164E-02  0.1186339E+00
        -11   -1    0    0    0    0  0.00000000000E+00  0.00000000000E+00  0.45593999997E+02  0.45594000000E+02  0.51100000000E-03 0.  1.
         11   -1    0    0    0    0 -0.00000000000E+00 -0.00000000000E+00 -0.45593999997E+02  0.45594000000E+02  0.51100000000E-03 0. -1.
    9900012    2    1    2    0    0  0.10398607889E+01  0.19684871207E+00  0.52266174058E+00  0.90007646167E+02  0.89999906296E+02 0.  0.
         12    1    1    2    0    0 -0.10398607889E+01 -0.19684871207E+00 -0.52266174058E+00  0.11803538329E+01  0.00000000000E+00 0. -1.
         11    1    3    3    0    0 -0.95657524659E+01 -0.20752870390E+02 -0.34060232868E+02  0.41015664239E+02  0.51100000000E-03 0. -1.
        -11    1    3    3    0    0 -0.20599589148E+01  0.97994371429E+01 -0.53753006806E+00  0.10028027617E+02  0.51100000000E-03 0.  1.
        -12    1    3    3    0    0  0.12665572170E+02  0.11150281959E+02  0.35120424677E+02  0.38963954312E+02  0.00000000000E+00 0.  1.
</event>
<event>
 7    1  0.2285268E-015  0.9000794E+02  0.7816164E-02  0.1186339E+00
        -11   -1    0    0    0    0  0.00000000000E+00  0.00000000000E+00  0.45593999997E+02  0.45594000000E+02  0.51100000000E-03 0. -1.
         11   -1    0    0    0    0 -0.00000000000E+00 -0.00000000000E+00 -0.45593999997E+02  0.45594000000E+02  0.51100000000E-03 0.  1.
    9900012    2    1    2    0    0  0.56955157392E+00 -0.18589952890E+00 -0.10166557797E+01  0.90007942118E+02  0.90000206154E+02 0.  0.
         12    1    1    2    0    0 -0.56955157392E+00  0.18589952890E+00  0.10166557797E+01  0.11800578819E+01  0.00000000000E+00 0. -1.
         11    1    3    3    0    0 -0.16366946154E+02  0.19494674364E+02  0.33835428009E+02  0.42340942878E+02  0.51100000000E-03 0. -1.
        -11    1    3    3    0    0  0.45451016358E+01 -0.83574026189E+01 -0.61112995597E+00  0.95329747455E+01  0.51100000000E-03 0.  1.
        -12    1    3    3    0    0  0.12391396093E+02 -0.11323171274E+02 -0.34240953833E+02  0.38134024495E+02  0.00000000000E+00 0.  1.
</event>
<event>
 7    1  0.2285268E-015  0.9000773E+02  0.7816164E-02  0.1186339E+00
        -11   -1    0    0    0    0  0.00000000000E+00  0.00000000000E+00  0.45593999997E+02  0.45594000000E+02  0.51100000000E-03 0. -1.
         11   -1    0    0    0    0 -0.00000000000E+00 -0.00000000000E+00 -0.45593999997E+02  0.45594000000E+02  0.51100000000E-03 0.  1.
    9900012    2    1    2    0    0  0.63558161226E+00 -0.69549179574E+00  0.71089441350E+00  0.90007727281E+02  0.89999988481E+02 0.  0.
         12    1    1    2    0    0 -0.63558161226E+00  0.69549179574E+00 -0.71089441350E+00  0.11802727189E+01  0.00000000000E+00 0. -1.
         11    1    3    3    0    0 -0.17132599074E+02 -0.22099312887E+01  0.35837777808E+02  0.39783866904E+02  0.51100000000E-03 0. -1.
        -11    1    3    3    0    0 -0.62171016342E+01  0.75119166004E+01 -0.41684858444E+01  0.10604598919E+02  0.51100000000E-03 0.  1.
        -12    1    3    3    0    0  0.23985282320E+02 -0.59974771075E+01 -0.30958397550E+02  0.39619261458E+02  0.00000000000E+00 0.  1.
</event>
<event>
 7    1  0.2285268E-015  0.9000769E+02  0.7816164E-02  0.1186339E+00
        -11   -1    0    0    0    0  0.00000000000E+00  0.00000000000E+00  0.45593999997E+02  0.45594000000E+02  0.51100000000E-03 0.  1.
         11   -1    0    0    0    0 -0.00000000000E+00 -0.00000000000E+00 -0.45593999997E+02  0.45594000000E+02  0.51100000000E-03 0. -1.
    9900012    2    1    2    0    0 -0.87391561625E-01  0.57370039738E+00  0.10277959675E+01  0.90007689032E+02  0.89999949727E+02 0.  0.
         12    1    1    2    0    0  0.87391561625E-01 -0.57370039738E+00 -0.10277959675E+01  0.11803109683E+01  0.00000000000E+00 0. -1.
         11    1    3    3    0    0 -0.34596553406E+02  0.66111829388E+01  0.71743916360E+01  0.35945808421E+02  0.51100000000E-03 0. -1.
        -11    1    3    3    0    0 -0.63614712020E+01  0.32617712819E+01  0.71275171190E+01  0.10094997191E+02  0.51100000000E-03 0.  1.
        -12    1    3    3    0    0  0.40870633047E+02 -0.92992538234E+01 -0.13274112788E+02  0.43966883419E+02  0.00000000000E+00 0.  1.
</event>
<event>
 7    1  0.2285268E-015  0.9000770E+02  0.7816164E-02  0.1186339E+00
        -11   -1    0    0    0    0  0.00000000000E+00  0.00000000000E+00  0.45593999997E+02  0.45594000000E+02  0.51100000000E-03 0. -1.
         11   -1    0    0    0    0 -0.00000000000E+00 -0.00000000000E+00 -0.45593999997E+02  0.45594000000E+02  0.51100000000E-03 0.  1.
    9900012    2    1    2    0    0 -0.33065270667E+00  0.66094608490E+00 -0.92028094344E+00  0.90007704294E+02  0.89999965190E+02 0.  0.
         12    1    1    2    0    0  0.33065270667E+00 -0.66094608490E+00  0.92028094344E+00  0.11802957064E+01  0.00000000000E+00 0. -1.
         11    1    3    3    0    0 -0.47382873811E+00  0.40140298528E+01  0.78846158357E+01  0.88602548762E+01  0.51100000000E-03 0. -1.
        -11    1    3    3    0    0 -0.27046653778E+02 -0.31050124919E+02  0.71575576474E+00  0.41184269383E+02  0.51100000000E-03 0.  1.
         12    1    3    3    0    0  0.27189829809E+02  0.27697041151E+02 -0.95206525439E+01  0.39963180034E+02  0.00000000000E+00 0. -1.
</event>
<event>
 7    1  0.2285268E-015  0.9000773E+02  0.7816164E-02  0.1186339E+00
        -11   -1    0    0    0    0  0.00000000000E+00  0.00000000000E+00  0.45593999997E+02  0.45594000000E+02  0.51100000000E-03 0. -1.
         11   -1    0    0    0    0 -0.00000000000E+00 -0.00000000000E+00 -0.45593999997E+02  0.45594000000E+02  0.51100000000E-03 0.  1.
    9900012    2    1    2    0    0  0.10826260536E+01 -0.32896646170E+00  0.33575208921E+00  0.90007734110E+02  0.89999995401E+02 0.  0.
         12    1    1    2    0    0 -0.10826260536E+01  0.32896646170E+00 -0.33575208921E+00  0.11802658896E+01  0.00000000000E+00 0. -1.
         11    1    3    3    0    0 -0.55324201486E+01  0.37194642495E+01  0.68097778363E+01  0.95296989168E+01  0.51100000000E-03 0. -1.
        -11    1    3    3    0    0 -0.16061764026E+02  0.14004085407E+02 -0.34246635021E+02  0.40335179214E+02  0.51100000000E-03 0.  1.
         12    1    3    3    0    0  0.22676810228E+02 -0.18052516119E+02  0.27772609274E+02  0.40142855980E+02  0.00000000000E+00 0. -1.
</event>
<event>
 7    1  0.2285268E-015  0.9000784E+02  0.7816164E-02  0.1186339E+00
        -11   -1    0    0    0    0  0.00000000000E+00  0.00000000000E+00  0.45593999997E+02  0.45594000000E+02  0.51100000000E-03 0. -1.
         11   -1    0    0    0    0 -0.00000000000E+00 -0.00000000000E+00 -0.45593999997E+02  0.45594000000E+02  0.51100000000E-03 0.  1.
    9900012    2    1    2    0    0 -0.94481605163E+00  0.70540626729E+00 -0.49994766766E-01  0.90007841176E+02  0.90000103879E+02 0.  0.
         12    1    1    2    0    0  0.94481605163E+00 -0.70540626729E+00  0.49994766766E-01  0.11801588241E+01  0.00000000000E+00 0. -1.
         11    1    3    3    0    0  0.70409063146E+01 -0.77826704680E+01 -0.14857788276E+01  0.10599616046E+02  0.51100000000E-03 0. -1.
        -11    1    3    3    0    0  0.28050944989E+02 -0.19053164613E+02 -0.16280508440E+01  0.33948919664E+02  0.51100000000E-03 0.  1.
         12    1    3    3    0    0 -0.36036667355E+02  0.27541241348E+02  0.30638349048E+01  0.45459305465E+02  0.00000000000E+00 0. -1.
</event>
<event>
 7    1  0.2285268E-015  0.9000757E+02  0.7816164E-02  0.1186339E+00
        -11   -1    0    0    0    0  0.00000000000E+00  0.00000000000E+00  0.45593999997E+02  0.45594000000E+02  0.51100000000E-03 0.  1.
         11   -1    0    0    0    0 -0.00000000000E+00 -0.00000000000E+00 -0.45593999997E+02  0.45594000000E+02  0.51100000000E-03 0. -1.
    9900012    2    1    2    0    0 -0.91355786370E+00  0.30070613174E+00  0.68439901387E+00  0.90007570350E+02  0.89999829479E+02 0.  0.
         12    1    1    2    0    0  0.91355786370E+00 -0.30070613174E+00 -0.68439901387E+00  0.11804296498E+01  0.00000000000E+00 0. -1.
         11    1    3    3    0    0 -0.57666390726E+01  0.24017168771E+02 -0.26516180301E+02  0.36237913019E+02  0.51100000000E-03 0. -1.
        -11    1    3    3    0    0 -0.37174697615E+01  0.94040073063E+01  0.79861922521E-01  0.10112433586E+02  0.51100000000E-03 0.  1.
        -12    1    3    3    0    0  0.85705509704E+01 -0.33120469945E+02  0.27120717392E+02  0.43657223746E+02  0.00000000000E+00 0.  1.
</event>
<event>
 7    1  0.2285268E-015  0.9000779E+02  0.7816164E-02  0.1186339E+00
        -11   -1    0    0    0    0  0.00000000000E+00  0.00000000000E+00  0.45593999997E+02  0.45594000000E+02  0.51100000000E-03 0.  1.
         11   -1    0    0    0    0 -0.00000000000E+00 -0.00000000000E+00 -0.45593999997E+02  0.45594000000E+02  0.51100000000E-03 0. -1.
    9900012    2    1    2    0    0  0.81074289056E+00  0.22219889678E+00 -0.82838865698E+00  0.90007786396E+02  0.90000048376E+02 0.  0.
         12    1    1    2    0    0 -0.81074289056E+00 -0.22219889678E+00  0.82838865698E+00  0.11802136041E+01  0.00000000000E+00 0. -1.
         11    1    3    3    0    0  0.28685107028E+01  0.93309800837E+01 -0.11719515486E+01  0.98320401580E+01  0.51100000000E-03 0. -1.
        -11    1    3    3    0    0  0.10995112633E+02  0.17879536263E+02  0.30909029075E+02  0.37362258997E+02  0.51100000000E-03 0.  1.
         12    1    3    3    0    0 -0.13052880445E+02 -0.26988317450E+02 -0.30565466183E+02  0.42813487240E+02  0.00000000000E+00 0. -1.
</event>
<event>
 7    1  0.2285268E-015  0.9000773E+02  0.7816164E-02  0.1186339E+00
        -11   -1    0    0    0    0  0.00000000000E+00  0.00000000000E+00  0.45593999997E+02  0.45594000000E+02  0.51100000000E-03 0. -1.
         11   -1    0    0    0    0 -0.00000000000E+00 -0.00000000000E+00 -0.45593999997E+02  0.45594000000E+02  0.51100000000E-03 0.  1.
    9900012    2    1    2    0    0 -0.11062975219E+01  0.41082293117E+00 -0.19438959891E-01  0.90007725642E+02  0.89999986820E+02 0.  0.
         12    1    1    2    0    0  0.11062975219E+01 -0.41082293117E+00  0.19438959891E-01  0.11802743584E+01  0.00000000000E+00 0. -1.
         11    1    3    3    0    0  0.39098192474E+01  0.65627372903E+01  0.59837738152E+01  0.97036980900E+01  0.51100000000E-03 0. -1.
        -11    1    3    3    0    0 -0.17244177153E+02 -0.38483331191E+02 -0.14702304660E+02  0.44659670709E+02  0.51100000000E-03 0.  1.
         12    1    3    3    0    0  0.12228060384E+02  0.32331416832E+02  0.86990918845E+01  0.35644356843E+02  0.00000000000E+00 0. -1.
</event>
<event>
 7    1  0.2285268E-015  0.9000803E+02  0.7816164E-02  0.1186338E+00
        -11   -1    0    0    0    0  0.00000000000E+00  0.00000000000E+00  0.45593999997E+02  0.45594000000E+02  0.51100000000E-03 0.  1.
         11   -1    0    0    0    0 -0.00000000000E+00 -0.00000000000E+00 -0.45593999997E+02  0.45594000000E+02  0.51100000000E-03 0. -1.
    9900012    2    1    2    0    0 -0.77659860130E+00  0.76007536072E+00 -0.45990035394E+00  0.90008030391E+02  0.90000295592E+02 0.  0.
         12    1    1    2    0    0  0.77659860130E+00 -0.76007536072E+00  0.45990035394E+00  0.11799696085E+01  0.00000000000E+00 0. -1.
         11    1    3    3    0    0 -0.48436781518E+01  0.55606432025E+01  0.10092558329E+02  0.12499668186E+02  0.51100000000E-03 0. -1.
        -11    1    3    3    0    0 -0.36063805738E+02 -0.44406111421E+01 -0.85354624715E+01  0.37325209062E+02  0.51100000000E-03 0.  1.
         12    1    3    3    0    0  0.40130885289E+02 -0.35995669965E+00 -0.20169962119E+01  0.40183153144E+02  0.00000000000E+00 0. -1.
</event>
<event>
 7    1  0.2285268E-015  0.9000772E+02  0.7816164E-02  0.1186339E+00
        -11   -1    0    0    0    0  0.00000000000E+00  0.00000000000E+00  0.45593999997E+02  0.45594000000E+02  0.51100000000E-03 0. -1.
         11   -1    0    0    0    0 -0.00000000000E+00 -0.00000000000E+00 -0.45593999997E+02  0.45594000000E+02  0.51100000000E-03 0.  1.
    9900012    2    1    2    0    0  0.10868921473E+01 -0.25911528401E+00  0.38023397171E+00  0.90007723277E+02  0.89999984424E+02 0.  0.
         12    1    1    2    0    0 -0.10868921473E+01  0.25911528401E+00 -0.38023397171E+00  0.11802767233E+01  0.00000000000E+00 0. -1.
         11    1    3    3    0    0  0.19676108073E+02  0.12316140446E+02  0.16700376317E+02  0.28596138092E+02  0.51100000000E-03 0. -1.
        -11    1    3    3    0    0  0.11497553399E+02  0.26266684548E+00 -0.25042827838E+02  0.27557321249E+02  0.51100000000E-03 0.  1.
        -12    1    3    3    0    0 -0.30086769324E+02 -0.12837922575E+02  0.87226854930E+01  0.33854263936E+02  0.00000000000E+00 0.  1.
</event>
<event>
 7    1  0.2285268E-015  0.9000770E+02  0.7816164E-02  0.1186339E+00
        -11   -1    0    0    0    0  0.00000000000E+00  0.00000000000E+00  0.45593999997E+02  0.45594000000E+02  0.51100000000E-03 0. -1.
         11   -1    0    0    0    0 -0.00000000000E+00 -0.00000000000E+00 -0.45593999997E+02  0.45594000000E+02  0.51100000000E-03 0.  1.
    9900012    2    1    2    0    0 -0.10733161151E+01 -0.47489387071E+00  0.12481262699E+00  0.90007699249E+02  0.89999960079E+02 0.  0.
         12    1    1    2    0    0  0.10733161151E+01  0.47489387071E+00 -0.12481262699E+00  0.11803007512E+01  0.00000000000E+00 0. -1.
         11    1    3    3    0    0 -0.18585581966E+02 -0.31774898010E+00  0.30804969773E+02  0.35978757405E+02  0.51100000000E-03 0. -1.
        -11    1    3    3    0    0 -0.32921328077E+01 -0.49898370507E+01  0.79145596419E+01  0.99185113199E+01  0.51100000000E-03 0.  1.
        -12    1    3    3    0    0  0.20804398659E+02  0.48326921601E+01 -0.38594716788E+02  0.44110430524E+02  0.00000000000E+00 0.  1.
</event>
<event>
 7    1  0.2285268E-015  0.9000746E+02  0.7816164E-02  0.1186340E+00
        -11   -1    0    0    0    0  0.00000000000E+00  0.00000000000E+00  0.45593999997E+02  0.45594000000E+02  0.51100000000E-03 0.  1.
         11   -1    0    0    0    0 -0.00000000000E+00 -0.00000000000E+00 -0.45593999997E+02  0.45594000000E+02  0.51100000000E-03 0. -1.
    9900012    2    1    2    0    0 -0.75454717964E+00 -0.68906367192E+00 -0.59120080218E+00  0.90007462589E+02  0.89999720295E+02 0.  0.
         12    1    1    2    0    0  0.75454717964E+00  0.68906367192E+00  0.59120080218E+00  0.11805374110E+01  0.00000000000E+00 0. -1.
         11    1    3    3    0    0 -0.65914469701E+01  0.70872661415E+01  0.29489451285E+00  0.96831543185E+01  0.51100000000E-03 0. -1.
        -11    1    3    3    0    0 -0.15133857927E+02  0.19173837470E+02  0.26873901328E+02  0.36316336158E+02  0.51100000000E-03 0.  1.
         12    1    3    3    0    0  0.20970757717E+02 -0.26950167283E+02 -0.27759996643E+02  0.44007972113E+02  0.00000000000E+00 0. -1.
</event>
<event>
 7    1  0.2982074E-015  0.9000772E+02  0.7816164E-02  0.1186339E+00
        -11   -1    0    0    0    0  0.00000000000E+00  0.00000000000E+00  0.45593999997E+02  0.45594000000E+02  0.51100000000E-03 0. -1.
         11   -1    0    0    0    0 -0.00000000000E+00 -0.00000000000E+00 -0.45593999997E+02  0.45594000000E+02  0.51100000000E-03 0.  1.
    9900012    2    1    2    0    0 -0.11470741684E+01 -0.27028315928E+00 -0.64984512832E-01  0.90007722439E+02  0.89999983575E+02 0.  0.
         12    1    1    2    0    0  0.11470741684E+01  0.27028315928E+00  0.64984512832E-01  0.11802775609E+01  0.00000000000E+00 0. -1.
         11    1    3    3    0    0 -0.95609095184E+00  0.26231909707E+01  0.90017490289E+01  0.94247931870E+01  0.51100000000E-03 0. -1.
        -11    1    3    3    0    0 -0.38601937717E+02  0.85552362304E+01 -0.87767848980E+01  0.40501032281E+02  0.51100000000E-03 0.  1.
         12    1    3    3    0    0  0.38410954500E+02 -0.11448710360E+02 -0.28994864376E+00  0.40081896971E+02  0.00000000000E+00 0. -1.
</event>
<event>
 7    1  0.2439092E-015  0.9000778E+02  0.7816164E-02  0.1186339E+00
        -11   -1    0    0    0    0  0.00000000000E+00  0.00000000000E+00  0.45593999997E+02  0.45594000000E+02  0.51100000000E-03 0. -1.
         11   -1    0    0    0    0 -0.00000000000E+00 -0.00000000000E+00 -0.45593999997E+02  0.45594000000E+02  0.51100000000E-03 0.  1.
    9900012    2    1    2    0    0 -0.47235769207E+00  0.10331813864E+01  0.31991089986E+00  0.90007776059E+02  0.90000037903E+02 0.  0.
         12    1    1    2    0    0  0.47235769207E+00 -0.10331813864E+01 -0.31991089986E+00  0.11802239407E+01  0.00000000000E+00 0. -1.
         11    1    3    3    0    0  0.58593475704E+01  0.64676887270E+01  0.42146219373E+01  0.96915421763E+01  0.51100000000E-03 0. -1.
        -11    1    3    3    0    0 -0.32531636593E+02  0.22197883609E+02  0.84631297914E+01  0.40282477360E+02  0.51100000000E-03 0.  1.
         12    1    3    3    0    0  0.26199931331E+02 -0.27632390950E+02 -0.12357840829E+02  0.40033756522E+02  0.00000000000E+00 0. -1.
</event>
<event>
 7    1  0.2285268E-015  0.9000758E+02  0.7816164E-02  0.1186339E+00
        -11   -1    0    0    0    0  0.00000000000E+00  0.00000000000E+00  0.45593999997E+02  0.45594000000E+02  0.51100000000E-03 0.  1.
         11   -1    0    0    0    0 -0.00000000000E+00 -0.00000000000E+00 -0.45593999997E+02  0.45594000000E+02  0.51100000000E-03 0. -1.
    9900012    2    1    2    0    0 -0.40741898425E+00 -0.41847634957E+00  0.10258065250E+01  0.90007579858E+02  0.89999839112E+02 0.  0.
         12    1    1    2    0    0  0.40741898425E+00  0.41847634957E+00 -0.10258065250E+01  0.11804201415E+01  0.00000000000E+00 0. -1.
         11    1    3    3    0    0  0.61786653134E+01  0.24287400487E+02 -0.22744859140E+02  0.33843497825E+02  0.51100000000E-03 0. -1.
        -11    1    3    3    0    0 -0.72920466666E+01 -0.16239429450E+01 -0.11674392996E+02  0.13860107769E+02  0.51100000000E-03 0.  1.
        -12    1    3    3    0    0  0.70596236893E+00 -0.23081933891E+02  0.35445058662E+02  0.42303974264E+02  0.00000000000E+00 0.  1.
</event>
<event>
 7    1  0.2285268E-015  0.9000768E+02  0.7816164E-02  0.1186339E+00
        -11   -1    0    0    0    0  0.00000000000E+00  0.00000000000E+00  0.45593999997E+02  0.45594000000E+02  0.51100000000E-03 0.  1.
         11   -1    0    0    0    0 -0.00000000000E+00 -0.00000000000E+00 -0.45593999997E+02  0.45594000000E+02  0.51100000000E-03 0. -1.
    9900012    2    1    2    0    0 -0.53363330460E+00 -0.73803438722E+00  0.75079919059E+00  0.90007678567E+02  0.89999939124E+02 0.  0.
         12    1    1    2    0    0  0.53363330460E+00  0.73803438722E+00 -0.75079919059E+00  0.11803214330E+01  0.00000000000E+00 0. -1.
         11    1    3    3    0    0  0.16279716224E+02  0.20676388181E+02 -0.24339937745E+02  0.35846544579E+02  0.51100000000E-03 0. -1.
        -11    1    3    3    0    0  0.18115735889E+01  0.85000299714E+01 -0.28961888443E+01  0.91607979165E+01  0.51100000000E-03 0.  1.
        -12    1    3    3    0    0 -0.18624923118E+02 -0.29914452540E+02  0.27986925780E+02  0.45000336071E+02  0.00000000000E+00 0.  1.
</event>
<event>
 7    1  0.2285268E-015  0.9000774E+02  0.7816164E-02  0.1186339E+00
        -11   -1    0    0    0    0  0.00000000000E+00  0.00000000000E+00  0.45593999997E+02  0.45594000000E+02  0.51100000000E-03 0. -1.
         11   -1    0    0    0    0 -0.00000000000E+00 -0.00000000000E+00 -0.45593999997E+02  0.45594000000E+02  0.51100000000E-03 0.  1.
    9900012    2    1    2    0    0  0.56508109341E+00  0.17277716679E+00 -0.10216828594E+01  0.90007743902E+02  0.90000005322E+02 0.  0.
         12    1    1    2    0    0 -0.56508109341E+00 -0.17277716679E+00  0.10216828594E+01  0.11802560979E+01  0.00000000000E+00 0. -1.
         11    1    3    3    0    0  0.50197831345E+01 -0.86378638730E+01 -0.31381715094E+01  0.10471821030E+02  0.51100000000E-03 0. -1.
        -11    1    3    3    0    0  0.14974297209E+02  0.13591568997E+02 -0.33241262795E+02  0.38909406024E+02  0.51100000000E-03 0.  1.
         12    1    3    3    0    0 -0.19428999250E+02 -0.47809279575E+01  0.35357751445E+02  0.40626516848E+02  0.00000000000E+00 0. -1.
</event>
<event>
 7    1  0.2285268E-015  0.9000773E+02  0.7816164E-02  0.1186339E+00
        -11   -1    0    0    0    0  0.00000000000E+00  0.00000000000E+00  0.45593999997E+02  0.45594000000E+02  0.51100000000E-03 0.  1.
         11   -1    0    0    0    0 -0.00000000000E+00 -0.00000000000E+00 -0.45593999997E+02  0.45594000000E+02  0.51100000000E-03 0. -1.
    9900012    2    1    2    0    0 -0.11222804354E+01 -0.36087115070E+00 -0.57507808439E-01  0.90007725239E+02  0.89999986412E+02 0.  0.
         12    1    1    2    0    0  0.11222804354E+01  0.36087115070E+00  0.57507808439E-01  0.11802747609E+01  0.00000000000E+00 0. -1.
         11    1    3    3    0    0  0.27144537208E+02  0.24496000891E+02 -0.60597083080E+01  0.37062110368E+02  0.51100000000E-03 0. -1.
        -11    1    3    3    0    0 -0.80082913948E+01 -0.30826251784E+01 -0.14481643900E+02  0.16833101893E+02  0.51100000000E-03 0.  1.
        -12    1    3    3    0    0 -0.20258526249E+02 -0.21774246863E+02  0.20483844399E+02  0.36112512978E+02  0.00000000000E+00 0.  1.
</event>
<event>
 7    1  0.2285268E-015  0.9000788E+02  0.7816164E-02  0.1186339E+00
        -11   -1    0    0    0    0  0.00000000000E+00  0.00000000000E+00  0.45593999997E+02  0.45594000000E+02  0.51100000000E-03 0. -1.
         11   -1    0    0    0    0 -0.00000000000E+00 -0.00000000000E+00 -0.45593999997E+02  0.45594000000E+02  0.51100000000E-03 0.  1.
    9900012    2    1    2    0    0  0.92691389186E-01  0.89283172586E+00  0.76611744673E+00  0.90007883003E+02  0.90000146259E+02 0.  0.
         12    1    1    2    0    0 -0.92691389186E-01 -0.89283172586E+00 -0.76611744673E+00  0.11801169970E+01  0.00000000000E+00 0. -1.
         11    1    3    3    0    0 -0.67003759417E+01  0.58476395659E+01  0.11112223357E+01  0.89624071317E+01  0.51100000000E-03 0. -1.
        -11    1    3    3    0    0 -0.29905266929E+02  0.20266386364E+02 -0.41026963762E+01  0.36357716157E+02  0.51100000000E-03 0.  1.
         12    1    3    3    0    0  0.36698334260E+02 -0.25221194204E+02  0.37575914872E+01  0.44687759714E+02  0.00000000000E+00 0. -1.
</event>
<event>
 7    1  0.2285268E-015  0.9000767E+02  0.7816164E-02  0.1186339E+00
        -11   -1    0    0    0    0  0.00000000000E+00  0.00000000000E+00  0.45593999997E+02  0.45594000000E+02  0.51100000000E-03 0.  1.
         11   -1    0    0    0    0 -0.00000000000E+00 -0.00000000000E+00 -0.45593999997E+02  0.45594000000E+02  0.51100000000E-03 0. -1.
    9900012    2    1    2    0    0 -0.19798067335E+00 -0.18543930974E+00  0.11487311709E+01  0.90007674881E+02  0.89999935389E+02 0.  0.
         12    1    1    2    0    0  0.19798067335E+00  0.18543930974E+00 -0.11487311709E+01  0.11803251194E+01  0.00000000000E+00 0. -1.
         11    1    3    3    0    0 -0.61987115121E+01 -0.67388009762E+00  0.11648652782E+02  0.13212465731E+02  0.51100000000E-03 0. -1.
        -11    1    3    3    0    0 -0.35127166337E+01  0.34652903203E+02 -0.19889071396E+02  0.40109076775E+02  0.51100000000E-03 0.  1.
         12    1    3    3    0    0  0.95134474724E+01 -0.34164462415E+02  0.93891497847E+01  0.36686132374E+02  0.00000000000E+00 0. -1.
</event>
<event>
 7    1  0.2285268E-015  0.9000804E+02  0.7816164E-02  0.1186338E+00
        -11   -1    0    0    0    0  0.00000000000E+00  0.00000000000E+00  0.45593999997E+02  0.45594000000E+02  0.51100000000E-03 0.  1.
         11   -1    0    0    0    0 -0.00000000000E+00 -0.00000000000E+00 -0.45593999997E+02  0.45594000000E+02  0.51100000000E-03 0. -1.
    9900012    2    1    2    0    0 -0.51141583305E+00 -0.95788478912E+00  0.46175354271E+00  0.90008039934E+02  0.90000305260E+02 0.  0.
         12    1    1    2    0    0  0.51141583305E+00  0.95788478912E+00 -0.46175354271E+00  0.11799600662E+01  0.00000000000E+00 0. -1.
         11    1    3    3    0    0  0.27209671362E+02 -0.27428916070E+02 -0.30367507934E-02  0.38635626847E+02  0.51100000000E-03 0. -1.
        -11    1    3    3    0    0 -0.38213102089E+01 -0.61833469292E+01  0.73357249373E+01  0.10327102768E+02  0.51100000000E-03 0.  1.
        -12    1    3    3    0    0 -0.23899776987E+02  0.32654378210E+02 -0.68709346438E+01  0.41045310319E+02  0.00000000000E+00 0.  1.
</event>
<event>
 7    1  0.2285268E-015  0.9000799E+02  0.7816164E-02  0.1186339E+00
        -11   -1    0    0    0    0  0.00000000000E+00  0.00000000000E+00  0.45593999997E+02  0.45594000000E+02  0.51100000000E-03 0.  1.
         11   -1    0    0    0    0 -0.00000000000E+00 -0.00000000000E+00 -0.45593999997E+02  0.45594000000E+02  0.51100000000E-03 0. -1.
    9900012    2    1    2    0    0 -0.39025850310E+00 -0.83082362098E+00  0.74152637533E+00  0.90007986884E+02  0.90000251511E+02 0.  0.
         12    1    1    2    0    0  0.39025850310E+00  0.83082362098E+00 -0.74152637533E+00  0.11800131159E+01  0.00000000000E+00 0. -1.
         11    1    3    3    0    0 -0.28734100481E+02  0.20337113611E+02 -0.77738143583E+01  0.36051059768E+02  0.51100000000E-03 0. -1.
        -11    1    3    3    0    0 -0.33419270402E+01  0.84842169059E+01 -0.19312714417E+01  0.93209560932E+01  0.51100000000E-03 0.  1.
        -12    1    3    3    0    0  0.31685769018E+02 -0.29652154138E+02  0.10446612175E+02  0.44635971023E+02  0.00000000000E+00 0.  1.
</event>
<event>
 7    1  0.2285268E-015  0.9000773E+02  0.7816164E-02  0.1186339E+00
        -11   -1    0    0    0    0  0.00000000000E+00  0.00000000000E+00  0.45593999997E+02  0.45594000000E+02  0.51100000000E-03 0.  1.
         11   -1    0    0    0    0 -0.00000000000E+00 -0.00000000000E+00 -0.45593999997E+02  0.45594000000E+02  0.51100000000E-03 0. -1.
    9900012    2    1    2    0    0 -0.11608157187E+01  0.19607585735E+00 -0.84248287615E-01  0.90007730265E+02  0.89999991504E+02 0.  0.
         12    1    1    2    0    0  0.11608157187E+01 -0.19607585735E+00  0.84248287615E-01  0.11802697355E+01  0.00000000000E+00 0. -1.
         11    1    3    3    0    0 -0.22818664795E+01  0.90627841972E+00 -0.93368243882E+01  0.96542501067E+01  0.51100000000E-03 0. -1.
        -11    1    3    3    0    0 -0.74020854226E+01  0.33191543834E+02  0.24805939832E+02  0.42092803445E+02  0.51100000000E-03 0.  1.
         12    1    3    3    0    0  0.85231361835E+01 -0.33901746396E+02 -0.15553363732E+02  0.38260676712E+02  0.00000000000E+00 0. -1.
</event>
<event>
 7    1  0.2285268E-015  0.9000773E+02  0.7816164E-02  0.1186339E+00
        -11   -1    0    0    0    0  0.00000000000E+00  0.00000000000E+00  0.45593999997E+02  0.45594000000E+02  0.51100000000E-03 0. -1.
         11   -1    0    0    0    0 -0.00000000000E+00 -0.00000000000E+00 -0.45593999997E+02  0.45594000000E+02  0.51100000000E-03 0.  1.
    9900012    2    1    2    0    0  0.85646459722E+00 -0.71454956769E+00  0.38589492656E+00  0.90007734104E+02  0.89999995394E+02 0.  0.
         12    1    1    2    0    0 -0.85646459722E+00  0.71454956769E+00 -0.38589492656E+00  0.11802658960E+01  0.00000000000E+00 0. -1.
         11    1    3    3    0    0 -0.70112656905E+01  0.22632496330E+01  0.40182452666E+01  0.83920462801E+01  0.51100000000E-03 0. -1.
        -11    1    3    3    0    0  0.27536606652E+02 -0.10062486367E+02 -0.33907056212E+02  0.44824176502E+02  0.51100000000E-03 0.  1.
         12    1    3    3    0    0 -0.19668876365E+02  0.70846871664E+01  0.30274705872E+02  0.36791511322E+02  0.00000000000E+00 0. -1.
</event>
<event>
 7    1  0.2285268E-015  0.9000782E+02  0.7816164E-02  0.1186339E+00
        -11   -1    0    0    0    0  0.00000000000E+00  0.00000000000E+00  0.45593999997E+02  0.45594000000E+02  0.51100000000E-03 0.  1.
         11   -1    0    0    0    0 -0.00000000000E+00 -0.00000000000E+00 -0.45593999997E+02  0.45594000000E+02  0.51100000000E-03 0. -1.
    9900012    2    1    2    0    0  0.11078044531E+00 -0.78601204137E+00  0.87335312148E+00  0.90007816577E+02  0.90000078956E+02 0.  0.
         12    1    1    2    0    0 -0.11078044531E+00  0.78601204137E+00 -0.87335312148E+00  0.11801834226E+01  0.00000000000E+00 0. -1.
         11    1    3    3    0    0 -0.37096926313E+02 -0.58098130195E+01  0.11099154313E+02  0.39155166912E+02  0.51100000000E-03 0. -1.
        -11    1    3    3    0    0 -0.55095918038E+01  0.25271631431E+01  0.19438007513E+01  0.63655727957E+01  0.51100000000E-03 0.  1.
        -12    1    3    3    0    0  0.42717298562E+02  0.24966378350E+01 -0.12169601943E+02  0.44487076869E+02  0.00000000000E+00 0.  1.
</event>
<event>
 7    1  0.2285268E-015  0.9000773E+02  0.7816164E-02  0.1186339E+00
        -11   -1    0    0    0    0  0.00000000000E+00  0.00000000000E+00  0.45593999997E+02  0.45594000000E+02  0.51100000000E-03 0. -1.
         11   -1    0    0    0    0 -0.00000000000E+00 -0.00000000000E+00 -0.45593999997E+02  0.45594000000E+02  0.51100000000E-03 0.  1.
    9900012    2    1    2    0    0 -0.73848452275E+00  0.92064429438E+00  0.93495798236E-02  0.90007731928E+02  0.89999993189E+02 0.  0.
         12    1    1    2    0    0  0.73848452275E+00 -0.92064429438E+00 -0.93495798236E-02  0.11802680720E+01  0.00000000000E+00 0. -1.
         11    1    3    3    0    0  0.73029390178E+01 -0.30771908039E+02  0.16573521301E+02  0.35706089834E+02  0.51100000000E-03 0. -1.
        -11    1    3    3    0    0  0.45897125464E+01 -0.83738963591E+01 -0.14685404488E+01  0.96614808805E+01  0.51100000000E-03 0.  1.
        -12    1    3    3    0    0 -0.12631136087E+02  0.40066448693E+02 -0.15095631272E+02  0.44640161214E+02  0.00000000000E+00 0.  1.
</event>
<event>
 7    1  0.2285268E-015  0.9000767E+02  0.7816164E-02  0.1186339E+00
        -11   -1    0    0    0    0  0.00000000000E+00  0.00000000000E+00  0.45593999997E+02  0.45594000000E+02  0.51100000000E-03 0.  1.
         11   -1    0    0    0    0 -0.00000000000E+00 -0.00000000000E+00 -0.45593999997E+02  0.45594000000E+02  0.51100000000E-03 0. -1.
    9900012    2    1    2    0    0 -0.78512148775E+00 -0.58377410730E+00  0.66027445796E+00  0.90007673639E+02  0.89999934131E+02 0.  0.
         12    1    1    2    0    0  0.78512148775E+00  0.58377410730E+00 -0.66027445796E+00  0.11803263611E+01  0.00000000000E+00 0. -1.
         11    1    3    3    0    0  0.18867173648E+01 -0.10321009375E+02  0.62904259059E+01  0.12233249580E+02  0.51100000000E-03 0. -1.
        -11    1    3    3    0    0 -0.28102670786E+02 -0.22715707029E+02  0.18802300489E+00  0.36135838222E+02  0.51100000000E-03 0.  1.
         12    1    3    3    0    0  0.25430831934E+02  0.32452942296E+02 -0.58181744528E+01  0.41638585837E+02  0.00000000000E+00 0. -1.
</event>
<event>
 7    1  0.2285268E-015  0.9000771E+02  0.7816164E-02  0.1186339E+00
        -11   -1    0    0    0    0  0.00000000000E+00  0.00000000000E+00  0.45593999997E+02  0.45594000000E+02  0.51100000000E-03 0.  1.
         11   -1    0    0    0    0 -0.00000000000E+00 -0.00000000000E+00 -0.45593999997E+02  0.45594000000E+02  0.51100000000E-03 0. -1.
    9900012    2    1    2    0    0 -0.81123581693E+00  0.38258244675E+00  0.76720617138E+00  0.90007712667E+02  0.89999973674E+02 0.  0.
         12    1    1    2    0    0  0.81123581693E+00 -0.38258244675E+00 -0.76720617138E+00  0.11802873331E+01  0.00000000000E+00 0. -1.
         11    1    3    3    0    0  0.19545587759E+02 -0.24095368800E+01 -0.32747156032E+02  0.38212721668E+02  0.51100000000E-03 0. -1.
        -11    1    3    3    0    0  0.17300194476E+01 -0.69498884375E+00 -0.60600541555E+01  0.63403654004E+01  0.51100000000E-03 0.  1.
        -12    1    3    3    0    0 -0.22086843024E+02  0.34871081705E+01  0.39574416359E+02  0.45454625598E+02  0.00000000000E+00 0.  1.
</event>
<event>
 7    1  0.2285268E-015  0.9000780E+02  0.7816164E-02  0.1186339E+00
        -11   -1    0    0    0    0  0.00000000000E+00  0.00000000000E+00  0.45593999997E+02  0.45594000000E+02  0.51100000000E-03 0.  1.
         11   -1    0    0    0    0 -0.00000000000E+00 -0.00000000000E+00 -0.45593999997E+02  0.45594000000E+02  0.51100000000E-03 0. -1.
    9900012    2    1    2    0    0 -0.11540055230E+01 -0.10973625763E+00 -0.22160822365E+00  0.90007796205E+02  0.90000058315E+02 0.  0.
         12    1    1    2    0    0  0.11540055230E+01  0.10973625763E+00  0.22160822365E+00  0.11802037952E+01  0.00000000000E+00 0. -1.
         11    1    3    3    0    0  0.65763339258E+01 -0.22702382928E+01  0.74703921953E+01  0.10208276526E+02  0.51100000000E-03 0. -1.
        -11    1    3    3    0    0 -0.13453256753E+02  0.20779756800E+02  0.29078456454E+02  0.38188284067E+02  0.51100000000E-03 0.  1.
         12    1    3    3    0    0  0.57229173047E+01 -0.18619254765E+02 -0.36770456873E+02  0.41611235612E+02  0.00000000000E+00 0. -1.
</event>
<event>
 7    1  0.2285268E-015  0.9000762E+02  0.7816164E-02  0.1186339E+00
        -11   -1    0    0    0    0  0.00000000000E+00  0.00000000000E+00  0.45593999997E+02  0.45594000000E+02  0.51100000000E-03 0. -1.
         11   -1    0    0    0    0 -0.00000000000E+00 -0.00000000000E+00 -0.45593999997E+02  0.45594000000E+02  0.51100000000E-03 0.  1.
    9900012    2    1    2    0    0 -0.27502915840E+00  0.11339538447E+01 -0.17835661113E+00  0.90007617248E+02  0.89999876996E+02 0.  0.
         12    1    1    2    0    0  0.27502915840E+00 -0.11339538447E+01  0.17835661113E+00  0.11803827517E+01  0.00000000000E+00 0. -1.
         11    1    3    3    0    0  0.26416293234E+02 -0.25393029959E+02  0.17152108022E+02  0.40457648580E+02  0.51100000000E-03 0. -1.
        -11    1    3    3    0    0  0.42905276882E+01  0.10548448486E+02 -0.24553540145E+01  0.11649341479E+02  0.51100000000E-03 0.  1.
        -12    1    3    3    0    0 -0.30981850081E+02  0.15978535318E+02 -0.14875110619E+02  0.37900627189E+02  0.00000000000E+00 0.  1.
</event>
<event>
 7    1  0.2285268E-015  0.9000765E+02  0.7816164E-02  0.1186339E+00
        -11   -1    0    0    0    0  0.00000000000E+00  0.00000000000E+00  0.45593999997E+02  0.45594000000E+02  0.51100000000E-03 0.  1.
         11   -1    0    0    0    0 -0.00000000000E+00 -0.00000000000E+00 -0.45593999997E+02  0.45594000000E+02  0.51100000000E-03 0. -1.
    9900012    2    1    2    0    0 -0.38144541738E+00 -0.49457146155E+00  0.10015657365E+01  0.90007646044E+02  0.89999906172E+02 0.  0.
         12    1    1    2    0    0  0.38144541738E+00  0.49457146155E+00 -0.10015657365E+01  0.11803539561E+01  0.00000000000E+00 0. -1.
         11    1    3    3    0    0 -0.45202946202E+01 -0.36166395047E+02  0.11927101899E+02  0.38349666936E+02  0.51100000000E-03 0.  1.
        -11    1    3    3    0    0  0.28953718847E+01  0.17244587421E+01 -0.16842537557E+02  0.17176379360E+02  0.51100000000E-03 0. -1.
        -12    1    3    3    0    0  0.12434773181E+01  0.33947364843E+02  0.59170013946E+01  0.34481599747E+02  0.00000000000E+00 0.  1.
</event>
<event>
 7    1  0.2285268E-015  0.9000775E+02  0.7816164E-02  0.1186339E+00
        -11   -1    0    0    0    0  0.00000000000E+00  0.00000000000E+00  0.45593999997E+02  0.45594000000E+02  0.51100000000E-03 0.  1.
         11   -1    0    0    0    0 -0.00000000000E+00 -0.00000000000E+00 -0.45593999997E+02  0.45594000000E+02  0.51100000000E-03 0. -1.
    9900012    2    1    2    0    0 -0.61159776305E+00 -0.75627260411E+00  0.66857019567E+00  0.90007751644E+02  0.90000013166E+02 0.  0.
         12    1    1    2    0    0  0.61159776305E+00  0.75627260411E+00 -0.66857019567E+00  0.11802483561E+01  0.00000000000E+00 0. -1.
         11    1    3    3    0    0 -0.65613834988E+01  0.18174722031E+01 -0.11620661458E+01  0.69069064433E+01  0.51100000000E-03 0. -1.
        -11    1    3    3    0    0  0.12561429581E+02 -0.15438801757E+02  0.38687581929E+02  0.43507184563E+02  0.51100000000E-03 0.  1.
         12    1    3    3    0    0 -0.66116438451E+01  0.12865056950E+02 -0.36856945587E+02  0.39593660638E+02  0.00000000000E+00 0. -1.
</event>
<event>
 7    1  0.2285268E-015  0.9000778E+02  0.7816164E-02  0.1186339E+00
        -11   -1    0    0    0    0  0.00000000000E+00  0.00000000000E+00  0.45593999997E+02  0.45594000000E+02  0.51100000000E-03 0.  1.
         11   -1    0    0    0    0 -0.00000000000E+00 -0.00000000000E+00 -0.45593999997E+02  0.45594000000E+02  0.51100000000E-03 0. -1.
    9900012    2    1    2    0    0 -0.58333008314E+00 -0.75156157719E+00  0.69842050706E+00  0.90007783920E+02  0.90000045868E+02 0.  0.
         12    1    1    2    0    0  0.58333008314E+00  0.75156157719E+00 -0.69842050706E+00  0.11802160797E+01  0.00000000000E+00 0. -1.
         11    1    3    3    0    0 -0.41184251239E+01 -0.98053538443E+01  0.31770638139E+01  0.11099555138E+02  0.51100000000E-03 0. -1.
        -11    1    3    3    0    0  0.16118136952E+02 -0.13798254738E+02  0.30315876142E+02  0.37003223092E+02  0.51100000000E-03 0.  1.
         12    1    3    3    0    0 -0.12583041911E+02  0.22852047005E+02 -0.32794519449E+02  0.41905005691E+02  0.00000000000E+00 0. -1.
</event>
<event>
 7    1  0.2285268E-015  0.9000762E+02  0.7816164E-02  0.1186339E+00
        -11   -1    0    0    0    0  0.00000000000E+00  0.00000000000E+00  0.45593999997E+02  0.45594000000E+02  0.51100000000E-03 0. -1.
         11   -1    0    0    0    0 -0.00000000000E+00 -0.00000000000E+00 -0.45593999997E+02  0.45594000000E+02  0.51100000000E-03 0.  1.
    9900012    2    1    2    0    0  0.10290526928E+01  0.57730989445E+00 -0.32707401888E-01  0.90007616193E+02  0.89999875926E+02 0.  0.
         12    1    1    2    0    0 -0.10290526928E+01 -0.57730989445E+00  0.32707401888E-01  0.11803838075E+01  0.00000000000E+00 0. -1.
         11    1    3    3    0    0  0.79416038489E+01  0.33251463448E+01 -0.34667004718E+01  0.92813620946E+01  0.51100000000E-03 0. -1.
        -11    1    3    3    0    0 -0.86168674424E+01 -0.24913964812E+02  0.33942265323E+02  0.42977126738E+02  0.51100000000E-03 0.  1.
         12    1    3    3    0    0  0.17043162863E+01  0.22166128362E+02 -0.30508272253E+02  0.37749127360E+02  0.00000000000E+00 0. -1.
</event>
<event>
 7    1  0.2285268E-015  0.9000670E+02  0.7816164E-02  0.1186341E+00
        -11   -1    0    0    0    0  0.00000000000E+00  0.00000000000E+00  0.45593999997E+02  0.45594000000E+02  0.51100000000E-03 0. -1.
         11   -1    0    0    0    0 -0.00000000000E+00 -0.00000000000E+00 -0.45593999997E+02  0.45594000000E+02  0.51100000000E-03 0.  1.
    9900012    2    1    2    0    0 -0.23215984314E+00 -0.85264631915E-01 -0.11551183469E+01  0.90006701289E+02  0.89998948939E+02 0.  0.
         12    1    1    2    0    0  0.23215984314E+00  0.85264631915E-01  0.11551183469E+01  0.11812987114E+01  0.00000000000E+00 0. -1.
         11    1    3    3    0    0 -0.32080592737E+02  0.12865675326E+02  0.10949476698E+02  0.36257152014E+02  0.51100000000E-03 0. -1.
        -11    1    3    3    0    0 -0.88845732799E+01  0.14352128762E+01 -0.37524664069E+01  0.97507170384E+01  0.51100000000E-03 0.  1.
        -12    1    3    3    0    0  0.40733006174E+02 -0.14386152834E+02 -0.83521286385E+01  0.43998832236E+02  0.00000000000E+00 0.  1.
</event>
<event>
 7    1  0.2285268E-015  0.9000776E+02  0.7816164E-02  0.1186339E+00
        -11   -1    0    0    0    0  0.00000000000E+00  0.00000000000E+00  0.45593999997E+02  0.45594000000E+02  0.51100000000E-03 0.  1.
         11   -1    0    0    0    0 -0.00000000000E+00 -0.00000000000E+00 -0.45593999997E+02  0.45594000000E+02  0.51100000000E-03 0. -1.
    9900012    2    1    2    0    0  0.89421990157E+00 -0.58111941342E+00  0.50561319701E+00  0.90007756928E+02  0.90000018519E+02 0.  0.
         12    1    1    2    0    0 -0.89421990157E+00  0.58111941342E+00 -0.50561319701E+00  0.11802430724E+01  0.00000000000E+00 0. -1.
         11    1    3    3    0    0  0.26232478285E+02 -0.52358839658E+01 -0.29696134147E+02  0.39967709234E+02  0.51100000000E-03 0. -1.
        -11    1    3    3    0    0  0.59540119836E+00  0.10030887195E+02  0.24124785744E+00  0.10051437772E+02  0.51100000000E-03 0.  1.
        -12    1    3    3    0    0 -0.25933659582E+02 -0.53761226422E+01  0.29960499486E+02  0.39988609921E+02  0.00000000000E+00 0.  1.
</event>
<event>
 7    1  0.2285268E-015  0.9000763E+02  0.7816164E-02  0.1186339E+00
        -11   -1    0    0    0    0  0.00000000000E+00  0.00000000000E+00  0.45593999997E+02  0.45594000000E+02  0.51100000000E-03 0.  1.
         11   -1    0    0    0    0 -0.00000000000E+00 -0.00000000000E+00 -0.45593999997E+02  0.45594000000E+02  0.51100000000E-03 0. -1.
    9900012    2    1    2    0    0  0.75386126320E+00 -0.87996065227E+00  0.22503406358E+00  0.90007628074E+02  0.89999887965E+02 0.  0.
         12    1    1    2    0    0 -0.75386126320E+00  0.87996065227E+00 -0.22503406358E+00  0.11803719259E+01  0.00000000000E+00 0. -1.
         11    1    3    3    0    0  0.74985134724E+01 -0.28926209790E+02 -0.28721523182E+02  0.41447306441E+02  0.51100000000E-03 0. -1.
        -11    1    3    3    0    0  0.78799679741E+01  0.27579249652E+01  0.15110073137E+01  0.84842907040E+01  0.51100000000E-03 0.  1.
        -12    1    3    3    0    0 -0.14624620183E+02  0.25288324172E+02  0.27435549932E+02  0.40076030929E+02  0.00000000000E+00 0.  1.
</event>
<event>
 7    1  0.2285268E-015  0.9000763E+02  0.7816164E-02  0.1186339E+00
        -11   -1    0    0    0    0  0.00000000000E+00  0.00000000000E+00  0.45593999997E+02  0.45594000000E+02  0.51100000000E-03 0.  1.
         11   -1    0    0    0    0 -0.00000000000E+00 -0.00000000000E+00 -0.45593999997E+02  0.45594000000E+02  0.51100000000E-03 0. -1.
    9900012    2    1    2    0    0  0.10857822040E+00  0.11132815740E+01  0.37693281186E+00  0.90007634193E+02  0.89999894165E+02 0.  0.
         12    1    1    2    0    0 -0.10857822040E+00 -0.11132815740E+01 -0.37693281186E+00  0.11803658067E+01  0.00000000000E+00 0. -1.
         11    1    3    3    0    0  0.53048246747E+01  0.48693014815E+01  0.94123042440E+01  0.11850853690E+02  0.51100000000E-03 0. -1.
        -11    1    3    3    0    0  0.19148011188E+02  0.21883304615E+02  0.17511885698E+02  0.33943946357E+02  0.51100000000E-03 0.  1.
         12    1    3    3    0    0 -0.24344257643E+02 -0.25639324522E+02 -0.26547257130E+02  0.44212834146E+02  0.00000000000E+00 0. -1.
</event>
<event>
 7    1  0.2285268E-015  0.9000773E+02  0.7816164E-02  0.1186339E+00
        -11   -1    0    0    0    0  0.00000000000E+00  0.00000000000E+00  0.45593999997E+02  0.45594000000E+02  0.51100000000E-03 0.  1.
         11   -1    0    0    0    0 -0.00000000000E+00 -0.00000000000E+00 -0.45593999997E+02  0.45594000000E+02  0.51100000000E-03 0. -1.
    9900012    2    1    2    0    0  0.38035776604E+00 -0.80981426089E+00  0.76978135938E+00  0.90007731171E+02  0.89999992423E+02 0.  0.
         12    1    1    2    0    0 -0.38035776604E+00  0.80981426089E+00 -0.76978135938E+00  0.11802688289E+01  0.00000000000E+00 0. -1.
         11    1    3    3    0    0 -0.43125115801E+00  0.62347836088E+01  0.73210369721E+01  0.96258031778E+01  0.51100000000E-03 0. -1.
        -11    1    3    3    0    0 -0.32583945420E+02 -0.21616094351E+02  0.10003399921E+02  0.40361331053E+02  0.51100000000E-03 0.  1.
         12    1    3    3    0    0  0.33395554344E+02  0.14571496481E+02 -0.16554655534E+02  0.40020596941E+02  0.00000000000E+00 0. -1.
</event>
<event>
 7    1  0.2285268E-015  0.9000676E+02  0.7816164E-02  0.1186341E+00
        -11   -1    0    0    0    0  0.00000000000E+00  0.00000000000E+00  0.45593999997E+02  0.45594000000E+02  0.51100000000E-03 0.  1.
         11   -1    0    0    0    0 -0.00000000000E+00 -0.00000000000E+00 -0.45593999997E+02  0.45594000000E+02  0.51100000000E-03 0. -1.
    9900012    2    1    2    0    0 -0.83384568244E+00  0.51205083205E+00  0.66169828199E+00  0.90006755193E+02  0.89999003556E+02 0.  0.
         12    1    1    2    0    0  0.83384568244E+00 -0.51205083205E+00 -0.66169828199E+00  0.11812448066E+01  0.00000000000E+00 0. -1.
         11    1    3    3    0    0  0.19267587408E+01 -0.14193525650E+01 -0.90140683377E+01  0.93263277450E+01  0.51100000000E-03 0. -1.
        -11    1    3    3    0    0  0.34804338328E+02 -0.13428313402E+02  0.14046727113E+02  0.39861913026E+02  0.51100000000E-03 0.  1.
         12    1    3    3    0    0 -0.37564942751E+02  0.15359716799E+02 -0.43709604931E+01  0.40818514422E+02  0.00000000000E+00 0. -1.
</event>
<event>
 7    1  0.2285268E-015  0.9000782E+02  0.7816164E-02  0.1186339E+00
        -11   -1    0    0    0    0  0.00000000000E+00  0.00000000000E+00  0.45593999997E+02  0.45594000000E+02  0.51100000000E-03 0. -1.
         11   -1    0    0    0    0 -0.00000000000E+00 -0.00000000000E+00 -0.45593999997E+02  0.45594000000E+02  0.51100000000E-03 0.  1.
    9900012    2    1    2    0    0  0.24323361969E+00 -0.70884097217E+00 -0.91170958843E+00  0.90007816755E+02  0.90000079136E+02 0.  0.
         12    1    1    2    0    0 -0.24323361969E+00  0.70884097217E+00  0.91170958843E+00  0.11801832448E+01  0.00000000000E+00 0. -1.
         11    1    3    3    0    0 -0.30472415428E+02 -0.66887923208E+01 -0.24065534752E+02  0.39401243736E+02  0.51100000000E-03 0. -1.
        -11    1    3    3    0    0 -0.48500712685E+00  0.10053417280E+02 -0.20738778280E+01  0.10276546133E+02  0.51100000000E-03 0.  1.
        -12    1    3    3    0    0  0.31200656175E+02 -0.40734659310E+01  0.25227702992E+02  0.40330026887E+02  0.00000000000E+00 0.  1.
</event>
<event>
 7    1  0.2285268E-015  0.9000770E+02  0.7816164E-02  0.1186339E+00
        -11   -1    0    0    0    0  0.00000000000E+00  0.00000000000E+00  0.45593999997E+02  0.45594000000E+02  0.51100000000E-03 0.  1.
         11   -1    0    0    0    0 -0.00000000000E+00 -0.00000000000E+00 -0.45593999997E+02  0.45594000000E+02  0.51100000000E-03 0. -1.
    9900012    2    1    2    0    0 -0.26482474014E+00 -0.10157156940E+01  0.53971629735E+00  0.90007701650E+02  0.89999962512E+02 0.  0.
         12    1    1    2    0    0  0.26482474014E+00  0.10157156940E+01 -0.53971629735E+00  0.11802983503E+01  0.00000000000E+00 0. -1.
         11    1    3    3    0    0  0.24073744082E+02 -0.25970729797E+02 -0.15619058081E+02  0.38703732842E+02  0.51100000000E-03 0. -1.
        -11    1    3    3    0    0 -0.55511423508E+01 -0.73245527248E+01 -0.25411128351E+01  0.95352770657E+01  0.51100000000E-03 0.  1.
        -12    1    3    3    0    0 -0.18787426472E+02  0.32279566828E+02  0.18699887214E+02  0.41768691742E+02  0.00000000000E+00 0.  1.
</event>
<event>
 7    1  0.2285268E-015  0.9000775E+02  0.7816164E-02  0.1186339E+00
        -11   -1    0    0    0    0  0.00000000000E+00  0.00000000000E+00  0.45593999997E+02  0.45594000000E+02  0.51100000000E-03 0. -1.
         11   -1    0    0    0    0 -0.00000000000E+00 -0.00000000000E+00 -0.45593999997E+02  0.45594000000E+02  0.51100000000E-03 0.  1.
    9900012    2    1    2    0    0 -0.11756595530E+01 -0.10210488268E+00 -0.20006806291E-01  0.90007745339E+02  0.90000006778E+02 0.  0.
         12    1    1    2    0    0  0.11756595530E+01  0.10210488268E+00  0.20006806291E-01  0.11802546607E+01  0.00000000000E+00 0. -1.
         11    1    3    3    0    0  0.61778943352E+01  0.64524852614E+01 -0.35633276159E+01  0.96176009703E+01  0.51100000000E-03 0. -1.
        -11    1    3    3    0    0  0.17563298974E+01  0.16772854568E+02 -0.32433072334E+02  0.36555677074E+02  0.51100000000E-03 0.  1.
         12    1    3    3    0    0 -0.91098837856E+01 -0.23327444712E+02  0.35976393144E+02  0.43834467295E+02  0.00000000000E+00 0. -1.
</event>
<event>
 7    1  0.2285268E-015  0.9000774E+02  0.7816164E-02  0.1186339E+00
        -11   -1    0    0    0    0  0.00000000000E+00  0.00000000000E+00  0.45593999997E+02  0.45594000000E+02  0.51100000000E-03 0.  1.
         11   -1    0    0    0    0 -0.00000000000E+00 -0.00000000000E+00 -0.45593999997E+02  0.45594000000E+02  0.51100000000E-03 0. -1.
    9900012    2    1    2    0    0 -0.24125899393E+00 -0.86923420703E+00  0.76107947590E+00  0.90007739021E+02  0.90000000377E+02 0.  0.
         12    1    1    2    0    0  0.24125899393E+00  0.86923420703E+00 -0.76107947590E+00  0.11802609785E+01  0.00000000000E+00 0. -1.
         11    1    3    3    0    0 -0.30323012456E+02 -0.18586282154E+02  0.12408313140E+02  0.37668305032E+02  0.51100000000E-03 0. -1.
        -11    1    3    3    0    0  0.43250617132E+01 -0.93575077204E+01  0.49677877431E+01  0.11443252373E+02  0.51100000000E-03 0.  1.
        -12    1    3    3    0    0  0.25756691749E+02  0.27074555668E+02 -0.16615021407E+02  0.40896181616E+02  0.00000000000E+00 0.  1.
</event>
<event>
 7    1  0.2285268E-015  0.9000771E+02  0.7816164E-02  0.1186339E+00
        -11   -1    0    0    0    0  0.00000000000E+00  0.00000000000E+00  0.45593999997E+02  0.45594000000E+02  0.51100000000E-03 0.  1.
         11   -1    0    0    0    0 -0.00000000000E+00 -0.00000000000E+00 -0.45593999997E+02  0.45594000000E+02  0.51100000000E-03 0. -1.
    9900012    2    1    2    0    0 -0.23192654265E+00 -0.26815327361E+00  0.11257836579E+01  0.90007709805E+02  0.89999970775E+02 0.  0.
         12    1    1    2    0    0  0.23192654265E+00  0.26815327361E+00 -0.11257836579E+01  0.11802901948E+01  0.00000000000E+00 0. -1.
         11    1    3    3    0    0 -0.33700985748E+01 -0.58521036536E+01  0.11214045433E+02  0.13090435318E+02  0.51100000000E-03 0. -1.
        -11    1    3    3    0    0 -0.24110564516E+02  0.17080602348E+02  0.19245214137E+02  0.35262509345E+02  0.51100000000E-03 0.  1.
         12    1    3    3    0    0  0.27248736548E+02 -0.11496651968E+02 -0.29333475912E+02  0.41654765142E+02  0.00000000000E+00 0. -1.
</event>
<event>
 7    1  0.2285268E-015  0.9000771E+02  0.7816164E-02  0.1186339E+00
        -11   -1    0    0    0    0  0.00000000000E+00  0.00000000000E+00  0.45593999997E+02  0.45594000000E+02  0.51100000000E-03 0. -1.
         11   -1    0    0    0    0 -0.00000000000E+00 -0.00000000000E+00 -0.45593999997E+02  0.45594000000E+02  0.51100000000E-03 0.  1.
    9900012    2    1    2    0    0 -0.52234330292E+00 -0.53468509431E+00 -0.91342537287E+00  0.90007713345E+02  0.89999974361E+02 0.  0.
         12    1    1    2    0    0  0.52234330292E+00  0.53468509431E+00  0.91342537287E+00  0.11802866550E+01  0.00000000000E+00 0. -1.
         11    1    3    3    0    0  0.61795482570E+01 -0.46227791625E+01 -0.82257977309E+00  0.77610270963E+01  0.51100000000E-03 0. -1.
        -11    1    3    3    0    0  0.22236101559E+02  0.11861074292E+02 -0.30493632160E+02  0.39559965855E+02  0.51100000000E-03 0.  1.
         12    1    3    3    0    0 -0.28937993119E+02 -0.77729802238E+01  0.30402786560E+02  0.42686720393E+02  0.00000000000E+00 0. -1.
</event>
<event>
 7    1  0.2957161E-015  0.9000785E+02  0.7816164E-02  0.1186339E+00
        -11   -1    0    0    0    0  0.00000000000E+00  0.00000000000E+00  0.45593999997E+02  0.45594000000E+02  0.51100000000E-03 0.  1.
         11   -1    0    0    0    0 -0.00000000000E+00 -0.00000000000E+00 -0.45593999997E+02  0.45594000000E+02  0.51100000000E-03 0. -1.
    9900012    2    1    2    0    0  0.54762279486E+00 -0.87714566676E+00  0.56875191185E+00  0.90007850017E+02  0.90000112837E+02 0.  0.
         12    1    1    2    0    0 -0.54762279486E+00  0.87714566676E+00 -0.56875191185E+00  0.11801499834E+01  0.00000000000E+00 0. -1.
         11    1    3    3    0    0  0.37676763827E+01 -0.54169075426E+01  0.72146131137E+01  0.97769583865E+01  0.51100000000E-03 0. -1.
        -11    1    3    3    0    0 -0.18669173767E+02 -0.22094199542E+02  0.23403366189E+02  0.37207650447E+02  0.51100000000E-03 0.  1.
         12    1    3    3    0    0  0.15449120179E+02  0.26633961418E+02 -0.30049227391E+02  0.43023241183E+02  0.00000000000E+00 0. -1.
</event>
<event>
 7    1  0.2285268E-015  0.9000827E+02  0.7816164E-02  0.1186338E+00
        -11   -1    0    0    0    0  0.00000000000E+00  0.00000000000E+00  0.45593999997E+02  0.45594000000E+02  0.51100000000E-03 0. -1.
         11   -1    0    0    0    0 -0.00000000000E+00 -0.00000000000E+00 -0.45593999997E+02  0.45594000000E+02  0.51100000000E-03 0.  1.
    9900012    2    1    2    0    0 -0.42819036943E+00  0.85802099361E+00 -0.68718200878E+00  0.90008268619E+02  0.90000536963E+02 0.  0.
         12    1    1    2    0    0  0.42819036943E+00 -0.85802099361E+00  0.68718200878E+00  0.11797313809E+01  0.00000000000E+00 0. -1.
         11    1    3    3    0    0  0.13256011921E+01 -0.16136293766E+02 -0.49393475322E+01  0.16927325522E+02  0.51100000000E-03 0. -1.
        -11    1    3    3    0    0 -0.11303853912E+02  0.33627422825E+02 -0.21110747634E+02  0.41282494414E+02  0.51100000000E-03 0.  1.
         12    1    3    3    0    0  0.95500623508E+01 -0.16633108065E+02  0.25362913158E+02  0.31798448683E+02  0.00000000000E+00 0. -1.
</event>
<event>
 7    1  0.2285268E-015  0.9000774E+02  0.7816164E-02  0.1186339E+00
        -11   -1    0    0    0    0  0.00000000000E+00  0.00000000000E+00  0.45593999997E+02  0.45594000000E+02  0.51100000000E-03 0. -1.
         11   -1    0    0    0    0 -0.00000000000E+00 -0.00000000000E+00 -0.45593999997E+02  0.45594000000E+02  0.51100000000E-03 0.  1.
    9900012    2    1    2    0    0  0.59563822473E+00  0.64356272199E+00 -0.78997725596E+00  0.90007736497E+02  0.89999997819E+02 0.  0.
         12    1    1    2    0    0 -0.59563822473E+00 -0.64356272199E+00  0.78997725596E+00  0.11802635031E+01  0.00000000000E+00 0. -1.
         11    1    3    3    0    0  0.17483296536E+02  0.27447183837E+02  0.18167424424E+02  0.37270214231E+02  0.51100000000E-03 0. -1.
        -11    1    3    3    0    0  0.51105450058E+01 -0.15685501318E+01  0.80917481009E+01  0.96981651544E+01  0.51100000000E-03 0.  1.
        -12    1    3    3    0    0 -0.21998203317E+02 -0.25235070983E+02 -0.27049149781E+02  0.43039357112E+02  0.00000000000E+00 0.  1.
</event>
<event>
 7    1  0.2285268E-015  0.9000788E+02  0.7816164E-02  0.1186339E+00
        -11   -1    0    0    0    0  0.00000000000E+00  0.00000000000E+00  0.45593999997E+02  0.45594000000E+02  0.51100000000E-03 0. -1.
         11   -1    0    0    0    0 -0.00000000000E+00 -0.00000000000E+00 -0.45593999997E+02  0.45594000000E+02  0.51100000000E-03 0.  1.
    9900012    2    1    2    0    0  0.43559598264E+00 -0.57468859482E+00 -0.93416849940E+00  0.90007880673E+02  0.90000143898E+02 0.  0.
         12    1    1    2    0    0 -0.43559598264E+00  0.57468859482E+00  0.93416849940E+00  0.11801193272E+01  0.00000000000E+00 0. -1.
         11    1    3    3    0    0 -0.59810456744E+01  0.34182094110E+01  0.85331279301E+01  0.10966828870E+02  0.51100000000E-03 0. -1.
        -11    1    3    3    0    0  0.10549689339E+02  0.62356030869E+01 -0.42491265164E+02  0.44223142205E+02  0.51100000000E-03 0.  1.
         12    1    3    3    0    0 -0.41330476824E+01 -0.10228501093E+02  0.33023968734E+02  0.34817909597E+02  0.00000000000E+00 0. -1.
</event>
<event>
 7    1  0.2285268E-015  0.9000773E+02  0.7816164E-02  0.1186339E+00
        -11   -1    0    0    0    0  0.00000000000E+00  0.00000000000E+00  0.45593999997E+02  0.45594000000E+02  0.51100000000E-03 0.  1.
         11   -1    0    0    0    0 -0.00000000000E+00 -0.00000000000E+00 -0.45593999997E+02  0.45594000000E+02  0.51100000000E-03 0. -1.
    9900012    2    1    2    0    0 -0.42306149299E+00  0.10903766550E+01  0.15853710327E+00  0.90007730417E+02  0.89999991658E+02 0.  0.
         12    1    1    2    0    0  0.42306149299E+00 -0.10903766550E+01 -0.15853710327E+00  0.11802695835E+01  0.00000000000E+00 0. -1.
         11    1    3    3    0    0  0.69116769089E+01 -0.39246527867E+01 -0.90501900016E+01  0.12044920777E+02  0.51100000000E-03 0. -1.
        -11    1    3    3    0    0  0.32912489491E+02  0.99807928076E+00 -0.81921475495E+01  0.33931392670E+02  0.51100000000E-03 0.  1.
         12    1    3    3    0    0 -0.40247227893E+02  0.40169501609E+01  0.17400874654E+02  0.44031416970E+02  0.00000000000E+00 0. -1.
</event>
<event>
 7    1  0.2285268E-015  0.9000772E+02  0.7816164E-02  0.1186339E+00
        -11   -1    0    0    0    0  0.00000000000E+00  0.00000000000E+00  0.45593999997E+02  0.45594000000E+02  0.51100000000E-03 0.  1.
         11   -1    0    0    0    0 -0.00000000000E+00 -0.00000000000E+00 -0.45593999997E+02  0.45594000000E+02  0.51100000000E-03 0. -1.
    9900012    2    1    2    0    0 -0.86724526767E+00  0.47789966471E+00  0.64229910848E+00  0.90007724359E+02  0.89999985521E+02 0.  0.
         12    1    1    2    0    0  0.86724526767E+00 -0.47789966471E+00 -0.64229910848E+00  0.11802756409E+01  0.00000000000E+00 0. -1.
         11    1    3    3    0    0  0.17705607341E+02  0.65549176621E+00 -0.46620792202E+01  0.18320840147E+02  0.51100000000E-03 0. -1.
        -11    1    3    3    0    0  0.87685573440E+01  0.14649713949E+02  0.28268825435E+02  0.33024660610E+02  0.51100000000E-03 0.  1.
         12    1    3    3    0    0 -0.27341409953E+02 -0.14827306051E+02 -0.22964447106E+02  0.38662223602E+02  0.00000000000E+00 0. -1.
</event>
<event>
 7    1  0.2285268E-015  0.9000734E+02  0.7816164E-02  0.1186340E+00
        -11   -1    0    0    0    0  0.00000000000E+00  0.00000000000E+00  0.45593999997E+02  0.45594000000E+02  0.51100000000E-03 0.  1.
         11   -1    0    0    0    0 -0.00000000000E+00 -0.00000000000E+00 -0.45593999997E+02  0.45594000000E+02  0.51100000000E-03 0. -1.
    9900012    2    1    2    0    0 -0.46436735004E+00  0.87870243439E-01  0.10819442082E+01  0.90007338539E+02  0.89999594607E+02 0.  0.
         12    1    1    2    0    0  0.46436735004E+00 -0.87870243439E-01 -0.10819442082E+01  0.11806614609E+01  0.00000000000E+00 0. -1.
         11    1    3    3    0    0 -0.18974827462E+02 -0.28936391910E+02 -0.22874208677E+02  0.41479974408E+02  0.51100000000E-03 0. -1.
        -11    1    3    3    0    0  0.69663116168E+01  0.51184023960E+01 -0.43863429873E+01  0.96936858673E+01  0.51100000000E-03 0.  1.
        -12    1    3    3    0    0  0.11544148495E+02  0.23905859758E+02  0.28342495873E+02  0.38833678264E+02  0.00000000000E+00 0.  1.
</event>
<event>
 7    1  0.2285268E-015  0.9000773E+02  0.7816164E-02  0.1186339E+00
        -11   -1    0    0    0    0  0.00000000000E+00  0.00000000000E+00  0.45593999997E+02  0.45594000000E+02  0.51100000000E-03 0.  1.
         11   -1    0    0    0    0 -0.00000000000E+00 -0.00000000000E+00 -0.45593999997E+02  0.45594000000E+02  0.51100000000E-03 0. -1.
    9900012    2    1    2    0    0  0.90979782577E+00  0.25552958723E+00  0.70711658742E+00  0.90007728285E+02  0.89999989498E+02 0.  0.
         12    1    1    2    0    0 -0.90979782577E+00 -0.25552958723E+00 -0.70711658742E+00  0.11802717153E+01  0.00000000000E+00 0. -1.
         11    1    3    3    0    0 -0.20862185333E+02  0.77434463193E+01 -0.29235632286E+02  0.36741174903E+02  0.51100000000E-03 0. -1.
        -11    1    3    3    0    0 -0.44165473107E+01 -0.66301677854E+01 -0.51384908800E+01  0.94799316345E+01  0.51100000000E-03 0.  1.
        -12    1    3    3    0    0  0.26188530470E+02 -0.85774894675E+00  0.35081239754E+02  0.43786621748E+02  0.00000000000E+00 0.  1.
</event>
<event>
 7    1  0.2285268E-015  0.9000787E+02  0.7816164E-02  0.1186339E+00
        -11   -1    0    0    0    0  0.00000000000E+00  0.00000000000E+00  0.45593999997E+02  0.45594000000E+02  0.51100000000E-03 0.  1.
         11   -1    0    0    0    0 -0.00000000000E+00 -0.00000000000E+00 -0.45593999997E+02  0.45594000000E+02  0.51100000000E-03 0. -1.
    9900012    2    1    2    0    0  0.15650676271E+00  0.11693664781E+01 -0.28360581909E-01  0.90007865834E+02  0.90000128863E+02 0.  0.
         12    1    1    2    0    0 -0.15650676271E+00 -0.11693664781E+01  0.28360581909E-01  0.11801341659E+01  0.00000000000E+00 0. -1.
         11    1    3    3    0    0  0.22384686678E+02 -0.18586848045E+02 -0.32110054252E+02  0.43331290106E+02  0.51100000000E-03 0. -1.
        -11    1    3    3    0    0  0.10381854924E+01  0.31376523830E+01  0.10054287486E+02  0.10583543296E+02  0.51100000000E-03 0.  1.
        -12    1    3    3    0    0 -0.23266365408E+02  0.16618562141E+02  0.22027406185E+02  0.36093032432E+02  0.00000000000E+00 0.  1.
</event>
<event>
 7    1  0.2285268E-015  0.9000792E+02  0.7816164E-02  0.1186339E+00
        -11   -1    0    0    0    0  0.00000000000E+00  0.00000000000E+00  0.45593999997E+02  0.45594000000E+02  0.51100000000E-03 0.  1.
         11   -1    0    0    0    0 -0.00000000000E+00 -0.00000000000E+00 -0.45593999997E+02  0.45594000000E+02  0.51100000000E-03 0. -1.
    9900012    2    1    2    0    0  0.53244091568E+00  0.71527269814E+00  0.77296982578E+00  0.90007919192E+02  0.90000182925E+02 0.  0.
         12    1    1    2    0    0 -0.53244091568E+00 -0.71527269814E+00 -0.77296982578E+00  0.11800808078E+01  0.00000000000E+00 0. -1.
         11    1    3    3    0    0  0.39885535117E+02 -0.10218636395E+02 -0.65471253520E+01  0.41691021719E+02  0.51100000000E-03 0. -1.
        -11    1    3    3    0    0 -0.48687977596E+01  0.50115406953E+01 -0.75606212813E+01  0.10294839784E+02  0.51100000000E-03 0.  1.
        -12    1    3    3    0    0 -0.34484296442E+02  0.59223683984E+01  0.14880716459E+02  0.38022057689E+02  0.00000000000E+00 0.  1.
</event>
<event>
 7    1  0.2285268E-015  0.9000816E+02  0.7816164E-02  0.1186338E+00
        -11   -1    0    0    0    0  0.00000000000E+00  0.00000000000E+00  0.45593999997E+02  0.45594000000E+02  0.51100000000E-03 0.  1.
         11   -1    0    0    0    0 -0.00000000000E+00 -0.00000000000E+00 -0.45593999997E+02  0.45594000000E+02  0.51100000000E-03 0. -1.
    9900012    2    1    2    0    0 -0.55421042737E+00 -0.25636012358E+00  0.10095364502E+01  0.90008155283E+02  0.90000422132E+02 0.  0.
         12    1    1    2    0    0  0.55421042737E+00  0.25636012358E+00 -0.10095364502E+01  0.11798447165E+01  0.00000000000E+00 0. -1.
         11    1    3    3    0    0  0.22284165392E+02 -0.91815810332E+01  0.23967558715E+02  0.33990135753E+02  0.51100000000E-03 0. -1.
        -11    1    3    3    0    0  0.77356439585E+01 -0.64561067995E+01  0.55250130566E+01  0.11491182358E+02  0.51100000000E-03 0.  1.
        -12    1    3    3    0    0 -0.30574019778E+02  0.15381327709E+02 -0.28483035321E+02  0.44526837172E+02  0.00000000000E+00 0.  1.
</event>
<event>
 7    1  0.2285268E-015  0.9000769E+02  0.7816164E-02  0.1186339E+00
        -11   -1    0    0    0    0  0.00000000000E+00  0.00000000000E+00  0.45593999997E+02  0.45594000000E+02  0.51100000000E-03 0.  1.
         11   -1    0    0    0    0 -0.00000000000E+00 -0.00000000000E+00 -0.45593999997E+02  0.45594000000E+02  0.51100000000E-03 0. -1.
    9900012    2    1    2    0    0 -0.43098831639E+00 -0.96983320113E+00 -0.51652230154E+00  0.90007693830E+02  0.89999954589E+02 0.  0.
         12    1    1    2    0    0  0.43098831639E+00  0.96983320113E+00  0.51652230154E+00  0.11803061700E+01  0.00000000000E+00 0. -1.
         11    1    3    3    0    0  0.23954588725E+02  0.15928886701E+01 -0.29072529399E+02  0.37703734314E+02  0.51100000000E-03 0. -1.
        -11    1    3    3    0    0 -0.29857826802E+01 -0.11785080950E+02 -0.35203194441E+01  0.12656843227E+02  0.51100000000E-03 0.  1.
        -12    1    3    3    0    0 -0.21399794361E+02  0.92223590791E+01  0.32076326542E+02  0.39647116289E+02  0.00000000000E+00 0.  1.
</event>
<event>
 7    1  0.2285268E-015  0.9000775E+02  0.7816164E-02  0.1186339E+00
        -11   -1    0    0    0    0  0.00000000000E+00  0.00000000000E+00  0.45593999997E+02  0.45594000000E+02  0.51100000000E-03 0. -1.
         11   -1    0    0    0    0 -0.00000000000E+00 -0.00000000000E+00 -0.45593999997E+02  0.45594000000E+02  0.51100000000E-03 0.  1.
    9900012    2    1    2    0    0 -0.46901381540E-01 -0.67922278116E+00 -0.96407821829E+00  0.90007749968E+02  0.90000011468E+02 0.  0.
         12    1    1    2    0    0  0.46901381540E-01  0.67922278116E+00  0.96407821829E+00  0.11802500316E+01  0.00000000000E+00 0. -1.
         11    1    3    3    0    0  0.10349172344E+02  0.65979884834E+01 -0.39102931734E+01  0.12881351373E+02  0.51100000000E-03 0. -1.
        -11    1    3    3    0    0 -0.10582733741E+02  0.20094482600E+02 -0.27841927130E+02  0.35929867673E+02  0.51100000000E-03 0.  1.
         12    1    3    3    0    0  0.18666001540E+00 -0.27371693865E+02  0.30788142085E+02  0.41196530923E+02  0.00000000000E+00 0. -1.
</event>
<event>
 7    1  0.2285268E-015  0.9000771E+02  0.7816164E-02  0.1186339E+00
        -11   -1    0    0    0    0  0.00000000000E+00  0.00000000000E+00  0.45593999997E+02  0.45594000000E+02  0.51100000000E-03 0.  1.
         11   -1    0    0    0    0 -0.00000000000E+00 -0.00000000000E+00 -0.45593999997E+02  0.45594000000E+02  0.51100000000E-03 0. -1.
    9900012    2    1    2    0    0  0.11173659812E+01  0.38010781579E+00  0.91693182213E-02  0.90007714965E+02  0.89999976002E+02 0.  0.
         12    1    1    2    0    0 -0.11173659812E+01 -0.38010781579E+00 -0.91693182213E-02  0.11802850351E+01  0.00000000000E+00 0. -1.
         11    1    3    3    0    0 -0.31173903440E+02 -0.20317187334E+02 -0.66181490109E+01  0.37794182799E+02  0.51100000000E-03 0. -1.
        -11    1    3    3    0    0 -0.40508515639E+01  0.63360794977E+01 -0.75386340118E+01  0.10648300560E+02  0.51100000000E-03 0.  1.
        -12    1    3    3    0    0  0.36342120985E+02  0.14361215652E+02  0.14165952341E+02  0.41565231606E+02  0.00000000000E+00 0.  1.
</event>
<event>
 7    1  0.2285268E-015  0.9000774E+02  0.7816164E-02  0.1186339E+00
        -11   -1    0    0    0    0  0.00000000000E+00  0.00000000000E+00  0.45593999997E+02  0.45594000000E+02  0.51100000000E-03 0. -1.
         11   -1    0    0    0    0 -0.00000000000E+00 -0.00000000000E+00 -0.45593999997E+02  0.45594000000E+02  0.51100000000E-03 0.  1.
    9900012    2    1    2    0    0  0.82854394382E+00  0.48710083912E+00 -0.68502958224E+00  0.90007738240E+02  0.89999999584E+02 0.  0.
         12    1    1    2    0    0 -0.82854394382E+00 -0.48710083912E+00  0.68502958224E+00  0.11802617603E+01  0.00000000000E+00 0. -1.
         11    1    3    3    0    0 -0.30835739309E+02  0.25146941983E+02  0.50561606267E+01  0.40109553355E+02  0.51100000000E-03 0. -1.
        -11    1    3    3    0    0  0.74597688869E+01  0.63265399384E+01  0.15652110064E+01  0.99057127555E+01  0.51100000000E-03 0.  1.
        -12    1    3    3    0    0  0.24204514366E+02 -0.30986381082E+02 -0.73064012153E+01  0.39992472129E+02  0.00000000000E+00 0.  1.
</event>
<event>
 7    1  0.2285268E-015  0.9000775E+02  0.7816164E-02  0.1186339E+00
        -11   -1    0    0    0    0  0.00000000000E+00  0.00000000000E+00  0.45593999997E+02  0.45594000000E+02  0.51100000000E-03 0. -1.
         11   -1    0    0    0    0 -0.00000000000E+00 -0.00000000000E+00 -0.45593999997E+02  0.45594000000E+02  0.51100000000E-03 0.  1.
    9900012    2    1    2    0    0 -0.20808106958E+00  0.11084595921E+01  0.34784960410E+00  0.90007754370E+02  0.90000015928E+02 0.  0.
         12    1    1    2    0    0  0.20808106958E+00 -0.11084595921E+01 -0.34784960410E+00  0.11802456295E+01  0.00000000000E+00 0. -1.
         11    1    3    3    0    0 -0.32795626517E+02  0.16045564153E+01  0.47283621878E+01  0.33173560694E+02  0.51100000000E-03 0. -1.
        -11    1    3    3    0    0 -0.11285986855E+02  0.14934217350E+01  0.41078186584E+01  0.12102808854E+02  0.51100000000E-03 0.  1.
        -12    1    3    3    0    0  0.43873532302E+02 -0.19895185582E+01 -0.84883312421E+01  0.44731384822E+02  0.00000000000E+00 0.  1.
</event>
<event>
 7    1  0.2285268E-015  0.9000777E+02  0.7816164E-02  0.1186339E+00
        -11   -1    0    0    0    0  0.00000000000E+00  0.00000000000E+00  0.45593999997E+02  0.45594000000E+02  0.51100000000E-03 0.  1.
         11   -1    0    0    0    0 -0.00000000000E+00 -0.00000000000E+00 -0.45593999997E+02  0.45594000000E+02  0.51100000000E-03 0. -1.
    9900012    2    1    2    0    0  0.67222453891E+00 -0.48938693713E+00  0.83759477232E+00  0.90007766800E+02  0.90000028521E+02 0.  0.
         12    1    1    2    0    0 -0.67222453891E+00  0.48938693713E+00 -0.83759477232E+00  0.11802332005E+01  0.00000000000E+00 0. -1.
         11    1    3    3    0    0 -0.16968245597E+01  0.43485608321E+01 -0.37153326280E+02  0.37445411586E+02  0.51100000000E-03 0. -1.
        -11    1    3    3    0    0 -0.68959768865E+01  0.35733030737E+01 -0.40072134856E+01  0.87396082439E+01  0.51100000000E-03 0.  1.
        -12    1    3    3    0    0  0.92650259852E+01 -0.84112508429E+01  0.41998134538E+02  0.43822746969E+02  0.00000000000E+00 0.  1.
</event>
<event>
 7    1  0.2285268E-015  0.9000683E+02  0.7816164E-02  0.1186341E+00
        -11   -1    0    0    0    0  0.00000000000E+00  0.00000000000E+00  0.45593999997E+02  0.45594000000E+02  0.51100000000E-03 0. -1.
         11   -1    0    0    0    0 -0.00000000000E+00 -0.00000000000E+00 -0.45593999997E+02  0.45594000000E+02  0.51100000000E-03 0.  1.
    9900012    2    1    2    0    0 -0.13458352122E+00 -0.11616913633E+01 -0.16591879148E+00  0.90006827450E+02  0.89999076768E+02 0.  0.
         12    1    1    2    0    0  0.13458352122E+00  0.11616913633E+01  0.16591879148E+00  0.11811725501E+01  0.00000000000E+00 0. -1.
         11    1    3    3    0    0 -0.22254846105E+02  0.24924421547E+02 -0.73895868402E+01  0.34221498484E+02  0.51100000000E-03 0. -1.
        -11    1    3    3    0    0 -0.10402487324E+02  0.35185971987E+01 -0.10611592397E+01  0.11032602955E+02  0.51100000000E-03 0.  1.
        -12    1    3    3    0    0  0.32522749907E+02 -0.29604710109E+02  0.82848272884E+01  0.44752726010E+02  0.00000000000E+00 0.  1.
</event>
<event>
 7    1  0.2285268E-015  0.9000772E+02  0.7816164E-02  0.1186339E+00
        -11   -1    0    0    0    0  0.00000000000E+00  0.00000000000E+00  0.45593999997E+02  0.45594000000E+02  0.51100000000E-03 0. -1.
         11   -1    0    0    0    0 -0.00000000000E+00 -0.00000000000E+00 -0.45593999997E+02  0.45594000000E+02  0.51100000000E-03 0.  1.
    9900012    2    1    2    0    0  0.11128652010E+01  0.38472889003E+00  0.81099608758E-01  0.90007719347E+02  0.89999980442E+02 0.  0.
         12    1    1    2    0    0 -0.11128652010E+01 -0.38472889003E+00 -0.81099608758E-01  0.11802806535E+01  0.00000000000E+00 0. -1.
         11    1    3    3    0    0  0.34319811596E+01 -0.13500660125E+02 -0.64484157102E+01  0.15350191657E+02  0.51100000000E-03 0. -1.
        -11    1    3    3    0    0  0.13617673642E+02 -0.26833250611E+02 -0.18009103685E+01  0.30144778191E+02  0.51100000000E-03 0.  1.
         12    1    3    3    0    0 -0.15936789601E+02  0.40718639626E+02  0.83304256875E+01  0.44512749498E+02  0.00000000000E+00 0. -1.
</event>
<event>
 7    1  0.2285268E-015  0.9000775E+02  0.7816164E-02  0.1186339E+00
        -11   -1    0    0    0    0  0.00000000000E+00  0.00000000000E+00  0.45593999997E+02  0.45594000000E+02  0.51100000000E-03 0. -1.
         11   -1    0    0    0    0 -0.00000000000E+00 -0.00000000000E+00 -0.45593999997E+02  0.45594000000E+02  0.51100000000E-03 0.  1.
    9900012    2    1    2    0    0  0.84545505082E+00  0.49921173387E+00 -0.65496681838E+00  0.90007750818E+02  0.90000012329E+02 0.  0.
         12    1    1    2    0    0 -0.84545505082E+00 -0.49921173387E+00  0.65496681838E+00  0.11802491819E+01  0.00000000000E+00 0. -1.
         11    1    3    3    0    0  0.95208149533E+01  0.18567274185E+01  0.22230200519E+01  0.99516416984E+01  0.51100000000E-03 0. -1.
        -11    1    3    3    0    0  0.35361255569E+02 -0.52886400492E+01 -0.25148248521E+01  0.35842885672E+02  0.51100000000E-03 0.  1.
         12    1    3    3    0    0 -0.44036615472E+02  0.39311243646E+01 -0.36316201820E+00  0.44213223448E+02  0.00000000000E+00 0. -1.
</event>
<event>
 7    1  0.2285268E-015  0.9000779E+02  0.7816164E-02  0.1186339E+00
        -11   -1    0    0    0    0  0.00000000000E+00  0.00000000000E+00  0.45593999997E+02  0.45594000000E+02  0.51100000000E-03 0.  1.
         11   -1    0    0    0    0 -0.00000000000E+00 -0.00000000000E+00 -0.45593999997E+02  0.45594000000E+02  0.51100000000E-03 0. -1.
    9900012    2    1    2    0    0  0.28133695374E+00 -0.26800560431E+00  0.11144105672E+01  0.90007793070E+02  0.90000055138E+02 0.  0.
         12    1    1    2    0    0 -0.28133695374E+00  0.26800560431E+00 -0.11144105672E+01  0.11802069301E+01  0.00000000000E+00 0. -1.
         11    1    3    3    0    0  0.43011651851E+01 -0.53431276835E+01  0.57244406675E+01  0.89341063687E+01  0.51100000000E-03 0. -1.
        -11    1    3    3    0    0  0.18577922452E+02 -0.20717372267E+02  0.23742162970E+02  0.36579215670E+02  0.51100000000E-03 0.  1.
         12    1    3    3    0    0 -0.22597750683E+02  0.25792494346E+02 -0.28352193070E+02  0.44494471032E+02  0.00000000000E+00 0. -1.
</event>
<event>
 7    1  0.2285268E-015  0.9000781E+02  0.7816164E-02  0.1186339E+00
        -11   -1    0    0    0    0  0.00000000000E+00  0.00000000000E+00  0.45593999997E+02  0.45594000000E+02  0.51100000000E-03 0.  1.
         11   -1    0    0    0    0 -0.00000000000E+00 -0.00000000000E+00 -0.45593999997E+02  0.45594000000E+02  0.51100000000E-03 0. -1.
    9900012    2    1    2    0    0  0.11136120152E+00  0.49315229573E+00  0.10664149383E+01  0.90007813013E+02  0.90000075345E+02 0.  0.
         12    1    1    2    0    0 -0.11136120152E+00 -0.49315229573E+00 -0.10664149383E+01  0.11801869872E+01  0.00000000000E+00 0. -1.
         11    1    3    3    0    0 -0.34728269156E+01 -0.50122941523E+01 -0.60758099436E+01  0.86080826080E+01  0.51100000000E-03 0. -1.
        -11    1    3    3    0    0  0.27611732199E+02 -0.16718113263E+02 -0.20770889399E+02  0.38384018976E+02  0.51100000000E-03 0.  1.
         12    1    3    3    0    0 -0.24027544082E+02  0.22223559711E+02  0.27913114281E+02  0.43015711428E+02  0.00000000000E+00 0. -1.
</event>
<event>
 7    1  0.2285268E-015  0.9000869E+02  0.7816164E-02  0.1186337E+00
        -11   -1    0    0    0    0  0.00000000000E+00  0.00000000000E+00  0.45593999997E+02  0.45594000000E+02  0.51100000000E-03 0. -1.
         11   -1    0    0    0    0 -0.00000000000E+00 -0.00000000000E+00 -0.45593999997E+02  0.45594000000E+02  0.51100000000E-03 0.  1.
    9900012    2    1    2    0    0 -0.40809624506E-01  0.94982097169E+00 -0.69782243432E+00  0.90008686024E+02  0.90000959875E+02 0.  0.
         12    1    1    2    0    0  0.40809624506E-01 -0.94982097169E+00  0.69782243432E+00  0.11793139758E+01  0.00000000000E+00 0. -1.
         11    1    3    3    0    0  0.58748949926E+01 -0.40317129574E+00  0.76833871972E+01  0.96804636951E+01  0.51100000000E-03 0. -1.
        -11    1    3    3    0    0 -0.20432623592E+01  0.33233262876E+02 -0.27298445990E+02  0.43056124259E+02  0.51100000000E-03 0.  1.
         12    1    3    3    0    0 -0.38724422579E+01 -0.31880270608E+02  0.18917236359E+02  0.37272098070E+02  0.00000000000E+00 0. -1.
</event>
<event>
 7    1  0.2285268E-015  0.9000772E+02  0.7816164E-02  0.1186339E+00
        -11   -1    0    0    0    0  0.00000000000E+00  0.00000000000E+00  0.45593999997E+02  0.45594000000E+02  0.51100000000E-03 0.  1.
         11   -1    0    0    0    0 -0.00000000000E+00 -0.00000000000E+00 -0.45593999997E+02  0.45594000000E+02  0.51100000000E-03 0. -1.
    9900012    2    1    2    0    0 -0.94918336978E+00 -0.49019129618E+00  0.50181550676E+00  0.90007722330E+02  0.89999983464E+02 0.  0.
         12    1    1    2    0    0  0.94918336978E+00  0.49019129618E+00 -0.50181550676E+00  0.11802776704E+01  0.00000000000E+00 0. -1.
         11    1    3    3    0    0 -0.28753836841E+01 -0.34098151880E+02 -0.79505804935E+01  0.35130663577E+02  0.51100000000E-03 0. -1.
        -11    1    3    3    0    0 -0.24155132480E+01 -0.10023220595E+02  0.26738599816E+01  0.10651252641E+02  0.51100000000E-03 0.  1.
        -12    1    3    3    0    0  0.43417135622E+01  0.43631181179E+02  0.57785360186E+01  0.44225806112E+02  0.00000000000E+00 0.  1.
</event>
<event>
 7    1  0.2285268E-015  0.9000776E+02  0.7816164E-02  0.1186339E+00
        -11   -1    0    0    0    0  0.00000000000E+00  0.00000000000E+00  0.45593999997E+02  0.45594000000E+02  0.51100000000E-03 0.  1.
         11   -1    0    0    0    0 -0.00000000000E+00 -0.00000000000E+00 -0.45593999997E+02  0.45594000000E+02  0.51100000000E-03 0. -1.
    9900012    2    1    2    0    0 -0.53454799398E-01 -0.42738789806E+00  0.10988420711E+01  0.90007757767E+02  0.90000019370E+02 0.  0.
         12    1    1    2    0    0  0.53454799398E-01  0.42738789806E+00 -0.10988420711E+01  0.11802422328E+01  0.00000000000E+00 0. -1.
         11    1    3    3    0    0  0.55832268809E+01  0.37268326369E+01  0.17861385539E+01  0.69463656038E+01  0.51100000000E-03 0. -1.
        -11    1    3    3    0    0 -0.17385772613E+02 -0.18911701476E+02  0.34573199059E+02  0.43072307061E+02  0.51100000000E-03 0.  1.
         12    1    3    3    0    0  0.11749090933E+02  0.14757480941E+02 -0.35260495542E+02  0.39989085103E+02  0.00000000000E+00 0. -1.
</event>
<event>
 7    1  0.2285268E-015  0.9000772E+02  0.7816164E-02  0.1186339E+00
        -11   -1    0    0    0    0  0.00000000000E+00  0.00000000000E+00  0.45593999997E+02  0.45594000000E+02  0.51100000000E-03 0. -1.
         11   -1    0    0    0    0 -0.00000000000E+00 -0.00000000000E+00 -0.45593999997E+02  0.45594000000E+02  0.51100000000E-03 0.  1.
    9900012    2    1    2    0    0  0.72244107093E+00  0.44537499764E+00  0.82023720967E+00  0.90007716530E+02  0.89999977588E+02 0.  0.
         12    1    1    2    0    0 -0.72244107093E+00 -0.44537499764E+00 -0.82023720967E+00  0.11802834700E+01  0.00000000000E+00 0. -1.
         11    1    3    3    0    0  0.35627035922E+02  0.74571523107E+01  0.21846626852E+02  0.42451971853E+02  0.51100000000E-03 0. -1.
        -11    1    3    3    0    0  0.42353910335E+00 -0.53770779818E+01 -0.84411703849E+01  0.10017270622E+02  0.51100000000E-03 0.  1.
        -12    1    3    3    0    0 -0.35328133954E+02 -0.16346993313E+01 -0.12585219257E+02  0.37538474054E+02  0.00000000000E+00 0.  1.
</event>
<event>
 7    1  0.2285268E-015  0.9000773E+02  0.7816164E-02  0.1186339E+00
        -11   -1    0    0    0    0  0.00000000000E+00  0.00000000000E+00  0.45593999997E+02  0.45594000000E+02  0.51100000000E-03 0. -1.
         11   -1    0    0    0    0 -0.00000000000E+00 -0.00000000000E+00 -0.45593999997E+02  0.45594000000E+02  0.51100000000E-03 0.  1.
    9900012    2    1    2    0    0 -0.89390573979E+00  0.13496165743E+00 -0.75879018099E+00  0.90007726871E+02  0.89999988066E+02 0.  0.
         12    1    1    2    0    0  0.89390573979E+00 -0.13496165743E+00  0.75879018099E+00  0.11802731291E+01  0.00000000000E+00 0. -1.
         11    1    3    3    0    0 -0.39742236124E+00 -0.86664004390E+01 -0.33047021780E+01  0.92836144819E+01  0.51100000000E-03 0. -1.
        -11    1    3    3    0    0 -0.85823237041E+01 -0.31899206407E+02 -0.14226330254E+02  0.35966708528E+02  0.51100000000E-03 0.  1.
         12    1    3    3    0    0  0.80858403255E+01  0.40700568503E+02  0.16772242251E+02  0.44757403861E+02  0.00000000000E+00 0. -1.
</event>
<event>
 7    1  0.2285268E-015  0.9000751E+02  0.7816164E-02  0.1186339E+00
        -11   -1    0    0    0    0  0.00000000000E+00  0.00000000000E+00  0.45593999997E+02  0.45594000000E+02  0.51100000000E-03 0. -1.
         11   -1    0    0    0    0 -0.00000000000E+00 -0.00000000000E+00 -0.45593999997E+02  0.45594000000E+02  0.51100000000E-03 0.  1.
    9900012    2    1    2    0    0 -0.26843187821E+00  0.10814142064E+01  0.38991493087E+00  0.90007514501E+02  0.89999772893E+02 0.  0.
         12    1    1    2    0    0  0.26843187821E+00 -0.10814142064E+01 -0.38991493087E+00  0.11804854986E+01  0.00000000000E+00 0. -1.
         11    1    3    3    0    0 -0.23098669753E+02 -0.28653356448E+02  0.20514819104E+02  0.42135747095E+02  0.51100000000E-03 0. -1.
        -11    1    3    3    0    0  0.85562484031E+01 -0.17172645784E+01 -0.58061364805E+01  0.10481870323E+02  0.51100000000E-03 0.  1.
        -12    1    3    3    0    0  0.14273989471E+02  0.31452035233E+02 -0.14318767692E+02  0.37389897084E+02  0.00000000000E+00 0.  1.
</event>
<event>
 7    1  0.2285268E-015  0.9000805E+02  0.7816164E-02  0.1186338E+00
        -11   -1    0    0    0    0  0.00000000000E+00  0.00000000000E+00  0.45593999997E+02  0.45594000000E+02  0.51100000000E-03 0.  1.
         11   -1    0    0    0    0 -0.00000000000E+00 -0.00000000000E+00 -0.45593999997E+02  0.45594000000E+02  0.51100000000E-03 0. -1.
    9900012    2    1    2    0    0 -0.27249775568E+00  0.67283734663E-01  0.11460801976E+01  0.90008050024E+02  0.90000315483E+02 0.  0.
         12    1    1    2    0    0  0.27249775568E+00 -0.67283734663E-01 -0.11460801976E+01  0.11799499765E+01  0.00000000000E+00 0. -1.
         11    1    3    3    0    0 -0.40565072667E+01  0.36133952687E+01  0.64351914782E+01  0.84216130399E+01  0.51100000000E-03 0. -1.
        -11    1    3    3    0    0 -0.48485171123E+01 -0.35890926450E+02  0.18354071565E+02  0.40602200222E+02  0.51100000000E-03 0.  1.
         12    1    3    3    0    0  0.86325266232E+01  0.32344814916E+02 -0.23643182846E+02  0.40984236761E+02  0.00000000000E+00 0. -1.
</event>
<event>
 7    1  0.2285268E-015  0.9000749E+02  0.7816164E-02  0.1186340E+00
        -11   -1    0    0    0    0  0.00000000000E+00  0.00000000000E+00  0.45593999997E+02  0.45594000000E+02  0.51100000000E-03 0.  1.
         11   -1    0    0    0    0 -0.00000000000E+00 -0.00000000000E+00 -0.45593999997E+02  0.45594000000E+02  0.51100000000E-03 0. -1.
    9900012    2    1    2    0    0  0.23395922379E+00 -0.10013176543E+01  0.57986121736E+00  0.90007486131E+02  0.89999744148E+02 0.  0.
         12    1    1    2    0    0 -0.23395922379E+00  0.10013176543E+01 -0.57986121736E+00  0.11805138689E+01  0.00000000000E+00 0. -1.
         11    1    3    3    0    0 -0.31333868993E+01  0.16527972068E+01  0.91032882723E+01  0.97683012698E+01  0.51100000000E-03 0. -1.
        -11    1    3    3    0    0 -0.14176228050E+02 -0.12445177088E+02  0.30778763840E+02  0.36099586954E+02  0.51100000000E-03 0.  1.
         12    1    3    3    0    0  0.17543574173E+02  0.97910622266E+01 -0.39302190895E+02  0.44139597907E+02  0.00000000000E+00 0. -1.
</event>
<event>
 7    1  0.2285268E-015  0.9000784E+02  0.7816164E-02  0.1186339E+00
        -11   -1    0    0    0    0  0.00000000000E+00  0.00000000000E+00  0.45593999997E+02  0.45594000000E+02  0.51100000000E-03 0. -1.
         11   -1    0    0    0    0 -0.00000000000E+00 -0.00000000000E+00 -0.45593999997E+02  0.45594000000E+02  0.51100000000E-03 0.  1.
    9900012    2    1    2    0    0 -0.80601856761E+00 -0.77650343599E+00 -0.37437885431E+00  0.90007837704E+02  0.90000100362E+02 0.  0.
         12    1    1    2    0    0  0.80601856761E+00  0.77650343599E+00  0.37437885431E+00  0.11801622956E+01  0.00000000000E+00 0. -1.
         11    1    3    3    0    0  0.34386972165E+02  0.16033333290E+02 -0.16137897423E+01  0.37975465088E+02  0.51100000000E-03 0. -1.
        -11    1    3    3    0    0  0.66006891547E+01 -0.57864563136E+01 -0.28426104268E+00  0.87825382770E+01  0.51100000000E-03 0.  1.
        -12    1    3    3    0    0 -0.41793679887E+02 -0.11023380413E+02  0.15236719306E+01  0.43249834339E+02  0.00000000000E+00 0.  1.
</event>
<event>
 7    1  0.2285268E-015  0.9000778E+02  0.7816164E-02  0.1186339E+00
        -11   -1    0    0    0    0  0.00000000000E+00  0.00000000000E+00  0.45593999997E+02  0.45594000000E+02  0.51100000000E-03 0. -1.
         11   -1    0    0    0    0 -0.00000000000E+00 -0.00000000000E+00 -0.45593999997E+02  0.45594000000E+02  0.51100000000E-03 0.  1.
    9900012    2    1    2    0    0 -0.72183919595E+00 -0.82452178591E+00 -0.43822220288E+00  0.90007776843E+02  0.90000038698E+02 0.  0.
         12    1    1    2    0    0  0.72183919595E+00  0.82452178591E+00  0.43822220288E+00  0.11802231566E+01  0.00000000000E+00 0. -1.
         11    1    3    3    0    0 -0.22328684051E+02 -0.85026862326E+01  0.24127050824E+02  0.33955564880E+02  0.51100000000E-03 0. -1.
        -11    1    3    3    0    0 -0.57934718546E+01 -0.80577120457E+01  0.64020374777E+01  0.11810043339E+02  0.51100000000E-03 0.  1.
        -12    1    3    3    0    0  0.27400316709E+02  0.15735876492E+02 -0.30967310504E+02  0.44242168625E+02  0.00000000000E+00 0.  1.
</event>
<event>
 7    1  0.2285268E-015  0.9000766E+02  0.7816164E-02  0.1186339E+00
        -11   -1    0    0    0    0  0.00000000000E+00  0.00000000000E+00  0.45593999997E+02  0.45594000000E+02  0.51100000000E-03 0. -1.
         11   -1    0    0    0    0 -0.00000000000E+00 -0.00000000000E+00 -0.45593999997E+02  0.45594000000E+02  0.51100000000E-03 0.  1.
    9900012    2    1    2    0    0 -0.91831125221E+00 -0.93640545316E-01 -0.73562551698E+00  0.90007657249E+02  0.89999917525E+02 0.  0.
         12    1    1    2    0    0  0.91831125221E+00  0.93640545316E-01  0.73562551698E+00  0.11803427506E+01  0.00000000000E+00 0. -1.
         11    1    3    3    0    0 -0.53050795922E+01  0.65584991912E+01 -0.23398622961E+01  0.87540126198E+01  0.51100000000E-03 0. -1.
        -11    1    3    3    0    0 -0.25481460447E+02 -0.73225828862E+01 -0.28441600630E+02  0.38882511407E+02  0.51100000000E-03 0.  1.
         12    1    3    3    0    0  0.29868228787E+02  0.67044314961E+00  0.30045837409E+02  0.42371133222E+02  0.00000000000E+00 0. -1.
</event>
<event>
 7    1  0.2285268E-015  0.9000768E+02  0.7816164E-02  0.1186339E+00
        -11   -1    0    0    0    0  0.00000000000E+00  0.00000000000E+00  0.45593999997E+02  0.45594000000E+02  0.51100000000E-03 0.  1.
         11   -1    0    0    0    0 -0.00000000000E+00 -0.00000000000E+00 -0.45593999997E+02  0.45594000000E+02  0.51100000000E-03 0. -1.
    9900012    2    1    2    0    0 -0.46441920133E+00  0.54235106203E+00  0.93984948686E+00  0.90007683548E+02  0.89999944171E+02 0.  0.
         12    1    1    2    0    0  0.46441920133E+00 -0.54235106203E+00 -0.93984948686E+00  0.11803164521E+01  0.00000000000E+00 0. -1.
         11    1    3    3    0    0  0.14364700554E+02 -0.28630390927E+02  0.10352872865E+02  0.33663420555E+02  0.51100000000E-03 0. -1.
        -11    1    3    3    0    0  0.68802594665E+01 -0.69690814478E+01  0.59646818098E+01  0.11466625306E+02  0.51100000000E-03 0.  1.
        -12    1    3    3    0    0 -0.21709379222E+02  0.36141823437E+02 -0.15377705188E+02  0.44877637687E+02  0.00000000000E+00 0.  1.
</event>
<event>
 8    1  0.2285268E-015  0.9000793E+02  0.7816164E-02  0.1186339E+00
        -11   -1    0    0    0    0  0.00000000000E+00  0.00000000000E+00  0.45593999997E+02  0.45594000000E+02  0.51100000000E-03 0.  1.
         11   -1    0    0    0    0 -0.00000000000E+00 -0.00000000000E+00 -0.45593999997E+02  0.45594000000E+02  0.51100000000E-03 0. -1.
    9900012    2    1    2    0    0  0.70937150649E+00 -0.90797247979E+00 -0.25486005616E+00  0.90007925593E+02  0.90000189410E+02 0.  0.
         23    2    3    3    0    0  0.17679764568E+02 -0.13499255115E+01  0.18772117981E+02  0.64508602928E+02  0.59114897143E+02 0.  0.
         12    1    1    2    0    0 -0.70937150649E+00  0.90797247979E+00  0.25486005616E+00  0.11800744072E+01  0.00000000000E+00 0. -1.
         11    1    4    4    0    0 -0.15113261033E+02 -0.16267076524E+02 -0.30127769493E+01  0.22407705435E+02  0.51100000000E-03 0. -1.
        -11    1    4    4    0    0  0.32793025600E+02  0.14917151012E+02  0.21784894930E+02  0.42100897493E+02  0.51100000000E-03 0.  1.
         12    1    3    3    0    0 -0.16970393061E+02  0.44195303167E+00 -0.19026978037E+02  0.25499322664E+02  0.00000000000E+00 0. -1.
</event>
<event>
 7    1  0.2285268E-015  0.9000781E+02  0.7816164E-02  0.1186339E+00
        -11   -1    0    0    0    0  0.00000000000E+00  0.00000000000E+00  0.45593999997E+02  0.45594000000E+02  0.51100000000E-03 0. -1.
         11   -1    0    0    0    0 -0.00000000000E+00 -0.00000000000E+00 -0.45593999997E+02  0.45594000000E+02  0.51100000000E-03 0.  1.
    9900012    2    1    2    0    0  0.11198651865E+01 -0.35596660136E+00  0.10976850149E+00  0.90007805363E+02  0.90000067594E+02 0.  0.
         12    1    1    2    0    0 -0.11198651865E+01  0.35596660136E+00 -0.10976850149E+00  0.11801946370E+01  0.00000000000E+00 0. -1.
         11    1    3    3    0    0 -0.73060291477E+01 -0.66018499554E+01  0.39650909024E+01  0.10615292312E+02  0.51100000000E-03 0. -1.
        -11    1    3    3    0    0 -0.45646662188E+01 -0.34151715906E+02 -0.11399520223E+02  0.36292215950E+02  0.51100000000E-03 0.  1.
         12    1    3    3    0    0  0.12990560553E+02  0.40397599260E+02  0.75441978223E+01  0.43100297101E+02  0.00000000000E+00 0. -1.
</event>
<event>
 7    1  0.2285268E-015  0.9000778E+02  0.7816164E-02  0.1186339E+00
        -11   -1    0    0    0    0  0.00000000000E+00  0.00000000000E+00  0.45593999997E+02  0.45594000000E+02  0.51100000000E-03 0. -1.
         11   -1    0    0    0    0 -0.00000000000E+00 -0.00000000000E+00 -0.45593999997E+02  0.45594000000E+02  0.51100000000E-03 0.  1.
    9900012    2    1    2    0    0  0.46812299076E+00  0.45433798264E+00 -0.98354646134E+00  0.90007777233E+02  0.90000039093E+02 0.  0.
         12    1    1    2    0    0 -0.46812299076E+00 -0.45433798264E+00  0.98354646134E+00  0.11802227665E+01  0.00000000000E+00 0. -1.
         11    1    3    3    0    0 -0.62080604384E+01 -0.16948111656E+01  0.65690655367E+01  0.91959241830E+01  0.51100000000E-03 0. -1.
        -11    1    3    3    0    0  0.12946008071E+02 -0.32192984738E+02 -0.24031818124E+02  0.42208004856E+02  0.51100000000E-03 0.  1.
         12    1    3    3    0    0 -0.62698246423E+01  0.34342133886E+02  0.16479206126E+02  0.38603848195E+02  0.00000000000E+00 0. -1.
</event>
<event>
 7    1  0.2285268E-015  0.9000763E+02  0.7816164E-02  0.1186339E+00
        -11   -1    0    0    0    0  0.00000000000E+00  0.00000000000E+00  0.45593999997E+02  0.45594000000E+02  0.51100000000E-03 0. -1.
         11   -1    0    0    0    0 -0.00000000000E+00 -0.00000000000E+00 -0.45593999997E+02  0.45594000000E+02  0.51100000000E-03 0.  1.
    9900012    2    1    2    0    0  0.10181783711E+01  0.56407873566E+00 -0.19597970722E+00  0.90007627152E+02  0.89999887030E+02 0.  0.
         12    1    1    2    0    0 -0.10181783711E+01 -0.56407873566E+00  0.19597970722E+00  0.11803728483E+01  0.00000000000E+00 0. -1.
         11    1    3    3    0    0  0.90372341111E+01  0.27041992781E+01 -0.14566012490E+02  0.17353760810E+02  0.51100000000E-03 0. -1.
        -11    1    3    3    0    0  0.24036059931E+02  0.51547380801E+01 -0.14808070185E+02  0.28698126150E+02  0.51100000000E-03 0.  1.
         12    1    3    3    0    0 -0.32055115671E+02 -0.72948586225E+01  0.29178102967E+02  0.43955740192E+02  0.00000000000E+00 0. -1.
</event>
<event>
 7    1  0.3332373E-015  0.9000820E+02  0.7816164E-02  0.1186338E+00
        -11   -1    0    0    0    0  0.00000000000E+00  0.00000000000E+00  0.45593999997E+02  0.45594000000E+02  0.51100000000E-03 0. -1.
         11   -1    0    0    0    0 -0.00000000000E+00 -0.00000000000E+00 -0.45593999997E+02  0.45594000000E+02  0.51100000000E-03 0.  1.
    9900012    2    1    2    0    0  0.38011666952E+00  0.73722839693E+00 -0.83900270299E+00  0.90008203438E+02  0.90000470922E+02 0.  0.
         12    1    1    2    0    0 -0.38011666952E+00 -0.73722839693E+00  0.83900270299E+00  0.11797965618E+01  0.00000000000E+00 0. -1.
         11    1    3    3    0    0 -0.25005706588E+01  0.12486402406E+01  0.90222269059E+01  0.94452387303E+01  0.51100000000E-03 0. -1.
        -11    1    3    3    0    0  0.30016573843E+02  0.26526687019E+02 -0.13032962525E+02  0.42125027501E+02  0.51100000000E-03 0.  1.
         12    1    3    3    0    0 -0.27135886515E+02 -0.27038098863E+02  0.31717329164E+01  0.38437937207E+02  0.00000000000E+00 0. -1.
</event>
<event>
 7    1  0.2285268E-015  0.9000773E+02  0.7816164E-02  0.1186339E+00
        -11   -1    0    0    0    0  0.00000000000E+00  0.00000000000E+00  0.45593999997E+02  0.45594000000E+02  0.51100000000E-03 0.  1.
         11   -1    0    0    0    0 -0.00000000000E+00 -0.00000000000E+00 -0.45593999997E+02  0.45594000000E+02  0.51100000000E-03 0. -1.
    9900012    2    1    2    0    0  0.17190482904E+00  0.28404955975E-01  0.11673373614E+01  0.90007731121E+02  0.89999992372E+02 0.  0.
         12    1    1    2    0    0 -0.17190482904E+00 -0.28404955975E-01 -0.11673373614E+01  0.11802688792E+01  0.00000000000E+00 0. -1.
         11    1    3    3    0    0  0.29466348412E+02 -0.13311536054E+02  0.27925775365E+02  0.42723665700E+02  0.51100000000E-03 0. -1.
        -11    1    3    3    0    0 -0.31300979709E+00  0.94420760649E+01 -0.41378852953E+01  0.10313722438E+02  0.51100000000E-03 0.  1.
        -12    1    3    3    0    0 -0.28981433786E+02  0.38978649452E+01 -0.22620552709E+02  0.36970342983E+02  0.00000000000E+00 0.  1.
</event>
<event>
 7    1  0.2285268E-015  0.9000778E+02  0.7816164E-02  0.1186339E+00
        -11   -1    0    0    0    0  0.00000000000E+00  0.00000000000E+00  0.45593999997E+02  0.45594000000E+02  0.51100000000E-03 0.  1.
         11   -1    0    0    0    0 -0.00000000000E+00 -0.00000000000E+00 -0.45593999997E+02  0.45594000000E+02  0.51100000000E-03 0. -1.
    9900012    2    1    2    0    0 -0.44826635222E+00  0.88496036435E+00  0.63939627760E+00  0.90007777492E+02  0.90000039355E+02 0.  0.
         12    1    1    2    0    0  0.44826635222E+00 -0.88496036435E+00 -0.63939627760E+00  0.11802225082E+01  0.00000000000E+00 0. -1.
         11    1    3    3    0    0 -0.18340489014E+02  0.91668285292E+01 -0.25651387034E+02  0.32838969831E+02  0.51100000000E-03 0. -1.
        -11    1    3    3    0    0 -0.41583470896E+01  0.91883132080E+00 -0.11609403352E+02  0.12365854114E+02  0.51100000000E-03 0.  1.
        -12    1    3    3    0    0  0.22050569751E+02 -0.92006994857E+01  0.37900186664E+02  0.44802953547E+02  0.00000000000E+00 0.  1.
</event>
<event>
 7    1  0.2285268E-015  0.9000799E+02  0.7816164E-02  0.1186339E+00
        -11   -1    0    0    0    0  0.00000000000E+00  0.00000000000E+00  0.45593999997E+02  0.45594000000E+02  0.51100000000E-03 0.  1.
         11   -1    0    0    0    0 -0.00000000000E+00 -0.00000000000E+00 -0.45593999997E+02  0.45594000000E+02  0.51100000000E-03 0. -1.
    9900012    2    1    2    0    0  0.14356739282E+00 -0.49877113735E+00  0.10597332717E+01  0.90007992012E+02  0.90000256707E+02 0.  0.
         12    1    1    2    0    0 -0.14356739282E+00  0.49877113735E+00 -0.10597332717E+01  0.11800079876E+01  0.00000000000E+00 0. -1.
         11    1    3    3    0    0 -0.10935697104E+02 -0.82128734368E+01  0.13665093630E+02  0.19333275599E+02  0.51100000000E-03 0. -1.
        -11    1    3    3    0    0  0.15392535049E+02 -0.22605883720E+02  0.13439198647E+02  0.30472416618E+02  0.51100000000E-03 0.  1.
         12    1    3    3    0    0 -0.43132705528E+01  0.30319986019E+02 -0.26044559005E+02  0.40202299795E+02  0.00000000000E+00 0. -1.
</event>
<event>
 7    1  0.2285268E-015  0.9000791E+02  0.7816164E-02  0.1186339E+00
        -11   -1    0    0    0    0  0.00000000000E+00  0.00000000000E+00  0.45593999997E+02  0.45594000000E+02  0.51100000000E-03 0. -1.
         11   -1    0    0    0    0 -0.00000000000E+00 -0.00000000000E+00 -0.45593999997E+02  0.45594000000E+02  0.51100000000E-03 0.  1.
    9900012    2    1    2    0    0 -0.80785189253E+00  0.50304664014E+00  0.69780123906E+00  0.90007912219E+02  0.90000175860E+02 0.  0.
         12    1    1    2    0    0  0.80785189253E+00 -0.50304664014E+00 -0.69780123906E+00  0.11800877813E+01  0.00000000000E+00 0. -1.
         11    1    3    3    0    0  0.36819505365E+02  0.18714183942E+02 -0.15619863630E+01  0.41332027020E+02  0.51100000000E-03 0. -1.
        -11    1    3    3    0    0 -0.32256016726E+01  0.18523746117E+01  0.76320557620E+01  0.84902339937E+01  0.51100000000E-03 0.  1.
        -12    1    3    3    0    0 -0.34401755585E+02 -0.20063511913E+02 -0.53722681600E+01  0.40185651205E+02  0.00000000000E+00 0.  1.
</event>
<event>
 7    1  0.2285268E-015  0.9000806E+02  0.7816164E-02  0.1186338E+00
        -11   -1    0    0    0    0  0.00000000000E+00  0.00000000000E+00  0.45593999997E+02  0.45594000000E+02  0.51100000000E-03 0.  1.
         11   -1    0    0    0    0 -0.00000000000E+00 -0.00000000000E+00 -0.45593999997E+02  0.45594000000E+02  0.51100000000E-03 0. -1.
    9900012    2    1    2    0    0  0.10013448059E+01 -0.61529956451E+00  0.10480696871E+00  0.90008055309E+02  0.90000320838E+02 0.  0.
         12    1    1    2    0    0 -0.10013448059E+01  0.61529956451E+00 -0.10480696871E+00  0.11799446915E+01  0.00000000000E+00 0. -1.
         11    1    3    3    0    0  0.22757519080E+02  0.31687710900E+02  0.39915940792E+01  0.39216686758E+02  0.51100000000E-03 0. -1.
        -11    1    3    3    0    0  0.66767749200E+01 -0.26586288418E+01 -0.64212681223E+01  0.96374433960E+01  0.51100000000E-03 0.  1.
        -12    1    3    3    0    0 -0.28432949194E+02 -0.29644381622E+02  0.25344810119E+01  0.41153925155E+02  0.00000000000E+00 0.  1.
</event>
<event>
 7    1  0.2285268E-015  0.9000781E+02  0.7816164E-02  0.1186339E+00
        -11   -1    0    0    0    0  0.00000000000E+00  0.00000000000E+00  0.45593999997E+02  0.45594000000E+02  0.51100000000E-03 0.  1.
         11   -1    0    0    0    0 -0.00000000000E+00 -0.00000000000E+00 -0.45593999997E+02  0.45594000000E+02  0.51100000000E-03 0. -1.
    9900012    2    1    2    0    0  0.54285800808E+00 -0.10432728834E+01 -0.98711825512E-01  0.90007806308E+02  0.90000068551E+02 0.  0.
         12    1    1    2    0    0 -0.54285800808E+00  0.10432728834E+01  0.98711825512E-01  0.11801936920E+01  0.00000000000E+00 0. -1.
         11    1    3    3    0    0  0.96168646026E+01 -0.34725124331E+01  0.43631357735E+01  0.11116626351E+02  0.51100000000E-03 0. -1.
        -11    1    3    3    0    0 -0.59574156420E+01 -0.33998170909E+02  0.14813502105E+02  0.37560701154E+02  0.51100000000E-03 0.  1.
         12    1    3    3    0    0 -0.31165909525E+01  0.36427410459E+02 -0.19275349704E+02  0.41330478803E+02  0.00000000000E+00 0. -1.
</event>
<event>
 7    1  0.2285268E-015  0.9000770E+02  0.7816164E-02  0.1186339E+00
        -11   -1    0    0    0    0  0.00000000000E+00  0.00000000000E+00  0.45593999997E+02  0.45594000000E+02  0.51100000000E-03 0.  1.
         11   -1    0    0    0    0 -0.00000000000E+00 -0.00000000000E+00 -0.45593999997E+02  0.45594000000E+02  0.51100000000E-03 0. -1.
    9900012    2    1    2    0    0 -0.90782553618E+00  0.22683186984E+00  0.71937243830E+00  0.90007704865E+02  0.89999965769E+02 0.  0.
         12    1    1    2    0    0  0.90782553618E+00 -0.22683186984E+00 -0.71937243830E+00  0.11802951353E+01  0.00000000000E+00 0. -1.
         11    1    3    3    0    0  0.46432906566E+01  0.15339748105E+01  0.50957921479E+01  0.70626004217E+01  0.51100000000E-03 0. -1.
        -11    1    3    3    0    0  0.28972186023E+02 -0.67101475257E+01  0.23773413052E+02  0.38073465973E+02  0.51100000000E-03 0.  1.
         12    1    3    3    0    0 -0.34523302216E+02  0.54030045850E+01 -0.28149832762E+02  0.44871638470E+02  0.00000000000E+00 0. -1.
</event>
<event>
 7    1  0.2285268E-015  0.9000774E+02  0.7816164E-02  0.1186339E+00
        -11   -1    0    0    0    0  0.00000000000E+00  0.00000000000E+00  0.45593999997E+02  0.45594000000E+02  0.51100000000E-03 0. -1.
         11   -1    0    0    0    0 -0.00000000000E+00 -0.00000000000E+00 -0.45593999997E+02  0.45594000000E+02  0.51100000000E-03 0.  1.
    9900012    2    1    2    0    0  0.11073807362E+01 -0.38746076649E+00  0.12882906213E+00  0.90007739492E+02  0.90000000853E+02 0.  0.
         12    1    1    2    0    0 -0.11073807362E+01  0.38746076649E+00 -0.12882906213E+00  0.11802605084E+01  0.00000000000E+00 0. -1.
         11    1    3    3    0    0  0.63978704162E+01 -0.32632188498E+02  0.17164713871E+02  0.37422184257E+02  0.51100000000E-03 0. -1.
        -11    1    3    3    0    0  0.63564668088E+01 -0.49230970812E+01 -0.10285462740E+02  0.13054972202E+02  0.51100000000E-03 0.  1.
        -12    1    3    3    0    0 -0.11646956489E+02  0.37167824813E+02 -0.67504220683E+01  0.39530583032E+02  0.00000000000E+00 0.  1.
</event>
<event>
 7    1  0.2700168E-015  0.9000760E+02  0.7816164E-02  0.1186339E+00
        -11   -1    0    0    0    0  0.00000000000E+00  0.00000000000E+00  0.45593999997E+02  0.45594000000E+02  0.51100000000E-03 0.  1.
         11   -1    0    0    0    0 -0.00000000000E+00 -0.00000000000E+00 -0.45593999997E+02  0.45594000000E+02  0.51100000000E-03 0. -1.
    9900012    2    1    2    0    0 -0.52680477566E+00  0.10198878802E+01  0.27502405928E+00  0.90007604815E+02  0.89999864398E+02 0.  0.
         12    1    1    2    0    0  0.52680477566E+00 -0.10198878802E+01 -0.27502405928E+00  0.11803951851E+01  0.00000000000E+00 0. -1.
         11    1    3    3    0    0  0.59082833304E+01 -0.71006126914E+01 -0.14672050599E+01  0.93530317788E+01  0.51100000000E-03 0. -1.
        -11    1    3    3    0    0  0.26737025394E+02  0.34569009740E+01  0.27414984608E+02  0.38449968434E+02  0.51100000000E-03 0.  1.
         12    1    3    3    0    0 -0.33172113500E+02  0.46635995976E+01 -0.25672755489E+02  0.42204604602E+02  0.00000000000E+00 0. -1.
</event>
<event>
 7    1  0.2285268E-015  0.9000771E+02  0.7816164E-02  0.1186339E+00
        -11   -1    0    0    0    0  0.00000000000E+00  0.00000000000E+00  0.45593999997E+02  0.45594000000E+02  0.51100000000E-03 0. -1.
         11   -1    0    0    0    0 -0.00000000000E+00 -0.00000000000E+00 -0.45593999997E+02  0.45594000000E+02  0.51100000000E-03 0.  1.
    9900012    2    1    2    0    0 -0.10056550561E+01 -0.54543381996E+00 -0.29025997947E+00  0.90007707240E+02  0.89999968175E+02 0.  0.
         12    1    1    2    0    0  0.10056550561E+01  0.54543381996E+00  0.29025997947E+00  0.11802927601E+01  0.00000000000E+00 0. -1.
         11    1    3    3    0    0  0.74079396089E+01  0.24163223282E+01 -0.84183999101E+01  0.11471078421E+02  0.51100000000E-03 0. -1.
        -11    1    3    3    0    0 -0.23541861373E+02 -0.35069892608E+02  0.82798733241E+01  0.43042687032E+02  0.51100000000E-03 0.  1.
         12    1    3    3    0    0  0.15128266708E+02  0.32108136460E+02 -0.15173339345E+00  0.35493941786E+02  0.00000000000E+00 0. -1.
</event>
<event>
 7    1  0.2285268E-015  0.9000774E+02  0.7816164E-02  0.1186339E+00
        -11   -1    0    0    0    0  0.00000000000E+00  0.00000000000E+00  0.45593999997E+02  0.45594000000E+02  0.51100000000E-03 0.  1.
         11   -1    0    0    0    0 -0.00000000000E+00 -0.00000000000E+00 -0.45593999997E+02  0.45594000000E+02  0.51100000000E-03 0. -1.
    9900012    2    1    2    0    0  0.86500084272E+00  0.75781808960E+00  0.26550264002E+00  0.90007743093E+02  0.90000004502E+02 0.  0.
         12    1    1    2    0    0 -0.86500084272E+00 -0.75781808960E+00 -0.26550264002E+00  0.11802569071E+01  0.00000000000E+00 0. -1.
         11    1    3    3    0    0  0.76497774336E+00  0.23803497086E+01  0.83347974344E+01  0.87017299554E+01  0.51100000000E-03 0. -1.
        -11    1    3    3    0    0  0.27255894280E+02  0.98318863210E+01  0.24092108464E+02  0.37682614720E+02  0.51100000000E-03 0.  1.
         12    1    3    3    0    0 -0.27155871181E+02 -0.11454417940E+02 -0.32161403259E+02  0.43623398417E+02  0.00000000000E+00 0. -1.
</event>
<event>
 7    1  0.2285268E-015  0.9000779E+02  0.7816164E-02  0.1186339E+00
        -11   -1    0    0    0    0  0.00000000000E+00  0.00000000000E+00  0.45593999997E+02  0.45594000000E+02  0.51100000000E-03 0. -1.
         11   -1    0    0    0    0 -0.00000000000E+00 -0.00000000000E+00 -0.45593999997E+02  0.45594000000E+02  0.51100000000E-03 0.  1.
    9900012    2    1    2    0    0  0.14376389770E+00 -0.70693009464E+00 -0.93406746237E+00  0.90007788052E+02  0.90000050055E+02 0.  0.
         12    1    1    2    0    0 -0.14376389770E+00  0.70693009464E+00  0.93406746237E+00  0.11802119476E+01  0.00000000000E+00 0. -1.
         11    1    3    3    0    0  0.28076032861E+01 -0.33700199806E+02 -0.15130392381E+02  0.37047467889E+02  0.51100000000E-03 0. -1.
        -11    1    3    3    0    0  0.48722780710E+01 -0.79802342167E+01  0.21723304305E+01  0.95990755552E+01  0.51100000000E-03 0.  1.
        -12    1    3    3    0    0 -0.75361174594E+01  0.40973503928E+02  0.12023994488E+02  0.43361244608E+02  0.00000000000E+00 0.  1.
</event>
<event>
 7    1  0.2285268E-015  0.9000775E+02  0.7816164E-02  0.1186339E+00
        -11   -1    0    0    0    0  0.00000000000E+00  0.00000000000E+00  0.45593999997E+02  0.45594000000E+02  0.51100000000E-03 0. -1.
         11   -1    0    0    0    0 -0.00000000000E+00 -0.00000000000E+00 -0.45593999997E+02  0.45594000000E+02  0.51100000000E-03 0.  1.
    9900012    2    1    2    0    0  0.57487433854E+00  0.10299067017E+01  0.42350788950E-01  0.90007753454E+02  0.90000015000E+02 0.  0.
         12    1    1    2    0    0 -0.57487433854E+00 -0.10299067017E+01 -0.42350788950E-01  0.11802465457E+01  0.00000000000E+00 0. -1.
         11    1    3    3    0    0 -0.78920291787E+01 -0.36867858092E+02  0.45872275954E+01  0.37981123498E+02  0.51100000000E-03 0. -1.
        -11    1    3    3    0    0 -0.22774965338E+01 -0.51131327984E+01  0.39977775831E+01  0.68784695493E+01  0.51100000000E-03 0.  1.
        -12    1    3    3    0    0  0.10744400051E+02  0.43010897592E+02 -0.85426543895E+01  0.45148160407E+02  0.00000000000E+00 0.  1.
</event>
<event>
 7    1  0.2285268E-015  0.9000770E+02  0.7816164E-02  0.1186339E+00
        -11   -1    0    0    0    0  0.00000000000E+00  0.00000000000E+00  0.45593999997E+02  0.45594000000E+02  0.51100000000E-03 0. -1.
         11   -1    0    0    0    0 -0.00000000000E+00 -0.00000000000E+00 -0.45593999997E+02  0.45594000000E+02  0.51100000000E-03 0.  1.
    9900012    2    1    2    0    0 -0.74603853465E+00 -0.90186678609E+00 -0.15218880798E+00  0.90007704008E+02  0.89999964901E+02 0.  0.
         12    1    1    2    0    0  0.74603853465E+00  0.90186678609E+00  0.15218880798E+00  0.11802959918E+01  0.00000000000E+00 0. -1.
         11    1    3    3    0    0 -0.15721974392E+01 -0.13107561209E+02 -0.73970528518E+01  0.15132625575E+02  0.51100000000E-03 0. -1.
        -11    1    3    3    0    0 -0.70645631892E+01 -0.25265032100E+02 -0.15368147164E+02  0.30404109058E+02  0.51100000000E-03 0.  1.
         12    1    3    3    0    0  0.78907220938E+01  0.37470726523E+02  0.22613011208E+02  0.44470969376E+02  0.00000000000E+00 0. -1.
</event>
<event>
 7    1  0.2285268E-015  0.9000831E+02  0.7816164E-02  0.1186338E+00
        -11   -1    0    0    0    0  0.00000000000E+00  0.00000000000E+00  0.45593999997E+02  0.45594000000E+02  0.51100000000E-03 0.  1.
         11   -1    0    0    0    0 -0.00000000000E+00 -0.00000000000E+00 -0.45593999997E+02  0.45594000000E+02  0.51100000000E-03 0. -1.
    9900012    2    1    2    0    0  0.42638825894E-01 -0.74050362335E+00 -0.91733363314E+00  0.90008311617E+02  0.90000580529E+02 0.  0.
         12    1    1    2    0    0 -0.42638825894E-01  0.74050362335E+00  0.91733363314E+00  0.11796883826E+01  0.00000000000E+00 0. -1.
         11    1    3    3    0    0  0.23582466866E+02  0.27189823488E+01 -0.28114863473E+02  0.36796347059E+02  0.51100000000E-03 0. -1.
        -11    1    3    3    0    0  0.85914366359E+01  0.27077001013E+01 -0.21494135845E+01  0.92609072086E+01  0.51100000000E-03 0.  1.
        -12    1    3    3    0    0 -0.32131264676E+02 -0.61671860735E+01  0.29346943425E+02  0.43951057350E+02  0.00000000000E+00 0.  1.
</event>
<event>
 7    1  0.2285268E-015  0.9000785E+02  0.7816164E-02  0.1186339E+00
        -11   -1    0    0    0    0  0.00000000000E+00  0.00000000000E+00  0.45593999997E+02  0.45594000000E+02  0.51100000000E-03 0.  1.
         11   -1    0    0    0    0 -0.00000000000E+00 -0.00000000000E+00 -0.45593999997E+02  0.45594000000E+02  0.51100000000E-03 0. -1.
    9900012    2    1    2    0    0 -0.63954616206E+00  0.39364119526E+00  0.91037711644E+00  0.90007847816E+02  0.90000110607E+02 0.  0.
         12    1    1    2    0    0  0.63954616206E+00 -0.39364119526E+00 -0.91037711644E+00  0.11801521843E+01  0.00000000000E+00 0. -1.
         11    1    3    3    0    0 -0.78798194206E+01  0.37963063116E+02 -0.14063464882E+02  0.41243990592E+02  0.51100000000E-03 0. -1.
        -11    1    3    3    0    0  0.43665688730E+01 -0.53699857254E+01 -0.68670950333E+01  0.97499058904E+01  0.51100000000E-03 0.  1.
        -12    1    3    3    0    0  0.28737043856E+01 -0.32199436195E+02  0.21840937032E+02  0.39013951333E+02  0.00000000000E+00 0.  1.
</event>
<event>
 7    1  0.2285268E-015  0.9000769E+02  0.7816164E-02  0.1186339E+00
        -11   -1    0    0    0    0  0.00000000000E+00  0.00000000000E+00  0.45593999997E+02  0.45594000000E+02  0.51100000000E-03 0. -1.
         11   -1    0    0    0    0 -0.00000000000E+00 -0.00000000000E+00 -0.45593999997E+02  0.45594000000E+02  0.51100000000E-03 0.  1.
    9900012    2    1    2    0    0  0.74146873140E+00  0.71132733426E+00 -0.58083858975E+00  0.90007688209E+02  0.89999948894E+02 0.  0.
         12    1    1    2    0    0 -0.74146873140E+00 -0.71132733426E+00  0.58083858975E+00  0.11803117908E+01  0.00000000000E+00 0. -1.
         11    1    3    3    0    0 -0.16180878241E+02 -0.36899321060E+02 -0.57633618011E+01  0.40701315149E+02  0.51100000000E-03 0. -1.
        -11    1    3    3    0    0  0.91047688545E+01  0.80355553572E+01  0.12941555649E+02  0.17746854050E+02  0.51100000000E-03 0.  1.
        -12    1    3    3    0    0  0.78175781182E+01  0.29575093037E+02 -0.77590324379E+01  0.31559519010E+02  0.00000000000E+00 0.  1.
</event>
<event>
 7    1  0.2285268E-015  0.9000797E+02  0.7816164E-02  0.1186339E+00
        -11   -1    0    0    0    0  0.00000000000E+00  0.00000000000E+00  0.45593999997E+02  0.45594000000E+02  0.51100000000E-03 0.  1.
         11   -1    0    0    0    0 -0.00000000000E+00 -0.00000000000E+00 -0.45593999997E+02  0.45594000000E+02  0.51100000000E-03 0. -1.
    9900012    2    1    2    0    0 -0.72835600049E+00  0.82222235518E+00  0.43118118465E+00  0.90007970645E+02  0.90000235057E+02 0.  0.
         12    1    1    2    0    0  0.72835600049E+00 -0.82222235518E+00 -0.43118118465E+00  0.11800293551E+01  0.00000000000E+00 0. -1.
         11    1    3    3    0    0 -0.19733937962E+01 -0.26919728069E+02 -0.70009879237E+01  0.27885119231E+02  0.51100000000E-03 0.  1.
        -11    1    3    3    0    0 -0.99935412436E+01 -0.10425765167E+02  0.15862126058E+02  0.21451678006E+02  0.51100000000E-03 0. -1.
         12    1    3    3    0    0  0.11238579039E+02  0.38167715591E+02 -0.84299569501E+01  0.40671173408E+02  0.00000000000E+00 0. -1.
</event>
<event>
 7    1  0.2285268E-015  0.9000776E+02  0.7816164E-02  0.1186339E+00
        -11   -1    0    0    0    0  0.00000000000E+00  0.00000000000E+00  0.45593999997E+02  0.45594000000E+02  0.51100000000E-03 0. -1.
         11   -1    0    0    0    0 -0.00000000000E+00 -0.00000000000E+00 -0.45593999997E+02  0.45594000000E+02  0.51100000000E-03 0.  1.
    9900012    2    1    2    0    0 -0.79273667711E-01  0.78537972392E+00  0.87741733755E+00  0.90007759851E+02  0.90000021481E+02 0.  0.
         12    1    1    2    0    0  0.79273667711E-01 -0.78537972392E+00 -0.87741733755E+00  0.11802401490E+01  0.00000000000E+00 0. -1.
         11    1    3    3    0    0 -0.43053054297E+01 -0.11831399362E+02 -0.36416883768E+01  0.13106470166E+02  0.51100000000E-03 0. -1.
        -11    1    3    3    0    0  0.46339903594E+01  0.39811165531E+01 -0.35467992552E+02  0.35990299409E+02  0.51100000000E-03 0.  1.
         12    1    3    3    0    0 -0.40795859736E+00  0.86356625332E+01  0.39987098266E+02  0.40910990276E+02  0.00000000000E+00 0. -1.
</event>
<event>
 7    1  0.2285268E-015  0.9000762E+02  0.7816164E-02  0.1186339E+00
        -11   -1    0    0    0    0  0.00000000000E+00  0.00000000000E+00  0.45593999997E+02  0.45594000000E+02  0.51100000000E-03 0.  1.
         11   -1    0    0    0    0 -0.00000000000E+00 -0.00000000000E+00 -0.45593999997E+02  0.45594000000E+02  0.51100000000E-03 0. -1.
    9900012    2    1    2    0    0 -0.10670615062E+01 -0.44005717025E+00 -0.24705663446E+00  0.90007615507E+02  0.89999875231E+02 0.  0.
         12    1    1    2    0    0  0.10670615062E+01  0.44005717025E+00  0.24705663446E+00  0.11803844932E+01  0.00000000000E+00 0. -1.
         11    1    3    3    0    0  0.52748227502E+01  0.38226247826E+02 -0.62739694655E+01  0.39095171965E+02  0.51100000000E-03 0. -1.
        -11    1    3    3    0    0 -0.67708598931E+01  0.32769578362E+01  0.48506069930E+01  0.89504963445E+01  0.51100000000E-03 0.  1.
        -12    1    3    3    0    0  0.42897563665E+00 -0.41943262832E+02  0.11763058381E+01  0.41961947197E+02  0.00000000000E+00 0.  1.
</event>
<event>
 7    1  0.2285268E-015  0.9000772E+02  0.7816164E-02  0.1186339E+00
        -11   -1    0    0    0    0  0.00000000000E+00  0.00000000000E+00  0.45593999997E+02  0.45594000000E+02  0.51100000000E-03 0.  1.
         11   -1    0    0    0    0 -0.00000000000E+00 -0.00000000000E+00 -0.45593999997E+02  0.45594000000E+02  0.51100000000E-03 0. -1.
    9900012    2    1    2    0    0 -0.10780709535E+01 -0.26469055095E+00 -0.40096088120E+00  0.90007717112E+02  0.89999978177E+02 0.  0.
         12    1    1    2    0    0  0.10780709535E+01  0.26469055095E+00  0.40096088120E+00  0.11802828885E+01  0.00000000000E+00 0. -1.
         11    1    3    3    0    0  0.36140879061E+02 -0.17082202865E+02 -0.72135733320E+01  0.40620197371E+02  0.51100000000E-03 0. -1.
        -11    1    3    3    0    0  0.19589914334E+01  0.81729365767E+01  0.35865228232E+01  0.91377068209E+01  0.51100000000E-03 0.  1.
        -12    1    3    3    0    0 -0.39177941448E+02  0.86445757375E+01  0.32260896276E+01  0.40249812919E+02  0.00000000000E+00 0.  1.
</event>
<event>
 7    1  0.2285268E-015  0.9000776E+02  0.7816164E-02  0.1186339E+00
        -11   -1    0    0    0    0  0.00000000000E+00  0.00000000000E+00  0.45593999997E+02  0.45594000000E+02  0.51100000000E-03 0. -1.
         11   -1    0    0    0    0 -0.00000000000E+00 -0.00000000000E+00 -0.45593999997E+02  0.45594000000E+02  0.51100000000E-03 0.  1.
    9900012    2    1    2    0    0 -0.28521735674E+00  0.10364714644E+01 -0.48718681167E+00  0.90007757217E+02  0.90000018812E+02 0.  0.
         12    1    1    2    0    0  0.28521735674E+00 -0.10364714644E+01  0.48718681167E+00  0.11802427829E+01  0.00000000000E+00 0. -1.
         11    1    3    3    0    0  0.15409377506E+01  0.71507461573E-01  0.11907441122E+02  0.12006946189E+02  0.51100000000E-03 0. -1.
        -11    1    3    3    0    0  0.11481794843E+01 -0.37180636002E+02  0.16711510877E+01  0.37235879953E+02  0.51100000000E-03 0.  1.
         12    1    3    3    0    0 -0.29743345916E+01  0.38145600005E+02 -0.14065779021E+02  0.40764931074E+02  0.00000000000E+00 0. -1.
</event>
<event>
 7    1  0.2285268E-015  0.9000773E+02  0.7816164E-02  0.1186339E+00
        -11   -1    0    0    0    0  0.00000000000E+00  0.00000000000E+00  0.45593999997E+02  0.45594000000E+02  0.51100000000E-03 0. -1.
         11   -1    0    0    0    0 -0.00000000000E+00 -0.00000000000E+00 -0.45593999997E+02  0.45594000000E+02  0.51100000000E-03 0.  1.
    9900012    2    1    2    0    0  0.14164955316E+00 -0.88850118016E+00 -0.76389173359E+00  0.90007733283E+02  0.89999994562E+02 0.  0.
         12    1    1    2    0    0 -0.14164955316E+00  0.88850118016E+00  0.76389173359E+00  0.11802667172E+01  0.00000000000E+00 0. -1.
         11    1    3    3    0    0 -0.14401864464E+02  0.34322413404E+02  0.10438991395E+02  0.38657655174E+02  0.51100000000E-03 0. -1.
        -11    1    3    3    0    0 -0.12155177588E+01  0.42600343852E+01 -0.74713053468E+01  0.86859530411E+01  0.51100000000E-03 0.  1.
        -12    1    3    3    0    0  0.15759031776E+02 -0.39470948970E+02 -0.37315777814E+01  0.42664125068E+02  0.00000000000E+00 0.  1.
</event>
<event>
 7    1  0.2285268E-015  0.9000762E+02  0.7816164E-02  0.1186339E+00
        -11   -1    0    0    0    0  0.00000000000E+00  0.00000000000E+00  0.45593999997E+02  0.45594000000E+02  0.51100000000E-03 0. -1.
         11   -1    0    0    0    0 -0.00000000000E+00 -0.00000000000E+00 -0.45593999997E+02  0.45594000000E+02  0.51100000000E-03 0.  1.
    9900012    2    1    2    0    0 -0.96201213956E+00  0.56717027345E+00  0.38228034783E+00  0.90007623899E+02  0.89999883734E+02 0.  0.
         12    1    1    2    0    0  0.96201213956E+00 -0.56717027345E+00 -0.38228034783E+00  0.11803761011E+01  0.00000000000E+00 0. -1.
         11    1    3    3    0    0  0.81752715741E+00  0.34432834852E+02 -0.90330823488E+01  0.35607373444E+02  0.51100000000E-03 0. -1.
        -11    1    3    3    0    0  0.25536130702E+01  0.91100541278E+01 -0.21137822200E+01  0.96944366241E+01  0.51100000000E-03 0.  1.
        -12    1    3    3    0    0 -0.43331523671E+01 -0.42975718706E+02  0.11529144917E+02  0.44705813831E+02  0.00000000000E+00 0.  1.
</event>
<event>
 7    1  0.2592399E-015  0.9000781E+02  0.7816164E-02  0.1186339E+00
        -11   -1    0    0    0    0  0.00000000000E+00  0.00000000000E+00  0.45593999997E+02  0.45594000000E+02  0.51100000000E-03 0. -1.
         11   -1    0    0    0    0 -0.00000000000E+00 -0.00000000000E+00 -0.45593999997E+02  0.45594000000E+02  0.51100000000E-03 0.  1.
    9900012    2    1    2    0    0  0.19074193870E+00 -0.34381370596E+00 -0.11127734185E+01  0.90007807205E+02  0.90000069460E+02 0.  0.
         12    1    1    2    0    0 -0.19074193870E+00  0.34381370596E+00  0.11127734185E+01  0.11801927946E+01  0.00000000000E+00 0. -1.
         11    1    3    3    0    0  0.58408677230E+01 -0.79104454399E+01 -0.33680630380E+00  0.98389187191E+01  0.51100000000E-03 0. -1.
        -11    1    3    3    0    0 -0.24463330359E+02 -0.29442197070E+02 -0.42149233938E+01  0.38510558033E+02  0.51100000000E-03 0.  1.
         12    1    3    3    0    0  0.18813204575E+02  0.37008828804E+02  0.34389562791E+01  0.41658330453E+02  0.00000000000E+00 0. -1.
</event>
<event>
 7    1  0.2285268E-015  0.9000772E+02  0.7816164E-02  0.1186339E+00
        -11   -1    0    0    0    0  0.00000000000E+00  0.00000000000E+00  0.45593999997E+02  0.45594000000E+02  0.51100000000E-03 0. -1.
         11   -1    0    0    0    0 -0.00000000000E+00 -0.00000000000E+00 -0.45593999997E+02  0.45594000000E+02  0.51100000000E-03 0.  1.
    9900012    2    1    2    0    0 -0.27676406427E+00 -0.11255975700E+01 -0.22244685135E+00  0.90007724253E+02  0.89999985413E+02 0.  0.
         12    1    1    2    0    0  0.27676406427E+00  0.11255975700E+01  0.22244685135E+00  0.11802757468E+01  0.00000000000E+00 0. -1.
         11    1    3    3    0    0  0.24994735504E+01  0.26726592433E+02  0.24934639621E+02  0.36637335662E+02  0.51100000000E-03 0. -1.
        -11    1    3    3    0    0  0.11565554994E+01  0.92252177470E+01 -0.20998080476E+01  0.95316030761E+01  0.51100000000E-03 0.  1.
        -12    1    3    3    0    0 -0.39327931140E+01 -0.37077407750E+02 -0.23057278425E+02  0.43838785515E+02  0.00000000000E+00 0.  1.
</event>
<event>
 8    1  0.2285268E-015  0.9000778E+02  0.7816164E-02  0.1186339E+00
        -11   -1    0    0    0    0  0.00000000000E+00  0.00000000000E+00  0.45593999997E+02  0.45594000000E+02  0.51100000000E-03 0.  1.
         11   -1    0    0    0    0 -0.00000000000E+00 -0.00000000000E+00 -0.45593999997E+02  0.45594000000E+02  0.51100000000E-03 0. -1.
    9900012    2    1    2    0    0  0.20905023727E+00 -0.14013474510E+00  0.11530711567E+01  0.90007782715E+02  0.90000044646E+02 0.  0.
         23    2    3    3    0    0  0.14767006061E+02  0.15700676070E+02  0.19762589078E+02  0.61561701749E+02  0.54172940644E+02 0.  0.
         12    1    1    2    0    0 -0.20905023727E+00  0.14013474510E+00 -0.11530711567E+01  0.11802172855E+01  0.00000000000E+00 0. -1.
         11    1    4    4    0    0  0.33343931923E+02  0.45414701189E+01  0.22995124943E+01  0.33730260967E+02  0.51100000000E-03 0. -1.
        -11    1    4    4    0    0 -0.18576925862E+02  0.11159205952E+02  0.17463076584E+02  0.27831440782E+02  0.51100000000E-03 0.  1.
        -12    1    3    3    0    0 -0.14557955824E+02 -0.15840810816E+02 -0.18609517921E+02  0.28446080966E+02  0.00000000000E+00 0.  1.
</event>
<event>
 7    1  0.2285268E-015  0.9000779E+02  0.7816164E-02  0.1186339E+00
        -11   -1    0    0    0    0  0.00000000000E+00  0.00000000000E+00  0.45593999997E+02  0.45594000000E+02  0.51100000000E-03 0.  1.
         11   -1    0    0    0    0 -0.00000000000E+00 -0.00000000000E+00 -0.45593999997E+02  0.45594000000E+02  0.51100000000E-03 0. -1.
    9900012    2    1    2    0    0 -0.11523932947E+01 -0.13131759776E+00 -0.21824788929E+00  0.90007793765E+02  0.90000055842E+02 0.  0.
         12    1    1    2    0    0  0.11523932947E+01  0.13131759776E+00  0.21824788929E+00  0.11802062355E+01  0.00000000000E+00 0. -1.
         11    1    3    3    0    0 -0.14939912061E+02 -0.18743279219E+02 -0.26892651573E+02  0.36023966982E+02  0.51100000000E-03 0. -1.
        -11    1    3    3    0    0 -0.45067694667E+01 -0.13968542450E+01 -0.84109955723E+01  0.96440147027E+01  0.51100000000E-03 0.  1.
        -12    1    3    3    0    0  0.18294288233E+02  0.20008815866E+02  0.35085399256E+02  0.44339812080E+02  0.00000000000E+00 0.  1.
</event>
<event>
 7    1  0.2285268E-015  0.9000783E+02  0.7816164E-02  0.1186339E+00
        -11   -1    0    0    0    0  0.00000000000E+00  0.00000000000E+00  0.45593999997E+02  0.45594000000E+02  0.51100000000E-03 0. -1.
         11   -1    0    0    0    0 -0.00000000000E+00 -0.00000000000E+00 -0.45593999997E+02  0.45594000000E+02  0.51100000000E-03 0.  1.
    9900012    2    1    2    0    0 -0.38416020129E+00 -0.15125977446E+00 -0.11055968495E+01  0.90007829261E+02  0.90000091807E+02 0.  0.
         12    1    1    2    0    0  0.38416020129E+00  0.15125977446E+00  0.11055968495E+01  0.11801707390E+01  0.00000000000E+00 0. -1.
         11    1    3    3    0    0  0.21308775758E+02  0.13149922388E+02  0.16176111448E+02  0.29810249327E+02  0.51100000000E-03 0. -1.
        -11    1    3    3    0    0 -0.21568006895E+02 -0.11066000906E+02  0.14559710524E+02  0.28277561215E+02  0.51100000000E-03 0.  1.
        -12    1    3    3    0    0 -0.12492906456E+00 -0.22351812565E+01 -0.31841418821E+02  0.31920018719E+02  0.00000000000E+00 0.  1.
</event>
<event>
 7    1  0.2285268E-015  0.9000777E+02  0.7816164E-02  0.1186339E+00
        -11   -1    0    0    0    0  0.00000000000E+00  0.00000000000E+00  0.45593999997E+02  0.45594000000E+02  0.51100000000E-03 0.  1.
         11   -1    0    0    0    0 -0.00000000000E+00 -0.00000000000E+00 -0.45593999997E+02  0.45594000000E+02  0.51100000000E-03 0. -1.
    9900012    2    1    2    0    0 -0.77773285722E+00 -0.44449174047E+00  0.76843355454E+00  0.90007774838E+02  0.90000036666E+02 0.  0.
         12    1    1    2    0    0  0.77773285722E+00  0.44449174047E+00 -0.76843355454E+00  0.11802251617E+01  0.00000000000E+00 0. -1.
         11    1    3    3    0    0  0.33403710712E+02 -0.87683594184E+01 -0.19057799724E+02  0.39444793659E+02  0.51100000000E-03 0. -1.
        -11    1    3    3    0    0 -0.13243659190E+02 -0.21260568160E+01 -0.68636490496E+01  0.15067325737E+02  0.51100000000E-03 0.  1.
        -12    1    3    3    0    0 -0.20937784379E+02  0.10449924494E+02  0.26689882328E+02  0.35495655443E+02  0.00000000000E+00 0.  1.
</event>
<event>
 7    1  0.2285268E-015  0.9000773E+02  0.7816164E-02  0.1186339E+00
        -11   -1    0    0    0    0  0.00000000000E+00  0.00000000000E+00  0.45593999997E+02  0.45594000000E+02  0.51100000000E-03 0.  1.
         11   -1    0    0    0    0 -0.00000000000E+00 -0.00000000000E+00 -0.45593999997E+02  0.45594000000E+02  0.51100000000E-03 0. -1.
    9900012    2    1    2    0    0  0.34882303172E-01  0.11739134306E+01 -0.11725867200E+00  0.90007729220E+02  0.89999990446E+02 0.  0.
         12    1    1    2    0    0 -0.34882303172E-01 -0.11739134306E+01  0.11725867200E+00  0.11802707799E+01  0.00000000000E+00 0. -1.
         11    1    3    3    0    0 -0.82723085829E+01  0.42261248236E+01 -0.19535838179E+02  0.21631925341E+02  0.51100000000E-03 0. -1.
        -11    1    3    3    0    0 -0.22300699837E+02  0.76169624634E+01  0.26222164599E+02  0.35255371887E+02  0.51100000000E-03 0.  1.
         12    1    3    3    0    0  0.30607890723E+02 -0.10669173856E+02 -0.68035850914E+01  0.33120431992E+02  0.00000000000E+00 0. -1.
</event>
<event>
 7    1  0.2285268E-015  0.9000771E+02  0.7816164E-02  0.1186339E+00
        -11   -1    0    0    0    0  0.00000000000E+00  0.00000000000E+00  0.45593999997E+02  0.45594000000E+02  0.51100000000E-03 0. -1.
         11   -1    0    0    0    0 -0.00000000000E+00 -0.00000000000E+00 -0.45593999997E+02  0.45594000000E+02  0.51100000000E-03 0.  1.
    9900012    2    1    2    0    0 -0.33273064213E+00 -0.10320514833E+01 -0.46608839661E+00  0.90007712604E+02  0.89999973610E+02 0.  0.
         12    1    1    2    0    0  0.33273064213E+00  0.10320514833E+01  0.46608839661E+00  0.11802873963E+01  0.00000000000E+00 0. -1.
         11    1    3    3    0    0 -0.30715810867E+02  0.85968000356E+01 -0.12268343623E+02  0.34174233914E+02  0.51100000000E-03 0. -1.
        -11    1    3    3    0    0 -0.82177973397E+01  0.23695100969E+01 -0.71882863284E+01  0.11172208010E+02  0.51100000000E-03 0.  1.
        -12    1    3    3    0    0  0.38600877565E+02 -0.11998361616E+02  0.18990541555E+02  0.44661270680E+02  0.00000000000E+00 0.  1.
</event>
<event>
 7    1  0.2285268E-015  0.9000776E+02  0.7816164E-02  0.1186339E+00
        -11   -1    0    0    0    0  0.00000000000E+00  0.00000000000E+00  0.45593999997E+02  0.45594000000E+02  0.51100000000E-03 0. -1.
         11   -1    0    0    0    0 -0.00000000000E+00 -0.00000000000E+00 -0.45593999997E+02  0.45594000000E+02  0.51100000000E-03 0.  1.
    9900012    2    1    2    0    0 -0.11407492717E+01  0.23002777405E+00 -0.19680716333E+00  0.90007764965E+02  0.90000026663E+02 0.  0.
         12    1    1    2    0    0  0.11407492717E+01 -0.23002777405E+00  0.19680716333E+00  0.11802350347E+01  0.00000000000E+00 0. -1.
         11    1    3    3    0    0 -0.56146687167E+00  0.79453771628E+01 -0.63221920955E+01  0.10169285937E+02  0.51100000000E-03 0. -1.
        -11    1    3    3    0    0 -0.33992787718E+02 -0.74749533761E+01 -0.17459844156E+02  0.38938807160E+02  0.51100000000E-03 0.  1.
         12    1    3    3    0    0  0.33413505318E+02 -0.24039601271E+00  0.23585229088E+02  0.40899671869E+02  0.00000000000E+00 0. -1.
</event>
<event>
 7    1  0.2285268E-015  0.9000773E+02  0.7816164E-02  0.1186339E+00
        -11   -1    0    0    0    0  0.00000000000E+00  0.00000000000E+00  0.45593999997E+02  0.45594000000E+02  0.51100000000E-03 0.  1.
         11   -1    0    0    0    0 -0.00000000000E+00 -0.00000000000E+00 -0.45593999997E+02  0.45594000000E+02  0.51100000000E-03 0. -1.
    9900012    2    1    2    0    0 -0.93677979172E+00  0.59330979913E+00 -0.40430554641E+00  0.90007730594E+02  0.89999991838E+02 0.  0.
         12    1    1    2    0    0  0.93677979172E+00 -0.59330979913E+00  0.40430554641E+00  0.11802694060E+01  0.00000000000E+00 0. -1.
         11    1    3    3    0    0  0.61337245475E+01  0.23371908857E+01 -0.59726986742E+01  0.88745798647E+01  0.51100000000E-03 0. -1.
        -11    1    3    3    0    0 -0.13195148124E+02 -0.62067343397E+01  0.41720446620E+02  0.44195374776E+02  0.51100000000E-03 0.  1.
         12    1    3    3    0    0  0.61246437844E+01  0.44628532532E+01 -0.36152053492E+02  0.36937775953E+02  0.00000000000E+00 0. -1.
</event>
<event>
 7    1  0.2285268E-015  0.9000765E+02  0.7816164E-02  0.1186339E+00
        -11   -1    0    0    0    0  0.00000000000E+00  0.00000000000E+00  0.45593999997E+02  0.45594000000E+02  0.51100000000E-03 0.  1.
         11   -1    0    0    0    0 -0.00000000000E+00 -0.00000000000E+00 -0.45593999997E+02  0.45594000000E+02  0.51100000000E-03 0. -1.
    9900012    2    1    2    0    0  0.32894143371E+00 -0.66526038777E+00  0.91784657857E+00  0.90007654207E+02  0.89999914442E+02 0.  0.
         12    1    1    2    0    0 -0.32894143371E+00  0.66526038777E+00 -0.91784657857E+00  0.11803457935E+01  0.00000000000E+00 0. -1.
         11    1    3    3    0    0 -0.53713280881E+01  0.48233053166E+01 -0.42033211653E+01  0.83536428393E+01  0.51100000000E-03 0. -1.
        -11    1    3    3    0    0  0.24240877404E+02  0.31154085297E+02  0.87354210550E+01  0.40429008759E+02  0.51100000000E-03 0.  1.
         12    1    3    3    0    0 -0.18540607882E+02 -0.36642651001E+02 -0.36142533111E+01  0.41225002608E+02  0.00000000000E+00 0. -1.
</event>
<event>
 7    1  0.2285268E-015  0.9000780E+02  0.7816164E-02  0.1186339E+00
        -11   -1    0    0    0    0  0.00000000000E+00  0.00000000000E+00  0.45593999997E+02  0.45594000000E+02  0.51100000000E-03 0.  1.
         11   -1    0    0    0    0 -0.00000000000E+00 -0.00000000000E+00 -0.45593999997E+02  0.45594000000E+02  0.51100000000E-03 0. -1.
    9900012    2    1    2    0    0  0.10639303496E+01 -0.26977773616E-01  0.51009569931E+00  0.90007799504E+02  0.90000061657E+02 0.  0.
         12    1    1    2    0    0 -0.10639303496E+01  0.26977773616E-01 -0.51009569931E+00  0.11802004963E+01  0.00000000000E+00 0. -1.
         11    1    3    3    0    0  0.10722714425E+02 -0.40818405644E+01 -0.34348273958E+02  0.36213836461E+02  0.51100000000E-03 0. -1.
        -11    1    3    3    0    0 -0.49617729696E+01 -0.41029450222E+01 -0.77973107960E+01  0.10111943669E+02  0.51100000000E-03 0.  1.
        -12    1    3    3    0    0 -0.46970111062E+01  0.81578078130E+01  0.42655680453E+02  0.43682019374E+02  0.00000000000E+00 0.  1.
</event>
<event>
 7    1  0.2285268E-015  0.9000775E+02  0.7816164E-02  0.1186339E+00
        -11   -1    0    0    0    0  0.00000000000E+00  0.00000000000E+00  0.45593999997E+02  0.45594000000E+02  0.51100000000E-03 0.  1.
         11   -1    0    0    0    0 -0.00000000000E+00 -0.00000000000E+00 -0.45593999997E+02  0.45594000000E+02  0.51100000000E-03 0. -1.
    9900012    2    1    2    0    0  0.54297831978E-01 -0.29523809001E+00  0.11414392968E+01  0.90007746869E+02  0.90000008328E+02 0.  0.
         12    1    1    2    0    0 -0.54297831978E-01  0.29523809001E+00 -0.11414392968E+01  0.11802531308E+01  0.00000000000E+00 0. -1.
         11    1    3    3    0    0  0.14145959720E+02 -0.18147994889E+02 -0.75986348299E+01  0.24232151090E+02  0.51100000000E-03 0. -1.
        -11    1    3    3    0    0  0.15059687647E+02 -0.14992933777E+02  0.19875958701E+01  0.21343214211E+02  0.51100000000E-03 0.  1.
         12    1    3    3    0    0 -0.29151349535E+02  0.32845690577E+02  0.67524782567E+01  0.44432381568E+02  0.00000000000E+00 0. -1.
</event>
<event>
 7    1  0.2285268E-015  0.9000784E+02  0.7816164E-02  0.1186339E+00
        -11   -1    0    0    0    0  0.00000000000E+00  0.00000000000E+00  0.45593999997E+02  0.45594000000E+02  0.51100000000E-03 0. -1.
         11   -1    0    0    0    0 -0.00000000000E+00 -0.00000000000E+00 -0.45593999997E+02  0.45594000000E+02  0.51100000000E-03 0.  1.
    9900012    2    1    2    0    0  0.33792079107E+00  0.11296273046E+01  0.50340900472E-01  0.90007837929E+02  0.90000100589E+02 0.  0.
         12    1    1    2    0    0 -0.33792079107E+00 -0.11296273046E+01 -0.50340900472E-01  0.11801620714E+01  0.00000000000E+00 0. -1.
         11    1    3    3    0    0 -0.13067237494E+01  0.20950492515E+02  0.26182000969E+02  0.33557828276E+02  0.51100000000E-03 0. -1.
        -11    1    3    3    0    0 -0.25098308081E+01  0.54544125464E+01  0.10295706546E+02  0.11918533486E+02  0.51100000000E-03 0.  1.
        -12    1    3    3    0    0  0.41544753486E+01 -0.25275277757E+02 -0.36427366615E+02  0.44531476167E+02  0.00000000000E+00 0.  1.
</event>
<event>
 7    1  0.2628792E-015  0.9000773E+02  0.7816164E-02  0.1186339E+00
        -11   -1    0    0    0    0  0.00000000000E+00  0.00000000000E+00  0.45593999997E+02  0.45594000000E+02  0.51100000000E-03 0. -1.
         11   -1    0    0    0    0 -0.00000000000E+00 -0.00000000000E+00 -0.45593999997E+02  0.45594000000E+02  0.51100000000E-03 0.  1.
    9900012    2    1    2    0    0 -0.99732879811E+00 -0.14638418127E+00 -0.61394919541E+00  0.90007734490E+02  0.89999995785E+02 0.  0.
         12    1    1    2    0    0  0.99732879811E+00  0.14638418127E+00  0.61394919541E+00  0.11802655102E+01  0.00000000000E+00 0. -1.
         11    1    3    3    0    0 -0.21319272006E+01 -0.87367172252E+01 -0.29276777214E+01  0.94576233042E+01  0.51100000000E-03 0. -1.
        -11    1    3    3    0    0  0.16967423534E+02 -0.16715904306E+02 -0.28839585589E+02  0.37403697884E+02  0.51100000000E-03 0.  1.
         12    1    3    3    0    0 -0.15832825132E+02  0.25306237350E+02  0.31153314115E+02  0.43146413302E+02  0.00000000000E+00 0. -1.
</event>
<event>
 7    1  0.2285268E-015  0.9000780E+02  0.7816164E-02  0.1186339E+00
        -11   -1    0    0    0    0  0.00000000000E+00  0.00000000000E+00  0.45593999997E+02  0.45594000000E+02  0.51100000000E-03 0. -1.
         11   -1    0    0    0    0 -0.00000000000E+00 -0.00000000000E+00 -0.45593999997E+02  0.45594000000E+02  0.51100000000E-03 0.  1.
    9900012    2    1    2    0    0  0.98657840715E+00 -0.19410756815E+00  0.61794881962E+00  0.90007798557E+02  0.90000060698E+02 0.  0.
         12    1    1    2    0    0 -0.98657840715E+00  0.19410756815E+00 -0.61794881962E+00  0.11802014426E+01  0.00000000000E+00 0. -1.
         11    1    3    3    0    0 -0.68555082836E+01 -0.53465373241E+01  0.34056379393E+01  0.93371208207E+01  0.51100000000E-03 0. -1.
        -11    1    3    3    0    0 -0.21367910169E+02  0.25979730220E+02 -0.21784936891E+02  0.40076395084E+02  0.51100000000E-03 0.  1.
         12    1    3    3    0    0  0.29209996860E+02 -0.20827300464E+02  0.18997247772E+02  0.40594282653E+02  0.00000000000E+00 0. -1.
</event>
<event>
 7    1  0.2285268E-015  0.9000805E+02  0.7816164E-02  0.1186338E+00
        -11   -1    0    0    0    0  0.00000000000E+00  0.00000000000E+00  0.45593999997E+02  0.45594000000E+02  0.51100000000E-03 0.  1.
         11   -1    0    0    0    0 -0.00000000000E+00 -0.00000000000E+00 -0.45593999997E+02  0.45594000000E+02  0.51100000000E-03 0. -1.
    9900012    2    1    2    0    0  0.50186008558E+00  0.10550528630E+01  0.16519567059E+00  0.90008046739E+02  0.90000312155E+02 0.  0.
         12    1    1    2    0    0 -0.50186008558E+00 -0.10550528630E+01 -0.16519567059E+00  0.11799532613E+01  0.00000000000E+00 0. -1.
         11    1    3    3    0    0 -0.48032168267E+01 -0.14666221513E+01 -0.31309404826E+02  0.31709631080E+02  0.51100000000E-03 0. -1.
        -11    1    3    3    0    0  0.16881131042E+01 -0.25893661923E+00 -0.13240995047E+02  0.13350682534E+02  0.51100000000E-03 0.  1.
        -12    1    3    3    0    0  0.36169638081E+01  0.27806116335E+01  0.44715595543E+02  0.44947733125E+02  0.00000000000E+00 0.  1.
</event>
<event>
 7    1  0.2285268E-015  0.9000779E+02  0.7816164E-02  0.1186339E+00
        -11   -1    0    0    0    0  0.00000000000E+00  0.00000000000E+00  0.45593999997E+02  0.45594000000E+02  0.51100000000E-03 0.  1.
         11   -1    0    0    0    0 -0.00000000000E+00 -0.00000000000E+00 -0.45593999997E+02  0.45594000000E+02  0.51100000000E-03 0. -1.
    9900012    2    1    2    0    0  0.41811612759E-01  0.11790254491E+01  0.32350761065E-01  0.90007789937E+02  0.90000051964E+02 0.  0.
         12    1    1    2    0    0 -0.41811612759E-01 -0.11790254491E+01 -0.32350761065E-01  0.11802100628E+01  0.00000000000E+00 0. -1.
         11    1    3    3    0    0 -0.83068096747E+00 -0.14124691761E+02 -0.22939195894E+02  0.26951876683E+02  0.51100000000E-03 0. -1.
        -11    1    3    3    0    0  0.88779276522E+01 -0.14078938311E+02  0.27622020241E+02  0.32249187677E+02  0.51100000000E-03 0.  1.
         12    1    3    3    0    0 -0.80054350720E+01  0.29382655521E+02 -0.46504735857E+01  0.30806725577E+02  0.00000000000E+00 0. -1.
</event>
<event>
 7    1  0.2285268E-015  0.9000780E+02  0.7816164E-02  0.1186339E+00
        -11   -1    0    0    0    0  0.00000000000E+00  0.00000000000E+00  0.45593999997E+02  0.45594000000E+02  0.51100000000E-03 0. -1.
         11   -1    0    0    0    0 -0.00000000000E+00 -0.00000000000E+00 -0.45593999997E+02  0.45594000000E+02  0.51100000000E-03 0.  1.
    9900012    2    1    2    0    0  0.67348850020E+00  0.57154725990E+00 -0.78270356394E+00  0.90007797518E+02  0.90000059645E+02 0.  0.
         12    1    1    2    0    0 -0.67348850020E+00 -0.57154725990E+00  0.78270356394E+00  0.11802024823E+01  0.00000000000E+00 0. -1.
         11    1    3    3    0    0 -0.15212391441E+01 -0.65085130279E+01  0.67642395566E+01  0.95094609421E+01  0.51100000000E-03 0. -1.
        -11    1    3    3    0    0  0.35540348533E+02  0.66775115416E-01  0.16104929513E+02  0.39019092604E+02  0.51100000000E-03 0.  1.
         12    1    3    3    0    0 -0.33345620889E+02  0.70132851724E+01 -0.23651872633E+02  0.41479243971E+02  0.00000000000E+00 0. -1.
</event>
<event>
 7    1  0.2285268E-015  0.9000777E+02  0.7816164E-02  0.1186339E+00
        -11   -1    0    0    0    0  0.00000000000E+00  0.00000000000E+00  0.45593999997E+02  0.45594000000E+02  0.51100000000E-03 0.  1.
         11   -1    0    0    0    0 -0.00000000000E+00 -0.00000000000E+00 -0.45593999997E+02  0.45594000000E+02  0.51100000000E-03 0. -1.
    9900012    2    1    2    0    0  0.10150343361E+01  0.13428671629E+00  0.58703488207E+00  0.90007772235E+02  0.90000034028E+02 0.  0.
         12    1    1    2    0    0 -0.10150343361E+01 -0.13428671629E+00 -0.58703488207E+00  0.11802277655E+01  0.00000000000E+00 0. -1.
         11    1    3    3    0    0  0.31744117630E+01  0.93975545197E+01  0.15149304246E+01  0.10034238160E+02  0.51100000000E-03 0. -1.
        -11    1    3    3    0    0  0.45398908551E+01 -0.28883955178E+01  0.38806205267E+02  0.39177480842E+02  0.51100000000E-03 0.  1.
         12    1    3    3    0    0 -0.66992682820E+01 -0.63748722856E+01 -0.39734100810E+02  0.40796053232E+02  0.00000000000E+00 0. -1.
</event>
<event>
 7    1  0.2285268E-015  0.9000772E+02  0.7816164E-02  0.1186339E+00
        -11   -1    0    0    0    0  0.00000000000E+00  0.00000000000E+00  0.45593999997E+02  0.45594000000E+02  0.51100000000E-03 0.  1.
         11   -1    0    0    0    0 -0.00000000000E+00 -0.00000000000E+00 -0.45593999997E+02  0.45594000000E+02  0.51100000000E-03 0. -1.
    9900012    2    1    2    0    0  0.98382593413E+00  0.64842061854E+00 -0.68590878459E-01  0.90007717205E+02  0.89999978272E+02 0.  0.
         12    1    1    2    0    0 -0.98382593413E+00 -0.64842061854E+00  0.68590878459E-01  0.11802827949E+01  0.00000000000E+00 0. -1.
         11    1    3    3    0    0  0.14201158544E+01 -0.40563902259E+01  0.87004615794E+01  0.97040745391E+01  0.51100000000E-03 0. -1.
        -11    1    3    3    0    0  0.10675791755E+02 -0.34099519391E+02 -0.16248393929E+02  0.39252516579E+02  0.51100000000E-03 0.  1.
         12    1    3    3    0    0 -0.11112081675E+02  0.38804330235E+02  0.74793414716E+01  0.41051126087E+02  0.00000000000E+00 0. -1.
</event>
<event>
 7    1  0.2285268E-015  0.9000767E+02  0.7816164E-02  0.1186339E+00
        -11   -1    0    0    0    0  0.00000000000E+00  0.00000000000E+00  0.45593999997E+02  0.45594000000E+02  0.51100000000E-03 0.  1.
         11   -1    0    0    0    0 -0.00000000000E+00 -0.00000000000E+00 -0.45593999997E+02  0.45594000000E+02  0.51100000000E-03 0. -1.
    9900012    2    1    2    0    0 -0.18241193386E+00 -0.36593605711E+00  0.11072512850E+01  0.90007665844E+02  0.89999926233E+02 0.  0.
         12    1    1    2    0    0  0.18241193386E+00  0.36593605711E+00 -0.11072512850E+01  0.11803341560E+01  0.00000000000E+00 0. -1.
         11    1    3    3    0    0 -0.10202938214E+02 -0.42918265694E+02  0.23004802923E+01  0.44174310274E+02  0.51100000000E-03 0. -1.
        -11    1    3    3    0    0  0.34435108354E+01  0.34525317999E+01  0.33627853782E+01  0.59233494295E+01  0.51100000000E-03 0.  1.
        -12    1    3    3    0    0  0.65770154446E+01  0.39099797837E+02 -0.45560143855E+01  0.39910006140E+02  0.00000000000E+00 0.  1.
</event>
<event>
 7    1  0.2285268E-015  0.9000779E+02  0.7816164E-02  0.1186339E+00
        -11   -1    0    0    0    0  0.00000000000E+00  0.00000000000E+00  0.45593999997E+02  0.45594000000E+02  0.51100000000E-03 0.  1.
         11   -1    0    0    0    0 -0.00000000000E+00 -0.00000000000E+00 -0.45593999997E+02  0.45594000000E+02  0.51100000000E-03 0. -1.
    9900012    2    1    2    0    0 -0.10936200316E+01  0.39630084693E+00 -0.19958609828E+00  0.90007790804E+02  0.90000052843E+02 0.  0.
         12    1    1    2    0    0  0.10936200316E+01 -0.39630084693E+00  0.19958609828E+00  0.11802091956E+01  0.00000000000E+00 0. -1.
         11    1    3    3    0    0  0.37431495473E+02  0.43554421749E+01  0.24216346457E+01  0.37761766968E+02  0.51100000000E-03 0. -1.
        -11    1    3    3    0    0  0.28271851939E+01  0.44369057825E+01 -0.81383609424E+01  0.96908218503E+01  0.51100000000E-03 0.  1.
        -12    1    3    3    0    0 -0.41352300699E+02 -0.83960471104E+01  0.55171401985E+01  0.42555201987E+02  0.00000000000E+00 0.  1.
</event>
<event>
 7    1  0.2285268E-015  0.9000775E+02  0.7816164E-02  0.1186339E+00
        -11   -1    0    0    0    0  0.00000000000E+00  0.00000000000E+00  0.45593999997E+02  0.45594000000E+02  0.51100000000E-03 0.  1.
         11   -1    0    0    0    0 -0.00000000000E+00 -0.00000000000E+00 -0.45593999997E+02  0.45594000000E+02  0.51100000000E-03 0. -1.
    9900012    2    1    2    0    0  0.62490430715E+00 -0.86074801144E+00  0.51147734822E+00  0.90007745108E+02  0.90000006543E+02 0.  0.
         12    1    1    2    0    0 -0.62490430715E+00  0.86074801144E+00 -0.51147734822E+00  0.11802548920E+01  0.00000000000E+00 0. -1.
         11    1    3    3    0    0  0.52095666031E+01 -0.43959317080E+01  0.45650738160E+01  0.82038831647E+01  0.51100000000E-03 0. -1.
        -11    1    3    3    0    0 -0.31818049247E+02 -0.16405064913E+02  0.19385911193E+02  0.40710293118E+02  0.51100000000E-03 0.  1.
         12    1    3    3    0    0  0.27233386951E+02  0.19940248610E+02 -0.23439507661E+02  0.41093568826E+02  0.00000000000E+00 0. -1.
</event>
<event>
 7    1  0.2285268E-015  0.9000783E+02  0.7816164E-02  0.1186339E+00
        -11   -1    0    0    0    0  0.00000000000E+00  0.00000000000E+00  0.45593999997E+02  0.45594000000E+02  0.51100000000E-03 0.  1.
         11   -1    0    0    0    0 -0.00000000000E+00 -0.00000000000E+00 -0.45593999997E+02  0.45594000000E+02  0.51100000000E-03 0. -1.
    9900012    2    1    2    0    0  0.11409647688E+01  0.28484182200E+00 -0.99312150891E-01  0.90007831211E+02  0.90000093783E+02 0.  0.
         12    1    1    2    0    0 -0.11409647688E+01 -0.28484182200E+00  0.99312150891E-01  0.11801687890E+01  0.00000000000E+00 0. -1.
         11    1    3    3    0    0 -0.64999477866E+01  0.54471535005E+01  0.54380846579E+01  0.10074401595E+02  0.51100000000E-03 0. -1.
        -11    1    3    3    0    0  0.40544218094E+01  0.35759434024E+02  0.76447764244E+01  0.36791548823E+02  0.51100000000E-03 0.  1.
         12    1    3    3    0    0  0.35864907460E+01 -0.40921745703E+02 -0.13182173233E+02  0.43141880793E+02  0.00000000000E+00 0. -1.
</event>
<event>
 7    1  0.2285268E-015  0.9000779E+02  0.7816164E-02  0.1186339E+00
        -11   -1    0    0    0    0  0.00000000000E+00  0.00000000000E+00  0.45593999997E+02  0.45594000000E+02  0.51100000000E-03 0.  1.
         11   -1    0    0    0    0 -0.00000000000E+00 -0.00000000000E+00 -0.45593999997E+02  0.45594000000E+02  0.51100000000E-03 0. -1.
    9900012    2    1    2    0    0  0.11080466200E+01  0.16540037187E+00  0.37116159784E+00  0.90007794286E+02  0.90000056371E+02 0.  0.
         12    1    1    2    0    0 -0.11080466200E+01 -0.16540037187E+00 -0.37116159784E+00  0.11802057138E+01  0.00000000000E+00 0. -1.
         11    1    3    3    0    0 -0.51667293794E+01 -0.81460837759E+01 -0.60659382509E+01  0.11395147234E+02  0.51100000000E-03 0. -1.
        -11    1    3    3    0    0  0.33845635357E+02  0.24088718617E+02 -0.10167384900E+02  0.42768786671E+02  0.51100000000E-03 0.  1.
         12    1    3    3    0    0 -0.27570859357E+02 -0.15777234470E+02  0.16604484749E+02  0.35843860381E+02  0.00000000000E+00 0. -1.
</event>
<event>
 7    1  0.2285268E-015  0.9000770E+02  0.7816164E-02  0.1186339E+00
        -11   -1    0    0    0    0  0.00000000000E+00  0.00000000000E+00  0.45593999997E+02  0.45594000000E+02  0.51100000000E-03 0.  1.
         11   -1    0    0    0    0 -0.00000000000E+00 -0.00000000000E+00 -0.45593999997E+02  0.45594000000E+02  0.51100000000E-03 0. -1.
    9900012    2    1    2    0    0 -0.27236424030E+00  0.11483449364E+01 -0.15514705937E-01  0.90007695345E+02  0.89999956124E+02 0.  0.
         12    1    1    2    0    0  0.27236424030E+00 -0.11483449364E+01  0.15514705937E-01  0.11803046549E+01  0.00000000000E+00 0. -1.
         11    1    3    3    0    0  0.71351129605E+01 -0.33104216406E+02  0.23839324181E+02  0.41413915034E+02  0.51100000000E-03 0. -1.
        -11    1    3    3    0    0  0.27534368023E+01  0.13905455568E+00 -0.10041090398E+02  0.10412696434E+02  0.51100000000E-03 0.  1.
        -12    1    3    3    0    0 -0.10160914003E+02  0.34113506787E+02 -0.13813748489E+02  0.38181083876E+02  0.00000000000E+00 0.  1.
</event>
<event>
 7    1  0.2285268E-015  0.9000773E+02  0.7816164E-02  0.1186339E+00
        -11   -1    0    0    0    0  0.00000000000E+00  0.00000000000E+00  0.45593999997E+02  0.45594000000E+02  0.51100000000E-03 0.  1.
         11   -1    0    0    0    0 -0.00000000000E+00 -0.00000000000E+00 -0.45593999997E+02  0.45594000000E+02  0.51100000000E-03 0. -1.
    9900012    2    1    2    0    0  0.87105201337E+00  0.28789705478E+00  0.74258223470E+00  0.90007726854E+02  0.89999988048E+02 0.  0.
         12    1    1    2    0    0 -0.87105201337E+00 -0.28789705478E+00 -0.74258223470E+00  0.11802731461E+01  0.00000000000E+00 0. -1.
         11    1    3    3    0    0  0.80474147105E+01  0.48382309437E+01  0.36221694720E+01  0.10064267193E+02  0.51100000000E-03 0. -1.
        -11    1    3    3    0    0 -0.16042556685E+02  0.35184705406E+02  0.31042818892E+01  0.38793861445E+02  0.51100000000E-03 0.  1.
         12    1    3    3    0    0  0.88661939875E+01 -0.39735039295E+02 -0.59838691265E+01  0.41149598216E+02  0.00000000000E+00 0. -1.
</event>
<event>
 7    1  0.2285268E-015  0.9000750E+02  0.7816164E-02  0.1186340E+00
        -11   -1    0    0    0    0  0.00000000000E+00  0.00000000000E+00  0.45593999997E+02  0.45594000000E+02  0.51100000000E-03 0.  1.
         11   -1    0    0    0    0 -0.00000000000E+00 -0.00000000000E+00 -0.45593999997E+02  0.45594000000E+02  0.51100000000E-03 0. -1.
    9900012    2    1    2    0    0 -0.25073433775E+00 -0.33896697981E+00  0.11026381224E+01  0.90007501313E+02  0.89999759530E+02 0.  0.
         12    1    1    2    0    0  0.25073433775E+00  0.33896697981E+00 -0.11026381224E+01  0.11804986872E+01  0.00000000000E+00 0. -1.
         11    1    3    3    0    0 -0.20322564396E+01  0.25178849774E+01  0.85385909498E+01  0.91311196830E+01  0.51100000000E-03 0. -1.
        -11    1    3    3    0    0 -0.26299461060E+02  0.26133061403E+02 -0.14670878848E+02  0.39872712934E+02  0.51100000000E-03 0.  1.
         12    1    3    3    0    0  0.28080983162E+02 -0.28989913360E+02  0.72349260201E+01  0.41003668695E+02  0.00000000000E+00 0. -1.
</event>
<event>
 7    1  0.2285268E-015  0.9000865E+02  0.7816164E-02  0.1186337E+00
        -11   -1    0    0    0    0  0.00000000000E+00  0.00000000000E+00  0.45593999997E+02  0.45594000000E+02  0.51100000000E-03 0.  1.
         11   -1    0    0    0    0 -0.00000000000E+00 -0.00000000000E+00 -0.45593999997E+02  0.45594000000E+02  0.51100000000E-03 0. -1.
    9900012    2    1    2    0    0 -0.87642555615E+00  0.77157807894E+00  0.16556574763E+00  0.90008649965E+02  0.90000923340E+02 0.  0.
         12    1    1    2    0    0  0.87642555615E+00 -0.77157807894E+00 -0.16556574763E+00  0.11793500346E+01  0.00000000000E+00 0. -1.
         11    1    3    3    0    0 -0.80073798480E+01  0.85223310757E+01  0.80041538159E+00  0.11721302148E+02  0.51100000000E-03 0. -1.
        -11    1    3    3    0    0 -0.51749915114E+01 -0.39142352218E+01  0.37487409213E+02  0.38044810741E+02  0.51100000000E-03 0.  1.
         12    1    3    3    0    0  0.12305945803E+02 -0.38365177750E+01 -0.38122258847E+02  0.40242537077E+02  0.00000000000E+00 0. -1.
</event>
<event>
 7    1  0.2285268E-015  0.9000684E+02  0.7816164E-02  0.1186341E+00
        -11   -1    0    0    0    0  0.00000000000E+00  0.00000000000E+00  0.45593999997E+02  0.45594000000E+02  0.51100000000E-03 0. -1.
         11   -1    0    0    0    0 -0.00000000000E+00 -0.00000000000E+00 -0.45593999997E+02  0.45594000000E+02  0.51100000000E-03 0.  1.
    9900012    2    1    2    0    0  0.17772730516E+00 -0.11505021744E+01 -0.19976946251E+00  0.90006835284E+02  0.89999084705E+02 0.  0.
         12    1    1    2    0    0 -0.17772730516E+00  0.11505021744E+01  0.19976946251E+00  0.11811647160E+01  0.00000000000E+00 0. -1.
         11    1    3    3    0    0 -0.20689448770E+01  0.69602483428E+01 -0.57494507170E+01  0.92618450487E+01  0.51100000000E-03 0. -1.
        -11    1    3    3    0    0  0.30903664840E+02  0.21886326546E+01 -0.23325178630E+02  0.38780028002E+02  0.51100000000E-03 0.  1.
         12    1    3    3    0    0 -0.28656992658E+02 -0.10299383172E+02  0.28874859884E+02  0.41964962233E+02  0.00000000000E+00 0. -1.
</event>
<event>
 7    1  0.2285268E-015  0.9000773E+02  0.7816164E-02  0.1186339E+00
        -11   -1    0    0    0    0  0.00000000000E+00  0.00000000000E+00  0.45593999997E+02  0.45594000000E+02  0.51100000000E-03 0. -1.
         11   -1    0    0    0    0 -0.00000000000E+00 -0.00000000000E+00 -0.45593999997E+02  0.45594000000E+02  0.51100000000E-03 0.  1.
    9900012    2    1    2    0    0  0.56221817822E+00  0.71205850845E-01 -0.10353149993E+01  0.90007730242E+02  0.89999991482E+02 0.  0.
         12    1    1    2    0    0 -0.56221817822E+00 -0.71205850845E-01  0.10353149993E+01  0.11802697577E+01  0.00000000000E+00 0. -1.
         11    1    3    3    0    0 -0.16898799477E+02 -0.13795076534E+02  0.26126733590E+02  0.34036447651E+02  0.51100000000E-03 0. -1.
        -11    1    3    3    0    0  0.95668945091E+01  0.21939782505E+01  0.11324576175E+02  0.14986161514E+02  0.51100000000E-03 0.  1.
        -12    1    3    3    0    0  0.78941231461E+01  0.11672304134E+02 -0.38486624764E+02  0.40985121078E+02  0.00000000000E+00 0.  1.
</event>
<event>
 7    1  0.2397274E-015  0.9000779E+02  0.7816164E-02  0.1186339E+00
        -11   -1    0    0    0    0  0.00000000000E+00  0.00000000000E+00  0.45593999997E+02  0.45594000000E+02  0.51100000000E-03 0.  1.
         11   -1    0    0    0    0 -0.00000000000E+00 -0.00000000000E+00 -0.45593999997E+02  0.45594000000E+02  0.51100000000E-03 0. -1.
    9900012    2    1    2    0    0 -0.47011118927E+00 -0.10251479500E+01  0.34778472251E+00  0.90007793635E+02  0.90000055711E+02 0.  0.
         12    1    1    2    0    0  0.47011118927E+00  0.10251479500E+01 -0.34778472251E+00  0.11802063645E+01  0.00000000000E+00 0. -1.
         11    1    3    3    0    0  0.89824598557E+01  0.21458463295E+01  0.11409556757E+01  0.93054296862E+01  0.51100000000E-03 0. -1.
        -11    1    3    3    0    0 -0.25923634590E+02 -0.24269261318E+02  0.25080578962E+02  0.43474904447E+02  0.51100000000E-03 0.  1.
         12    1    3    3    0    0  0.16471063545E+02  0.21098267039E+02 -0.25873749915E+02  0.37227459503E+02  0.00000000000E+00 0. -1.
</event>
<event>
 7    1  0.2285268E-015  0.9000761E+02  0.7816164E-02  0.1186339E+00
        -11   -1    0    0    0    0  0.00000000000E+00  0.00000000000E+00  0.45593999997E+02  0.45594000000E+02  0.51100000000E-03 0.  1.
         11   -1    0    0    0    0 -0.00000000000E+00 -0.00000000000E+00 -0.45593999997E+02  0.45594000000E+02  0.51100000000E-03 0. -1.
    9900012    2    1    2    0    0  0.33063141856E+00  0.14820756069E+00  0.11234057273E+01  0.90007608944E+02  0.89999868582E+02 0.  0.
         12    1    1    2    0    0 -0.33063141856E+00 -0.14820756069E+00 -0.11234057273E+01  0.11803910556E+01  0.00000000000E+00 0. -1.
         11    1    3    3    0    0  0.88888708268E+01  0.81510966841E+00 -0.23104739288E+00  0.89291551395E+01  0.51100000000E-03 0. -1.
        -11    1    3    3    0    0  0.23529512516E+02 -0.18091762774E+02  0.23950234485E+02  0.38138741087E+02  0.51100000000E-03 0.  1.
         12    1    3    3    0    0 -0.32087751925E+02  0.17424860667E+02 -0.22595781365E+02  0.42939712718E+02  0.00000000000E+00 0. -1.
</event>
<event>
 7    1  0.2285268E-015  0.9000775E+02  0.7816164E-02  0.1186339E+00
        -11   -1    0    0    0    0  0.00000000000E+00  0.00000000000E+00  0.45593999997E+02  0.45594000000E+02  0.51100000000E-03 0. -1.
         11   -1    0    0    0    0 -0.00000000000E+00 -0.00000000000E+00 -0.45593999997E+02  0.45594000000E+02  0.51100000000E-03 0.  1.
    9900012    2    1    2    0    0  0.52379883254E+00 -0.82983442995E+00 -0.65575203215E+00  0.90007745313E+02  0.90000006751E+02 0.  0.
         12    1    1    2    0    0 -0.52379883254E+00  0.82983442995E+00  0.65575203215E+00  0.11802546868E+01  0.00000000000E+00 0. -1.
         11    1    3    3    0    0  0.35491437056E+02 -0.23338964756E+02 -0.76650911065E+01  0.43163676884E+02  0.51100000000E-03 0. -1.
        -11    1    3    3    0    0 -0.15178756437E+01  0.99858122302E+01  0.44437389044E+01  0.11034817990E+02  0.51100000000E-03 0.  1.
        -12    1    3    3    0    0 -0.33449762580E+02  0.12523318096E+02  0.25656001699E+01  0.35809250439E+02  0.00000000000E+00 0.  1.
</event>
<event>
 7    1  0.2285268E-015  0.9000757E+02  0.7816164E-02  0.1186339E+00
        -11   -1    0    0    0    0  0.00000000000E+00  0.00000000000E+00  0.45593999997E+02  0.45594000000E+02  0.51100000000E-03 0.  1.
         11   -1    0    0    0    0 -0.00000000000E+00 -0.00000000000E+00 -0.45593999997E+02  0.45594000000E+02  0.51100000000E-03 0. -1.
    9900012    2    1    2    0    0 -0.98693022571E+00 -0.39601509718E+00  0.51241168150E+00  0.90007565775E+02  0.89999824843E+02 0.  0.
         12    1    1    2    0    0  0.98693022571E+00  0.39601509718E+00 -0.51241168150E+00  0.11804342247E+01  0.00000000000E+00 0. -1.
         11    1    3    3    0    0  0.21670574291E+02  0.35971896180E+01 -0.30020588734E+02  0.37199318696E+02  0.51100000000E-03 0. -1.
        -11    1    3    3    0    0 -0.42059967881E+01  0.45314565241E+01 -0.74787895207E+01  0.97034426966E+01  0.51100000000E-03 0.  1.
        -12    1    3    3    0    0 -0.18451507729E+02 -0.85246612393E+01  0.38011789936E+02  0.43104804383E+02  0.00000000000E+00 0.  1.
</event>
<event>
 7    1  0.2285268E-015  0.9000779E+02  0.7816164E-02  0.1186339E+00
        -11   -1    0    0    0    0  0.00000000000E+00  0.00000000000E+00  0.45593999997E+02  0.45594000000E+02  0.51100000000E-03 0. -1.
         11   -1    0    0    0    0 -0.00000000000E+00 -0.00000000000E+00 -0.45593999997E+02  0.45594000000E+02  0.51100000000E-03 0.  1.
    9900012    2    1    2    0    0  0.26921103173E+00 -0.48780375421E-01 -0.11480601587E+01  0.90007789751E+02  0.90000051775E+02 0.  0.
         12    1    1    2    0    0 -0.26921103173E+00  0.48780375421E-01  0.11480601587E+01  0.11802102494E+01  0.00000000000E+00 0. -1.
         11    1    3    3    0    0  0.38077239984E+01 -0.69512830610E+01  0.32176950546E+01  0.85541019381E+01  0.51100000000E-03 0. -1.
        -11    1    3    3    0    0  0.37849220548E+02  0.89815219192E+01  0.42366845819E+01  0.39130304478E+02  0.51100000000E-03 0.  1.
         12    1    3    3    0    0 -0.41387733514E+02 -0.20790192336E+01 -0.86024397952E+01  0.42323383334E+02  0.00000000000E+00 0. -1.
</event>
<event>
 7    1  0.2285268E-015  0.9000776E+02  0.7816164E-02  0.1186339E+00
        -11   -1    0    0    0    0  0.00000000000E+00  0.00000000000E+00  0.45593999997E+02  0.45594000000E+02  0.51100000000E-03 0.  1.
         11   -1    0    0    0    0 -0.00000000000E+00 -0.00000000000E+00 -0.45593999997E+02  0.45594000000E+02  0.51100000000E-03 0. -1.
    9900012    2    1    2    0    0 -0.12344626434E+00 -0.10865149024E+01  0.44409137182E+00  0.90007758177E+02  0.90000019785E+02 0.  0.
         12    1    1    2    0    0  0.12344626434E+00  0.10865149024E+01 -0.44409137182E+00  0.11802418226E+01  0.00000000000E+00 0. -1.
         11    1    3    3    0    0  0.45073237786E+01  0.91707119173E+01  0.11499404140E+00  0.10219155964E+02  0.51100000000E-03 0. -1.
        -11    1    3    3    0    0  0.26018137477E+02 -0.92426824051E+01  0.27388746447E+02  0.38891054087E+02  0.51100000000E-03 0.  1.
         12    1    3    3    0    0 -0.30648907520E+02 -0.10145444147E+01 -0.27059649116E+02  0.40897548127E+02  0.00000000000E+00 0. -1.
</event>
<event>
 7    1  0.2285268E-015  0.9000768E+02  0.7816164E-02  0.1186339E+00
        -11   -1    0    0    0    0  0.00000000000E+00  0.00000000000E+00  0.45593999997E+02  0.45594000000E+02  0.51100000000E-03 0. -1.
         11   -1    0    0    0    0 -0.00000000000E+00 -0.00000000000E+00 -0.45593999997E+02  0.45594000000E+02  0.51100000000E-03 0.  1.
    9900012    2    1    2    0    0  0.74030786765E+00  0.43391172301E+00 -0.81044234088E+00  0.90007681437E+02  0.89999942032E+02 0.  0.
         12    1    1    2    0    0 -0.74030786765E+00 -0.43391172301E+00  0.81044234088E+00  0.11803185630E+01  0.00000000000E+00 0. -1.
         11    1    3    3    0    0  0.61667477795E+01  0.15526300457E+02  0.33959906726E+02  0.37846664967E+02  0.51100000000E-03 0. -1.
        -11    1    3    3    0    0 -0.23804336331E+01 -0.17328732343E+02 -0.31011615301E+00  0.17494216221E+02  0.51100000000E-03 0.  1.
        -12    1    3    3    0    0 -0.30460062787E+01  0.22363436095E+01 -0.34460232914E+02  0.34666800248E+02  0.00000000000E+00 0.  1.
</event>
<event>
 7    1  0.2285268E-015  0.9000774E+02  0.7816164E-02  0.1186339E+00
        -11   -1    0    0    0    0  0.00000000000E+00  0.00000000000E+00  0.45593999997E+02  0.45594000000E+02  0.51100000000E-03 0. -1.
         11   -1    0    0    0    0 -0.00000000000E+00 -0.00000000000E+00 -0.45593999997E+02  0.45594000000E+02  0.51100000000E-03 0.  1.
    9900012    2    1    2    0    0 -0.57530127208E+00 -0.42473481540E+00 -0.93895680537E+00  0.90007741088E+02  0.90000002470E+02 0.  0.
         12    1    1    2    0    0  0.57530127208E+00  0.42473481540E+00  0.93895680537E+00  0.11802589120E+01  0.00000000000E+00 0. -1.
         11    1    3    3    0    0 -0.28121720338E+01 -0.31473523742E+01 -0.80113521357E+01  0.90551588511E+01  0.51100000000E-03 0. -1.
        -11    1    3    3    0    0 -0.31239022460E+02 -0.18948325135E+02  0.16320832722E+02  0.40016060909E+02  0.51100000000E-03 0.  1.
         12    1    3    3    0    0  0.33475893222E+02  0.21670942694E+02 -0.92484373916E+01  0.40936521328E+02  0.00000000000E+00 0. -1.
</event>
<event>
 7    1  0.2285268E-015  0.9000776E+02  0.7816164E-02  0.1186339E+00
        -11   -1    0    0    0    0  0.00000000000E+00  0.00000000000E+00  0.45593999997E+02  0.45594000000E+02  0.51100000000E-03 0.  1.
         11   -1    0    0    0    0 -0.00000000000E+00 -0.00000000000E+00 -0.45593999997E+02  0.45594000000E+02  0.51100000000E-03 0. -1.
    9900012    2    1    2    0    0 -0.74861272564E+00 -0.88145675355E+00  0.23575033895E+00  0.90007760514E+02  0.90000022153E+02 0.  0.
         12    1    1    2    0    0  0.74861272564E+00  0.88145675355E+00 -0.23575033895E+00  0.11802394857E+01  0.00000000000E+00 0. -1.
         11    1    3    3    0    0  0.56240154398E+01 -0.66600814912E+01 -0.30337527616E+01  0.92298370092E+01  0.51100000000E-03 0. -1.
        -11    1    3    3    0    0 -0.49615251554E+01 -0.18310037850E+02  0.35657262797E+02  0.40389535877E+02  0.51100000000E-03 0.  1.
         12    1    3    3    0    0 -0.14111030101E+01  0.24088662588E+02 -0.32387759697E+02  0.40388387628E+02  0.00000000000E+00 0. -1.
</event>
<event>
 7    1  0.2285268E-015  0.9000792E+02  0.7816164E-02  0.1186339E+00
        -11   -1    0    0    0    0  0.00000000000E+00  0.00000000000E+00  0.45593999997E+02  0.45594000000E+02  0.51100000000E-03 0.  1.
         11   -1    0    0    0    0 -0.00000000000E+00 -0.00000000000E+00 -0.45593999997E+02  0.45594000000E+02  0.51100000000E-03 0. -1.
    9900012    2    1    2    0    0  0.80229718531E-01 -0.80365724190E+00  0.86039476318E+00  0.90007923342E+02  0.90000187130E+02 0.  0.
         12    1    1    2    0    0 -0.80229718531E-01  0.80365724190E+00 -0.86039476318E+00  0.11800766580E+01  0.00000000000E+00 0. -1.
         11    1    3    3    0    0  0.56360047239E+01 -0.66368161047E+01 -0.82169805742E+01  0.11972077818E+02  0.51100000000E-03 0. -1.
        -11    1    3    3    0    0  0.27178935525E+02 -0.20321577884E+02  0.12094978556E+02  0.36027067192E+02  0.51100000000E-03 0.  1.
         12    1    3    3    0    0 -0.32734710530E+02  0.26154736747E+02 -0.30176032188E+01  0.42008778332E+02  0.00000000000E+00 0. -1.
</event>
<event>
 7    1  0.2285268E-015  0.9000775E+02  0.7816164E-02  0.1186339E+00
        -11   -1    0    0    0    0  0.00000000000E+00  0.00000000000E+00  0.45593999997E+02  0.45594000000E+02  0.51100000000E-03 0. -1.
         11   -1    0    0    0    0 -0.00000000000E+00 -0.00000000000E+00 -0.45593999997E+02  0.45594000000E+02  0.51100000000E-03 0.  1.
    9900012    2    1    2    0    0  0.29809521491E+00 -0.91903426903E-01 -0.11382846783E+01  0.90007746211E+02  0.90000007661E+02 0.  0.
         12    1    1    2    0    0 -0.29809521491E+00  0.91903426903E-01  0.11382846783E+01  0.11802537888E+01  0.00000000000E+00 0. -1.
         11    1    3    3    0    0  0.50706937296E+01  0.10375040719E+01  0.37078405784E+02  0.37437902257E+02  0.51100000000E-03 0. -1.
        -11    1    3    3    0    0  0.14429555427E+01  0.48443616755E+00  0.68656964180E+01  0.70323955139E+01  0.51100000000E-03 0.  1.
        -12    1    3    3    0    0 -0.62155540574E+01 -0.16138436663E+01 -0.45082386881E+02  0.45537448441E+02  0.00000000000E+00 0.  1.
</event>
<event>
 7    1  0.2285268E-015  0.9000770E+02  0.7816164E-02  0.1186339E+00
        -11   -1    0    0    0    0  0.00000000000E+00  0.00000000000E+00  0.45593999997E+02  0.45594000000E+02  0.51100000000E-03 0. -1.
         11   -1    0    0    0    0 -0.00000000000E+00 -0.00000000000E+00 -0.45593999997E+02  0.45594000000E+02  0.51100000000E-03 0.  1.
    9900012    2    1    2    0    0 -0.41617286723E+00 -0.28074489131E+00 -0.10682143311E+01  0.90007703679E+02  0.89999964567E+02 0.  0.
         12    1    1    2    0    0  0.41617286723E+00  0.28074489131E+00  0.10682143311E+01  0.11802963215E+01  0.00000000000E+00 0. -1.
         11    1    3    3    0    0  0.23130175818E+02 -0.20935596445E+02 -0.15087256170E+02  0.34654430176E+02  0.51100000000E-03 0. -1.
        -11    1    3    3    0    0  0.71020149960E+01 -0.36383081271E+01 -0.72967840402E+01  0.10812907131E+02  0.51100000000E-03 0.  1.
        -12    1    3    3    0    0 -0.30648363681E+02  0.24293159681E+02  0.21315825879E+02  0.44540366371E+02  0.00000000000E+00 0.  1.
</event>
<event>
 7    1  0.2285268E-015  0.9000774E+02  0.7816164E-02  0.1186339E+00
        -11   -1    0    0    0    0  0.00000000000E+00  0.00000000000E+00  0.45593999997E+02  0.45594000000E+02  0.51100000000E-03 0.  1.
         11   -1    0    0    0    0 -0.00000000000E+00 -0.00000000000E+00 -0.45593999997E+02  0.45594000000E+02  0.51100000000E-03 0. -1.
    9900012    2    1    2    0    0  0.11273576097E+01  0.14310404315E+00  0.31873227504E+00  0.90007744006E+02  0.90000005427E+02 0.  0.
         12    1    1    2    0    0 -0.11273576097E+01 -0.14310404315E+00 -0.31873227504E+00  0.11802559936E+01  0.00000000000E+00 0. -1.
         11    1    3    3    0    0  0.17370792970E+02  0.17152135381E+02 -0.32907502641E+02  0.40973697989E+02  0.51100000000E-03 0. -1.
        -11    1    3    3    0    0 -0.44037478255E+01 -0.23158232967E+01 -0.45912646182E+01  0.67702100047E+01  0.51100000000E-03 0.  1.
        -12    1    3    3    0    0 -0.11839687535E+02 -0.14693208041E+02  0.37817499535E+02  0.42263836013E+02  0.00000000000E+00 0.  1.
</event>
<event>
 7    1  0.2285268E-015  0.9000905E+02  0.7816164E-02  0.1186336E+00
        -11   -1    0    0    0    0  0.00000000000E+00  0.00000000000E+00  0.45593999997E+02  0.45594000000E+02  0.51100000000E-03 0.  1.
         11   -1    0    0    0    0 -0.00000000000E+00 -0.00000000000E+00 -0.45593999997E+02  0.45594000000E+02  0.51100000000E-03 0. -1.
    9900012    2    1    2    0    0  0.69175522348E+00 -0.94445208588E+00  0.13935347901E+00  0.90009045199E+02  0.90001323785E+02 0.  0.
         12    1    1    2    0    0 -0.69175522348E+00  0.94445208588E+00 -0.13935347901E+00  0.11789548014E+01  0.00000000000E+00 0. -1.
         11    1    3    3    0    0  0.35446951790E+01 -0.68665248202E+01 -0.52847305953E+01  0.93617522262E+01  0.51100000000E-03 0. -1.
        -11    1    3    3    0    0  0.70946206618E+01 -0.28538844642E+02  0.26037581618E+02  0.39277919402E+02  0.51100000000E-03 0.  1.
         12    1    3    3    0    0 -0.99475606173E+01  0.34460917376E+02 -0.20613497543E+02  0.41369373570E+02  0.00000000000E+00 0. -1.
</event>
<event>
 7    1  0.2285268E-015  0.9000782E+02  0.7816164E-02  0.1186339E+00
        -11   -1    0    0    0    0  0.00000000000E+00  0.00000000000E+00  0.45593999997E+02  0.45594000000E+02  0.51100000000E-03 0. -1.
         11   -1    0    0    0    0 -0.00000000000E+00 -0.00000000000E+00 -0.45593999997E+02  0.45594000000E+02  0.51100000000E-03 0.  1.
    9900012    2    1    2    0    0 -0.10790419614E+01 -0.24468505496E+00 -0.41063748605E+00  0.90007819728E+02  0.90000082148E+02 0.  0.
         12    1    1    2    0    0  0.10790419614E+01  0.24468505496E+00  0.41063748605E+00  0.11801802725E+01  0.00000000000E+00 0. -1.
         11    1    3    3    0    0  0.30858268763E+00  0.28643585660E+00  0.36283378241E+02  0.36285821000E+02  0.51100000000E-03 0. -1.
        -11    1    3    3    0    0 -0.25204870063E+01  0.30718769462E+01  0.79662719593E+01  0.89022902622E+01  0.51100000000E-03 0.  1.
        -12    1    3    3    0    0  0.11328623573E+01 -0.36029978578E+01 -0.44660287687E+02  0.44819708466E+02  0.00000000000E+00 0.  1.
</event>
<event>
 7    1  0.2285268E-015  0.9000756E+02  0.7816164E-02  0.1186339E+00
        -11   -1    0    0    0    0  0.00000000000E+00  0.00000000000E+00  0.45593999997E+02  0.45594000000E+02  0.51100000000E-03 0.  1.
         11   -1    0    0    0    0 -0.00000000000E+00 -0.00000000000E+00 -0.45593999997E+02  0.45594000000E+02  0.51100000000E-03 0. -1.
    9900012    2    1    2    0    0 -0.10347323944E+01 -0.92308164476E-01  0.56057782256E+00  0.90007559650E+02  0.89999818637E+02 0.  0.
         12    1    1    2    0    0  0.10347323944E+01  0.92308164476E-01 -0.56057782256E+00  0.11804403502E+01  0.00000000000E+00 0. -1.
         11    1    3    3    0    0  0.12965658742E+02 -0.35576720178E+02 -0.91318146247E+01  0.38951269092E+02  0.51100000000E-03 0. -1.
        -11    1    3    3    0    0 -0.10067882885E+01  0.21430458379E+01 -0.99555435005E+01  0.10233235792E+02  0.51100000000E-03 0.  1.
        -12    1    3    3    0    0 -0.12993602848E+02  0.33341366176E+02  0.19647935948E+02  0.40823054766E+02  0.00000000000E+00 0.  1.
</event>
<event>
 7    1  0.2285268E-015  0.9000780E+02  0.7816164E-02  0.1186339E+00
        -11   -1    0    0    0    0  0.00000000000E+00  0.00000000000E+00  0.45593999997E+02  0.45594000000E+02  0.51100000000E-03 0.  1.
         11   -1    0    0    0    0 -0.00000000000E+00 -0.00000000000E+00 -0.45593999997E+02  0.45594000000E+02  0.51100000000E-03 0. -1.
    9900012    2    1    2    0    0  0.77241420981E+00 -0.40913406697E+00  0.79300960807E+00  0.90007797206E+02  0.90000059329E+02 0.  0.
         12    1    1    2    0    0 -0.77241420981E+00  0.40913406697E+00 -0.79300960807E+00  0.11802027939E+01  0.00000000000E+00 0. -1.
         11    1    3    3    0    0  0.36402383291E+02  0.73979893081E+01 -0.10526628901E+02  0.38609243341E+02  0.51100000000E-03 0. -1.
        -11    1    3    3    0    0  0.39794036837E+01 -0.93813617948E+01  0.63096139311E-01  0.10190661617E+02  0.51100000000E-03 0.  1.
        -12    1    3    3    0    0 -0.39609372765E+02  0.15742384198E+01  0.11256542370E+02  0.41207892248E+02  0.00000000000E+00 0.  1.
</event>
<event>
 7    1  0.2285268E-015  0.9000770E+02  0.7816164E-02  0.1186339E+00
        -11   -1    0    0    0    0  0.00000000000E+00  0.00000000000E+00  0.45593999997E+02  0.45594000000E+02  0.51100000000E-03 0.  1.
         11   -1    0    0    0    0 -0.00000000000E+00 -0.00000000000E+00 -0.45593999997E+02  0.45594000000E+02  0.51100000000E-03 0. -1.
    9900012    2    1    2    0    0 -0.15343327435E+00  0.73193495958E+00  0.91314590491E+00  0.90007700886E+02  0.89999961738E+02 0.  0.
         12    1    1    2    0    0  0.15343327435E+00 -0.73193495958E+00 -0.91314590491E+00  0.11802991139E+01  0.00000000000E+00 0. -1.
         11    1    3    3    0    0 -0.42342416464E+01 -0.71052428923E+01  0.12525757388E+02  0.15010259068E+02  0.51100000000E-03 0. -1.
        -11    1    3    3    0    0  0.30332803606E+02  0.22548246197E+02  0.85805748213E+01  0.38757304418E+02  0.51100000000E-03 0.  1.
         12    1    3    3    0    0 -0.26251995234E+02 -0.14711068345E+02 -0.20193186305E+02  0.36240137400E+02  0.00000000000E+00 0. -1.
</event>
<event>
 7    1  0.2285268E-015  0.9000769E+02  0.7816164E-02  0.1186339E+00
        -11   -1    0    0    0    0  0.00000000000E+00  0.00000000000E+00  0.45593999997E+02  0.45594000000E+02  0.51100000000E-03 0. -1.
         11   -1    0    0    0    0 -0.00000000000E+00 -0.00000000000E+00 -0.45593999997E+02  0.45594000000E+02  0.51100000000E-03 0.  1.
    9900012    2    1    2    0    0  0.73067688541E+00 -0.30139981918E+00 -0.87658508506E+00  0.90007689883E+02  0.89999950589E+02 0.  0.
         12    1    1    2    0    0 -0.73067688541E+00  0.30139981918E+00  0.87658508506E+00  0.11803101174E+01  0.00000000000E+00 0. -1.
         11    1    3    3    0    0 -0.29334816384E+02 -0.21685404997E+02  0.14359972784E+02  0.39204554082E+02  0.51100000000E-03 0. -1.
        -11    1    3    3    0    0  0.11465419587E+01 -0.70207041154E+01 -0.58126869506E+01  0.91865213539E+01  0.51100000000E-03 0.  1.
        -12    1    3    3    0    0  0.28918951310E+02  0.28404709293E+02 -0.94238709189E+01  0.41616614447E+02  0.00000000000E+00 0.  1.
</event>
<event>
 7    1  0.2285268E-015  0.9000771E+02  0.7816164E-02  0.1186339E+00
        -11   -1    0    0    0    0  0.00000000000E+00  0.00000000000E+00  0.45593999997E+02  0.45594000000E+02  0.51100000000E-03 0. -1.
         11   -1    0    0    0    0 -0.00000000000E+00 -0.00000000000E+00 -0.45593999997E+02  0.45594000000E+02  0.51100000000E-03 0.  1.
    9900012    2    1    2    0    0 -0.31012987605E+00  0.62114652587E+00 -0.95450221493E+00  0.90007712736E+02  0.89999973744E+02 0.  0.
         12    1    1    2    0    0  0.31012987605E+00 -0.62114652587E+00  0.95450221493E+00  0.11802872637E+01  0.00000000000E+00 0. -1.
         11    1    3    3    0    0  0.27651788409E+02  0.16021702310E+02 -0.17199302797E+02  0.36292318252E+02  0.51100000000E-03 0. -1.
        -11    1    3    3    0    0  0.62073496595E+01  0.50490702403E+01 -0.41080139203E+01  0.89944471046E+01  0.51100000000E-03 0.  1.
        -12    1    3    3    0    0 -0.34169267944E+02 -0.20449626024E+02  0.20352814503E+02  0.44720947380E+02  0.00000000000E+00 0.  1.
</event>
<event>
 7    1  0.2285268E-015  0.9000772E+02  0.7816164E-02  0.1186339E+00
        -11   -1    0    0    0    0  0.00000000000E+00  0.00000000000E+00  0.45593999997E+02  0.45594000000E+02  0.51100000000E-03 0. -1.
         11   -1    0    0    0    0 -0.00000000000E+00 -0.00000000000E+00 -0.45593999997E+02  0.45594000000E+02  0.51100000000E-03 0.  1.
    9900012    2    1    2    0    0 -0.58354115075E+00 -0.28787391175E-02 -0.10259328013E+01  0.90007717545E+02  0.89999978616E+02 0.  0.
         12    1    1    2    0    0  0.58354115075E+00  0.28787391175E-02  0.10259328013E+01  0.11802824554E+01  0.00000000000E+00 0. -1.
         11    1    3    3    0    0  0.17726472320E+02  0.39147257655E+01  0.32352913814E+02  0.37098031366E+02  0.51100000000E-03 0. -1.
        -11    1    3    3    0    0  0.26604864142E+01  0.48943119155E+01  0.55237546025E+01  0.78450202203E+01  0.51100000000E-03 0.  1.
        -12    1    3    3    0    0 -0.20970499885E+02 -0.88119164201E+01 -0.38902601218E+02  0.45064665958E+02  0.00000000000E+00 0.  1.
</event>
<event>
 7    1  0.2285268E-015  0.9000774E+02  0.7816164E-02  0.1186339E+00
        -11   -1    0    0    0    0  0.00000000000E+00  0.00000000000E+00  0.45593999997E+02  0.45594000000E+02  0.51100000000E-03 0.  1.
         11   -1    0    0    0    0 -0.00000000000E+00 -0.00000000000E+00 -0.45593999997E+02  0.45594000000E+02  0.51100000000E-03 0. -1.
    9900012    2    1    2    0    0 -0.43069501188E+00  0.48649811133E+00  0.98530458465E+00  0.90007744210E+02  0.90000005633E+02 0.  0.
         12    1    1    2    0    0  0.43069501188E+00 -0.48649811133E+00 -0.98530458465E+00  0.11802557901E+01  0.00000000000E+00 0. -1.
         11    1    3    3    0    0 -0.10007887794E+02 -0.29078279736E+00 -0.94267239291E+00  0.10056391214E+02  0.51100000000E-03 0. -1.
        -11    1    3    3    0    0 -0.29034858004E+02  0.89973225799E+01  0.20152393222E+02  0.36470450309E+02  0.51100000000E-03 0.  1.
         12    1    3    3    0    0  0.38612050787E+02 -0.82200416712E+01 -0.18224416245E+02  0.43480902687E+02  0.00000000000E+00 0. -1.
</event>
<event>
 7    1  0.2285268E-015  0.9000775E+02  0.7816164E-02  0.1186339E+00
        -11   -1    0    0    0    0  0.00000000000E+00  0.00000000000E+00  0.45593999997E+02  0.45594000000E+02  0.51100000000E-03 0.  1.
         11   -1    0    0    0    0 -0.00000000000E+00 -0.00000000000E+00 -0.45593999997E+02  0.45594000000E+02  0.51100000000E-03 0. -1.
    9900012    2    1    2    0    0 -0.11320170890E+01  0.29342820731E+00  0.15949455983E+00  0.90007745232E+02  0.90000006669E+02 0.  0.
         12    1    1    2    0    0  0.11320170890E+01 -0.29342820731E+00 -0.15949455983E+00  0.11802547680E+01  0.00000000000E+00 0. -1.
         11    1    3    3    0    0 -0.22368460534E+02 -0.33777766295E+02 -0.10081675646E+02  0.41748361724E+02  0.51100000000E-03 0. -1.
        -11    1    3    3    0    0  0.59536639812E+01  0.15025110324E+01 -0.61808019653E+01  0.87124030783E+01  0.51100000000E-03 0.  1.
        -12    1    3    3    0    0  0.15282779464E+02  0.32568683470E+02  0.16421972172E+02  0.39546980430E+02  0.00000000000E+00 0.  1.
</event>
<event>
 7    1  0.2285268E-015  0.9000763E+02  0.7816164E-02  0.1186339E+00
        -11   -1    0    0    0    0  0.00000000000E+00  0.00000000000E+00  0.45593999997E+02  0.45594000000E+02  0.51100000000E-03 0.  1.
         11   -1    0    0    0    0 -0.00000000000E+00 -0.00000000000E+00 -0.45593999997E+02  0.45594000000E+02  0.51100000000E-03 0. -1.
    9900012    2    1    2    0    0 -0.28788294589E+00  0.52417095752E+00  0.10176617631E+01  0.90007632580E+02  0.89999892529E+02 0.  0.
         12    1    1    2    0    0  0.28788294589E+00 -0.52417095752E+00 -0.10176617631E+01  0.11803674205E+01  0.00000000000E+00 0. -1.
         11    1    3    3    0    0  0.17921992257E+01  0.90214648824E+01  0.11375966856E+01  0.92678440411E+01  0.51100000000E-03 0. -1.
        -11    1    3    3    0    0  0.37043755982E+02  0.86176784719E+01  0.30055311295E+00  0.38034123783E+02  0.51100000000E-03 0.  1.
         12    1    3    3    0    0 -0.39123838154E+02 -0.17114972397E+02 -0.42048803541E+00  0.42705664755E+02  0.00000000000E+00 0. -1.
</event>
<event>
 7    1  0.2285268E-015  0.9000773E+02  0.7816164E-02  0.1186339E+00
        -11   -1    0    0    0    0  0.00000000000E+00  0.00000000000E+00  0.45593999997E+02  0.45594000000E+02  0.51100000000E-03 0.  1.
         11   -1    0    0    0    0 -0.00000000000E+00 -0.00000000000E+00 -0.45593999997E+02  0.45594000000E+02  0.51100000000E-03 0. -1.
    9900012    2    1    2    0    0  0.96708613094E+00  0.62762105050E+00  0.25274053362E+00  0.90007728190E+02  0.89999989402E+02 0.  0.
         12    1    1    2    0    0 -0.96708613094E+00 -0.62762105050E+00 -0.25274053362E+00  0.11802718098E+01  0.00000000000E+00 0. -1.
         11    1    3    3    0    0 -0.76884527789E+01 -0.36882320497E+01  0.29366670829E+01  0.90188344925E+01  0.51100000000E-03 0. -1.
        -11    1    3    3    0    0  0.38272418728E+02 -0.48564086263E+01  0.19147144967E+02  0.43069431163E+02  0.51100000000E-03 0.  1.
         12    1    3    3    0    0 -0.29616879819E+02  0.91722617265E+01 -0.21831071516E+02  0.37919462535E+02  0.00000000000E+00 0. -1.
</event>
<event>
 7    1  0.2285268E-015  0.9000783E+02  0.7816164E-02  0.1186339E+00
        -11   -1    0    0    0    0  0.00000000000E+00  0.00000000000E+00  0.45593999997E+02  0.45594000000E+02  0.51100000000E-03 0. -1.
         11   -1    0    0    0    0 -0.00000000000E+00 -0.00000000000E+00 -0.45593999997E+02  0.45594000000E+02  0.51100000000E-03 0.  1.
    9900012    2    1    2    0    0  0.48235008484E+00  0.13774228371E+00 -0.10682559428E+01  0.90007828275E+02  0.90000090808E+02 0.  0.
         12    1    1    2    0    0 -0.48235008484E+00 -0.13774228371E+00  0.10682559428E+01  0.11801717250E+01  0.00000000000E+00 0. -1.
         11    1    3    3    0    0  0.14664222572E+02 -0.28516880310E+02 -0.51986048971E+01  0.32485033160E+02  0.51100000000E-03 0. -1.
        -11    1    3    3    0    0  0.15144473760E+02  0.47698236587E+01  0.10682959487E+02  0.19137187015E+02  0.51100000000E-03 0.  1.
        -12    1    3    3    0    0 -0.29326346247E+02  0.23884798935E+02 -0.65526105323E+01  0.38385608100E+02  0.00000000000E+00 0.  1.
</event>
<event>
 7    1  0.3714083E-015  0.9000766E+02  0.7816164E-02  0.1186339E+00
        -11   -1    0    0    0    0  0.00000000000E+00  0.00000000000E+00  0.45593999997E+02  0.45594000000E+02  0.51100000000E-03 0.  1.
         11   -1    0    0    0    0 -0.00000000000E+00 -0.00000000000E+00 -0.45593999997E+02  0.45594000000E+02  0.51100000000E-03 0. -1.
    9900012    2    1    2    0    0 -0.13715345413E+00  0.11722126226E+01  0.17578879299E-01  0.90007659998E+02  0.89999920310E+02 0.  0.
         12    1    1    2    0    0  0.13715345413E+00 -0.11722126226E+01 -0.17578879299E-01  0.11803400017E+01  0.00000000000E+00 0. -1.
         11    1    3    3    0    0 -0.71675305699E+00 -0.64530222947E+01  0.63233572760E+01  0.90631164167E+01  0.51100000000E-03 0. -1.
        -11    1    3    3    0    0 -0.10609926121E+02 -0.93399705579E+01  0.33439723535E+02  0.36304554709E+02  0.51100000000E-03 0.  1.
         12    1    3    3    0    0  0.11189525724E+02  0.16965205475E+02 -0.39745501931E+02  0.44639988872E+02  0.00000000000E+00 0. -1.
</event>
<event>
 7    1  0.2285268E-015  0.9000766E+02  0.7816164E-02  0.1186339E+00
        -11   -1    0    0    0    0  0.00000000000E+00  0.00000000000E+00  0.45593999997E+02  0.45594000000E+02  0.51100000000E-03 0.  1.
         11   -1    0    0    0    0 -0.00000000000E+00 -0.00000000000E+00 -0.45593999997E+02  0.45594000000E+02  0.51100000000E-03 0. -1.
    9900012    2    1    2    0    0 -0.96326195917E+00 -0.25981240358E+00  0.63074153605E+00  0.90007656418E+02  0.89999916682E+02 0.  0.
         12    1    1    2    0    0  0.96326195917E+00  0.25981240358E+00 -0.63074153605E+00  0.11803435823E+01  0.00000000000E+00 0. -1.
         11    1    3    3    0    0 -0.14107600148E+01  0.30031510154E+02 -0.27937197921E+02  0.41041063265E+02  0.51100000000E-03 0. -1.
        -11    1    3    3    0    0  0.22080932371E+01  0.34475640094E+01  0.90892749702E+01  0.99687658758E+01  0.51100000000E-03 0.  1.
        -12    1    3    3    0    0 -0.17605951815E+01 -0.33738886567E+02  0.19478664487E+02  0.38997827277E+02  0.00000000000E+00 0.  1.
</event>
<event>
 7    1  0.2285268E-015  0.9000678E+02  0.7816164E-02  0.1186341E+00
        -11   -1    0    0    0    0  0.00000000000E+00  0.00000000000E+00  0.45593999997E+02  0.45594000000E+02  0.51100000000E-03 0. -1.
         11   -1    0    0    0    0 -0.00000000000E+00 -0.00000000000E+00 -0.45593999997E+02  0.45594000000E+02  0.51100000000E-03 0.  1.
    9900012    2    1    2    0    0  0.82319298927E+00 -0.82327192595E+00  0.19962386531E+00  0.90006783234E+02  0.89999031967E+02 0.  0.
         12    1    1    2    0    0 -0.82319298927E+00  0.82327192595E+00 -0.19962386531E+00  0.11812167664E+01  0.00000000000E+00 0. -1.
         11    1    3    3    0    0 -0.34486871393E+02 -0.93811606391E+01 -0.16439093286E+02  0.39339474599E+02  0.51100000000E-03 0. -1.
        -11    1    3    3    0    0  0.19675006784E+01  0.83127083361E+01 -0.59345151709E+01  0.10401473423E+02  0.51100000000E-03 0.  1.
        -12    1    3    3    0    0  0.33342563704E+02  0.24518037704E+00  0.22573232322E+02  0.40265835211E+02  0.00000000000E+00 0.  1.
</event>
<event>
 7    1  0.2285268E-015  0.9000772E+02  0.7816164E-02  0.1186339E+00
        -11   -1    0    0    0    0  0.00000000000E+00  0.00000000000E+00  0.45593999997E+02  0.45594000000E+02  0.51100000000E-03 0.  1.
         11   -1    0    0    0    0 -0.00000000000E+00 -0.00000000000E+00 -0.45593999997E+02  0.45594000000E+02  0.51100000000E-03 0. -1.
    9900012    2    1    2    0    0  0.10692968256E+01 -0.51098251586E-03  0.49966387639E+00  0.90007720393E+02  0.89999981502E+02 0.  0.
         12    1    1    2    0    0 -0.10692968256E+01  0.51098251587E-03 -0.49966387639E+00  0.11802796074E+01  0.00000000000E+00 0. -1.
         11    1    3    3    0    0  0.15288384052E+02 -0.24786968441E+02  0.20054670643E+02  0.35359840303E+02  0.51100000000E-03 0. -1.
        -11    1    3    3    0    0 -0.10091400825E+01 -0.11330371540E+02  0.27686939780E+00  0.11378591296E+02  0.51100000000E-03 0.  1.
        -12    1    3    3    0    0 -0.13209947144E+02  0.36116828999E+02 -0.19831876164E+02  0.43269288793E+02  0.00000000000E+00 0.  1.
</event>
<event>
 7    1  0.2285268E-015  0.9000778E+02  0.7816164E-02  0.1186339E+00
        -11   -1    0    0    0    0  0.00000000000E+00  0.00000000000E+00  0.45593999997E+02  0.45594000000E+02  0.51100000000E-03 0. -1.
         11   -1    0    0    0    0 -0.00000000000E+00 -0.00000000000E+00 -0.45593999997E+02  0.45594000000E+02  0.51100000000E-03 0.  1.
    9900012    2    1    2    0    0  0.26028061406E+00 -0.52856416927E+00 -0.10226415563E+01  0.90007778906E+02  0.90000040787E+02 0.  0.
         12    1    1    2    0    0 -0.26028061406E+00  0.52856416927E+00  0.10226415563E+01  0.11802210944E+01  0.00000000000E+00 0. -1.
         11    1    3    3    0    0  0.75042995465E+01 -0.47988176619E+01  0.22032802506E+00  0.89102024296E+01  0.51100000000E-03 0. -1.
        -11    1    3    3    0    0  0.35916598132E+02 -0.83014408888E+00  0.76609715671E+01  0.36733930449E+02  0.51100000000E-03 0.  1.
         12    1    3    3    0    0 -0.43160617064E+02  0.51003975815E+01 -0.89039411485E+01  0.44363646027E+02  0.00000000000E+00 0. -1.
</event>
<event>
 7    1  0.2285268E-015  0.9000775E+02  0.7816164E-02  0.1186339E+00
        -11   -1    0    0    0    0  0.00000000000E+00  0.00000000000E+00  0.45593999997E+02  0.45594000000E+02  0.51100000000E-03 0.  1.
         11   -1    0    0    0    0 -0.00000000000E+00 -0.00000000000E+00 -0.45593999997E+02  0.45594000000E+02  0.51100000000E-03 0. -1.
    9900012    2    1    2    0    0 -0.37564611128E+00  0.36611081250E+00  0.10572824549E+01  0.90007748621E+02  0.90000010103E+02 0.  0.
         12    1    1    2    0    0  0.37564611128E+00 -0.36611081250E+00 -0.10572824549E+01  0.11802513789E+01  0.00000000000E+00 0. -1.
         11    1    3    3    0    0 -0.45629545031E+01 -0.14817048771E+01 -0.64526180516E+01  0.80406643458E+01  0.51100000000E-03 0. -1.
        -11    1    3    3    0    0 -0.16595195046E+02 -0.34616810673E+02  0.10764843587E+02  0.39869862522E+02  0.51100000000E-03 0.  1.
         12    1    3    3    0    0  0.20782503438E+02  0.36464626363E+02 -0.32549430802E+01  0.42097221754E+02  0.00000000000E+00 0. -1.
</event>
<event>
 7    1  0.2285268E-015  0.9000773E+02  0.7816164E-02  0.1186339E+00
        -11   -1    0    0    0    0  0.00000000000E+00  0.00000000000E+00  0.45593999997E+02  0.45594000000E+02  0.51100000000E-03 0.  1.
         11   -1    0    0    0    0 -0.00000000000E+00 -0.00000000000E+00 -0.45593999997E+02  0.45594000000E+02  0.51100000000E-03 0. -1.
    9900012    2    1    2    0    0  0.11469669081E+00 -0.60085768800E+00  0.10093774695E+01  0.90007733857E+02  0.89999995144E+02 0.  0.
         12    1    1    2    0    0 -0.11469669081E+00  0.60085768800E+00 -0.10093774695E+01  0.11802661429E+01  0.00000000000E+00 0. -1.
         11    1    3    3    0    0  0.11910082844E+02 -0.13760136384E+01  0.44007742440E+01  0.12771464328E+02  0.51100000000E-03 0. -1.
        -11    1    3    3    0    0  0.26546957767E+02 -0.12411228008E+02  0.14760172887E+02  0.32812227161E+02  0.51100000000E-03 0.  1.
         12    1    3    3    0    0 -0.38342343920E+02  0.13186383958E+02 -0.18151569661E+02  0.44424042368E+02  0.00000000000E+00 0. -1.
</event>
<event>
 7    1  0.2285268E-015  0.9000767E+02  0.7816164E-02  0.1186339E+00
        -11   -1    0    0    0    0  0.00000000000E+00  0.00000000000E+00  0.45593999997E+02  0.45594000000E+02  0.51100000000E-03 0.  1.
         11   -1    0    0    0    0 -0.00000000000E+00 -0.00000000000E+00 -0.45593999997E+02  0.45594000000E+02  0.51100000000E-03 0. -1.
    9900012    2    1    2    0    0  0.57554936386E+00 -0.10991646955E+00  0.10246187355E+01  0.90007668583E+02  0.89999929008E+02 0.  0.
         12    1    1    2    0    0 -0.57554936386E+00  0.10991646955E+00 -0.10246187355E+01  0.11803314169E+01  0.00000000000E+00 0. -1.
         11    1    3    3    0    0 -0.42039806535E+01  0.89836964578E+01  0.66346797000E+01  0.11933114864E+02  0.51100000000E-03 0. -1.
        -11    1    3    3    0    0 -0.47823710690E+00  0.25389292094E+02  0.21992138006E+02  0.33593139152E+02  0.51100000000E-03 0.  1.
         12    1    3    3    0    0  0.52577671243E+01 -0.34482905022E+02 -0.27602198970E+02  0.44481414567E+02  0.00000000000E+00 0. -1.
</event>
<event>
 7    1  0.2285268E-015  0.9000779E+02  0.7816164E-02  0.1186339E+00
        -11   -1    0    0    0    0  0.00000000000E+00  0.00000000000E+00  0.45593999997E+02  0.45594000000E+02  0.51100000000E-03 0. -1.
         11   -1    0    0    0    0 -0.00000000000E+00 -0.00000000000E+00 -0.45593999997E+02  0.45594000000E+02  0.51100000000E-03 0.  1.
    9900012    2    1    2    0    0 -0.60667702361E+00  0.11555115355E+00 -0.10057258154E+01  0.90007790910E+02  0.90000052950E+02 0.  0.
         12    1    1    2    0    0  0.60667702361E+00 -0.11555115355E+00  0.10057258154E+01  0.11802090899E+01  0.00000000000E+00 0. -1.
         11    1    3    3    0    0 -0.13961587758E+02  0.10408899916E+02  0.47947838635E+00  0.17421280951E+02  0.51100000000E-03 0. -1.
        -11    1    3    3    0    0 -0.95775885920E+01  0.22265119015E+02 -0.17256572421E+02  0.29753235454E+02  0.51100000000E-03 0.  1.
         12    1    3    3    0    0  0.22932499326E+02 -0.32558467778E+02  0.15771368219E+02  0.42833274506E+02  0.00000000000E+00 0. -1.
</event>
<event>
 7    1  0.2285268E-015  0.9000770E+02  0.7816164E-02  0.1186339E+00
        -11   -1    0    0    0    0  0.00000000000E+00  0.00000000000E+00  0.45593999997E+02  0.45594000000E+02  0.51100000000E-03 0. -1.
         11   -1    0    0    0    0 -0.00000000000E+00 -0.00000000000E+00 -0.45593999997E+02  0.45594000000E+02  0.51100000000E-03 0.  1.
    9900012    2    1    2    0    0 -0.34511595447E+00  0.11021719856E+01 -0.24336904903E+00  0.90007696394E+02  0.89999957187E+02 0.  0.
         12    1    1    2    0    0  0.34511595447E+00 -0.11021719856E+01  0.24336904903E+00  0.11803036058E+01  0.00000000000E+00 0. -1.
         11    1    3    3    0    0  0.17332778411E+02  0.28710276773E+02  0.59584519663E+01  0.34061831277E+02  0.51100000000E-03 0. -1.
        -11    1    3    3    0    0  0.52949121261E+01  0.10114807156E+02 -0.18283346465E+01  0.11562362477E+02  0.51100000000E-03 0.  1.
        -12    1    3    3    0    0 -0.22972806492E+02 -0.37722911943E+02 -0.43734863688E+01  0.44383502640E+02  0.00000000000E+00 0.  1.
</event>
<event>
 7    1  0.2285268E-015  0.9000814E+02  0.7816164E-02  0.1186338E+00
        -11   -1    0    0    0    0  0.00000000000E+00  0.00000000000E+00  0.45593999997E+02  0.45594000000E+02  0.51100000000E-03 0. -1.
         11   -1    0    0    0    0 -0.00000000000E+00 -0.00000000000E+00 -0.45593999997E+02  0.45594000000E+02  0.51100000000E-03 0.  1.
    9900012    2    1    2    0    0 -0.10678099366E+01  0.20965645485E+00 -0.45596557553E+00  0.90008136238E+02  0.90000402836E+02 0.  0.
         12    1    1    2    0    0  0.10678099366E+01 -0.20965645485E+00  0.45596557553E+00  0.11798637616E+01  0.00000000000E+00 0. -1.
         11    1    3    3    0    0 -0.69875813184E+01 -0.28081110888E+02  0.27093427798E+02  0.39641252648E+02  0.51100000000E-03 0. -1.
        -11    1    3    3    0    0 -0.93069567665E+01  0.11329210918E+01 -0.96297846226E+00  0.94249818161E+01  0.51100000000E-03 0.  1.
        -12    1    3    3    0    0  0.15226728148E+02  0.27157846251E+02 -0.26586414911E+02  0.40941901775E+02  0.00000000000E+00 0.  1.
</event>
<event>
 7    1  0.2285268E-015  0.9000771E+02  0.7816164E-02  0.1186339E+00
        -11   -1    0    0    0    0  0.00000000000E+00  0.00000000000E+00  0.45593999997E+02  0.45594000000E+02  0.51100000000E-03 0.  1.
         11   -1    0    0    0    0 -0.00000000000E+00 -0.00000000000E+00 -0.45593999997E+02  0.45594000000E+02  0.51100000000E-03 0. -1.
    9900012    2    1    2    0    0  0.43290507802E+00  0.88435759073E+00  0.65083511359E+00  0.90007711264E+02  0.89999972253E+02 0.  0.
         12    1    1    2    0    0 -0.43290507802E+00 -0.88435759073E+00 -0.65083511359E+00  0.11802887358E+01  0.00000000000E+00 0. -1.
         11    1    3    3    0    0  0.36390369506E+01  0.54036820394E+01 -0.71159008925E+01  0.96477155474E+01  0.51100000000E-03 0. -1.
        -11    1    3    3    0    0  0.33963855337E+02  0.14787960308E+02  0.10143633851E+02  0.38407298101E+02  0.51100000000E-03 0.  1.
         12    1    3    3    0    0 -0.37169987210E+02 -0.19307284757E+02 -0.23768978445E+01  0.41952697616E+02  0.00000000000E+00 0. -1.
</event>
<event>
 7    1  0.2285268E-015  0.9000773E+02  0.7816164E-02  0.1186339E+00
        -11   -1    0    0    0    0  0.00000000000E+00  0.00000000000E+00  0.45593999997E+02  0.45594000000E+02  0.51100000000E-03 0. -1.
         11   -1    0    0    0    0 -0.00000000000E+00 -0.00000000000E+00 -0.45593999997E+02  0.45594000000E+02  0.51100000000E-03 0.  1.
    9900012    2    1    2    0    0 -0.10977177163E+01 -0.27231171543E+00 -0.33748108766E+00  0.90007732514E+02  0.89999993783E+02 0.  0.
         12    1    1    2    0    0  0.10977177163E+01  0.27231171543E+00  0.33748108766E+00  0.11802674864E+01  0.00000000000E+00 0. -1.
         11    1    3    3    0    0  0.39022092126E+01 -0.24926649483E+02  0.20818057708E+02  0.32710191350E+02  0.51100000000E-03 0. -1.
        -11    1    3    3    0    0  0.67606685997E+01  0.14591634105E+02  0.12424405629E+02  0.20322113110E+02  0.51100000000E-03 0.  1.
        -12    1    3    3    0    0 -0.11760595529E+02  0.10062703662E+02 -0.33579944424E+02  0.36975428053E+02  0.00000000000E+00 0.  1.
</event>
<event>
 7    1  0.2285268E-015  0.9000785E+02  0.7816164E-02  0.1186339E+00
        -11   -1    0    0    0    0  0.00000000000E+00  0.00000000000E+00  0.45593999997E+02  0.45594000000E+02  0.51100000000E-03 0.  1.
         11   -1    0    0    0    0 -0.00000000000E+00 -0.00000000000E+00 -0.45593999997E+02  0.45594000000E+02  0.51100000000E-03 0. -1.
    9900012    2    1    2    0    0  0.11592381997E+01  0.19878511879E+00  0.97024785319E-01  0.90007846393E+02  0.90000109165E+02 0.  0.
         12    1    1    2    0    0 -0.11592381997E+01 -0.19878511879E+00 -0.97024785319E-01  0.11801536070E+01  0.00000000000E+00 0. -1.
         11    1    3    3    0    0 -0.43211182280E+01  0.77783697678E+01 -0.71423309688E+00  0.89266582864E+01  0.51100000000E-03 0. -1.
        -11    1    3    3    0    0 -0.82131454662E+01  0.13875596492E+02  0.34954857356E+02  0.38494544931E+02  0.51100000000E-03 0.  1.
         12    1    3    3    0    0  0.13693501894E+02 -0.21455181141E+02 -0.34143599474E+02  0.42586643175E+02  0.00000000000E+00 0. -1.
</event>
<event>
 7    1  0.2285268E-015  0.9000778E+02  0.7816164E-02  0.1186339E+00
        -11   -1    0    0    0    0  0.00000000000E+00  0.00000000000E+00  0.45593999997E+02  0.45594000000E+02  0.51100000000E-03 0. -1.
         11   -1    0    0    0    0 -0.00000000000E+00 -0.00000000000E+00 -0.45593999997E+02  0.45594000000E+02  0.51100000000E-03 0.  1.
    9900012    2    1    2    0    0  0.11447544041E+01 -0.23363839579E+00  0.16693365654E+00  0.90007781210E+02  0.90000043122E+02 0.  0.
         12    1    1    2    0    0 -0.11447544041E+01  0.23363839579E+00 -0.16693365654E+00  0.11802187896E+01  0.00000000000E+00 0. -1.
         11    1    3    3    0    0 -0.20975089882E+02  0.28804541771E+02 -0.28189472349E+01  0.35743565658E+02  0.51100000000E-03 0. -1.
        -11    1    3    3    0    0 -0.63993640099E+01  0.57807743008E+01 -0.23578074929E+01  0.89402722376E+01  0.51100000000E-03 0.  1.
        -12    1    3    3    0    0  0.28519208296E+02 -0.34818954468E+02  0.53436883844E+01  0.45323943315E+02  0.00000000000E+00 0.  1.
</event>
<event>
 7    1  0.2285268E-015  0.9000771E+02  0.7816164E-02  0.1186339E+00
        -11   -1    0    0    0    0  0.00000000000E+00  0.00000000000E+00  0.45593999997E+02  0.45594000000E+02  0.51100000000E-03 0.  1.
         11   -1    0    0    0    0 -0.00000000000E+00 -0.00000000000E+00 -0.45593999997E+02  0.45594000000E+02  0.51100000000E-03 0. -1.
    9900012    2    1    2    0    0 -0.47378318803E+00  0.18986406582E-01  0.10808615889E+01  0.90007706491E+02  0.89999967417E+02 0.  0.
         12    1    1    2    0    0  0.47378318803E+00 -0.18986406582E-01 -0.10808615889E+01  0.11802935090E+01  0.00000000000E+00 0. -1.
         11    1    3    3    0    0  0.29961454704E+02 -0.21410772052E+02 -0.12379187136E+02  0.38850408006E+02  0.51100000000E-03 0. -1.
        -11    1    3    3    0    0 -0.81848301347E+00 -0.38764684934E+01 -0.63263209536E+01  0.74645334410E+01  0.51100000000E-03 0.  1.
        -12    1    3    3    0    0 -0.29616754879E+02  0.25306226952E+02  0.19786369679E+02  0.43692765044E+02  0.00000000000E+00 0.  1.
</event>
<event>
 7    1  0.2285268E-015  0.9000771E+02  0.7816164E-02  0.1186339E+00
        -11   -1    0    0    0    0  0.00000000000E+00  0.00000000000E+00  0.45593999997E+02  0.45594000000E+02  0.51100000000E-03 0.  1.
         11   -1    0    0    0    0 -0.00000000000E+00 -0.00000000000E+00 -0.45593999997E+02  0.45594000000E+02  0.51100000000E-03 0. -1.
    9900012    2    1    2    0    0  0.28199281481E+00  0.89321950631E+00  0.71814199674E+00  0.90007708103E+02  0.89999969050E+02 0.  0.
         12    1    1    2    0    0 -0.28199281481E+00 -0.89321950631E+00 -0.71814199674E+00  0.11802918968E+01  0.00000000000E+00 0. -1.
         11    1    3    3    0    0 -0.22115631172E+02  0.31019809610E+02 -0.50561452239E+01  0.38430382969E+02  0.51100000000E-03 0. -1.
        -11    1    3    3    0    0  0.60526374114E+01 -0.54062901632E+00  0.15297842780E+02  0.16460579982E+02  0.51100000000E-03 0.  1.
        -12    1    3    3    0    0  0.16344986576E+02 -0.29585961087E+02 -0.95235555592E+01  0.35116745152E+02  0.00000000000E+00 0.  1.
</event>
<event>
 7    1  0.2285268E-015  0.9000771E+02  0.7816164E-02  0.1186339E+00
        -11   -1    0    0    0    0  0.00000000000E+00  0.00000000000E+00  0.45593999997E+02  0.45594000000E+02  0.51100000000E-03 0. -1.
         11   -1    0    0    0    0 -0.00000000000E+00 -0.00000000000E+00 -0.45593999997E+02  0.45594000000E+02  0.51100000000E-03 0.  1.
    9900012    2    1    2    0    0 -0.85533101227E+00 -0.81164656343E+00 -0.52169055458E-01  0.90007710673E+02  0.89999971654E+02 0.  0.
         12    1    1    2    0    0  0.85533101227E+00  0.81164656343E+00  0.52169055458E-01  0.11802893267E+01  0.00000000000E+00 0. -1.
         11    1    3    3    0    0  0.55988945418E+01  0.35248882939E+02  0.14909711745E+02  0.38679850997E+02  0.51100000000E-03 0. -1.
        -11    1    3    3    0    0  0.82490514142E+01 -0.92160995007E+00  0.34883784082E+01  0.90036102933E+01  0.51100000000E-03 0.  1.
        -12    1    3    3    0    0 -0.14703276968E+02 -0.35138919553E+02 -0.18450259209E+02  0.42324249383E+02  0.00000000000E+00 0.  1.
</event>
<event>
 7    1  0.2285268E-015  0.9000773E+02  0.7816164E-02  0.1186339E+00
        -11   -1    0    0    0    0  0.00000000000E+00  0.00000000000E+00  0.45593999997E+02  0.45594000000E+02  0.51100000000E-03 0. -1.
         11   -1    0    0    0    0 -0.00000000000E+00 -0.00000000000E+00 -0.45593999997E+02  0.45594000000E+02  0.51100000000E-03 0.  1.
    9900012    2    1    2    0    0  0.93014145235E+00  0.66003839532E+00  0.30368810363E+00  0.90007728731E+02  0.89999989950E+02 0.  0.
         12    1    1    2    0    0 -0.93014145235E+00 -0.66003839532E+00 -0.30368810363E+00  0.11802712692E+01  0.00000000000E+00 0. -1.
         11    1    3    3    0    0  0.68085594229E+01 -0.74268754786E+01 -0.36389312211E+01  0.10712459171E+02  0.51100000000E-03 0. -1.
        -11    1    3    3    0    0  0.10056201328E+02  0.23182438941E+02 -0.29781288416E+02  0.39057365507E+02  0.51100000000E-03 0.  1.
         12    1    3    3    0    0 -0.15934619298E+02 -0.15095525067E+02  0.33723907741E+02  0.40237904053E+02  0.00000000000E+00 0. -1.
</event>
<event>
 7    1  0.2285268E-015  0.9000784E+02  0.7816164E-02  0.1186339E+00
        -11   -1    0    0    0    0  0.00000000000E+00  0.00000000000E+00  0.45593999997E+02  0.45594000000E+02  0.51100000000E-03 0.  1.
         11   -1    0    0    0    0 -0.00000000000E+00 -0.00000000000E+00 -0.45593999997E+02  0.45594000000E+02  0.51100000000E-03 0. -1.
    9900012    2    1    2    0    0  0.10137695156E+00  0.54569537302E+00  0.10414944069E+01  0.90007842669E+02  0.90000105392E+02 0.  0.
         12    1    1    2    0    0 -0.10137695156E+00 -0.54569537302E+00 -0.10414944069E+01  0.11801573311E+01  0.00000000000E+00 0. -1.
         11    1    3    3    0    0  0.16295947412E+02  0.28664357217E+02 -0.23659695077E+02  0.40583056170E+02  0.51100000000E-03 0. -1.
        -11    1    3    3    0    0 -0.38714708705E+01 -0.91292930080E+01 -0.57639943169E+01  0.11469782399E+02  0.51100000000E-03 0.  1.
        -12    1    3    3    0    0 -0.12323099590E+02 -0.18989368836E+02  0.30465183801E+02  0.37955004101E+02  0.00000000000E+00 0.  1.
</event>
<event>
 7    1  0.2285268E-015  0.9000776E+02  0.7816164E-02  0.1186339E+00
        -11   -1    0    0    0    0  0.00000000000E+00  0.00000000000E+00  0.45593999997E+02  0.45594000000E+02  0.51100000000E-03 0.  1.
         11   -1    0    0    0    0 -0.00000000000E+00 -0.00000000000E+00 -0.45593999997E+02  0.45594000000E+02  0.51100000000E-03 0. -1.
    9900012    2    1    2    0    0 -0.81237186020E+00 -0.50818400908E+00  0.68903714467E+00  0.90007757985E+02  0.90000019591E+02 0.  0.
         12    1    1    2    0    0  0.81237186020E+00  0.50818400908E+00 -0.68903714467E+00  0.11802420146E+01  0.00000000000E+00 0. -1.
         11    1    3    3    0    0  0.40244201676E+02 -0.70584393671E+01 -0.14589702760E+02  0.43385213630E+02  0.51100000000E-03 0. -1.
        -11    1    3    3    0    0 -0.10781474973E+02  0.25083342191E+01 -0.24068905744E+01  0.11328065397E+02  0.51100000000E-03 0.  1.
        -12    1    3    3    0    0 -0.30275098563E+02  0.40419211389E+01  0.17685630479E+02  0.35294478958E+02  0.00000000000E+00 0.  1.
</event>
<event>
 7    1  0.2285268E-015  0.9000779E+02  0.7816164E-02  0.1186339E+00
        -11   -1    0    0    0    0  0.00000000000E+00  0.00000000000E+00  0.45593999997E+02  0.45594000000E+02  0.51100000000E-03 0. -1.
         11   -1    0    0    0    0 -0.00000000000E+00 -0.00000000000E+00 -0.45593999997E+02  0.45594000000E+02  0.51100000000E-03 0.  1.
    9900012    2    1    2    0    0 -0.52099737807E+00 -0.10527185101E+01  0.11509780078E+00  0.90007787293E+02  0.90000049286E+02 0.  0.
         12    1    1    2    0    0  0.52099737807E+00  0.10527185101E+01 -0.11509780078E+00  0.11802127067E+01  0.00000000000E+00 0. -1.
         11    1    3    3    0    0 -0.79869085344E+01  0.32250707359E+00  0.56806584666E+01  0.98063550632E+01  0.51100000000E-03 0. -1.
        -11    1    3    3    0    0 -0.15425867261E+01 -0.38139074696E+02  0.97065971297E+01  0.39385106583E+02  0.51100000000E-03 0.  1.
         12    1    3    3    0    0  0.90084978825E+01  0.36763849112E+02 -0.15272157795E+02  0.40816325647E+02  0.00000000000E+00 0. -1.
</event>
<event>
 7    1  0.2285268E-015  0.9000772E+02  0.7816164E-02  0.1186339E+00
        -11   -1    0    0    0    0  0.00000000000E+00  0.00000000000E+00  0.45593999997E+02  0.45594000000E+02  0.51100000000E-03 0.  1.
         11   -1    0    0    0    0 -0.00000000000E+00 -0.00000000000E+00 -0.45593999997E+02  0.45594000000E+02  0.51100000000E-03 0. -1.
    9900012    2    1    2    0    0  0.36754534015E+00  0.24090614089E-01  0.11213296765E+01  0.90007724533E+02  0.89999985697E+02 0.  0.
         12    1    1    2    0    0 -0.36754534015E+00 -0.24090614089E-01 -0.11213296765E+01  0.11802754670E+01  0.00000000000E+00 0. -1.
         11    1    3    3    0    0  0.26781923774E+02 -0.29993839847E+02 -0.72480189575E+01  0.40858727940E+02  0.51100000000E-03 0. -1.
        -11    1    3    3    0    0 -0.68289656944E+01 -0.27707819542E+01  0.81059787516E+01  0.10955313637E+02  0.51100000000E-03 0.  1.
        -12    1    3    3    0    0 -0.19585412740E+02  0.32788712416E+02  0.26336988236E+00  0.38193682956E+02  0.00000000000E+00 0.  1.
</event>
<event>
 7    1  0.2285268E-015  0.9000769E+02  0.7816164E-02  0.1186339E+00
        -11   -1    0    0    0    0  0.00000000000E+00  0.00000000000E+00  0.45593999997E+02  0.45594000000E+02  0.51100000000E-03 0. -1.
         11   -1    0    0    0    0 -0.00000000000E+00 -0.00000000000E+00 -0.45593999997E+02  0.45594000000E+02  0.51100000000E-03 0.  1.
    9900012    2    1    2    0    0 -0.45749502497E+00 -0.67698863477E+00 -0.85176857665E+00  0.90007692829E+02  0.89999953574E+02 0.  0.
         12    1    1    2    0    0  0.45749502497E+00  0.67698863477E+00  0.85176857665E+00  0.11803071709E+01  0.00000000000E+00 0. -1.
         11    1    3    3    0    0 -0.33844666467E+01 -0.86494339436E+01 -0.61828334342E+01  0.11157721612E+02  0.51100000000E-03 0. -1.
        -11    1    3    3    0    0  0.60233491367E+01  0.40584962513E+02 -0.10666520338E+02  0.42393331709E+02  0.51100000000E-03 0.  1.
         12    1    3    3    0    0 -0.30963775150E+01 -0.32612517205E+02  0.15997585195E+02  0.36456639508E+02  0.00000000000E+00 0. -1.
</event>
<event>
 7    1  0.2285268E-015  0.9000777E+02  0.7816164E-02  0.1186339E+00
        -11   -1    0    0    0    0  0.00000000000E+00  0.00000000000E+00  0.45593999997E+02  0.45594000000E+02  0.51100000000E-03 0. -1.
         11   -1    0    0    0    0 -0.00000000000E+00 -0.00000000000E+00 -0.45593999997E+02  0.45594000000E+02  0.51100000000E-03 0.  1.
    9900012    2    1    2    0    0 -0.98805122470E+00 -0.40780940948E+00  0.50038928638E+00  0.90007769864E+02  0.90000031626E+02 0.  0.
         12    1    1    2    0    0  0.98805122470E+00  0.40780940948E+00 -0.50038928638E+00  0.11802301365E+01  0.00000000000E+00 0. -1.
         11    1    3    3    0    0 -0.29616474541E+02 -0.31460513780E+01  0.29624471130E+02  0.42007648036E+02  0.51100000000E-03 0. -1.
        -11    1    3    3    0    0 -0.51030254889E+00  0.84454796665E+01 -0.66458839840E+01  0.10758917682E+02  0.51100000000E-03 0.  1.
        -12    1    3    3    0    0  0.29138725865E+02 -0.57072376980E+01 -0.22478197860E+02  0.37241204146E+02  0.00000000000E+00 0.  1.
</event>
<event>
 7    1  0.2285268E-015  0.9000773E+02  0.7816164E-02  0.1186339E+00
        -11   -1    0    0    0    0  0.00000000000E+00  0.00000000000E+00  0.45593999997E+02  0.45594000000E+02  0.51100000000E-03 0. -1.
         11   -1    0    0    0    0 -0.00000000000E+00 -0.00000000000E+00 -0.45593999997E+02  0.45594000000E+02  0.51100000000E-03 0.  1.
    9900012    2    1    2    0    0  0.54535643733E+00  0.78295505882E+00 -0.69469719034E+00  0.90007730347E+02  0.89999991587E+02 0.  0.
         12    1    1    2    0    0 -0.54535643733E+00 -0.78295505882E+00  0.69469719034E+00  0.11802696531E+01  0.00000000000E+00 0. -1.
         11    1    3    3    0    0 -0.11790664431E+02  0.74079613124E+00  0.27006743765E+01  0.12118671090E+02  0.51100000000E-03 0. -1.
        -11    1    3    3    0    0  0.37738638569E+02 -0.14922501878E+02  0.14854397596E+02  0.43215032471E+02  0.51100000000E-03 0.  1.
         12    1    3    3    0    0 -0.25402617700E+02  0.14964660805E+02 -0.18249769163E+02  0.34674026786E+02  0.00000000000E+00 0. -1.
</event>
<event>
 7    1  0.2285268E-015  0.9000768E+02  0.7816164E-02  0.1186339E+00
        -11   -1    0    0    0    0  0.00000000000E+00  0.00000000000E+00  0.45593999997E+02  0.45594000000E+02  0.51100000000E-03 0. -1.
         11   -1    0    0    0    0 -0.00000000000E+00 -0.00000000000E+00 -0.45593999997E+02  0.45594000000E+02  0.51100000000E-03 0.  1.
    9900012    2    1    2    0    0  0.17672517016E+00  0.70736116485E+00 -0.92821055695E+00  0.90007675281E+02  0.89999935795E+02 0.  0.
         12    1    1    2    0    0 -0.17672517016E+00 -0.70736116485E+00  0.92821055695E+00  0.11803247186E+01  0.00000000000E+00 0. -1.
         11    1    3    3    0    0  0.36842324718E+01 -0.10275959384E+02 -0.74311939148E+01  0.13205739412E+02  0.51100000000E-03 0. -1.
        -11    1    3    3    0    0  0.11547835822E+02  0.10107665204E+02 -0.31978828713E+02  0.35470591963E+02  0.51100000000E-03 0.  1.
         12    1    3    3    0    0 -0.15055343124E+02  0.87565534480E+00  0.38481812071E+02  0.41331343907E+02  0.00000000000E+00 0. -1.
</event>
<event>
 7    1  0.2285268E-015  0.9000766E+02  0.7816164E-02  0.1186339E+00
        -11   -1    0    0    0    0  0.00000000000E+00  0.00000000000E+00  0.45593999997E+02  0.45594000000E+02  0.51100000000E-03 0.  1.
         11   -1    0    0    0    0 -0.00000000000E+00 -0.00000000000E+00 -0.45593999997E+02  0.45594000000E+02  0.51100000000E-03 0. -1.
    9900012    2    1    2    0    0  0.99451877654E+00  0.63053014118E+00  0.81021218205E-01  0.90007660941E+02  0.89999921266E+02 0.  0.
         12    1    1    2    0    0 -0.99451877654E+00 -0.63053014118E+00 -0.81021218205E-01  0.11803390588E+01  0.00000000000E+00 0. -1.
         11    1    3    3    0    0  0.79211013523E+01  0.35914478334E+00  0.56592191144E+01  0.97416422053E+01  0.51100000000E-03 0. -1.
        -11    1    3    3    0    0  0.71750963902E+00 -0.22812430349E+02  0.29676762629E+02  0.37438376553E+02  0.51100000000E-03 0.  1.
         12    1    3    3    0    0 -0.76440922148E+01  0.23083815707E+02 -0.35254960525E+02  0.42827642183E+02  0.00000000000E+00 0. -1.
</event>
<event>
 7    1  0.2285268E-015  0.9000775E+02  0.7816164E-02  0.1186339E+00
        -11   -1    0    0    0    0  0.00000000000E+00  0.00000000000E+00  0.45593999997E+02  0.45594000000E+02  0.51100000000E-03 0. -1.
         11   -1    0    0    0    0 -0.00000000000E+00 -0.00000000000E+00 -0.45593999997E+02  0.45594000000E+02  0.51100000000E-03 0.  1.
    9900012    2    1    2    0    0  0.10042865681E+01 -0.61622563938E+00  0.68265497131E-01  0.90007751836E+02  0.90000013361E+02 0.  0.
         12    1    1    2    0    0 -0.10042865681E+01  0.61622563938E+00 -0.68265497131E-01  0.11802481635E+01  0.00000000000E+00 0. -1.
         11    1    3    3    0    0  0.58746595817E+00  0.37583123683E+01 -0.92245546875E+01  0.99780978925E+01  0.51100000000E-03 0. -1.
        -11    1    3    3    0    0 -0.33536507883E+02 -0.11902193747E+02 -0.13925473544E+02  0.38213589084E+02  0.51100000000E-03 0.  1.
         12    1    3    3    0    0  0.33953328493E+02  0.75276557396E+01  0.23218293728E+02  0.41816064860E+02  0.00000000000E+00 0. -1.
</event>
<event>
 7    1  0.2285268E-015  0.9000771E+02  0.7816164E-02  0.1186339E+00
        -11   -1    0    0    0    0  0.00000000000E+00  0.00000000000E+00  0.45593999997E+02  0.45594000000E+02  0.51100000000E-03 0. -1.
         11   -1    0    0    0    0 -0.00000000000E+00 -0.00000000000E+00 -0.45593999997E+02  0.45594000000E+02  0.51100000000E-03 0.  1.
    9900012    2    1    2    0    0  0.39984246894E+00 -0.31246445441E+00 -0.10656326209E+01  0.90007711511E+02  0.89999972503E+02 0.  0.
         12    1    1    2    0    0 -0.39984246894E+00  0.31246445441E+00  0.10656326209E+01  0.11802884893E+01  0.00000000000E+00 0. -1.
         11    1    3    3    0    0 -0.22288263971E+02 -0.95045702137E+01  0.24695867146E+02  0.34597534885E+02  0.51100000000E-03 0. -1.
        -11    1    3    3    0    0 -0.51038723517E+01 -0.27599891699E+01  0.81248939797E+01  0.99840350382E+01  0.51100000000E-03 0.  1.
        -12    1    3    3    0    0  0.27791978792E+02  0.11952094929E+02 -0.33886393747E+02  0.45426141587E+02  0.00000000000E+00 0.  1.
</event>
<event>
 7    1  0.2285268E-015  0.9000780E+02  0.7816164E-02  0.1186339E+00
        -11   -1    0    0    0    0  0.00000000000E+00  0.00000000000E+00  0.45593999997E+02  0.45594000000E+02  0.51100000000E-03 0.  1.
         11   -1    0    0    0    0 -0.00000000000E+00 -0.00000000000E+00 -0.45593999997E+02  0.45594000000E+02  0.51100000000E-03 0. -1.
    9900012    2    1    2    0    0  0.29070910547E+00 -0.90472293709E+00 -0.69988847070E+00  0.90007796946E+02  0.90000059066E+02 0.  0.
         12    1    1    2    0    0 -0.29070910547E+00  0.90472293709E+00  0.69988847070E+00  0.11802030538E+01  0.00000000000E+00 0. -1.
         11    1    3    3    0    0  0.77671442163E+01 -0.11616252179E+01 -0.58423347688E+01  0.97882980255E+01  0.51100000000E-03 0. -1.
        -11    1    3    3    0    0 -0.50531381305E+01 -0.28011715659E+02  0.30819936728E+02  0.41953056138E+02  0.51100000000E-03 0.  1.
         12    1    3    3    0    0 -0.24232969803E+01  0.28268617940E+02 -0.25677490430E+02  0.38266442783E+02  0.00000000000E+00 0. -1.
</event>
<event>
 7    1  0.2285268E-015  0.9000775E+02  0.7816164E-02  0.1186339E+00
        -11   -1    0    0    0    0  0.00000000000E+00  0.00000000000E+00  0.45593999997E+02  0.45594000000E+02  0.51100000000E-03 0.  1.
         11   -1    0    0    0    0 -0.00000000000E+00 -0.00000000000E+00 -0.45593999997E+02  0.45594000000E+02  0.51100000000E-03 0. -1.
    9900012    2    1    2    0    0 -0.62351617673E+00  0.95178711706E+00  0.31356045383E+00  0.90007749477E+02  0.90000010970E+02 0.  0.
         12    1    1    2    0    0  0.62351617673E+00 -0.95178711706E+00 -0.31356045383E+00  0.11802505230E+01  0.00000000000E+00 0. -1.
         11    1    3    3    0    0 -0.11489293405E+02  0.47641785368E+01 -0.33379984548E+02  0.35621968345E+02  0.51100000000E-03 0. -1.
        -11    1    3    3    0    0 -0.69751541603E+00  0.72214781343E+00 -0.94432222857E+01  0.94964452622E+01  0.51100000000E-03 0.  1.
        -12    1    3    3    0    0  0.11563292645E+02 -0.45345392332E+01  0.43136767287E+02  0.44889335870E+02  0.00000000000E+00 0.  1.
</event>
<event>
 7    1  0.2285268E-015  0.9000772E+02  0.7816164E-02  0.1186339E+00
        -11   -1    0    0    0    0  0.00000000000E+00  0.00000000000E+00  0.45593999997E+02  0.45594000000E+02  0.51100000000E-03 0. -1.
         11   -1    0    0    0    0 -0.00000000000E+00 -0.00000000000E+00 -0.45593999997E+02  0.45594000000E+02  0.51100000000E-03 0.  1.
    9900012    2    1    2    0    0  0.11110662474E+01  0.35847900692E+00 -0.17344716499E+00  0.90007720659E+02  0.89999981771E+02 0.  0.
         12    1    1    2    0    0 -0.11110662474E+01 -0.35847900692E+00  0.17344716499E+00  0.11802793414E+01  0.00000000000E+00 0. -1.
         11    1    3    3    0    0  0.94378456184E+01 -0.23684542923E+01  0.36472432565E+02  0.37748123704E+02  0.51100000000E-03 0. -1.
        -11    1    3    3    0    0  0.91930658960E+01 -0.22722641181E+01  0.18694319982E+01  0.96524826365E+01  0.51100000000E-03 0.  1.
        -12    1    3    3    0    0 -0.17519845267E+02  0.49991974173E+01 -0.38515311729E+02  0.42607114318E+02  0.00000000000E+00 0.  1.
</event>
<event>
 7    1  0.2285268E-015  0.9000757E+02  0.7816164E-02  0.1186339E+00
        -11   -1    0    0    0    0  0.00000000000E+00  0.00000000000E+00  0.45593999997E+02  0.45594000000E+02  0.51100000000E-03 0. -1.
         11   -1    0    0    0    0 -0.00000000000E+00 -0.00000000000E+00 -0.45593999997E+02  0.45594000000E+02  0.51100000000E-03 0.  1.
    9900012    2    1    2    0    0 -0.60014544425E+00 -0.18434385046E+00 -0.99962319567E+00  0.90007574762E+02  0.89999833949E+02 0.  0.
         12    1    1    2    0    0  0.60014544425E+00  0.18434385046E+00  0.99962319567E+00  0.11804252381E+01  0.00000000000E+00 0. -1.
         11    1    3    3    0    0  0.20210737484E+02  0.36858518631E+01  0.27091317826E+02  0.33999984050E+02  0.51100000000E-03 0. -1.
        -11    1    3    3    0    0  0.12188433432E+02 -0.72077626350E+01 -0.31432956300E+01  0.14504828830E+02  0.51100000000E-03 0.  1.
        -12    1    3    3    0    0 -0.32999316360E+02  0.33375669214E+01 -0.24947645392E+02  0.41502761881E+02  0.00000000000E+00 0.  1.
</event>
<event>
 7    1  0.2285268E-015  0.9000759E+02  0.7816164E-02  0.1186339E+00
        -11   -1    0    0    0    0  0.00000000000E+00  0.00000000000E+00  0.45593999997E+02  0.45594000000E+02  0.51100000000E-03 0. -1.
         11   -1    0    0    0    0 -0.00000000000E+00 -0.00000000000E+00 -0.45593999997E+02  0.45594000000E+02  0.51100000000E-03 0.  1.
    9900012    2    1    2    0    0  0.83933616587E+00 -0.40998295813E+00 -0.72165878543E+00  0.90007592177E+02  0.89999851594E+02 0.  0.
         12    1    1    2    0    0 -0.83933616587E+00  0.40998295813E+00  0.72165878543E+00  0.11804078227E+01  0.00000000000E+00 0. -1.
         11    1    3    3    0    0  0.10434330145E+02  0.10190485469E+01  0.10192444944E+00  0.10484469199E+02  0.51100000000E-03 0. -1.
        -11    1    3    3    0    0  0.27775261792E+02 -0.20241106294E+02 -0.11681323052E+02  0.36299047648E+02  0.51100000000E-03 0.  1.
         12    1    3    3    0    0 -0.37370255771E+02  0.18812074789E+02  0.10857739817E+02  0.43224075331E+02  0.00000000000E+00 0. -1.
</event>
<event>
 7    1  0.2285268E-015  0.9000781E+02  0.7816164E-02  0.1186339E+00
        -11   -1    0    0    0    0  0.00000000000E+00  0.00000000000E+00  0.45593999997E+02  0.45594000000E+02  0.51100000000E-03 0.  1.
         11   -1    0    0    0    0 -0.00000000000E+00 -0.00000000000E+00 -0.45593999997E+02  0.45594000000E+02  0.51100000000E-03 0. -1.
    9900012    2    1    2    0    0  0.99480134376E+00 -0.98456360199E-01  0.62732363929E+00  0.90007805814E+02  0.90000068051E+02 0.  0.
         12    1    1    2    0    0 -0.99480134376E+00  0.98456360199E-01 -0.62732363929E+00  0.11801941861E+01  0.00000000000E+00 0. -1.
         11    1    3    3    0    0  0.73538222029E+01 -0.41371004647E+02 -0.44064190678E+01  0.42249914269E+02  0.51100000000E-03 0. -1.
        -11    1    3    3    0    0 -0.92135985071E+01  0.39618237988E+01  0.23835874045E+00  0.10032111463E+02  0.51100000000E-03 0.  1.
        -12    1    3    3    0    0  0.28545776481E+01  0.37310724488E+02  0.47953839666E+01  0.37725780081E+02  0.00000000000E+00 0.  1.
</event>
<event>
 7    1  0.2285268E-015  0.9000791E+02  0.7816164E-02  0.1186339E+00
        -11   -1    0    0    0    0  0.00000000000E+00  0.00000000000E+00  0.45593999997E+02  0.45594000000E+02  0.51100000000E-03 0. -1.
         11   -1    0    0    0    0 -0.00000000000E+00 -0.00000000000E+00 -0.45593999997E+02  0.45594000000E+02  0.51100000000E-03 0.  1.
    9900012    2    1    2    0    0  0.11982226349E+00 -0.11738495657E+01  0.17906616835E-01  0.90007914908E+02  0.90000178585E+02 0.  0.
         12    1    1    2    0    0 -0.11982226349E+00  0.11738495657E+01 -0.17906616835E-01  0.11800850921E+01  0.00000000000E+00 0. -1.
         11    1    3    3    0    0  0.27684182974E+02 -0.19296786418E+02  0.73464019522E+01  0.34536206725E+02  0.51100000000E-03 0. -1.
        -11    1    3    3    0    0  0.32043017803E+01 -0.10525775116E+02  0.43613542294E+01  0.11835577834E+02  0.51100000000E-03 0.  1.
        -12    1    3    3    0    0 -0.30768662491E+02  0.28648711969E+02 -0.11689849565E+02  0.43636130349E+02  0.00000000000E+00 0.  1.
</event>
<event>
 7    1  0.2800151E-015  0.9000774E+02  0.7816164E-02  0.1186339E+00
        -11   -1    0    0    0    0  0.00000000000E+00  0.00000000000E+00  0.45593999997E+02  0.45594000000E+02  0.51100000000E-03 0.  1.
         11   -1    0    0    0    0 -0.00000000000E+00 -0.00000000000E+00 -0.45593999997E+02  0.45594000000E+02  0.51100000000E-03 0. -1.
    9900012    2    1    2    0    0 -0.95273827772E+00 -0.56258412487E+00  0.41085978134E+00  0.90007738638E+02  0.89999999988E+02 0.  0.
         12    1    1    2    0    0  0.95273827772E+00  0.56258412487E+00 -0.41085978134E+00  0.11802613623E+01  0.00000000000E+00 0. -1.
         11    1    3    3    0    0 -0.71474321995E+00 -0.15923575579E+01  0.93995446086E+01  0.95602248704E+01  0.51100000000E-03 0. -1.
        -11    1    3    3    0    0  0.34830834063E+02 -0.54051078414E+00  0.15002745260E+02  0.37928373535E+02  0.51100000000E-03 0.  1.
         12    1    3    3    0    0 -0.35068829121E+02  0.15702842172E+01 -0.23991430087E+02  0.42519140232E+02  0.00000000000E+00 0. -1.
</event>
<event>
 7    1  0.2285268E-015  0.9000773E+02  0.7816164E-02  0.1186339E+00
        -11   -1    0    0    0    0  0.00000000000E+00  0.00000000000E+00  0.45593999997E+02  0.45594000000E+02  0.51100000000E-03 0.  1.
         11   -1    0    0    0    0 -0.00000000000E+00 -0.00000000000E+00 -0.45593999997E+02  0.45594000000E+02  0.51100000000E-03 0. -1.
    9900012    2    1    2    0    0  0.79479804444E-01 -0.11399388052E+01  0.29538475319E+00  0.90007733220E+02  0.89999994499E+02 0.  0.
         12    1    1    2    0    0 -0.79479804444E-01  0.11399388052E+01 -0.29538475319E+00  0.11802667797E+01  0.00000000000E+00 0. -1.
         11    1    3    3    0    0  0.10157325476E+02 -0.50466981067E+01  0.11036631406E+02  0.15825538084E+02  0.51100000000E-03 0. -1.
        -11    1    3    3    0    0  0.19539926772E+02 -0.78822215336E+01  0.20607917934E+02  0.29472435196E+02  0.51100000000E-03 0.  1.
         12    1    3    3    0    0 -0.29617772444E+02  0.11788980835E+02 -0.31349164586E+02  0.44709759940E+02  0.00000000000E+00 0. -1.
</event>
<event>
 7    1  0.2285268E-015  0.9000765E+02  0.7816164E-02  0.1186339E+00
        -11   -1    0    0    0    0  0.00000000000E+00  0.00000000000E+00  0.45593999997E+02  0.45594000000E+02  0.51100000000E-03 0.  1.
         11   -1    0    0    0    0 -0.00000000000E+00 -0.00000000000E+00 -0.45593999997E+02  0.45594000000E+02  0.51100000000E-03 0. -1.
    9900012    2    1    2    0    0 -0.10758494381E+01  0.46855756724E+00  0.12739764284E+00  0.90007649049E+02  0.89999909217E+02 0.  0.
         12    1    1    2    0    0  0.10758494381E+01 -0.46855756724E+00 -0.12739764284E+00  0.11803509507E+01  0.00000000000E+00 0. -1.
         11    1    3    3    0    0 -0.82818988278E+01  0.24153761615E+02  0.61934535783E+01  0.26274567852E+02  0.51100000000E-03 0. -1.
        -11    1    3    3    0    0 -0.65611451671E+00  0.13839352524E+01  0.23860752046E+02  0.23909856786E+02  0.51100000000E-03 0.  1.
         12    1    3    3    0    0  0.78621639063E+01 -0.25069139300E+02 -0.29926807982E+02  0.39823224411E+02  0.00000000000E+00 0. -1.
</event>
<event>
 7    1  0.2285268E-015  0.9000778E+02  0.7816164E-02  0.1186339E+00
        -11   -1    0    0    0    0  0.00000000000E+00  0.00000000000E+00  0.45593999997E+02  0.45594000000E+02  0.51100000000E-03 0.  1.
         11   -1    0    0    0    0 -0.00000000000E+00 -0.00000000000E+00 -0.45593999997E+02  0.45594000000E+02  0.51100000000E-03 0. -1.
    9900012    2    1    2    0    0  0.10040828110E+01  0.26372691860E-01 -0.61970837475E+00  0.90007781258E+02  0.90000043170E+02 0.  0.
         12    1    1    2    0    0 -0.10040828110E+01 -0.26372691860E-01  0.61970837475E+00  0.11802187424E+01  0.00000000000E+00 0. -1.
         11    1    3    3    0    0 -0.15627553646E+02 -0.35924072098E+02  0.24255687619E+01  0.39251022575E+02  0.51100000000E-03 0. -1.
        -11    1    3    3    0    0 -0.88863122086E+01  0.45780174420E+01  0.13149827634E+01  0.10082359262E+02  0.51100000000E-03 0.  1.
        -12    1    3    3    0    0  0.25517948666E+02  0.31372427348E+02 -0.43602599001E+01  0.40674399420E+02  0.00000000000E+00 0.  1.
</event>
<event>
 7    1  0.2285268E-015  0.9000778E+02  0.7816164E-02  0.1186339E+00
        -11   -1    0    0    0    0  0.00000000000E+00  0.00000000000E+00  0.45593999997E+02  0.45594000000E+02  0.51100000000E-03 0.  1.
         11   -1    0    0    0    0 -0.00000000000E+00 -0.00000000000E+00 -0.45593999997E+02  0.45594000000E+02  0.51100000000E-03 0. -1.
    9900012    2    1    2    0    0 -0.72849272366E+00 -0.90416571778E+00  0.21143632671E+00  0.90007778574E+02  0.90000040451E+02 0.  0.
         12    1    1    2    0    0  0.72849272366E+00  0.90416571778E+00 -0.21143632671E+00  0.11802214258E+01  0.00000000000E+00 0. -1.
         11    1    3    3    0    0  0.37253340252E+02 -0.13873936364E+02  0.79236033389E+01  0.40534935059E+02  0.51100000000E-03 0. -1.
        -11    1    3    3    0    0 -0.51522630753E+01 -0.80947327980E+01  0.51180943544E+00  0.96089782510E+01  0.51100000000E-03 0.  1.
        -12    1    3    3    0    0 -0.32829569900E+02  0.21064503444E+02 -0.82239764476E+01  0.39863865264E+02  0.00000000000E+00 0.  1.
</event>
<event>
 7    1  0.2285268E-015  0.9000772E+02  0.7816164E-02  0.1186339E+00
        -11   -1    0    0    0    0  0.00000000000E+00  0.00000000000E+00  0.45593999997E+02  0.45594000000E+02  0.51100000000E-03 0.  1.
         11   -1    0    0    0    0 -0.00000000000E+00 -0.00000000000E+00 -0.45593999997E+02  0.45594000000E+02  0.51100000000E-03 0. -1.
    9900012    2    1    2    0    0  0.88803777370E+00  0.72292370218E+00  0.28604092067E+00  0.90007724958E+02  0.89999986127E+02 0.  0.
         12    1    1    2    0    0 -0.88803777370E+00 -0.72292370218E+00 -0.28604092067E+00  0.11802750421E+01  0.00000000000E+00 0. -1.
         11    1    3    3    0    0  0.18282204306E+01  0.22193711865E+01  0.96140900913E+01  0.10034875532E+02  0.51100000000E-03 0. -1.
        -11    1    3    3    0    0 -0.22052036811E+02  0.31602984073E+02 -0.12685259626E+02  0.40570392430E+02  0.51100000000E-03 0.  1.
         12    1    3    3    0    0  0.21111854154E+02 -0.33099431558E+02  0.33572104555E+01  0.39402456996E+02  0.00000000000E+00 0. -1.
</event>
<event>
 7    1  0.2285268E-015  0.9000787E+02  0.7816164E-02  0.1186339E+00
        -11   -1    0    0    0    0  0.00000000000E+00  0.00000000000E+00  0.45593999997E+02  0.45594000000E+02  0.51100000000E-03 0.  1.
         11   -1    0    0    0    0 -0.00000000000E+00 -0.00000000000E+00 -0.45593999997E+02  0.45594000000E+02  0.51100000000E-03 0. -1.
    9900012    2    1    2    0    0  0.19783771404E+00 -0.11586066804E+01 -0.10578339996E+00  0.90007873173E+02  0.90000136298E+02 0.  0.
         12    1    1    2    0    0 -0.19783771404E+00  0.11586066804E+01  0.10578339996E+00  0.11801268273E+01  0.00000000000E+00 0. -1.
         11    1    3    3    0    0  0.19817506919E+02 -0.14196967577E+02 -0.14105333463E+02  0.28164656952E+02  0.51100000000E-03 0. -1.
        -11    1    3    3    0    0 -0.47035107942E+01 -0.16443211977E+02  0.21982816475E+02  0.27852225304E+02  0.51100000000E-03 0.  1.
        -12    1    3    3    0    0 -0.14916158411E+02  0.29481572875E+02 -0.79832664124E+01  0.33990990917E+02  0.00000000000E+00 0.  1.
</event>
<event>
 7    1  0.2285268E-015  0.9000775E+02  0.7816164E-02  0.1186339E+00
        -11   -1    0    0    0    0  0.00000000000E+00  0.00000000000E+00  0.45593999997E+02  0.45594000000E+02  0.51100000000E-03 0.  1.
         11   -1    0    0    0    0 -0.00000000000E+00 -0.00000000000E+00 -0.45593999997E+02  0.45594000000E+02  0.51100000000E-03 0. -1.
    9900012    2    1    2    0    0 -0.17645770595E-01  0.28350939246E+00  0.11455592420E+01  0.90007747940E+02  0.90000009413E+02 0.  0.
         12    1    1    2    0    0  0.17645770595E-01 -0.28350939246E+00 -0.11455592420E+01  0.11802520603E+01  0.00000000000E+00 0. -1.
         11    1    3    3    0    0 -0.50416359722E+01  0.19010896960E+01 -0.76059887483E+01  0.93211211991E+01  0.51100000000E-03 0. -1.
        -11    1    3    3    0    0  0.10022585932E+02  0.22308034959E+02  0.36356013463E+02  0.43816211243E+02  0.51100000000E-03 0.  1.
         12    1    3    3    0    0 -0.49985957300E+01 -0.23925615262E+02 -0.27604465473E+02  0.36870415498E+02  0.00000000000E+00 0. -1.
</event>
<event>
 7    1  0.2285268E-015  0.9000780E+02  0.7816164E-02  0.1186339E+00
        -11   -1    0    0    0    0  0.00000000000E+00  0.00000000000E+00  0.45593999997E+02  0.45594000000E+02  0.51100000000E-03 0. -1.
         11   -1    0    0    0    0 -0.00000000000E+00 -0.00000000000E+00 -0.45593999997E+02  0.45594000000E+02  0.51100000000E-03 0.  1.
    9900012    2    1    2    0    0 -0.85674638742E+00 -0.67588905809E+00 -0.44949213689E+00  0.90007795114E+02  0.90000057210E+02 0.  0.
         12    1    1    2    0    0  0.85674638742E+00  0.67588905809E+00  0.44949213689E+00  0.11802048857E+01  0.00000000000E+00 0. -1.
         11    1    3    3    0    0  0.14437195725E+02 -0.34648931010E+02  0.13548786371E+02  0.39906774525E+02  0.51100000000E-03 0. -1.
        -11    1    3    3    0    0 -0.10109574189E+02 -0.31610191382E+01 -0.24988946429E+01  0.10883014609E+02  0.51100000000E-03 0.  1.
        -12    1    3    3    0    0 -0.51843679235E+01  0.37134061091E+02 -0.11499383865E+02  0.39218005981E+02  0.00000000000E+00 0.  1.
</event>
<event>
 7    1  0.2285268E-015  0.9000768E+02  0.7816164E-02  0.1186339E+00
        -11   -1    0    0    0    0  0.00000000000E+00  0.00000000000E+00  0.45593999997E+02  0.45594000000E+02  0.51100000000E-03 0. -1.
         11   -1    0    0    0    0 -0.00000000000E+00 -0.00000000000E+00 -0.45593999997E+02  0.45594000000E+02  0.51100000000E-03 0.  1.
    9900012    2    1    2    0    0 -0.89840427217E+00  0.61134075834E+00 -0.46074876796E+00  0.90007679202E+02  0.89999939767E+02 0.  0.
         12    1    1    2    0    0  0.89840427217E+00 -0.61134075834E+00  0.46074876796E+00  0.11803207980E+01  0.00000000000E+00 0. -1.
         11    1    3    3    0    0 -0.33280264629E+02  0.45475958337E+01  0.27298673694E+02  0.43283648499E+02  0.51100000000E-03 0. -1.
        -11    1    3    3    0    0  0.86419347910E+01  0.39057019151E+01 -0.16101784692E+00  0.94849075583E+01  0.51100000000E-03 0.  1.
        -12    1    3    3    0    0  0.23739925566E+02 -0.78419569905E+01 -0.27598404615E+02  0.37239123145E+02  0.00000000000E+00 0.  1.
</event>
<event>
 7    1  0.2285268E-015  0.9000768E+02  0.7816164E-02  0.1186339E+00
        -11   -1    0    0    0    0  0.00000000000E+00  0.00000000000E+00  0.45593999997E+02  0.45594000000E+02  0.51100000000E-03 0. -1.
         11   -1    0    0    0    0 -0.00000000000E+00 -0.00000000000E+00 -0.45593999997E+02  0.45594000000E+02  0.51100000000E-03 0.  1.
    9900012    2    1    2    0    0  0.31457252923E+00 -0.73486644833E+00 -0.86842754978E+00  0.90007681830E+02  0.89999942430E+02 0.  0.
         12    1    1    2    0    0 -0.31457252923E+00  0.73486644833E+00  0.86842754978E+00  0.11803181699E+01  0.00000000000E+00 0. -1.
         11    1    3    3    0    0  0.10548268012E+02  0.65444805652E+00  0.27613116730E+01  0.10923328373E+02  0.51100000000E-03 0. -1.
        -11    1    3    3    0    0 -0.64816915834E+01  0.26016851134E+02 -0.30438294561E+02  0.40563267185E+02  0.51100000000E-03 0.  1.
         12    1    3    3    0    0 -0.37520038998E+01 -0.27406165638E+02  0.26808555338E+02  0.38521086272E+02  0.00000000000E+00 0. -1.
</event>
<event>
 7    1  0.2285268E-015  0.9000774E+02  0.7816164E-02  0.1186339E+00
        -11   -1    0    0    0    0  0.00000000000E+00  0.00000000000E+00  0.45593999997E+02  0.45594000000E+02  0.51100000000E-03 0.  1.
         11   -1    0    0    0    0 -0.00000000000E+00 -0.00000000000E+00 -0.45593999997E+02  0.45594000000E+02  0.51100000000E-03 0. -1.
    9900012    2    1    2    0    0  0.14808130510E+00 -0.11137419866E+01  0.36148857847E+00  0.90007735929E+02  0.89999997243E+02 0.  0.
         12    1    1    2    0    0 -0.14808130510E+00  0.11137419866E+01 -0.36148857847E+00  0.11802640713E+01  0.00000000000E+00 0. -1.
         11    1    3    3    0    0 -0.40315758742E+02  0.89704474652E+01  0.62615757791E+01  0.41773635970E+02  0.51100000000E-03 0. -1.
        -11    1    3    3    0    0  0.33803230846E+01  0.43675648359E+01 -0.63706227933E+01  0.84313131710E+01  0.51100000000E-03 0.  1.
        -12    1    3    3    0    0  0.37083516963E+02 -0.14451754288E+02  0.47053559271E+00  0.39802786787E+02  0.00000000000E+00 0.  1.
</event>
<event>
 7    1  0.2285268E-015  0.9000773E+02  0.7816164E-02  0.1186339E+00
        -11   -1    0    0    0    0  0.00000000000E+00  0.00000000000E+00  0.45593999997E+02  0.45594000000E+02  0.51100000000E-03 0.  1.
         11   -1    0    0    0    0 -0.00000000000E+00 -0.00000000000E+00 -0.45593999997E+02  0.45594000000E+02  0.51100000000E-03 0. -1.
    9900012    2    1    2    0    0 -0.21506441367E+00 -0.48901715339E+00  0.10524431286E+01  0.90007734345E+02  0.89999995638E+02 0.  0.
         12    1    1    2    0    0  0.21506441367E+00  0.48901715339E+00 -0.10524431286E+01  0.11802656554E+01  0.00000000000E+00 0. -1.
         11    1    3    3    0    0 -0.38549347490E+01  0.27843892182E+01 -0.85160211367E+01  0.97537665289E+01  0.51100000000E-03 0. -1.
        -11    1    3    3    0    0 -0.12608320196E+02  0.59210206086E+01 -0.31882597717E+02  0.34792646646E+02  0.51100000000E-03 0.  1.
         12    1    3    3    0    0  0.16248190532E+02 -0.91944269801E+01  0.41451061982E+02  0.45461321170E+02  0.00000000000E+00 0. -1.
</event>
<event>
 7    1  0.2285268E-015  0.9000771E+02  0.7816164E-02  0.1186339E+00
        -11   -1    0    0    0    0  0.00000000000E+00  0.00000000000E+00  0.45593999997E+02  0.45594000000E+02  0.51100000000E-03 0. -1.
         11   -1    0    0    0    0 -0.00000000000E+00 -0.00000000000E+00 -0.45593999997E+02  0.45594000000E+02  0.51100000000E-03 0.  1.
    9900012    2    1    2    0    0 -0.75933818827E-01 -0.72938549685E+00 -0.92482962512E+00  0.90007712330E+02  0.89999973333E+02 0.  0.
         12    1    1    2    0    0  0.75933818827E-01  0.72938549685E+00  0.92482962512E+00  0.11802876697E+01  0.00000000000E+00 0. -1.
         11    1    3    3    0    0  0.48530019545E+01  0.36901139046E+02 -0.29946818941E+01  0.37339172604E+02  0.51100000000E-03 0. -1.
        -11    1    3    3    0    0 -0.81753318564E+01  0.51450822374E+01 -0.66776542222E+00  0.96826563045E+01  0.51100000000E-03 0.  1.
        -12    1    3    3    0    0  0.32463960831E+01 -0.42775606780E+02  0.27376176912E+01  0.42985883422E+02  0.00000000000E+00 0.  1.
</event>
<event>
 7    1  0.2285268E-015  0.9000777E+02  0.7816164E-02  0.1186339E+00
        -11   -1    0    0    0    0  0.00000000000E+00  0.00000000000E+00  0.45593999997E+02  0.45594000000E+02  0.51100000000E-03 0. -1.
         11   -1    0    0    0    0 -0.00000000000E+00 -0.00000000000E+00 -0.45593999997E+02  0.45594000000E+02  0.51100000000E-03 0.  1.
    9900012    2    1    2    0    0 -0.47983140902E+00 -0.25740020691E+00 -0.10471102647E+01  0.90007774194E+02  0.90000036013E+02 0.  0.
         12    1    1    2    0    0  0.47983140902E+00  0.25740020691E+00  0.10471102647E+01  0.11802258064E+01  0.00000000000E+00 0. -1.
         11    1    3    3    0    0  0.95035649757E+00  0.11074421562E+02 -0.39267940034E+02  0.40810747423E+02  0.51100000000E-03 0. -1.
        -11    1    3    3    0    0  0.25552590364E+01 -0.81704583060E+01 -0.18883787949E+01  0.87665108457E+01  0.51100000000E-03 0.  1.
        -12    1    3    3    0    0 -0.39854469430E+01 -0.31613634629E+01  0.40109208565E+02  0.40430515925E+02  0.00000000000E+00 0.  1.
</event>
<event>
 7    1  0.2285268E-015  0.9000766E+02  0.7816164E-02  0.1186339E+00
        -11   -1    0    0    0    0  0.00000000000E+00  0.00000000000E+00  0.45593999997E+02  0.45594000000E+02  0.51100000000E-03 0. -1.
         11   -1    0    0    0    0 -0.00000000000E+00 -0.00000000000E+00 -0.45593999997E+02  0.45594000000E+02  0.51100000000E-03 0.  1.
    9900012    2    1    2    0    0  0.77110090127E+00  0.69154091479E+00  0.56600973587E+00  0.90007664261E+02  0.89999924629E+02 0.  0.
         12    1    1    2    0    0 -0.77110090127E+00 -0.69154091479E+00 -0.56600973587E+00  0.11803357395E+01  0.00000000000E+00 0. -1.
         11    1    3    3    0    0 -0.25274623712E+02 -0.22980376373E+02  0.59492487874E+01  0.34674167091E+02  0.51100000000E-03 0. -1.
        -11    1    3    3    0    0 -0.10138236179E+02 -0.24124986326E+01 -0.15614555193E+00  0.10422493184E+02  0.51100000000E-03 0.  1.
        -12    1    3    3    0    0  0.36183960793E+02  0.26084415920E+02 -0.52270934996E+01  0.44911003986E+02  0.00000000000E+00 0.  1.
</event>
<event>
 7    1  0.2285268E-015  0.9000772E+02  0.7816164E-02  0.1186339E+00
        -11   -1    0    0    0    0  0.00000000000E+00  0.00000000000E+00  0.45593999997E+02  0.45594000000E+02  0.51100000000E-03 0.  1.
         11   -1    0    0    0    0 -0.00000000000E+00 -0.00000000000E+00 -0.45593999997E+02  0.45594000000E+02  0.51100000000E-03 0. -1.
    9900012    2    1    2    0    0  0.78727490586E+00  0.33748448413E+00 -0.81201881453E+00  0.90007715242E+02  0.89999976283E+02 0.  0.
         12    1    1    2    0    0 -0.78727490586E+00 -0.33748448413E+00  0.81201881453E+00  0.11802847578E+01  0.00000000000E+00 0. -1.
         11    1    3    3    0    0  0.94883159692E+01  0.44921461471E+01 -0.18533138439E-01  0.10497993174E+02  0.51100000000E-03 0. -1.
        -11    1    3    3    0    0 -0.27664845416E+02  0.14195242425E+02  0.27002764290E+02  0.41182494569E+02  0.51100000000E-03 0.  1.
         12    1    3    3    0    0  0.18963804353E+02 -0.18349904088E+02 -0.27796249966E+02  0.38327227499E+02  0.00000000000E+00 0. -1.
</event>
<event>
 7    1  0.2285268E-015  0.9000806E+02  0.7816164E-02  0.1186338E+00
        -11   -1    0    0    0    0  0.00000000000E+00  0.00000000000E+00  0.45593999997E+02  0.45594000000E+02  0.51100000000E-03 0.  1.
         11   -1    0    0    0    0 -0.00000000000E+00 -0.00000000000E+00 -0.45593999997E+02  0.45594000000E+02  0.51100000000E-03 0. -1.
    9900012    2    1    2    0    0  0.76431107695E-01 -0.28373293577E+00  0.11427693663E+01  0.90008055968E+02  0.90000321507E+02 0.  0.
         12    1    1    2    0    0 -0.76431107695E-01  0.28373293577E+00 -0.11427693663E+01  0.11799440316E+01  0.00000000000E+00 0. -1.
         11    1    3    3    0    0 -0.63640560741E+01  0.57455097685E+01  0.47899096621E+01  0.98211672955E+01  0.51100000000E-03 0. -1.
        -11    1    3    3    0    0 -0.88803854270E+00  0.31661258472E+02  0.17670752021E+02  0.36269537876E+02  0.51100000000E-03 0.  1.
         12    1    3    3    0    0  0.73285257245E+01 -0.37690501176E+02 -0.21317892316E+02  0.43917350797E+02  0.00000000000E+00 0. -1.
</event>
<event>
 7    1  0.2285268E-015  0.9000779E+02  0.7816164E-02  0.1186339E+00
        -11   -1    0    0    0    0  0.00000000000E+00  0.00000000000E+00  0.45593999997E+02  0.45594000000E+02  0.51100000000E-03 0. -1.
         11   -1    0    0    0    0 -0.00000000000E+00 -0.00000000000E+00 -0.45593999997E+02  0.45594000000E+02  0.51100000000E-03 0.  1.
    9900012    2    1    2    0    0 -0.28891819105E+00  0.18514452230E+00 -0.11292209652E+01  0.90007791458E+02  0.90000053505E+02 0.  0.
         12    1    1    2    0    0  0.28891819105E+00 -0.18514452230E+00  0.11292209652E+01  0.11802085424E+01  0.00000000000E+00 0. -1.
         11    1    3    3    0    0 -0.22961243882E+02  0.27467597999E+02 -0.53198213266E+01  0.36193758573E+02  0.51100000000E-03 0. -1.
        -11    1    3    3    0    0 -0.57761270355E+01  0.33564812828E+01 -0.78472512290E+01  0.10305773248E+02  0.51100000000E-03 0.  1.
        -12    1    3    3    0    0  0.28448452726E+02 -0.30638934759E+02  0.12037851590E+02  0.43508259637E+02  0.00000000000E+00 0.  1.
</event>
<event>
 7    1  0.2285268E-015  0.9000765E+02  0.7816164E-02  0.1186339E+00
        -11   -1    0    0    0    0  0.00000000000E+00  0.00000000000E+00  0.45593999997E+02  0.45594000000E+02  0.51100000000E-03 0. -1.
         11   -1    0    0    0    0 -0.00000000000E+00 -0.00000000000E+00 -0.45593999997E+02  0.45594000000E+02  0.51100000000E-03 0.  1.
    9900012    2    1    2    0    0 -0.65853766183E+00  0.97271345328E+00 -0.11566282203E+00  0.90007652084E+02  0.89999912292E+02 0.  0.
         12    1    1    2    0    0  0.65853766183E+00 -0.97271345328E+00  0.11566282203E+00  0.11803479159E+01  0.00000000000E+00 0. -1.
         11    1    3    3    0    0 -0.10879138339E+01 -0.10448469602E+02  0.33513005273E+01  0.11026571952E+02  0.51100000000E-03 0. -1.
        -11    1    3    3    0    0 -0.94854303214E+01  0.43257587536E+02 -0.89722437518E+01  0.45185101815E+02  0.51100000000E-03 0.  1.
         12    1    3    3    0    0  0.99148064934E+01 -0.31836404481E+02  0.55052804025E+01  0.33795978317E+02  0.00000000000E+00 0. -1.
</event>
<event>
 7    1  0.2285268E-015  0.9000788E+02  0.7816164E-02  0.1186339E+00
        -11   -1    0    0    0    0  0.00000000000E+00  0.00000000000E+00  0.45593999997E+02  0.45594000000E+02  0.51100000000E-03 0.  1.
         11   -1    0    0    0    0 -0.00000000000E+00 -0.00000000000E+00 -0.45593999997E+02  0.45594000000E+02  0.51100000000E-03 0. -1.
    9900012    2    1    2    0    0 -0.98031845649E+00  0.94716720750E-01  0.65014229813E+00  0.90007881133E+02  0.90000144363E+02 0.  0.
         12    1    1    2    0    0  0.98031845649E+00 -0.94716720750E-01 -0.65014229813E+00  0.11801188674E+01  0.00000000000E+00 0. -1.
         11    1    3    3    0    0 -0.27147088569E+01  0.88902299669E+01 -0.16203671077E+01  0.94356463937E+01  0.51100000000E-03 0. -1.
        -11    1    3    3    0    0  0.40534158443E+02 -0.22659273774E+00  0.44466727258E+01  0.40777962719E+02  0.51100000000E-03 0.  1.
         12    1    3    3    0    0 -0.38799768042E+02 -0.85689205084E+01 -0.21761633200E+01  0.39794272020E+02  0.00000000000E+00 0. -1.
</event>
<event>
 7    1  0.2285268E-015  0.9000775E+02  0.7816164E-02  0.1186339E+00
        -11   -1    0    0    0    0  0.00000000000E+00  0.00000000000E+00  0.45593999997E+02  0.45594000000E+02  0.51100000000E-03 0.  1.
         11   -1    0    0    0    0 -0.00000000000E+00 -0.00000000000E+00 -0.45593999997E+02  0.45594000000E+02  0.51100000000E-03 0. -1.
    9900012    2    1    2    0    0  0.57596649116E+00 -0.87722182262E+00  0.54013238834E+00  0.90007746416E+02  0.90000007869E+02 0.  0.
         12    1    1    2    0    0 -0.57596649116E+00  0.87722182262E+00 -0.54013238834E+00  0.11802535838E+01  0.00000000000E+00 0. -1.
         11    1    3    3    0    0  0.18930958177E+01 -0.49198766492E+01  0.76700947903E+01  0.93069518303E+01  0.51100000000E-03 0. -1.
        -11    1    3    3    0    0  0.13661861425E+02 -0.89837472114E+01  0.32497601972E+02  0.36379229043E+02  0.51100000000E-03 0.  1.
         12    1    3    3    0    0 -0.14978990751E+02  0.13026402038E+02 -0.39627564374E+02  0.44321565543E+02  0.00000000000E+00 0. -1.
</event>
<event>
 7    1  0.2285268E-015  0.9000768E+02  0.7816164E-02  0.1186339E+00
        -11   -1    0    0    0    0  0.00000000000E+00  0.00000000000E+00  0.45593999997E+02  0.45594000000E+02  0.51100000000E-03 0.  1.
         11   -1    0    0    0    0 -0.00000000000E+00 -0.00000000000E+00 -0.45593999997E+02  0.45594000000E+02  0.51100000000E-03 0. -1.
    9900012    2    1    2    0    0  0.72666743687E-01  0.62519077250E+00  0.99849990856E+00  0.90007683930E+02  0.89999944558E+02 0.  0.
         12    1    1    2    0    0 -0.72666743687E-01 -0.62519077250E+00 -0.99849990856E+00  0.11803160700E+01  0.00000000000E+00 0. -1.
         11    1    3    3    0    0 -0.24824015048E+02  0.52209703499E+01 -0.27948003858E+02  0.37743624289E+02  0.51100000000E-03 0. -1.
        -11    1    3    3    0    0  0.13718020708E+02  0.13566783400E+02  0.44794690167E+01  0.19806750033E+02  0.51100000000E-03 0.  1.
        -12    1    3    3    0    0  0.11178661084E+02 -0.18162562977E+02  0.24467034750E+02  0.32457309608E+02  0.00000000000E+00 0.  1.
</event>
<event>
 7    1  0.2285268E-015  0.9000774E+02  0.7816164E-02  0.1186339E+00
        -11   -1    0    0    0    0  0.00000000000E+00  0.00000000000E+00  0.45593999997E+02  0.45594000000E+02  0.51100000000E-03 0. -1.
         11   -1    0    0    0    0 -0.00000000000E+00 -0.00000000000E+00 -0.45593999997E+02  0.45594000000E+02  0.51100000000E-03 0.  1.
    9900012    2    1    2    0    0  0.10244144950E+00  0.16809657820E+00 -0.11637279780E+01  0.90007740064E+02  0.90000001433E+02 0.  0.
         12    1    1    2    0    0 -0.10244144950E+00 -0.16809657820E+00  0.11637279780E+01  0.11802599362E+01  0.00000000000E+00 0. -1.
         11    1    3    3    0    0 -0.56601709386E+01  0.40602459894E+02  0.11353196653E+02  0.42538128297E+02  0.51100000000E-03 0. -1.
        -11    1    3    3    0    0 -0.11617134302E+01 -0.22762490578E+01 -0.80333137880E+01  0.84300070312E+01  0.51100000000E-03 0.  1.
        -12    1    3    3    0    0  0.69243258184E+01 -0.38158114258E+02 -0.44836108425E+01  0.39039604736E+02  0.00000000000E+00 0.  1.
</event>
<event>
 7    1  0.2285268E-015  0.9000774E+02  0.7816164E-02  0.1186339E+00
        -11   -1    0    0    0    0  0.00000000000E+00  0.00000000000E+00  0.45593999997E+02  0.45594000000E+02  0.51100000000E-03 0.  1.
         11   -1    0    0    0    0 -0.00000000000E+00 -0.00000000000E+00 -0.45593999997E+02  0.45594000000E+02  0.51100000000E-03 0. -1.
    9900012    2    1    2    0    0 -0.28539357219E-01 -0.97877746806E+00  0.65892805121E+00  0.90007743247E+02  0.90000004658E+02 0.  0.
         12    1    1    2    0    0  0.28539357219E-01  0.97877746806E+00 -0.65892805121E+00  0.11802567532E+01  0.00000000000E+00 0. -1.
         11    1    3    3    0    0 -0.99417739240E+01 -0.64209255980E+01 -0.41693067933E+01  0.12547919098E+02  0.51100000000E-03 0. -1.
        -11    1    3    3    0    0 -0.33211567274E+02  0.33309555343E+00  0.71396994951E+01  0.33971965833E+02  0.51100000000E-03 0.  1.
         12    1    3    3    0    0  0.43124801841E+02  0.51090525765E+01 -0.23114646506E+01  0.43487858315E+02  0.00000000000E+00 0. -1.
</event>
<event>
 7    1  0.2285268E-015  0.9000770E+02  0.7816164E-02  0.1186339E+00
        -11   -1    0    0    0    0  0.00000000000E+00  0.00000000000E+00  0.45593999997E+02  0.45594000000E+02  0.51100000000E-03 0. -1.
         11   -1    0    0    0    0 -0.00000000000E+00 -0.00000000000E+00 -0.45593999997E+02  0.45594000000E+02  0.51100000000E-03 0.  1.
    9900012    2    1    2    0    0  0.57994218863E+00  0.95781889695E+00 -0.37331705818E+00  0.90007696815E+02  0.89999957613E+02 0.  0.
         12    1    1    2    0    0 -0.57994218863E+00 -0.95781889695E+00  0.37331705818E+00  0.11803031845E+01  0.00000000000E+00 0. -1.
         11    1    3    3    0    0  0.18886744820E+01 -0.19269440715E+02  0.36181070618E+02  0.41035939225E+02  0.51100000000E-03 0. -1.
        -11    1    3    3    0    0 -0.96663533392E+01  0.34893970132E+01 -0.32606984272E+01  0.10781763904E+02  0.51100000000E-03 0.  1.
        -12    1    3    3    0    0  0.83576210458E+01  0.16737862599E+02 -0.33293689249E+02  0.38189993686E+02  0.00000000000E+00 0.  1.
</event>
<event>
 7    1  0.2285268E-015  0.9000776E+02  0.7816164E-02  0.1186339E+00
        -11   -1    0    0    0    0  0.00000000000E+00  0.00000000000E+00  0.45593999997E+02  0.45594000000E+02  0.51100000000E-03 0.  1.
         11   -1    0    0    0    0 -0.00000000000E+00 -0.00000000000E+00 -0.45593999997E+02  0.45594000000E+02  0.51100000000E-03 0. -1.
    9900012    2    1    2    0    0 -0.11536243194E+01  0.63429068276E-01 -0.24102028593E+00  0.90007761424E+02  0.90000023075E+02 0.  0.
         12    1    1    2    0    0  0.11536243194E+01 -0.63429068276E-01  0.24102028593E+00  0.11802385756E+01  0.00000000000E+00 0. -1.
         11    1    3    3    0    0 -0.26252283584E+02  0.31207439844E+02  0.25721684305E+01  0.40861996350E+02  0.51100000000E-03 0. -1.
        -11    1    3    3    0    0  0.12248908230E+01 -0.11473308815E+01 -0.10000579175E+02  0.10140429467E+02  0.51100000000E-03 0.  1.
        -12    1    3    3    0    0  0.23873768442E+02 -0.29996679894E+02  0.71873904583E+01  0.39005335608E+02  0.00000000000E+00 0.  1.
</event>
<event>
 7    1  0.2285268E-015  0.9000772E+02  0.7816164E-02  0.1186339E+00
        -11   -1    0    0    0    0  0.00000000000E+00  0.00000000000E+00  0.45593999997E+02  0.45594000000E+02  0.51100000000E-03 0.  1.
         11   -1    0    0    0    0 -0.00000000000E+00 -0.00000000000E+00 -0.45593999997E+02  0.45594000000E+02  0.51100000000E-03 0. -1.
    9900012    2    1    2    0    0  0.55180880037E+00  0.12936377486E+00  0.10352883470E+01  0.90007724651E+02  0.89999985816E+02 0.  0.
         12    1    1    2    0    0 -0.55180880037E+00 -0.12936377486E+00 -0.10352883470E+01  0.11802753491E+01  0.00000000000E+00 0. -1.
         11    1    3    3    0    0 -0.77839993088E+01 -0.12355281166E+02 -0.94913819199E+01  0.17416370143E+02  0.51100000000E-03 0. -1.
        -11    1    3    3    0    0 -0.15008930165E+02 -0.14614275821E+02  0.26195833159E+02  0.33542014215E+02  0.51100000000E-03 0.  1.
         12    1    3    3    0    0  0.23344738274E+02  0.27098920762E+02 -0.15669162892E+02  0.39049340293E+02  0.00000000000E+00 0. -1.
</event>
<event>
 7    1  0.2285268E-015  0.9000774E+02  0.7816164E-02  0.1186339E+00
        -11   -1    0    0    0    0  0.00000000000E+00  0.00000000000E+00  0.45593999997E+02  0.45594000000E+02  0.51100000000E-03 0.  1.
         11   -1    0    0    0    0 -0.00000000000E+00 -0.00000000000E+00 -0.45593999997E+02  0.45594000000E+02  0.51100000000E-03 0. -1.
    9900012    2    1    2    0    0  0.79513600786E+00  0.71446230708E+00  0.50031362254E+00  0.90007740969E+02  0.90000002350E+02 0.  0.
         12    1    1    2    0    0 -0.79513600786E+00 -0.71446230708E+00 -0.50031362254E+00  0.11802590310E+01  0.00000000000E+00 0. -1.
         11    1    3    3    0    0 -0.95119656370E+00 -0.16465816252E+00 -0.89122282897E+01  0.89643572309E+01  0.51100000000E-03 0. -1.
        -11    1    3    3    0    0  0.14240285591E+02  0.35221811080E+02  0.20082427971E+02  0.42972847508E+02  0.51100000000E-03 0.  1.
         12    1    3    3    0    0 -0.12493953019E+02 -0.34342690610E+02 -0.10669886059E+02  0.38070536231E+02  0.00000000000E+00 0. -1.
</event>
<event>
 7    1  0.2285268E-015  0.9000771E+02  0.7816164E-02  0.1186339E+00
        -11   -1    0    0    0    0  0.00000000000E+00  0.00000000000E+00  0.45593999997E+02  0.45594000000E+02  0.51100000000E-03 0.  1.
         11   -1    0    0    0    0 -0.00000000000E+00 -0.00000000000E+00 -0.45593999997E+02  0.45594000000E+02  0.51100000000E-03 0. -1.
    9900012    2    1    2    0    0  0.96494001938E+00 -0.45142505475E+00  0.50813506752E+00  0.90007705516E+02  0.89999966429E+02 0.  0.
         12    1    1    2    0    0 -0.96494001938E+00  0.45142505475E+00 -0.50813506752E+00  0.11802944836E+01  0.00000000000E+00 0. -1.
         11    1    3    3    0    0  0.18669036728E+02 -0.22802049569E+02 -0.10909399687E+02  0.31424216755E+02  0.51100000000E-03 0. -1.
        -11    1    3    3    0    0 -0.66702028996E+01 -0.15863044354E+02  0.21546335904E-01  0.17208377245E+02  0.51100000000E-03 0.  1.
        -12    1    3    3    0    0 -0.11033893809E+02  0.38213668868E+02  0.11395988418E+02  0.41375111516E+02  0.00000000000E+00 0.  1.
</event>
<event>
 7    1  0.2285268E-015  0.9000763E+02  0.7816164E-02  0.1186339E+00
        -11   -1    0    0    0    0  0.00000000000E+00  0.00000000000E+00  0.45593999997E+02  0.45594000000E+02  0.51100000000E-03 0.  1.
         11   -1    0    0    0    0 -0.00000000000E+00 -0.00000000000E+00 -0.45593999997E+02  0.45594000000E+02  0.51100000000E-03 0. -1.
    9900012    2    1    2    0    0 -0.56366610748E+00 -0.80136610251E+00  0.65830738364E+00  0.90007628990E+02  0.89999888892E+02 0.  0.
         12    1    1    2    0    0  0.56366610748E+00  0.80136610251E+00 -0.65830738364E+00  0.11803710105E+01  0.00000000000E+00 0. -1.
         11    1    3    3    0    0  0.63695881438E+01 -0.32053583213E+01  0.66586422592E+01  0.97562027494E+01  0.51100000000E-03 0. -1.
        -11    1    3    3    0    0  0.19081291037E+02  0.15646102375E+02  0.26741206483E+02  0.36386650184E+02  0.51100000000E-03 0.  1.
         12    1    3    3    0    0 -0.26014545288E+02 -0.13242110157E+02 -0.32741541359E+02  0.43864776056E+02  0.00000000000E+00 0. -1.
</event>
<event>
 7    1  0.2285268E-015  0.9000766E+02  0.7816164E-02  0.1186339E+00
        -11   -1    0    0    0    0  0.00000000000E+00  0.00000000000E+00  0.45593999997E+02  0.45594000000E+02  0.51100000000E-03 0. -1.
         11   -1    0    0    0    0 -0.00000000000E+00 -0.00000000000E+00 -0.45593999997E+02  0.45594000000E+02  0.51100000000E-03 0.  1.
    9900012    2    1    2    0    0 -0.92674970027E+00 -0.53165369417E+00 -0.50167881631E+00  0.90007660095E+02  0.89999920408E+02 0.  0.
         12    1    1    2    0    0  0.92674970027E+00  0.53165369417E+00  0.50167881631E+00  0.11803399054E+01  0.00000000000E+00 0. -1.
         11    1    3    3    0    0 -0.49901283830E+01 -0.15276524507E+02  0.36842929201E+02  0.40195460125E+02  0.51100000000E-03 0. -1.
        -11    1    3    3    0    0  0.60913359506E+01  0.90297227406E+01  0.10490062056E+01  0.10942608497E+02  0.51100000000E-03 0.  1.
        -12    1    3    3    0    0 -0.20279572679E+01  0.57151480721E+01 -0.38393614223E+02  0.38869591473E+02  0.00000000000E+00 0.  1.
</event>
<event>
 7    1  0.2285268E-015  0.9000781E+02  0.7816164E-02  0.1186339E+00
        -11   -1    0    0    0    0  0.00000000000E+00  0.00000000000E+00  0.45593999997E+02  0.45594000000E+02  0.51100000000E-03 0.  1.
         11   -1    0    0    0    0 -0.00000000000E+00 -0.00000000000E+00 -0.45593999997E+02  0.45594000000E+02  0.51100000000E-03 0. -1.
    9900012    2    1    2    0    0  0.53697324363E+00  0.53567422231E+00  0.90419390375E+00  0.90007807748E+02  0.90000070010E+02 0.  0.
         12    1    1    2    0    0 -0.53697324363E+00 -0.53567422231E+00 -0.90419390375E+00  0.11801922523E+01  0.00000000000E+00 0. -1.
         11    1    3    3    0    0  0.94834554599E+01  0.39431157060E+01  0.26394908936E+00  0.10273935873E+02  0.51100000000E-03 0. -1.
        -11    1    3    3    0    0  0.25584536246E+02 -0.40610227548E+01  0.26141084367E+02  0.36802400640E+02  0.51100000000E-03 0.  1.
         12    1    3    3    0    0 -0.34531018462E+02  0.65358127108E+00 -0.25500839553E+02  0.42931471235E+02  0.00000000000E+00 0. -1.
</event>
<event>
 7    1  0.2285268E-015  0.9000774E+02  0.7816164E-02  0.1186339E+00
        -11   -1    0    0    0    0  0.00000000000E+00  0.00000000000E+00  0.45593999997E+02  0.45594000000E+02  0.51100000000E-03 0.  1.
         11   -1    0    0    0    0 -0.00000000000E+00 -0.00000000000E+00 -0.45593999997E+02  0.45594000000E+02  0.51100000000E-03 0. -1.
    9900012    2    1    2    0    0 -0.97908882715E+00  0.34504204312E+00  0.56156144255E+00  0.90007737234E+02  0.89999998566E+02 0.  0.
         12    1    1    2    0    0  0.97908882715E+00 -0.34504204312E+00 -0.56156144255E+00  0.11802627660E+01  0.00000000000E+00 0. -1.
         11    1    3    3    0    0 -0.18331048075E+02 -0.51743646356E+01 -0.33152922947E+02  0.38235032014E+02  0.51100000000E-03 0. -1.
        -11    1    3    3    0    0  0.43161968551E+01  0.13104225770E+02 -0.10912855759E+01  0.13839840780E+02  0.51100000000E-03 0.  1.
        -12    1    3    3    0    0  0.13035762392E+02 -0.75848190917E+01  0.34805769965E+02  0.37932864441E+02  0.00000000000E+00 0.  1.
</event>
<event>
 7    1  0.2285268E-015  0.9000765E+02  0.7816164E-02  0.1186339E+00
        -11   -1    0    0    0    0  0.00000000000E+00  0.00000000000E+00  0.45593999997E+02  0.45594000000E+02  0.51100000000E-03 0. -1.
         11   -1    0    0    0    0 -0.00000000000E+00 -0.00000000000E+00 -0.45593999997E+02  0.45594000000E+02  0.51100000000E-03 0.  1.
    9900012    2    1    2    0    0 -0.99142235011E+00  0.27619892309E+00 -0.57793853741E+00  0.90007653833E+02  0.89999914063E+02 0.  0.
         12    1    1    2    0    0  0.99142235011E+00 -0.27619892309E+00  0.57793853741E+00  0.11803461672E+01  0.00000000000E+00 0. -1.
         11    1    3    3    0    0 -0.86216063501E+01  0.31273422314E+01 -0.81131734461E+01  0.12244833568E+02  0.51100000000E-03 0. -1.
        -11    1    3    3    0    0  0.14023093180E+02  0.27631309704E+02 -0.19423258463E+02  0.36570471529E+02  0.51100000000E-03 0.  1.
         12    1    3    3    0    0 -0.63929091804E+01 -0.30482453012E+02  0.26958493372E+02  0.41192348735E+02  0.00000000000E+00 0. -1.
</event>
<event>
 7    1  0.2423604E-015  0.9000782E+02  0.7816164E-02  0.1186339E+00
        -11   -1    0    0    0    0  0.00000000000E+00  0.00000000000E+00  0.45593999997E+02  0.45594000000E+02  0.51100000000E-03 0.  1.
         11   -1    0    0    0    0 -0.00000000000E+00 -0.00000000000E+00 -0.45593999997E+02  0.45594000000E+02  0.51100000000E-03 0. -1.
    9900012    2    1    2    0    0  0.92059639401E+00 -0.14060462152E-01 -0.73833646014E+00  0.90007815207E+02  0.90000077568E+02 0.  0.
         12    1    1    2    0    0 -0.92059639401E+00  0.14060462152E-01  0.73833646014E+00  0.11801847930E+01  0.00000000000E+00 0. -1.
         11    1    3    3    0    0  0.35402063124E+00  0.15046205413E+01  0.95437364073E+01  0.96680979750E+01  0.51100000000E-03 0. -1.
        -11    1    3    3    0    0  0.35458304108E+02  0.16676969730E+02  0.16507015311E+01  0.39219095673E+02  0.51100000000E-03 0.  1.
         12    1    3    3    0    0 -0.34891728345E+02 -0.18195650734E+02 -0.11932774399E+02  0.41120621559E+02  0.00000000000E+00 0. -1.
</event>
<event>
 7    1  0.2285268E-015  0.9000761E+02  0.7816164E-02  0.1186339E+00
        -11   -1    0    0    0    0  0.00000000000E+00  0.00000000000E+00  0.45593999997E+02  0.45594000000E+02  0.51100000000E-03 0. -1.
         11   -1    0    0    0    0 -0.00000000000E+00 -0.00000000000E+00 -0.45593999997E+02  0.45594000000E+02  0.51100000000E-03 0.  1.
    9900012    2    1    2    0    0  0.10705352231E+01 -0.47238311600E+00 -0.15535524546E+00  0.90007607385E+02  0.89999867003E+02 0.  0.
         12    1    1    2    0    0 -0.10705352231E+01  0.47238311600E+00  0.15535524546E+00  0.11803926145E+01  0.00000000000E+00 0. -1.
         11    1    3    3    0    0  0.22712222874E+02  0.52653501921E+01  0.36767254988E+02  0.43536192072E+02  0.51100000000E-03 0. -1.
        -11    1    3    3    0    0 -0.75866629752E+01  0.13418534126E+01 -0.16953757630E+01  0.78887467268E+01  0.51100000000E-03 0.  1.
        -12    1    3    3    0    0 -0.14055024676E+02 -0.70795867207E+01 -0.35227234471E+02  0.38582668586E+02  0.00000000000E+00 0.  1.
</event>
<event>
 7    1  0.2285268E-015  0.9000780E+02  0.7816164E-02  0.1186339E+00
        -11   -1    0    0    0    0  0.00000000000E+00  0.00000000000E+00  0.45593999997E+02  0.45594000000E+02  0.51100000000E-03 0. -1.
         11   -1    0    0    0    0 -0.00000000000E+00 -0.00000000000E+00 -0.45593999997E+02  0.45594000000E+02  0.51100000000E-03 0.  1.
    9900012    2    1    2    0    0  0.65302102586E+00 -0.30913626851E+00 -0.93320713732E+00  0.90007797791E+02  0.90000059922E+02 0.  0.
         12    1    1    2    0    0 -0.65302102586E+00  0.30913626851E+00  0.93320713732E+00  0.11802022089E+01  0.00000000000E+00 0. -1.
         11    1    3    3    0    0 -0.98826737715E+01 -0.38116661896E+02 -0.56339142812E+01  0.39777985688E+02  0.51100000000E-03 0. -1.
        -11    1    3    3    0    0  0.95340148569E+01 -0.14683662842E+01 -0.31829507311E+01  0.10157987717E+02  0.51100000000E-03 0.  1.
        -12    1    3    3    0    0  0.10016799404E+01  0.39275891912E+02  0.78836578750E+01  0.40071824387E+02  0.00000000000E+00 0.  1.
</event>
<event>
 7    1  0.2285268E-015  0.9000766E+02  0.7816164E-02  0.1186339E+00
        -11   -1    0    0    0    0  0.00000000000E+00  0.00000000000E+00  0.45593999997E+02  0.45594000000E+02  0.51100000000E-03 0.  1.
         11   -1    0    0    0    0 -0.00000000000E+00 -0.00000000000E+00 -0.45593999997E+02  0.45594000000E+02  0.51100000000E-03 0. -1.
    9900012    2    1    2    0    0  0.42078329993E+00 -0.10964524211E+01  0.11809074158E+00  0.90007656016E+02  0.89999916275E+02 0.  0.
         12    1    1    2    0    0 -0.42078329993E+00  0.10964524211E+01 -0.11809074158E+00  0.11803439840E+01  0.00000000000E+00 0. -1.
         11    1    3    3    0    0  0.40538771749E+01 -0.19311579738E+01 -0.29781672388E+01  0.53882067176E+01  0.51100000000E-03 0. -1.
        -11    1    3    3    0    0 -0.23016674830E+02 -0.32302089675E+02  0.17846478026E+02  0.43493552348E+02  0.51100000000E-03 0.  1.
         12    1    3    3    0    0  0.19383580955E+02  0.33136795228E+02 -0.14750220045E+02  0.41125896951E+02  0.00000000000E+00 0. -1.
</event>
<event>
 7    1  0.2285268E-015  0.9000785E+02  0.7816164E-02  0.1186339E+00
        -11   -1    0    0    0    0  0.00000000000E+00  0.00000000000E+00  0.45593999997E+02  0.45594000000E+02  0.51100000000E-03 0. -1.
         11   -1    0    0    0    0 -0.00000000000E+00 -0.00000000000E+00 -0.45593999997E+02  0.45594000000E+02  0.51100000000E-03 0.  1.
    9900012    2    1    2    0    0 -0.36133203678E+00  0.86563887444E+00 -0.71614485278E+00  0.90007849606E+02  0.90000112421E+02 0.  0.
         12    1    1    2    0    0  0.36133203678E+00 -0.86563887444E+00  0.71614485278E+00  0.11801503938E+01  0.00000000000E+00 0. -1.
         11    1    3    3    0    0  0.12880561420E+02  0.82781045026E+01  0.32610213933E+02  0.36025850852E+02  0.51100000000E-03 0. -1.
        -11    1    3    3    0    0  0.51402836458E+01 -0.46892862877E+01  0.68203275545E+01  0.97431406671E+01  0.51100000000E-03 0.  1.
        -12    1    3    3    0    0 -0.18382177102E+02 -0.27231793405E+01 -0.40146686340E+02  0.44238858087E+02  0.00000000000E+00 0.  1.
</event>
<event>
 7    1  0.2285268E-015  0.9000772E+02  0.7816164E-02  0.1186339E+00
        -11   -1    0    0    0    0  0.00000000000E+00  0.00000000000E+00  0.45593999997E+02  0.45594000000E+02  0.51100000000E-03 0.  1.
         11   -1    0    0    0    0 -0.00000000000E+00 -0.00000000000E+00 -0.45593999997E+02  0.45594000000E+02  0.51100000000E-03 0. -1.
    9900012    2    1    2    0    0 -0.10076608715E+01  0.59557453054E+00  0.15157890224E+00  0.90007717993E+02  0.89999979070E+02 0.  0.
         12    1    1    2    0    0  0.10076608715E+01 -0.59557453054E+00 -0.15157890224E+00  0.11802820074E+01  0.00000000000E+00 0. -1.
         11    1    3    3    0    0 -0.52712474268E+00  0.34423207002E+01  0.80573708917E+01  0.87777365103E+01  0.51100000000E-03 0. -1.
        -11    1    3    3    0    0 -0.16304148743E+02  0.12405157189E+02  0.30640494448E+02  0.36858555200E+02  0.51100000000E-03 0.  1.
         12    1    3    3    0    0  0.15823612614E+02 -0.15251903358E+02 -0.38546286438E+02  0.44371426283E+02  0.00000000000E+00 0. -1.
</event>
<event>
 7    1  0.2285268E-015  0.9000772E+02  0.7816164E-02  0.1186339E+00
        -11   -1    0    0    0    0  0.00000000000E+00  0.00000000000E+00  0.45593999997E+02  0.45594000000E+02  0.51100000000E-03 0.  1.
         11   -1    0    0    0    0 -0.00000000000E+00 -0.00000000000E+00 -0.45593999997E+02  0.45594000000E+02  0.51100000000E-03 0. -1.
    9900012    2    1    2    0    0  0.12740680398E+00  0.68441089538E+00  0.95310062864E+00  0.90007723941E+02  0.89999985097E+02 0.  0.
         12    1    1    2    0    0 -0.12740680398E+00 -0.68441089538E+00 -0.95310062864E+00  0.11802760591E+01  0.00000000000E+00 0. -1.
         11    1    3    3    0    0  0.16893880498E+02  0.25888175090E+02 -0.16543270617E+02  0.35061098253E+02  0.51100000000E-03 0. -1.
        -11    1    3    3    0    0  0.81903585795E+01  0.68703301658E+01 -0.25754772196E-01  0.10690372950E+02  0.51100000000E-03 0.  1.
        -12    1    3    3    0    0 -0.24956832273E+02 -0.32074094360E+02  0.17522126018E+02  0.44256252737E+02  0.00000000000E+00 0.  1.
</event>
<event>
 7    1  0.2285268E-015  0.9000776E+02  0.7816164E-02  0.1186339E+00
        -11   -1    0    0    0    0  0.00000000000E+00  0.00000000000E+00  0.45593999997E+02  0.45594000000E+02  0.51100000000E-03 0. -1.
         11   -1    0    0    0    0 -0.00000000000E+00 -0.00000000000E+00 -0.45593999997E+02  0.45594000000E+02  0.51100000000E-03 0.  1.
    9900012    2    1    2    0    0  0.72538030285E+00 -0.37339392936E+00 -0.85286101461E+00  0.90007757855E+02  0.90000019459E+02 0.  0.
         12    1    1    2    0    0 -0.72538030285E+00  0.37339392936E+00  0.85286101461E+00  0.11802421449E+01  0.00000000000E+00 0. -1.
         11    1    3    3    0    0  0.32941269790E+02  0.21497597488E+02 -0.41943755531E+01  0.39558396576E+02  0.51100000000E-03 0. -1.
        -11    1    3    3    0    0  0.56018548331E+01 -0.81407474929E+01  0.25623423860E+01  0.10208728916E+02  0.51100000000E-03 0.  1.
        -12    1    3    3    0    0 -0.37817744321E+02 -0.13730243924E+02  0.77917215244E+00  0.40240632363E+02  0.00000000000E+00 0.  1.
</event>
<event>
 7    1  0.2285268E-015  0.9000767E+02  0.7816164E-02  0.1186339E+00
        -11   -1    0    0    0    0  0.00000000000E+00  0.00000000000E+00  0.45593999997E+02  0.45594000000E+02  0.51100000000E-03 0.  1.
         11   -1    0    0    0    0 -0.00000000000E+00 -0.00000000000E+00 -0.45593999997E+02  0.45594000000E+02  0.51100000000E-03 0. -1.
    9900012    2    1    2    0    0 -0.48559365914E+00  0.69338254231E+00  0.82256100280E+00  0.90007666507E+02  0.89999926905E+02 0.  0.
         12    1    1    2    0    0  0.48559365914E+00 -0.69338254231E+00 -0.82256100280E+00  0.11803334932E+01  0.00000000000E+00 0. -1.
         11    1    3    3    0    0 -0.67338345530E+01 -0.48855025457E+01  0.50136948180E+01  0.97133824644E+01  0.51100000000E-03 0. -1.
        -11    1    3    3    0    0 -0.18289561209E+02 -0.80988115264E+01  0.29991062114E+02  0.36049446657E+02  0.51100000000E-03 0.  1.
         12    1    3    3    0    0  0.24537802103E+02  0.13677696614E+02 -0.34182195929E+02  0.44244837385E+02  0.00000000000E+00 0. -1.
</event>
<event>
 7    1  0.2285268E-015  0.9000770E+02  0.7816164E-02  0.1186339E+00
        -11   -1    0    0    0    0  0.00000000000E+00  0.00000000000E+00  0.45593999997E+02  0.45594000000E+02  0.51100000000E-03 0. -1.
         11   -1    0    0    0    0 -0.00000000000E+00 -0.00000000000E+00 -0.45593999997E+02  0.45594000000E+02  0.51100000000E-03 0.  1.
    9900012    2    1    2    0    0  0.55974421156E+00 -0.14252815015E+00 -0.10293114313E+01  0.90007699242E+02  0.89999960072E+02 0.  0.
         12    1    1    2    0    0 -0.55974421156E+00  0.14252815015E+00  0.10293114313E+01  0.11803007577E+01  0.00000000000E+00 0. -1.
         11    1    3    3    0    0 -0.37386007491E+01  0.81719441513E+01 -0.18246233227E+01  0.91698995253E+01  0.51100000000E-03 0. -1.
        -11    1    3    3    0    0  0.28017668747E+02 -0.15915171289E+02 -0.28054273600E+02  0.42723818962E+02  0.51100000000E-03 0.  1.
         12    1    3    3    0    0 -0.23719323787E+02  0.76006989872E+01  0.28849585491E+02  0.38113980755E+02  0.00000000000E+00 0. -1.
</event>
<event>
 7    1  0.2457232E-015  0.9000765E+02  0.7816164E-02  0.1186339E+00
        -11   -1    0    0    0    0  0.00000000000E+00  0.00000000000E+00  0.45593999997E+02  0.45594000000E+02  0.51100000000E-03 0. -1.
         11   -1    0    0    0    0 -0.00000000000E+00 -0.00000000000E+00 -0.45593999997E+02  0.45594000000E+02  0.51100000000E-03 0.  1.
    9900012    2    1    2    0    0  0.16205804281E+00  0.97179866090E+00 -0.65004676060E+00  0.90007654187E+02  0.89999914423E+02 0.  0.
         12    1    1    2    0    0 -0.16205804281E+00 -0.97179866090E+00  0.65004676060E+00  0.11803458127E+01  0.00000000000E+00 0. -1.
         11    1    3    3    0    0  0.52791037660E+01  0.71016889581E+01 -0.43284009980E+01  0.98507856585E+01  0.51100000000E-03 0. -1.
        -11    1    3    3    0    0  0.24311399538E+02  0.18303448275E+00 -0.27578447726E+02  0.36764771567E+02  0.51100000000E-03 0.  1.
         12    1    3    3    0    0 -0.29428445261E+02 -0.63129247799E+01  0.31256801964E+02  0.43392096962E+02  0.00000000000E+00 0. -1.
</event>
<event>
 7    1  0.2285268E-015  0.9000762E+02  0.7816164E-02  0.1186339E+00
        -11   -1    0    0    0    0  0.00000000000E+00  0.00000000000E+00  0.45593999997E+02  0.45594000000E+02  0.51100000000E-03 0.  1.
         11   -1    0    0    0    0 -0.00000000000E+00 -0.00000000000E+00 -0.45593999997E+02  0.45594000000E+02  0.51100000000E-03 0. -1.
    9900012    2    1    2    0    0 -0.35988727976E+00  0.46739320345E+00  0.10224118386E+01  0.90007618185E+02  0.89999877945E+02 0.  0.
         12    1    1    2    0    0  0.35988727976E+00 -0.46739320345E+00 -0.10224118386E+01  0.11803818147E+01  0.00000000000E+00 0. -1.
         11    1    3    3    0    0 -0.63793311599E+01 -0.14157902526E+02 -0.32150950697E+02  0.35704701385E+02  0.51100000000E-03 0. -1.
        -11    1    3    3    0    0  0.44825542252E+01 -0.41360774877E+01 -0.73915528790E+01  0.95830831985E+01  0.51100000000E-03 0.  1.
        -12    1    3    3    0    0  0.15368896549E+01  0.18761373217E+02  0.40564915415E+02  0.44719833602E+02  0.00000000000E+00 0.  1.
</event>
<event>
 7    1  0.2285268E-015  0.9000774E+02  0.7816164E-02  0.1186339E+00
        -11   -1    0    0    0    0  0.00000000000E+00  0.00000000000E+00  0.45593999997E+02  0.45594000000E+02  0.51100000000E-03 0.  1.
         11   -1    0    0    0    0 -0.00000000000E+00 -0.00000000000E+00 -0.45593999997E+02  0.45594000000E+02  0.51100000000E-03 0. -1.
    9900012    2    1    2    0    0 -0.12019172395E+00  0.71298402742E-01  0.11719563229E+01  0.90007741073E+02  0.90000002455E+02 0.  0.
         12    1    1    2    0    0  0.12019172395E+00 -0.71298402742E-01 -0.11719563229E+01  0.11802589273E+01  0.00000000000E+00 0. -1.
         11    1    3    3    0    0 -0.68531945476E+00  0.95268925731E+01  0.31541603759E+01  0.10058830588E+02  0.51100000000E-03 0. -1.
        -11    1    3    3    0    0  0.26445497081E+01  0.30805869902E+02  0.17114245222E+02  0.35339675343E+02  0.51100000000E-03 0.  1.
         12    1    3    3    0    0 -0.20794219773E+01 -0.40261464073E+02 -0.19096449275E+02  0.44609235142E+02  0.00000000000E+00 0. -1.
</event>
<event>
 7    1  0.2285268E-015  0.9000772E+02  0.7816164E-02  0.1186339E+00
        -11   -1    0    0    0    0  0.00000000000E+00  0.00000000000E+00  0.45593999997E+02  0.45594000000E+02  0.51100000000E-03 0.  1.
         11   -1    0    0    0    0 -0.00000000000E+00 -0.00000000000E+00 -0.45593999997E+02  0.45594000000E+02  0.51100000000E-03 0. -1.
    9900012    2    1    2    0    0 -0.56837511961E+00 -0.99821655515E+00  0.27124649049E+00  0.90007719853E+02  0.89999980955E+02 0.  0.
         12    1    1    2    0    0  0.56837511961E+00  0.99821655515E+00 -0.27124649049E+00  0.11802801473E+01  0.00000000000E+00 0. -1.
         11    1    3    3    0    0 -0.72928828964E+01 -0.10013663725E+01  0.94049859483E+01  0.11943309278E+02  0.51100000000E-03 0. -1.
        -11    1    3    3    0    0 -0.18197576965E+02 -0.32076904900E+02 -0.53526518009E+01  0.37265674781E+02  0.51100000000E-03 0.  1.
         12    1    3    3    0    0  0.24922084742E+02  0.32080054717E+02 -0.37810876569E+01  0.40798735794E+02  0.00000000000E+00 0. -1.
</event>
<event>
 7    1  0.2285268E-015  0.9000773E+02  0.7816164E-02  0.1186339E+00
        -11   -1    0    0    0    0  0.00000000000E+00  0.00000000000E+00  0.45593999997E+02  0.45594000000E+02  0.51100000000E-03 0.  1.
         11   -1    0    0    0    0 -0.00000000000E+00 -0.00000000000E+00 -0.45593999997E+02  0.45594000000E+02  0.51100000000E-03 0. -1.
    9900012    2    1    2    0    0  0.13178473511E+00 -0.17294235944E+00  0.11600743544E+01  0.90007725124E+02  0.89999986295E+02 0.  0.
         12    1    1    2    0    0 -0.13178473511E+00  0.17294235944E+00 -0.11600743544E+01  0.11802748764E+01  0.00000000000E+00 0. -1.
         11    1    3    3    0    0  0.25222792894E+02 -0.13742114978E+02 -0.22489136759E+02  0.36480080562E+02  0.51100000000E-03 0. -1.
        -11    1    3    3    0    0  0.90358898271E+01  0.96994929077E+00 -0.16240629340E+01  0.92317759542E+01  0.51100000000E-03 0.  1.
        -12    1    3    3    0    0 -0.34126897986E+02  0.12599223328E+02  0.25273274047E+02  0.44295868607E+02  0.00000000000E+00 0.  1.
</event>
<event>
 7    1  0.2285268E-015  0.9000774E+02  0.7816164E-02  0.1186339E+00
        -11   -1    0    0    0    0  0.00000000000E+00  0.00000000000E+00  0.45593999997E+02  0.45594000000E+02  0.51100000000E-03 0.  1.
         11   -1    0    0    0    0 -0.00000000000E+00 -0.00000000000E+00 -0.45593999997E+02  0.45594000000E+02  0.51100000000E-03 0. -1.
    9900012    2    1    2    0    0 -0.23961223613E+00 -0.11459318514E+01 -0.14981947439E+00  0.90007737442E+02  0.89999998776E+02 0.  0.
         12    1    1    2    0    0  0.23961223613E+00  0.11459318514E+01  0.14981947439E+00  0.11802625584E+01  0.00000000000E+00 0. -1.
         11    1    3    3    0    0 -0.22120232029E+01 -0.44913543569E+01 -0.83139286515E+01  0.97049843118E+01  0.51100000000E-03 0. -1.
        -11    1    3    3    0    0  0.30418072913E+01 -0.38127997115E+02  0.63768618791E+01  0.38777069555E+02  0.51100000000E-03 0.  1.
         12    1    3    3    0    0 -0.10693963245E+01  0.41473419620E+02  0.17872472980E+01  0.41525683575E+02  0.00000000000E+00 0. -1.
</event>
<event>
 7    1  0.2285268E-015  0.9000767E+02  0.7816164E-02  0.1186339E+00
        -11   -1    0    0    0    0  0.00000000000E+00  0.00000000000E+00  0.45593999997E+02  0.45594000000E+02  0.51100000000E-03 0.  1.
         11   -1    0    0    0    0 -0.00000000000E+00 -0.00000000000E+00 -0.45593999997E+02  0.45594000000E+02  0.51100000000E-03 0. -1.
    9900012    2    1    2    0    0  0.32439685106E+00  0.27969309421E+00  0.10998748528E+01  0.90007666896E+02  0.89999927299E+02 0.  0.
         12    1    1    2    0    0 -0.32439685106E+00 -0.27969309421E+00 -0.10998748528E+01  0.11803331037E+01  0.00000000000E+00 0. -1.
         11    1    3    3    0    0 -0.25502327084E+01 -0.84565622975E+01 -0.23456390497E+01  0.91388815273E+01  0.51100000000E-03 0. -1.
        -11    1    3    3    0    0  0.20215178270E+02 -0.69731232209E+01  0.35343567054E+02  0.41309146836E+02  0.51100000000E-03 0.  1.
         12    1    3    3    0    0 -0.17340548711E+02  0.15709378613E+02 -0.31898053152E+02  0.39559638533E+02  0.00000000000E+00 0. -1.
</event>
<event>
 7    1  0.2285268E-015  0.9000774E+02  0.7816164E-02  0.1186339E+00
        -11   -1    0    0    0    0  0.00000000000E+00  0.00000000000E+00  0.45593999997E+02  0.45594000000E+02  0.51100000000E-03 0.  1.
         11   -1    0    0    0    0 -0.00000000000E+00 -0.00000000000E+00 -0.45593999997E+02  0.45594000000E+02  0.51100000000E-03 0. -1.
    9900012    2    1    2    0    0  0.34652638367E+00  0.11232301789E+01 -0.10622063808E+00  0.90007741811E+02  0.90000003203E+02 0.  0.
         12    1    1    2    0    0 -0.34652638367E+00 -0.11232301789E+01  0.10622063808E+00  0.11802581893E+01  0.00000000000E+00 0. -1.
         11    1    3    3    0    0 -0.59526930591E+01 -0.35528610439E+02 -0.60990565192E+00  0.36028998037E+02  0.51100000000E-03 0. -1.
        -11    1    3    3    0    0 -0.13954589447E+02  0.16379929828E+02  0.10083805827E+02  0.23763749873E+02  0.51100000000E-03 0.  1.
        -12    1    3    3    0    0  0.20253808890E+02  0.20271910790E+02 -0.95801208135E+01  0.30214993901E+02  0.00000000000E+00 0.  1.
</event>
<event>
 7    1  0.2285268E-015  0.9000770E+02  0.7816164E-02  0.1186339E+00
        -11   -1    0    0    0    0  0.00000000000E+00  0.00000000000E+00  0.45593999997E+02  0.45594000000E+02  0.51100000000E-03 0.  1.
         11   -1    0    0    0    0 -0.00000000000E+00 -0.00000000000E+00 -0.45593999997E+02  0.45594000000E+02  0.51100000000E-03 0. -1.
    9900012    2    1    2    0    0  0.44561325356E+00  0.36844954443E-01  0.10923240457E+01  0.90007703197E+02  0.89999964079E+02 0.  0.
         12    1    1    2    0    0 -0.44561325356E+00 -0.36844954443E-01 -0.10923240457E+01  0.11802968030E+01  0.00000000000E+00 0. -1.
         11    1    3    3    0    0 -0.92238732380E+00  0.40101767869E+01  0.76127605761E+01  0.86536951696E+01  0.51100000000E-03 0. -1.
        -11    1    3    3    0    0 -0.54244204252E+01  0.36798677320E+02  0.70316354228E+01  0.37855130253E+02  0.51100000000E-03 0.  1.
         12    1    3    3    0    0  0.67924210025E+01 -0.40772009153E+02 -0.13552071953E+02  0.43498877775E+02  0.00000000000E+00 0. -1.
</event>
<event>
 7    1  0.2285268E-015  0.9000782E+02  0.7816164E-02  0.1186339E+00
        -11   -1    0    0    0    0  0.00000000000E+00  0.00000000000E+00  0.45593999997E+02  0.45594000000E+02  0.51100000000E-03 0. -1.
         11   -1    0    0    0    0 -0.00000000000E+00 -0.00000000000E+00 -0.45593999997E+02  0.45594000000E+02  0.51100000000E-03 0.  1.
    9900012    2    1    2    0    0 -0.10885364060E+01 -0.44658282375E+00 -0.92094886253E-01  0.90007818152E+02  0.90000080552E+02 0.  0.
         12    1    1    2    0    0  0.10885364060E+01  0.44658282375E+00  0.92094886253E-01  0.11801818477E+01  0.00000000000E+00 0. -1.
         11    1    3    3    0    0  0.30450910199E+01 -0.34568753502E+01 -0.55189182653E+01  0.71889516333E+01  0.51100000000E-03 0. -1.
        -11    1    3    3    0    0  0.26955819054E+01  0.30969492906E+02 -0.25766056361E+02  0.40376544098E+02  0.51100000000E-03 0.  1.
         12    1    3    3    0    0 -0.68292093313E+01 -0.27959200380E+02  0.31192879740E+02  0.42442322420E+02  0.00000000000E+00 0. -1.
</event>
<event>
 7    1  0.2285268E-015  0.9000770E+02  0.7816164E-02  0.1186339E+00
        -11   -1    0    0    0    0  0.00000000000E+00  0.00000000000E+00  0.45593999997E+02  0.45594000000E+02  0.51100000000E-03 0.  1.
         11   -1    0    0    0    0 -0.00000000000E+00 -0.00000000000E+00 -0.45593999997E+02  0.45594000000E+02  0.51100000000E-03 0. -1.
    9900012    2    1    2    0    0 -0.11156029317E+01  0.14211060651E+00 -0.35825179525E+00  0.90007699329E+02  0.89999960160E+02 0.  0.
         12    1    1    2    0    0  0.11156029317E+01 -0.14211060651E+00  0.35825179525E+00  0.11803006712E+01  0.00000000000E+00 0. -1.
         11    1    3    3    0    0 -0.15049910931E+02 -0.40943429260E+02  0.40902261515E+01  0.43813173463E+02  0.51100000000E-03 0. -1.
        -11    1    3    3    0    0  0.53315755761E+01  0.50266449071E+01 -0.54146399827E+01  0.91110473355E+01  0.51100000000E-03 0.  1.
        -12    1    3    3    0    0  0.86027324234E+01  0.36058894960E+02  0.96616203592E+00  0.37083478531E+02  0.00000000000E+00 0.  1.
</event>
<event>
 7    1  0.2285268E-015  0.9000791E+02  0.7816164E-02  0.1186339E+00
        -11   -1    0    0    0    0  0.00000000000E+00  0.00000000000E+00  0.45593999997E+02  0.45594000000E+02  0.51100000000E-03 0. -1.
         11   -1    0    0    0    0 -0.00000000000E+00 -0.00000000000E+00 -0.45593999997E+02  0.45594000000E+02  0.51100000000E-03 0.  1.
    9900012    2    1    2    0    0  0.32607818826E-01 -0.11605692365E+01 -0.21124831757E+00  0.90007910989E+02  0.90000174614E+02 0.  0.
         12    1    1    2    0    0 -0.32607818826E-01  0.11605692365E+01  0.21124831757E+00  0.11800890111E+01  0.00000000000E+00 0. -1.
         11    1    3    3    0    0 -0.16603400234E+02 -0.15784107809E+02  0.20857272687E+00  0.22909702345E+02  0.51100000000E-03 0. -1.
        -11    1    3    3    0    0  0.33425497916E+01 -0.24275826700E+02  0.66394064780E+01  0.25388385528E+02  0.51100000000E-03 0.  1.
        -12    1    3    3    0    0  0.13293458261E+02  0.38899365273E+02 -0.70592275225E+01  0.41709823116E+02  0.00000000000E+00 0.  1.
</event>
<event>
 7    1  0.2285268E-015  0.9000765E+02  0.7816164E-02  0.1186339E+00
        -11   -1    0    0    0    0  0.00000000000E+00  0.00000000000E+00  0.45593999997E+02  0.45594000000E+02  0.51100000000E-03 0.  1.
         11   -1    0    0    0    0 -0.00000000000E+00 -0.00000000000E+00 -0.45593999997E+02  0.45594000000E+02  0.51100000000E-03 0. -1.
    9900012    2    1    2    0    0 -0.85000286607E+00  0.38256867213E+00  0.72413393990E+00  0.90007646822E+02  0.89999906960E+02 0.  0.
         12    1    1    2    0    0  0.85000286607E+00 -0.38256867213E+00 -0.72413393990E+00  0.11803531777E+01  0.00000000000E+00 0. -1.
         11    1    3    3    0    0  0.11569334916E+02  0.34997640567E+02  0.18678921601E+01  0.36907633046E+02  0.51100000000E-03 0. -1.
        -11    1    3    3    0    0  0.21317799986E+01  0.52569604437E+01 -0.83033760828E+01  0.10056151038E+02  0.51100000000E-03 0.  1.
        -12    1    3    3    0    0 -0.14551117781E+02 -0.39872032339E+02  0.71596178626E+01  0.43043862738E+02  0.00000000000E+00 0.  1.
</event>
<event>
 7    1  0.2285268E-015  0.9000771E+02  0.7816164E-02  0.1186339E+00
        -11   -1    0    0    0    0  0.00000000000E+00  0.00000000000E+00  0.45593999997E+02  0.45594000000E+02  0.51100000000E-03 0.  1.
         11   -1    0    0    0    0 -0.00000000000E+00 -0.00000000000E+00 -0.45593999997E+02  0.45594000000E+02  0.51100000000E-03 0. -1.
    9900012    2    1    2    0    0  0.42864710979E+00  0.36170013162E+00  0.10385224022E+01  0.90007705922E+02  0.89999966840E+02 0.  0.
         12    1    1    2    0    0 -0.42864710979E+00 -0.36170013162E+00 -0.10385224022E+01  0.11802940777E+01  0.00000000000E+00 0. -1.
         11    1    3    3    0    0  0.91379945414E+01  0.20809876688E+01  0.47192415574E+01  0.10493078436E+02  0.51100000000E-03 0. -1.
        -11    1    3    3    0    0 -0.15629465766E+01  0.84492845244E-01  0.37574043914E+02  0.37606631295E+02  0.51100000000E-03 0.  1.
         12    1    3    3    0    0 -0.71464008550E+01 -0.18037803824E+01 -0.41254763070E+02  0.41907996191E+02  0.00000000000E+00 0. -1.
</event>
<event>
 7    1  0.2285268E-015  0.9000776E+02  0.7816164E-02  0.1186339E+00
        -11   -1    0    0    0    0  0.00000000000E+00  0.00000000000E+00  0.45593999997E+02  0.45594000000E+02  0.51100000000E-03 0. -1.
         11   -1    0    0    0    0 -0.00000000000E+00 -0.00000000000E+00 -0.45593999997E+02  0.45594000000E+02  0.51100000000E-03 0.  1.
    9900012    2    1    2    0    0  0.24564953305E+00 -0.95174961977E+00 -0.65329249150E+00  0.90007761841E+02  0.90000023498E+02 0.  0.
         12    1    1    2    0    0 -0.24564953305E+00  0.95174961977E+00  0.65329249150E+00  0.11802381587E+01  0.00000000000E+00 0. -1.
         11    1    3    3    0    0  0.32959649061E+02  0.50032512358E+01  0.26709080413E+02  0.42717045379E+02  0.51100000000E-03 0. -1.
        -11    1    3    3    0    0 -0.46111006964E+01  0.63856029532E+01 -0.54264088378E+01  0.95647314569E+01  0.51100000000E-03 0.  1.
        -12    1    3    3    0    0 -0.28102898831E+02 -0.12340603809E+02 -0.21935964067E+02  0.37725985005E+02  0.00000000000E+00 0.  1.
</event>
<event>
 7    1  0.2285268E-015  0.9000769E+02  0.7816164E-02  0.1186339E+00
        -11   -1    0    0    0    0  0.00000000000E+00  0.00000000000E+00  0.45593999997E+02  0.45594000000E+02  0.51100000000E-03 0.  1.
         11   -1    0    0    0    0 -0.00000000000E+00 -0.00000000000E+00 -0.45593999997E+02  0.45594000000E+02  0.51100000000E-03 0. -1.
    9900012    2    1    2    0    0 -0.39394274691E+00 -0.90172912820E+00  0.65178326384E+00  0.90007691679E+02  0.89999952410E+02 0.  0.
         12    1    1    2    0    0  0.39394274691E+00  0.90172912820E+00 -0.65178326384E+00  0.11803083205E+01  0.00000000000E+00 0. -1.
         11    1    3    3    0    0 -0.20506263827E+02 -0.21550841002E+02 -0.18183499829E+02  0.34865244447E+02  0.51100000000E-03 0. -1.
        -11    1    3    3    0    0 -0.62592099961E+01 -0.91213172577E+01 -0.17001879898E+00  0.11063681347E+02  0.51100000000E-03 0.  1.
        -12    1    3    3    0    0  0.26371531076E+02  0.29770429132E+02  0.19005301892E+02  0.44078765886E+02  0.00000000000E+00 0.  1.
</event>
<event>
 7    1  0.2285268E-015  0.9000776E+02  0.7816164E-02  0.1186339E+00
        -11   -1    0    0    0    0  0.00000000000E+00  0.00000000000E+00  0.45593999997E+02  0.45594000000E+02  0.51100000000E-03 0.  1.
         11   -1    0    0    0    0 -0.00000000000E+00 -0.00000000000E+00 -0.45593999997E+02  0.45594000000E+02  0.51100000000E-03 0. -1.
    9900012    2    1    2    0    0  0.44346583252E+00 -0.45137857263E+00  0.99627819817E+00  0.90007756462E+02  0.90000018047E+02 0.  0.
         12    1    1    2    0    0 -0.44346583252E+00  0.45137857263E+00 -0.99627819817E+00  0.11802435378E+01  0.00000000000E+00 0. -1.
         11    1    3    3    0    0 -0.69035873608E+00  0.40196994320E+01 -0.49791815934E+01  0.64363676332E+01  0.51100000000E-03 0. -1.
        -11    1    3    3    0    0 -0.29876441548E+02  0.11062812258E+02 -0.22245822855E+02  0.38856971182E+02  0.51100000000E-03 0.  1.
         12    1    3    3    0    0  0.31010266117E+02 -0.15533890263E+02  0.28221282646E+02  0.44714417647E+02  0.00000000000E+00 0. -1.
</event>
<event>
 7    1  0.2285268E-015  0.9000818E+02  0.7816164E-02  0.1186338E+00
        -11   -1    0    0    0    0  0.00000000000E+00  0.00000000000E+00  0.45593999997E+02  0.45594000000E+02  0.51100000000E-03 0. -1.
         11   -1    0    0    0    0 -0.00000000000E+00 -0.00000000000E+00 -0.45593999997E+02  0.45594000000E+02  0.51100000000E-03 0.  1.
    9900012    2    1    2    0    0  0.97169643472E+00  0.55998158287E+00 -0.36634593915E+00  0.90008176843E+02  0.90000443976E+02 0.  0.
         12    1    1    2    0    0 -0.97169643472E+00 -0.55998158287E+00  0.36634593915E+00  0.11798231569E+01  0.00000000000E+00 0. -1.
         11    1    3    3    0    0  0.24426439202E+01 -0.12350039403E+02 -0.17405246014E+02  0.21480981627E+02  0.51100000000E-03 0. -1.
        -11    1    3    3    0    0  0.11086786334E+02 -0.13771567521E+02 -0.16279463658E+02  0.24033182071E+02  0.51100000000E-03 0.  1.
         12    1    3    3    0    0 -0.12557733819E+02  0.26681588506E+02  0.33318363733E+02  0.44494013145E+02  0.00000000000E+00 0. -1.
</event>
<event>
 7    1  0.2285268E-015  0.9000775E+02  0.7816164E-02  0.1186339E+00
        -11   -1    0    0    0    0  0.00000000000E+00  0.00000000000E+00  0.45593999997E+02  0.45594000000E+02  0.51100000000E-03 0. -1.
         11   -1    0    0    0    0 -0.00000000000E+00 -0.00000000000E+00 -0.45593999997E+02  0.45594000000E+02  0.51100000000E-03 0.  1.
    9900012    2    1    2    0    0  0.10091107898E+01 -0.61209252108E+00  0.46854253256E-02  0.90007752656E+02  0.90000014191E+02 0.  0.
         12    1    1    2    0    0 -0.10091107898E+01  0.61209252108E+00 -0.46854253256E-02  0.11802473443E+01  0.00000000000E+00 0. -1.
         11    1    3    3    0    0 -0.44542160576E+01 -0.10679650585E+01 -0.10214431874E+02  0.11194427579E+02  0.51100000000E-03 0. -1.
        -11    1    3    3    0    0 -0.23502263774E+02 -0.84354147536E+01 -0.22931309721E+02  0.33902176779E+02  0.51100000000E-03 0.  1.
         12    1    3    3    0    0  0.28965590622E+02  0.88912872910E+01  0.33150427021E+02  0.44911148297E+02  0.00000000000E+00 0. -1.
</event>
<event>
 7    1  0.2285268E-015  0.9000784E+02  0.7816164E-02  0.1186339E+00
        -11   -1    0    0    0    0  0.00000000000E+00  0.00000000000E+00  0.45593999997E+02  0.45594000000E+02  0.51100000000E-03 0.  1.
         11   -1    0    0    0    0 -0.00000000000E+00 -0.00000000000E+00 -0.45593999997E+02  0.45594000000E+02  0.51100000000E-03 0. -1.
    9900012    2    1    2    0    0  0.35287732546E+00  0.10374315614E+01 -0.43817941173E+00  0.90007835669E+02  0.90000098300E+02 0.  0.
         12    1    1    2    0    0 -0.35287732546E+00 -0.10374315614E+01  0.43817941173E+00  0.11801643310E+01  0.00000000000E+00 0. -1.
         11    1    3    3    0    0  0.12666690560E+01 -0.65458821988E+01  0.45114757122E+01  0.80502445690E+01  0.51100000000E-03 0. -1.
        -11    1    3    3    0    0  0.14097253979E+01 -0.38421694002E+01  0.37608851255E+02  0.37830877394E+02  0.51100000000E-03 0.  1.
         12    1    3    3    0    0 -0.23235171285E+01  0.11425483160E+02 -0.42558506379E+02  0.44126713706E+02  0.00000000000E+00 0. -1.
</event>
<event>
 7    1  0.2285268E-015  0.9000778E+02  0.7816164E-02  0.1186339E+00
        -11   -1    0    0    0    0  0.00000000000E+00  0.00000000000E+00  0.45593999997E+02  0.45594000000E+02  0.51100000000E-03 0. -1.
         11   -1    0    0    0    0 -0.00000000000E+00 -0.00000000000E+00 -0.45593999997E+02  0.45594000000E+02  0.51100000000E-03 0.  1.
    9900012    2    1    2    0    0 -0.57251521626E+00 -0.34959139531E+00 -0.97104500084E+00  0.90007781287E+02  0.90000043200E+02 0.  0.
         12    1    1    2    0    0  0.57251521626E+00  0.34959139531E+00  0.97104500084E+00  0.11802187129E+01  0.00000000000E+00 0. -1.
         11    1    3    3    0    0  0.30640088320E+02  0.54308501561E+01 -0.18348466439E+02  0.36124442786E+02  0.51100000000E-03 0. -1.
        -11    1    3    3    0    0  0.49336045036E+01 -0.80928167294E+00 -0.80039063522E+01  0.94370497180E+01  0.51100000000E-03 0.  1.
        -12    1    3    3    0    0 -0.36146208040E+02 -0.49711598784E+01  0.25381327790E+02  0.44446288783E+02  0.00000000000E+00 0.  1.
</event>
<event>
 7    1  0.2285268E-015  0.9000818E+02  0.7816164E-02  0.1186338E+00
        -11   -1    0    0    0    0  0.00000000000E+00  0.00000000000E+00  0.45593999997E+02  0.45594000000E+02  0.51100000000E-03 0.  1.
         11   -1    0    0    0    0 -0.00000000000E+00 -0.00000000000E+00 -0.45593999997E+02  0.45594000000E+02  0.51100000000E-03 0. -1.
    9900012    2    1    2    0    0 -0.89149067838E+00  0.67595672918E+00 -0.37456199650E+00  0.90008182294E+02  0.90000449500E+02 0.  0.
         12    1    1    2    0    0  0.89149067838E+00 -0.67595672918E+00  0.37456199650E+00  0.11798177057E+01  0.00000000000E+00 0. -1.
         11    1    3    3    0    0  0.51626486381E+01 -0.61596947761E+01 -0.17947227111E+01  0.82350355534E+01  0.51100000000E-03 0. -1.
        -11    1    3    3    0    0 -0.20367471552E+02 -0.18218697770E+02  0.30400725028E+02  0.40877364499E+02  0.51100000000E-03 0.  1.
         12    1    3    3    0    0  0.14313332236E+02  0.25054349275E+02 -0.28980564313E+02  0.40895782242E+02  0.00000000000E+00 0. -1.
</event>
<event>
 7    1  0.2285268E-015  0.9000776E+02  0.7816164E-02  0.1186339E+00
        -11   -1    0    0    0    0  0.00000000000E+00  0.00000000000E+00  0.45593999997E+02  0.45594000000E+02  0.51100000000E-03 0. -1.
         11   -1    0    0    0    0 -0.00000000000E+00 -0.00000000000E+00 -0.45593999997E+02  0.45594000000E+02  0.51100000000E-03 0.  1.
    9900012    2    1    2    0    0  0.13744972103E+00 -0.66085274544E+00 -0.96816630791E+00  0.90007760712E+02  0.90000022353E+02 0.  0.
         12    1    1    2    0    0 -0.13744972103E+00  0.66085274544E+00  0.96816630791E+00  0.11802392879E+01  0.00000000000E+00 0. -1.
         11    1    3    3    0    0  0.15330974698E+02  0.21377335368E+02 -0.31435701612E+02  0.40990640258E+02  0.51100000000E-03 0. -1.
        -11    1    3    3    0    0  0.37198408811E+01 -0.11788751284E+02  0.82210320434E+00  0.12389016384E+02  0.51100000000E-03 0.  1.
        -12    1    3    3    0    0 -0.18913365858E+02 -0.10249436829E+02  0.29645432100E+02  0.36628104070E+02  0.00000000000E+00 0.  1.
</event>
<event>
 7    1  0.2285268E-015  0.9000772E+02  0.7816164E-02  0.1186339E+00
        -11   -1    0    0    0    0  0.00000000000E+00  0.00000000000E+00  0.45593999997E+02  0.45594000000E+02  0.51100000000E-03 0.  1.
         11   -1    0    0    0    0 -0.00000000000E+00 -0.00000000000E+00 -0.45593999997E+02  0.45594000000E+02  0.51100000000E-03 0. -1.
    9900012    2    1    2    0    0  0.19501589507E+00 -0.11040751050E+01  0.36885095576E+00  0.90007718650E+02  0.89999979737E+02 0.  0.
         12    1    1    2    0    0 -0.19501589507E+00  0.11040751050E+01 -0.36885095576E+00  0.11802813496E+01  0.00000000000E+00 0. -1.
         11    1    3    3    0    0  0.14092892988E+02  0.21315482896E+02  0.20743726141E+02  0.32912939984E+02  0.51100000000E-03 0. -1.
        -11    1    3    3    0    0 -0.15715030375E+02  0.76337117270E+01  0.44988402380E+01  0.18040933960E+02  0.51100000000E-03 0.  1.
        -12    1    3    3    0    0  0.18171532815E+01 -0.30053269728E+02 -0.24873715423E+02  0.39053844707E+02  0.00000000000E+00 0.  1.
</event>
<event>
 7    1  0.2285268E-015  0.9000777E+02  0.7816164E-02  0.1186339E+00
        -11   -1    0    0    0    0  0.00000000000E+00  0.00000000000E+00  0.45593999997E+02  0.45594000000E+02  0.51100000000E-03 0. -1.
         11   -1    0    0    0    0 -0.00000000000E+00 -0.00000000000E+00 -0.45593999997E+02  0.45594000000E+02  0.51100000000E-03 0.  1.
    9900012    2    1    2    0    0  0.35641710061E+00 -0.77626232653E+00 -0.81444272459E+00  0.90007774047E+02  0.90000035864E+02 0.  0.
         12    1    1    2    0    0 -0.35641710061E+00  0.77626232653E+00  0.81444272459E+00  0.11802259533E+01  0.00000000000E+00 0. -1.
         11    1    3    3    0    0 -0.26496372105E+01  0.26948931190E+01  0.41437391667E+02  0.41609379408E+02  0.51100000000E-03 0. -1.
        -11    1    3    3    0    0  0.10680815763E+02 -0.52597361049E+01 -0.11142394309E+02  0.16306366869E+02  0.51100000000E-03 0.  1.
        -12    1    3    3    0    0 -0.76747614519E+01  0.17885806594E+01 -0.31109440083E+02  0.32092027770E+02  0.00000000000E+00 0.  1.
</event>
<event>
 7    1  0.2285268E-015  0.9000763E+02  0.7816164E-02  0.1186339E+00
        -11   -1    0    0    0    0  0.00000000000E+00  0.00000000000E+00  0.45593999997E+02  0.45594000000E+02  0.51100000000E-03 0. -1.
         11   -1    0    0    0    0 -0.00000000000E+00 -0.00000000000E+00 -0.45593999997E+02  0.45594000000E+02  0.51100000000E-03 0.  1.
    9900012    2    1    2    0    0  0.88570801950E+00 -0.23413662586E+00 -0.74429843913E+00  0.90007627677E+02  0.89999887562E+02 0.  0.
         12    1    1    2    0    0 -0.88570801950E+00  0.23413662586E+00  0.74429843913E+00  0.11803723234E+01  0.00000000000E+00 0. -1.
         11    1    3    3    0    0 -0.56462516253E+01 -0.50812032965E+01 -0.43847346832E+01  0.87706717450E+01  0.51100000000E-03 0. -1.
        -11    1    3    3    0    0 -0.12233404638E+02  0.38318225485E+02 -0.82567155549E+01  0.41062342181E+02  0.51100000000E-03 0.  1.
         12    1    3    3    0    0  0.18765364283E+02 -0.33471158815E+02  0.11897151799E+02  0.40174613750E+02  0.00000000000E+00 0. -1.
</event>
<event>
 7    1  0.2285268E-015  0.9000769E+02  0.7816164E-02  0.1186339E+00
        -11   -1    0    0    0    0  0.00000000000E+00  0.00000000000E+00  0.45593999997E+02  0.45594000000E+02  0.51100000000E-03 0.  1.
         11   -1    0    0    0    0 -0.00000000000E+00 -0.00000000000E+00 -0.45593999997E+02  0.45594000000E+02  0.51100000000E-03 0. -1.
    9900012    2    1    2    0    0 -0.95577701947E+00 -0.64017833163E+00 -0.26418471993E+00  0.90007690052E+02  0.89999950761E+02 0.  0.
         12    1    1    2    0    0  0.95577701947E+00  0.64017833163E+00  0.26418471993E+00  0.11803099481E+01  0.00000000000E+00 0. -1.
         11    1    3    3    0    0 -0.14600972948E+02 -0.32394783146E+02 -0.25789363717E+02  0.43905599498E+02  0.51100000000E-03 0. -1.
        -11    1    3    3    0    0 -0.20997327132E+01  0.85822436336E+01  0.10429655844E+01  0.88967162889E+01  0.51100000000E-03 0.  1.
        -12    1    3    3    0    0  0.15744928642E+02  0.23172361181E+02  0.24482213412E+02  0.37205374265E+02  0.00000000000E+00 0.  1.
</event>
<event>
 7    1  0.2285268E-015  0.9000764E+02  0.7816164E-02  0.1186339E+00
        -11   -1    0    0    0    0  0.00000000000E+00  0.00000000000E+00  0.45593999997E+02  0.45594000000E+02  0.51100000000E-03 0.  1.
         11   -1    0    0    0    0 -0.00000000000E+00 -0.00000000000E+00 -0.45593999997E+02  0.45594000000E+02  0.51100000000E-03 0. -1.
    9900012    2    1    2    0    0 -0.46197186031E+00  0.10700500524E+01  0.18661353412E+00  0.90007640002E+02  0.89999900050E+02 0.  0.
         12    1    1    2    0    0  0.46197186031E+00 -0.10700500524E+01 -0.18661353412E+00  0.11803599982E+01  0.00000000000E+00 0. -1.
         11    1    3    3    0    0 -0.59146987319E-01  0.53103884535E+01  0.66374727391E+01  0.85005745992E+01  0.51100000000E-03 0. -1.
        -11    1    3    3    0    0 -0.19581031550E+02  0.29121168079E+02  0.14174836760E+02  0.37846865449E+02  0.51100000000E-03 0.  1.
         12    1    3    3    0    0  0.19178206677E+02 -0.33361506480E+02 -0.20625695965E+02  0.43660199954E+02  0.00000000000E+00 0. -1.
</event>
<event>
 7    1  0.2285268E-015  0.9000774E+02  0.7816164E-02  0.1186339E+00
        -11   -1    0    0    0    0  0.00000000000E+00  0.00000000000E+00  0.45593999997E+02  0.45594000000E+02  0.51100000000E-03 0.  1.
         11   -1    0    0    0    0 -0.00000000000E+00 -0.00000000000E+00 -0.45593999997E+02  0.45594000000E+02  0.51100000000E-03 0. -1.
    9900012    2    1    2    0    0  0.44142524930E+00 -0.71754529445E+00 -0.82661386554E+00  0.90007738172E+02  0.89999999516E+02 0.  0.
         12    1    1    2    0    0 -0.44142524930E+00  0.71754529445E+00  0.82661386554E+00  0.11802618282E+01  0.00000000000E+00 0. -1.
         11    1    3    3    0    0  0.28480208108E+01 -0.23890112263E+01 -0.10301483708E+02  0.10951674029E+02  0.51100000000E-03 0. -1.
        -11    1    3    3    0    0  0.17827274595E+02 -0.29636705904E+02 -0.11294872484E+02  0.36382965808E+02  0.51100000000E-03 0.  1.
         12    1    3    3    0    0 -0.20233870156E+02  0.31308171836E+02  0.20769742326E+02  0.42673098335E+02  0.00000000000E+00 0. -1.
</event>
<event>
 7    1  0.2285268E-015  0.9000774E+02  0.7816164E-02  0.1186339E+00
        -11   -1    0    0    0    0  0.00000000000E+00  0.00000000000E+00  0.45593999997E+02  0.45594000000E+02  0.51100000000E-03 0.  1.
         11   -1    0    0    0    0 -0.00000000000E+00 -0.00000000000E+00 -0.45593999997E+02  0.45594000000E+02  0.51100000000E-03 0. -1.
    9900012    2    1    2    0    0 -0.76925264414E+00 -0.76629558636E+00  0.46265279377E+00  0.90007743179E+02  0.90000004589E+02 0.  0.
         12    1    1    2    0    0  0.76925264414E+00  0.76629558636E+00 -0.46265279377E+00  0.11802568211E+01  0.00000000000E+00 0. -1.
         11    1    3    3    0    0 -0.49450180895E+01  0.34117728483E+02 -0.30328981207E+01  0.34607384646E+02  0.51100000000E-03 0. -1.
        -11    1    3    3    0    0  0.29513216848E+01  0.96239620398E+01 -0.27609887854E+01  0.10438103485E+02  0.51100000000E-03 0.  1.
        -12    1    3    3    0    0  0.12244437606E+01 -0.44507986109E+02  0.62565396999E+01  0.44962255048E+02  0.00000000000E+00 0.  1.
</event>
<event>
 7    1  0.2285268E-015  0.9000772E+02  0.7816164E-02  0.1186339E+00
        -11   -1    0    0    0    0  0.00000000000E+00  0.00000000000E+00  0.45593999997E+02  0.45594000000E+02  0.51100000000E-03 0.  1.
         11   -1    0    0    0    0 -0.00000000000E+00 -0.00000000000E+00 -0.45593999997E+02  0.45594000000E+02  0.51100000000E-03 0. -1.
    9900012    2    1    2    0    0 -0.10860546871E+01  0.46198534835E+00  0.10317867170E-01  0.90007723887E+02  0.89999985042E+02 0.  0.
         12    1    1    2    0    0  0.10860546871E+01 -0.46198534835E+00 -0.10317867170E-01  0.11802761134E+01  0.00000000000E+00 0. -1.
         11    1    3    3    0    0  0.43799995652E+01 -0.56033139860E+01  0.72480117012E+01  0.10154565362E+02  0.51100000000E-03 0. -1.
        -11    1    3    3    0    0  0.72993269413E+01  0.26471853897E+02  0.26664005549E+02  0.38275428341E+02  0.51100000000E-03 0.  1.
         12    1    3    3    0    0 -0.12765381194E+02 -0.20406554562E+02 -0.33901699383E+02  0.41577730183E+02  0.00000000000E+00 0. -1.
</event>
<event>
 7    1  0.2285268E-015  0.9000770E+02  0.7816164E-02  0.1186339E+00
        -11   -1    0    0    0    0  0.00000000000E+00  0.00000000000E+00  0.45593999997E+02  0.45594000000E+02  0.51100000000E-03 0. -1.
         11   -1    0    0    0    0 -0.00000000000E+00 -0.00000000000E+00 -0.45593999997E+02  0.45594000000E+02  0.51100000000E-03 0.  1.
    9900012    2    1    2    0    0  0.91049423963E+00 -0.75067168078E+00  0.24416554928E-01  0.90007701775E+02  0.89999962638E+02 0.  0.
         12    1    1    2    0    0 -0.91049423963E+00  0.75067168078E+00 -0.24416554928E-01  0.11802982254E+01  0.00000000000E+00 0. -1.
         11    1    3    3    0    0 -0.52821650248E+01  0.11043878976E+02 -0.23294670088E+01  0.12461739324E+02  0.51100000000E-03 0. -1.
        -11    1    3    3    0    0 -0.18452667990E+02  0.25622526234E+02 -0.55217025750E+01  0.32054703339E+02  0.51100000000E-03 0.  1.
         12    1    3    3    0    0  0.24645327254E+02 -0.37417076890E+02  0.78755861387E+01  0.45491259111E+02  0.00000000000E+00 0. -1.
</event>
<event>
 7    1  0.2285268E-015  0.9000780E+02  0.7816164E-02  0.1186339E+00
        -11   -1    0    0    0    0  0.00000000000E+00  0.00000000000E+00  0.45593999997E+02  0.45594000000E+02  0.51100000000E-03 0.  1.
         11   -1    0    0    0    0 -0.00000000000E+00 -0.00000000000E+00 -0.45593999997E+02  0.45594000000E+02  0.51100000000E-03 0. -1.
    9900012    2    1    2    0    0  0.86629110452E+00  0.44714690728E+00  0.66518257697E+00  0.90007801502E+02  0.90000063682E+02 0.  0.
         12    1    1    2    0    0 -0.86629110452E+00 -0.44714690728E+00 -0.66518257697E+00  0.11801984982E+01  0.00000000000E+00 0. -1.
         11    1    3    3    0    0  0.77618736859E+01 -0.48477146738E+01 -0.47942972083E+01  0.10331132884E+02  0.51100000000E-03 0. -1.
        -11    1    3    3    0    0 -0.30069765991E+02  0.23780452421E+02 -0.17538255438E+02  0.42157931023E+02  0.51100000000E-03 0.  1.
         12    1    3    3    0    0  0.23174183409E+02 -0.18485590840E+02  0.22997735223E+02  0.37518737595E+02  0.00000000000E+00 0. -1.
</event>
<event>
 7    1  0.2285268E-015  0.9000775E+02  0.7816164E-02  0.1186339E+00
        -11   -1    0    0    0    0  0.00000000000E+00  0.00000000000E+00  0.45593999997E+02  0.45594000000E+02  0.51100000000E-03 0.  1.
         11   -1    0    0    0    0 -0.00000000000E+00 -0.00000000000E+00 -0.45593999997E+02  0.45594000000E+02  0.51100000000E-03 0. -1.
    9900012    2    1    2    0    0 -0.10271179891E+01  0.24452384411E+00  0.52746524404E+00  0.90007753052E+02  0.90000014593E+02 0.  0.
         12    1    1    2    0    0  0.10271179891E+01 -0.24452384411E+00 -0.52746524404E+00  0.11802469477E+01  0.00000000000E+00 0. -1.
         11    1    3    3    0    0 -0.28894915329E+02  0.19230908965E+02  0.40141514291E+01  0.34940769932E+02  0.51100000000E-03 0. -1.
        -11    1    3    3    0    0 -0.64611438488E+01  0.86892794092E+01  0.67538924264E-01  0.10828412545E+02  0.51100000000E-03 0.  1.
        -12    1    3    3    0    0  0.34328941189E+02 -0.27675664530E+02 -0.35542251093E+01  0.44238570575E+02  0.00000000000E+00 0.  1.
</event>
<event>
 7    1  0.2285268E-015  0.9000748E+02  0.7816164E-02  0.1186340E+00
        -11   -1    0    0    0    0  0.00000000000E+00  0.00000000000E+00  0.45593999997E+02  0.45594000000E+02  0.51100000000E-03 0.  1.
         11   -1    0    0    0    0 -0.00000000000E+00 -0.00000000000E+00 -0.45593999997E+02  0.45594000000E+02  0.51100000000E-03 0. -1.
    9900012    2    1    2    0    0  0.11404315189E+01 -0.16702770290E-01 -0.30457369309E+00  0.90007479705E+02  0.89999737637E+02 0.  0.
         12    1    1    2    0    0 -0.11404315189E+01  0.16702770290E-01  0.30457369309E+00  0.11805202948E+01  0.00000000000E+00 0. -1.
         11    1    3    3    0    0  0.49495890020E+01  0.37468522043E+01 -0.66439733263E+01  0.90928386410E+01  0.51100000000E-03 0. -1.
        -11    1    3    3    0    0 -0.39308849354E+02 -0.13096249234E+02 -0.66800652258E+01  0.41968090893E+02  0.51100000000E-03 0.  1.
         12    1    3    3    0    0  0.35499691871E+02  0.93326942591E+01  0.13019464859E+02  0.38946550171E+02  0.00000000000E+00 0. -1.
</event>
<event>
 7    1  0.2285268E-015  0.9000774E+02  0.7816164E-02  0.1186339E+00
        -11   -1    0    0    0    0  0.00000000000E+00  0.00000000000E+00  0.45593999997E+02  0.45594000000E+02  0.51100000000E-03 0.  1.
         11   -1    0    0    0    0 -0.00000000000E+00 -0.00000000000E+00 -0.45593999997E+02  0.45594000000E+02  0.51100000000E-03 0. -1.
    9900012    2    1    2    0    0  0.19887787502E+00  0.10997839361E+01  0.37940059708E+00  0.90007736500E+02  0.89999997822E+02 0.  0.
         12    1    1    2    0    0 -0.19887787502E+00 -0.10997839361E+01 -0.37940059708E+00  0.11802634996E+01  0.00000000000E+00 0. -1.
         11    1    3    3    0    0  0.11138721781E+02 -0.14513190320E+02 -0.37363573728E+02  0.41602168912E+02  0.51100000000E-03 0. -1.
        -11    1    3    3    0    0 -0.14258945462E+01 -0.60967534855E+01  0.51620481421E+01  0.81148209840E+01  0.51100000000E-03 0.  1.
        -12    1    3    3    0    0 -0.95139493598E+01  0.21709727742E+02  0.32580926183E+02  0.40290746605E+02  0.00000000000E+00 0.  1.
</event>
<event>
 7    1  0.2285268E-015  0.9000734E+02  0.7816164E-02  0.1186340E+00
        -11   -1    0    0    0    0  0.00000000000E+00  0.00000000000E+00  0.45593999997E+02  0.45594000000E+02  0.51100000000E-03 0.  1.
         11   -1    0    0    0    0 -0.00000000000E+00 -0.00000000000E+00 -0.45593999997E+02  0.45594000000E+02  0.51100000000E-03 0. -1.
    9900012    2    1    2    0    0 -0.52001027685E+00  0.55561555808E+00  0.90268369991E+00  0.90007340355E+02  0.89999596446E+02 0.  0.
         12    1    1    2    0    0  0.52001027685E+00 -0.55561555808E+00 -0.90268369991E+00  0.11806596455E+01  0.00000000000E+00 0. -1.
         11    1    3    3    0    0 -0.27903243847E+02 -0.12823760267E+02 -0.16115174376E+02  0.34680523208E+02  0.51100000000E-03 0. -1.
        -11    1    3    3    0    0 -0.42801541349E+01 -0.71124413424E+01 -0.67908223894E+01  0.10724822155E+02  0.51100000000E-03 0.  1.
        -12    1    3    3    0    0  0.31663387705E+02  0.20491817168E+02  0.23808680465E+02  0.44601994992E+02  0.00000000000E+00 0.  1.
</event>
<event>
 7    1  0.2285268E-015  0.9000773E+02  0.7816164E-02  0.1186339E+00
        -11   -1    0    0    0    0  0.00000000000E+00  0.00000000000E+00  0.45593999997E+02  0.45594000000E+02  0.51100000000E-03 0.  1.
         11   -1    0    0    0    0 -0.00000000000E+00 -0.00000000000E+00 -0.45593999997E+02  0.45594000000E+02  0.51100000000E-03 0. -1.
    9900012    2    1    2    0    0  0.72864199536E+00  0.82105338289E+00  0.43357871547E+00  0.90007729557E+02  0.89999990788E+02 0.  0.
         12    1    1    2    0    0 -0.72864199536E+00 -0.82105338289E+00 -0.43357871547E+00  0.11802704425E+01  0.00000000000E+00 0. -1.
         11    1    3    3    0    0  0.69826507509E+01 -0.40959169534E+01 -0.39558887004E+02  0.40378700925E+02  0.51100000000E-03 0. -1.
        -11    1    3    3    0    0  0.28330036008E+00  0.12563187606E+02  0.55318780141E+01  0.13730098927E+02  0.51100000000E-03 0.  1.
        -12    1    3    3    0    0 -0.65373091156E+01 -0.76462172696E+01  0.34460587705E+02  0.35898929705E+02  0.00000000000E+00 0.  1.
</event>
<event>
 7    1  0.2285268E-015  0.9000774E+02  0.7816164E-02  0.1186339E+00
        -11   -1    0    0    0    0  0.00000000000E+00  0.00000000000E+00  0.45593999997E+02  0.45594000000E+02  0.51100000000E-03 0.  1.
         11   -1    0    0    0    0 -0.00000000000E+00 -0.00000000000E+00 -0.45593999997E+02  0.45594000000E+02  0.51100000000E-03 0. -1.
    9900012    2    1    2    0    0 -0.74099116335E+00 -0.69105861790E+00  0.60529024705E+00  0.90007743163E+02  0.90000004573E+02 0.  0.
         12    1    1    2    0    0  0.74099116335E+00  0.69105861790E+00 -0.60529024705E+00  0.11802568368E+01  0.00000000000E+00 0. -1.
         11    1    3    3    0    0  0.21521986252E+02 -0.11110760283E+01 -0.29130129640E+02  0.36235270597E+02  0.51100000000E-03 0. -1.
        -11    1    3    3    0    0  0.71328793367E+01 -0.60105567453E+01 -0.25182724094E+01  0.96615969803E+01  0.51100000000E-03 0.  1.
        -12    1    3    3    0    0 -0.29395856752E+02  0.64305741557E+01  0.32253692296E+02  0.44110875585E+02  0.00000000000E+00 0.  1.
</event>
<event>
 7    1  0.2285268E-015  0.9000772E+02  0.7816164E-02  0.1186339E+00
        -11   -1    0    0    0    0  0.00000000000E+00  0.00000000000E+00  0.45593999997E+02  0.45594000000E+02  0.51100000000E-03 0.  1.
         11   -1    0    0    0    0 -0.00000000000E+00 -0.00000000000E+00 -0.45593999997E+02  0.45594000000E+02  0.51100000000E-03 0. -1.
    9900012    2    1    2    0    0  0.11722560573E+01 -0.11043523214E+00 -0.81758882858E-01  0.90007718373E+02  0.89999979455E+02 0.  0.
         12    1    1    2    0    0 -0.11722560573E+01  0.11043523214E+00  0.81758882858E-01  0.11802816271E+01  0.00000000000E+00 0. -1.
         11    1    3    3    0    0  0.17597421026E+01 -0.82654968732E+01  0.31789169817E+01  0.90288783504E+01  0.51100000000E-03 0. -1.
        -11    1    3    3    0    0 -0.26386172956E+01 -0.77373085653E+01  0.36870947630E+02  0.37766321299E+02  0.51100000000E-03 0.  1.
         12    1    3    3    0    0  0.20511312502E+01  0.15892370206E+02 -0.40131623494E+02  0.43212518724E+02  0.00000000000E+00 0. -1.
</event>
<event>
 7    1  0.2285268E-015  0.9000781E+02  0.7816164E-02  0.1186339E+00
        -11   -1    0    0    0    0  0.00000000000E+00  0.00000000000E+00  0.45593999997E+02  0.45594000000E+02  0.51100000000E-03 0.  1.
         11   -1    0    0    0    0 -0.00000000000E+00 -0.00000000000E+00 -0.45593999997E+02  0.45594000000E+02  0.51100000000E-03 0. -1.
    9900012    2    1    2    0    0 -0.56004413050E+00 -0.56588514830E+00  0.87119039140E+00  0.90007810131E+02  0.90000072425E+02 0.  0.
         12    1    1    2    0    0  0.56004413050E+00  0.56588514830E+00 -0.87119039140E+00  0.11801898691E+01  0.00000000000E+00 0. -1.
         11    1    3    3    0    0 -0.80415526478E+01 -0.51476291169E+01 -0.35564622305E+02  0.36824000522E+02  0.51100000000E-03 0. -1.
        -11    1    3    3    0    0  0.21255395389E+00  0.58958417908E+01 -0.69827434349E+01  0.91413804069E+01  0.51100000000E-03 0.  1.
        -12    1    3    3    0    0  0.72689545634E+01 -0.13140978223E+01  0.43418556131E+02  0.44042429202E+02  0.00000000000E+00 0.  1.
</event>
<event>
 8    1  0.2285268E-015  0.9000782E+02  0.7816164E-02  0.1186339E+00
        -11   -1    0    0    0    0  0.00000000000E+00  0.00000000000E+00  0.45593999997E+02  0.45594000000E+02  0.51100000000E-03 0.  1.
         11   -1    0    0    0    0 -0.00000000000E+00 -0.00000000000E+00 -0.45593999997E+02  0.45594000000E+02  0.51100000000E-03 0. -1.
    9900012    2    1    2    0    0  0.32726661724E+00  0.65510082346E+00  0.92550807034E+00  0.90007819626E+02  0.90000082045E+02 0.  0.
         23    2    3    3    0    0 -0.23416761916E+02 -0.11731839122E+02 -0.88395010162E+01  0.61502196064E+02  0.54939990486E+02 0.  0.
         12    1    1    2    0    0 -0.32726661724E+00 -0.65510082346E+00 -0.92550807034E+00  0.11801803743E+01  0.00000000000E+00 0. -1.
         11    1    4    4    0    0  0.13289379732E+02 -0.46850394912E+00  0.11916415434E+02  0.17855757241E+02  0.51100000000E-03 0. -1.
        -11    1    4    4    0    0 -0.36706141648E+02 -0.11263335173E+02 -0.20755916450E+02  0.43646438822E+02  0.51100000000E-03 0.  1.
         12    1    3    3    0    0  0.23744028533E+02  0.12386939946E+02  0.97650090865E+01  0.28505623562E+02  0.00000000000E+00 0. -1.
</event>
<event>
 7    1  0.2285268E-015  0.9000776E+02  0.7816164E-02  0.1186339E+00
        -11   -1    0    0    0    0  0.00000000000E+00  0.00000000000E+00  0.45593999997E+02  0.45594000000E+02  0.51100000000E-03 0. -1.
         11   -1    0    0    0    0 -0.00000000000E+00 -0.00000000000E+00 -0.45593999997E+02  0.45594000000E+02  0.51100000000E-03 0.  1.
    9900012    2    1    2    0    0  0.10545639136E+01 -0.34649037590E+00 -0.40102051892E+00  0.90007755074E+02  0.90000016641E+02 0.  0.
         12    1    1    2    0    0 -0.10545639136E+01  0.34649037590E+00  0.40102051892E+00  0.11802449259E+01  0.00000000000E+00 0. -1.
         11    1    3    3    0    0 -0.63531848132E+01  0.41255950487E+02  0.12672209396E+02  0.43623403112E+02  0.51100000000E-03 0. -1.
        -11    1    3    3    0    0 -0.11270257896E+01 -0.80947330033E+01  0.23777141884E+01  0.85116634419E+01  0.51100000000E-03 0.  1.
        -12    1    3    3    0    0  0.85347745165E+01 -0.33507707859E+02 -0.15450944104E+02  0.37872688520E+02  0.00000000000E+00 0.  1.
</event>
<event>
 7    1  0.2285268E-015  0.9000777E+02  0.7816164E-02  0.1186339E+00
        -11   -1    0    0    0    0  0.00000000000E+00  0.00000000000E+00  0.45593999997E+02  0.45594000000E+02  0.51100000000E-03 0.  1.
         11   -1    0    0    0    0 -0.00000000000E+00 -0.00000000000E+00 -0.45593999997E+02  0.45594000000E+02  0.51100000000E-03 0. -1.
    9900012    2    1    2    0    0  0.74227682202E+00 -0.26283553420E+00  0.87913410480E+00  0.90007773677E+02  0.90000035490E+02 0.  0.
         12    1    1    2    0    0 -0.74227682202E+00  0.26283553420E+00 -0.87913410480E+00  0.11802263227E+01  0.00000000000E+00 0. -1.
         11    1    3    3    0    0  0.40333207356E+02  0.68056186704E+01 -0.14117614995E+02  0.43271134888E+02  0.51100000000E-03 0. -1.
        -11    1    3    3    0    0 -0.85180134611E+01 -0.17902938670E+00 -0.42718591112E+01  0.95308648806E+01  0.51100000000E-03 0.  1.
        -12    1    3    3    0    0 -0.31072917073E+02 -0.68894248179E+01  0.19268608211E+02  0.37205773908E+02  0.00000000000E+00 0.  1.
</event>
<event>
 7    1  0.2285268E-015  0.9000781E+02  0.7816164E-02  0.1186339E+00
        -11   -1    0    0    0    0  0.00000000000E+00  0.00000000000E+00  0.45593999997E+02  0.45594000000E+02  0.51100000000E-03 0.  1.
         11   -1    0    0    0    0 -0.00000000000E+00 -0.00000000000E+00 -0.45593999997E+02  0.45594000000E+02  0.51100000000E-03 0. -1.
    9900012    2    1    2    0    0 -0.42750187367E+00 -0.10096951299E+01 -0.43658316143E+00  0.90007810624E+02  0.90000072924E+02 0.  0.
         12    1    1    2    0    0  0.42750187367E+00  0.10096951299E+01  0.43658316143E+00  0.11801893764E+01  0.00000000000E+00 0. -1.
         11    1    3    3    0    0 -0.38072277604E+02 -0.99652040663E+01  0.42998793298E+01  0.39589046169E+02  0.51100000000E-03 0. -1.
        -11    1    3    3    0    0 -0.27281531131E+01  0.76145051605E+01  0.41001580646E+01  0.90683407889E+01  0.51100000000E-03 0.  1.
        -12    1    3    3    0    0  0.40372928843E+02  0.13410037759E+01 -0.88366205558E+01  0.41350423666E+02  0.00000000000E+00 0.  1.
</event>
<event>
 7    1  0.2285268E-015  0.9000772E+02  0.7816164E-02  0.1186339E+00
        -11   -1    0    0    0    0  0.00000000000E+00  0.00000000000E+00  0.45593999997E+02  0.45594000000E+02  0.51100000000E-03 0. -1.
         11   -1    0    0    0    0 -0.00000000000E+00 -0.00000000000E+00 -0.45593999997E+02  0.45594000000E+02  0.51100000000E-03 0.  1.
    9900012    2    1    2    0    0  0.68612733366E-01  0.75419932724E+00  0.90528821826E+00  0.90007715674E+02  0.89999976721E+02 0.  0.
         12    1    1    2    0    0 -0.68612733366E-01 -0.75419932724E+00 -0.90528821826E+00  0.11802843261E+01  0.00000000000E+00 0. -1.
         11    1    3    3    0    0  0.93670156398E+01 -0.25400703315E+01 -0.58131287241E+01  0.11313063471E+02  0.51100000000E-03 0. -1.
        -11    1    3    3    0    0  0.19715841122E+02  0.31688866038E+02 -0.11650769955E+01  0.37339737902E+02  0.51100000000E-03 0.  1.
         12    1    3    3    0    0 -0.29014244028E+02 -0.28394596380E+02  0.78834939378E+01  0.41354914300E+02  0.00000000000E+00 0. -1.
</event>
<event>
 7    1  0.2285268E-015  0.9000772E+02  0.7816164E-02  0.1186339E+00
        -11   -1    0    0    0    0  0.00000000000E+00  0.00000000000E+00  0.45593999997E+02  0.45594000000E+02  0.51100000000E-03 0.  1.
         11   -1    0    0    0    0 -0.00000000000E+00 -0.00000000000E+00 -0.45593999997E+02  0.45594000000E+02  0.51100000000E-03 0. -1.
    9900012    2    1    2    0    0 -0.35046163158E+00 -0.59151585565E+00  0.95934390414E+00  0.90007722453E+02  0.89999983589E+02 0.  0.
         12    1    1    2    0    0  0.35046163158E+00  0.59151585565E+00 -0.95934390414E+00  0.11802775475E+01  0.00000000000E+00 0. -1.
         11    1    3    3    0    0  0.13777123383E+02 -0.15075879764E+02 -0.32763718087E+02  0.38607674141E+02  0.51100000000E-03 0. -1.
        -11    1    3    3    0    0  0.71497562790E+01 -0.59101625511E+01  0.91050651916E+01  0.12998124812E+02  0.51100000000E-03 0.  1.
        -12    1    3    3    0    0 -0.21277341294E+02  0.20394526460E+02  0.24617996800E+02  0.38401923500E+02  0.00000000000E+00 0.  1.
</event>
<event>
 7    1  0.2285268E-015  0.9000775E+02  0.7816164E-02  0.1186339E+00
        -11   -1    0    0    0    0  0.00000000000E+00  0.00000000000E+00  0.45593999997E+02  0.45594000000E+02  0.51100000000E-03 0.  1.
         11   -1    0    0    0    0 -0.00000000000E+00 -0.00000000000E+00 -0.45593999997E+02  0.45594000000E+02  0.51100000000E-03 0. -1.
    9900012    2    1    2    0    0  0.37147705626E+00  0.67301668597E+00  0.89557355096E+00  0.90007746363E+02  0.90000007815E+02 0.  0.
         12    1    1    2    0    0 -0.37147705626E+00 -0.67301668597E+00 -0.89557355096E+00  0.11802536372E+01  0.00000000000E+00 0. -1.
         11    1    3    3    0    0 -0.31960228967E+01  0.47967252773E+01 -0.72162142739E+01  0.92356312427E+01  0.51100000000E-03 0. -1.
        -11    1    3    3    0    0 -0.54082259189E+01 -0.36270169090E+02  0.23980260500E+02  0.43815830099E+02  0.51100000000E-03 0.  1.
         12    1    3    3    0    0  0.89757258719E+01  0.32146460498E+02 -0.15868472675E+02  0.36956285021E+02  0.00000000000E+00 0. -1.
</event>
<event>
 7    1  0.2285268E-015  0.9000774E+02  0.7816164E-02  0.1186339E+00
        -11   -1    0    0    0    0  0.00000000000E+00  0.00000000000E+00  0.45593999997E+02  0.45594000000E+02  0.51100000000E-03 0.  1.
         11   -1    0    0    0    0 -0.00000000000E+00 -0.00000000000E+00 -0.45593999997E+02  0.45594000000E+02  0.51100000000E-03 0. -1.
    9900012    2    1    2    0    0 -0.45877298325E+00 -0.73916521524E+00  0.79760523069E+00  0.90007740719E+02  0.90000002097E+02 0.  0.
         12    1    1    2    0    0  0.45877298325E+00  0.73916521524E+00 -0.79760523069E+00  0.11802592807E+01  0.00000000000E+00 0. -1.
         11    1    3    3    0    0 -0.34067118878E+02  0.16269512718E+02  0.19817526671E+02  0.42638011168E+02  0.51100000000E-03 0. -1.
        -11    1    3    3    0    0  0.21783976967E+01 -0.64334070844E+01  0.31428186399E+01  0.74840799370E+01  0.51100000000E-03 0.  1.
        -12    1    3    3    0    0  0.31429948199E+02 -0.10575270849E+02 -0.22162740080E+02  0.39885649614E+02  0.00000000000E+00 0.  1.
</event>
<event>
 7    1  0.2714786E-015  0.9000782E+02  0.7816164E-02  0.1186339E+00
        -11   -1    0    0    0    0  0.00000000000E+00  0.00000000000E+00  0.45593999997E+02  0.45594000000E+02  0.51100000000E-03 0. -1.
         11   -1    0    0    0    0 -0.00000000000E+00 -0.00000000000E+00 -0.45593999997E+02  0.45594000000E+02  0.51100000000E-03 0.  1.
    9900012    2    1    2    0    0 -0.18920711937E+00  0.26681232021E+00 -0.11339495294E+01  0.90007817945E+02  0.90000080342E+02 0.  0.
         12    1    1    2    0    0  0.18920711937E+00 -0.26681232021E+00  0.11339495294E+01  0.11801820552E+01  0.00000000000E+00 0. -1.
         11    1    3    3    0    0  0.29851130964E+01 -0.87709232474E+01  0.39041704868E+01  0.10053981413E+02  0.51100000000E-03 0. -1.
        -11    1    3    3    0    0 -0.33160969969E+01 -0.33185116369E+02 -0.15004809511E+02  0.36570380862E+02  0.51100000000E-03 0.  1.
         12    1    3    3    0    0  0.14177678119E+00  0.42222851936E+02  0.99666894953E+01  0.43383455669E+02  0.00000000000E+00 0. -1.
</event>
<event>
 7    1  0.2285268E-015  0.9000767E+02  0.7816164E-02  0.1186339E+00
        -11   -1    0    0    0    0  0.00000000000E+00  0.00000000000E+00  0.45593999997E+02  0.45594000000E+02  0.51100000000E-03 0.  1.
         11   -1    0    0    0    0 -0.00000000000E+00 -0.00000000000E+00 -0.45593999997E+02  0.45594000000E+02  0.51100000000E-03 0. -1.
    9900012    2    1    2    0    0 -0.58538882455E+00  0.90550204965E+00 -0.48017364508E+00  0.90007669213E+02  0.89999929646E+02 0.  0.
         12    1    1    2    0    0  0.58538882455E+00 -0.90550204965E+00  0.48017364508E+00  0.11803307872E+01  0.00000000000E+00 0. -1.
         11    1    3    3    0    0 -0.78161357440E+01  0.65748047015E+01  0.25542576281E+01  0.10528260403E+02  0.51100000000E-03 0. -1.
        -11    1    3    3    0    0 -0.29996027329E+02  0.17534455461E+02 -0.69689958460E+01  0.35437066571E+02  0.51100000000E-03 0.  1.
         12    1    3    3    0    0  0.37226774248E+02 -0.23203758113E+02  0.39345645728E+01  0.44042342238E+02  0.00000000000E+00 0. -1.
</event>
<event>
 7    1  0.2285268E-015  0.9000774E+02  0.7816164E-02  0.1186339E+00
        -11   -1    0    0    0    0  0.00000000000E+00  0.00000000000E+00  0.45593999997E+02  0.45594000000E+02  0.51100000000E-03 0.  1.
         11   -1    0    0    0    0 -0.00000000000E+00 -0.00000000000E+00 -0.45593999997E+02  0.45594000000E+02  0.51100000000E-03 0. -1.
    9900012    2    1    2    0    0  0.58080192297E+00 -0.10092989584E+01  0.19233996422E+00  0.90007741586E+02  0.90000002975E+02 0.  0.
         12    1    1    2    0    0 -0.58080192297E+00  0.10092989584E+01 -0.19233996422E+00  0.11802584137E+01  0.00000000000E+00 0. -1.
         11    1    3    3    0    0 -0.19279345110E+02  0.34433276682E+02 -0.65511240271E+01  0.40003261332E+02  0.51100000000E-03 0. -1.
        -11    1    3    3    0    0 -0.55036781295E+01 -0.33662865755E+01  0.64327981953E+01  0.91106120071E+01  0.51100000000E-03 0.  1.
        -12    1    3    3    0    0  0.25363825162E+02 -0.32076289065E+02  0.31066579609E+00  0.40893868248E+02  0.00000000000E+00 0.  1.
</event>
<event>
 7    1  0.2285268E-015  0.9000780E+02  0.7816164E-02  0.1186339E+00
        -11   -1    0    0    0    0  0.00000000000E+00  0.00000000000E+00  0.45593999997E+02  0.45594000000E+02  0.51100000000E-03 0.  1.
         11   -1    0    0    0    0 -0.00000000000E+00 -0.00000000000E+00 -0.45593999997E+02  0.45594000000E+02  0.51100000000E-03 0. -1.
    9900012    2    1    2    0    0  0.11483734728E+01 -0.10852860258E+00  0.24967617261E+00  0.90007797356E+02  0.90000059481E+02 0.  0.
         12    1    1    2    0    0 -0.11483734728E+01  0.10852860258E+00 -0.24967617261E+00  0.11802026444E+01  0.00000000000E+00 0. -1.
         11    1    3    3    0    0  0.62704044742E+01 -0.75966690302E+01 -0.62685296385E+01  0.11675693415E+02  0.51100000000E-03 0. -1.
        -11    1    3    3    0    0  0.33899057549E+01 -0.24320847315E+02  0.29346266895E+02  0.38264846218E+02  0.51100000000E-03 0.  1.
         12    1    3    3    0    0 -0.85119367564E+01  0.31808987743E+02 -0.22828061084E+02  0.40067257723E+02  0.00000000000E+00 0. -1.
</event>
<event>
 7    1  0.2693366E-015  0.9000738E+02  0.7816164E-02  0.1186340E+00
        -11   -1    0    0    0    0  0.00000000000E+00  0.00000000000E+00  0.45593999997E+02  0.45594000000E+02  0.51100000000E-03 0. -1.
         11   -1    0    0    0    0 -0.00000000000E+00 -0.00000000000E+00 -0.45593999997E+02  0.45594000000E+02  0.51100000000E-03 0.  1.
    9900012    2    1    2    0    0 -0.78292189822E+00  0.11197701251E+00 -0.87656703745E+00  0.90007375029E+02  0.89999631579E+02 0.  0.
         12    1    1    2    0    0  0.78292189822E+00 -0.11197701251E+00  0.87656703745E+00  0.11806249706E+01  0.00000000000E+00 0. -1.
         11    1    3    3    0    0 -0.13788278620E+01 -0.79103838783E+01  0.62140922977E+01  0.10153338501E+02  0.51100000000E-03 0. -1.
        -11    1    3    3    0    0  0.14815888496E+02  0.71641666965E+01 -0.40401546132E+02  0.43624772395E+02  0.51100000000E-03 0.  1.
         12    1    3    3    0    0 -0.14219982532E+02  0.85819419428E+00  0.33310886797E+02  0.36229264134E+02  0.00000000000E+00 0. -1.
</event>
<event>
 7    1  0.2285268E-015  0.9000772E+02  0.7816164E-02  0.1186339E+00
        -11   -1    0    0    0    0  0.00000000000E+00  0.00000000000E+00  0.45593999997E+02  0.45594000000E+02  0.51100000000E-03 0.  1.
         11   -1    0    0    0    0 -0.00000000000E+00 -0.00000000000E+00 -0.45593999997E+02  0.45594000000E+02  0.51100000000E-03 0. -1.
    9900012    2    1    2    0    0 -0.39066709927E+00 -0.11022838076E+01  0.15938099129E+00  0.90007723475E+02  0.89999984625E+02 0.  0.
         12    1    1    2    0    0  0.39066709927E+00  0.11022838076E+01 -0.15938099129E+00  0.11802765250E+01  0.00000000000E+00 0. -1.
         11    1    3    3    0    0  0.23174308625E+02 -0.30855174147E+02 -0.12973833928E+02  0.40711309472E+02  0.51100000000E-03 0. -1.
        -11    1    3    3    0    0  0.59026418081E+01  0.76947806382E+01 -0.12477131720E+01  0.97779147985E+01  0.51100000000E-03 0.  1.
        -12    1    3    3    0    0 -0.29467617532E+02  0.22058109701E+02  0.14380928092E+02  0.39518499205E+02  0.00000000000E+00 0.  1.
</event>
<event>
 7    1  0.2285268E-015  0.9000788E+02  0.7816164E-02  0.1186339E+00
        -11   -1    0    0    0    0  0.00000000000E+00  0.00000000000E+00  0.45593999997E+02  0.45594000000E+02  0.51100000000E-03 0.  1.
         11   -1    0    0    0    0 -0.00000000000E+00 -0.00000000000E+00 -0.45593999997E+02  0.45594000000E+02  0.51100000000E-03 0. -1.
    9900012    2    1    2    0    0  0.11783084127E+01  0.58092725603E-01 -0.30066922735E-01  0.90007877337E+02  0.90000140518E+02 0.  0.
         12    1    1    2    0    0 -0.11783084127E+01 -0.58092725603E-01  0.30066922735E-01  0.11801226631E+01  0.00000000000E+00 0. -1.
         11    1    3    3    0    0 -0.71873365348E+01 -0.45485272417E+01 -0.31219244779E+01  0.90605363660E+01  0.51100000000E-03 0. -1.
        -11    1    3    3    0    0  0.14118749143E+02 -0.34773201431E+02 -0.10366350237E+02  0.38935534318E+02  0.51100000000E-03 0.  1.
         12    1    3    3    0    0 -0.57531041956E+01  0.39379821398E+02  0.13458207793E+02  0.42011806653E+02  0.00000000000E+00 0. -1.
</event>
<event>
 7    1  0.2285268E-015  0.9000773E+02  0.7816164E-02  0.1186339E+00
        -11   -1    0    0    0    0  0.00000000000E+00  0.00000000000E+00  0.45593999997E+02  0.45594000000E+02  0.51100000000E-03 0.  1.
         11   -1    0    0    0    0 -0.00000000000E+00 -0.00000000000E+00 -0.45593999997E+02  0.45594000000E+02  0.51100000000E-03 0. -1.
    9900012    2    1    2    0    0  0.83290598555E+00 -0.16481501397E-01 -0.83608602330E+00  0.90007727210E+02  0.89999988409E+02 0.  0.
         12    1    1    2    0    0 -0.83290598555E+00  0.16481501397E-01  0.83608602330E+00  0.11802727901E+01  0.00000000000E+00 0. -1.
         11    1    3    3    0    0 -0.92902342109E+01 -0.22197707567E+01 -0.26963816945E+01  0.99250344286E+01  0.51100000000E-03 0. -1.
        -11    1    3    3    0    0 -0.30699620013E+02 -0.16435946969E+02 -0.29587688130E+01  0.34947980412E+02  0.51100000000E-03 0.  1.
         12    1    3    3    0    0  0.40822760210E+02  0.18639236224E+02  0.48190644842E+01  0.45134712369E+02  0.00000000000E+00 0. -1.
</event>
<event>
 7    1  0.2285268E-015  0.9000783E+02  0.7816164E-02  0.1186339E+00
        -11   -1    0    0    0    0  0.00000000000E+00  0.00000000000E+00  0.45593999997E+02  0.45594000000E+02  0.51100000000E-03 0. -1.
         11   -1    0    0    0    0 -0.00000000000E+00 -0.00000000000E+00 -0.45593999997E+02  0.45594000000E+02  0.51100000000E-03 0.  1.
    9900012    2    1    2    0    0  0.10587577250E+01 -0.49634886635E+00  0.15958643045E+00  0.90007831391E+02  0.90000093965E+02 0.  0.
         12    1    1    2    0    0 -0.10587577250E+01  0.49634886635E+00 -0.15958643045E+00  0.11801686092E+01  0.00000000000E+00 0. -1.
         11    1    3    3    0    0  0.76798791049E+01 -0.58404085018E+01 -0.90321850364E-01  0.96487860808E+01  0.51100000000E-03 0. -1.
        -11    1    3    3    0    0  0.25376775118E+02 -0.20058034361E+02  0.16595630368E+02  0.36355472839E+02  0.51100000000E-03 0.  1.
         12    1    3    3    0    0 -0.31997896497E+02  0.25402093996E+02 -0.16345722087E+02  0.44003572471E+02  0.00000000000E+00 0. -1.
</event>
<event>
 7    1  0.2285268E-015  0.9000782E+02  0.7816164E-02  0.1186339E+00
        -11   -1    0    0    0    0  0.00000000000E+00  0.00000000000E+00  0.45593999997E+02  0.45594000000E+02  0.51100000000E-03 0. -1.
         11   -1    0    0    0    0 -0.00000000000E+00 -0.00000000000E+00 -0.45593999997E+02  0.45594000000E+02  0.51100000000E-03 0.  1.
    9900012    2    1    2    0    0 -0.10887610691E+01 -0.45514625837E+00 -0.16618183682E-01  0.90007815715E+02  0.90000078083E+02 0.  0.
         12    1    1    2    0    0  0.10887610691E+01  0.45514625837E+00  0.16618183682E-01  0.11801842848E+01  0.00000000000E+00 0. -1.
         11    1    3    3    0    0 -0.15148861352E+02  0.34107241227E+00  0.33501092189E+02  0.36768566858E+02  0.51100000000E-03 0. -1.
        -11    1    3    3    0    0 -0.45682436577E+01 -0.30151723110E+01  0.68245381802E+01  0.87483961853E+01  0.51100000000E-03 0.  1.
        -12    1    3    3    0    0  0.18628343941E+02  0.22189536403E+01 -0.40342248553E+02  0.44490852672E+02  0.00000000000E+00 0.  1.
</event>
<event>
 7    1  0.2285268E-015  0.9000771E+02  0.7816164E-02  0.1186339E+00
        -11   -1    0    0    0    0  0.00000000000E+00  0.00000000000E+00  0.45593999997E+02  0.45594000000E+02  0.51100000000E-03 0.  1.
         11   -1    0    0    0    0 -0.00000000000E+00 -0.00000000000E+00 -0.45593999997E+02  0.45594000000E+02  0.51100000000E-03 0. -1.
    9900012    2    1    2    0    0 -0.59039727049E+00 -0.64544329181E+00  0.79241924296E+00  0.90007705869E+02  0.89999966786E+02 0.  0.
         12    1    1    2    0    0  0.59039727049E+00  0.64544329181E+00 -0.79241924296E+00  0.11802941314E+01  0.00000000000E+00 0. -1.
         11    1    3    3    0    0  0.17379896071E+02 -0.15678220482E+02 -0.24309039516E+02  0.33746063287E+02  0.51100000000E-03 0. -1.
        -11    1    3    3    0    0  0.90258275370E+01 -0.95075260175E+01  0.25023268499E+01  0.13346169998E+02  0.51100000000E-03 0.  1.
        -12    1    3    3    0    0 -0.26996120879E+02  0.24540303208E+02  0.22599131909E+02  0.42915472583E+02  0.00000000000E+00 0.  1.
</event>
<event>
 7    1  0.2285268E-015  0.9000797E+02  0.7816164E-02  0.1186339E+00
        -11   -1    0    0    0    0  0.00000000000E+00  0.00000000000E+00  0.45593999997E+02  0.45594000000E+02  0.51100000000E-03 0.  1.
         11   -1    0    0    0    0 -0.00000000000E+00 -0.00000000000E+00 -0.45593999997E+02  0.45594000000E+02  0.51100000000E-03 0. -1.
    9900012    2    1    2    0    0  0.24913327427E+00  0.90485512143E+00  0.71528830450E+00  0.90007971383E+02  0.90000235805E+02 0.  0.
         12    1    1    2    0    0 -0.24913327427E+00 -0.90485512143E+00 -0.71528830450E+00  0.11800286173E+01  0.00000000000E+00 0. -1.
         11    1    3    3    0    0  0.25975324982E+01  0.76476049445E+01 -0.65865295733E+01  0.10421871643E+02  0.51100000000E-03 0. -1.
        -11    1    3    3    0    0  0.29665343912E+02  0.31814253323E+00  0.28017874042E+02  0.40806067075E+02  0.51100000000E-03 0.  1.
         12    1    3    3    0    0 -0.32013743136E+02 -0.70608923563E+01 -0.20716056164E+02  0.38780032664E+02  0.00000000000E+00 0. -1.
</event>
<event>
 7    1  0.2285268E-015  0.9000775E+02  0.7816164E-02  0.1186339E+00
        -11   -1    0    0    0    0  0.00000000000E+00  0.00000000000E+00  0.45593999997E+02  0.45594000000E+02  0.51100000000E-03 0.  1.
         11   -1    0    0    0    0 -0.00000000000E+00 -0.00000000000E+00 -0.45593999997E+02  0.45594000000E+02  0.51100000000E-03 0. -1.
    9900012    2    1    2    0    0  0.32443305891E+00  0.79585501840E+00  0.80892196529E+00  0.90007747160E+02  0.90000008623E+02 0.  0.
         12    1    1    2    0    0 -0.32443305891E+00 -0.79585501840E+00 -0.80892196529E+00  0.11802528398E+01  0.00000000000E+00 0. -1.
         11    1    3    3    0    0 -0.24286884510E+02 -0.14698269195E+02 -0.23916707075E+02  0.37120085588E+02  0.51100000000E-03 0. -1.
        -11    1    3    3    0    0 -0.56691857895E+01  0.50707499911E+01 -0.50740610245E+01  0.91432088748E+01  0.51100000000E-03 0.  1.
        -12    1    3    3    0    0  0.30280503359E+02  0.10423374222E+02  0.29799690064E+02  0.43744452697E+02  0.00000000000E+00 0.  1.
</event>
<event>
 7    1  0.2285268E-015  0.9000774E+02  0.7816164E-02  0.1186339E+00
        -11   -1    0    0    0    0  0.00000000000E+00  0.00000000000E+00  0.45593999997E+02  0.45594000000E+02  0.51100000000E-03 0. -1.
         11   -1    0    0    0    0 -0.00000000000E+00 -0.00000000000E+00 -0.45593999997E+02  0.45594000000E+02  0.51100000000E-03 0.  1.
    9900012    2    1    2    0    0  0.85341358531E+00  0.43313034531E+00 -0.69073058037E+00  0.90007735039E+02  0.89999996341E+02 0.  0.
         12    1    1    2    0    0 -0.85341358531E+00 -0.43313034531E+00  0.69073058037E+00  0.11802649610E+01  0.00000000000E+00 0. -1.
         11    1    3    3    0    0  0.76426130629E+01 -0.57421167821E+01  0.52803784064E+01  0.10920798320E+02  0.51100000000E-03 0. -1.
        -11    1    3    3    0    0  0.32857472499E+02 -0.61409432699E+01  0.95514730604E+01  0.34764282262E+02  0.51100000000E-03 0.  1.
         12    1    3    3    0    0 -0.39646671977E+02  0.12316190397E+02 -0.15522582047E+02  0.44322654457E+02  0.00000000000E+00 0. -1.
</event>
<event>
 7    1  0.2285268E-015  0.9000775E+02  0.7816164E-02  0.1186339E+00
        -11   -1    0    0    0    0  0.00000000000E+00  0.00000000000E+00  0.45593999997E+02  0.45594000000E+02  0.51100000000E-03 0. -1.
         11   -1    0    0    0    0 -0.00000000000E+00 -0.00000000000E+00 -0.45593999997E+02  0.45594000000E+02  0.51100000000E-03 0.  1.
    9900012    2    1    2    0    0 -0.50423435040E+00  0.87235696010E+00 -0.61460052286E+00  0.90007748862E+02  0.90000010347E+02 0.  0.
         12    1    1    2    0    0  0.50423435040E+00 -0.87235696010E+00  0.61460052286E+00  0.11802511380E+01  0.00000000000E+00 0. -1.
         11    1    3    3    0    0 -0.27288175910E+01 -0.82692754902E+01 -0.20480897650E+01  0.89455035925E+01  0.51100000000E-03 0. -1.
        -11    1    3    3    0    0  0.34333944459E+02 -0.89197401630E+01  0.19007103375E+02  0.40244893908E+02  0.51100000000E-03 0.  1.
         12    1    3    3    0    0 -0.32109361218E+02  0.18061372613E+02 -0.17573614133E+02  0.40817351362E+02  0.00000000000E+00 0. -1.
</event>
<event>
 7    1  0.2285268E-015  0.9000769E+02  0.7816164E-02  0.1186339E+00
        -11   -1    0    0    0    0  0.00000000000E+00  0.00000000000E+00  0.45593999997E+02  0.45594000000E+02  0.51100000000E-03 0.  1.
         11   -1    0    0    0    0 -0.00000000000E+00 -0.00000000000E+00 -0.45593999997E+02  0.45594000000E+02  0.51100000000E-03 0. -1.
    9900012    2    1    2    0    0 -0.19902764576E+00 -0.14533975011E+00  0.11542904365E+01  0.90007694083E+02  0.89999954844E+02 0.  0.
         12    1    1    2    0    0  0.19902764576E+00  0.14533975011E+00 -0.11542904365E+01  0.11803059174E+01  0.00000000000E+00 0. -1.
         11    1    3    3    0    0  0.77712020931E+01  0.54087220882E+01 -0.33104160220E+01  0.10030189983E+02  0.51100000000E-03 0. -1.
        -11    1    3    3    0    0  0.33458019663E+02 -0.91415577027E+01 -0.97551038922E+01  0.36030115309E+02  0.51100000000E-03 0.  1.
         12    1    3    3    0    0 -0.41428249402E+02  0.35874958644E+01  0.14219810351E+02  0.43947388790E+02  0.00000000000E+00 0. -1.
</event>
<event>
 7    1  0.2285268E-015  0.9000772E+02  0.7816164E-02  0.1186339E+00
        -11   -1    0    0    0    0  0.00000000000E+00  0.00000000000E+00  0.45593999997E+02  0.45594000000E+02  0.51100000000E-03 0.  1.
         11   -1    0    0    0    0 -0.00000000000E+00 -0.00000000000E+00 -0.45593999997E+02  0.45594000000E+02  0.51100000000E-03 0. -1.
    9900012    2    1    2    0    0 -0.10612516216E+01  0.43236875302E+00  0.28261892385E+00  0.90007715628E+02  0.89999976674E+02 0.  0.
         12    1    1    2    0    0  0.10612516216E+01 -0.43236875302E+00 -0.28261892385E+00  0.11802843721E+01  0.00000000000E+00 0. -1.
         11    1    3    3    0    0  0.40968406816E+01  0.40439441069E+01 -0.80292211585E+01  0.98795738867E+01  0.51100000000E-03 0. -1.
        -11    1    3    3    0    0 -0.12679843861E+02 -0.37686388182E+02  0.18386766220E+02  0.43807710130E+02  0.51100000000E-03 0.  1.
         12    1    3    3    0    0  0.75217515583E+01  0.34074812828E+02 -0.10074926137E+02  0.36320431611E+02  0.00000000000E+00 0. -1.
</event>
<event>
 7    1  0.2285268E-015  0.9000791E+02  0.7816164E-02  0.1186339E+00
        -11   -1    0    0    0    0  0.00000000000E+00  0.00000000000E+00  0.45593999997E+02  0.45594000000E+02  0.51100000000E-03 0.  1.
         11   -1    0    0    0    0 -0.00000000000E+00 -0.00000000000E+00 -0.45593999997E+02  0.45594000000E+02  0.51100000000E-03 0. -1.
    9900012    2    1    2    0    0 -0.18356246217E+00  0.56099495047E+00  0.10218580591E+01  0.90007913391E+02  0.90000177048E+02 0.  0.
         12    1    1    2    0    0  0.18356246217E+00 -0.56099495047E+00 -0.10218580591E+01  0.11800866091E+01  0.00000000000E+00 0. -1.
         11    1    3    3    0    0 -0.35159640896E+02  0.10095412447E+02 -0.10791008336E+02  0.38138740955E+02  0.51100000000E-03 0. -1.
        -11    1    3    3    0    0 -0.66324340476E+01  0.67511683944E+00  0.53368300041E+01  0.85397142163E+01  0.51100000000E-03 0.  1.
        -12    1    3    3    0    0  0.41608512482E+02 -0.10209534336E+02  0.64760363913E+01  0.43329458220E+02  0.00000000000E+00 0.  1.
</event>
<event>
 7    1  0.2285268E-015  0.9000743E+02  0.7816164E-02  0.1186340E+00
        -11   -1    0    0    0    0  0.00000000000E+00  0.00000000000E+00  0.45593999997E+02  0.45594000000E+02  0.51100000000E-03 0.  1.
         11   -1    0    0    0    0 -0.00000000000E+00 -0.00000000000E+00 -0.45593999997E+02  0.45594000000E+02  0.51100000000E-03 0. -1.
    9900012    2    1    2    0    0  0.17078701359E+00 -0.10796637559E+01  0.44597532542E+00  0.90007434025E+02  0.89999691354E+02 0.  0.
         12    1    1    2    0    0 -0.17078701359E+00  0.10796637559E+01 -0.44597532542E+00  0.11805659747E+01  0.00000000000E+00 0. -1.
         11    1    3    3    0    0  0.36350850639E+01 -0.85802306982E-01  0.96152829211E+01  0.10279828373E+02  0.51100000000E-03 0. -1.
        -11    1    3    3    0    0 -0.19639183754E+02 -0.13521226209E+02  0.28318979536E+02  0.37020071569E+02  0.51100000000E-03 0.  1.
         12    1    3    3    0    0  0.16174885704E+02  0.12527364761E+02 -0.37488287132E+02  0.42707534083E+02  0.00000000000E+00 0. -1.
</event>
<event>
 7    1  0.2285268E-015  0.9000775E+02  0.7816164E-02  0.1186339E+00
        -11   -1    0    0    0    0  0.00000000000E+00  0.00000000000E+00  0.45593999997E+02  0.45594000000E+02  0.51100000000E-03 0. -1.
         11   -1    0    0    0    0 -0.00000000000E+00 -0.00000000000E+00 -0.45593999997E+02  0.45594000000E+02  0.51100000000E-03 0.  1.
    9900012    2    1    2    0    0 -0.86942596743E+00  0.55272124414E-01 -0.79626945390E+00  0.90007745128E+02  0.90000006563E+02 0.  0.
         12    1    1    2    0    0  0.86942596743E+00 -0.55272124414E-01  0.79626945390E+00  0.11802548724E+01  0.00000000000E+00 0. -1.
         11    1    3    3    0    0  0.37300811226E+01  0.56183175007E+01 -0.67552341115E+01  0.95452702887E+01  0.51100000000E-03 0. -1.
        -11    1    3    3    0    0  0.18989349298E+02  0.28723587933E+02 -0.10053727726E+02  0.35870842364E+02  0.51100000000E-03 0.  1.
         12    1    3    3    0    0 -0.23588856388E+02 -0.34286633309E+02  0.16012692384E+02  0.44591632474E+02  0.00000000000E+00 0. -1.
</event>
<event>
 7    1  0.2285268E-015  0.9000781E+02  0.7816164E-02  0.1186339E+00
        -11   -1    0    0    0    0  0.00000000000E+00  0.00000000000E+00  0.45593999997E+02  0.45594000000E+02  0.51100000000E-03 0. -1.
         11   -1    0    0    0    0 -0.00000000000E+00 -0.00000000000E+00 -0.45593999997E+02  0.45594000000E+02  0.51100000000E-03 0.  1.
    9900012    2    1    2    0    0  0.29772580626E+00 -0.14712824520E+00 -0.11325007442E+01  0.90007811324E+02  0.90000073633E+02 0.  0.
         12    1    1    2    0    0 -0.29772580626E+00  0.14712824520E+00  0.11325007442E+01  0.11801886764E+01  0.00000000000E+00 0. -1.
         11    1    3    3    0    0  0.11561974839E+02  0.22247230302E+01  0.89354813789E+01  0.14780780848E+02  0.51100000000E-03 0. -1.
        -11    1    3    3    0    0  0.20446346770E+02  0.14077925775E+02 -0.26144946582E+02  0.36052729749E+02  0.51100000000E-03 0.  1.
         12    1    3    3    0    0 -0.31710595803E+02 -0.16449777051E+02  0.16076964459E+02  0.39174300726E+02  0.00000000000E+00 0. -1.
</event>
<event>
 7    1  0.2285268E-015  0.9000775E+02  0.7816164E-02  0.1186339E+00
        -11   -1    0    0    0    0  0.00000000000E+00  0.00000000000E+00  0.45593999997E+02  0.45594000000E+02  0.51100000000E-03 0.  1.
         11   -1    0    0    0    0 -0.00000000000E+00 -0.00000000000E+00 -0.45593999997E+02  0.45594000000E+02  0.51100000000E-03 0. -1.
    9900012    2    1    2    0    0  0.10751595911E+01  0.34827023219E+00 -0.34019431234E+00  0.90007748980E+02  0.90000010466E+02 0.  0.
         12    1    1    2    0    0 -0.10751595911E+01 -0.34827023219E+00  0.34019431234E+00  0.11802510204E+01  0.00000000000E+00 0. -1.
         11    1    3    3    0    0  0.26060936545E+02  0.27115553331E+01 -0.22079896876E+02  0.34264366217E+02  0.51100000000E-03 0. -1.
        -11    1    3    3    0    0 -0.24650728831E+01  0.19630287557E+01 -0.13409483465E+02  0.13774770897E+02  0.51100000000E-03 0.  1.
        -12    1    3    3    0    0 -0.22520704071E+02 -0.43263138566E+01  0.35149186029E+02  0.41968611865E+02  0.00000000000E+00 0.  1.
</event>
<event>
 7    1  0.2285268E-015  0.9000770E+02  0.7816164E-02  0.1186339E+00
        -11   -1    0    0    0    0  0.00000000000E+00  0.00000000000E+00  0.45593999997E+02  0.45594000000E+02  0.51100000000E-03 0. -1.
         11   -1    0    0    0    0 -0.00000000000E+00 -0.00000000000E+00 -0.45593999997E+02  0.45594000000E+02  0.51100000000E-03 0.  1.
    9900012    2    1    2    0    0 -0.31149807768E+00  0.11013158441E+01 -0.28842919902E+00  0.90007695360E+02  0.89999956139E+02 0.  0.
         12    1    1    2    0    0  0.31149807768E+00 -0.11013158441E+01  0.28842919902E+00  0.11803046402E+01  0.00000000000E+00 0. -1.
         11    1    3    3    0    0 -0.14908118419E+02  0.39911121646E+02  0.96457592387E+01  0.43682837561E+02  0.51100000000E-03 0. -1.
        -11    1    3    3    0    0 -0.42867232085E+01 -0.84417568324E+01 -0.15351030158E+01  0.95914438857E+01  0.51100000000E-03 0.  1.
        -12    1    3    3    0    0  0.18883343550E+02 -0.30368048969E+02 -0.83990854220E+01  0.36733413913E+02  0.00000000000E+00 0.  1.
</event>
<event>
 7    1  0.2285268E-015  0.9000777E+02  0.7816164E-02  0.1186339E+00
        -11   -1    0    0    0    0  0.00000000000E+00  0.00000000000E+00  0.45593999997E+02  0.45594000000E+02  0.51100000000E-03 0. -1.
         11   -1    0    0    0    0 -0.00000000000E+00 -0.00000000000E+00 -0.45593999997E+02  0.45594000000E+02  0.51100000000E-03 0.  1.
    9900012    2    1    2    0    0  0.10731876349E+00 -0.94192982081E+00 -0.70298605245E+00  0.90007771847E+02  0.90000033635E+02 0.  0.
         12    1    1    2    0    0 -0.10731876349E+00  0.94192982081E+00  0.70298605245E+00  0.11802281535E+01  0.00000000000E+00 0. -1.
         11    1    3    3    0    0  0.83744313498E+01 -0.97255366583E+00  0.20357983866E+01  0.86730292515E+01  0.51100000000E-03 0. -1.
        -11    1    3    3    0    0  0.15509997178E+02  0.45885960537E-01 -0.36719827373E+02  0.39861106866E+02  0.51100000000E-03 0.  1.
         12    1    3    3    0    0 -0.23777109765E+02 -0.15262115516E-01  0.33981042934E+02  0.41473635729E+02  0.00000000000E+00 0. -1.
</event>
<event>
 7    1  0.2285268E-015  0.9000779E+02  0.7816164E-02  0.1186339E+00
        -11   -1    0    0    0    0  0.00000000000E+00  0.00000000000E+00  0.45593999997E+02  0.45594000000E+02  0.51100000000E-03 0.  1.
         11   -1    0    0    0    0 -0.00000000000E+00 -0.00000000000E+00 -0.45593999997E+02  0.45594000000E+02  0.51100000000E-03 0. -1.
    9900012    2    1    2    0    0 -0.60617207767E+00  0.26171516541E+00  0.97823848313E+00  0.90007792414E+02  0.90000054474E+02 0.  0.
         12    1    1    2    0    0  0.60617207767E+00 -0.26171516541E+00 -0.97823848313E+00  0.11802075857E+01  0.00000000000E+00 0. -1.
         11    1    3    3    0    0 -0.32040191084E+01 -0.10934409619E+01  0.75116837422E+01  0.82393412654E+01  0.51100000000E-03 0. -1.
        -11    1    3    3    0    0  0.15647049546E+02 -0.11161254260E+02  0.33060411368E+02  0.38241267712E+02  0.51100000000E-03 0.  1.
         12    1    3    3    0    0 -0.13049202515E+02  0.12516410388E+02 -0.39593856628E+02  0.43527183436E+02  0.00000000000E+00 0. -1.
</event>
<event>
 7    1  0.2285268E-015  0.9000771E+02  0.7816164E-02  0.1186339E+00
        -11   -1    0    0    0    0  0.00000000000E+00  0.00000000000E+00  0.45593999997E+02  0.45594000000E+02  0.51100000000E-03 0.  1.
         11   -1    0    0    0    0 -0.00000000000E+00 -0.00000000000E+00 -0.45593999997E+02  0.45594000000E+02  0.51100000000E-03 0. -1.
    9900012    2    1    2    0    0 -0.48094293580E+00  0.94242347416E+00 -0.52307299086E+00  0.90007714668E+02  0.89999975701E+02 0.  0.
         12    1    1    2    0    0  0.48094293580E+00 -0.94242347416E+00  0.52307299086E+00  0.11802853324E+01  0.00000000000E+00 0. -1.
         11    1    3    3    0    0 -0.13373133684E+02 -0.29494219833E+01 -0.37999979500E+02  0.40392304178E+02  0.51100000000E-03 0. -1.
        -11    1    3    3    0    0  0.21258415072E+01  0.60513131883E+01 -0.34208991986E+01  0.72691227121E+01  0.51100000000E-03 0.  1.
        -12    1    3    3    0    0  0.10766349241E+02 -0.21594677308E+01  0.40897805707E+02  0.42346287778E+02  0.00000000000E+00 0.  1.
</event>
<event>
 7    1  0.2285268E-015  0.9000776E+02  0.7816164E-02  0.1186339E+00
        -11   -1    0    0    0    0  0.00000000000E+00  0.00000000000E+00  0.45593999997E+02  0.45594000000E+02  0.51100000000E-03 0. -1.
         11   -1    0    0    0    0 -0.00000000000E+00 -0.00000000000E+00 -0.45593999997E+02  0.45594000000E+02  0.51100000000E-03 0.  1.
    9900012    2    1    2    0    0 -0.18167227105E-01  0.24627874845E+00 -0.11541148583E+01  0.90007760882E+02  0.90000022525E+02 0.  0.
         12    1    1    2    0    0  0.18167227105E-01 -0.24627874845E+00  0.11541148583E+01  0.11802391182E+01  0.00000000000E+00 0. -1.
         11    1    3    3    0    0 -0.19324730576E+01 -0.88857749887E+01 -0.47667631459E+00  0.91059689126E+01  0.51100000000E-03 0. -1.
        -11    1    3    3    0    0  0.94692253658E+01 -0.33495873744E+02 -0.10792961325E+02  0.36443487777E+02  0.51100000000E-03 0.  1.
         12    1    3    3    0    0 -0.75549195353E+01  0.42627927481E+02  0.10115522781E+02  0.44458304192E+02  0.00000000000E+00 0. -1.
</event>
<event>
 7    1  0.2285268E-015  0.9000777E+02  0.7816164E-02  0.1186339E+00
        -11   -1    0    0    0    0  0.00000000000E+00  0.00000000000E+00  0.45593999997E+02  0.45594000000E+02  0.51100000000E-03 0.  1.
         11   -1    0    0    0    0 -0.00000000000E+00 -0.00000000000E+00 -0.45593999997E+02  0.45594000000E+02  0.51100000000E-03 0. -1.
    9900012    2    1    2    0    0  0.10554876613E+01  0.26152099309E+00  0.45880703402E+00  0.90007766410E+02  0.90000028126E+02 0.  0.
         12    1    1    2    0    0 -0.10554876613E+01 -0.26152099309E+00 -0.45880703402E+00  0.11802335902E+01  0.00000000000E+00 0. -1.
         11    1    3    3    0    0 -0.38742363399E+01 -0.83099898341E+01 -0.42848482066E+01  0.10120551501E+02  0.51100000000E-03 0. -1.
        -11    1    3    3    0    0  0.11499754074E+02 -0.22435493921E+02  0.30124417361E+02  0.39282009277E+02  0.51100000000E-03 0.  1.
         12    1    3    3    0    0 -0.65700300732E+01  0.31007004748E+02 -0.25380762120E+02  0.40605205632E+02  0.00000000000E+00 0. -1.
</event>
<event>
 7    1  0.2285268E-015  0.9000777E+02  0.7816164E-02  0.1186339E+00
        -11   -1    0    0    0    0  0.00000000000E+00  0.00000000000E+00  0.45593999997E+02  0.45594000000E+02  0.51100000000E-03 0.  1.
         11   -1    0    0    0    0 -0.00000000000E+00 -0.00000000000E+00 -0.45593999997E+02  0.45594000000E+02  0.51100000000E-03 0. -1.
    9900012    2    1    2    0    0 -0.68955372497E-01 -0.11433233970E+01 -0.28462435284E+00  0.90007765169E+02  0.90000026869E+02 0.  0.
         12    1    1    2    0    0  0.68955372497E-01  0.11433233970E+01  0.28462435284E+00  0.11802348308E+01  0.00000000000E+00 0. -1.
         11    1    3    3    0    0 -0.34060341363E+02  0.26021089878E+02 -0.10199093132E+02  0.44059340363E+02  0.51100000000E-03 0. -1.
        -11    1    3    3    0    0  0.78615002195E+01 -0.11594969005E+02  0.61510678865E+01  0.15299742754E+02  0.51100000000E-03 0.  1.
        -12    1    3    3    0    0  0.26129885771E+02 -0.15569444270E+02  0.37634008924E+01  0.30648682053E+02  0.00000000000E+00 0.  1.
</event>
<event>
 7    1  0.2285268E-015  0.9000773E+02  0.7816164E-02  0.1186339E+00
        -11   -1    0    0    0    0  0.00000000000E+00  0.00000000000E+00  0.45593999997E+02  0.45594000000E+02  0.51100000000E-03 0. -1.
         11   -1    0    0    0    0 -0.00000000000E+00 -0.00000000000E+00 -0.45593999997E+02  0.45594000000E+02  0.51100000000E-03 0.  1.
    9900012    2    1    2    0    0 -0.25450549975E+00  0.29667709857E+00 -0.11136627813E+01  0.90007730903E+02  0.89999992151E+02 0.  0.
         12    1    1    2    0    0  0.25450549975E+00 -0.29667709857E+00  0.11136627813E+01  0.11802690967E+01  0.00000000000E+00 0. -1.
         11    1    3    3    0    0 -0.90612302681E+01 -0.20296560846E+02  0.38140831244E+02  0.44144980285E+02  0.51100000000E-03 0. -1.
        -11    1    3    3    0    0  0.47746655834E+01  0.32534770979E+01 -0.76161016188E+01  0.95596835088E+01  0.51100000000E-03 0.  1.
        -12    1    3    3    0    0  0.40320591850E+01  0.17339760847E+02 -0.31638392406E+02  0.36303067109E+02  0.00000000000E+00 0.  1.
</event>
<event>
 7    1  0.2285268E-015  0.9000767E+02  0.7816164E-02  0.1186339E+00
        -11   -1    0    0    0    0  0.00000000000E+00  0.00000000000E+00  0.45593999997E+02  0.45594000000E+02  0.51100000000E-03 0. -1.
         11   -1    0    0    0    0 -0.00000000000E+00 -0.00000000000E+00 -0.45593999997E+02  0.45594000000E+02  0.51100000000E-03 0.  1.
    9900012    2    1    2    0    0 -0.10379553359E+01 -0.45554224135E+00 -0.32911051252E+00  0.90007667952E+02  0.89999928369E+02 0.  0.
         12    1    1    2    0    0  0.10379553359E+01  0.45554224135E+00  0.32911051252E+00  0.11803320475E+01  0.00000000000E+00 0. -1.
         11    1    3    3    0    0  0.92451077972E+01  0.93925056117E+00  0.91643528128E-01  0.92931484760E+01  0.51100000000E-03 0. -1.
        -11    1    3    3    0    0  0.31488569791E+02  0.16164099494E+02 -0.68570241902E+00  0.35401671260E+02  0.51100000000E-03 0.  1.
         12    1    3    3    0    0 -0.41771632924E+02 -0.17558892296E+02  0.26494837837E+00  0.45312848216E+02  0.00000000000E+00 0. -1.
</event>
<event>
 7    1  0.2285268E-015  0.9000769E+02  0.7816164E-02  0.1186339E+00
        -11   -1    0    0    0    0  0.00000000000E+00  0.00000000000E+00  0.45593999997E+02  0.45594000000E+02  0.51100000000E-03 0. -1.
         11   -1    0    0    0    0 -0.00000000000E+00 -0.00000000000E+00 -0.45593999997E+02  0.45594000000E+02  0.51100000000E-03 0.  1.
    9900012    2    1    2    0    0  0.14706054862E+00 -0.11663325734E+01  0.10572909411E+00  0.90007687703E+02  0.89999948381E+02 0.  0.
         12    1    1    2    0    0 -0.14706054862E+00  0.11663325734E+01 -0.10572909411E+00  0.11803122969E+01  0.00000000000E+00 0. -1.
         11    1    3    3    0    0  0.16147400207E+01 -0.31629643598E+02  0.21726030792E+02  0.38406537903E+02  0.51100000000E-03 0. -1.
        -11    1    3    3    0    0 -0.41892230550E+01 -0.76052492690E+01 -0.37162537026E+01  0.94445724145E+01  0.51100000000E-03 0.  1.
        -12    1    3    3    0    0  0.27215435829E+01  0.38068560293E+02 -0.17904047995E+02  0.42156577386E+02  0.00000000000E+00 0.  1.
</event>
<event>
 7    1  0.2285268E-015  0.9000772E+02  0.7816164E-02  0.1186339E+00
        -11   -1    0    0    0    0  0.00000000000E+00  0.00000000000E+00  0.45593999997E+02  0.45594000000E+02  0.51100000000E-03 0.  1.
         11   -1    0    0    0    0 -0.00000000000E+00 -0.00000000000E+00 -0.45593999997E+02  0.45594000000E+02  0.51100000000E-03 0. -1.
    9900012    2    1    2    0    0  0.54423306007E+00 -0.53723617569E+00  0.89902868492E+00  0.90007718293E+02  0.89999979374E+02 0.  0.
         12    1    1    2    0    0 -0.54423306007E+00  0.53723617569E+00 -0.89902868492E+00  0.11802817072E+01  0.00000000000E+00 0. -1.
         11    1    3    3    0    0  0.24870227691E+02  0.30362841764E+02 -0.11083070803E+02  0.40783144117E+02  0.51100000000E-03 0. -1.
        -11    1    3    3    0    0 -0.10703882780E+02  0.30543669137E+01  0.35092260429E+01  0.11671200945E+02  0.51100000000E-03 0.  1.
        -12    1    3    3    0    0 -0.13622111851E+02 -0.33954444854E+02  0.84728734447E+01  0.37553373231E+02  0.00000000000E+00 0.  1.
</event>
<event>
 7    1  0.2285268E-015  0.9000775E+02  0.7816164E-02  0.1186339E+00
        -11   -1    0    0    0    0  0.00000000000E+00  0.00000000000E+00  0.45593999997E+02  0.45594000000E+02  0.51100000000E-03 0. -1.
         11   -1    0    0    0    0 -0.00000000000E+00 -0.00000000000E+00 -0.45593999997E+02  0.45594000000E+02  0.51100000000E-03 0.  1.
    9900012    2    1    2    0    0 -0.96549360921E+00  0.18160820438E-01 -0.67858463388E+00  0.90007752217E+02  0.90000013746E+02 0.  0.
         12    1    1    2    0    0  0.96549360921E+00 -0.18160820438E-01  0.67858463388E+00  0.11802477834E+01  0.00000000000E+00 0. -1.
         11    1    3    3    0    0 -0.29555188826E+01  0.41395537158E+01 -0.75331373988E+01  0.90895080264E+01  0.51100000000E-03 0. -1.
        -11    1    3    3    0    0  0.10718141133E+02 -0.20597059099E+02 -0.30993991599E+02  0.38726540103E+02  0.51100000000E-03 0.  1.
         12    1    3    3    0    0 -0.87281158599E+01  0.16475666203E+02  0.37848544364E+02  0.42191704087E+02  0.00000000000E+00 0. -1.
</event>
<event>
 7    1  0.2285268E-015  0.9000775E+02  0.7816164E-02  0.1186339E+00
        -11   -1    0    0    0    0  0.00000000000E+00  0.00000000000E+00  0.45593999997E+02  0.45594000000E+02  0.51100000000E-03 0. -1.
         11   -1    0    0    0    0 -0.00000000000E+00 -0.00000000000E+00 -0.45593999997E+02  0.45594000000E+02  0.51100000000E-03 0.  1.
    9900012    2    1    2    0    0 -0.61486086615E+00  0.99646744143E+00  0.14832584547E+00  0.90007745026E+02  0.90000006461E+02 0.  0.
         12    1    1    2    0    0  0.61486086615E+00 -0.99646744143E+00 -0.14832584547E+00  0.11802549737E+01  0.00000000000E+00 0. -1.
         11    1    3    3    0    0 -0.25695506092E+01  0.33408523510E+01 -0.69868631492E+01  0.81596655380E+01  0.51100000000E-03 0. -1.
        -11    1    3    3    0    0  0.20604985224E+01 -0.89188232055E+01 -0.36545915980E+02  0.37674859477E+02  0.51100000000E-03 0.  1.
         12    1    3    3    0    0 -0.10580877928E+00  0.65744382960E+01  0.43681104974E+02  0.44173220012E+02  0.00000000000E+00 0. -1.
</event>
<event>
 7    1  0.2285268E-015  0.9000786E+02  0.7816164E-02  0.1186339E+00
        -11   -1    0    0    0    0  0.00000000000E+00  0.00000000000E+00  0.45593999997E+02  0.45594000000E+02  0.51100000000E-03 0.  1.
         11   -1    0    0    0    0 -0.00000000000E+00 -0.00000000000E+00 -0.45593999997E+02  0.45594000000E+02  0.51100000000E-03 0. -1.
    9900012    2    1    2    0    0 -0.16232835697E+00  0.17894471736E+00  0.11551452206E+01  0.90007859251E+02  0.90000122193E+02 0.  0.
         12    1    1    2    0    0  0.16232835697E+00 -0.17894471736E+00 -0.11551452206E+01  0.11801407493E+01  0.00000000000E+00 0. -1.
         11    1    3    3    0    0  0.37778670300E+02 -0.35575143168E+01 -0.15634483160E+02  0.41040478819E+02  0.51100000000E-03 0. -1.
        -11    1    3    3    0    0 -0.28781258049E+01 -0.66766334212E+01 -0.24079998430E+01  0.76589493727E+01  0.51100000000E-03 0.  1.
        -12    1    3    3    0    0 -0.35062872852E+02  0.10413092455E+02  0.19197628224E+02  0.41308431059E+02  0.00000000000E+00 0.  1.
</event>
<event>
 7    1  0.2285268E-015  0.9000765E+02  0.7816164E-02  0.1186339E+00
        -11   -1    0    0    0    0  0.00000000000E+00  0.00000000000E+00  0.45593999997E+02  0.45594000000E+02  0.51100000000E-03 0.  1.
         11   -1    0    0    0    0 -0.00000000000E+00 -0.00000000000E+00 -0.45593999997E+02  0.45594000000E+02  0.51100000000E-03 0. -1.
    9900012    2    1    2    0    0 -0.35230868484E+00 -0.46910086117E-02  0.11265332642E+01  0.90007652335E+02  0.89999912546E+02 0.  0.
         12    1    1    2    0    0  0.35230868484E+00  0.46910086117E-02 -0.11265332642E+01  0.11803476650E+01  0.00000000000E+00 0. -1.
         11    1    3    3    0    0  0.37794843187E+01  0.22294630794E+01  0.48107996099E+01  0.65114361308E+01  0.51100000000E-03 0. -1.
        -11    1    3    3    0    0  0.25227246495E+02  0.13204187124E+02  0.26315264357E+02  0.38771866885E+02  0.51100000000E-03 0.  1.
         12    1    3    3    0    0 -0.29359039498E+02 -0.15438341212E+02 -0.29999530703E+02  0.44724349319E+02  0.00000000000E+00 0. -1.
</event>
<event>
 7    1  0.2285268E-015  0.9000777E+02  0.7816164E-02  0.1186339E+00
        -11   -1    0    0    0    0  0.00000000000E+00  0.00000000000E+00  0.45593999997E+02  0.45594000000E+02  0.51100000000E-03 0. -1.
         11   -1    0    0    0    0 -0.00000000000E+00 -0.00000000000E+00 -0.45593999997E+02  0.45594000000E+02  0.51100000000E-03 0.  1.
    9900012    2    1    2    0    0 -0.10589704127E+01 -0.44555403284E+00  0.27018281188E+00  0.90007773122E+02  0.90000034927E+02 0.  0.
         12    1    1    2    0    0  0.10589704127E+01  0.44555403284E+00 -0.27018281188E+00  0.11802268777E+01  0.00000000000E+00 0. -1.
         11    1    3    3    0    0 -0.31057735132E+02 -0.94865420634E+01  0.19747820070E+02  0.38007286007E+02  0.51100000000E-03 0. -1.
        -11    1    3    3    0    0 -0.82366045373E+01 -0.11772567563E+01 -0.11993249151E+01  0.84063052697E+01  0.51100000000E-03 0.  1.
        -12    1    3    3    0    0  0.38235369256E+02  0.10218244787E+02 -0.18278312343E+02  0.43594181846E+02  0.00000000000E+00 0.  1.
</event>
<event>
 7    1  0.2285268E-015  0.9000798E+02  0.7816164E-02  0.1186339E+00
        -11   -1    0    0    0    0  0.00000000000E+00  0.00000000000E+00  0.45593999997E+02  0.45594000000E+02  0.51100000000E-03 0.  1.
         11   -1    0    0    0    0 -0.00000000000E+00 -0.00000000000E+00 -0.45593999997E+02  0.45594000000E+02  0.51100000000E-03 0. -1.
    9900012    2    1    2    0    0  0.74025454399E+00 -0.78882851637E+00 -0.47139593798E+00  0.90007982480E+02  0.90000247048E+02 0.  0.
         12    1    1    2    0    0 -0.74025454399E+00  0.78882851637E+00  0.47139593798E+00  0.11800175204E+01  0.00000000000E+00 0. -1.
         11    1    3    3    0    0  0.87510120056E+01  0.56611678551E+01  0.28220404109E+01  0.10797821306E+02  0.51100000000E-03 0. -1.
        -11    1    3    3    0    0 -0.23966915887E+02  0.27190920059E+02 -0.16338191222E+02  0.39757963774E+02  0.51100000000E-03 0.  1.
         12    1    3    3    0    0  0.15956158426E+02 -0.33640916430E+02  0.13044754873E+02  0.39452197400E+02  0.00000000000E+00 0. -1.
</event>
<event>
 7    1  0.2285268E-015  0.9000778E+02  0.7816164E-02  0.1186339E+00
        -11   -1    0    0    0    0  0.00000000000E+00  0.00000000000E+00  0.45593999997E+02  0.45594000000E+02  0.51100000000E-03 0. -1.
         11   -1    0    0    0    0 -0.00000000000E+00 -0.00000000000E+00 -0.45593999997E+02  0.45594000000E+02  0.51100000000E-03 0.  1.
    9900012    2    1    2    0    0 -0.58262577260E-01 -0.11708841238E+01 -0.13625980329E+00  0.90007775067E+02  0.90000036897E+02 0.  0.
         12    1    1    2    0    0  0.58262577260E-01  0.11708841238E+01  0.13625980329E+00  0.11802249334E+01  0.00000000000E+00 0. -1.
         11    1    3    3    0    0  0.92907357501E+01  0.13857831563E+01 -0.16300484106E+01  0.95338986682E+01  0.51100000000E-03 0. -1.
        -11    1    3    3    0    0 -0.36574812455E+00 -0.23066096356E+02 -0.32447631693E+02  0.39812402283E+02  0.51100000000E-03 0.  1.
         12    1    3    3    0    0 -0.89832502028E+01  0.20509429076E+02  0.33941420300E+02  0.40661474115E+02  0.00000000000E+00 0. -1.
</event>
<event>
 7    1  0.2285268E-015  0.9000771E+02  0.7816164E-02  0.1186339E+00
        -11   -1    0    0    0    0  0.00000000000E+00  0.00000000000E+00  0.45593999997E+02  0.45594000000E+02  0.51100000000E-03 0.  1.
         11   -1    0    0    0    0 -0.00000000000E+00 -0.00000000000E+00 -0.45593999997E+02  0.45594000000E+02  0.51100000000E-03 0. -1.
    9900012    2    1    2    0    0  0.45537615314E+00  0.87420727104E+00 -0.64922092952E+00  0.90007706135E+02  0.89999967055E+02 0.  0.
         12    1    1    2    0    0 -0.45537615314E+00 -0.87420727104E+00  0.64922092952E+00  0.11802938655E+01  0.00000000000E+00 0. -1.
         11    1    3    3    0    0  0.41363360399E-01  0.11097174610E+02 -0.17875827342E+01  0.11240304602E+02  0.51100000000E-03 0. -1.
        -11    1    3    3    0    0  0.32314622908E+02  0.94561607818E+01 -0.16322587682E+02  0.37417652242E+02  0.51100000000E-03 0.  1.
         12    1    3    3    0    0 -0.31900610116E+02 -0.19679128121E+02  0.17460949487E+02  0.41349749290E+02  0.00000000000E+00 0. -1.
</event>
<event>
 7    1  0.2412013E-015  0.9000776E+02  0.7816164E-02  0.1186339E+00
        -11   -1    0    0    0    0  0.00000000000E+00  0.00000000000E+00  0.45593999997E+02  0.45594000000E+02  0.51100000000E-03 0. -1.
         11   -1    0    0    0    0 -0.00000000000E+00 -0.00000000000E+00 -0.45593999997E+02  0.45594000000E+02  0.51100000000E-03 0.  1.
    9900012    2    1    2    0    0 -0.10165129697E+01 -0.45042681327E+00 -0.39595957615E+00  0.90007759805E+02  0.90000021435E+02 0.  0.
         12    1    1    2    0    0  0.10165129697E+01  0.45042681327E+00  0.39595957615E+00  0.11802401949E+01  0.00000000000E+00 0. -1.
         11    1    3    3    0    0 -0.56589817023E+00  0.92271844160E+01  0.38074877980E+01  0.99979066099E+01  0.51100000000E-03 0. -1.
        -11    1    3    3    0    0  0.65879072877E+00  0.19370524777E+02 -0.33522791822E+02  0.38722458692E+02  0.51100000000E-03 0.  1.
         12    1    3    3    0    0 -0.11094055283E+01 -0.29048136006E+02  0.29319344448E+02  0.41287394503E+02  0.00000000000E+00 0. -1.
</event>
<event>
 7    1  0.2285268E-015  0.9000787E+02  0.7816164E-02  0.1186339E+00
        -11   -1    0    0    0    0  0.00000000000E+00  0.00000000000E+00  0.45593999997E+02  0.45594000000E+02  0.51100000000E-03 0.  1.
         11   -1    0    0    0    0 -0.00000000000E+00 -0.00000000000E+00 -0.45593999997E+02  0.45594000000E+02  0.51100000000E-03 0. -1.
    9900012    2    1    2    0    0  0.34795944039E+00  0.10175971395E+01 -0.48593670068E+00  0.90007866877E+02  0.90000129920E+02 0.  0.
         12    1    1    2    0    0 -0.34795944039E+00 -0.10175971395E+01  0.48593670068E+00  0.11801331228E+01  0.00000000000E+00 0. -1.
         11    1    3    3    0    0  0.53925612516E+01 -0.12021794252E+02 -0.37297353860E+02  0.39556236665E+02  0.51100000000E-03 0. -1.
        -11    1    3    3    0    0 -0.73252717596E+01 -0.36193933453E+01 -0.17747187617E+01  0.83611746474E+01  0.51100000000E-03 0.  1.
        -12    1    3    3    0    0  0.22806699483E+01  0.16658784737E+02  0.38586135921E+02  0.42090455565E+02  0.00000000000E+00 0.  1.
</event>
<event>
 7    1  0.2285268E-015  0.9000777E+02  0.7816164E-02  0.1186339E+00
        -11   -1    0    0    0    0  0.00000000000E+00  0.00000000000E+00  0.45593999997E+02  0.45594000000E+02  0.51100000000E-03 0.  1.
         11   -1    0    0    0    0 -0.00000000000E+00 -0.00000000000E+00 -0.45593999997E+02  0.45594000000E+02  0.51100000000E-03 0. -1.
    9900012    2    1    2    0    0 -0.10329305611E+01  0.56439811236E+00  0.86325068716E-01  0.90007770026E+02  0.90000031791E+02 0.  0.
         12    1    1    2    0    0  0.10329305611E+01 -0.56439811236E+00 -0.86325068716E-01  0.11802299737E+01  0.00000000000E+00 0. -1.
         11    1    3    3    0    0  0.69946632182E+01  0.10516223898E+02 -0.37039433112E+02  0.39133564675E+02  0.51100000000E-03 0. -1.
        -11    1    3    3    0    0  0.64564941657E+01 -0.10784358649E+02  0.18156760141E+01  0.12699818425E+02  0.51100000000E-03 0.  1.
        -12    1    3    3    0    0 -0.14484087945E+02  0.83253286301E+00  0.35310082167E+02  0.38174386926E+02  0.00000000000E+00 0.  1.
</event>
<event>
 7    1  0.2285268E-015  0.9000775E+02  0.7816164E-02  0.1186339E+00
        -11   -1    0    0    0    0  0.00000000000E+00  0.00000000000E+00  0.45593999997E+02  0.45594000000E+02  0.51100000000E-03 0. -1.
         11   -1    0    0    0    0 -0.00000000000E+00 -0.00000000000E+00 -0.45593999997E+02  0.45594000000E+02  0.51100000000E-03 0.  1.
    9900012    2    1    2    0    0 -0.70041335172E+00  0.91307632255E+00  0.26212209254E+00  0.90007747813E+02  0.90000009284E+02 0.  0.
         12    1    1    2    0    0  0.70041335172E+00 -0.91307632255E+00 -0.26212209254E+00  0.11802521872E+01  0.00000000000E+00 0. -1.
         11    1    3    3    0    0 -0.20039768542E+02  0.12035496408E+02 -0.35698051384E+02  0.42670790594E+02  0.51100000000E-03 0. -1.
        -11    1    3    3    0    0 -0.44469587907E+01 -0.37719494074E+01  0.79918244955E+01  0.98930432045E+01  0.51100000000E-03 0.  1.
        -12    1    3    3    0    0  0.23786313981E+02 -0.73504706777E+01  0.27968348981E+02  0.37443914015E+02  0.00000000000E+00 0.  1.
</event>
<event>
 7    1  0.2285268E-015  0.9000773E+02  0.7816164E-02  0.1186339E+00
        -11   -1    0    0    0    0  0.00000000000E+00  0.00000000000E+00  0.45593999997E+02  0.45594000000E+02  0.51100000000E-03 0.  1.
         11   -1    0    0    0    0 -0.00000000000E+00 -0.00000000000E+00 -0.45593999997E+02  0.45594000000E+02  0.51100000000E-03 0. -1.
    9900012    2    1    2    0    0  0.57687107360E+00  0.20300634839E+00  0.10094724484E+01  0.90007734590E+02  0.89999995887E+02 0.  0.
         12    1    1    2    0    0 -0.57687107360E+00 -0.20300634839E+00 -0.10094724484E+01  0.11802654096E+01  0.00000000000E+00 0. -1.
         11    1    3    3    0    0 -0.13226830915E+02  0.27212347928E+02 -0.10300858782E+02  0.31961987230E+02  0.51100000000E-03 0. -1.
        -11    1    3    3    0    0 -0.17808416760E+02 -0.65733105633E+01  0.96421130117E+00  0.19007309724E+02  0.51100000000E-03 0.  1.
        -12    1    3    3    0    0  0.31612118748E+02 -0.20436031016E+02  0.10346119929E+02  0.39038437636E+02  0.00000000000E+00 0.  1.
</event>
<event>
 8    1  0.2285268E-015  0.9000776E+02  0.7816164E-02  0.1186339E+00
        -11   -1    0    0    0    0  0.00000000000E+00  0.00000000000E+00  0.45593999997E+02  0.45594000000E+02  0.51100000000E-03 0.  1.
         11   -1    0    0    0    0 -0.00000000000E+00 -0.00000000000E+00 -0.45593999997E+02  0.45594000000E+02  0.51100000000E-03 0. -1.
    9900012    2    1    2    0    0  0.41255606691E+00 -0.38074908877E+00  0.10381725718E+01  0.90007756523E+02  0.90000018109E+02 0.  0.
         23    2    3    3    0    0  0.20710751841E+01 -0.16900519857E+02  0.94853909405E+01  0.71379578671E+02  0.68666983959E+02 0.  0.
         12    1    1    2    0    0 -0.41255606691E+00  0.38074908877E+00 -0.10381725718E+01  0.11802434774E+01  0.00000000000E+00 0. -1.
         11    1    4    4    0    0  0.16671348445E+02 -0.38748091336E+02  0.14545522279E+02  0.44619733973E+02  0.51100000000E-03 0.  1.
        -11    1    4    4    0    0 -0.14600273261E+02  0.21847571479E+02 -0.50601313389E+01  0.26759844698E+02  0.51100000000E-03 0. -1.
        -12    1    3    3    0    0 -0.16585191172E+01  0.16519770768E+02 -0.84472183686E+01  0.18628177852E+02  0.00000000000E+00 0.  1.
</event>
<event>
 7    1  0.2285268E-015  0.9000774E+02  0.7816164E-02  0.1186339E+00
        -11   -1    0    0    0    0  0.00000000000E+00  0.00000000000E+00  0.45593999997E+02  0.45594000000E+02  0.51100000000E-03 0. -1.
         11   -1    0    0    0    0 -0.00000000000E+00 -0.00000000000E+00 -0.45593999997E+02  0.45594000000E+02  0.51100000000E-03 0.  1.
    9900012    2    1    2    0    0  0.27523633897E+00 -0.84750984246E+00  0.77393886145E+00  0.90007741835E+02  0.90000003227E+02 0.  0.
         12    1    1    2    0    0 -0.27523633897E+00  0.84750984246E+00 -0.77393886145E+00  0.11802581652E+01  0.00000000000E+00 0. -1.
         11    1    3    3    0    0  0.15197232746E+02 -0.29385866750E+02  0.43785942725E+01  0.33371501852E+02  0.51100000000E-03 0. -1.
        -11    1    3    3    0    0  0.59622668407E+01 -0.91293074475E+01  0.60894611307E+01  0.12488971834E+02  0.51100000000E-03 0.  1.
        -12    1    3    3    0    0 -0.20884263248E+02  0.37667664356E+02 -0.96941165418E+01  0.44147268148E+02  0.00000000000E+00 0.  1.
</event>
<event>
 7    1  0.2285268E-015  0.9000769E+02  0.7816164E-02  0.1186339E+00
        -11   -1    0    0    0    0  0.00000000000E+00  0.00000000000E+00  0.45593999997E+02  0.45594000000E+02  0.51100000000E-03 0.  1.
         11   -1    0    0    0    0 -0.00000000000E+00 -0.00000000000E+00 -0.45593999997E+02  0.45594000000E+02  0.51100000000E-03 0. -1.
    9900012    2    1    2    0    0 -0.18442012830E-01 -0.86605699718E+00  0.80171036462E+00  0.90007688880E+02  0.89999949574E+02 0.  0.
         12    1    1    2    0    0  0.18442012830E-01  0.86605699718E+00 -0.80171036462E+00  0.11803111196E+01  0.00000000000E+00 0. -1.
         11    1    3    3    0    0  0.12193105003E+02  0.25357481831E+01 -0.27693276323E+02  0.30364772059E+02  0.51100000000E-03 0. -1.
        -11    1    3    3    0    0 -0.12558853443E+02 -0.19084212628E+02 -0.43390987117E+01  0.23254241534E+02  0.51100000000E-03 0.  1.
        -12    1    3    3    0    0  0.34730642697E+00  0.15682407448E+02  0.32834085399E+02  0.36388675287E+02  0.00000000000E+00 0.  1.
</event>
<event>
 7    1  0.2285268E-015  0.9000772E+02  0.7816164E-02  0.1186339E+00
        -11   -1    0    0    0    0  0.00000000000E+00  0.00000000000E+00  0.45593999997E+02  0.45594000000E+02  0.51100000000E-03 0.  1.
         11   -1    0    0    0    0 -0.00000000000E+00 -0.00000000000E+00 -0.45593999997E+02  0.45594000000E+02  0.51100000000E-03 0. -1.
    9900012    2    1    2    0    0  0.10158676116E+01  0.46967529495E+00  0.37481926122E+00  0.90007715557E+02  0.89999976603E+02 0.  0.
         12    1    1    2    0    0 -0.10158676116E+01 -0.46967529495E+00 -0.37481926122E+00  0.11802844427E+01  0.00000000000E+00 0. -1.
         11    1    3    3    0    0  0.29107921231E+02  0.15924079952E+02  0.19086433641E+02  0.38277138740E+02  0.51100000000E-03 0. -1.
        -11    1    3    3    0    0  0.60749797421E+01  0.38401441387E+01 -0.86046374954E+01  0.11211238672E+02  0.51100000000E-03 0.  1.
        -12    1    3    3    0    0 -0.34167033362E+02 -0.19294548796E+02 -0.10106976884E+02  0.40519338145E+02  0.00000000000E+00 0.  1.
</event>
<event>
 7    1  0.2285268E-015  0.9000776E+02  0.7816164E-02  0.1186339E+00
        -11   -1    0    0    0    0  0.00000000000E+00  0.00000000000E+00  0.45593999997E+02  0.45594000000E+02  0.51100000000E-03 0.  1.
         11   -1    0    0    0    0 -0.00000000000E+00 -0.00000000000E+00 -0.45593999997E+02  0.45594000000E+02  0.51100000000E-03 0. -1.
    9900012    2    1    2    0    0  0.61416365916E+00 -0.49489383437E-02  0.10078397195E+01  0.90007761722E+02  0.90000023377E+02 0.  0.
         12    1    1    2    0    0 -0.61416365916E+00  0.49489383437E-02 -0.10078397195E+01  0.11802382778E+01  0.00000000000E+00 0. -1.
         11    1    3    3    0    0 -0.18906845966E+01  0.74024092449E+01  0.38518705330E+01  0.85561239903E+01  0.51100000000E-03 0. -1.
        -11    1    3    3    0    0  0.17132788396E+02  0.25927259453E+02  0.21384163414E+02  0.37723171475E+02  0.51100000000E-03 0.  1.
         12    1    3    3    0    0 -0.14627940140E+02 -0.33334617636E+02 -0.24228194227E+02  0.43728466257E+02  0.00000000000E+00 0. -1.
</event>
<event>
 7    1  0.2285268E-015  0.9000802E+02  0.7816164E-02  0.1186338E+00
        -11   -1    0    0    0    0  0.00000000000E+00  0.00000000000E+00  0.45593999997E+02  0.45594000000E+02  0.51100000000E-03 0. -1.
         11   -1    0    0    0    0 -0.00000000000E+00 -0.00000000000E+00 -0.45593999997E+02  0.45594000000E+02  0.51100000000E-03 0.  1.
    9900012    2    1    2    0    0 -0.85960854299E+00 -0.78429470528E+00 -0.19569754554E+00  0.90008024339E+02  0.90000289460E+02 0.  0.
         12    1    1    2    0    0  0.85960854299E+00  0.78429470528E+00  0.19569754554E+00  0.11799756613E+01  0.00000000000E+00 0. -1.
         11    1    3    3    0    0 -0.19889867124E+02  0.26127032755E+02  0.11535455452E+02  0.34803669168E+02  0.51100000000E-03 0. -1.
        -11    1    3    3    0    0 -0.53570362120E+01  0.82228927090E+01  0.25050156110E+01  0.10128618117E+02  0.51100000000E-03 0.  1.
        -12    1    3    3    0    0  0.24387294793E+02 -0.35134220170E+02 -0.14236168609E+02  0.45075737054E+02  0.00000000000E+00 0.  1.
</event>
<event>
 7    1  0.2285268E-015  0.9000781E+02  0.7816164E-02  0.1186339E+00
        -11   -1    0    0    0    0  0.00000000000E+00  0.00000000000E+00  0.45593999997E+02  0.45594000000E+02  0.51100000000E-03 0.  1.
         11   -1    0    0    0    0 -0.00000000000E+00 -0.00000000000E+00 -0.45593999997E+02  0.45594000000E+02  0.51100000000E-03 0. -1.
    9900012    2    1    2    0    0  0.10304860686E+01 -0.19011240661E+00  0.54295160033E+00  0.90007813275E+02  0.90000075611E+02 0.  0.
         12    1    1    2    0    0 -0.10304860686E+01  0.19011240661E+00 -0.54295160033E+00  0.11801867247E+01  0.00000000000E+00 0. -1.
         11    1    3    3    0    0  0.82505240104E+01  0.45134252818E+01  0.59069438995E+00  0.94229015884E+01  0.51100000000E-03 0. -1.
        -11    1    3    3    0    0  0.34392756098E+02  0.10996228955E+02 -0.23107949631E+00  0.36108615609E+02  0.51100000000E-03 0.  1.
         12    1    3    3    0    0 -0.41612794039E+02 -0.15699766643E+02  0.18333670669E+00  0.44476296078E+02  0.00000000000E+00 0. -1.
</event>
<event>
 7    1  0.2285268E-015  0.9000775E+02  0.7816164E-02  0.1186339E+00
        -11   -1    0    0    0    0  0.00000000000E+00  0.00000000000E+00  0.45593999997E+02  0.45594000000E+02  0.51100000000E-03 0.  1.
         11   -1    0    0    0    0 -0.00000000000E+00 -0.00000000000E+00 -0.45593999997E+02  0.45594000000E+02  0.51100000000E-03 0. -1.
    9900012    2    1    2    0    0 -0.16396354123E+00 -0.29785922555E+00  0.11302150775E+01  0.90007749907E+02  0.90000011406E+02 0.  0.
         12    1    1    2    0    0  0.16396354123E+00  0.29785922555E+00 -0.11302150775E+01  0.11802500932E+01  0.00000000000E+00 0. -1.
         11    1    3    3    0    0 -0.27594974638E+02 -0.76070726346E+01  0.95911753526E+01  0.30188422023E+02  0.51100000000E-03 0. -1.
        -11    1    3    3    0    0 -0.14082298138E+02 -0.40513679698E+01 -0.81730137144E+01  0.16778642874E+02  0.51100000000E-03 0.  1.
        -12    1    3    3    0    0  0.41513309234E+02  0.11360581379E+02 -0.28794656062E+00  0.43040685009E+02  0.00000000000E+00 0.  1.
</event>
<event>
 7    1  0.2285268E-015  0.9000762E+02  0.7816164E-02  0.1186339E+00
        -11   -1    0    0    0    0  0.00000000000E+00  0.00000000000E+00  0.45593999997E+02  0.45594000000E+02  0.51100000000E-03 0. -1.
         11   -1    0    0    0    0 -0.00000000000E+00 -0.00000000000E+00 -0.45593999997E+02  0.45594000000E+02  0.51100000000E-03 0.  1.
    9900012    2    1    2    0    0  0.75426478625E+00  0.90786643946E+00  0.12570068610E-01  0.90007620889E+02  0.89999880684E+02 0.  0.
         12    1    1    2    0    0 -0.75426478625E+00 -0.90786643946E+00 -0.12570068610E-01  0.11803791113E+01  0.00000000000E+00 0. -1.
         11    1    3    3    0    0 -0.36747682053E+01  0.27102096005E+01 -0.90640355029E+01  0.10149182100E+02  0.51100000000E-03 0. -1.
        -11    1    3    3    0    0  0.45291027673E+01  0.36562923072E+01 -0.34981949061E+02  0.35462910282E+02  0.51100000000E-03 0.  1.
         12    1    3    3    0    0 -0.10006977582E+00 -0.54586354682E+01  0.44058554632E+02  0.44395528507E+02  0.00000000000E+00 0. -1.
</event>
<event>
 7    1  0.2285268E-015  0.9000778E+02  0.7816164E-02  0.1186339E+00
        -11   -1    0    0    0    0  0.00000000000E+00  0.00000000000E+00  0.45593999997E+02  0.45594000000E+02  0.51100000000E-03 0.  1.
         11   -1    0    0    0    0 -0.00000000000E+00 -0.00000000000E+00 -0.45593999997E+02  0.45594000000E+02  0.51100000000E-03 0. -1.
    9900012    2    1    2    0    0 -0.12545215226E+00 -0.73572235171E+00  0.91427665489E+00  0.90007776537E+02  0.90000038387E+02 0.  0.
         12    1    1    2    0    0  0.12545215226E+00  0.73572235171E+00 -0.91427665489E+00  0.11802234632E+01  0.00000000000E+00 0. -1.
         11    1    3    3    0    0  0.99136062303E+01 -0.25360571369E+01  0.56694965550E+01  0.11698477069E+02  0.51100000000E-03 0. -1.
        -11    1    3    3    0    0  0.17475722420E+02 -0.30827256426E+02 -0.35258287369E+01  0.35611123002E+02  0.51100000000E-03 0.  1.
         12    1    3    3    0    0 -0.27514780803E+02  0.32627591211E+02 -0.12293911632E+01  0.42698176466E+02  0.00000000000E+00 0. -1.
</event>
<event>
 7    1  0.2285268E-015  0.9000771E+02  0.7816164E-02  0.1186339E+00
        -11   -1    0    0    0    0  0.00000000000E+00  0.00000000000E+00  0.45593999997E+02  0.45594000000E+02  0.51100000000E-03 0. -1.
         11   -1    0    0    0    0 -0.00000000000E+00 -0.00000000000E+00 -0.45593999997E+02  0.45594000000E+02  0.51100000000E-03 0.  1.
    9900012    2    1    2    0    0  0.10856067669E+01 -0.46204228292E+00  0.32485859423E-01  0.90007711707E+02  0.89999972702E+02 0.  0.
         12    1    1    2    0    0 -0.10856067669E+01  0.46204228292E+00 -0.32485859423E-01  0.11802882930E+01  0.00000000000E+00 0. -1.
         11    1    3    3    0    0  0.35784949181E+02  0.12064361670E+02 -0.63458266252E+01  0.38293353552E+02  0.51100000000E-03 0. -1.
        -11    1    3    3    0    0  0.65684318472E+01 -0.68939661220E+01 -0.32670894020E+00  0.95277387042E+01  0.51100000000E-03 0.  1.
        -12    1    3    3    0    0 -0.41267774261E+02 -0.56324378310E+01  0.67050214249E+01  0.42186619451E+02  0.00000000000E+00 0.  1.
</event>
<event>
 7    1  0.2285268E-015  0.9000772E+02  0.7816164E-02  0.1186339E+00
        -11   -1    0    0    0    0  0.00000000000E+00  0.00000000000E+00  0.45593999997E+02  0.45594000000E+02  0.51100000000E-03 0.  1.
         11   -1    0    0    0    0 -0.00000000000E+00 -0.00000000000E+00 -0.45593999997E+02  0.45594000000E+02  0.51100000000E-03 0. -1.
    9900012    2    1    2    0    0 -0.61598827523E+00 -0.70565773254E+00 -0.71809887828E+00  0.90007720207E+02  0.89999981314E+02 0.  0.
         12    1    1    2    0    0  0.61598827523E+00  0.70565773254E+00  0.71809887828E+00  0.11802797930E+01  0.00000000000E+00 0. -1.
         11    1    3    3    0    0  0.79061120799E+00  0.47449058878E+01 -0.74335702299E+01  0.88542173336E+01  0.51100000000E-03 0. -1.
        -11    1    3    3    0    0 -0.78858803527E+01  0.35465847176E+02 -0.79798446471E+01  0.37198001905E+02  0.51100000000E-03 0.  1.
         12    1    3    3    0    0  0.64792808695E+01 -0.40916410797E+02  0.14695315999E+02  0.43955500968E+02  0.00000000000E+00 0. -1.
</event>
<event>
 7    1  0.2285268E-015  0.9000775E+02  0.7816164E-02  0.1186339E+00
        -11   -1    0    0    0    0  0.00000000000E+00  0.00000000000E+00  0.45593999997E+02  0.45594000000E+02  0.51100000000E-03 0.  1.
         11   -1    0    0    0    0 -0.00000000000E+00 -0.00000000000E+00 -0.45593999997E+02  0.45594000000E+02  0.51100000000E-03 0. -1.
    9900012    2    1    2    0    0  0.56689692332E+00 -0.70043910373E+00  0.76224302331E+00  0.90007745160E+02  0.90000006597E+02 0.  0.
         12    1    1    2    0    0 -0.56689692332E+00  0.70043910373E+00 -0.76224302331E+00  0.11802548395E+01  0.00000000000E+00 0. -1.
         11    1    3    3    0    0  0.31654628193E+01 -0.50085542868E+01  0.72201781207E+00  0.59688425081E+01  0.51100000000E-03 0. -1.
        -11    1    3    3    0    0  0.12185179640E+02 -0.16784723256E+02  0.34958308537E+02  0.40648356347E+02  0.51100000000E-03 0.  1.
         12    1    3    3    0    0 -0.14783745536E+02  0.21092838439E+02 -0.34918083326E+02  0.43390546305E+02  0.00000000000E+00 0. -1.
</event>
<event>
 7    1  0.2285268E-015  0.9000765E+02  0.7816164E-02  0.1186339E+00
        -11   -1    0    0    0    0  0.00000000000E+00  0.00000000000E+00  0.45593999997E+02  0.45594000000E+02  0.51100000000E-03 0. -1.
         11   -1    0    0    0    0 -0.00000000000E+00 -0.00000000000E+00 -0.45593999997E+02  0.45594000000E+02  0.51100000000E-03 0.  1.
    9900012    2    1    2    0    0  0.10009577075E+01 -0.58044420689E+00 -0.23324173816E+00  0.90007646867E+02  0.89999907006E+02 0.  0.
         12    1    1    2    0    0 -0.10009577075E+01  0.58044420689E+00  0.23324173816E+00  0.11803531327E+01  0.00000000000E+00 0. -1.
         11    1    3    3    0    0  0.10332067579E+01 -0.74045573219E+01  0.46496889165E+01  0.88042371969E+01  0.51100000000E-03 0. -1.
        -11    1    3    3    0    0 -0.32463353078E+02  0.26494239149E+02 -0.95800208341E+01  0.42983610838E+02  0.51100000000E-03 0.  1.
         12    1    3    3    0    0  0.32431104028E+02 -0.19670126034E+02  0.46970901794E+01  0.38219798833E+02  0.00000000000E+00 0. -1.
</event>
<event>
 7    1  0.2285268E-015  0.9000763E+02  0.7816164E-02  0.1186339E+00
        -11   -1    0    0    0    0  0.00000000000E+00  0.00000000000E+00  0.45593999997E+02  0.45594000000E+02  0.51100000000E-03 0.  1.
         11   -1    0    0    0    0 -0.00000000000E+00 -0.00000000000E+00 -0.45593999997E+02  0.45594000000E+02  0.51100000000E-03 0. -1.
    9900012    2    1    2    0    0  0.41988245012E+00  0.10987413291E+01  0.98648300837E-01  0.90007633418E+02  0.89999893379E+02 0.  0.
         12    1    1    2    0    0 -0.41988245012E+00 -0.10987413291E+01 -0.98648300837E-01  0.11803665818E+01  0.00000000000E+00 0. -1.
         11    1    3    3    0    0 -0.10483898362E+02 -0.18849346462E+02 -0.31593982022E+02  0.38254276717E+02  0.51100000000E-03 0. -1.
        -11    1    3    3    0    0  0.18159500783E+01 -0.83848506659E+01  0.42350556507E+00  0.85896887371E+01  0.51100000000E-03 0.  1.
        -12    1    3    3    0    0  0.90878307334E+01  0.28332938457E+02  0.31269124757E+02  0.43163667964E+02  0.00000000000E+00 0.  1.
</event>
<event>
 7    1  0.2285268E-015  0.9000765E+02  0.7816164E-02  0.1186339E+00
        -11   -1    0    0    0    0  0.00000000000E+00  0.00000000000E+00  0.45593999997E+02  0.45594000000E+02  0.51100000000E-03 0. -1.
         11   -1    0    0    0    0 -0.00000000000E+00 -0.00000000000E+00 -0.45593999997E+02  0.45594000000E+02  0.51100000000E-03 0.  1.
    9900012    2    1    2    0    0 -0.18109852365E+00 -0.10865720829E+01 -0.42402631680E+00  0.90007646712E+02  0.89999906849E+02 0.  0.
         12    1    1    2    0    0  0.18109852365E+00  0.10865720829E+01  0.42402631680E+00  0.11803532878E+01  0.00000000000E+00 0. -1.
         11    1    3    3    0    0 -0.15122362593E+01 -0.63879424922E+01  0.47429035881E+01  0.80986296677E+01  0.51100000000E-03 0. -1.
        -11    1    3    3    0    0  0.26279492896E+02 -0.28552705092E+02 -0.84926053829E+01  0.39723960797E+02  0.51100000000E-03 0.  1.
         12    1    3    3    0    0 -0.24948355161E+02  0.33854075501E+02  0.33256754780E+01  0.42185056248E+02  0.00000000000E+00 0. -1.
</event>
<event>
 7    1  0.2285268E-015  0.9000772E+02  0.7816164E-02  0.1186339E+00
        -11   -1    0    0    0    0  0.00000000000E+00  0.00000000000E+00  0.45593999997E+02  0.45594000000E+02  0.51100000000E-03 0.  1.
         11   -1    0    0    0    0 -0.00000000000E+00 -0.00000000000E+00 -0.45593999997E+02  0.45594000000E+02  0.51100000000E-03 0. -1.
    9900012    2    1    2    0    0  0.65993128469E+00 -0.46591992193E+00  0.86050896771E+00  0.90007717679E+02  0.89999978752E+02 0.  0.
         12    1    1    2    0    0 -0.65993128469E+00  0.46591992193E+00 -0.86050896771E+00  0.11802823212E+01  0.00000000000E+00 0. -1.
         11    1    3    3    0    0 -0.17888606955E+01  0.25714564631E+02 -0.26290810400E+02  0.36819092445E+02  0.51100000000E-03 0. -1.
        -11    1    3    3    0    0  0.71455866261E+01  0.37117838073E+01 -0.46446506764E+01  0.92956725109E+01  0.51100000000E-03 0.  1.
        -12    1    3    3    0    0 -0.46967946460E+01 -0.29892268361E+02  0.31795970044E+02  0.43892952723E+02  0.00000000000E+00 0.  1.
</event>
<event>
 7    1  0.2285268E-015  0.9000821E+02  0.7816164E-02  0.1186338E+00
        -11   -1    0    0    0    0  0.00000000000E+00  0.00000000000E+00  0.45593999997E+02  0.45594000000E+02  0.51100000000E-03 0.  1.
         11   -1    0    0    0    0 -0.00000000000E+00 -0.00000000000E+00 -0.45593999997E+02  0.45594000000E+02  0.51100000000E-03 0. -1.
    9900012    2    1    2    0    0  0.33417839092E+00 -0.76137399451E+00  0.83698472250E+00  0.90008208077E+02  0.90000475622E+02 0.  0.
         12    1    1    2    0    0 -0.33417839092E+00  0.76137399451E+00 -0.83698472250E+00  0.11797919233E+01  0.00000000000E+00 0. -1.
         11    1    3    3    0    0  0.76501668507E+01 -0.20011042983E+02 -0.37712679155E+02  0.43372953132E+02  0.51100000000E-03 0. -1.
        -11    1    3    3    0    0  0.24395467157E+01  0.25686413744E+00  0.13497392558E+02  0.13718490204E+02  0.51100000000E-03 0.  1.
        -12    1    3    3    0    0 -0.97555351755E+01  0.18992804851E+02  0.25052271320E+02  0.32916764740E+02  0.00000000000E+00 0.  1.
</event>
<event>
 7    1  0.2285268E-015  0.9000781E+02  0.7816164E-02  0.1186339E+00
        -11   -1    0    0    0    0  0.00000000000E+00  0.00000000000E+00  0.45593999997E+02  0.45594000000E+02  0.51100000000E-03 0. -1.
         11   -1    0    0    0    0 -0.00000000000E+00 -0.00000000000E+00 -0.45593999997E+02  0.45594000000E+02  0.51100000000E-03 0.  1.
    9900012    2    1    2    0    0 -0.96449771416E+00 -0.16044997438E+00 -0.66093972967E+00  0.90007812997E+02  0.90000075329E+02 0.  0.
         12    1    1    2    0    0  0.96449771416E+00  0.16044997438E+00  0.66093972967E+00  0.11801870026E+01  0.00000000000E+00 0. -1.
         11    1    3    3    0    0 -0.11685169645E+02 -0.11010687283E+02  0.32701114333E+02  0.36429950631E+02  0.51100000000E-03 0. -1.
        -11    1    3    3    0    0 -0.46026328212E+00 -0.92157881131E+01  0.37269953087E+01  0.99515369229E+01  0.51100000000E-03 0.  1.
        -12    1    3    3    0    0  0.11180935213E+02  0.20066025422E+02 -0.37089049371E+02  0.43626325444E+02  0.00000000000E+00 0.  1.
</event>
<event>
 7    1  0.2285268E-015  0.9000770E+02  0.7816164E-02  0.1186339E+00
        -11   -1    0    0    0    0  0.00000000000E+00  0.00000000000E+00  0.45593999997E+02  0.45594000000E+02  0.51100000000E-03 0.  1.
         11   -1    0    0    0    0 -0.00000000000E+00 -0.00000000000E+00 -0.45593999997E+02  0.45594000000E+02  0.51100000000E-03 0. -1.
    9900012    2    1    2    0    0  0.92423829928E+00 -0.69890741858E-01  0.73075682113E+00  0.90007700597E+02  0.89999961445E+02 0.  0.
         12    1    1    2    0    0 -0.92423829928E+00  0.69890741858E-01 -0.73075682113E+00  0.11802994032E+01  0.00000000000E+00 0. -1.
         11    1    3    3    0    0  0.34698270586E+02  0.19465028464E+02  0.18951226433E+02  0.44068200534E+02  0.51100000000E-03 0. -1.
        -11    1    3    3    0    0 -0.11818139119E+01 -0.15393191629E+01 -0.66881410030E+01  0.69640087553E+01  0.51100000000E-03 0.  1.
        -12    1    3    3    0    0 -0.32592218374E+02 -0.17995600043E+02 -0.11532328609E+02  0.38975491307E+02  0.00000000000E+00 0.  1.
</event>
<event>
 7    1  0.2285268E-015  0.9000770E+02  0.7816164E-02  0.1186339E+00
        -11   -1    0    0    0    0  0.00000000000E+00  0.00000000000E+00  0.45593999997E+02  0.45594000000E+02  0.51100000000E-03 0.  1.
         11   -1    0    0    0    0 -0.00000000000E+00 -0.00000000000E+00 -0.45593999997E+02  0.45594000000E+02  0.51100000000E-03 0. -1.
    9900012    2    1    2    0    0 -0.11202770905E+01  0.21853680095E+00  0.30053668562E+00  0.90007702837E+02  0.89999963715E+02 0.  0.
         12    1    1    2    0    0  0.11202770905E+01 -0.21853680095E+00 -0.30053668562E+00  0.11802971627E+01  0.00000000000E+00 0. -1.
         11    1    3    3    0    0  0.13080337088E+02  0.36849602171E+02 -0.12639680084E+02  0.41094402434E+02  0.51100000000E-03 0. -1.
        -11    1    3    3    0    0 -0.11994816459E+01  0.76014030112E+00  0.90217487776E+01  0.91328265484E+01  0.51100000000E-03 0.  1.
        -12    1    3    3    0    0 -0.13001132533E+02 -0.37391205672E+02  0.39184679916E+01  0.39780473855E+02  0.00000000000E+00 0.  1.
</event>
<event>
 7    1  0.2285268E-015  0.9000768E+02  0.7816164E-02  0.1186339E+00
        -11   -1    0    0    0    0  0.00000000000E+00  0.00000000000E+00  0.45593999997E+02  0.45594000000E+02  0.51100000000E-03 0.  1.
         11   -1    0    0    0    0 -0.00000000000E+00 -0.00000000000E+00 -0.45593999997E+02  0.45594000000E+02  0.51100000000E-03 0. -1.
    9900012    2    1    2    0    0 -0.98467986555E+00  0.25252979839E+00  0.59982812623E+00  0.90007678214E+02  0.89999938767E+02 0.  0.
         12    1    1    2    0    0  0.98467986555E+00 -0.25252979839E+00 -0.59982812623E+00  0.11803217857E+01  0.00000000000E+00 0. -1.
         11    1    3    3    0    0  0.15811192650E+02 -0.15330036575E+02 -0.34441027688E+02  0.40880169067E+02  0.51100000000E-03 0. -1.
        -11    1    3    3    0    0 -0.10193720294E+02  0.90704039391E+00 -0.36044905122E+00  0.10240340789E+02  0.51100000000E-03 0.  1.
        -12    1    3    3    0    0 -0.66021522220E+01  0.14675525980E+02  0.35401304866E+02  0.38887168359E+02  0.00000000000E+00 0.  1.
</event>
<event>
 7    1  0.2285268E-015  0.9000772E+02  0.7816164E-02  0.1186339E+00
        -11   -1    0    0    0    0  0.00000000000E+00  0.00000000000E+00  0.45593999997E+02  0.45594000000E+02  0.51100000000E-03 0.  1.
         11   -1    0    0    0    0 -0.00000000000E+00 -0.00000000000E+00 -0.45593999997E+02  0.45594000000E+02  0.51100000000E-03 0. -1.
    9900012    2    1    2    0    0 -0.51606603840E+00 -0.99703951377E+00 -0.36420471848E+00  0.90007721632E+02  0.89999982758E+02 0.  0.
         12    1    1    2    0    0  0.51606603840E+00  0.99703951377E+00  0.36420471848E+00  0.11802783676E+01  0.00000000000E+00 0. -1.
         11    1    3    3    0    0 -0.78498299039E+01 -0.38858719833E+02 -0.20271563663E+02  0.44525905159E+02  0.51100000000E-03 0. -1.
        -11    1    3    3    0    0 -0.37691279096E+01  0.85255408385E+01  0.26982303208E+01  0.97042062485E+01  0.51100000000E-03 0.  1.
        -12    1    3    3    0    0  0.11102891775E+02  0.29336139481E+02  0.17209128624E+02  0.35777610225E+02  0.00000000000E+00 0.  1.
</event>
<event>
 7    1  0.2285268E-015  0.9000774E+02  0.7816164E-02  0.1186339E+00
        -11   -1    0    0    0    0  0.00000000000E+00  0.00000000000E+00  0.45593999997E+02  0.45594000000E+02  0.51100000000E-03 0. -1.
         11   -1    0    0    0    0 -0.00000000000E+00 -0.00000000000E+00 -0.45593999997E+02  0.45594000000E+02  0.51100000000E-03 0.  1.
    9900012    2    1    2    0    0  0.11723197638E+01 -0.12221238947E+00  0.61185189212E-01  0.90007740230E+02  0.90000001601E+02 0.  0.
         12    1    1    2    0    0 -0.11723197638E+01  0.12221238947E+00 -0.61185189212E-01  0.11802597697E+01  0.00000000000E+00 0. -1.
         11    1    3    3    0    0 -0.15000907923E+01 -0.10395354346E+02 -0.43119253925E+01  0.11353693901E+02  0.51100000000E-03 0. -1.
        -11    1    3    3    0    0 -0.27176295723E+02 -0.10310640317E+02 -0.19716866220E+02  0.35122858181E+02  0.51100000000E-03 0.  1.
         12    1    3    3    0    0  0.29848706279E+02  0.20583782274E+02  0.24089976802E+02  0.43531188148E+02  0.00000000000E+00 0. -1.
</event>
<event>
 7    1  0.2285268E-015  0.9000734E+02  0.7816164E-02  0.1186340E+00
        -11   -1    0    0    0    0  0.00000000000E+00  0.00000000000E+00  0.45593999997E+02  0.45594000000E+02  0.51100000000E-03 0.  1.
         11   -1    0    0    0    0 -0.00000000000E+00 -0.00000000000E+00 -0.45593999997E+02  0.45594000000E+02  0.51100000000E-03 0. -1.
    9900012    2    1    2    0    0 -0.88613189313E+00  0.72490785148E+00  0.28851038491E+00  0.90007339436E+02  0.89999595516E+02 0.  0.
         12    1    1    2    0    0  0.88613189313E+00 -0.72490785148E+00 -0.28851038491E+00  0.11806605640E+01  0.00000000000E+00 0. -1.
         11    1    3    3    0    0 -0.83735858533E+01  0.50043811973E+01  0.14322200633E+01  0.98596159043E+01  0.51100000000E-03 0. -1.
        -11    1    3    3    0    0 -0.25348238019E+01 -0.35445205307E+02  0.20383240001E+02  0.40966625248E+02  0.51100000000E-03 0.  1.
         12    1    3    3    0    0  0.10022277762E+02  0.31165731962E+02 -0.21526949679E+02  0.39181098284E+02  0.00000000000E+00 0. -1.
</event>
<event>
 7    1  0.2285268E-015  0.9000770E+02  0.7816164E-02  0.1186339E+00
        -11   -1    0    0    0    0  0.00000000000E+00  0.00000000000E+00  0.45593999997E+02  0.45594000000E+02  0.51100000000E-03 0. -1.
         11   -1    0    0    0    0 -0.00000000000E+00 -0.00000000000E+00 -0.45593999997E+02  0.45594000000E+02  0.51100000000E-03 0.  1.
    9900012    2    1    2    0    0 -0.10571786732E+01  0.29282009044E+00 -0.43558385486E+00  0.90007701882E+02  0.89999962747E+02 0.  0.
         12    1    1    2    0    0  0.10571786732E+01 -0.29282009044E+00  0.43558385486E+00  0.11802981179E+01  0.00000000000E+00 0. -1.
         11    1    3    3    0    0  0.12554145507E+02 -0.18198266341E+02  0.19904894506E+02  0.29748752794E+02  0.51100000000E-03 0. -1.
        -11    1    3    3    0    0  0.14347753139E+02 -0.57803130031E+01  0.39661550940E+01  0.15968732731E+02  0.51100000000E-03 0.  1.
        -12    1    3    3    0    0 -0.27959077320E+02  0.24271399434E+02 -0.24306633455E+02  0.44290216357E+02  0.00000000000E+00 0.  1.
</event>
<event>
 7    1  0.2285268E-015  0.9000773E+02  0.7816164E-02  0.1186339E+00
        -11   -1    0    0    0    0  0.00000000000E+00  0.00000000000E+00  0.45593999997E+02  0.45594000000E+02  0.51100000000E-03 0. -1.
         11   -1    0    0    0    0 -0.00000000000E+00 -0.00000000000E+00 -0.45593999997E+02  0.45594000000E+02  0.51100000000E-03 0.  1.
    9900012    2    1    2    0    0  0.16011232962E+00 -0.76156116642E+00 -0.88736472247E+00  0.90007734132E+02  0.89999995423E+02 0.  0.
         12    1    1    2    0    0 -0.16011232962E+00  0.76156116642E+00  0.88736472247E+00  0.11802658679E+01  0.00000000000E+00 0. -1.
         11    1    3    3    0    0  0.76870410339E+01  0.57916326328E+01  0.76233645598E+00  0.96547794145E+01  0.51100000000E-03 0. -1.
        -11    1    3    3    0    0 -0.27566735183E+01 -0.42762724064E+02 -0.70691326635E+01  0.43430662614E+02  0.51100000000E-03 0.  1.
         12    1    3    3    0    0 -0.47702551860E+01  0.36209530265E+02  0.54194314851E+01  0.36922292103E+02  0.00000000000E+00 0. -1.
</event>
<event>
 7    1  0.2285268E-015  0.9000811E+02  0.7816164E-02  0.1186338E+00
        -11   -1    0    0    0    0  0.00000000000E+00  0.00000000000E+00  0.45593999997E+02  0.45594000000E+02  0.51100000000E-03 0.  1.
         11   -1    0    0    0    0 -0.00000000000E+00 -0.00000000000E+00 -0.45593999997E+02  0.45594000000E+02  0.51100000000E-03 0. -1.
    9900012    2    1    2    0    0  0.77004959080E+00 -0.59850855272E-01 -0.89194957758E+00  0.90008113333E+02  0.90000379629E+02 0.  0.
         12    1    1    2    0    0 -0.77004959080E+00  0.59850855272E-01  0.89194957758E+00  0.11798866666E+01  0.00000000000E+00 0. -1.
         11    1    3    3    0    0  0.21340901615E+02 -0.26637044162E+02 -0.23204274629E+02  0.41272322018E+02  0.51100000000E-03 0. -1.
        -11    1    3    3    0    0 -0.33210484394E+01 -0.55386191618E+01  0.59344910508E+01  0.87706242223E+01  0.51100000000E-03 0.  1.
        -12    1    3    3    0    0 -0.17249803585E+02  0.32115812468E+02  0.16377834001E+02  0.39965167093E+02  0.00000000000E+00 0.  1.
</event>
<event>
 7    1  0.2285268E-015  0.9000806E+02  0.7816164E-02  0.1186338E+00
        -11   -1    0    0    0    0  0.00000000000E+00  0.00000000000E+00  0.45593999997E+02  0.45594000000E+02  0.51100000000E-03 0. -1.
         11   -1    0    0    0    0 -0.00000000000E+00 -0.00000000000E+00 -0.45593999997E+02  0.45594000000E+02  0.51100000000E-03 0.  1.
    9900012    2    1    2    0    0 -0.73249488884E+00  0.77916835138E+00 -0.49859809130E+00  0.90008062655E+02  0.90000328281E+02 0.  0.
         12    1    1    2    0    0  0.73249488884E+00 -0.77916835138E+00  0.49859809130E+00  0.11799373452E+01  0.00000000000E+00 0. -1.
         11    1    3    3    0    0 -0.56768824885E+01 -0.24261385735E+01  0.82263744074E+01  0.10285250571E+02  0.51100000000E-03 0. -1.
        -11    1    3    3    0    0 -0.19985330571E+02  0.17946377127E+02 -0.32563336712E+02  0.42212045534E+02  0.51100000000E-03 0.  1.
         12    1    3    3    0    0  0.24929718170E+02 -0.14741070203E+02  0.23838364214E+02  0.37510766550E+02  0.00000000000E+00 0. -1.
</event>
<event>
 7    1  0.2285268E-015  0.9000780E+02  0.7816164E-02  0.1186339E+00
        -11   -1    0    0    0    0  0.00000000000E+00  0.00000000000E+00  0.45593999997E+02  0.45594000000E+02  0.51100000000E-03 0.  1.
         11   -1    0    0    0    0 -0.00000000000E+00 -0.00000000000E+00 -0.45593999997E+02  0.45594000000E+02  0.51100000000E-03 0. -1.
    9900012    2    1    2    0    0  0.31294183798E+00  0.10111612449E+01  0.52201196349E+00  0.90007798260E+02  0.90000060397E+02 0.  0.
         12    1    1    2    0    0 -0.31294183798E+00 -0.10111612449E+01 -0.52201196349E+00  0.11802017400E+01  0.00000000000E+00 0. -1.
         11    1    3    3    0    0  0.13192663152E+02  0.10551045064E+02 -0.17426184351E+01  0.16982568482E+02  0.51100000000E-03 0. -1.
        -11    1    3    3    0    0 -0.22442580133E+02  0.10913843676E+02  0.28849885158E+02  0.38145737123E+02  0.51100000000E-03 0.  1.
         12    1    3    3    0    0  0.95628588194E+01 -0.20453727495E+02 -0.26585254759E+02  0.34879492655E+02  0.00000000000E+00 0. -1.
</event>
<event>
 7    1  0.2285268E-015  0.9000778E+02  0.7816164E-02  0.1186339E+00
        -11   -1    0    0    0    0  0.00000000000E+00  0.00000000000E+00  0.45593999997E+02  0.45594000000E+02  0.51100000000E-03 0.  1.
         11   -1    0    0    0    0 -0.00000000000E+00 -0.00000000000E+00 -0.45593999997E+02  0.45594000000E+02  0.51100000000E-03 0. -1.
    9900012    2    1    2    0    0  0.45100151456E+00  0.45747548296E+00  0.99006332446E+00  0.90007783253E+02  0.90000045192E+02 0.  0.
         12    1    1    2    0    0 -0.45100151456E+00 -0.45747548296E+00 -0.99006332446E+00  0.11802167471E+01  0.00000000000E+00 0. -1.
         11    1    3    3    0    0 -0.25544609574E+01 -0.77884757296E+00 -0.91066811243E+01  0.94901799606E+01  0.51100000000E-03 0. -1.
        -11    1    3    3    0    0  0.26849057179E+02  0.12476949397E+02 -0.23510249699E+02  0.37805792927E+02  0.51100000000E-03 0.  1.
         12    1    3    3    0    0 -0.23843594707E+02 -0.11240626341E+02  0.33606994147E+02  0.42711810366E+02  0.00000000000E+00 0. -1.
</event>
<event>
 7    1  0.2285268E-015  0.9000773E+02  0.7816164E-02  0.1186339E+00
        -11   -1    0    0    0    0  0.00000000000E+00  0.00000000000E+00  0.45593999997E+02  0.45594000000E+02  0.51100000000E-03 0. -1.
         11   -1    0    0    0    0 -0.00000000000E+00 -0.00000000000E+00 -0.45593999997E+02  0.45594000000E+02  0.51100000000E-03 0.  1.
    9900012    2    1    2    0    0  0.11206295811E+01  0.13478963395E+00 -0.34505250941E+00  0.90007728786E+02  0.89999990006E+02 0.  0.
         12    1    1    2    0    0 -0.11206295811E+01 -0.13478963395E+00  0.34505250941E+00  0.11802712136E+01  0.00000000000E+00 0. -1.
         11    1    3    3    0    0  0.21017876394E+00 -0.87535366052E+00 -0.76656162470E+01  0.77182959162E+01  0.51100000000E-03 0. -1.
        -11    1    3    3    0    0 -0.92530170725E+01  0.36737409732E+02 -0.12870892199E+02  0.40011441676E+02  0.51100000000E-03 0.  1.
         12    1    3    3    0    0  0.10163467890E+02 -0.35727266437E+02  0.20191455936E+02  0.42277991194E+02  0.00000000000E+00 0. -1.
</event>
<event>
 7    1  0.2285268E-015  0.9000750E+02  0.7816164E-02  0.1186340E+00
        -11   -1    0    0    0    0  0.00000000000E+00  0.00000000000E+00  0.45593999997E+02  0.45594000000E+02  0.51100000000E-03 0.  1.
         11   -1    0    0    0    0 -0.00000000000E+00 -0.00000000000E+00 -0.45593999997E+02  0.45594000000E+02  0.51100000000E-03 0. -1.
    9900012    2    1    2    0    0  0.10529052457E+01  0.19282422791E+00  0.49778360548E+00  0.90007500463E+02  0.89999758669E+02 0.  0.
         12    1    1    2    0    0 -0.10529052457E+01 -0.19282422791E+00 -0.49778360548E+00  0.11804995371E+01  0.00000000000E+00 0. -1.
         11    1    3    3    0    0 -0.16073839665E+02 -0.21713349108E+02 -0.20079733870E+02  0.33660563923E+02  0.51100000000E-03 0. -1.
        -11    1    3    3    0    0 -0.57436571120E+01 -0.72632016648E+01 -0.57340270426E+01  0.10891407706E+02  0.51100000000E-03 0.  1.
        -12    1    3    3    0    0  0.22870402022E+02  0.29169375000E+02  0.26311544518E+02  0.45455528833E+02  0.00000000000E+00 0.  1.
</event>
<event>
 7    1  0.2285268E-015  0.9000774E+02  0.7816164E-02  0.1186339E+00
        -11   -1    0    0    0    0  0.00000000000E+00  0.00000000000E+00  0.45593999997E+02  0.45594000000E+02  0.51100000000E-03 0.  1.
         11   -1    0    0    0    0 -0.00000000000E+00 -0.00000000000E+00 -0.45593999997E+02  0.45594000000E+02  0.51100000000E-03 0. -1.
    9900012    2    1    2    0    0 -0.59521379700E+00 -0.71609991517E+00  0.72521137669E+00  0.90007741514E+02  0.90000002902E+02 0.  0.
         12    1    1    2    0    0  0.59521379700E+00  0.71609991517E+00 -0.72521137669E+00  0.11802584859E+01  0.00000000000E+00 0. -1.
         11    1    3    3    0    0  0.36145892804E+02 -0.27166402463E+01  0.28838146093E+01  0.36362371867E+02  0.51100000000E-03 0. -1.
        -11    1    3    3    0    0  0.81633888354E+01  0.28641028032E+01  0.39284115312E+00  0.86601574222E+01  0.51100000000E-03 0.  1.
        -12    1    3    3    0    0 -0.44904495436E+02 -0.86356247207E+00 -0.25514443857E+01  0.44985212225E+02  0.00000000000E+00 0.  1.
</event>
<event>
 7    1  0.2285268E-015  0.9000758E+02  0.7816164E-02  0.1186339E+00
        -11   -1    0    0    0    0  0.00000000000E+00  0.00000000000E+00  0.45593999997E+02  0.45594000000E+02  0.51100000000E-03 0. -1.
         11   -1    0    0    0    0 -0.00000000000E+00 -0.00000000000E+00 -0.45593999997E+02  0.45594000000E+02  0.51100000000E-03 0.  1.
    9900012    2    1    2    0    0 -0.72465967081E+00 -0.88047532793E+00 -0.30501230754E+00  0.90007575945E+02  0.89999835147E+02 0.  0.
         12    1    1    2    0    0  0.72465967081E+00  0.88047532793E+00  0.30501230754E+00  0.11804240549E+01  0.00000000000E+00 0. -1.
         11    1    3    3    0    0  0.28408880799E+01  0.74744370185E+01 -0.22667524946E+02  0.24036525149E+02  0.51100000000E-03 0. -1.
        -11    1    3    3    0    0 -0.24352749481E+02 -0.17690207081E+02 -0.48388216834E+01  0.30486292484E+02  0.51100000000E-03 0.  1.
         12    1    3    3    0    0  0.20787201730E+02  0.93352947351E+01  0.27201334322E+02  0.35484758312E+02  0.00000000000E+00 0. -1.
</event>
<event>
 7    1  0.2285268E-015  0.9000772E+02  0.7816164E-02  0.1186339E+00
        -11   -1    0    0    0    0  0.00000000000E+00  0.00000000000E+00  0.45593999997E+02  0.45594000000E+02  0.51100000000E-03 0. -1.
         11   -1    0    0    0    0 -0.00000000000E+00 -0.00000000000E+00 -0.45593999997E+02  0.45594000000E+02  0.51100000000E-03 0.  1.
    9900012    2    1    2    0    0  0.65948150029E+00  0.56920394056E+00 -0.79633227901E+00  0.90007722883E+02  0.89999984025E+02 0.  0.
         12    1    1    2    0    0 -0.65948150029E+00 -0.56920394056E+00  0.79633227901E+00  0.11802771174E+01  0.00000000000E+00 0. -1.
         11    1    3    3    0    0  0.18209200787E+02 -0.25294296516E+02  0.20175100421E+02  0.37126959299E+02  0.51100000000E-03 0. -1.
        -11    1    3    3    0    0  0.87658717618E+01  0.95922566436E+01  0.34724008111E+01  0.13450258842E+02  0.51100000000E-03 0.  1.
        -12    1    3    3    0    0 -0.26315591049E+02  0.16271243813E+02 -0.24443833511E+02  0.39430504742E+02  0.00000000000E+00 0.  1.
</event>
<event>
 7    1  0.2285268E-015  0.9000837E+02  0.7816164E-02  0.1186338E+00
        -11   -1    0    0    0    0  0.00000000000E+00  0.00000000000E+00  0.45593999997E+02  0.45594000000E+02  0.51100000000E-03 0. -1.
         11   -1    0    0    0    0 -0.00000000000E+00 -0.00000000000E+00 -0.45593999997E+02  0.45594000000E+02  0.51100000000E-03 0.  1.
    9900012    2    1    2    0    0  0.83679492393E-01  0.10964805591E+01  0.42691030155E+00  0.90008371126E+02  0.90000640823E+02 0.  0.
         12    1    1    2    0    0 -0.83679492393E-01 -0.10964805591E+01 -0.42691030155E+00  0.11796288736E+01  0.00000000000E+00 0. -1.
         11    1    3    3    0    0  0.10623312954E+01 -0.18775728783E+01 -0.96375765660E+01  0.98760675383E+01  0.51100000000E-03 0. -1.
        -11    1    3    3    0    0  0.23084619036E+02  0.18209455595E+02 -0.22387291355E+02  0.36955036512E+02  0.51100000000E-03 0.  1.
         12    1    3    3    0    0 -0.24063270839E+02 -0.15235402158E+02  0.32451778222E+02  0.43177267076E+02  0.00000000000E+00 0. -1.
</event>
<event>
 7    1  0.2285268E-015  0.9000771E+02  0.7816164E-02  0.1186339E+00
        -11   -1    0    0    0    0  0.00000000000E+00  0.00000000000E+00  0.45593999997E+02  0.45594000000E+02  0.51100000000E-03 0. -1.
         11   -1    0    0    0    0 -0.00000000000E+00 -0.00000000000E+00 -0.45593999997E+02  0.45594000000E+02  0.51100000000E-03 0.  1.
    9900012    2    1    2    0    0  0.21368846761E+00  0.57352960480E+00 -0.10091962098E+01  0.90007713612E+02  0.89999974631E+02 0.  0.
         12    1    1    2    0    0 -0.21368846761E+00 -0.57352960480E+00  0.10091962098E+01  0.11802863884E+01  0.00000000000E+00 0. -1.
         11    1    3    3    0    0 -0.57071155592E+01 -0.91071636708E+00  0.54755241750E+01  0.79612773824E+01  0.51100000000E-03 0. -1.
        -11    1    3    3    0    0  0.16433442069E+01 -0.28350725324E+02 -0.31836652848E+02  0.42661887808E+02  0.51100000000E-03 0.  1.
         12    1    3    3    0    0  0.42774598199E+01  0.29834971296E+02  0.25351932463E+02  0.39384548421E+02  0.00000000000E+00 0. -1.
</event>
<event>
 7    1  0.2285268E-015  0.9000776E+02  0.7816164E-02  0.1186339E+00
        -11   -1    0    0    0    0  0.00000000000E+00  0.00000000000E+00  0.45593999997E+02  0.45594000000E+02  0.51100000000E-03 0.  1.
         11   -1    0    0    0    0 -0.00000000000E+00 -0.00000000000E+00 -0.45593999997E+02  0.45594000000E+02  0.51100000000E-03 0. -1.
    9900012    2    1    2    0    0  0.10913751040E+01  0.12691936950E+00  0.43098575241E+00  0.90007764065E+02  0.90000025750E+02 0.  0.
         12    1    1    2    0    0 -0.10913751040E+01 -0.12691936950E+00 -0.43098575241E+00  0.11802359352E+01  0.00000000000E+00 0. -1.
         11    1    3    3    0    0 -0.13232929582E+02 -0.15899063885E+02 -0.97572943539E+01  0.22871280050E+02  0.51100000000E-03 0. -1.
        -11    1    3    3    0    0  0.60298915700E+01 -0.18408418045E+02 -0.14298868271E+02  0.24076691662E+02  0.51100000000E-03 0.  1.
        -12    1    3    3    0    0  0.82944131162E+01  0.34434401300E+02  0.24487148377E+02  0.43059792353E+02  0.00000000000E+00 0.  1.
</event>
<event>
 7    1  0.2285268E-015  0.9000779E+02  0.7816164E-02  0.1186339E+00
        -11   -1    0    0    0    0  0.00000000000E+00  0.00000000000E+00  0.45593999997E+02  0.45594000000E+02  0.51100000000E-03 0.  1.
         11   -1    0    0    0    0 -0.00000000000E+00 -0.00000000000E+00 -0.45593999997E+02  0.45594000000E+02  0.51100000000E-03 0. -1.
    9900012    2    1    2    0    0  0.44226448225E+00  0.10428518453E+01  0.33128888844E+00  0.90007792319E+02  0.90000054377E+02 0.  0.
         12    1    1    2    0    0 -0.44226448225E+00 -0.10428518453E+01 -0.33128888844E+00  0.11802076813E+01  0.00000000000E+00 0. -1.
         11    1    3    3    0    0 -0.30896255771E+02 -0.10002079527E+02 -0.27057631607E+02  0.42269795883E+02  0.51100000000E-03 0. -1.
        -11    1    3    3    0    0 -0.28432499985E+01  0.26596478055E+01  0.23972835417E+01  0.45721729674E+01  0.51100000000E-03 0.  1.
        -12    1    3    3    0    0  0.34181770252E+02  0.83852835667E+01  0.24991636954E+02  0.43165823468E+02  0.00000000000E+00 0.  1.
</event>
<event>
 7    1  0.2285268E-015  0.9000777E+02  0.7816164E-02  0.1186339E+00
        -11   -1    0    0    0    0  0.00000000000E+00  0.00000000000E+00  0.45593999997E+02  0.45594000000E+02  0.51100000000E-03 0.  1.
         11   -1    0    0    0    0 -0.00000000000E+00 -0.00000000000E+00 -0.45593999997E+02  0.45594000000E+02  0.51100000000E-03 0. -1.
    9900012    2    1    2    0    0  0.44175880349E+00 -0.40064197316E+00  0.10184659746E+01  0.90007772152E+02  0.90000033945E+02 0.  0.
         12    1    1    2    0    0 -0.44175880349E+00  0.40064197316E+00 -0.10184659746E+01  0.11802278477E+01  0.00000000000E+00 0. -1.
         11    1    3    3    0    0 -0.28261899781E+02  0.17339849519E+02 -0.13462581148E+02  0.35786120941E+02  0.51100000000E-03 0. -1.
        -11    1    3    3    0    0 -0.92366046709E+01  0.89577983570E+00 -0.70404039743E+00  0.93066084318E+01  0.51100000000E-03 0.  1.
        -12    1    3    3    0    0  0.37940263255E+02 -0.18636271328E+02  0.15185087520E+02  0.44915042780E+02  0.00000000000E+00 0.  1.
</event>
<event>
 7    1  0.2285268E-015  0.9000781E+02  0.7816164E-02  0.1186339E+00
        -11   -1    0    0    0    0  0.00000000000E+00  0.00000000000E+00  0.45593999997E+02  0.45594000000E+02  0.51100000000E-03 0. -1.
         11   -1    0    0    0    0 -0.00000000000E+00 -0.00000000000E+00 -0.45593999997E+02  0.45594000000E+02  0.51100000000E-03 0.  1.
    9900012    2    1    2    0    0 -0.10043867345E+01 -0.61392303484E+00 -0.84632762652E-01  0.90007806410E+02  0.90000068655E+02 0.  0.
         12    1    1    2    0    0  0.10043867345E+01  0.61392303484E+00  0.84632762652E-01  0.11801935899E+01  0.00000000000E+00 0. -1.
         11    1    3    3    0    0  0.27739682930E+02  0.25293574678E+02  0.34221103835E+01  0.37695699606E+02  0.51100000000E-03 0. -1.
        -11    1    3    3    0    0  0.69806513276E+01 -0.62576039067E+01  0.50547306630E+01  0.10650699599E+02  0.51100000000E-03 0.  1.
        -12    1    3    3    0    0 -0.35724720992E+02 -0.19649893806E+02 -0.85614738091E+01  0.41661407205E+02  0.00000000000E+00 0.  1.
</event>
<event>
 7    1  0.2285268E-015  0.9000780E+02  0.7816164E-02  0.1186339E+00
        -11   -1    0    0    0    0  0.00000000000E+00  0.00000000000E+00  0.45593999997E+02  0.45594000000E+02  0.51100000000E-03 0.  1.
         11   -1    0    0    0    0 -0.00000000000E+00 -0.00000000000E+00 -0.45593999997E+02  0.45594000000E+02  0.51100000000E-03 0. -1.
    9900012    2    1    2    0    0  0.11483401697E+01  0.83455473421E-01  0.25927134661E+00  0.90007800190E+02  0.90000062352E+02 0.  0.
         12    1    1    2    0    0 -0.11483401697E+01 -0.83455473421E-01 -0.25927134661E+00  0.11801998104E+01  0.00000000000E+00 0. -1.
         11    1    3    3    0    0 -0.38655998209E+01  0.35187811286E+00 -0.16546246872E+02  0.16995439565E+02  0.51100000000E-03 0. -1.
        -11    1    3    3    0    0  0.20162831954E+02  0.18799250783E+02 -0.16215305597E+02  0.31982616501E+02  0.51100000000E-03 0.  1.
        -12    1    3    3    0    0 -0.15148891963E+02 -0.19067673422E+02  0.33020823816E+02  0.41029744124E+02  0.00000000000E+00 0.  1.
</event>
<event>
 7    1  0.2285268E-015  0.9000775E+02  0.7816164E-02  0.1186339E+00
        -11   -1    0    0    0    0  0.00000000000E+00  0.00000000000E+00  0.45593999997E+02  0.45594000000E+02  0.51100000000E-03 0.  1.
         11   -1    0    0    0    0 -0.00000000000E+00 -0.00000000000E+00 -0.45593999997E+02  0.45594000000E+02  0.51100000000E-03 0. -1.
    9900012    2    1    2    0    0  0.10575602928E+01  0.44203378269E+00  0.28137097753E+00  0.90007746949E+02  0.90000008408E+02 0.  0.
         12    1    1    2    0    0 -0.10575602928E+01 -0.44203378269E+00 -0.28137097753E+00  0.11802530513E+01  0.00000000000E+00 0. -1.
         11    1    3    3    0    0  0.29733250087E+01  0.12124989969E+01 -0.92082433271E+01  0.97520541865E+01  0.51100000000E-03 0. -1.
        -11    1    3    3    0    0  0.33203979418E+02  0.19880392260E+02  0.14436608423E+01  0.38727488978E+02  0.51100000000E-03 0.  1.
         12    1    3    3    0    0 -0.35119744134E+02 -0.20650857474E+02  0.80459534623E+01  0.41528203785E+02  0.00000000000E+00 0. -1.
</event>
<event>
 7    1  0.2285268E-015  0.9000770E+02  0.7816164E-02  0.1186339E+00
        -11   -1    0    0    0    0  0.00000000000E+00  0.00000000000E+00  0.45593999997E+02  0.45594000000E+02  0.51100000000E-03 0.  1.
         11   -1    0    0    0    0 -0.00000000000E+00 -0.00000000000E+00 -0.45593999997E+02  0.45594000000E+02  0.51100000000E-03 0. -1.
    9900012    2    1    2    0    0 -0.38842757187E+00  0.11134671436E+01  0.49118182335E-01  0.90007704421E+02  0.89999965319E+02 0.  0.
         12    1    1    2    0    0  0.38842757187E+00 -0.11134671436E+01 -0.49118182335E-01  0.11802955793E+01  0.00000000000E+00 0. -1.
         11    1    3    3    0    0  0.25218780476E+02  0.10300613151E+02 -0.29512259919E+02  0.40162955640E+02  0.51100000000E-03 0. -1.
        -11    1    3    3    0    0  0.16329951838E+01 -0.85763991535E+01 -0.11305235475E+01  0.88033731866E+01  0.51100000000E-03 0.  1.
        -12    1    3    3    0    0 -0.27240203232E+02 -0.61074685350E+00  0.30691901649E+02  0.41041375594E+02  0.00000000000E+00 0.  1.
</event>
<event>
 7    1  0.2285268E-015  0.9000687E+02  0.7816164E-02  0.1186341E+00
        -11   -1    0    0    0    0  0.00000000000E+00  0.00000000000E+00  0.45593999997E+02  0.45594000000E+02  0.51100000000E-03 0. -1.
         11   -1    0    0    0    0 -0.00000000000E+00 -0.00000000000E+00 -0.45593999997E+02  0.45594000000E+02  0.51100000000E-03 0.  1.
    9900012    2    1    2    0    0  0.68021002939E+00 -0.48668821721E-01 -0.96437583235E+00  0.90006867034E+02  0.89999116874E+02 0.  0.
         12    1    1    2    0    0 -0.68021002939E+00  0.48668821721E-01  0.96437583235E+00  0.11811329664E+01  0.00000000000E+00 0. -1.
         11    1    3    3    0    0 -0.63298768747E+01  0.61250588180E+01  0.95524742875E+00  0.88598072600E+01  0.51100000000E-03 0. -1.
        -11    1    3    3    0    0  0.92112480628E+01  0.40729685968E+01 -0.40208004263E+02  0.41450208337E+02  0.51100000000E-03 0.  1.
         12    1    3    3    0    0 -0.22011611587E+01 -0.10246696237E+02  0.38288381002E+02  0.39696851437E+02  0.00000000000E+00 0. -1.
</event>
<event>
 7    1  0.2285268E-015  0.9000781E+02  0.7816164E-02  0.1186339E+00
        -11   -1    0    0    0    0  0.00000000000E+00  0.00000000000E+00  0.45593999997E+02  0.45594000000E+02  0.51100000000E-03 0.  1.
         11   -1    0    0    0    0 -0.00000000000E+00 -0.00000000000E+00 -0.45593999997E+02  0.45594000000E+02  0.51100000000E-03 0. -1.
    9900012    2    1    2    0    0 -0.92219599060E+00 -0.18465360984E+00  0.71296077385E+00  0.90007807022E+02  0.90000069274E+02 0.  0.
         12    1    1    2    0    0  0.92219599060E+00  0.18465360984E+00 -0.71296077385E+00  0.11801929782E+01  0.00000000000E+00 0. -1.
         11    1    3    3    0    0  0.19813877362E+01  0.32595998982E+01 -0.67582004498E+01  0.77604228260E+01  0.51100000000E-03 0. -1.
        -11    1    3    3    0    0 -0.10437441802E+02  0.33668588712E+02  0.22151430114E+02  0.41631717639E+02  0.51100000000E-03 0.  1.
         12    1    3    3    0    0  0.75338580750E+01 -0.37112842220E+02 -0.14680268890E+02  0.40615666557E+02  0.00000000000E+00 0. -1.
</event>
<event>
 7    1  0.2285268E-015  0.9000778E+02  0.7816164E-02  0.1186339E+00
        -11   -1    0    0    0    0  0.00000000000E+00  0.00000000000E+00  0.45593999997E+02  0.45594000000E+02  0.51100000000E-03 0. -1.
         11   -1    0    0    0    0 -0.00000000000E+00 -0.00000000000E+00 -0.45593999997E+02  0.45594000000E+02  0.51100000000E-03 0.  1.
    9900012    2    1    2    0    0  0.36995292949E+00  0.11000520786E+01  0.21431986810E+00  0.90007782752E+02  0.90000044685E+02 0.  0.
         12    1    1    2    0    0 -0.36995292949E+00 -0.11000520786E+01 -0.21431986810E+00  0.11802172476E+01  0.00000000000E+00 0. -1.
         11    1    3    3    0    0 -0.59556959427E+01  0.65870248796E+01  0.39163034674E+01  0.97054955586E+01  0.51100000000E-03 0. -1.
        -11    1    3    3    0    0 -0.57992648511E+01  0.35595668177E+02 -0.89183243762E+01  0.37151306514E+02  0.51100000000E-03 0.  1.
         12    1    3    3    0    0  0.12124913723E+02 -0.41082640978E+02  0.52163407769E+01  0.43150980680E+02  0.00000000000E+00 0. -1.
</event>
<event>
 7    1  0.2285268E-015  0.9000696E+02  0.7816164E-02  0.1186341E+00
        -11   -1    0    0    0    0  0.00000000000E+00  0.00000000000E+00  0.45593999997E+02  0.45594000000E+02  0.51100000000E-03 0.  1.
         11   -1    0    0    0    0 -0.00000000000E+00 -0.00000000000E+00 -0.45593999997E+02  0.45594000000E+02  0.51100000000E-03 0. -1.
    9900012    2    1    2    0    0  0.10881210669E+01  0.29119756889E+00  0.35503117151E+00  0.90006962061E+02  0.89999213157E+02 0.  0.
         12    1    1    2    0    0 -0.10881210669E+01 -0.29119756889E+00 -0.35503117151E+00  0.11810379389E+01  0.00000000000E+00 0. -1.
         11    1    3    3    0    0 -0.14663611572E+01 -0.35307594067E+01 -0.79115720606E+01  0.87868907904E+01  0.51100000000E-03 0. -1.
        -11    1    3    3    0    0 -0.16947037785E+02  0.37515221213E+02 -0.10960468586E+01  0.41180034378E+02  0.51100000000E-03 0.  1.
         12    1    3    3    0    0  0.19501520009E+02 -0.33693264238E+02  0.93626500907E+01  0.40040036893E+02  0.00000000000E+00 0. -1.
</event>
<event>
 7    1  0.2285268E-015  0.9000777E+02  0.7816164E-02  0.1186339E+00
        -11   -1    0    0    0    0  0.00000000000E+00  0.00000000000E+00  0.45593999997E+02  0.45594000000E+02  0.51100000000E-03 0. -1.
         11   -1    0    0    0    0 -0.00000000000E+00 -0.00000000000E+00 -0.45593999997E+02  0.45594000000E+02  0.51100000000E-03 0.  1.
    9900012    2    1    2    0    0 -0.32405881738E+00 -0.12054656456E+00 -0.11284535612E+01  0.90007765688E+02  0.90000027395E+02 0.  0.
         12    1    1    2    0    0  0.32405881738E+00  0.12054656456E+00  0.11284535612E+01  0.11802343120E+01  0.00000000000E+00 0. -1.
         11    1    3    3    0    0 -0.16017489313E+01 -0.40837760874E+02  0.55367668309E+01  0.41242503561E+02  0.51100000000E-03 0. -1.
        -11    1    3    3    0    0 -0.51843633946E+01 -0.13228676541E+01  0.12661831901E+01  0.54982563390E+01  0.51100000000E-03 0.  1.
        -12    1    3    3    0    0  0.64620535086E+01  0.42040081963E+02 -0.79314035823E+01  0.43267005787E+02  0.00000000000E+00 0.  1.
</event>
<event>
 7    1  0.2285268E-015  0.9000771E+02  0.7816164E-02  0.1186339E+00
        -11   -1    0    0    0    0  0.00000000000E+00  0.00000000000E+00  0.45593999997E+02  0.45594000000E+02  0.51100000000E-03 0. -1.
         11   -1    0    0    0    0 -0.00000000000E+00 -0.00000000000E+00 -0.45593999997E+02  0.45594000000E+02  0.51100000000E-03 0.  1.
    9900012    2    1    2    0    0 -0.80269744954E+00 -0.58709640591E+00 -0.63567643130E+00  0.90007707701E+02  0.89999968643E+02 0.  0.
         12    1    1    2    0    0  0.80269744954E+00  0.58709640591E+00  0.63567643130E+00  0.11802922988E+01  0.00000000000E+00 0. -1.
         11    1    3    3    0    0 -0.88601293222E+01 -0.38236530460E+02  0.12897706794E+02  0.41314464707E+02  0.51100000000E-03 0. -1.
        -11    1    3    3    0    0  0.54031590909E+01  0.41712668849E+01  0.66350244594E+01  0.95193038309E+01  0.51100000000E-03 0.  1.
        -12    1    3    3    0    0  0.26542727818E+01  0.33478167169E+02 -0.20168407685E+02  0.39173939163E+02  0.00000000000E+00 0.  1.
</event>
<event>
 7    1  0.2285268E-015  0.9000774E+02  0.7816164E-02  0.1186339E+00
        -11   -1    0    0    0    0  0.00000000000E+00  0.00000000000E+00  0.45593999997E+02  0.45594000000E+02  0.51100000000E-03 0. -1.
         11   -1    0    0    0    0 -0.00000000000E+00 -0.00000000000E+00 -0.45593999997E+02  0.45594000000E+02  0.51100000000E-03 0.  1.
    9900012    2    1    2    0    0 -0.19264750908E+00  0.22144149632E+00 -0.11431842553E+01  0.90007737470E+02  0.89999998804E+02 0.  0.
         12    1    1    2    0    0  0.19264750908E+00 -0.22144149632E+00  0.11431842553E+01  0.11802625304E+01  0.00000000000E+00 0. -1.
         11    1    3    3    0    0 -0.14698008990E+01  0.13379509378E+02  0.31775285230E+02  0.34508554556E+02  0.51100000000E-03 0. -1.
        -11    1    3    3    0    0 -0.69881959688E+01 -0.79487190802E+01  0.81035078475E+01  0.13329810862E+02  0.51100000000E-03 0.  1.
        -12    1    3    3    0    0  0.82653493587E+01 -0.52093488011E+01 -0.41021977333E+02  0.42169372052E+02  0.00000000000E+00 0.  1.
</event>
<event>
 7    1  0.2285268E-015  0.9000763E+02  0.7816164E-02  0.1186339E+00
        -11   -1    0    0    0    0  0.00000000000E+00  0.00000000000E+00  0.45593999997E+02  0.45594000000E+02  0.51100000000E-03 0.  1.
         11   -1    0    0    0    0 -0.00000000000E+00 -0.00000000000E+00 -0.45593999997E+02  0.45594000000E+02  0.51100000000E-03 0. -1.
    9900012    2    1    2    0    0  0.52617290655E+00  0.53894069457E+00  0.90882144640E+00  0.90007630811E+02  0.89999890738E+02 0.  0.
         12    1    1    2    0    0 -0.52617290655E+00 -0.53894069457E+00 -0.90882144640E+00  0.11803691886E+01  0.00000000000E+00 0. -1.
         11    1    3    3    0    0 -0.91503214844E+01  0.34128298884E+02  0.20105826994E+02  0.40653578530E+02  0.51100000000E-03 0. -1.
        -11    1    3    3    0    0  0.21864851837E+01  0.41053925602E+01 -0.81200345739E+01  0.93578804905E+01  0.51100000000E-03 0.  1.
        -12    1    3    3    0    0  0.74900092072E+01 -0.37694750749E+02 -0.11076970973E+02  0.39996171791E+02  0.00000000000E+00 0.  1.
</event>
<event>
 7    1  0.2285268E-015  0.9000759E+02  0.7816164E-02  0.1186339E+00
        -11   -1    0    0    0    0  0.00000000000E+00  0.00000000000E+00  0.45593999997E+02  0.45594000000E+02  0.51100000000E-03 0.  1.
         11   -1    0    0    0    0 -0.00000000000E+00 -0.00000000000E+00 -0.45593999997E+02  0.45594000000E+02  0.51100000000E-03 0. -1.
    9900012    2    1    2    0    0 -0.10460884172E+01 -0.17006853307E+00 -0.51976219558E+00  0.90007586080E+02  0.89999845416E+02 0.  0.
         12    1    1    2    0    0  0.10460884172E+01  0.17006853307E+00  0.51976219558E+00  0.11804139200E+01  0.00000000000E+00 0. -1.
         11    1    3    3    0    0  0.89936946865E+01  0.27068413999E+01 -0.34936398877E+01  0.10020930815E+02  0.51100000000E-03 0. -1.
        -11    1    3    3    0    0  0.54420675981E+01  0.26216368283E+02  0.27897221106E+02  0.38667415370E+02  0.51100000000E-03 0.  1.
         12    1    3    3    0    0 -0.15481850702E+02 -0.29093278216E+02 -0.24923343414E+02  0.41319239894E+02  0.00000000000E+00 0. -1.
</event>
<event>
 7    1  0.2285268E-015  0.9000802E+02  0.7816164E-02  0.1186338E+00
        -11   -1    0    0    0    0  0.00000000000E+00  0.00000000000E+00  0.45593999997E+02  0.45594000000E+02  0.51100000000E-03 0.  1.
         11   -1    0    0    0    0 -0.00000000000E+00 -0.00000000000E+00 -0.45593999997E+02  0.45594000000E+02  0.51100000000E-03 0. -1.
    9900012    2    1    2    0    0  0.10789984269E+01 -0.18064589200E+00  0.44212364217E+00  0.90008023789E+02  0.90000288903E+02 0.  0.
         12    1    1    2    0    0 -0.10789984269E+01  0.18064589200E+00 -0.44212364217E+00  0.11799762110E+01  0.00000000000E+00 0. -1.
         11    1    3    3    0    0 -0.46016673670E+01  0.19646905030E+02 -0.33943862857E+02  0.39488758473E+02  0.51100000000E-03 0. -1.
        -11    1    3    3    0    0  0.71493236370E+01  0.48869351500E+01  0.66500513021E+00  0.86854588659E+01  0.51100000000E-03 0.  1.
        -12    1    3    3    0    0 -0.14686578431E+01 -0.24714486072E+02  0.33720981369E+02  0.41833806450E+02  0.00000000000E+00 0.  1.
</event>
<event>
 7    1  0.2285268E-015  0.9000891E+02  0.7816164E-02  0.1186337E+00
        -11   -1    0    0    0    0  0.00000000000E+00  0.00000000000E+00  0.45593999997E+02  0.45594000000E+02  0.51100000000E-03 0. -1.
         11   -1    0    0    0    0 -0.00000000000E+00 -0.00000000000E+00 -0.45593999997E+02  0.45594000000E+02  0.51100000000E-03 0.  1.
    9900012    2    1    2    0    0  0.34404448780E+00 -0.60536910907E+00 -0.95153215007E+00  0.90008910605E+02  0.90001187418E+02 0.  0.
         12    1    1    2    0    0 -0.34404448780E+00  0.60536910907E+00  0.95153215007E+00  0.11790893946E+01  0.00000000000E+00 0. -1.
         11    1    3    3    0    0  0.74135881259E+01 -0.45968706130E+01 -0.11273945034E+01  0.87956538677E+01  0.51100000000E-03 0. -1.
        -11    1    3    3    0    0 -0.24238954653E+02 -0.92258427518E+00 -0.34520475299E+02  0.42190535663E+02  0.51100000000E-03 0.  1.
         12    1    3    3    0    0  0.17169411015E+02  0.49140857791E+01  0.34696337652E+02  0.39022721075E+02  0.00000000000E+00 0. -1.
</event>
<event>
 7    1  0.2285268E-015  0.9000781E+02  0.7816164E-02  0.1186339E+00
        -11   -1    0    0    0    0  0.00000000000E+00  0.00000000000E+00  0.45593999997E+02  0.45594000000E+02  0.51100000000E-03 0.  1.
         11   -1    0    0    0    0 -0.00000000000E+00 -0.00000000000E+00 -0.45593999997E+02  0.45594000000E+02  0.51100000000E-03 0. -1.
    9900012    2    1    2    0    0  0.59371209773E+00  0.10188858637E+01  0.47240121253E-01  0.90007807606E+02  0.90000069866E+02 0.  0.
         12    1    1    2    0    0 -0.59371209773E+00 -0.10188858637E+01 -0.47240121253E-01  0.11801923942E+01  0.00000000000E+00 0. -1.
         11    1    3    3    0    0 -0.22678258846E+02  0.29522345016E+02 -0.17977437257E+02  0.41340785311E+02  0.51100000000E-03 0. -1.
        -11    1    3    3    0    0  0.58488387950E+01  0.43441611006E+01  0.64340223494E+01  0.97199431465E+01  0.51100000000E-03 0.  1.
        -12    1    3    3    0    0  0.17423132149E+02 -0.32847620253E+02  0.11590655029E+02  0.38947079148E+02  0.00000000000E+00 0.  1.
</event>
<event>
 7    1  0.2285268E-015  0.9000791E+02  0.7816164E-02  0.1186339E+00
        -11   -1    0    0    0    0  0.00000000000E+00  0.00000000000E+00  0.45593999997E+02  0.45594000000E+02  0.51100000000E-03 0. -1.
         11   -1    0    0    0    0 -0.00000000000E+00 -0.00000000000E+00 -0.45593999997E+02  0.45594000000E+02  0.51100000000E-03 0.  1.
    9900012    2    1    2    0    0  0.92010308229E+00 -0.71045253450E+00 -0.20314602003E+00  0.90007914922E+02  0.90000178599E+02 0.  0.
         12    1    1    2    0    0 -0.92010308229E+00  0.71045253450E+00  0.20314602003E+00  0.11800850780E+01  0.00000000000E+00 0. -1.
         11    1    3    3    0    0 -0.24504451138E+02  0.13090560200E+02  0.29349196295E+02  0.40412946136E+02  0.51100000000E-03 0. -1.
        -11    1    3    3    0    0 -0.48728093111E+01 -0.73787254104E+01 -0.71463365700E+01  0.11369256172E+02  0.51100000000E-03 0.  1.
        -12    1    3    3    0    0  0.30297363532E+02 -0.64222873238E+01 -0.22406005745E+02  0.38225712615E+02  0.00000000000E+00 0.  1.
</event>
<event>
 7    1  0.2285268E-015  0.9000772E+02  0.7816164E-02  0.1186339E+00
        -11   -1    0    0    0    0  0.00000000000E+00  0.00000000000E+00  0.45593999997E+02  0.45594000000E+02  0.51100000000E-03 0. -1.
         11   -1    0    0    0    0 -0.00000000000E+00 -0.00000000000E+00 -0.45593999997E+02  0.45594000000E+02  0.51100000000E-03 0.  1.
    9900012    2    1    2    0    0 -0.80875634681E-01 -0.10935529726E+01 -0.43664004836E+00  0.90007723124E+02  0.89999984269E+02 0.  0.
         12    1    1    2    0    0  0.80875634681E-01  0.10935529726E+01  0.43664004836E+00  0.11802768760E+01  0.00000000000E+00 0. -1.
         11    1    3    3    0    0 -0.64028028960E+01 -0.36264863556E+02 -0.76075258282E+01  0.37603333139E+02  0.51100000000E-03 0. -1.
        -11    1    3    3    0    0 -0.13237980075E+01 -0.79601409638E+01  0.39099854549E+00  0.80789334353E+01  0.51100000000E-03 0.  1.
        -12    1    3    3    0    0  0.76457252688E+01  0.43131451547E+02  0.67798872343E+01  0.44325456550E+02  0.00000000000E+00 0.  1.
</event>
<event>
 7    1  0.2285268E-015  0.9000774E+02  0.7816164E-02  0.1186339E+00
        -11   -1    0    0    0    0  0.00000000000E+00  0.00000000000E+00  0.45593999997E+02  0.45594000000E+02  0.51100000000E-03 0.  1.
         11   -1    0    0    0    0 -0.00000000000E+00 -0.00000000000E+00 -0.45593999997E+02  0.45594000000E+02  0.51100000000E-03 0. -1.
    9900012    2    1    2    0    0  0.14190423754E+00  0.32643736815E+00  0.11253039681E+01  0.90007742745E+02  0.90000004149E+02 0.  0.
         12    1    1    2    0    0 -0.14190423754E+00 -0.32643736815E+00 -0.11253039681E+01  0.11802572553E+01  0.00000000000E+00 0. -1.
         11    1    3    3    0    0  0.24183454407E+02  0.49939979873E+01 -0.16206454270E+02  0.29536903075E+02  0.51100000000E-03 0. -1.
        -11    1    3    3    0    0  0.13925123007E+02 -0.17983979313E+01 -0.65841125685E+01  0.15507863311E+02  0.51100000000E-03 0.  1.
        -12    1    3    3    0    0 -0.37966673177E+02 -0.28691626878E+01  0.23915870807E+02  0.44962976359E+02  0.00000000000E+00 0.  1.
</event>
<event>
 7    1  0.2285268E-015  0.9000776E+02  0.7816164E-02  0.1186339E+00
        -11   -1    0    0    0    0  0.00000000000E+00  0.00000000000E+00  0.45593999997E+02  0.45594000000E+02  0.51100000000E-03 0. -1.
         11   -1    0    0    0    0 -0.00000000000E+00 -0.00000000000E+00 -0.45593999997E+02  0.45594000000E+02  0.51100000000E-03 0.  1.
    9900012    2    1    2    0    0 -0.79696010316E+00  0.64356466759E+00  0.58620509466E+00  0.90007763879E+02  0.90000025563E+02 0.  0.
         12    1    1    2    0    0  0.79696010316E+00 -0.64356466759E+00 -0.58620509466E+00  0.11802361206E+01  0.00000000000E+00 0. -1.
         11    1    3    3    0    0  0.24589090974E+02 -0.35076762737E+01  0.25703606847E+02  0.35743567155E+02  0.51100000000E-03 0. -1.
        -11    1    3    3    0    0  0.70317215800E+01 -0.42917449724E+01  0.46417440899E+01  0.94556846259E+01  0.51100000000E-03 0.  1.
        -12    1    3    3    0    0 -0.32417772657E+02  0.84429859137E+01 -0.29759145843E+02  0.44808512098E+02  0.00000000000E+00 0.  1.
</event>
<event>
 7    1  0.2285268E-015  0.9000774E+02  0.7816164E-02  0.1186339E+00
        -11   -1    0    0    0    0  0.00000000000E+00  0.00000000000E+00  0.45593999997E+02  0.45594000000E+02  0.51100000000E-03 0.  1.
         11   -1    0    0    0    0 -0.00000000000E+00 -0.00000000000E+00 -0.45593999997E+02  0.45594000000E+02  0.51100000000E-03 0. -1.
    9900012    2    1    2    0    0 -0.27848581300E+00 -0.88529889324E-02  0.11468966791E+01  0.90007743792E+02  0.90000005210E+02 0.  0.
         12    1    1    2    0    0  0.27848581300E+00  0.88529889324E-02 -0.11468966791E+01  0.11802562078E+01  0.00000000000E+00 0. -1.
         11    1    3    3    0    0 -0.36821126052E+02 -0.33406711998E+01  0.34577966877E+01  0.37133701216E+02  0.51100000000E-03 0. -1.
        -11    1    3    3    0    0 -0.47741809000E+01  0.26583614970E+00  0.87687346318E+01  0.99877014087E+01  0.51100000000E-03 0.  1.
        -12    1    3    3    0    0  0.41316821139E+02  0.30659820612E+01 -0.11079634640E+02  0.42886341168E+02  0.00000000000E+00 0.  1.
</event>
<event>
 7    1  0.2285268E-015  0.9000772E+02  0.7816164E-02  0.1186339E+00
        -11   -1    0    0    0    0  0.00000000000E+00  0.00000000000E+00  0.45593999997E+02  0.45594000000E+02  0.51100000000E-03 0.  1.
         11   -1    0    0    0    0 -0.00000000000E+00 -0.00000000000E+00 -0.45593999997E+02  0.45594000000E+02  0.51100000000E-03 0. -1.
    9900012    2    1    2    0    0  0.11757712025E+01 -0.10268919844E+00  0.94156030893E-02  0.90007715439E+02  0.89999976482E+02 0.  0.
         12    1    1    2    0    0 -0.11757712025E+01  0.10268919844E+00 -0.94156030893E-02  0.11802845613E+01  0.00000000000E+00 0. -1.
         11    1    3    3    0    0  0.10753544690E+02  0.10842776906E+01  0.10571716669E+02  0.15118716054E+02  0.51100000000E-03 0. -1.
        -11    1    3    3    0    0 -0.20603536702E+01  0.15575950281E+02  0.28037867522E+02  0.32139964217E+02  0.51100000000E-03 0.  1.
         12    1    3    3    0    0 -0.75174198174E+01 -0.16762917170E+02 -0.38600168588E+02  0.42749035168E+02  0.00000000000E+00 0. -1.
</event>
<event>
 7    1  0.2285268E-015  0.9000781E+02  0.7816164E-02  0.1186339E+00
        -11   -1    0    0    0    0  0.00000000000E+00  0.00000000000E+00  0.45593999997E+02  0.45594000000E+02  0.51100000000E-03 0. -1.
         11   -1    0    0    0    0 -0.00000000000E+00 -0.00000000000E+00 -0.45593999997E+02  0.45594000000E+02  0.51100000000E-03 0.  1.
    9900012    2    1    2    0    0  0.19183700735E-01  0.11649073274E+01 -0.18836835838E+00  0.90007805213E+02  0.90000067442E+02 0.  0.
         12    1    1    2    0    0 -0.19183700735E-01 -0.11649073274E+01  0.18836835838E+00  0.11801947866E+01  0.00000000000E+00 0. -1.
         11    1    3    3    0    0  0.13400390922E+02 -0.67350330389E+00  0.32227284989E+02  0.34908766543E+02  0.51100000000E-03 0. -1.
        -11    1    3    3    0    0  0.71152074465E+01 -0.29197970846E+01  0.70122536856E+01  0.10407838106E+02  0.51100000000E-03 0.  1.
        -12    1    3    3    0    0 -0.20496414668E+02  0.47582077159E+01 -0.39427907033E+02  0.44691200564E+02  0.00000000000E+00 0.  1.
</event>
<event>
 7    1  0.2285268E-015  0.9000769E+02  0.7816164E-02  0.1186339E+00
        -11   -1    0    0    0    0  0.00000000000E+00  0.00000000000E+00  0.45593999997E+02  0.45594000000E+02  0.51100000000E-03 0. -1.
         11   -1    0    0    0    0 -0.00000000000E+00 -0.00000000000E+00 -0.45593999997E+02  0.45594000000E+02  0.51100000000E-03 0.  1.
    9900012    2    1    2    0    0 -0.70719509518E+00 -0.44258724216E+00 -0.83493540955E+00  0.90007692622E+02  0.89999953364E+02 0.  0.
         12    1    1    2    0    0  0.70719509518E+00  0.44258724216E+00  0.83493540955E+00  0.11803073785E+01  0.00000000000E+00 0. -1.
         11    1    3    3    0    0  0.43446052149E+01  0.62695777379E+01  0.42185477988E+01  0.87166131769E+01  0.51100000000E-03 0. -1.
        -11    1    3    3    0    0  0.11321733730E+02  0.29034681609E+02  0.17724069168E+02  0.35851597160E+02  0.51100000000E-03 0.  1.
         12    1    3    3    0    0 -0.16373534040E+02 -0.35746846589E+02 -0.22777552376E+02  0.45439482285E+02  0.00000000000E+00 0. -1.
</event>
<event>
 7    1  0.2285268E-015  0.9000748E+02  0.7816164E-02  0.1186340E+00
        -11   -1    0    0    0    0  0.00000000000E+00  0.00000000000E+00  0.45593999997E+02  0.45594000000E+02  0.51100000000E-03 0. -1.
         11   -1    0    0    0    0 -0.00000000000E+00 -0.00000000000E+00 -0.45593999997E+02  0.45594000000E+02  0.51100000000E-03 0.  1.
    9900012    2    1    2    0    0  0.97867811826E+00 -0.63263762229E+00 -0.18865104167E+00  0.90007478744E+02  0.89999736663E+02 0.  0.
         12    1    1    2    0    0 -0.97867811826E+00  0.63263762229E+00  0.18865104167E+00  0.11805212560E+01  0.00000000000E+00 0. -1.
         11    1    3    3    0    0  0.54461577281E+01 -0.15235733795E+01  0.42654749391E+02  0.43028008967E+02  0.51100000000E-03 0. -1.
        -11    1    3    3    0    0 -0.74327440968E+01  0.18847274514E+01 -0.53359240078E+01  0.93418396289E+01  0.51100000000E-03 0.  1.
        -12    1    3    3    0    0  0.29652644869E+01 -0.99379169414E+00 -0.37507476425E+02  0.37637630148E+02  0.00000000000E+00 0.  1.
</event>
<event>
 7    1  0.2285268E-015  0.9000777E+02  0.7816164E-02  0.1186339E+00
        -11   -1    0    0    0    0  0.00000000000E+00  0.00000000000E+00  0.45593999997E+02  0.45594000000E+02  0.51100000000E-03 0.  1.
         11   -1    0    0    0    0 -0.00000000000E+00 -0.00000000000E+00 -0.45593999997E+02  0.45594000000E+02  0.51100000000E-03 0. -1.
    9900012    2    1    2    0    0  0.35704449831E+00  0.10875907295E+01  0.28742419901E+00  0.90007768227E+02  0.90000029967E+02 0.  0.
         12    1    1    2    0    0 -0.35704449831E+00 -0.10875907295E+01 -0.28742419901E+00  0.11802317733E+01  0.00000000000E+00 0. -1.
         11    1    3    3    0    0 -0.69301319507E+01 -0.29847246773E+02  0.14669500223E+02  0.33971739812E+02  0.51100000000E-03 0. -1.
        -11    1    3    3    0    0  0.67562801415E+01 -0.67861911319E+01  0.77316176552E+01  0.12307624598E+02  0.51100000000E-03 0.  1.
        -12    1    3    3    0    0  0.53089630753E+00  0.37721028635E+02 -0.22113693679E+02  0.43728403816E+02  0.00000000000E+00 0.  1.
</event>
<event>
 7    1  0.2285268E-015  0.9000758E+02  0.7816164E-02  0.1186339E+00
        -11   -1    0    0    0    0  0.00000000000E+00  0.00000000000E+00  0.45593999997E+02  0.45594000000E+02  0.51100000000E-03 0. -1.
         11   -1    0    0    0    0 -0.00000000000E+00 -0.00000000000E+00 -0.45593999997E+02  0.45594000000E+02  0.51100000000E-03 0.  1.
    9900012    2    1    2    0    0 -0.50484199445E+00  0.10717997767E+00 -0.10616194309E+01  0.90007581090E+02  0.89999840360E+02 0.  0.
         12    1    1    2    0    0  0.50484199445E+00 -0.10717997767E+00  0.10616194309E+01  0.11804189099E+01  0.00000000000E+00 0. -1.
         11    1    3    3    0    0  0.12552729055E+01 -0.72805327699E+00 -0.10987653942E+02  0.11083064154E+02  0.51100000000E-03 0. -1.
        -11    1    3    3    0    0 -0.20588144372E+02 -0.85045840727E+00 -0.29044364207E+02  0.35611375439E+02  0.51100000000E-03 0.  1.
         12    1    3    3    0    0  0.18828029472E+02  0.16856916619E+01  0.38970398718E+02  0.43313141498E+02  0.00000000000E+00 0. -1.
</event>
<event>
 7    1  0.2285268E-015  0.9000766E+02  0.7816164E-02  0.1186339E+00
        -11   -1    0    0    0    0  0.00000000000E+00  0.00000000000E+00  0.45593999997E+02  0.45594000000E+02  0.51100000000E-03 0. -1.
         11   -1    0    0    0    0 -0.00000000000E+00 -0.00000000000E+00 -0.45593999997E+02  0.45594000000E+02  0.51100000000E-03 0.  1.
    9900012    2    1    2    0    0 -0.67533495037E+00 -0.17975157868E+00 -0.95121526007E+00  0.90007661745E+02  0.89999922080E+02 0.  0.
         12    1    1    2    0    0  0.67533495037E+00  0.17975157868E+00  0.95121526007E+00  0.11803382550E+01  0.00000000000E+00 0. -1.
         11    1    3    3    0    0 -0.16100556006E+02  0.31788577309E+02 -0.42337684040E+01  0.35884068138E+02  0.51100000000E-03 0. -1.
        -11    1    3    3    0    0 -0.44938605340E+01  0.80971123187E+01  0.14341413410E-01  0.92605732187E+01  0.51100000000E-03 0.  1.
        -12    1    3    3    0    0  0.19919081590E+02 -0.40065441206E+02  0.32682117305E+01  0.44863020388E+02  0.00000000000E+00 0.  1.
</event>
<event>
 7    1  0.2285268E-015  0.9000774E+02  0.7816164E-02  0.1186339E+00
        -11   -1    0    0    0    0  0.00000000000E+00  0.00000000000E+00  0.45593999997E+02  0.45594000000E+02  0.51100000000E-03 0.  1.
         11   -1    0    0    0    0 -0.00000000000E+00 -0.00000000000E+00 -0.45593999997E+02  0.45594000000E+02  0.51100000000E-03 0. -1.
    9900012    2    1    2    0    0 -0.81181604976E+00 -0.18480850231E+00  0.83654712641E+00  0.90007741310E+02  0.90000002695E+02 0.  0.
         12    1    1    2    0    0  0.81181604976E+00  0.18480850231E+00 -0.83654712641E+00  0.11802586902E+01  0.00000000000E+00 0. -1.
         11    1    3    3    0    0 -0.12963298362E+02 -0.94053637819E+01 -0.32344077138E+02  0.36092205508E+02  0.51100000000E-03 0. -1.
        -11    1    3    3    0    0  0.12336326774E+01 -0.20213674644E+01 -0.87959479530E+01  0.91091424767E+01  0.51100000000E-03 0.  1.
        -12    1    3    3    0    0  0.10917849634E+02  0.11241922744E+02  0.41976572218E+02  0.44806393325E+02  0.00000000000E+00 0.  1.
</event>
<event>
 7    1  0.2285268E-015  0.9000768E+02  0.7816164E-02  0.1186339E+00
        -11   -1    0    0    0    0  0.00000000000E+00  0.00000000000E+00  0.45593999997E+02  0.45594000000E+02  0.51100000000E-03 0.  1.
         11   -1    0    0    0    0 -0.00000000000E+00 -0.00000000000E+00 -0.45593999997E+02  0.45594000000E+02  0.51100000000E-03 0. -1.
    9900012    2    1    2    0    0 -0.58437310298E+00  0.47743224159E+00 -0.90759107716E+00  0.90007680114E+02  0.89999940692E+02 0.  0.
         12    1    1    2    0    0  0.58437310298E+00 -0.47743224159E+00  0.90759107716E+00  0.11803198855E+01  0.00000000000E+00 0. -1.
         11    1    3    3    0    0  0.28670164611E+01 -0.76865647123E+01 -0.37496084169E+01  0.90201232811E+01  0.51100000000E-03 0. -1.
        -11    1    3    3    0    0  0.38033548373E+02  0.22570530368E+01  0.74817604802E+01  0.38828106191E+02  0.51100000000E-03 0.  1.
         12    1    3    3    0    0 -0.41484937937E+02  0.59069439171E+01 -0.46397431404E+01  0.42159450642E+02  0.00000000000E+00 0. -1.
</event>
<event>
 7    1  0.2285268E-015  0.9000785E+02  0.7816164E-02  0.1186339E+00
        -11   -1    0    0    0    0  0.00000000000E+00  0.00000000000E+00  0.45593999997E+02  0.45594000000E+02  0.51100000000E-03 0.  1.
         11   -1    0    0    0    0 -0.00000000000E+00 -0.00000000000E+00 -0.45593999997E+02  0.45594000000E+02  0.51100000000E-03 0. -1.
    9900012    2    1    2    0    0 -0.70699239172E+00 -0.82100763618E+00 -0.46782313773E+00  0.90007851590E+02  0.90000114431E+02 0.  0.
         12    1    1    2    0    0  0.70699239172E+00  0.82100763618E+00  0.46782313773E+00  0.11801484097E+01  0.00000000000E+00 0. -1.
         11    1    3    3    0    0 -0.73926960045E+01  0.13406644509E+02 -0.67991321307E+00  0.15324893260E+02  0.51100000000E-03 0. -1.
        -11    1    3    3    0    0 -0.71591780310E+01  0.28593100918E+02 -0.26112257292E+01  0.29591176898E+02  0.51100000000E-03 0.  1.
        -12    1    3    3    0    0  0.13844881644E+02 -0.42820753062E+02  0.28233158045E+01  0.45091781432E+02  0.00000000000E+00 0.  1.
</event>
<event>
 7    1  0.2285268E-015  0.9000775E+02  0.7816164E-02  0.1186339E+00
        -11   -1    0    0    0    0  0.00000000000E+00  0.00000000000E+00  0.45593999997E+02  0.45594000000E+02  0.51100000000E-03 0. -1.
         11   -1    0    0    0    0 -0.00000000000E+00 -0.00000000000E+00 -0.45593999997E+02  0.45594000000E+02  0.51100000000E-03 0.  1.
    9900012    2    1    2    0    0 -0.52507571745E+00  0.10539767221E+01 -0.80121556127E-01  0.90007749644E+02  0.90000011139E+02 0.  0.
         12    1    1    2    0    0  0.52507571745E+00 -0.10539767221E+01  0.80121556127E-01  0.11802503563E+01  0.00000000000E+00 0. -1.
         11    1    3    3    0    0 -0.18616052681E+02 -0.16104633109E+02  0.33655835373E+02  0.41696904920E+02  0.51100000000E-03 0. -1.
        -11    1    3    3    0    0  0.83439321510E+01 -0.95096579545E+00  0.45600514016E+00  0.84103198889E+01  0.51100000000E-03 0.  1.
        -12    1    3    3    0    0  0.97470448127E+01  0.18109575626E+02 -0.34191962069E+02  0.39900524835E+02  0.00000000000E+00 0.  1.
</event>
<event>
 7    1  0.2285268E-015  0.9000768E+02  0.7816164E-02  0.1186339E+00
        -11   -1    0    0    0    0  0.00000000000E+00  0.00000000000E+00  0.45593999997E+02  0.45594000000E+02  0.51100000000E-03 0. -1.
         11   -1    0    0    0    0 -0.00000000000E+00 -0.00000000000E+00 -0.45593999997E+02  0.45594000000E+02  0.51100000000E-03 0.  1.
    9900012    2    1    2    0    0  0.10393602735E+01  0.55871269488E+00 -0.26794899100E-01  0.90007683254E+02  0.89999943873E+02 0.  0.
         12    1    1    2    0    0 -0.10393602735E+01 -0.55871269488E+00  0.26794899100E-01  0.11803167457E+01  0.00000000000E+00 0. -1.
         11    1    3    3    0    0  0.16365201423E+01  0.63921891551E+01 -0.63850338359E+01  0.91818809465E+01  0.51100000000E-03 0. -1.
        -11    1    3    3    0    0 -0.12838573867E+02 -0.21526680141E+02 -0.30172474982E+02  0.39225058109E+02  0.51100000000E-03 0.  1.
         12    1    3    3    0    0  0.12241413999E+02  0.15693203681E+02  0.36530713919E+02  0.41600744199E+02  0.00000000000E+00 0. -1.
</event>
<event>
 7    1  0.2285268E-015  0.9000767E+02  0.7816164E-02  0.1186339E+00
        -11   -1    0    0    0    0  0.00000000000E+00  0.00000000000E+00  0.45593999997E+02  0.45594000000E+02  0.51100000000E-03 0. -1.
         11   -1    0    0    0    0 -0.00000000000E+00 -0.00000000000E+00 -0.45593999997E+02  0.45594000000E+02  0.51100000000E-03 0.  1.
    9900012    2    1    2    0    0 -0.26237092598E+00  0.10400467284E+01  0.49259420822E+00  0.90007667524E+02  0.89999927935E+02 0.  0.
         12    1    1    2    0    0  0.26237092598E+00 -0.10400467284E+01 -0.49259420822E+00  0.11803324760E+01  0.00000000000E+00 0. -1.
         11    1    3    3    0    0  0.34880996303E+01 -0.78689659256E+01 -0.71890677663E+01  0.11214729572E+02  0.51100000000E-03 0. -1.
        -11    1    3    3    0    0 -0.18235228713E+02 -0.30660846361E+02 -0.13460844415E+01  0.35699061743E+02  0.51100000000E-03 0.  1.
         12    1    3    3    0    0  0.14484758157E+02  0.39569859015E+02  0.90277464160E+01  0.43093876208E+02  0.00000000000E+00 0. -1.
</event>
<event>
 7    1  0.2285268E-015  0.9000773E+02  0.7816164E-02  0.1186339E+00
        -11   -1    0    0    0    0  0.00000000000E+00  0.00000000000E+00  0.45593999997E+02  0.45594000000E+02  0.51100000000E-03 0.  1.
         11   -1    0    0    0    0 -0.00000000000E+00 -0.00000000000E+00 -0.45593999997E+02  0.45594000000E+02  0.51100000000E-03 0. -1.
    9900012    2    1    2    0    0  0.10233331506E+01 -0.23951773291E+00  0.53708318618E+00  0.90007729764E+02  0.89999990997E+02 0.  0.
         12    1    1    2    0    0 -0.10233331506E+01  0.23951773291E+00 -0.53708318618E+00  0.11802702361E+01  0.00000000000E+00 0. -1.
         11    1    3    3    0    0  0.31560332593E+02  0.13070963975E+02  0.28142655616E+02  0.44259617689E+02  0.51100000000E-03 0. -1.
        -11    1    3    3    0    0 -0.12707005040E+01 -0.48681284705E+01 -0.64843547835E+00  0.50728516051E+01  0.51100000000E-03 0.  1.
        -12    1    3    3    0    0 -0.29266298938E+02 -0.84423532376E+01 -0.26957136951E+02  0.40675260470E+02  0.00000000000E+00 0.  1.
</event>
<event>
 7    1  0.2285268E-015  0.9000764E+02  0.7816164E-02  0.1186339E+00
        -11   -1    0    0    0    0  0.00000000000E+00  0.00000000000E+00  0.45593999997E+02  0.45594000000E+02  0.51100000000E-03 0.  1.
         11   -1    0    0    0    0 -0.00000000000E+00 -0.00000000000E+00 -0.45593999997E+02  0.45594000000E+02  0.51100000000E-03 0. -1.
    9900012    2    1    2    0    0 -0.32809717498E+00  0.11196078904E+01 -0.17909557734E+00  0.90007642084E+02  0.89999902159E+02 0.  0.
         12    1    1    2    0    0  0.32809717498E+00 -0.11196078904E+01  0.17909557734E+00  0.11803579162E+01  0.00000000000E+00 0. -1.
         11    1    3    3    0    0  0.10345832701E+02 -0.83338724009E+01 -0.20099785609E+02  0.24093382188E+02  0.51100000000E-03 0. -1.
        -11    1    3    3    0    0  0.19710307555E+02 -0.14171817442E+02  0.91953992214E+01  0.25959429897E+02  0.51100000000E-03 0.  1.
        -12    1    3    3    0    0 -0.30384237431E+02  0.23625297733E+02  0.10725290810E+02  0.39954829998E+02  0.00000000000E+00 0.  1.
</event>
<event>
 7    1  0.2285268E-015  0.9000778E+02  0.7816164E-02  0.1186339E+00
        -11   -1    0    0    0    0  0.00000000000E+00  0.00000000000E+00  0.45593999997E+02  0.45594000000E+02  0.51100000000E-03 0. -1.
         11   -1    0    0    0    0 -0.00000000000E+00 -0.00000000000E+00 -0.45593999997E+02  0.45594000000E+02  0.51100000000E-03 0.  1.
    9900012    2    1    2    0    0 -0.55363206379E+00 -0.10608230129E+00 -0.10368988527E+01  0.90007779195E+02  0.90000041081E+02 0.  0.
         12    1    1    2    0    0  0.55363206379E+00  0.10608230129E+00  0.10368988527E+01  0.11802208045E+01  0.00000000000E+00 0. -1.
         11    1    3    3    0    0  0.12941365080E+02  0.15133148340E+02  0.15129973583E+02  0.25008142868E+02  0.51100000000E-03 0. -1.
        -11    1    3    3    0    0  0.14138579252E+02 -0.20156614666E+02  0.10049327395E+02  0.26592809543E+02  0.51100000000E-03 0.  1.
        -12    1    3    3    0    0 -0.27633576396E+02  0.49173840239E+01 -0.26216199831E+02  0.38406826784E+02  0.00000000000E+00 0.  1.
</event>
<event>
 7    1  0.2285268E-015  0.9000778E+02  0.7816164E-02  0.1186339E+00
        -11   -1    0    0    0    0  0.00000000000E+00  0.00000000000E+00  0.45593999997E+02  0.45594000000E+02  0.51100000000E-03 0. -1.
         11   -1    0    0    0    0 -0.00000000000E+00 -0.00000000000E+00 -0.45593999997E+02  0.45594000000E+02  0.51100000000E-03 0.  1.
    9900012    2    1    2    0    0  0.75246391641E+00 -0.93112232534E-01 -0.90446102209E+00  0.90007779015E+02  0.90000040898E+02 0.  0.
         12    1    1    2    0    0 -0.75246391641E+00  0.93112232534E-01  0.90446102209E+00  0.11802209852E+01  0.00000000000E+00 0. -1.
         11    1    3    3    0    0 -0.14974984185E+01 -0.62852089538E+01  0.98298017993E+01  0.11763135500E+02  0.51100000000E-03 0. -1.
        -11    1    3    3    0    0 -0.27604900795E+02 -0.19133500321E+02 -0.18480416541E+02  0.38335977596E+02  0.51100000000E-03 0.  1.
         12    1    3    3    0    0  0.29854863130E+02  0.25325597042E+02  0.77461537194E+01  0.39908665920E+02  0.00000000000E+00 0. -1.
</event>
<event>
 7    1  0.2285268E-015  0.9000774E+02  0.7816164E-02  0.1186339E+00
        -11   -1    0    0    0    0  0.00000000000E+00  0.00000000000E+00  0.45593999997E+02  0.45594000000E+02  0.51100000000E-03 0.  1.
         11   -1    0    0    0    0 -0.00000000000E+00 -0.00000000000E+00 -0.45593999997E+02  0.45594000000E+02  0.51100000000E-03 0. -1.
    9900012    2    1    2    0    0  0.10561091393E+01 -0.51352607215E+00  0.11804988575E+00  0.90007740996E+02  0.90000002377E+02 0.  0.
         12    1    1    2    0    0 -0.10561091393E+01  0.51352607215E+00 -0.11804988575E+00  0.11802590040E+01  0.00000000000E+00 0. -1.
         11    1    3    3    0    0 -0.25579638704E+01 -0.27069904485E+02 -0.25370013067E+02  0.37188176498E+02  0.51100000000E-03 0. -1.
        -11    1    3    3    0    0 -0.23268348466E+01 -0.89785949525E+01  0.11615616721E+01  0.93476496246E+01  0.51100000000E-03 0.  1.
        -12    1    3    3    0    0  0.59409078563E+01  0.35534973365E+02  0.24326501281E+02  0.43471914873E+02  0.00000000000E+00 0.  1.
</event>
<event>
 7    1  0.2285268E-015  0.9000774E+02  0.7816164E-02  0.1186339E+00
        -11   -1    0    0    0    0  0.00000000000E+00  0.00000000000E+00  0.45593999997E+02  0.45594000000E+02  0.51100000000E-03 0.  1.
         11   -1    0    0    0    0 -0.00000000000E+00 -0.00000000000E+00 -0.45593999997E+02  0.45594000000E+02  0.51100000000E-03 0. -1.
    9900012    2    1    2    0    0 -0.13435786354E+00 -0.10538610676E+01  0.51413931644E+00  0.90007739680E+02  0.90000001044E+02 0.  0.
         12    1    1    2    0    0  0.13435786354E+00  0.10538610676E+01 -0.51413931644E+00  0.11802603196E+01  0.00000000000E+00 0. -1.
         11    1    3    3    0    0 -0.43032751018E+01 -0.66483491557E+01 -0.37332869994E+02  0.38163620182E+02  0.51100000000E-03 0. -1.
        -11    1    3    3    0    0  0.15068089808E+00  0.71539874015E+01 -0.50328031473E+01  0.87482197191E+01  0.51100000000E-03 0.  1.
        -12    1    3    3    0    0  0.40182363402E+01 -0.15594993133E+01  0.42879812458E+02  0.43095899780E+02  0.00000000000E+00 0.  1.
</event>
<event>
 7    1  0.2285268E-015  0.9000769E+02  0.7816164E-02  0.1186339E+00
        -11   -1    0    0    0    0  0.00000000000E+00  0.00000000000E+00  0.45593999997E+02  0.45594000000E+02  0.51100000000E-03 0. -1.
         11   -1    0    0    0    0 -0.00000000000E+00 -0.00000000000E+00 -0.45593999997E+02  0.45594000000E+02  0.51100000000E-03 0.  1.
    9900012    2    1    2    0    0 -0.87288408683E+00 -0.73932829059E+00  0.29084186091E+00  0.90007694134E+02  0.89999954896E+02 0.  0.
         12    1    1    2    0    0  0.87288408683E+00  0.73932829059E+00 -0.29084186091E+00  0.11803058664E+01  0.00000000000E+00 0. -1.
         11    1    3    3    0    0  0.18888026330E+01 -0.14903084548E+01  0.93006416719E+01  0.96067960552E+01  0.51100000000E-03 0. -1.
        -11    1    3    3    0    0  0.37677497903E+02  0.85378758318E+01 -0.61550736725E+01  0.39119996218E+02  0.51100000000E-03 0.  1.
         12    1    3    3    0    0 -0.40439184623E+02 -0.77868956676E+01 -0.28547261385E+01  0.41280901860E+02  0.00000000000E+00 0. -1.
</event>
<event>
 7    1  0.2285268E-015  0.9000771E+02  0.7816164E-02  0.1186339E+00
        -11   -1    0    0    0    0  0.00000000000E+00  0.00000000000E+00  0.45593999997E+02  0.45594000000E+02  0.51100000000E-03 0. -1.
         11   -1    0    0    0    0 -0.00000000000E+00 -0.00000000000E+00 -0.45593999997E+02  0.45594000000E+02  0.51100000000E-03 0.  1.
    9900012    2    1    2    0    0  0.11440079123E+01  0.18091229108E+00  0.22713385742E+00  0.90007714802E+02  0.89999975837E+02 0.  0.
         12    1    1    2    0    0 -0.11440079123E+01 -0.18091229108E+00 -0.22713385742E+00  0.11802851984E+01  0.00000000000E+00 0. -1.
         11    1    3    3    0    0 -0.83949482936E+01  0.76218355105E+01  0.14418982222E+01  0.11430074547E+02  0.51100000000E-03 0. -1.
        -11    1    3    3    0    0 -0.28075133698E+02  0.17825199016E+02 -0.42722838516E+00  0.33258583501E+02  0.51100000000E-03 0.  1.
         12    1    3    3    0    0  0.37614089904E+02 -0.25266122236E+02 -0.78753597958E+00  0.45319056754E+02  0.00000000000E+00 0. -1.
</event>
<event>
 7    1  0.2285268E-015  0.9000763E+02  0.7816164E-02  0.1186339E+00
        -11   -1    0    0    0    0  0.00000000000E+00  0.00000000000E+00  0.45593999997E+02  0.45594000000E+02  0.51100000000E-03 0.  1.
         11   -1    0    0    0    0 -0.00000000000E+00 -0.00000000000E+00 -0.45593999997E+02  0.45594000000E+02  0.51100000000E-03 0. -1.
    9900012    2    1    2    0    0  0.22693144535E+00 -0.33375084880E+00  0.11092251021E+01  0.90007632330E+02  0.89999892276E+02 0.  0.
         12    1    1    2    0    0 -0.22693144535E+00  0.33375084880E+00 -0.11092251021E+01  0.11803676703E+01  0.00000000000E+00 0. -1.
         11    1    3    3    0    0  0.80210743479E+01  0.37475922103E+01 -0.12784455670E+01  0.89451944863E+01  0.51100000000E-03 0. -1.
        -11    1    3    3    0    0 -0.33261473822E+01 -0.25776254651E+02  0.33793077129E+02  0.42631568378E+02  0.51100000000E-03 0.  1.
         12    1    3    3    0    0 -0.44679955203E+01  0.21694911592E+02 -0.31405406460E+02  0.38430869465E+02  0.00000000000E+00 0. -1.
</event>
<event>
 7    1  0.2285268E-015  0.9000772E+02  0.7816164E-02  0.1186339E+00
        -11   -1    0    0    0    0  0.00000000000E+00  0.00000000000E+00  0.45593999997E+02  0.45594000000E+02  0.51100000000E-03 0. -1.
         11   -1    0    0    0    0 -0.00000000000E+00 -0.00000000000E+00 -0.45593999997E+02  0.45594000000E+02  0.51100000000E-03 0.  1.
    9900012    2    1    2    0    0  0.98927039217E+00  0.61271250802E+00  0.19745377241E+00  0.90007720152E+02  0.89999981258E+02 0.  0.
         12    1    1    2    0    0 -0.98927039217E+00 -0.61271250802E+00 -0.19745377241E+00  0.11802798476E+01  0.00000000000E+00 0. -1.
         11    1    3    3    0    0 -0.30021998900E+01  0.30993349152E+01 -0.10325864903E+02  0.11191182572E+02  0.51100000000E-03 0. -1.
        -11    1    3    3    0    0  0.22707654572E+02 -0.90037119604E+01 -0.26982076704E+02  0.36396934881E+02  0.51100000000E-03 0.  1.
         12    1    3    3    0    0 -0.18716184290E+02  0.65170895532E+01  0.37505395380E+02  0.42419602700E+02  0.00000000000E+00 0. -1.
</event>
<event>
 7    1  0.2285268E-015  0.9000774E+02  0.7816164E-02  0.1186339E+00
        -11   -1    0    0    0    0  0.00000000000E+00  0.00000000000E+00  0.45593999997E+02  0.45594000000E+02  0.51100000000E-03 0. -1.
         11   -1    0    0    0    0 -0.00000000000E+00 -0.00000000000E+00 -0.45593999997E+02  0.45594000000E+02  0.51100000000E-03 0.  1.
    9900012    2    1    2    0    0  0.90547984841E+00  0.56573726602E+00 -0.50305123959E+00  0.90007740300E+02  0.90000001672E+02 0.  0.
         12    1    1    2    0    0 -0.90547984841E+00 -0.56573726602E+00  0.50305123959E+00  0.11802597001E+01  0.00000000000E+00 0. -1.
         11    1    3    3    0    0 -0.18660213135E+02 -0.27909879230E+02  0.10911771221E+02  0.35302006520E+02  0.51100000000E-03 0. -1.
        -11    1    3    3    0    0 -0.19522998259E+01 -0.84781765028E+01  0.35558819412E+01  0.93986833154E+01  0.51100000000E-03 0.  1.
        -12    1    3    3    0    0  0.21517992810E+02  0.36953792998E+02 -0.14970704402E+02  0.45307050465E+02  0.00000000000E+00 0.  1.
</event>
<event>
 7    1  0.2285268E-015  0.9000771E+02  0.7816164E-02  0.1186339E+00
        -11   -1    0    0    0    0  0.00000000000E+00  0.00000000000E+00  0.45593999997E+02  0.45594000000E+02  0.51100000000E-03 0. -1.
         11   -1    0    0    0    0 -0.00000000000E+00 -0.00000000000E+00 -0.45593999997E+02  0.45594000000E+02  0.51100000000E-03 0.  1.
    9900012    2    1    2    0    0 -0.68419177936E+00  0.93130281047E+00 -0.24007199420E+00  0.90007712798E+02  0.89999973807E+02 0.  0.
         12    1    1    2    0    0  0.68419177936E+00 -0.93130281047E+00  0.24007199420E+00  0.11802872015E+01  0.00000000000E+00 0. -1.
         11    1    3    3    0    0  0.18507763024E+02  0.20741226535E+02  0.14723640918E+02  0.31456658635E+02  0.51100000000E-03 0. -1.
        -11    1    3    3    0    0  0.14556745955E+02  0.32588025361E+01  0.28573982057E+00  0.14919795383E+02  0.51100000000E-03 0.  1.
        -12    1    3    3    0    0 -0.33748700758E+02 -0.23068726261E+02 -0.15249452732E+02  0.43631258781E+02  0.00000000000E+00 0.  1.
</event>
<event>
 7    1  0.2285268E-015  0.9000774E+02  0.7816164E-02  0.1186339E+00
        -11   -1    0    0    0    0  0.00000000000E+00  0.00000000000E+00  0.45593999997E+02  0.45594000000E+02  0.51100000000E-03 0.  1.
         11   -1    0    0    0    0 -0.00000000000E+00 -0.00000000000E+00 -0.45593999997E+02  0.45594000000E+02  0.51100000000E-03 0. -1.
    9900012    2    1    2    0    0 -0.48263657481E+00 -0.10623060417E+01  0.17772034511E+00  0.90007738711E+02  0.90000000062E+02 0.  0.
         12    1    1    2    0    0  0.48263657481E+00  0.10623060417E+01 -0.17772034511E+00  0.11802612891E+01  0.00000000000E+00 0. -1.
         11    1    3    3    0    0  0.56678038637E+01 -0.66244875586E+01 -0.25838366007E+01  0.90930769210E+01  0.51100000000E-03 0. -1.
        -11    1    3    3    0    0  0.31156425783E+02 -0.14813956078E+02 -0.11038752644E+02  0.36221957739E+02  0.51100000000E-03 0.  1.
         12    1    3    3    0    0 -0.37306866222E+02  0.20376137595E+02  0.13800309590E+02  0.44692704051E+02  0.00000000000E+00 0. -1.
</event>
<event>
 7    1  0.2285268E-015  0.9000776E+02  0.7816164E-02  0.1186339E+00
        -11   -1    0    0    0    0  0.00000000000E+00  0.00000000000E+00  0.45593999997E+02  0.45594000000E+02  0.51100000000E-03 0. -1.
         11   -1    0    0    0    0 -0.00000000000E+00 -0.00000000000E+00 -0.45593999997E+02  0.45594000000E+02  0.51100000000E-03 0.  1.
    9900012    2    1    2    0    0 -0.10315442664E+01  0.24649155526E+00  0.51781889320E+00  0.90007755082E+02  0.90000016649E+02 0.  0.
         12    1    1    2    0    0  0.10315442664E+01 -0.24649155526E+00 -0.51781889320E+00  0.11802449180E+01  0.00000000000E+00 0. -1.
         11    1    3    3    0    0  0.11386148394E+02 -0.11166757537E+02  0.31813688491E+02  0.35587239634E+02  0.51100000000E-03 0. -1.
        -11    1    3    3    0    0  0.11538870624E+01 -0.42322435028E+01  0.84957158996E+01  0.95614083339E+01  0.51100000000E-03 0.  1.
        -12    1    3    3    0    0 -0.13571579722E+02  0.15645492595E+02 -0.39791585497E+02  0.44859107114E+02  0.00000000000E+00 0.  1.
</event>
<event>
 7    1  0.2285268E-015  0.9000779E+02  0.7816164E-02  0.1186339E+00
        -11   -1    0    0    0    0  0.00000000000E+00  0.00000000000E+00  0.45593999997E+02  0.45594000000E+02  0.51100000000E-03 0. -1.
         11   -1    0    0    0    0 -0.00000000000E+00 -0.00000000000E+00 -0.45593999997E+02  0.45594000000E+02  0.51100000000E-03 0.  1.
    9900012    2    1    2    0    0 -0.11512492869E+01 -0.23499811590E+00 -0.11089242414E+00  0.90007789779E+02  0.90000051804E+02 0.  0.
         12    1    1    2    0    0  0.11512492869E+01  0.23499811590E+00  0.11089242414E+00  0.11802102206E+01  0.00000000000E+00 0. -1.
         11    1    3    3    0    0 -0.58923096262E+01 -0.10143914435E+02  0.36036401739E+02  0.37897764622E+02  0.51100000000E-03 0. -1.
        -11    1    3    3    0    0 -0.92267222214E+00 -0.10794724492E+02 -0.93885196566E+00  0.10874688232E+02  0.51100000000E-03 0.  1.
        -12    1    3    3    0    0  0.56637325614E+01  0.20703640810E+02 -0.35208442198E+02  0.41235336925E+02  0.00000000000E+00 0.  1.
</event>
<event>
 7    1  0.3315099E-015  0.9000756E+02  0.7816164E-02  0.1186339E+00
        -11   -1    0    0    0    0  0.00000000000E+00  0.00000000000E+00  0.45593999997E+02  0.45594000000E+02  0.51100000000E-03 0. -1.
         11   -1    0    0    0    0 -0.00000000000E+00 -0.00000000000E+00 -0.45593999997E+02  0.45594000000E+02  0.51100000000E-03 0.  1.
    9900012    2    1    2    0    0  0.40842976045E+00 -0.23908935700E+00 -0.10814177446E+01  0.90007558164E+02  0.89999817132E+02 0.  0.
         12    1    1    2    0    0 -0.40842976045E+00  0.23908935700E+00  0.10814177446E+01  0.11804418360E+01  0.00000000000E+00 0. -1.
         11    1    3    3    0    0  0.15508607438E+01 -0.89172504252E+01 -0.35024445691E+01  0.97051348478E+01  0.51100000000E-03 0. -1.
        -11    1    3    3    0    0  0.18258731565E+02  0.23922428810E+02 -0.28018951670E+02  0.41118432989E+02  0.51100000000E-03 0.  1.
         12    1    3    3    0    0 -0.19401162548E+02 -0.15244267742E+02  0.30439978495E+02  0.39183990327E+02  0.00000000000E+00 0. -1.
</event>
<event>
 7    1  0.2285268E-015  0.9000769E+02  0.7816164E-02  0.1186339E+00
        -11   -1    0    0    0    0  0.00000000000E+00  0.00000000000E+00  0.45593999997E+02  0.45594000000E+02  0.51100000000E-03 0.  1.
         11   -1    0    0    0    0 -0.00000000000E+00 -0.00000000000E+00 -0.45593999997E+02  0.45594000000E+02  0.51100000000E-03 0. -1.
    9900012    2    1    2    0    0  0.50223752706E+00  0.30670416500E+00  0.10231398747E+01  0.90007692760E+02  0.89999953504E+02 0.  0.
         12    1    1    2    0    0 -0.50223752706E+00 -0.30670416500E+00 -0.10231398747E+01  0.11803072404E+01  0.00000000000E+00 0. -1.
         11    1    3    3    0    0  0.73964429052E+01  0.20760525424E+01 -0.40737636880E+02  0.41455668136E+02  0.51100000000E-03 0. -1.
        -11    1    3    3    0    0 -0.92589440130E+01  0.29872347767E+01  0.41651967013E+01  0.10583027906E+02  0.51100000000E-03 0.  1.
        -12    1    3    3    0    0  0.23647386349E+01 -0.47565831541E+01  0.37595580054E+02  0.37968996717E+02  0.00000000000E+00 0.  1.
</event>
<event>
 7    1  0.2285268E-015  0.9000784E+02  0.7816164E-02  0.1186339E+00
        -11   -1    0    0    0    0  0.00000000000E+00  0.00000000000E+00  0.45593999997E+02  0.45594000000E+02  0.51100000000E-03 0.  1.
         11   -1    0    0    0    0 -0.00000000000E+00 -0.00000000000E+00 -0.45593999997E+02  0.45594000000E+02  0.51100000000E-03 0. -1.
    9900012    2    1    2    0    0  0.83052589159E+00  0.74701710715E+00 -0.38076150331E+00  0.90007835970E+02  0.90000098605E+02 0.  0.
         12    1    1    2    0    0 -0.83052589159E+00 -0.74701710715E+00  0.38076150331E+00  0.11801640299E+01  0.00000000000E+00 0. -1.
         11    1    3    3    0    0 -0.25081668986E+01 -0.77073730592E+01  0.10909096163E+01  0.81782996226E+01  0.51100000000E-03 0. -1.
        -11    1    3    3    0    0 -0.34475591412E+02 -0.10791083209E+02  0.10721227648E+02  0.37682338072E+02  0.51100000000E-03 0.  1.
         12    1    3    3    0    0  0.37814284203E+02  0.19245473375E+02 -0.12192898767E+02  0.44147198275E+02  0.00000000000E+00 0. -1.
</event>
<event>
 7    1  0.2285268E-015  0.9000742E+02  0.7816164E-02  0.1186340E+00
        -11   -1    0    0    0    0  0.00000000000E+00  0.00000000000E+00  0.45593999997E+02  0.45594000000E+02  0.51100000000E-03 0.  1.
         11   -1    0    0    0    0 -0.00000000000E+00 -0.00000000000E+00 -0.45593999997E+02  0.45594000000E+02  0.51100000000E-03 0. -1.
    9900012    2    1    2    0    0  0.57076067261E+00 -0.34685713229E+00  0.97349110372E+00  0.90007422792E+02  0.89999679972E+02 0.  0.
         12    1    1    2    0    0 -0.57076067261E+00  0.34685713229E+00 -0.97349110372E+00  0.11805772082E+01  0.00000000000E+00 0. -1.
         11    1    3    3    0    0 -0.64682706655E+01  0.48534826577E+01  0.72631416615E+01  0.10869592742E+02  0.51100000000E-03 0. -1.
        -11    1    3    3    0    0  0.17462713205E+02 -0.82587924822E+01  0.33074405073E+02  0.38302353412E+02  0.51100000000E-03 0.  1.
         12    1    3    3    0    0 -0.10423681867E+02  0.30584526922E+01 -0.39364055631E+02  0.40835476638E+02  0.00000000000E+00 0. -1.
</event>
<event>
 7    1  0.2285268E-015  0.9000774E+02  0.7816164E-02  0.1186339E+00
        -11   -1    0    0    0    0  0.00000000000E+00  0.00000000000E+00  0.45593999997E+02  0.45594000000E+02  0.51100000000E-03 0.  1.
         11   -1    0    0    0    0 -0.00000000000E+00 -0.00000000000E+00 -0.45593999997E+02  0.45594000000E+02  0.51100000000E-03 0. -1.
    9900012    2    1    2    0    0  0.10878071107E+01 -0.34996988609E+00  0.29531624606E+00  0.90007739471E+02  0.90000000832E+02 0.  0.
         12    1    1    2    0    0 -0.10878071107E+01  0.34996988609E+00 -0.29531624606E+00  0.11802605291E+01  0.00000000000E+00 0. -1.
         11    1    3    3    0    0 -0.83365931812E+01  0.44881108249E+00  0.39614500816E+01  0.92408497589E+01  0.51100000000E-03 0. -1.
        -11    1    3    3    0    0  0.16758270449E+02 -0.20392036187E+02  0.30729183408E+02  0.40508733398E+02  0.51100000000E-03 0.  1.
         12    1    3    3    0    0 -0.73338701568E+01  0.19593255219E+02 -0.34395317244E+02  0.40258156314E+02  0.00000000000E+00 0. -1.
</event>
<event>
 7    1  0.2285268E-015  0.9000769E+02  0.7816164E-02  0.1186339E+00
        -11   -1    0    0    0    0  0.00000000000E+00  0.00000000000E+00  0.45593999997E+02  0.45594000000E+02  0.51100000000E-03 0. -1.
         11   -1    0    0    0    0 -0.00000000000E+00 -0.00000000000E+00 -0.45593999997E+02  0.45594000000E+02  0.51100000000E-03 0.  1.
    9900012    2    1    2    0    0  0.14101345457E+00  0.19256630736E+00 -0.11559255303E+01  0.90007690545E+02  0.89999951261E+02 0.  0.
         12    1    1    2    0    0 -0.14101345457E+00 -0.19256630736E+00  0.11559255303E+01  0.11803094546E+01  0.00000000000E+00 0. -1.
         11    1    3    3    0    0 -0.32701598727E+02 -0.11178278177E+02  0.16331379780E+02  0.38223846328E+02  0.51100000000E-03 0. -1.
        -11    1    3    3    0    0 -0.69803597351E+01 -0.17954468156E+00 -0.46055074789E+01  0.83647090639E+01  0.51100000000E-03 0.  1.
        -12    1    3    3    0    0  0.39822971916E+02  0.11550389166E+02 -0.12881797831E+02  0.43419135154E+02  0.00000000000E+00 0.  1.
</event>
<event>
 7    1  0.2285268E-015  0.9000712E+02  0.7816164E-02  0.1186340E+00
        -11   -1    0    0    0    0  0.00000000000E+00  0.00000000000E+00  0.45593999997E+02  0.45594000000E+02  0.51100000000E-03 0. -1.
         11   -1    0    0    0    0 -0.00000000000E+00 -0.00000000000E+00 -0.45593999997E+02  0.45594000000E+02  0.51100000000E-03 0.  1.
    9900012    2    1    2    0    0 -0.30449664989E+00 -0.19809673650E+00 -0.11236178319E+01  0.90007120007E+02  0.89999373188E+02 0.  0.
         12    1    1    2    0    0  0.30449664989E+00  0.19809673650E+00  0.11236178319E+01  0.11808799934E+01  0.00000000000E+00 0. -1.
         11    1    3    3    0    0  0.16757398663E+01  0.38448942816E+01  0.39596902834E+02  0.39818413208E+02  0.51100000000E-03 0. -1.
        -11    1    3    3    0    0 -0.96987911939E+01 -0.72730389714E+00 -0.12170180031E+01  0.98018699575E+01  0.51100000000E-03 0.  1.
        -12    1    3    3    0    0  0.77185546778E+01 -0.33156871210E+01 -0.39503502663E+02  0.40386836841E+02  0.00000000000E+00 0.  1.
</event>
<event>
 7    1  0.2285268E-015  0.9000744E+02  0.7816164E-02  0.1186340E+00
        -11   -1    0    0    0    0  0.00000000000E+00  0.00000000000E+00  0.45593999997E+02  0.45594000000E+02  0.51100000000E-03 0. -1.
         11   -1    0    0    0    0 -0.00000000000E+00 -0.00000000000E+00 -0.45593999997E+02  0.45594000000E+02  0.51100000000E-03 0.  1.
    9900012    2    1    2    0    0  0.65254803560E+00  0.98023550847E+00 -0.83934493139E-01  0.90007438443E+02  0.89999695830E+02 0.  0.
         12    1    1    2    0    0 -0.65254803560E+00 -0.98023550847E+00  0.83934493139E-01  0.11805615570E+01  0.00000000000E+00 0. -1.
         11    1    3    3    0    0  0.30144637993E+02 -0.24574041279E+01  0.25032727168E+02  0.39260354870E+02  0.51100000000E-03 0. -1.
        -11    1    3    3    0    0 -0.37427165797E+01  0.46762981618E+01  0.72272028054E+01  0.93865942996E+01  0.51100000000E-03 0.  1.
        -12    1    3    3    0    0 -0.25749373378E+02 -0.12386585255E+01 -0.32343864466E+02  0.41360489273E+02  0.00000000000E+00 0.  1.
</event>
<event>
 7    1  0.2285268E-015  0.9000776E+02  0.7816164E-02  0.1186339E+00
        -11   -1    0    0    0    0  0.00000000000E+00  0.00000000000E+00  0.45593999997E+02  0.45594000000E+02  0.51100000000E-03 0.  1.
         11   -1    0    0    0    0 -0.00000000000E+00 -0.00000000000E+00 -0.45593999997E+02  0.45594000000E+02  0.51100000000E-03 0. -1.
    9900012    2    1    2    0    0  0.32693073185E+00 -0.91014153166E+00 -0.67655902256E+00  0.90007757050E+02  0.90000018643E+02 0.  0.
         12    1    1    2    0    0 -0.32693073185E+00  0.91014153166E+00  0.67655902256E+00  0.11802429505E+01  0.00000000000E+00 0. -1.
         11    1    3    3    0    0  0.75418266777E+01 -0.84187107292E+01 -0.26981669651E+00  0.11306044458E+02  0.51100000000E-03 0. -1.
        -11    1    3    3    0    0  0.19869092600E+02 -0.14927478708E+02  0.25049519798E+02  0.35285817317E+02  0.51100000000E-03 0.  1.
         12    1    3    3    0    0 -0.27083988546E+02  0.22436047905E+02 -0.25456262124E+02  0.43415895275E+02  0.00000000000E+00 0. -1.
</event>
<event>
 7    1  0.2285268E-015  0.9000792E+02  0.7816164E-02  0.1186339E+00
        -11   -1    0    0    0    0  0.00000000000E+00  0.00000000000E+00  0.45593999997E+02  0.45594000000E+02  0.51100000000E-03 0.  1.
         11   -1    0    0    0    0 -0.00000000000E+00 -0.00000000000E+00 -0.45593999997E+02  0.45594000000E+02  0.51100000000E-03 0. -1.
    9900012    2    1    2    0    0 -0.76032005599E+00  0.87630588834E+00 -0.21586692542E+00  0.90007916475E+02  0.90000180172E+02 0.  0.
         12    1    1    2    0    0  0.76032005599E+00 -0.87630588834E+00  0.21586692542E+00  0.11800835254E+01  0.00000000000E+00 0. -1.
         11    1    3    3    0    0 -0.54824874585E+01  0.26062427505E+02 -0.28000628240E+02  0.38643796116E+02  0.51100000000E-03 0. -1.
        -11    1    3    3    0    0  0.89828933520E+00 -0.43108002425E+01 -0.83603451400E+01  0.94490895637E+01  0.51100000000E-03 0.  1.
        -12    1    3    3    0    0  0.38238780673E+01 -0.20875321374E+02  0.36145106454E+02  0.41915030795E+02  0.00000000000E+00 0.  1.
</event>
<event>
 7    1  0.2285268E-015  0.9000769E+02  0.7816164E-02  0.1186339E+00
        -11   -1    0    0    0    0  0.00000000000E+00  0.00000000000E+00  0.45593999997E+02  0.45594000000E+02  0.51100000000E-03 0.  1.
         11   -1    0    0    0    0 -0.00000000000E+00 -0.00000000000E+00 -0.45593999997E+02  0.45594000000E+02  0.51100000000E-03 0. -1.
    9900012    2    1    2    0    0  0.32622304281E+00 -0.11082298291E+01  0.24193172707E+00  0.90007692503E+02  0.89999953244E+02 0.  0.
         12    1    1    2    0    0 -0.32622304281E+00  0.11082298291E+01 -0.24193172707E+00  0.11803074973E+01  0.00000000000E+00 0. -1.
         11    1    3    3    0    0 -0.14347570898E+01  0.97485373978E+01  0.52396571278E+01  0.11160041056E+02  0.51100000000E-03 0. -1.
        -11    1    3    3    0    0  0.21640236371E+02  0.22886699142E+02  0.14984903606E+02  0.34880484001E+02  0.51100000000E-03 0.  1.
         12    1    3    3    0    0 -0.19879256238E+02 -0.33743466369E+02 -0.19982629006E+02  0.43967167445E+02  0.00000000000E+00 0. -1.
</event>
<event>
 7    1  0.2285268E-015  0.9000774E+02  0.7816164E-02  0.1186339E+00
        -11   -1    0    0    0    0  0.00000000000E+00  0.00000000000E+00  0.45593999997E+02  0.45594000000E+02  0.51100000000E-03 0. -1.
         11   -1    0    0    0    0 -0.00000000000E+00 -0.00000000000E+00 -0.45593999997E+02  0.45594000000E+02  0.51100000000E-03 0.  1.
    9900012    2    1    2    0    0  0.77317541773E+00  0.31284946512E+00 -0.83506116193E+00  0.90007744876E+02  0.90000006308E+02 0.  0.
         12    1    1    2    0    0 -0.77317541773E+00 -0.31284946512E+00  0.83506116193E+00  0.11802551244E+01  0.00000000000E+00 0. -1.
         11    1    3    3    0    0 -0.13307931894E+02  0.79480733729E+01  0.35960262639E+02  0.39158822901E+02  0.51100000000E-03 0. -1.
        -11    1    3    3    0    0 -0.59030491864E+01  0.75061019697E+01 -0.14105825243E+02  0.17034138151E+02  0.51100000000E-03 0.  1.
        -12    1    3    3    0    0  0.19984156498E+02 -0.15141325877E+02 -0.22689498558E+02  0.33814783824E+02  0.00000000000E+00 0.  1.
</event>
<event>
 7    1  0.2285268E-015  0.9000772E+02  0.7816164E-02  0.1186339E+00
        -11   -1    0    0    0    0  0.00000000000E+00  0.00000000000E+00  0.45593999997E+02  0.45594000000E+02  0.51100000000E-03 0. -1.
         11   -1    0    0    0    0 -0.00000000000E+00 -0.00000000000E+00 -0.45593999997E+02  0.45594000000E+02  0.51100000000E-03 0.  1.
    9900012    2    1    2    0    0 -0.49736893134E+00  0.47906839846E+00  0.95717375860E+00  0.90007718683E+02  0.89999979769E+02 0.  0.
         12    1    1    2    0    0  0.49736893134E+00 -0.47906839846E+00 -0.95717375860E+00  0.11802813175E+01  0.00000000000E+00 0. -1.
         11    1    3    3    0    0  0.29161655303E+02  0.29923407772E+02 -0.91468522567E+01  0.42772390384E+02  0.51100000000E-03 0. -1.
        -11    1    3    3    0    0 -0.22018412991E+01 -0.28976280310E+01  0.82284925793E+01  0.89973575955E+01  0.51100000000E-03 0.  1.
        -12    1    3    3    0    0 -0.27457182935E+02 -0.26546711343E+02  0.18755334360E+01  0.38237970703E+02  0.00000000000E+00 0.  1.
</event>
<event>
 7    1  0.2285268E-015  0.9000776E+02  0.7816164E-02  0.1186339E+00
        -11   -1    0    0    0    0  0.00000000000E+00  0.00000000000E+00  0.45593999997E+02  0.45594000000E+02  0.51100000000E-03 0. -1.
         11   -1    0    0    0    0 -0.00000000000E+00 -0.00000000000E+00 -0.45593999997E+02  0.45594000000E+02  0.51100000000E-03 0.  1.
    9900012    2    1    2    0    0  0.26430797596E+00  0.11479181039E+01  0.73415917037E-01  0.90007760797E+02  0.90000022440E+02 0.  0.
         12    1    1    2    0    0 -0.26430797596E+00 -0.11479181039E+01 -0.73415917037E-01  0.11802392030E+01  0.00000000000E+00 0. -1.
         11    1    3    3    0    0 -0.80385691603E+01 -0.99263168089E+00  0.23677196394E+01  0.84386022747E+01  0.51100000000E-03 0. -1.
        -11    1    3    3    0    0  0.53413654589E+01 -0.22907301052E+02 -0.33819996470E+02  0.41195470479E+02  0.51100000000E-03 0.  1.
         12    1    3    3    0    0  0.29615116774E+01  0.25047850837E+02  0.31525692748E+02  0.40373688043E+02  0.00000000000E+00 0. -1.
</event>
<event>
 7    1  0.4735939E-015  0.9000773E+02  0.7816164E-02  0.1186339E+00
        -11   -1    0    0    0    0  0.00000000000E+00  0.00000000000E+00  0.45593999997E+02  0.45594000000E+02  0.51100000000E-03 0.  1.
         11   -1    0    0    0    0 -0.00000000000E+00 -0.00000000000E+00 -0.45593999997E+02  0.45594000000E+02  0.51100000000E-03 0. -1.
    9900012    2    1    2    0    0 -0.46816607832E+00  0.75434279455E+00  0.77769983016E+00  0.90007733270E+02  0.89999994549E+02 0.  0.
         12    1    1    2    0    0  0.46816607832E+00 -0.75434279455E+00 -0.77769983016E+00  0.11802667302E+01  0.00000000000E+00 0. -1.
         11    1    3    3    0    0  0.98693833247E+00  0.52939684873E+01  0.82259192595E+01  0.98318816888E+01  0.51100000000E-03 0. -1.
        -11    1    3    3    0    0  0.21187093661E+01 -0.12860343642E+02  0.34699324378E+02  0.37066433340E+02  0.51100000000E-03 0.  1.
         12    1    3    3    0    0 -0.35738137769E+01  0.83207179494E+01 -0.42147543807E+02  0.43109418241E+02  0.00000000000E+00 0. -1.
</event>
<event>
 7    1  0.2285268E-015  0.9000780E+02  0.7816164E-02  0.1186339E+00
        -11   -1    0    0    0    0  0.00000000000E+00  0.00000000000E+00  0.45593999997E+02  0.45594000000E+02  0.51100000000E-03 0. -1.
         11   -1    0    0    0    0 -0.00000000000E+00 -0.00000000000E+00 -0.45593999997E+02  0.45594000000E+02  0.51100000000E-03 0.  1.
    9900012    2    1    2    0    0  0.84906329056E+00  0.70241093115E+00 -0.42257912585E+00  0.90007803955E+02  0.90000066167E+02 0.  0.
         12    1    1    2    0    0 -0.84906329056E+00 -0.70241093115E+00  0.42257912585E+00  0.11801960452E+01  0.00000000000E+00 0. -1.
         11    1    3    3    0    0 -0.12452629328E+02  0.55668790548E+01  0.53663565093E+01  0.14657963775E+02  0.51100000000E-03 0. -1.
        -11    1    3    3    0    0 -0.23198267491E+02  0.19645358762E+02  0.28888769718E+01  0.30535968069E+02  0.51100000000E-03 0.  1.
         12    1    3    3    0    0  0.36499960109E+02 -0.24509826886E+02 -0.86778126069E+01  0.44813872111E+02  0.00000000000E+00 0. -1.
</event>
<event>
 7    1  0.2285268E-015  0.9000752E+02  0.7816164E-02  0.1186339E+00
        -11   -1    0    0    0    0  0.00000000000E+00  0.00000000000E+00  0.45593999997E+02  0.45594000000E+02  0.51100000000E-03 0.  1.
         11   -1    0    0    0    0 -0.00000000000E+00 -0.00000000000E+00 -0.45593999997E+02  0.45594000000E+02  0.51100000000E-03 0. -1.
    9900012    2    1    2    0    0 -0.39240372336E+00 -0.16048994932E+00  0.11017257996E+01  0.90007518131E+02  0.89999776570E+02 0.  0.
         12    1    1    2    0    0  0.39240372336E+00  0.16048994932E+00 -0.11017257996E+01  0.11804818692E+01  0.00000000000E+00 0. -1.
         11    1    3    3    0    0  0.14470163355E+02 -0.96285490666E+01 -0.36127678799E+02  0.40091193052E+02  0.51100000000E-03 0. -1.
        -11    1    3    3    0    0 -0.28482511570E+01 -0.67212898818E+01 -0.30942572124E+00  0.73064366737E+01  0.51100000000E-03 0.  1.
        -12    1    3    3    0    0 -0.12014315922E+02  0.16189348999E+02  0.37538830320E+02  0.42609888405E+02  0.00000000000E+00 0.  1.
</event>
<event>
 7    1  0.2285268E-015  0.9000771E+02  0.7816164E-02  0.1186339E+00
        -11   -1    0    0    0    0  0.00000000000E+00  0.00000000000E+00  0.45593999997E+02  0.45594000000E+02  0.51100000000E-03 0.  1.
         11   -1    0    0    0    0 -0.00000000000E+00 -0.00000000000E+00 -0.45593999997E+02  0.45594000000E+02  0.51100000000E-03 0. -1.
    9900012    2    1    2    0    0 -0.99688751379E+00  0.26994277149E+00  0.57134806444E+00  0.90007706636E+02  0.89999967563E+02 0.  0.
         12    1    1    2    0    0  0.99688751379E+00 -0.26994277149E+00 -0.57134806444E+00  0.11802933643E+01  0.00000000000E+00 0. -1.
         11    1    3    3    0    0 -0.43337023477E+01  0.77188178154E+01  0.26333601422E+01  0.92355676818E+01  0.51100000000E-03 0. -1.
        -11    1    3    3    0    0  0.13098553680E+02  0.29257352513E+02  0.19078031162E+02  0.37303298217E+02  0.51100000000E-03 0.  1.
         12    1    3    3    0    0 -0.97617388460E+01 -0.36706227557E+02 -0.21140043240E+02  0.43468840737E+02  0.00000000000E+00 0. -1.
</event>
<event>
 7    1  0.2285268E-015  0.9000770E+02  0.7816164E-02  0.1186339E+00
        -11   -1    0    0    0    0  0.00000000000E+00  0.00000000000E+00  0.45593999997E+02  0.45594000000E+02  0.51100000000E-03 0.  1.
         11   -1    0    0    0    0 -0.00000000000E+00 -0.00000000000E+00 -0.45593999997E+02  0.45594000000E+02  0.51100000000E-03 0. -1.
    9900012    2    1    2    0    0 -0.24728070634E+00 -0.71415118196E+00  0.90661697943E+00  0.90007697494E+02  0.89999958301E+02 0.  0.
         12    1    1    2    0    0  0.24728070634E+00  0.71415118196E+00 -0.90661697943E+00  0.11803025061E+01  0.00000000000E+00 0. -1.
         11    1    3    3    0    0  0.69150574750E+01  0.44937288495E+01  0.41790539210E+01  0.92453291338E+01  0.51100000000E-03 0. -1.
        -11    1    3    3    0    0 -0.13102618431E+02  0.12411001932E+02 -0.37608846922E+02  0.41714948709E+02  0.51100000000E-03 0.  1.
         12    1    3    3    0    0  0.59402802499E+01 -0.17618881963E+02  0.34336409981E+02  0.39047419651E+02  0.00000000000E+00 0. -1.
</event>
<event>
 7    1  0.2285268E-015  0.9000770E+02  0.7816164E-02  0.1186339E+00
        -11   -1    0    0    0    0  0.00000000000E+00  0.00000000000E+00  0.45593999997E+02  0.45594000000E+02  0.51100000000E-03 0. -1.
         11   -1    0    0    0    0 -0.00000000000E+00 -0.00000000000E+00 -0.45593999997E+02  0.45594000000E+02  0.51100000000E-03 0.  1.
    9900012    2    1    2    0    0  0.11053820108E+01 -0.40020251363E+00  0.10520575080E+00  0.90007703558E+02  0.89999964445E+02 0.  0.
         12    1    1    2    0    0 -0.11053820108E+01  0.40020251363E+00 -0.10520575080E+00  0.11802964423E+01  0.00000000000E+00 0. -1.
         11    1    3    3    0    0 -0.45458429831E+01 -0.43705781102E+01 -0.65461727249E+01  0.90895004841E+01  0.51100000000E-03 0. -1.
        -11    1    3    3    0    0  0.26209375378E+02  0.26665010160E+02 -0.18103999291E+02  0.41541652773E+02  0.51100000000E-03 0.  1.
         12    1    3    3    0    0 -0.20558150384E+02 -0.22694634564E+02  0.24755377766E+02  0.39376550300E+02  0.00000000000E+00 0. -1.
</event>
<event>
 7    1  0.2285268E-015  0.9000772E+02  0.7816164E-02  0.1186339E+00
        -11   -1    0    0    0    0  0.00000000000E+00  0.00000000000E+00  0.45593999997E+02  0.45594000000E+02  0.51100000000E-03 0.  1.
         11   -1    0    0    0    0 -0.00000000000E+00 -0.00000000000E+00 -0.45593999997E+02  0.45594000000E+02  0.51100000000E-03 0. -1.
    9900012    2    1    2    0    0  0.51144208781E-01 -0.29472402368E-02  0.11791704823E+01  0.90007717219E+02  0.89999978287E+02 0.  0.
         12    1    1    2    0    0 -0.51144208781E-01  0.29472402368E-02 -0.11791704823E+01  0.11802827808E+01  0.00000000000E+00 0. -1.
         11    1    3    3    0    0 -0.53204863255E+01  0.79438981690E+01  0.36998843605E+01  0.10251938227E+02  0.51100000000E-03 0. -1.
        -11    1    3    3    0    0  0.69782815560E+01  0.79062600141E+01  0.36295423061E+02  0.37796337076E+02  0.51100000000E-03 0.  1.
         12    1    3    3    0    0 -0.16066510217E+01 -0.15853105423E+02 -0.38816136940E+02  0.41959441917E+02  0.00000000000E+00 0. -1.
</event>
<event>
 7    1  0.2285268E-015  0.9000767E+02  0.7816164E-02  0.1186339E+00
        -11   -1    0    0    0    0  0.00000000000E+00  0.00000000000E+00  0.45593999997E+02  0.45594000000E+02  0.51100000000E-03 0.  1.
         11   -1    0    0    0    0 -0.00000000000E+00 -0.00000000000E+00 -0.45593999997E+02  0.45594000000E+02  0.51100000000E-03 0. -1.
    9900012    2    1    2    0    0  0.66845832294E+00  0.90204985407E+00  0.36420263483E+00  0.90007672068E+02  0.89999932539E+02 0.  0.
         12    1    1    2    0    0 -0.66845832294E+00 -0.90204985407E+00 -0.36420263483E+00  0.11803279324E+01  0.00000000000E+00 0. -1.
         11    1    3    3    0    0  0.65730441543E+01  0.15597105208E+02  0.50274627671E+01  0.17656443087E+02  0.51100000000E-03 0. -1.
        -11    1    3    3    0    0 -0.15880804768E+02 -0.14511709442E+02  0.29641271998E+02  0.36625055317E+02  0.51100000000E-03 0.  1.
         12    1    3    3    0    0  0.99762189364E+01 -0.18334591224E+00 -0.34304532131E+02  0.35726173664E+02  0.00000000000E+00 0. -1.
</event>
<event>
 7    1  0.2971150E-015  0.9000763E+02  0.7816164E-02  0.1186339E+00
        -11   -1    0    0    0    0  0.00000000000E+00  0.00000000000E+00  0.45593999997E+02  0.45594000000E+02  0.51100000000E-03 0.  1.
         11   -1    0    0    0    0 -0.00000000000E+00 -0.00000000000E+00 -0.45593999997E+02  0.45594000000E+02  0.51100000000E-03 0. -1.
    9900012    2    1    2    0    0 -0.57883650301E+00  0.87297782229E+00  0.54418457157E+00  0.90007627676E+02  0.89999887561E+02 0.  0.
         12    1    1    2    0    0  0.57883650301E+00 -0.87297782229E+00 -0.54418457157E+00  0.11803723240E+01  0.00000000000E+00 0. -1.
         11    1    3    3    0    0  0.48740604945E+01 -0.35718454914E+01  0.73557727011E+01  0.95195555678E+01  0.51100000000E-03 0. -1.
        -11    1    3    3    0    0  0.14423822198E+02 -0.27687202952E+02  0.17275652260E+02  0.35680190798E+02  0.51100000000E-03 0.  1.
         12    1    3    3    0    0 -0.19876719195E+02  0.32132026266E+02 -0.24087240389E+02  0.44807881310E+02  0.00000000000E+00 0. -1.
</event>
<event>
 7    1  0.2285268E-015  0.9000782E+02  0.7816164E-02  0.1186339E+00
        -11   -1    0    0    0    0  0.00000000000E+00  0.00000000000E+00  0.45593999997E+02  0.45594000000E+02  0.51100000000E-03 0. -1.
         11   -1    0    0    0    0 -0.00000000000E+00 -0.00000000000E+00 -0.45593999997E+02  0.45594000000E+02  0.51100000000E-03 0.  1.
    9900012    2    1    2    0    0  0.95099308056E+00  0.68898994573E+00  0.11716513045E+00  0.90007820924E+02  0.90000083360E+02 0.  0.
         12    1    1    2    0    0 -0.95099308056E+00 -0.68898994573E+00 -0.11716513045E+00  0.11801790764E+01  0.00000000000E+00 0. -1.
         11    1    3    3    0    0  0.21505945656E+02  0.22626783919E+02  0.91079234442E+01  0.32518169056E+02  0.51100000000E-03 0. -1.
        -11    1    3    3    0    0 -0.67501235676E+01  0.27805637879E+01  0.17347398008E+02  0.18820943682E+02  0.51100000000E-03 0.  1.
        -12    1    3    3    0    0 -0.13804829007E+02 -0.24718357761E+02 -0.26338156322E+02  0.38668708186E+02  0.00000000000E+00 0.  1.
</event>
<event>
 7    1  0.2285268E-015  0.9000731E+02  0.7816164E-02  0.1186340E+00
        -11   -1    0    0    0    0  0.00000000000E+00  0.00000000000E+00  0.45593999997E+02  0.45594000000E+02  0.51100000000E-03 0. -1.
         11   -1    0    0    0    0 -0.00000000000E+00 -0.00000000000E+00 -0.45593999997E+02  0.45594000000E+02  0.51100000000E-03 0.  1.
    9900012    2    1    2    0    0  0.92176008426E+00 -0.33919961810E+00 -0.65523085689E+00  0.90007311426E+02  0.89999567135E+02 0.  0.
         12    1    1    2    0    0 -0.92176008426E+00  0.33919961810E+00  0.65523085689E+00  0.11806885744E+01  0.00000000000E+00 0. -1.
         11    1    3    3    0    0 -0.13358012183E+02 -0.11948679378E+02  0.30252277819E+02  0.35162590091E+02  0.51100000000E-03 0. -1.
        -11    1    3    3    0    0 -0.27431198044E+01 -0.26600617662E+00  0.92438013648E+01  0.96458970282E+01  0.51100000000E-03 0.  1.
        -12    1    3    3    0    0  0.17022892072E+02  0.11875485937E+02 -0.40151310041E+02  0.45198824307E+02  0.00000000000E+00 0.  1.
</event>
<event>
 7    1  0.2285268E-015  0.9000785E+02  0.7816164E-02  0.1186339E+00
        -11   -1    0    0    0    0  0.00000000000E+00  0.00000000000E+00  0.45593999997E+02  0.45594000000E+02  0.51100000000E-03 0. -1.
         11   -1    0    0    0    0 -0.00000000000E+00 -0.00000000000E+00 -0.45593999997E+02  0.45594000000E+02  0.51100000000E-03 0.  1.
    9900012    2    1    2    0    0  0.67433778864E+00  0.85413591473E+00 -0.45658180556E+00  0.90007853162E+02  0.90000116024E+02 0.  0.
         12    1    1    2    0    0 -0.67433778864E+00 -0.85413591473E+00  0.45658180556E+00  0.11801468380E+01  0.00000000000E+00 0. -1.
         11    1    3    3    0    0 -0.24682592385E+01  0.10124541551E+00 -0.85001031804E+01  0.88517969160E+01  0.51100000000E-03 0. -1.
        -11    1    3    3    0    0  0.21310634449E+02  0.33199753482E+02  0.16917043191E+02  0.42924970850E+02  0.51100000000E-03 0.  1.
         12    1    3    3    0    0 -0.18168037422E+02 -0.32446862982E+02 -0.88735218166E+01  0.38231085396E+02  0.00000000000E+00 0. -1.
</event>
<event>
 7    1  0.2285268E-015  0.9000784E+02  0.7816164E-02  0.1186339E+00
        -11   -1    0    0    0    0  0.00000000000E+00  0.00000000000E+00  0.45593999997E+02  0.45594000000E+02  0.51100000000E-03 0. -1.
         11   -1    0    0    0    0 -0.00000000000E+00 -0.00000000000E+00 -0.45593999997E+02  0.45594000000E+02  0.51100000000E-03 0.  1.
    9900012    2    1    2    0    0 -0.52234205470E+00  0.10581785132E+01  0.13563483492E-01  0.90007844520E+02  0.90000107268E+02 0.  0.
         12    1    1    2    0    0  0.52234205470E+00 -0.10581785132E+01 -0.13563483492E-01  0.11801554796E+01  0.00000000000E+00 0. -1.
         11    1    3    3    0    0 -0.24051620639E+01  0.24726464443E+02  0.27385333274E+02  0.36974847223E+02  0.51100000000E-03 0. -1.
        -11    1    3    3    0    0 -0.32248885492E+00  0.17321449743E+01  0.86909770639E+01  0.88677735570E+01  0.51100000000E-03 0.  1.
        -12    1    3    3    0    0  0.22053088641E+01 -0.25400430904E+02 -0.36062746855E+02  0.44165223740E+02  0.00000000000E+00 0.  1.
</event>
<event>
 7    1  0.2285268E-015  0.9000748E+02  0.7816164E-02  0.1186340E+00
        -11   -1    0    0    0    0  0.00000000000E+00  0.00000000000E+00  0.45593999997E+02  0.45594000000E+02  0.51100000000E-03 0.  1.
         11   -1    0    0    0    0 -0.00000000000E+00 -0.00000000000E+00 -0.45593999997E+02  0.45594000000E+02  0.51100000000E-03 0. -1.
    9900012    2    1    2    0    0  0.13691312316E-01 -0.45829538431E+00  0.10878455061E+01  0.90007478947E+02  0.89999736869E+02 0.  0.
         12    1    1    2    0    0 -0.13691312316E-01  0.45829538431E+00 -0.10878455061E+01  0.11805210530E+01  0.00000000000E+00 0. -1.
         11    1    3    3    0    0  0.25119586142E+02 -0.16605453702E+02  0.24929843131E+02  0.39092605175E+02  0.51100000000E-03 0. -1.
        -11    1    3    3    0    0  0.30480277068E-01  0.77943509866E+00  0.77081807151E+01  0.77475478907E+01  0.51100000000E-03 0.  1.
        -12    1    3    3    0    0 -0.25136375106E+02  0.15367723219E+02 -0.31550178340E+02  0.43167325881E+02  0.00000000000E+00 0.  1.
</event>
<event>
 7    1  0.2285268E-015  0.9000765E+02  0.7816164E-02  0.1186339E+00
        -11   -1    0    0    0    0  0.00000000000E+00  0.00000000000E+00  0.45593999997E+02  0.45594000000E+02  0.51100000000E-03 0.  1.
         11   -1    0    0    0    0 -0.00000000000E+00 -0.00000000000E+00 -0.45593999997E+02  0.45594000000E+02  0.51100000000E-03 0. -1.
    9900012    2    1    2    0    0 -0.78743056301E+00  0.86545005991E+00  0.15552113946E+00  0.90007645171E+02  0.89999905287E+02 0.  0.
         12    1    1    2    0    0  0.78743056301E+00 -0.86545005991E+00 -0.15552113946E+00  0.11803548291E+01  0.00000000000E+00 0. -1.
         11    1    3    3    0    0  0.33894577846E+01 -0.38639455351E+02  0.92366303017E+00  0.38798828430E+02  0.51100000000E-03 0. -1.
        -11    1    3    3    0    0 -0.36409143726E+01 -0.70878969594E+00 -0.93739128717E+01  0.10081115171E+02  0.51100000000E-03 0.  1.
        -12    1    3    3    0    0 -0.53597397503E+00  0.40213695107E+02  0.86057709810E+01  0.41127701570E+02  0.00000000000E+00 0.  1.
</event>
<event>
 7    1  0.2285268E-015  0.9000783E+02  0.7816164E-02  0.1186339E+00
        -11   -1    0    0    0    0  0.00000000000E+00  0.00000000000E+00  0.45593999997E+02  0.45594000000E+02  0.51100000000E-03 0.  1.
         11   -1    0    0    0    0 -0.00000000000E+00 -0.00000000000E+00 -0.45593999997E+02  0.45594000000E+02  0.51100000000E-03 0. -1.
    9900012    2    1    2    0    0  0.51103602211E+00 -0.15710751578E+00  0.10521266047E+01  0.90007825869E+02  0.90000088370E+02 0.  0.
         12    1    1    2    0    0 -0.51103602211E+00  0.15710751578E+00 -0.10521266047E+01  0.11801741311E+01  0.00000000000E+00 0. -1.
         11    1    3    3    0    0  0.14844610781E+02  0.25057849755E+02 -0.24532569049E+02  0.38080247478E+02  0.51100000000E-03 0. -1.
        -11    1    3    3    0    0  0.10356205412E+02 -0.14692000960E+01  0.29448468362E+01  0.10866538667E+02  0.51100000000E-03 0.  1.
        -12    1    3    3    0    0 -0.24689780171E+02 -0.23745757175E+02  0.22639848818E+02  0.41061039724E+02  0.00000000000E+00 0.  1.
</event>
<event>
 7    1  0.2285268E-015  0.9000781E+02  0.7816164E-02  0.1186339E+00
        -11   -1    0    0    0    0  0.00000000000E+00  0.00000000000E+00  0.45593999997E+02  0.45594000000E+02  0.51100000000E-03 0. -1.
         11   -1    0    0    0    0 -0.00000000000E+00 -0.00000000000E+00 -0.45593999997E+02  0.45594000000E+02  0.51100000000E-03 0.  1.
    9900012    2    1    2    0    0 -0.73881183760E-01  0.10687555514E+01 -0.49513818512E+00  0.90007805660E+02  0.90000067895E+02 0.  0.
         12    1    1    2    0    0  0.73881183760E-01 -0.10687555514E+01  0.49513818512E+00  0.11801943401E+01  0.00000000000E+00 0. -1.
         11    1    3    3    0    0  0.90276538917E+01  0.45071536505E+01  0.26092383028E+01  0.10422144386E+02  0.51100000000E-03 0. -1.
        -11    1    3    3    0    0 -0.16127599118E+02  0.25946533174E+02 -0.27228180398E+02  0.40923047848E+02  0.51100000000E-03 0.  1.
         12    1    3    3    0    0  0.70260640427E+01 -0.29384931273E+02  0.24123803911E+02  0.38662613427E+02  0.00000000000E+00 0. -1.
</event>
<event>
 7    1  0.2285268E-015  0.9000776E+02  0.7816164E-02  0.1186339E+00
        -11   -1    0    0    0    0  0.00000000000E+00  0.00000000000E+00  0.45593999997E+02  0.45594000000E+02  0.51100000000E-03 0.  1.
         11   -1    0    0    0    0 -0.00000000000E+00 -0.00000000000E+00 -0.45593999997E+02  0.45594000000E+02  0.51100000000E-03 0. -1.
    9900012    2    1    2    0    0  0.11484093348E+01 -0.22200712790E+00 -0.15762651841E+00  0.90007755413E+02  0.90000016985E+02 0.  0.
         12    1    1    2    0    0 -0.11484093348E+01  0.22200712790E+00  0.15762651841E+00  0.11802445867E+01  0.00000000000E+00 0. -1.
         11    1    3    3    0    0 -0.21393770721E+01 -0.21376393376E+02 -0.34778221455E+02  0.40878500656E+02  0.51100000000E-03 0. -1.
        -11    1    3    3    0    0  0.58818611532E+01  0.26042156281E+01 -0.30045049674E+01  0.70996675995E+01  0.51100000000E-03 0.  1.
        -12    1    3    3    0    0 -0.25940747463E+01  0.18550170620E+02  0.37625099904E+02  0.42029587158E+02  0.00000000000E+00 0.  1.
</event>
<event>
 7    1  0.2285268E-015  0.9000773E+02  0.7816164E-02  0.1186339E+00
        -11   -1    0    0    0    0  0.00000000000E+00  0.00000000000E+00  0.45593999997E+02  0.45594000000E+02  0.51100000000E-03 0.  1.
         11   -1    0    0    0    0 -0.00000000000E+00 -0.00000000000E+00 -0.45593999997E+02  0.45594000000E+02  0.51100000000E-03 0. -1.
    9900012    2    1    2    0    0 -0.98228038436E+00 -0.58903199285E+00 -0.28496574236E+00  0.90007729304E+02  0.89999990531E+02 0.  0.
         12    1    1    2    0    0  0.98228038436E+00  0.58903199285E+00  0.28496574236E+00  0.11802706962E+01  0.00000000000E+00 0. -1.
         11    1    3    3    0    0 -0.41301417950E+01 -0.99472860610E+01  0.45706470168E+01  0.11700315621E+02  0.51100000000E-03 0. -1.
        -11    1    3    3    0    0  0.89713420091E+01 -0.20277093244E+02  0.26647162752E+02  0.34665786748E+02  0.51100000000E-03 0.  1.
         12    1    3    3    0    0 -0.58234805985E+01  0.29635347312E+02 -0.31502775511E+02  0.43641626934E+02  0.00000000000E+00 0. -1.
</event>
<event>
 7    1  0.2285268E-015  0.9000776E+02  0.7816164E-02  0.1186339E+00
        -11   -1    0    0    0    0  0.00000000000E+00  0.00000000000E+00  0.45593999997E+02  0.45594000000E+02  0.51100000000E-03 0.  1.
         11   -1    0    0    0    0 -0.00000000000E+00 -0.00000000000E+00 -0.45593999997E+02  0.45594000000E+02  0.51100000000E-03 0. -1.
    9900012    2    1    2    0    0 -0.70474618967E+00  0.47284254933E+00  0.82019633467E+00  0.90007758798E+02  0.90000020414E+02 0.  0.
         12    1    1    2    0    0  0.70474618967E+00 -0.47284254933E+00 -0.82019633467E+00  0.11802412023E+01  0.00000000000E+00 0. -1.
         11    1    3    3    0    0  0.10378474456E+02  0.37081150399E+01  0.38283383739E+01  0.11667005792E+02  0.51100000000E-03 0. -1.
        -11    1    3    3    0    0 -0.62575224402E+00 -0.34036517686E+02  0.19077523493E+02  0.39023428923E+02  0.51100000000E-03 0.  1.
         12    1    3    3    0    0 -0.10457468402E+02  0.30801245195E+02 -0.22085665533E+02  0.39317324082E+02  0.00000000000E+00 0. -1.
</event>
<event>
 7    1  0.2285268E-015  0.9000806E+02  0.7816164E-02  0.1186338E+00
        -11   -1    0    0    0    0  0.00000000000E+00  0.00000000000E+00  0.45593999997E+02  0.45594000000E+02  0.51100000000E-03 0.  1.
         11   -1    0    0    0    0 -0.00000000000E+00 -0.00000000000E+00 -0.45593999997E+02  0.45594000000E+02  0.51100000000E-03 0. -1.
    9900012    2    1    2    0    0  0.24080951168E+00  0.99864223321E+00 -0.58050567512E+00  0.90008058319E+02  0.90000323889E+02 0.  0.
         12    1    1    2    0    0 -0.24080951168E+00 -0.99864223321E+00  0.58050567512E+00  0.11799416806E+01  0.00000000000E+00 0. -1.
         11    1    3    3    0    0 -0.97002085034E+01 -0.32884090479E+02 -0.12401353106E+02  0.36458894810E+02  0.51100000000E-03 0. -1.
        -11    1    3    3    0    0  0.21022025557E+01 -0.43959971090E+01 -0.82810772663E+01  0.96083446607E+01  0.51100000000E-03 0.  1.
        -12    1    3    3    0    0  0.78388154593E+01  0.38278729821E+02  0.20101924697E+02  0.43940818849E+02  0.00000000000E+00 0.  1.
</event>
<event>
 7    1  0.2285268E-015  0.9000772E+02  0.7816164E-02  0.1186339E+00
        -11   -1    0    0    0    0  0.00000000000E+00  0.00000000000E+00  0.45593999997E+02  0.45594000000E+02  0.51100000000E-03 0. -1.
         11   -1    0    0    0    0 -0.00000000000E+00 -0.00000000000E+00 -0.45593999997E+02  0.45594000000E+02  0.51100000000E-03 0.  1.
    9900012    2    1    2    0    0  0.57705309039E+00 -0.75778022649E+00 -0.69701397052E+00  0.90007724771E+02  0.89999985938E+02 0.  0.
         12    1    1    2    0    0 -0.57705309039E+00  0.75778022649E+00  0.69701397052E+00  0.11802752289E+01  0.00000000000E+00 0. -1.
         11    1    3    3    0    0 -0.24735446844E+02  0.17591354340E+02  0.22895673156E+02  0.38019862277E+02  0.51100000000E-03 0. -1.
        -11    1    3    3    0    0  0.46560366573E+01  0.40964613608E+01  0.66082267890E+01  0.90624684601E+01  0.51100000000E-03 0.  1.
        -12    1    3    3    0    0  0.20656463277E+02 -0.22445595927E+02 -0.30200913915E+02  0.42925394034E+02  0.00000000000E+00 0.  1.
</event>
<event>
 7    1  0.2285268E-015  0.9000790E+02  0.7816164E-02  0.1186339E+00
        -11   -1    0    0    0    0  0.00000000000E+00  0.00000000000E+00  0.45593999997E+02  0.45594000000E+02  0.51100000000E-03 0. -1.
         11   -1    0    0    0    0 -0.00000000000E+00 -0.00000000000E+00 -0.45593999997E+02  0.45594000000E+02  0.51100000000E-03 0.  1.
    9900012    2    1    2    0    0 -0.91756821605E+00  0.56285153815E+00 -0.48363909578E+00  0.90007898284E+02  0.90000161741E+02 0.  0.
         12    1    1    2    0    0  0.91756821605E+00 -0.56285153815E+00  0.48363909578E+00  0.11801017160E+01  0.00000000000E+00 0. -1.
         11    1    3    3    0    0 -0.82006436644E+01  0.32477430471E+02 -0.18915123197E+02  0.38468375743E+02  0.51100000000E-03 0. -1.
        -11    1    3    3    0    0 -0.41467208553E+00  0.76840379620E+01  0.41731236946E+01  0.87539336285E+01  0.51100000000E-03 0.  1.
        -12    1    3    3    0    0  0.76977475338E+01 -0.39598616895E+02  0.14258360407E+02  0.42785588912E+02  0.00000000000E+00 0.  1.
</event>
<event>
 7    1  0.2285268E-015  0.9000759E+02  0.7816164E-02  0.1186339E+00
        -11   -1    0    0    0    0  0.00000000000E+00  0.00000000000E+00  0.45593999997E+02  0.45594000000E+02  0.51100000000E-03 0.  1.
         11   -1    0    0    0    0 -0.00000000000E+00 -0.00000000000E+00 -0.45593999997E+02  0.45594000000E+02  0.51100000000E-03 0. -1.
    9900012    2    1    2    0    0  0.11631389571E+01 -0.70415685318E-01 -0.18846838654E+00  0.90007588659E+02  0.89999848029E+02 0.  0.
         12    1    1    2    0    0 -0.11631389571E+01  0.70415685318E-01  0.18846838654E+00  0.11804113414E+01  0.00000000000E+00 0. -1.
         11    1    3    3    0    0 -0.14300209106E+02 -0.32036577275E+02 -0.15627575582E+02  0.38406501830E+02  0.51100000000E-03 0. -1.
        -11    1    3    3    0    0  0.19819496311E+01 -0.67022414660E+01  0.67945376806E+01  0.97475077616E+01  0.51100000000E-03 0.  1.
        -12    1    3    3    0    0  0.13481398432E+02  0.38668403056E+02  0.86445695149E+01  0.41853579067E+02  0.00000000000E+00 0.  1.
</event>
<event>
 7    1  0.2285268E-015  0.9000763E+02  0.7816164E-02  0.1186339E+00
        -11   -1    0    0    0    0  0.00000000000E+00  0.00000000000E+00  0.45593999997E+02  0.45594000000E+02  0.51100000000E-03 0.  1.
         11   -1    0    0    0    0 -0.00000000000E+00 -0.00000000000E+00 -0.45593999997E+02  0.45594000000E+02  0.51100000000E-03 0. -1.
    9900012    2    1    2    0    0  0.84712499981E+00 -0.82161597941E+00  0.24720013665E-01  0.90007625203E+02  0.89999885055E+02 0.  0.
         12    1    1    2    0    0 -0.84712499981E+00  0.82161597941E+00 -0.24720013665E-01  0.11803747973E+01  0.00000000000E+00 0. -1.
         11    1    3    3    0    0  0.11501447488E+02  0.14792299860E+01 -0.48925986204E+00  0.11606497798E+02  0.51100000000E-03 0. -1.
        -11    1    3    3    0    0  0.33725263845E+02  0.18427558403E+01  0.16255351757E+01  0.33814664501E+02  0.51100000000E-03 0.  1.
         12    1    3    3    0    0 -0.44379586333E+02 -0.41436018057E+01 -0.11115553000E+01  0.44586462903E+02  0.00000000000E+00 0. -1.
</event>
<event>
 7    1  0.2285268E-015  0.9000771E+02  0.7816164E-02  0.1186339E+00
        -11   -1    0    0    0    0  0.00000000000E+00  0.00000000000E+00  0.45593999997E+02  0.45594000000E+02  0.51100000000E-03 0. -1.
         11   -1    0    0    0    0 -0.00000000000E+00 -0.00000000000E+00 -0.45593999997E+02  0.45594000000E+02  0.51100000000E-03 0.  1.
    9900012    2    1    2    0    0  0.95816953025E+00 -0.14505676082E+00 -0.67376057467E+00  0.90007710364E+02  0.89999971341E+02 0.  0.
         12    1    1    2    0    0 -0.95816953025E+00  0.14505676082E+00  0.67376057467E+00  0.11802896359E+01  0.00000000000E+00 0. -1.
         11    1    3    3    0    0  0.94332415172E+01  0.34974602025E+01 -0.75504081567E+01  0.12578828919E+02  0.51100000000E-03 0. -1.
        -11    1    3    3    0    0  0.15966605613E+02  0.10796088246E+02 -0.27035998951E+02  0.33202910351E+02  0.51100000000E-03 0.  1.
         12    1    3    3    0    0 -0.24441677600E+02 -0.14438605209E+02  0.33912646533E+02  0.44225971094E+02  0.00000000000E+00 0. -1.
</event>
<event>
 7    1  0.2285268E-015  0.9000774E+02  0.7816164E-02  0.1186339E+00
        -11   -1    0    0    0    0  0.00000000000E+00  0.00000000000E+00  0.45593999997E+02  0.45594000000E+02  0.51100000000E-03 0. -1.
         11   -1    0    0    0    0 -0.00000000000E+00 -0.00000000000E+00 -0.45593999997E+02  0.45594000000E+02  0.51100000000E-03 0.  1.
    9900012    2    1    2    0    0  0.40700695334E+00  0.10781451218E+01 -0.25488898918E+00  0.90007737334E+02  0.89999998667E+02 0.  0.
         12    1    1    2    0    0 -0.40700695334E+00 -0.10781451218E+01  0.25488898918E+00  0.11802626659E+01  0.00000000000E+00 0. -1.
         11    1    3    3    0    0  0.28809542312E+02  0.10884524303E+02  0.22052305399E+02  0.37878315317E+02  0.51100000000E-03 0. -1.
        -11    1    3    3    0    0  0.46478796246E+01  0.76535371372E+01 -0.76412810611E+00  0.89868408097E+01  0.51100000000E-03 0.  1.
        -12    1    3    3    0    0 -0.33050414984E+02 -0.17459916319E+02 -0.21543066282E+02  0.43142581208E+02  0.00000000000E+00 0.  1.
</event>
<event>
 7    1  0.2285268E-015  0.9000773E+02  0.7816164E-02  0.1186339E+00
        -11   -1    0    0    0    0  0.00000000000E+00  0.00000000000E+00  0.45593999997E+02  0.45594000000E+02  0.51100000000E-03 0. -1.
         11   -1    0    0    0    0 -0.00000000000E+00 -0.00000000000E+00 -0.45593999997E+02  0.45594000000E+02  0.51100000000E-03 0.  1.
    9900012    2    1    2    0    0 -0.43922897781E+00 -0.95405875791E+00 -0.53840810593E+00  0.90007731600E+02  0.89999992857E+02 0.  0.
         12    1    1    2    0    0  0.43922897781E+00  0.95405875791E+00  0.53840810593E+00  0.11802684004E+01  0.00000000000E+00 0. -1.
         11    1    3    3    0    0  0.18821814402E+01 -0.58015043993E+01  0.69366778939E+01  0.92367505506E+01  0.51100000000E-03 0. -1.
        -11    1    3    3    0    0 -0.33174244396E+02 -0.18911185708E+02 -0.15149647113E+02  0.41081324760E+02  0.51100000000E-03 0.  1.
         12    1    3    3    0    0  0.30852833978E+02  0.23758631349E+02  0.76745611132E+01  0.39689656289E+02  0.00000000000E+00 0. -1.
</event>
<event>
 7    1  0.2285268E-015  0.9000768E+02  0.7816164E-02  0.1186339E+00
        -11   -1    0    0    0    0  0.00000000000E+00  0.00000000000E+00  0.45593999997E+02  0.45594000000E+02  0.51100000000E-03 0. -1.
         11   -1    0    0    0    0 -0.00000000000E+00 -0.00000000000E+00 -0.45593999997E+02  0.45594000000E+02  0.51100000000E-03 0.  1.
    9900012    2    1    2    0    0  0.87665246355E+00 -0.78479580537E+00 -0.93447683830E-01  0.90007679506E+02  0.89999940076E+02 0.  0.
         12    1    1    2    0    0 -0.87665246355E+00  0.78479580537E+00  0.93447683830E-01  0.11803204936E+01  0.00000000000E+00 0. -1.
         11    1    3    3    0    0 -0.37536676424E+01 -0.90145247518E+01  0.10902799416E+01  0.98254968263E+01  0.51100000000E-03 0. -1.
        -11    1    3    3    0    0 -0.32101424251E+02 -0.13922082739E+02  0.89294481356E+01  0.36111782994E+02  0.51100000000E-03 0.  1.
         12    1    3    3    0    0  0.36731744357E+02  0.22151811686E+02 -0.10113175761E+02  0.44070399686E+02  0.00000000000E+00 0. -1.
</event>
<event>
 7    1  0.2285268E-015  0.9000774E+02  0.7816164E-02  0.1186339E+00
        -11   -1    0    0    0    0  0.00000000000E+00  0.00000000000E+00  0.45593999997E+02  0.45594000000E+02  0.51100000000E-03 0. -1.
         11   -1    0    0    0    0 -0.00000000000E+00 -0.00000000000E+00 -0.45593999997E+02  0.45594000000E+02  0.51100000000E-03 0.  1.
    9900012    2    1    2    0    0  0.44315496646E+00  0.17736695847E+00 -0.10794285229E+01  0.90007741004E+02  0.90000002385E+02 0.  0.
         12    1    1    2    0    0 -0.44315496646E+00 -0.17736695847E+00  0.10794285229E+01  0.11802589963E+01  0.00000000000E+00 0. -1.
         11    1    3    3    0    0  0.20594935261E+02  0.29470833069E+02  0.14108431013E+02  0.38622910119E+02  0.51100000000E-03 0. -1.
        -11    1    3    3    0    0 -0.59793409345E+01  0.15228284530E+01  0.81428923764E+01  0.10216566009E+02  0.51100000000E-03 0.  1.
        -12    1    3    3    0    0 -0.14172439360E+02 -0.30816294563E+02 -0.23330751913E+02  0.41168264875E+02  0.00000000000E+00 0.  1.
</event>
<event>
 7    1  0.2285268E-015  0.9000779E+02  0.7816164E-02  0.1186339E+00
        -11   -1    0    0    0    0  0.00000000000E+00  0.00000000000E+00  0.45593999997E+02  0.45594000000E+02  0.51100000000E-03 0.  1.
         11   -1    0    0    0    0 -0.00000000000E+00 -0.00000000000E+00 -0.45593999997E+02  0.45594000000E+02  0.51100000000E-03 0. -1.
    9900012    2    1    2    0    0 -0.10096966434E+01  0.60927191974E+00  0.46777073154E-01  0.90007793375E+02  0.90000055447E+02 0.  0.
         12    1    1    2    0    0  0.10096966434E+01 -0.60927191974E+00 -0.46777073154E-01  0.11802066253E+01  0.00000000000E+00 0. -1.
         11    1    3    3    0    0  0.20587942535E+01  0.16131935543E+01 -0.40788328968E+01  0.48454004254E+01  0.51100000000E-03 0. -1.
        -11    1    3    3    0    0 -0.35146891287E+02 -0.82891531738E+01 -0.22753662688E+02  0.42681883668E+02  0.51100000000E-03 0.  1.
         12    1    3    3    0    0  0.32078400390E+02  0.72852315392E+01  0.26879272658E+02  0.42480509281E+02  0.00000000000E+00 0. -1.
</event>
<event>
 7    1  0.2285268E-015  0.9000762E+02  0.7816164E-02  0.1186339E+00
        -11   -1    0    0    0    0  0.00000000000E+00  0.00000000000E+00  0.45593999997E+02  0.45594000000E+02  0.51100000000E-03 0. -1.
         11   -1    0    0    0    0 -0.00000000000E+00 -0.00000000000E+00 -0.45593999997E+02  0.45594000000E+02  0.51100000000E-03 0.  1.
    9900012    2    1    2    0    0 -0.10561899671E+01 -0.37528533489E+00 -0.37003055581E+00  0.90007619154E+02  0.89999878927E+02 0.  0.
         12    1    1    2    0    0  0.10561899671E+01  0.37528533489E+00  0.37003055581E+00  0.11803808459E+01  0.00000000000E+00 0. -1.
         11    1    3    3    0    0  0.84496194257E+01 -0.30038059917E+01 -0.45489464863E+01  0.10055437995E+02  0.51100000000E-03 0. -1.
        -11    1    3    3    0    0  0.17266742954E+02 -0.22860195602E+02 -0.20743685477E+02  0.35369894580E+02  0.51100000000E-03 0.  1.
         12    1    3    3    0    0 -0.26772552347E+02  0.25488716259E+02  0.24922601407E+02  0.44582286579E+02  0.00000000000E+00 0. -1.
</event>
<event>
 7    1  0.2285268E-015  0.9000782E+02  0.7816164E-02  0.1186339E+00
        -11   -1    0    0    0    0  0.00000000000E+00  0.00000000000E+00  0.45593999997E+02  0.45594000000E+02  0.51100000000E-03 0. -1.
         11   -1    0    0    0    0 -0.00000000000E+00 -0.00000000000E+00 -0.45593999997E+02  0.45594000000E+02  0.51100000000E-03 0.  1.
    9900012    2    1    2    0    0  0.95019597933E+00 -0.13557030152E+00  0.68671905827E+00  0.90007815789E+02  0.90000078158E+02 0.  0.
         12    1    1    2    0    0 -0.95019597933E+00  0.13557030152E+00 -0.68671905827E+00  0.11801842105E+01  0.00000000000E+00 0. -1.
         11    1    3    3    0    0  0.68390036383E+01 -0.11310697579E+02  0.32902863362E+01  0.13620933702E+02  0.51100000000E-03 0. -1.
        -11    1    3    3    0    0  0.32789823168E+02  0.15580683383E+01 -0.12821098306E+02  0.35241745734E+02  0.51100000000E-03 0.  1.
         12    1    3    3    0    0 -0.38678630827E+02  0.96170589391E+01  0.10217531028E+02  0.41145136354E+02  0.00000000000E+00 0. -1.
</event>
<event>
 7    1  0.2285268E-015  0.9000750E+02  0.7816164E-02  0.1186340E+00
        -11   -1    0    0    0    0  0.00000000000E+00  0.00000000000E+00  0.45593999997E+02  0.45594000000E+02  0.51100000000E-03 0.  1.
         11   -1    0    0    0    0 -0.00000000000E+00 -0.00000000000E+00 -0.45593999997E+02  0.45594000000E+02  0.51100000000E-03 0. -1.
    9900012    2    1    2    0    0 -0.10376375247E+00 -0.57752778000E+00  0.10243448283E+01  0.90007496895E+02  0.89999755054E+02 0.  0.
         12    1    1    2    0    0  0.10376375247E+00  0.57752778000E+00 -0.10243448283E+01  0.11805031047E+01  0.00000000000E+00 0. -1.
         11    1    3    3    0    0  0.36898302020E+02  0.10871675106E+01 -0.88967670657E+01  0.37971292968E+02  0.51100000000E-03 0. -1.
        -11    1    3    3    0    0  0.19187812007E+01 -0.95132481723E+01 -0.32019193101E+01  0.10219388417E+02  0.51100000000E-03 0.  1.
        -12    1    3    3    0    0 -0.38920846973E+02  0.78485528818E+01  0.13123031204E+02  0.41816815511E+02  0.00000000000E+00 0.  1.
</event>
<event>
 7    1  0.2285268E-015  0.9000776E+02  0.7816164E-02  0.1186339E+00
        -11   -1    0    0    0    0  0.00000000000E+00  0.00000000000E+00  0.45593999997E+02  0.45594000000E+02  0.51100000000E-03 0.  1.
         11   -1    0    0    0    0 -0.00000000000E+00 -0.00000000000E+00 -0.45593999997E+02  0.45594000000E+02  0.51100000000E-03 0. -1.
    9900012    2    1    2    0    0  0.99745749733E+00  0.49788724966E+00 -0.38749944378E+00  0.90007758927E+02  0.90000020544E+02 0.  0.
         12    1    1    2    0    0 -0.99745749733E+00 -0.49788724966E+00  0.38749944378E+00  0.11802410734E+01  0.00000000000E+00 0. -1.
         11    1    3    3    0    0  0.14416875231E+02  0.31587752355E+02 -0.42969252913E+01  0.34987082723E+02  0.51100000000E-03 0. -1.
        -11    1    3    3    0    0  0.50226980788E+01  0.88656023047E+01  0.41800256137E+01  0.11013583187E+02  0.51100000000E-03 0.  1.
        -12    1    3    3    0    0 -0.18442115813E+02 -0.39955467410E+02 -0.27059976618E+00  0.44007093017E+02  0.00000000000E+00 0.  1.
</event>
<event>
 7    1  0.2285268E-015  0.9000773E+02  0.7816164E-02  0.1186339E+00
        -11   -1    0    0    0    0  0.00000000000E+00  0.00000000000E+00  0.45593999997E+02  0.45594000000E+02  0.51100000000E-03 0. -1.
         11   -1    0    0    0    0 -0.00000000000E+00 -0.00000000000E+00 -0.45593999997E+02  0.45594000000E+02  0.51100000000E-03 0.  1.
    9900012    2    1    2    0    0  0.24899152557E+00 -0.42993912274E+00 -0.10706081428E+01  0.90007726208E+02  0.89999987394E+02 0.  0.
         12    1    1    2    0    0 -0.24899152557E+00  0.42993912274E+00  0.10706081428E+01  0.11802737921E+01  0.00000000000E+00 0. -1.
         11    1    3    3    0    0 -0.12133966973E+02  0.19742619403E+02 -0.68844747926E+01  0.24174370081E+02  0.51100000000E-03 0. -1.
        -11    1    3    3    0    0 -0.22864937384E+02 -0.12944942274E+02 -0.77283239610E+01  0.27388024455E+02  0.51100000000E-03 0.  1.
         12    1    3    3    0    0  0.35247895882E+02 -0.72276162515E+01  0.13542190611E+02  0.38445331672E+02  0.00000000000E+00 0. -1.
</event>
<event>
 7    1  0.2285268E-015  0.9000772E+02  0.7816164E-02  0.1186339E+00
        -11   -1    0    0    0    0  0.00000000000E+00  0.00000000000E+00  0.45593999997E+02  0.45594000000E+02  0.51100000000E-03 0.  1.
         11   -1    0    0    0    0 -0.00000000000E+00 -0.00000000000E+00 -0.45593999997E+02  0.45594000000E+02  0.51100000000E-03 0. -1.
    9900012    2    1    2    0    0  0.55882849600E+00 -0.27453161706E+00  0.10026924998E+01  0.90007724970E+02  0.89999986140E+02 0.  0.
         12    1    1    2    0    0 -0.55882849600E+00  0.27453161706E+00 -0.10026924998E+01  0.11802750298E+01  0.00000000000E+00 0. -1.
         11    1    3    3    0    0  0.18584274275E+02  0.18014546209E+01 -0.26091951792E+02  0.32084426716E+02  0.51100000000E-03 0. -1.
        -11    1    3    3    0    0  0.54912753188E+01  0.61013479482E+01 -0.10192945001E+02  0.13087271659E+02  0.51100000000E-03 0.  1.
        -12    1    3    3    0    0 -0.23516721098E+02 -0.81773341862E+01  0.37287589293E+02  0.44836026596E+02  0.00000000000E+00 0.  1.
</event>
<event>
 7    1  0.2285268E-015  0.9000773E+02  0.7816164E-02  0.1186339E+00
        -11   -1    0    0    0    0  0.00000000000E+00  0.00000000000E+00  0.45593999997E+02  0.45594000000E+02  0.51100000000E-03 0. -1.
         11   -1    0    0    0    0 -0.00000000000E+00 -0.00000000000E+00 -0.45593999997E+02  0.45594000000E+02  0.51100000000E-03 0.  1.
    9900012    2    1    2    0    0  0.39042758299E+00  0.10933364491E+01 -0.21262849395E+00  0.90007733435E+02  0.89999994716E+02 0.  0.
         12    1    1    2    0    0 -0.39042758299E+00 -0.10933364491E+01  0.21262849395E+00  0.11802665652E+01  0.00000000000E+00 0. -1.
         11    1    3    3    0    0  0.56142744803E+00  0.14111311221E+02  0.35502140907E+02  0.38207935228E+02  0.51100000000E-03 0. -1.
        -11    1    3    3    0    0 -0.56320863022E+01 -0.42969280611E+01  0.57208729422E+01  0.91056232275E+01  0.51100000000E-03 0.  1.
        -12    1    3    3    0    0  0.54610864372E+01 -0.87210467104E+01 -0.41435642343E+02  0.42694174980E+02  0.00000000000E+00 0.  1.
</event>
<event>
 7    1  0.2285268E-015  0.9000774E+02  0.7816164E-02  0.1186339E+00
        -11   -1    0    0    0    0  0.00000000000E+00  0.00000000000E+00  0.45593999997E+02  0.45594000000E+02  0.51100000000E-03 0. -1.
         11   -1    0    0    0    0 -0.00000000000E+00 -0.00000000000E+00 -0.45593999997E+02  0.45594000000E+02  0.51100000000E-03 0.  1.
    9900012    2    1    2    0    0 -0.99328377405E+00  0.54868595072E+00 -0.32456660204E+00  0.90007740534E+02  0.90000001909E+02 0.  0.
         12    1    1    2    0    0  0.99328377405E+00 -0.54868595072E+00  0.32456660204E+00  0.11802594662E+01  0.00000000000E+00 0. -1.
         11    1    3    3    0    0 -0.11942407638E+01 -0.83625662926E+01 -0.50468457459E+01  0.98401919821E+01  0.51100000000E-03 0. -1.
        -11    1    3    3    0    0  0.76700167466E+01 -0.29396439899E+02 -0.17695541548E+02  0.35158384868E+02  0.51100000000E-03 0.  1.
         12    1    3    3    0    0 -0.74690597569E+01  0.38307692142E+02  0.22417820692E+02  0.45009163683E+02  0.00000000000E+00 0. -1.
</event>
<event>
 7    1  0.2285268E-015  0.9000777E+02  0.7816164E-02  0.1186339E+00
        -11   -1    0    0    0    0  0.00000000000E+00  0.00000000000E+00  0.45593999997E+02  0.45594000000E+02  0.51100000000E-03 0. -1.
         11   -1    0    0    0    0 -0.00000000000E+00 -0.00000000000E+00 -0.45593999997E+02  0.45594000000E+02  0.51100000000E-03 0.  1.
    9900012    2    1    2    0    0 -0.15134612500E+00 -0.52736395331E+00 -0.10449473763E+01  0.90007774001E+02  0.90000035818E+02 0.  0.
         12    1    1    2    0    0  0.15134612500E+00  0.52736395331E+00  0.10449473763E+01  0.11802259987E+01  0.00000000000E+00 0. -1.
         11    1    3    3    0    0  0.14057658228E+01  0.59930481429E+00 -0.68145377607E+01  0.69837861481E+01  0.51100000000E-03 0. -1.
        -11    1    3    3    0    0 -0.14828254763E+02 -0.35494098661E+02  0.20211585176E+02  0.43453611526E+02  0.51100000000E-03 0.  1.
         12    1    3    3    0    0  0.13271142815E+02  0.34367429894E+02 -0.14441994791E+02  0.39570376327E+02  0.00000000000E+00 0. -1.
</event>
<event>
 7    1  0.2285268E-015  0.9000726E+02  0.7816164E-02  0.1186340E+00
        -11   -1    0    0    0    0  0.00000000000E+00  0.00000000000E+00  0.45593999997E+02  0.45594000000E+02  0.51100000000E-03 0.  1.
         11   -1    0    0    0    0 -0.00000000000E+00 -0.00000000000E+00 -0.45593999997E+02  0.45594000000E+02  0.51100000000E-03 0. -1.
    9900012    2    1    2    0    0  0.26906224670E+00  0.89416251119E+00 -0.72265156881E+00  0.90007260241E+02  0.89999515275E+02 0.  0.
         12    1    1    2    0    0 -0.26906224670E+00 -0.89416251119E+00  0.72265156881E+00  0.11807397592E+01  0.00000000000E+00 0. -1.
         11    1    3    3    0    0 -0.10495433127E+02 -0.18351893102E+02 -0.30164640137E+02  0.36835466766E+02  0.51100000000E-03 0. -1.
        -11    1    3    3    0    0  0.25916097113E+01 -0.10776338836E+02  0.11953885427E+01  0.11147864084E+02  0.51100000000E-03 0.  1.
        -12    1    3    3    0    0  0.81728856626E+01  0.30022394449E+02  0.28246600026E+02  0.42023929392E+02  0.00000000000E+00 0.  1.
</event>
<event>
 7    1  0.2285268E-015  0.9000775E+02  0.7816164E-02  0.1186339E+00
        -11   -1    0    0    0    0  0.00000000000E+00  0.00000000000E+00  0.45593999997E+02  0.45594000000E+02  0.51100000000E-03 0.  1.
         11   -1    0    0    0    0 -0.00000000000E+00 -0.00000000000E+00 -0.45593999997E+02  0.45594000000E+02  0.51100000000E-03 0. -1.
    9900012    2    1    2    0    0 -0.77578608788E-01  0.58597941226E+00  0.10215706028E+01  0.90007747142E+02  0.90000008604E+02 0.  0.
         12    1    1    2    0    0  0.77578608788E-01 -0.58597941226E+00 -0.10215706028E+01  0.11802528579E+01  0.00000000000E+00 0. -1.
         11    1    3    3    0    0 -0.32117549369E+02 -0.13175635796E+02  0.14889024028E+02  0.37773236463E+02  0.51100000000E-03 0. -1.
        -11    1    3    3    0    0 -0.63948277758E+01  0.80859638155E+00  0.43458958246E+01  0.77739604559E+01  0.51100000000E-03 0.  1.
        -12    1    3    3    0    0  0.38434798536E+02  0.12953018827E+02 -0.18213349250E+02  0.44460550223E+02  0.00000000000E+00 0.  1.
</event>
<event>
 7    1  0.2285268E-015  0.9000773E+02  0.7816164E-02  0.1186339E+00
        -11   -1    0    0    0    0  0.00000000000E+00  0.00000000000E+00  0.45593999997E+02  0.45594000000E+02  0.51100000000E-03 0.  1.
         11   -1    0    0    0    0 -0.00000000000E+00 -0.00000000000E+00 -0.45593999997E+02  0.45594000000E+02  0.51100000000E-03 0. -1.
    9900012    2    1    2    0    0  0.86658714281E-01  0.95441574332E-01  0.11732079620E+01  0.90007730646E+02  0.89999991890E+02 0.  0.
         12    1    1    2    0    0 -0.86658714281E-01 -0.95441574332E-01 -0.11732079620E+01  0.11802693544E+01  0.00000000000E+00 0. -1.
         11    1    3    3    0    0  0.29295351532E+01 -0.93002806339E+01  0.34044386759E+01  0.10328000728E+02  0.51100000000E-03 0. -1.
        -11    1    3    3    0    0 -0.13165366195E+02  0.11001653183E+02  0.36089716766E+02  0.39960366569E+02  0.51100000000E-03 0.  1.
         12    1    3    3    0    0  0.10322489756E+02 -0.16059309750E+01 -0.38320947480E+02  0.39719363348E+02  0.00000000000E+00 0. -1.
</event>
<event>
 7    1  0.2285268E-015  0.9000788E+02  0.7816164E-02  0.1186339E+00
        -11   -1    0    0    0    0  0.00000000000E+00  0.00000000000E+00  0.45593999997E+02  0.45594000000E+02  0.51100000000E-03 0. -1.
         11   -1    0    0    0    0 -0.00000000000E+00 -0.00000000000E+00 -0.45593999997E+02  0.45594000000E+02  0.51100000000E-03 0.  1.
    9900012    2    1    2    0    0  0.17672365033E+00  0.39612962149E+00 -0.10975171983E+01  0.90007875462E+02  0.90000138618E+02 0.  0.
         12    1    1    2    0    0 -0.17672365033E+00 -0.39612962149E+00  0.10975171983E+01  0.11801245384E+01  0.00000000000E+00 0. -1.
         11    1    3    3    0    0  0.17955425517E+02  0.26802695217E+01  0.30145056889E+02  0.35189566711E+02  0.51100000000E-03 0. -1.
        -11    1    3    3    0    0  0.50774552243E+01 -0.88765333224E+01  0.50652467555E+01  0.11411841233E+02  0.51100000000E-03 0.  1.
        -12    1    3    3    0    0 -0.22856157091E+02  0.65923934222E+01 -0.36307820843E+02  0.43406467517E+02  0.00000000000E+00 0.  1.
</event>
<event>
 7    1  0.2285268E-015  0.9000793E+02  0.7816164E-02  0.1186339E+00
        -11   -1    0    0    0    0  0.00000000000E+00  0.00000000000E+00  0.45593999997E+02  0.45594000000E+02  0.51100000000E-03 0. -1.
         11   -1    0    0    0    0 -0.00000000000E+00 -0.00000000000E+00 -0.45593999997E+02  0.45594000000E+02  0.51100000000E-03 0.  1.
    9900012    2    1    2    0    0  0.57943582536E+00 -0.10229099079E+01 -0.10229377199E+00  0.90007934506E+02  0.90000198441E+02 0.  0.
         12    1    1    2    0    0 -0.57943582536E+00  0.10229099079E+01  0.10229377199E+00  0.11800654944E+01  0.00000000000E+00 0. -1.
         11    1    3    3    0    0 -0.24873898831E+02  0.44147869464E-01  0.27707335511E+02  0.37234516694E+02  0.51100000000E-03 0. -1.
        -11    1    3    3    0    0 -0.41927256488E+01 -0.39432608770E+01  0.55889126817E+01  0.80227302046E+01  0.51100000000E-03 0.  1.
        -12    1    3    3    0    0  0.29646060305E+02  0.28762030996E+01 -0.33398541965E+02  0.44750687607E+02  0.00000000000E+00 0.  1.
</event>
<event>
 7    1  0.2285268E-015  0.9000776E+02  0.7816164E-02  0.1186339E+00
        -11   -1    0    0    0    0  0.00000000000E+00  0.00000000000E+00  0.45593999997E+02  0.45594000000E+02  0.51100000000E-03 0.  1.
         11   -1    0    0    0    0 -0.00000000000E+00 -0.00000000000E+00 -0.45593999997E+02  0.45594000000E+02  0.51100000000E-03 0. -1.
    9900012    2    1    2    0    0 -0.63875369800E+00  0.92544349015E+00 -0.35848128811E+00  0.90007762408E+02  0.90000024072E+02 0.  0.
         12    1    1    2    0    0  0.63875369800E+00 -0.92544349015E+00  0.35848128811E+00  0.11802375922E+01  0.00000000000E+00 0. -1.
         11    1    3    3    0    0 -0.42915082946E+01 -0.26758703206E+01  0.67655589728E+01  0.84468996615E+01  0.51100000000E-03 0. -1.
        -11    1    3    3    0    0  0.29926045529E+02 -0.27370097465E+02 -0.17485583102E+01  0.40592461032E+02  0.51100000000E-03 0.  1.
         12    1    3    3    0    0 -0.26273290932E+02  0.30971411275E+02 -0.53754819507E+01  0.40968401714E+02  0.00000000000E+00 0. -1.
</event>
<event>
 7    1  0.2285268E-015  0.9000766E+02  0.7816164E-02  0.1186339E+00
        -11   -1    0    0    0    0  0.00000000000E+00  0.00000000000E+00  0.45593999997E+02  0.45594000000E+02  0.51100000000E-03 0.  1.
         11   -1    0    0    0    0 -0.00000000000E+00 -0.00000000000E+00 -0.45593999997E+02  0.45594000000E+02  0.51100000000E-03 0. -1.
    9900012    2    1    2    0    0  0.10414160616E+01 -0.52981628608E+00  0.16716550056E+00  0.90007662330E+02  0.89999922673E+02 0.  0.
         12    1    1    2    0    0 -0.10414160616E+01  0.52981628608E+00 -0.16716550056E+00  0.11803376699E+01  0.00000000000E+00 0. -1.
         11    1    3    3    0    0 -0.11361231226E+02  0.35836571724E+02 -0.12177104479E+02  0.39517329384E+02  0.51100000000E-03 0. -1.
        -11    1    3    3    0    0 -0.54809192015E+01 -0.21502891595E+01  0.10256336804E+02  0.11826100949E+02  0.51100000000E-03 0.  1.
        -12    1    3    3    0    0  0.17883566489E+02 -0.34216098851E+02  0.20879331751E+01  0.38664231996E+02  0.00000000000E+00 0.  1.
</event>
<event>
 7    1  0.2285268E-015  0.9000774E+02  0.7816164E-02  0.1186339E+00
        -11   -1    0    0    0    0  0.00000000000E+00  0.00000000000E+00  0.45593999997E+02  0.45594000000E+02  0.51100000000E-03 0.  1.
         11   -1    0    0    0    0 -0.00000000000E+00 -0.00000000000E+00 -0.45593999997E+02  0.45594000000E+02  0.51100000000E-03 0. -1.
    9900012    2    1    2    0    0  0.55413952821E+00 -0.66040023150E+00 -0.80611762590E+00  0.90007735322E+02  0.89999996629E+02 0.  0.
         12    1    1    2    0    0 -0.55413952821E+00  0.66040023150E+00  0.80611762590E+00  0.11802646776E+01  0.00000000000E+00 0. -1.
         11    1    3    3    0    0 -0.33275754303E+02 -0.48667437819E+01 -0.15393389818E+02  0.36985368321E+02  0.51100000000E-03 0. -1.
        -11    1    3    3    0    0 -0.32884136177E+01 -0.90173302476E+01 -0.27337156906E+01  0.99799354033E+01  0.51100000000E-03 0.  1.
        -12    1    3    3    0    0  0.37118307449E+02  0.13223673798E+02  0.17320987883E+02  0.43042431598E+02  0.00000000000E+00 0.  1.
</event>
<event>
 7    1  0.2285268E-015  0.9000775E+02  0.7816164E-02  0.1186339E+00
        -11   -1    0    0    0    0  0.00000000000E+00  0.00000000000E+00  0.45593999997E+02  0.45594000000E+02  0.51100000000E-03 0.  1.
         11   -1    0    0    0    0 -0.00000000000E+00 -0.00000000000E+00 -0.45593999997E+02  0.45594000000E+02  0.51100000000E-03 0. -1.
    9900012    2    1    2    0    0  0.10034709148E+01 -0.43009194635E+00  0.44839543145E+00  0.90007749424E+02  0.90000010916E+02 0.  0.
         12    1    1    2    0    0 -0.10034709148E+01  0.43009194635E+00 -0.44839543145E+00  0.11802505760E+01  0.00000000000E+00 0. -1.
         11    1    3    3    0    0 -0.17942050523E+02 -0.33347296580E+02 -0.12602167562E+02  0.39909572708E+02  0.51100000000E-03 0. -1.
        -11    1    3    3    0    0  0.28049260040E+01 -0.38646072692E+01  0.84000055587E+01  0.96624475616E+01  0.51100000000E-03 0.  1.
        -12    1    3    3    0    0  0.16140595434E+02  0.36781811903E+02  0.46505574348E+01  0.40435729155E+02  0.00000000000E+00 0.  1.
</event>
<event>
 7    1  0.2285268E-015  0.9000776E+02  0.7816164E-02  0.1186339E+00
        -11   -1    0    0    0    0  0.00000000000E+00  0.00000000000E+00  0.45593999997E+02  0.45594000000E+02  0.51100000000E-03 0.  1.
         11   -1    0    0    0    0 -0.00000000000E+00 -0.00000000000E+00 -0.45593999997E+02  0.45594000000E+02  0.51100000000E-03 0. -1.
    9900012    2    1    2    0    0 -0.76525218250E+00  0.77829997136E-01  0.89514802281E+00  0.90007763416E+02  0.90000025093E+02 0.  0.
         12    1    1    2    0    0  0.76525218250E+00 -0.77829997136E-01 -0.89514802281E+00  0.11802365839E+01  0.00000000000E+00 0. -1.
         11    1    3    3    0    0  0.43800818526E+01  0.77651421160E+01 -0.67724428904E+00  0.89409848006E+01  0.51100000000E-03 0. -1.
        -11    1    3    3    0    0  0.20701886836E+02  0.29308209069E+02 -0.55080529061E+00  0.35886524269E+02  0.51100000000E-03 0.  1.
         12    1    3    3    0    0 -0.25847220871E+02 -0.36995521188E+02  0.21231976025E+01  0.45180254346E+02  0.00000000000E+00 0. -1.
</event>
<event>
 7    1  0.2285268E-015  0.9000833E+02  0.7816164E-02  0.1186338E+00
        -11   -1    0    0    0    0  0.00000000000E+00  0.00000000000E+00  0.45593999997E+02  0.45594000000E+02  0.51100000000E-03 0. -1.
         11   -1    0    0    0    0 -0.00000000000E+00 -0.00000000000E+00 -0.45593999997E+02  0.45594000000E+02  0.51100000000E-03 0.  1.
    9900012    2    1    2    0    0  0.63760372587E+00  0.82177504158E+00 -0.55657062794E+00  0.90008329031E+02  0.90000598173E+02 0.  0.
         12    1    1    2    0    0 -0.63760372587E+00 -0.82177504158E+00  0.55657062794E+00  0.11796709686E+01  0.00000000000E+00 0. -1.
         11    1    3    3    0    0 -0.28696074801E+02 -0.13433111329E+02 -0.20668139602E+02  0.37829686542E+02  0.51100000000E-03 0. -1.
        -11    1    3    3    0    0  0.79026506875E+01  0.69998457238E+01 -0.99815778428E+01  0.14528648407E+02  0.51100000000E-03 0.  1.
        -12    1    3    3    0    0  0.21431027840E+02  0.72550406472E+01  0.30093146817E+02  0.37649994082E+02  0.00000000000E+00 0.  1.
</event>
<event>
 7    1  0.2285268E-015  0.9000775E+02  0.7816164E-02  0.1186339E+00
        -11   -1    0    0    0    0  0.00000000000E+00  0.00000000000E+00  0.45593999997E+02  0.45594000000E+02  0.51100000000E-03 0.  1.
         11   -1    0    0    0    0 -0.00000000000E+00 -0.00000000000E+00 -0.45593999997E+02  0.45594000000E+02  0.51100000000E-03 0. -1.
    9900012    2    1    2    0    0  0.66863961982E+00 -0.55548559974E+00  0.79833278979E+00  0.90007754925E+02  0.90000016490E+02 0.  0.
         12    1    1    2    0    0 -0.66863961982E+00  0.55548559974E+00 -0.79833278979E+00  0.11802450745E+01  0.00000000000E+00 0. -1.
         11    1    3    3    0    0 -0.12396461085E+02  0.34483517849E+02  0.19845322258E+02  0.41672797680E+02  0.51100000000E-03 0. -1.
        -11    1    3    3    0    0 -0.75463410874E+00 -0.89243039968E-01 -0.95374512082E+01  0.95676754109E+01  0.51100000000E-03 0.  1.
        -12    1    3    3    0    0  0.13819734814E+02 -0.34949760409E+02 -0.95095382598E+01  0.38767281835E+02  0.00000000000E+00 0.  1.
</event>
<event>
 7    1  0.2285268E-015  0.9000764E+02  0.7816164E-02  0.1186339E+00
        -11   -1    0    0    0    0  0.00000000000E+00  0.00000000000E+00  0.45593999997E+02  0.45594000000E+02  0.51100000000E-03 0. -1.
         11   -1    0    0    0    0 -0.00000000000E+00 -0.00000000000E+00 -0.45593999997E+02  0.45594000000E+02  0.51100000000E-03 0.  1.
    9900012    2    1    2    0    0 -0.63581754837E+00  0.47604982647E+00 -0.87313174252E+00  0.90007641397E+02  0.89999901463E+02 0.  0.
         12    1    1    2    0    0  0.63581754837E+00 -0.47604982647E+00  0.87313174252E+00  0.11803586031E+01  0.00000000000E+00 0. -1.
         11    1    3    3    0    0 -0.30129875269E+02  0.21740860707E+02  0.17294013175E+02  0.40982402321E+02  0.51100000000E-03 0. -1.
        -11    1    3    3    0    0 -0.29155679780E+01 -0.95364912136E+01  0.19195580020E+00  0.99740688082E+01  0.51100000000E-03 0.  1.
        -12    1    3    3    0    0  0.32409625699E+02 -0.11728319667E+02 -0.18359100718E+02  0.39051170268E+02  0.00000000000E+00 0.  1.
</event>
<event>
 7    1  0.2285268E-015  0.9000768E+02  0.7816164E-02  0.1186339E+00
        -11   -1    0    0    0    0  0.00000000000E+00  0.00000000000E+00  0.45593999997E+02  0.45594000000E+02  0.51100000000E-03 0.  1.
         11   -1    0    0    0    0 -0.00000000000E+00 -0.00000000000E+00 -0.45593999997E+02  0.45594000000E+02  0.51100000000E-03 0. -1.
    9900012    2    1    2    0    0 -0.86081026518E+00  0.49083428574E-01  0.80607235064E+00  0.90007679649E+02  0.89999940221E+02 0.  0.
         12    1    1    2    0    0  0.86081026518E+00 -0.49083428574E-01 -0.80607235064E+00  0.11803203506E+01  0.00000000000E+00 0. -1.
         11    1    3    3    0    0 -0.91441055929E+01 -0.29558337043E+02 -0.28983269223E+02  0.42395045123E+02  0.51100000000E-03 0. -1.
        -11    1    3    3    0    0 -0.68253334046E+01  0.58605378269E+01  0.71151007134E+01  0.11469774982E+02  0.51100000000E-03 0.  1.
        -12    1    3    3    0    0  0.15108628732E+02  0.23746882645E+02  0.22674240860E+02  0.36142859545E+02  0.00000000000E+00 0.  1.
</event>
<event>
 7    1  0.2285268E-015  0.9000769E+02  0.7816164E-02  0.1186339E+00
        -11   -1    0    0    0    0  0.00000000000E+00  0.00000000000E+00  0.45593999997E+02  0.45594000000E+02  0.51100000000E-03 0.  1.
         11   -1    0    0    0    0 -0.00000000000E+00 -0.00000000000E+00 -0.45593999997E+02  0.45594000000E+02  0.51100000000E-03 0. -1.
    9900012    2    1    2    0    0 -0.20019819504E+00 -0.24299892770E+00  0.11375477472E+01  0.90007685350E+02  0.89999945996E+02 0.  0.
         12    1    1    2    0    0  0.20019819504E+00  0.24299892770E+00 -0.11375477472E+01  0.11803146502E+01  0.00000000000E+00 0. -1.
         11    1    3    3    0    0 -0.37931329539E+02  0.97917415410E+01  0.46860903848E+00  0.39177589993E+02  0.51100000000E-03 0. -1.
        -11    1    3    3    0    0  0.89034932776E+00  0.88889442499E+01  0.27902421948E+01  0.93590332604E+01  0.51100000000E-03 0.  1.
        -12    1    3    3    0    0  0.36840782016E+02 -0.18923684719E+02 -0.21213034860E+01  0.41471062096E+02  0.00000000000E+00 0.  1.
</event>
<event>
 7    1  0.2285268E-015  0.9000779E+02  0.7816164E-02  0.1186339E+00
        -11   -1    0    0    0    0  0.00000000000E+00  0.00000000000E+00  0.45593999997E+02  0.45594000000E+02  0.51100000000E-03 0. -1.
         11   -1    0    0    0    0 -0.00000000000E+00 -0.00000000000E+00 -0.45593999997E+02  0.45594000000E+02  0.51100000000E-03 0.  1.
    9900012    2    1    2    0    0 -0.62380261702E+00 -0.11518368980E+00 -0.99523711115E+00  0.90007790741E+02  0.90000052779E+02 0.  0.
         12    1    1    2    0    0  0.62380261702E+00  0.11518368980E+00  0.99523711115E+00  0.11802092589E+01  0.00000000000E+00 0. -1.
         11    1    3    3    0    0  0.56052489396E+01 -0.27546009453E+02  0.27256784997E+02  0.39155252280E+02  0.51100000000E-03 0. -1.
        -11    1    3    3    0    0 -0.65249179269E+01 -0.56403397657E+01 -0.26321902341E+01  0.90175613286E+01  0.51100000000E-03 0.  1.
        -12    1    3    3    0    0  0.29586637030E+00  0.33071165529E+02 -0.25619831875E+02  0.41834977132E+02  0.00000000000E+00 0.  1.
</event>
<event>
 7    1  0.2285268E-015  0.9000771E+02  0.7816164E-02  0.1186339E+00
        -11   -1    0    0    0    0  0.00000000000E+00  0.00000000000E+00  0.45593999997E+02  0.45594000000E+02  0.51100000000E-03 0. -1.
         11   -1    0    0    0    0 -0.00000000000E+00 -0.00000000000E+00 -0.45593999997E+02  0.45594000000E+02  0.51100000000E-03 0.  1.
    9900012    2    1    2    0    0  0.37114329132E+00 -0.93324262906E+00 -0.62000377478E+00  0.90007706042E+02  0.89999966961E+02 0.  0.
         12    1    1    2    0    0 -0.37114329132E+00  0.93324262906E+00  0.62000377478E+00  0.11802939584E+01  0.00000000000E+00 0. -1.
         11    1    3    3    0    0  0.94706773157E+01  0.18208473102E+02  0.35040333712E+02  0.40608708529E+02  0.51100000000E-03 0. -1.
        -11    1    3    3    0    0 -0.10082317152E+02  0.40733419964E+01 -0.98730871475E+01  0.14687514571E+02  0.51100000000E-03 0.  1.
        -12    1    3    3    0    0  0.98278312800E+00 -0.23215057728E+02 -0.25787250339E+02  0.34711482942E+02  0.00000000000E+00 0.  1.
</event>
<event>
 7    1  0.2285268E-015  0.9000791E+02  0.7816164E-02  0.1186339E+00
        -11   -1    0    0    0    0  0.00000000000E+00  0.00000000000E+00  0.45593999997E+02  0.45594000000E+02  0.51100000000E-03 0. -1.
         11   -1    0    0    0    0 -0.00000000000E+00 -0.00000000000E+00 -0.45593999997E+02  0.45594000000E+02  0.51100000000E-03 0.  1.
    9900012    2    1    2    0    0 -0.44226663303E+00  0.62178525745E+00 -0.90021978901E+00  0.90007910025E+02  0.90000173637E+02 0.  0.
         12    1    1    2    0    0  0.44226663303E+00 -0.62178525745E+00  0.90021978901E+00  0.11800899752E+01  0.00000000000E+00 0. -1.
         11    1    3    3    0    0  0.23098232422E+02 -0.25561906692E+02 -0.52228640640E+01  0.34845627043E+02  0.51100000000E-03 0. -1.
        -11    1    3    3    0    0  0.10799772581E+02 -0.84193599327E+00  0.37367619608E+01  0.11458941235E+02  0.51100000000E-03 0.  1.
        -12    1    3    3    0    0 -0.34340271636E+02  0.27025627942E+02  0.58588231418E+00  0.43703341746E+02  0.00000000000E+00 0.  1.
</event>
<event>
 7    1  0.2285268E-015  0.9000854E+02  0.7816164E-02  0.1186337E+00
        -11   -1    0    0    0    0  0.00000000000E+00  0.00000000000E+00  0.45593999997E+02  0.45594000000E+02  0.51100000000E-03 0. -1.
         11   -1    0    0    0    0 -0.00000000000E+00 -0.00000000000E+00 -0.45593999997E+02  0.45594000000E+02  0.51100000000E-03 0.  1.
    9900012    2    1    2    0    0 -0.36690460858E+00  0.10770787315E+01 -0.31048990440E+00  0.90008541834E+02  0.90000813782E+02 0.  0.
         12    1    1    2    0    0  0.36690460858E+00 -0.10770787315E+01  0.31048990440E+00  0.11794581664E+01  0.00000000000E+00 0. -1.
         11    1    3    3    0    0  0.30703285348E+02 -0.18356632340E+02  0.22796480068E+02  0.42418594811E+02  0.51100000000E-03 0. -1.
        -11    1    3    3    0    0  0.10766979918E+01  0.61164237609E+01 -0.66476859222E+01  0.90973428301E+01  0.51100000000E-03 0.  1.
        -12    1    3    3    0    0 -0.32146887948E+02  0.13317287311E+02 -0.16459284050E+02  0.38492604192E+02  0.00000000000E+00 0.  1.
</event>
<event>
 7    1  0.2285268E-015  0.9000782E+02  0.7816164E-02  0.1186339E+00
        -11   -1    0    0    0    0  0.00000000000E+00  0.00000000000E+00  0.45593999997E+02  0.45594000000E+02  0.51100000000E-03 0. -1.
         11   -1    0    0    0    0 -0.00000000000E+00 -0.00000000000E+00 -0.45593999997E+02  0.45594000000E+02  0.51100000000E-03 0.  1.
    9900012    2    1    2    0    0 -0.54883118247E+00  0.57584526001E+00 -0.87179178337E+00  0.90007815970E+02  0.90000078341E+02 0.  0.
         12    1    1    2    0    0  0.54883118247E+00 -0.57584526001E+00  0.87179178337E+00  0.11801840297E+01  0.00000000000E+00 0. -1.
         11    1    3    3    0    0 -0.86610021020E+01 -0.36267999369E+02  0.57055845086E+01  0.37721803118E+02  0.51100000000E-03 0. -1.
        -11    1    3    3    0    0 -0.82324704715E+01 -0.27920709296E+01 -0.32598168575E+01  0.92841605084E+01  0.51100000000E-03 0.  1.
        -12    1    3    3    0    0  0.16344641391E+02  0.39635915559E+02 -0.33175594345E+01  0.43001852344E+02  0.00000000000E+00 0.  1.
</event>
<event>
 7    1  0.2285268E-015  0.9000777E+02  0.7816164E-02  0.1186339E+00
        -11   -1    0    0    0    0  0.00000000000E+00  0.00000000000E+00  0.45593999997E+02  0.45594000000E+02  0.51100000000E-03 0. -1.
         11   -1    0    0    0    0 -0.00000000000E+00 -0.00000000000E+00 -0.45593999997E+02  0.45594000000E+02  0.51100000000E-03 0.  1.
    9900012    2    1    2    0    0 -0.82658852655E+00 -0.45057498000E+00 -0.71180522069E+00  0.90007774142E+02  0.90000035960E+02 0.  0.
         12    1    1    2    0    0  0.82658852655E+00  0.45057498000E+00  0.71180522069E+00  0.11802258585E+01  0.00000000000E+00 0. -1.
         11    1    3    3    0    0  0.11819086803E+01  0.67077080932E+01  0.91091877373E+01  0.11373985998E+02  0.51100000000E-03 0. -1.
        -11    1    3    3    0    0  0.11695555487E+02  0.16562487786E+02 -0.35630763227E+02  0.40995771834E+02  0.51100000000E-03 0.  1.
         12    1    3    3    0    0 -0.13704052693E+02 -0.23720770859E+02  0.25809770269E+02  0.37638016310E+02  0.00000000000E+00 0. -1.
</event>
<event>
 7    1  0.2285268E-015  0.9000777E+02  0.7816164E-02  0.1186339E+00
        -11   -1    0    0    0    0  0.00000000000E+00  0.00000000000E+00  0.45593999997E+02  0.45594000000E+02  0.51100000000E-03 0.  1.
         11   -1    0    0    0    0 -0.00000000000E+00 -0.00000000000E+00 -0.45593999997E+02  0.45594000000E+02  0.51100000000E-03 0. -1.
    9900012    2    1    2    0    0 -0.25276885244E+00 -0.11514099762E+01  0.57408978028E-01  0.90007774252E+02  0.90000036072E+02 0.  0.
         12    1    1    2    0    0  0.25276885244E+00  0.11514099762E+01 -0.57408978028E-01  0.11802257483E+01  0.00000000000E+00 0. -1.
         11    1    3    3    0    0  0.67626153399E+01 -0.25202329397E+02 -0.28851511587E+02  0.38901158009E+02  0.51100000000E-03 0. -1.
        -11    1    3    3    0    0  0.59989772779E+00 -0.76678325732E+01  0.26590881548E+00  0.76958587184E+01  0.51100000000E-03 0.  1.
        -12    1    3    3    0    0 -0.76152819201E+01  0.31718751994E+02  0.28643011750E+02  0.43410757525E+02  0.00000000000E+00 0.  1.
</event>
<event>
 7    1  0.2285268E-015  0.9000775E+02  0.7816164E-02  0.1186339E+00
        -11   -1    0    0    0    0  0.00000000000E+00  0.00000000000E+00  0.45593999997E+02  0.45594000000E+02  0.51100000000E-03 0. -1.
         11   -1    0    0    0    0 -0.00000000000E+00 -0.00000000000E+00 -0.45593999997E+02  0.45594000000E+02  0.51100000000E-03 0.  1.
    9900012    2    1    2    0    0 -0.11305233027E+01  0.12986578771E+00  0.31310124806E+00  0.90007754071E+02  0.90000015625E+02 0.  0.
         12    1    1    2    0    0  0.11305233027E+01 -0.12986578771E+00 -0.31310124806E+00  0.11802459288E+01  0.00000000000E+00 0. -1.
         11    1    3    3    0    0  0.10614467285E+02  0.29807200807E+02  0.21141116792E+02  0.38053685172E+02  0.51100000000E-03 0. -1.
        -11    1    3    3    0    0 -0.80601573929E+01  0.70335155596E+01 -0.44156314788E+01  0.11572997881E+02  0.51100000000E-03 0.  1.
        -12    1    3    3    0    0 -0.36848331949E+01 -0.36710850579E+02 -0.16412384065E+02  0.40381071019E+02  0.00000000000E+00 0.  1.
</event>
<event>
 7    1  0.2285268E-015  0.9000773E+02  0.7816164E-02  0.1186339E+00
        -11   -1    0    0    0    0  0.00000000000E+00  0.00000000000E+00  0.45593999997E+02  0.45594000000E+02  0.51100000000E-03 0.  1.
         11   -1    0    0    0    0 -0.00000000000E+00 -0.00000000000E+00 -0.45593999997E+02  0.45594000000E+02  0.51100000000E-03 0. -1.
    9900012    2    1    2    0    0 -0.10226680967E+01 -0.15446456873E+00  0.56861779577E+00  0.90007730736E+02  0.89999991981E+02 0.  0.
         12    1    1    2    0    0  0.10226680967E+01  0.15446456873E+00 -0.56861779577E+00  0.11802692645E+01  0.00000000000E+00 0. -1.
         11    1    3    3    0    0  0.74720499518E+01 -0.56205653772E+01 -0.17909935315E+01  0.95199760364E+01  0.51100000000E-03 0. -1.
        -11    1    3    3    0    0  0.34595911905E+02  0.12189674821E+02 -0.14533360233E+01  0.36709364999E+02  0.51100000000E-03 0.  1.
         12    1    3    3    0    0 -0.43090629953E+02 -0.67235740130E+01  0.38129473505E+01  0.43778389700E+02  0.00000000000E+00 0. -1.
</event>
<event>
 7    1  0.2285268E-015  0.9000773E+02  0.7816164E-02  0.1186339E+00
        -11   -1    0    0    0    0  0.00000000000E+00  0.00000000000E+00  0.45593999997E+02  0.45594000000E+02  0.51100000000E-03 0.  1.
         11   -1    0    0    0    0 -0.00000000000E+00 -0.00000000000E+00 -0.45593999997E+02  0.45594000000E+02  0.51100000000E-03 0. -1.
    9900012    2    1    2    0    0  0.93079002018E+00 -0.54246782940E+00  0.48208214792E+00  0.90007726894E+02  0.89999988089E+02 0.  0.
         12    1    1    2    0    0 -0.93079002018E+00  0.54246782940E+00 -0.48208214792E+00  0.11802731061E+01  0.00000000000E+00 0. -1.
         11    1    3    3    0    0  0.98998422774E+00 -0.38466871461E+01 -0.16784044371E+02  0.17247643795E+02  0.51100000000E-03 0. -1.
        -11    1    3    3    0    0 -0.28079426301E+02 -0.17247240149E+02 -0.20247653779E+01  0.33015468333E+02  0.51100000000E-03 0.  1.
         12    1    3    3    0    0  0.28020232094E+02  0.20551459465E+02  0.19290891897E+02  0.39744614766E+02  0.00000000000E+00 0. -1.
</event>
<event>
 7    1  0.2285268E-015  0.9000776E+02  0.7816164E-02  0.1186339E+00
        -11   -1    0    0    0    0  0.00000000000E+00  0.00000000000E+00  0.45593999997E+02  0.45594000000E+02  0.51100000000E-03 0. -1.
         11   -1    0    0    0    0 -0.00000000000E+00 -0.00000000000E+00 -0.45593999997E+02  0.45594000000E+02  0.51100000000E-03 0.  1.
    9900012    2    1    2    0    0  0.11054608209E+01  0.40332257909E+00  0.90838026157E-01  0.90007760924E+02  0.90000022568E+02 0.  0.
         12    1    1    2    0    0 -0.11054608209E+01 -0.40332257909E+00 -0.90838026157E-01  0.11802390759E+01  0.00000000000E+00 0. -1.
         11    1    3    3    0    0 -0.18186606725E+00 -0.85821342676E+01  0.49268467650E+01  0.98974705436E+01  0.51100000000E-03 0. -1.
        -11    1    3    3    0    0  0.25924532027E+02  0.35358180795E+02 -0.15602167277E+01  0.43871592021E+02  0.51100000000E-03 0.  1.
         12    1    3    3    0    0 -0.24637205139E+02 -0.26372723948E+02 -0.32757920112E+01  0.36238698360E+02  0.00000000000E+00 0. -1.
</event>
<event>
 7    1  0.2285268E-015  0.9000772E+02  0.7816164E-02  0.1186339E+00
        -11   -1    0    0    0    0  0.00000000000E+00  0.00000000000E+00  0.45593999997E+02  0.45594000000E+02  0.51100000000E-03 0. -1.
         11   -1    0    0    0    0 -0.00000000000E+00 -0.00000000000E+00 -0.45593999997E+02  0.45594000000E+02  0.51100000000E-03 0.  1.
    9900012    2    1    2    0    0 -0.40328244983E+00 -0.10732279521E+01  0.28036219170E+00  0.90007721249E+02  0.89999982369E+02 0.  0.
         12    1    1    2    0    0  0.40328244983E+00  0.10732279521E+01 -0.28036219170E+00  0.11802787510E+01  0.00000000000E+00 0. -1.
         11    1    3    3    0    0 -0.22866454024E+01 -0.66797940703E+01  0.63387867886E+01  0.94883409630E+01  0.51100000000E-03 0. -1.
        -11    1    3    3    0    0  0.26670302556E+02 -0.18016961230E+02  0.19642324077E+02  0.37705925606E+02  0.51100000000E-03 0.  1.
         12    1    3    3    0    0 -0.24786939603E+02  0.23623527348E+02 -0.25700748674E+02  0.42813454680E+02  0.00000000000E+00 0. -1.
</event>
<event>
 7    1  0.2285268E-015  0.9000772E+02  0.7816164E-02  0.1186339E+00
        -11   -1    0    0    0    0  0.00000000000E+00  0.00000000000E+00  0.45593999997E+02  0.45594000000E+02  0.51100000000E-03 0. -1.
         11   -1    0    0    0    0 -0.00000000000E+00 -0.00000000000E+00 -0.45593999997E+02  0.45594000000E+02  0.51100000000E-03 0.  1.
    9900012    2    1    2    0    0  0.11295947115E+01  0.22572339152E+00 -0.25716577212E+00  0.90007716349E+02  0.89999977405E+02 0.  0.
         12    1    1    2    0    0 -0.11295947115E+01 -0.22572339152E+00  0.25716577212E+00  0.11802836506E+01  0.00000000000E+00 0. -1.
         11    1    3    3    0    0  0.64749918404E+01 -0.43574562348E+01 -0.49513842443E+01  0.92427891011E+01  0.51100000000E-03 0. -1.
        -11    1    3    3    0    0  0.32628831665E+02  0.20772181389E+02  0.74550594258E+01  0.39391649963E+02  0.51100000000E-03 0.  1.
         12    1    3    3    0    0 -0.37974228794E+02 -0.16189001762E+02 -0.27608409536E+01  0.41373277286E+02  0.00000000000E+00 0. -1.
</event>
<event>
 7    1  0.2285268E-015  0.9000777E+02  0.7816164E-02  0.1186339E+00
        -11   -1    0    0    0    0  0.00000000000E+00  0.00000000000E+00  0.45593999997E+02  0.45594000000E+02  0.51100000000E-03 0. -1.
         11   -1    0    0    0    0 -0.00000000000E+00 -0.00000000000E+00 -0.45593999997E+02  0.45594000000E+02  0.51100000000E-03 0.  1.
    9900012    2    1    2    0    0 -0.44283469361E+00  0.78810817768E+00 -0.75877317592E+00  0.90007765363E+02  0.90000027066E+02 0.  0.
         12    1    1    2    0    0  0.44283469361E+00 -0.78810817768E+00  0.75877317592E+00  0.11802346369E+01  0.00000000000E+00 0. -1.
         11    1    3    3    0    0 -0.29248522339E+02  0.17557565186E+02 -0.12242693392E+02  0.36244002207E+02  0.51100000000E-03 0. -1.
        -11    1    3    3    0    0  0.54600045868E+01  0.14379822746E+01 -0.13749183729E+02  0.14863360878E+02  0.51100000000E-03 0.  1.
        -12    1    3    3    0    0  0.23345683058E+02 -0.18207439283E+02  0.25233103945E+02  0.38900402278E+02  0.00000000000E+00 0.  1.
</event>
<event>
 7    1  0.2285268E-015  0.9000789E+02  0.7816164E-02  0.1186339E+00
        -11   -1    0    0    0    0  0.00000000000E+00  0.00000000000E+00  0.45593999997E+02  0.45594000000E+02  0.51100000000E-03 0.  1.
         11   -1    0    0    0    0 -0.00000000000E+00 -0.00000000000E+00 -0.45593999997E+02  0.45594000000E+02  0.51100000000E-03 0. -1.
    9900012    2    1    2    0    0 -0.24612140820E+00 -0.11521723638E+01 -0.67645744356E-01  0.90007892865E+02  0.90000156251E+02 0.  0.
         12    1    1    2    0    0  0.24612140820E+00  0.11521723638E+01  0.67645744356E-01  0.11801071351E+01  0.00000000000E+00 0. -1.
         11    1    3    3    0    0  0.33747745390E+02  0.12017869010E+02 -0.13458659506E+02  0.38268459734E+02  0.51100000000E-03 0. -1.
        -11    1    3    3    0    0 -0.65619078961E+01 -0.10122484466E+02 -0.99149895689E+01  0.15615067897E+02  0.51100000000E-03 0.  1.
        -12    1    3    3    0    0 -0.27431958902E+02 -0.30475569076E+01  0.23306003331E+02  0.36124365234E+02  0.00000000000E+00 0.  1.
</event>
<event>
 7    1  0.2285268E-015  0.9000767E+02  0.7816164E-02  0.1186339E+00
        -11   -1    0    0    0    0  0.00000000000E+00  0.00000000000E+00  0.45593999997E+02  0.45594000000E+02  0.51100000000E-03 0.  1.
         11   -1    0    0    0    0 -0.00000000000E+00 -0.00000000000E+00 -0.45593999997E+02  0.45594000000E+02  0.51100000000E-03 0. -1.
    9900012    2    1    2    0    0 -0.97738226047E+00  0.38229192346E+00 -0.54014136042E+00  0.90007671280E+02  0.89999931741E+02 0.  0.
         12    1    1    2    0    0  0.97738226047E+00 -0.38229192346E+00  0.54014136042E+00  0.11803287199E+01  0.00000000000E+00 0. -1.
         11    1    3    3    0    0 -0.28864342093E+02  0.24641669545E+01  0.21832385429E+02  0.36274997133E+02  0.51100000000E-03 0. -1.
        -11    1    3    3    0    0 -0.53169078687E+01 -0.20056866248E+01  0.72664148327E+01  0.92245906632E+01  0.51100000000E-03 0.  1.
        -12    1    3    3    0    0  0.33203867701E+02 -0.76188406316E-01 -0.29638941622E+02  0.44508083484E+02  0.00000000000E+00 0.  1.
</event>
<event>
 7    1  0.2285268E-015  0.9000770E+02  0.7816164E-02  0.1186339E+00
        -11   -1    0    0    0    0  0.00000000000E+00  0.00000000000E+00  0.45593999997E+02  0.45594000000E+02  0.51100000000E-03 0.  1.
         11   -1    0    0    0    0 -0.00000000000E+00 -0.00000000000E+00 -0.45593999997E+02  0.45594000000E+02  0.51100000000E-03 0. -1.
    9900012    2    1    2    0    0  0.10875343745E+01 -0.16126339194E+00 -0.42937873219E+00  0.90007702159E+02  0.89999963028E+02 0.  0.
         12    1    1    2    0    0 -0.10875343745E+01  0.16126339194E+00  0.42937873219E+00  0.11802978408E+01  0.00000000000E+00 0. -1.
         11    1    3    3    0    0 -0.57016934553E+01  0.77984118711E+01  0.24976060265E+01  0.99781046343E+01  0.51100000000E-03 0. -1.
        -11    1    3    3    0    0 -0.83203541882E+01  0.27649394615E+02 -0.22567355418E+02  0.36647003250E+02  0.51100000000E-03 0.  1.
         12    1    3    3    0    0  0.15109582018E+02 -0.35609069878E+02  0.19640370659E+02  0.43382594275E+02  0.00000000000E+00 0. -1.
</event>
<event>
 7    1  0.2285268E-015  0.9000770E+02  0.7816164E-02  0.1186339E+00
        -11   -1    0    0    0    0  0.00000000000E+00  0.00000000000E+00  0.45593999997E+02  0.45594000000E+02  0.51100000000E-03 0.  1.
         11   -1    0    0    0    0 -0.00000000000E+00 -0.00000000000E+00 -0.45593999997E+02  0.45594000000E+02  0.51100000000E-03 0. -1.
    9900012    2    1    2    0    0  0.10758479679E+01 -0.23376385543E+00  0.42545468677E+00  0.90007700851E+02  0.89999961702E+02 0.  0.
         12    1    1    2    0    0 -0.10758479679E+01  0.23376385543E+00 -0.42545468677E+00  0.11802991488E+01  0.00000000000E+00 0. -1.
         11    1    3    3    0    0 -0.85128541657E-01 -0.10142963814E+02 -0.13015795091E+00  0.10144156109E+02  0.51100000000E-03 0. -1.
        -11    1    3    3    0    0 -0.11633719098E+01  0.18576053629E+02  0.37489357828E+02  0.41855407694E+02  0.51100000000E-03 0.  1.
         12    1    3    3    0    0  0.23243484194E+01 -0.86668536700E+01 -0.36933745190E+02  0.38008137048E+02  0.00000000000E+00 0. -1.
</event>
<event>
 7    1  0.2285268E-015  0.9000781E+02  0.7816164E-02  0.1186339E+00
        -11   -1    0    0    0    0  0.00000000000E+00  0.00000000000E+00  0.45593999997E+02  0.45594000000E+02  0.51100000000E-03 0. -1.
         11   -1    0    0    0    0 -0.00000000000E+00 -0.00000000000E+00 -0.45593999997E+02  0.45594000000E+02  0.51100000000E-03 0.  1.
    9900012    2    1    2    0    0 -0.20891019933E+00  0.19182443033E+00 -0.11456005763E+01  0.90007813250E+02  0.90000075585E+02 0.  0.
         12    1    1    2    0    0  0.20891019933E+00 -0.19182443033E+00  0.11456005763E+01  0.11801867495E+01  0.00000000000E+00 0. -1.
         11    1    3    3    0    0  0.94781293082E+01  0.30361842419E+01 -0.10263609990E+02  0.14296679343E+02  0.51100000000E-03 0. -1.
        -11    1    3    3    0    0  0.19746183171E+02  0.13217798357E+02 -0.20187086321E+02  0.31179166083E+02  0.51100000000E-03 0.  1.
         12    1    3    3    0    0 -0.29433222679E+02 -0.16062158169E+02  0.29305095735E+02  0.44531967825E+02  0.00000000000E+00 0. -1.
</event>
<event>
 7    1  0.2285268E-015  0.9000792E+02  0.7816164E-02  0.1186339E+00
        -11   -1    0    0    0    0  0.00000000000E+00  0.00000000000E+00  0.45593999997E+02  0.45594000000E+02  0.51100000000E-03 0. -1.
         11   -1    0    0    0    0 -0.00000000000E+00 -0.00000000000E+00 -0.45593999997E+02  0.45594000000E+02  0.51100000000E-03 0.  1.
    9900012    2    1    2    0    0 -0.35724865514E+00 -0.47719240726E+00 -0.10184593396E+01  0.90007915841E+02  0.90000179530E+02 0.  0.
         12    1    1    2    0    0  0.35724865514E+00  0.47719240726E+00  0.10184593396E+01  0.11800841587E+01  0.00000000000E+00 0. -1.
         11    1    3    3    0    0  0.15599688314E+02  0.31849541217E+02  0.10206937955E+02  0.36904269860E+02  0.51100000000E-03 0. -1.
        -11    1    3    3    0    0 -0.35505116001E+01  0.77201047846E+01  0.27174982243E+01  0.89213758674E+01  0.51100000000E-03 0.  1.
        -12    1    3    3    0    0 -0.12406425369E+02 -0.40046838409E+02 -0.13942895519E+02  0.44182270114E+02  0.00000000000E+00 0.  1.
</event>
<event>
 7    1  0.2285268E-015  0.9000773E+02  0.7816164E-02  0.1186339E+00
        -11   -1    0    0    0    0  0.00000000000E+00  0.00000000000E+00  0.45593999997E+02  0.45594000000E+02  0.51100000000E-03 0. -1.
         11   -1    0    0    0    0 -0.00000000000E+00 -0.00000000000E+00 -0.45593999997E+02  0.45594000000E+02  0.51100000000E-03 0.  1.
    9900012    2    1    2    0    0 -0.56802825040E+00  0.10345219041E+01  0.11874010995E-01  0.90007731956E+02  0.89999993218E+02 0.  0.
         12    1    1    2    0    0  0.56802825040E+00 -0.10345219041E+01 -0.11874010995E-01  0.11802680439E+01  0.00000000000E+00 0. -1.
         11    1    3    3    0    0  0.74466588569E+00 -0.40657844677E+00 -0.90611724377E+01  0.91008065314E+01  0.51100000000E-03 0. -1.
        -11    1    3    3    0    0 -0.39492701036E+02 -0.29214370480E+01 -0.51431890148E+01  0.39933202013E+02  0.51100000000E-03 0.  1.
         12    1    3    3    0    0  0.38180006900E+02  0.43625373989E+01  0.14216235464E+02  0.40973723411E+02  0.00000000000E+00 0. -1.
</event>
<event>
 7    1  0.2285268E-015  0.9000779E+02  0.7816164E-02  0.1186339E+00
        -11   -1    0    0    0    0  0.00000000000E+00  0.00000000000E+00  0.45593999997E+02  0.45594000000E+02  0.51100000000E-03 0.  1.
         11   -1    0    0    0    0 -0.00000000000E+00 -0.00000000000E+00 -0.45593999997E+02  0.45594000000E+02  0.51100000000E-03 0. -1.
    9900012    2    1    2    0    0  0.87692383897E+00 -0.21053432846E+00  0.76130541522E+00  0.90007785588E+02  0.90000047558E+02 0.  0.
         12    1    1    2    0    0 -0.87692383897E+00  0.21053432846E+00 -0.76130541522E+00  0.11802144119E+01  0.00000000000E+00 0. -1.
         11    1    3    3    0    0  0.57973580388E+01  0.29039033587E+01  0.66113294319E+01  0.92602209512E+01  0.51100000000E-03 0. -1.
        -11    1    3    3    0    0 -0.42428417738E+02 -0.32311777681E+01  0.12670976806E+01  0.42570138341E+02  0.51100000000E-03 0.  1.
         12    1    3    3    0    0  0.37507983538E+02  0.11674008090E+00 -0.71171216973E+01  0.38177426296E+02  0.00000000000E+00 0. -1.
</event>
<event>
 7    1  0.2285268E-015  0.9000770E+02  0.7816164E-02  0.1186339E+00
        -11   -1    0    0    0    0  0.00000000000E+00  0.00000000000E+00  0.45593999997E+02  0.45594000000E+02  0.51100000000E-03 0.  1.
         11   -1    0    0    0    0 -0.00000000000E+00 -0.00000000000E+00 -0.45593999997E+02  0.45594000000E+02  0.51100000000E-03 0. -1.
    9900012    2    1    2    0    0 -0.70268371165E+00  0.21603358047E+00  0.92340152141E+00  0.90007701192E+02  0.89999962048E+02 0.  0.
         12    1    1    2    0    0  0.70268371165E+00 -0.21603358047E+00 -0.92340152141E+00  0.11802988080E+01  0.00000000000E+00 0. -1.
         11    1    3    3    0    0 -0.13523773588E+02  0.33341049057E+02 -0.94805578015E+01  0.37207512424E+02  0.51100000000E-03 0. -1.
        -11    1    3    3    0    0 -0.29634809454E+01  0.50476214205E+01  0.98867916231E+01  0.11489532200E+02  0.51100000000E-03 0.  1.
        -12    1    3    3    0    0  0.15784570822E+02 -0.38172636897E+02  0.51716769985E+00  0.41310656568E+02  0.00000000000E+00 0.  1.
</event>
<event>
 7    1  0.2285268E-015  0.9000785E+02  0.7816164E-02  0.1186339E+00
        -11   -1    0    0    0    0  0.00000000000E+00  0.00000000000E+00  0.45593999997E+02  0.45594000000E+02  0.51100000000E-03 0. -1.
         11   -1    0    0    0    0 -0.00000000000E+00 -0.00000000000E+00 -0.45593999997E+02  0.45594000000E+02  0.51100000000E-03 0.  1.
    9900012    2    1    2    0    0  0.23302454888E+00 -0.35282859648E+00 -0.11018007119E+01  0.90007850320E+02  0.90000113144E+02 0.  0.
         12    1    1    2    0    0 -0.23302454888E+00  0.35282859648E+00  0.11018007119E+01  0.11801496802E+01  0.00000000000E+00 0. -1.
         11    1    3    3    0    0 -0.14283541635E+02  0.12532477560E+02 -0.27135147101E+02  0.33127009583E+02  0.51100000000E-03 0. -1.
        -11    1    3    3    0    0 -0.14948355531E+02  0.53506718622E+01  0.93019283146E+01  0.18401328568E+02  0.51100000000E-03 0.  1.
        -12    1    3    3    0    0  0.29464921715E+02 -0.18235978018E+02  0.16731418075E+02  0.38479512169E+02  0.00000000000E+00 0.  1.
</event>
<event>
 7    1  0.2285268E-015  0.9000778E+02  0.7816164E-02  0.1186339E+00
        -11   -1    0    0    0    0  0.00000000000E+00  0.00000000000E+00  0.45593999997E+02  0.45594000000E+02  0.51100000000E-03 0.  1.
         11   -1    0    0    0    0 -0.00000000000E+00 -0.00000000000E+00 -0.45593999997E+02  0.45594000000E+02  0.51100000000E-03 0. -1.
    9900012    2    1    2    0    0  0.83628503313E+00 -0.64453676532E+00 -0.52736116022E+00  0.90007783879E+02  0.90000045826E+02 0.  0.
         12    1    1    2    0    0 -0.83628503313E+00  0.64453676532E+00  0.52736116022E+00  0.11802161208E+01  0.00000000000E+00 0. -1.
         11    1    3    3    0    0  0.62359488898E+00  0.69995309110E+00  0.10960359142E+02  0.11000376253E+02  0.51100000000E-03 0. -1.
        -11    1    3    3    0    0 -0.28906998404E+02  0.13073828216E+02  0.16823162628E+02  0.35910421079E+02  0.51100000000E-03 0.  1.
         12    1    3    3    0    0  0.29119688548E+02 -0.14418318072E+02 -0.28310882931E+02  0.43096986548E+02  0.00000000000E+00 0. -1.
</event>
<event>
 7    1  0.2285268E-015  0.9000778E+02  0.7816164E-02  0.1186339E+00
        -11   -1    0    0    0    0  0.00000000000E+00  0.00000000000E+00  0.45593999997E+02  0.45594000000E+02  0.51100000000E-03 0. -1.
         11   -1    0    0    0    0 -0.00000000000E+00 -0.00000000000E+00 -0.45593999997E+02  0.45594000000E+02  0.51100000000E-03 0.  1.
    9900012    2    1    2    0    0 -0.15435231109E+00  0.99653171631E+00 -0.61320615938E+00  0.90007778880E+02  0.90000040761E+02 0.  0.
         12    1    1    2    0    0  0.15435231109E+00 -0.99653171631E+00  0.61320615938E+00  0.11802211197E+01  0.00000000000E+00 0. -1.
         11    1    3    3    0    0 -0.71353988298E+01  0.43547763101E+01  0.64215669922E+01  0.10541087044E+02  0.51100000000E-03 0. -1.
        -11    1    3    3    0    0 -0.31557967173E+02  0.65365978972E+01 -0.19625447004E+02  0.37733149544E+02  0.51100000000E-03 0.  1.
         12    1    3    3    0    0  0.38539013691E+02 -0.98948424910E+01  0.12590673852E+02  0.41733542292E+02  0.00000000000E+00 0. -1.
</event>
<event>
 7    1  0.2285268E-015  0.9000769E+02  0.7816164E-02  0.1186339E+00
        -11   -1    0    0    0    0  0.00000000000E+00  0.00000000000E+00  0.45593999997E+02  0.45594000000E+02  0.51100000000E-03 0.  1.
         11   -1    0    0    0    0 -0.00000000000E+00 -0.00000000000E+00 -0.45593999997E+02  0.45594000000E+02  0.51100000000E-03 0. -1.
    9900012    2    1    2    0    0  0.22072774002E+00 -0.85297940977E+00  0.78538950860E+00  0.90007690172E+02  0.89999950883E+02 0.  0.
         12    1    1    2    0    0 -0.22072774002E+00  0.85297940977E+00 -0.78538950860E+00  0.11803098275E+01  0.00000000000E+00 0. -1.
         11    1    3    3    0    0  0.75658860956E+01  0.46570092151E+01 -0.75942893695E+00  0.89166753789E+01  0.51100000000E-03 0. -1.
        -11    1    3    3    0    0  0.31259450381E+02 -0.20916565384E+02 -0.79780656314E+01  0.38448738303E+02  0.51100000000E-03 0.  1.
         12    1    3    3    0    0 -0.38604608737E+02  0.15406576759E+02  0.95228840769E+01  0.42642276491E+02  0.00000000000E+00 0. -1.
</event>
<event>
 7    1  0.2794282E-015  0.9000770E+02  0.7816164E-02  0.1186339E+00
        -11   -1    0    0    0    0  0.00000000000E+00  0.00000000000E+00  0.45593999997E+02  0.45594000000E+02  0.51100000000E-03 0. -1.
         11   -1    0    0    0    0 -0.00000000000E+00 -0.00000000000E+00 -0.45593999997E+02  0.45594000000E+02  0.51100000000E-03 0.  1.
    9900012    2    1    2    0    0 -0.10944258429E+01 -0.17055403973E-01 -0.44163547754E+00  0.90007703127E+02  0.89999964009E+02 0.  0.
         12    1    1    2    0    0  0.10944258429E+01  0.17055403973E-01  0.44163547754E+00  0.11802968726E+01  0.00000000000E+00 0. -1.
         11    1    3    3    0    0  0.79296609821E+01  0.19872595723E+01 -0.53684399022E+01  0.97800240871E+01  0.51100000000E-03 0. -1.
        -11    1    3    3    0    0 -0.32212043512E+02 -0.20660992975E+01 -0.26088236769E+02  0.41502778358E+02  0.51100000000E-03 0.  1.
         12    1    3    3    0    0  0.23187956687E+02  0.61784321218E-01  0.31015041193E+02  0.38724900682E+02  0.00000000000E+00 0. -1.
</event>
<event>
 7    1  0.2285268E-015  0.9000772E+02  0.7816164E-02  0.1186339E+00
        -11   -1    0    0    0    0  0.00000000000E+00  0.00000000000E+00  0.45593999997E+02  0.45594000000E+02  0.51100000000E-03 0.  1.
         11   -1    0    0    0    0 -0.00000000000E+00 -0.00000000000E+00 -0.45593999997E+02  0.45594000000E+02  0.51100000000E-03 0. -1.
    9900012    2    1    2    0    0  0.98685992270E+00  0.94259125305E-01  0.64053243036E+00  0.90007720760E+02  0.89999981874E+02 0.  0.
         12    1    1    2    0    0 -0.98685992270E+00 -0.94259125305E-01 -0.64053243036E+00  0.11802792399E+01  0.00000000000E+00 0. -1.
         11    1    3    3    0    0  0.27685274977E+02  0.16975538503E+02 -0.20575921530E+02  0.38444920406E+02  0.51100000000E-03 0. -1.
        -11    1    3    3    0    0 -0.36081599449E+01  0.84096947127E+01 -0.29880348108E+01  0.96265328983E+01  0.51100000000E-03 0.  1.
        -12    1    3    3    0    0 -0.23090255109E+02 -0.25290974090E+02  0.24204488771E+02  0.41936267455E+02  0.00000000000E+00 0.  1.
</event>
<event>
 7    1  0.2285268E-015  0.9000796E+02  0.7816164E-02  0.1186339E+00
        -11   -1    0    0    0    0  0.00000000000E+00  0.00000000000E+00  0.45593999997E+02  0.45594000000E+02  0.51100000000E-03 0.  1.
         11   -1    0    0    0    0 -0.00000000000E+00 -0.00000000000E+00 -0.45593999997E+02  0.45594000000E+02  0.51100000000E-03 0. -1.
    9900012    2    1    2    0    0 -0.44591538003E-01  0.82633792663E+00  0.84123228225E+00  0.90007959947E+02  0.90000224218E+02 0.  0.
         12    1    1    2    0    0  0.44591538003E-01 -0.82633792663E+00 -0.84123228225E+00  0.11800400531E+01  0.00000000000E+00 0. -1.
         11    1    3    3    0    0 -0.98984713128E+01  0.20195744841E+02 -0.29272629068E-02  0.22491061621E+02  0.51100000000E-03 0. -1.
        -11    1    3    3    0    0 -0.91342837735E+01 -0.50457278408E+01  0.28905593674E+02  0.30731544957E+02  0.51100000000E-03 0.  1.
         12    1    3    3    0    0  0.18988163548E+02 -0.14323679073E+02 -0.28061434129E+02  0.36785353369E+02  0.00000000000E+00 0. -1.
</event>
<event>
 7    1  0.2285268E-015  0.9000776E+02  0.7816164E-02  0.1186339E+00
        -11   -1    0    0    0    0  0.00000000000E+00  0.00000000000E+00  0.45593999997E+02  0.45594000000E+02  0.51100000000E-03 0.  1.
         11   -1    0    0    0    0 -0.00000000000E+00 -0.00000000000E+00 -0.45593999997E+02  0.45594000000E+02  0.51100000000E-03 0. -1.
    9900012    2    1    2    0    0 -0.31245561142E+00  0.10930526392E+01 -0.31713780258E+00  0.90007758937E+02  0.90000020555E+02 0.  0.
         12    1    1    2    0    0  0.31245561142E+00 -0.10930526392E+01  0.31713780258E+00  0.11802410631E+01  0.00000000000E+00 0. -1.
         11    1    3    3    0    0 -0.12585713035E+01 -0.56499995979E+01  0.10972796416E+02  0.12405996882E+02  0.51100000000E-03 0. -1.
        -11    1    3    3    0    0  0.34874365046E+02 -0.32368574180E+01  0.98711423778E+01  0.36388707526E+02  0.51100000000E-03 0.  1.
         12    1    3    3    0    0 -0.33928249354E+02  0.99799096551E+01 -0.21161076596E+02  0.41213054529E+02  0.00000000000E+00 0. -1.
</event>
<event>
 7    1  0.2285268E-015  0.9000747E+02  0.7816164E-02  0.1186340E+00
        -11   -1    0    0    0    0  0.00000000000E+00  0.00000000000E+00  0.45593999997E+02  0.45594000000E+02  0.51100000000E-03 0. -1.
         11   -1    0    0    0    0 -0.00000000000E+00 -0.00000000000E+00 -0.45593999997E+02  0.45594000000E+02  0.51100000000E-03 0.  1.
    9900012    2    1    2    0    0 -0.45641260657E-01  0.11789321553E+01  0.40941613119E-01  0.90007474538E+02  0.89999732401E+02 0.  0.
         12    1    1    2    0    0  0.45641260657E-01 -0.11789321553E+01 -0.40941613119E-01  0.11805254623E+01  0.00000000000E+00 0. -1.
         11    1    3    3    0    0  0.25565277513E+01  0.11904026081E+02 -0.11877388943E+00  0.12176032957E+02  0.51100000000E-03 0. -1.
        -11    1    3    3    0    0 -0.89231314780E+01  0.28974991958E+02 -0.16265130466E+02  0.34405332489E+02  0.51100000000E-03 0.  1.
         12    1    3    3    0    0  0.63209624661E+01 -0.39700085884E+02  0.16424845969E+02  0.43426109091E+02  0.00000000000E+00 0. -1.
</event>
<event>
 7    1  0.2285268E-015  0.9000777E+02  0.7816164E-02  0.1186339E+00
        -11   -1    0    0    0    0  0.00000000000E+00  0.00000000000E+00  0.45593999997E+02  0.45594000000E+02  0.51100000000E-03 0.  1.
         11   -1    0    0    0    0 -0.00000000000E+00 -0.00000000000E+00 -0.45593999997E+02  0.45594000000E+02  0.51100000000E-03 0. -1.
    9900012    2    1    2    0    0 -0.31410890261E+00 -0.11369221428E+01 -0.41023816106E-01  0.90007771499E+02  0.90000033283E+02 0.  0.
         12    1    1    2    0    0  0.31410890261E+00  0.11369221428E+01  0.41023816106E-01  0.11802285012E+01  0.00000000000E+00 0. -1.
         11    1    3    3    0    0  0.29387566103E+02 -0.17755607585E+02  0.11446738084E+02  0.36192795625E+02  0.51100000000E-03 0. -1.
        -11    1    3    3    0    0  0.75182163763E+01 -0.34166535550E+01  0.34965012556E+01  0.89678659829E+01  0.51100000000E-03 0.  1.
        -12    1    3    3    0    0 -0.37219891382E+02  0.20035338997E+02 -0.14984263156E+02  0.44847109890E+02  0.00000000000E+00 0.  1.
</event>
<event>
 7    1  0.2285268E-015  0.9000763E+02  0.7816164E-02  0.1186339E+00
        -11   -1    0    0    0    0  0.00000000000E+00  0.00000000000E+00  0.45593999997E+02  0.45594000000E+02  0.51100000000E-03 0. -1.
         11   -1    0    0    0    0 -0.00000000000E+00 -0.00000000000E+00 -0.45593999997E+02  0.45594000000E+02  0.51100000000E-03 0.  1.
    9900012    2    1    2    0    0  0.10557423783E+01 -0.54567106377E-01  0.52506514110E+00  0.90007634404E+02  0.89999894378E+02 0.  0.
         12    1    1    2    0    0 -0.10557423783E+01  0.54567106377E-01 -0.52506514110E+00  0.11803655963E+01  0.00000000000E+00 0. -1.
         11    1    3    3    0    0 -0.17512158203E+01 -0.87134674745E+01  0.49309596083E+01  0.10163937977E+02  0.51100000000E-03 0. -1.
        -11    1    3    3    0    0 -0.75059649422E+01 -0.33627901796E+02 -0.10200138428E+02  0.35933523528E+02  0.51100000000E-03 0.  1.
         12    1    3    3    0    0  0.10312923141E+02  0.42286802164E+02  0.57942439613E+01  0.43910172899E+02  0.00000000000E+00 0. -1.
</event>
<event>
 7    1  0.2285268E-015  0.9000767E+02  0.7816164E-02  0.1186339E+00
        -11   -1    0    0    0    0  0.00000000000E+00  0.00000000000E+00  0.45593999997E+02  0.45594000000E+02  0.51100000000E-03 0. -1.
         11   -1    0    0    0    0 -0.00000000000E+00 -0.00000000000E+00 -0.45593999997E+02  0.45594000000E+02  0.51100000000E-03 0.  1.
    9900012    2    1    2    0    0 -0.11091637207E+01 -0.39916833644E+00 -0.59939250710E-01  0.90007672828E+02  0.89999933309E+02 0.  0.
         12    1    1    2    0    0  0.11091637207E+01  0.39916833644E+00  0.59939250710E-01  0.11803271724E+01  0.00000000000E+00 0. -1.
         11    1    3    3    0    0  0.38562270331E+02 -0.13002349717E+02 -0.87845855323E+01  0.41632664274E+02  0.51100000000E-03 0. -1.
        -11    1    3    3    0    0 -0.50050178630E+01  0.54494195780E+01 -0.64944873306E+01  0.98450364902E+01  0.51100000000E-03 0.  1.
        -12    1    3    3    0    0 -0.34666416189E+02  0.71537618030E+01  0.15219133612E+02  0.38529972064E+02  0.00000000000E+00 0.  1.
</event>
<event>
 7    1  0.2285268E-015  0.9000766E+02  0.7816164E-02  0.1186339E+00
        -11   -1    0    0    0    0  0.00000000000E+00  0.00000000000E+00  0.45593999997E+02  0.45594000000E+02  0.51100000000E-03 0.  1.
         11   -1    0    0    0    0 -0.00000000000E+00 -0.00000000000E+00 -0.45593999997E+02  0.45594000000E+02  0.51100000000E-03 0. -1.
    9900012    2    1    2    0    0  0.33997565740E+00  0.71511899443E+00  0.87534740937E+00  0.90007656105E+02  0.89999916365E+02 0.  0.
         12    1    1    2    0    0 -0.33997565740E+00 -0.71511899443E+00 -0.87534740937E+00  0.11803438952E+01  0.00000000000E+00 0. -1.
         11    1    3    3    0    0  0.42193683902E+02  0.89671258157E+01  0.87132975419E+01  0.44007247823E+02  0.51100000000E-03 0. -1.
        -11    1    3    3    0    0 -0.68812425889E+01 -0.74691161697E+01 -0.17954213194E-01  0.10155762824E+02  0.51100000000E-03 0.  1.
        -12    1    3    3    0    0 -0.34972465656E+02 -0.78289065159E+00 -0.78199959193E+01  0.35844645458E+02  0.00000000000E+00 0.  1.
</event>
<event>
 7    1  0.2285268E-015  0.9000769E+02  0.7816164E-02  0.1186339E+00
        -11   -1    0    0    0    0  0.00000000000E+00  0.00000000000E+00  0.45593999997E+02  0.45594000000E+02  0.51100000000E-03 0.  1.
         11   -1    0    0    0    0 -0.00000000000E+00 -0.00000000000E+00 -0.45593999997E+02  0.45594000000E+02  0.51100000000E-03 0. -1.
    9900012    2    1    2    0    0 -0.12669803289E+00 -0.40170862628E+00  0.11025948154E+01  0.90007687525E+02  0.89999948200E+02 0.  0.
         12    1    1    2    0    0  0.12669803289E+00  0.40170862628E+00 -0.11025948154E+01  0.11803124751E+01  0.00000000000E+00 0. -1.
         11    1    3    3    0    0  0.77652126391E+01 -0.42959557351E+01  0.36718481857E+01  0.96039696151E+01  0.51100000000E-03 0. -1.
        -11    1    3    3    0    0  0.27542417863E+02 -0.17746161522E+02  0.14090937759E+02  0.35666028062E+02  0.51100000000E-03 0.  1.
         12    1    3    3    0    0 -0.35434328535E+02  0.21640408631E+02 -0.16660191130E+02  0.44737689848E+02  0.00000000000E+00 0. -1.
</event>
<event>
 7    1  0.2285268E-015  0.9000762E+02  0.7816164E-02  0.1186339E+00
        -11   -1    0    0    0    0  0.00000000000E+00  0.00000000000E+00  0.45593999997E+02  0.45594000000E+02  0.51100000000E-03 0.  1.
         11   -1    0    0    0    0 -0.00000000000E+00 -0.00000000000E+00 -0.45593999997E+02  0.45594000000E+02  0.51100000000E-03 0. -1.
    9900012    2    1    2    0    0  0.53057981473E+00 -0.79254423425E+00  0.69544753028E+00  0.90007623547E+02  0.89999883378E+02 0.  0.
         12    1    1    2    0    0 -0.53057981473E+00  0.79254423425E+00 -0.69544753028E+00  0.11803764528E+01  0.00000000000E+00 0. -1.
         11    1    3    3    0    0 -0.14382630297E+02  0.92179624884E+01 -0.30806846760E+02  0.35226306849E+02  0.51100000000E-03 0. -1.
        -11    1    3    3    0    0 -0.17978979439E+01  0.38182366712E+01 -0.83796163825E+01  0.93823951778E+01  0.51100000000E-03 0.  1.
        -12    1    3    3    0    0  0.16711108055E+02 -0.13828743394E+02  0.39881910673E+02  0.45398921520E+02  0.00000000000E+00 0.  1.
</event>
<event>
 7    1  0.2285268E-015  0.9000757E+02  0.7816164E-02  0.1186339E+00
        -11   -1    0    0    0    0  0.00000000000E+00  0.00000000000E+00  0.45593999997E+02  0.45594000000E+02  0.51100000000E-03 0.  1.
         11   -1    0    0    0    0 -0.00000000000E+00 -0.00000000000E+00 -0.45593999997E+02  0.45594000000E+02  0.51100000000E-03 0. -1.
    9900012    2    1    2    0    0 -0.10327000471E+01 -0.47336135387E+00  0.32072280280E+00  0.90007574875E+02  0.89999834064E+02 0.  0.
         12    1    1    2    0    0  0.10327000471E+01  0.47336135387E+00 -0.32072280280E+00  0.11804251247E+01  0.00000000000E+00 0. -1.
         11    1    3    3    0    0  0.34236124792E+01  0.61838771811E+01 -0.62567434198E+01  0.94397191633E+01  0.51100000000E-03 0. -1.
        -11    1    3    3    0    0  0.17916643581E+02 -0.94717953430E+01  0.37304814102E+02  0.42454330518E+02  0.51100000000E-03 0.  1.
         12    1    3    3    0    0 -0.22372956108E+02  0.28145568080E+01 -0.30727347880E+02  0.38113525194E+02  0.00000000000E+00 0. -1.
</event>
<event>
 7    1  0.2285268E-015  0.9000745E+02  0.7816164E-02  0.1186340E+00
        -11   -1    0    0    0    0  0.00000000000E+00  0.00000000000E+00  0.45593999997E+02  0.45594000000E+02  0.51100000000E-03 0.  1.
         11   -1    0    0    0    0 -0.00000000000E+00 -0.00000000000E+00 -0.45593999997E+02  0.45594000000E+02  0.51100000000E-03 0. -1.
    9900012    2    1    2    0    0 -0.89706376379E+00 -0.66656565528E+00  0.38033884267E+00  0.90007453176E+02  0.89999710757E+02 0.  0.
         12    1    1    2    0    0  0.89706376379E+00  0.66656565528E+00 -0.38033884267E+00  0.11805468243E+01  0.00000000000E+00 0. -1.
         11    1    3    3    0    0 -0.51480688540E+01  0.20582027179E+01  0.86906951890E+01  0.10308588385E+02  0.51100000000E-03 0. -1.
        -11    1    3    3    0    0 -0.24461251289E+02  0.45567945353E+01  0.24897651330E+02  0.35199577172E+02  0.51100000000E-03 0.  1.
         12    1    3    3    0    0  0.28712256380E+02 -0.72815629085E+01 -0.33208007676E+02  0.44499287619E+02  0.00000000000E+00 0. -1.
</event>
<event>
 7    1  0.2285268E-015  0.9000776E+02  0.7816164E-02  0.1186339E+00
        -11   -1    0    0    0    0  0.00000000000E+00  0.00000000000E+00  0.45593999997E+02  0.45594000000E+02  0.51100000000E-03 0. -1.
         11   -1    0    0    0    0 -0.00000000000E+00 -0.00000000000E+00 -0.45593999997E+02  0.45594000000E+02  0.51100000000E-03 0.  1.
    9900012    2    1    2    0    0 -0.97890387329E-01  0.47474153395E+00 -0.10761106094E+01  0.90007755917E+02  0.90000017495E+02 0.  0.
         12    1    1    2    0    0  0.97890387329E-01 -0.47474153395E+00  0.10761106094E+01  0.11802440830E+01  0.00000000000E+00 0. -1.
         11    1    3    3    0    0  0.25352393861E+02 -0.18287685228E+02 -0.29835839118E+02  0.43212967979E+02  0.51100000000E-03 0. -1.
        -11    1    3    3    0    0 -0.65924011994E+01 -0.24538650926E+01  0.10243283693E+01  0.71084777791E+01  0.51100000000E-03 0.  1.
        -12    1    3    3    0    0 -0.18857883049E+02  0.21216291854E+02  0.27735400139E+02  0.39686310159E+02  0.00000000000E+00 0.  1.
</event>
<event>
 7    1  0.2285268E-015  0.9000776E+02  0.7816164E-02  0.1186339E+00
        -11   -1    0    0    0    0  0.00000000000E+00  0.00000000000E+00  0.45593999997E+02  0.45594000000E+02  0.51100000000E-03 0. -1.
         11   -1    0    0    0    0 -0.00000000000E+00 -0.00000000000E+00 -0.45593999997E+02  0.45594000000E+02  0.51100000000E-03 0.  1.
    9900012    2    1    2    0    0 -0.77776937666E+00 -0.54224589987E+00 -0.70285229071E+00  0.90007763938E+02  0.90000025622E+02 0.  0.
         12    1    1    2    0    0  0.77776937666E+00  0.54224589987E+00  0.70285229071E+00  0.11802360619E+01  0.00000000000E+00 0. -1.
         11    1    3    3    0    0  0.32051170720E+02  0.21568130575E+02  0.12466054505E+02  0.40593895061E+02  0.51100000000E-03 0. -1.
        -11    1    3    3    0    0  0.23363037570E+01 -0.10248216542E+02 -0.31580323367E+01  0.10975309838E+02  0.51100000000E-03 0.  1.
        -12    1    3    3    0    0 -0.35165243854E+02 -0.11862159933E+02 -0.10010874459E+02  0.38438559039E+02  0.00000000000E+00 0.  1.
</event>
<event>
 7    1  0.2285268E-015  0.9000774E+02  0.7816164E-02  0.1186339E+00
        -11   -1    0    0    0    0  0.00000000000E+00  0.00000000000E+00  0.45593999997E+02  0.45594000000E+02  0.51100000000E-03 0.  1.
         11   -1    0    0    0    0 -0.00000000000E+00 -0.00000000000E+00 -0.45593999997E+02  0.45594000000E+02  0.51100000000E-03 0. -1.
    9900012    2    1    2    0    0  0.62934536614E+00  0.79910846861E+00  0.59862934783E+00  0.90007742812E+02  0.90000004217E+02 0.  0.
         12    1    1    2    0    0 -0.62934536614E+00 -0.79910846861E+00 -0.59862934783E+00  0.11802571883E+01  0.00000000000E+00 0. -1.
         11    1    3    3    0    0 -0.28934243993E+01  0.20649681273E+02 -0.76257800228E+01  0.22202111671E+02  0.51100000000E-03 0. -1.
        -11    1    3    3    0    0  0.25562518469E+01  0.23464299213E+02 -0.50854775447E+00  0.23608608221E+02  0.51100000000E-03 0.  1.
        -12    1    3    3    0    0  0.96651791847E+00 -0.43314872018E+02  0.87329571251E+01  0.44197022919E+02  0.00000000000E+00 0.  1.
</event>
<event>
 7    1  0.2285268E-015  0.9000785E+02  0.7816164E-02  0.1186339E+00
        -11   -1    0    0    0    0  0.00000000000E+00  0.00000000000E+00  0.45593999997E+02  0.45594000000E+02  0.51100000000E-03 0. -1.
         11   -1    0    0    0    0 -0.00000000000E+00 -0.00000000000E+00 -0.45593999997E+02  0.45594000000E+02  0.51100000000E-03 0.  1.
    9900012    2    1    2    0    0 -0.96090828889E+00  0.67397709845E+00  0.12310391582E+00  0.90007854059E+02  0.90000116932E+02 0.  0.
         12    1    1    2    0    0  0.96090828889E+00 -0.67397709845E+00 -0.12310391582E+00  0.11801459414E+01  0.00000000000E+00 0. -1.
         11    1    3    3    0    0  0.17552005958E+02  0.29546962256E+02 -0.11361585044E+02  0.36196429475E+02  0.51100000000E-03 0. -1.
        -11    1    3    3    0    0  0.11804294906E+02 -0.41267948965E+01  0.72345993798E+01  0.14446841966E+02  0.51100000000E-03 0.  1.
        -12    1    3    3    0    0 -0.30317209153E+02 -0.24746190261E+02  0.42500895804E+01  0.39364582618E+02  0.00000000000E+00 0.  1.
</event>
<event>
 7    1  0.2285268E-015  0.9000776E+02  0.7816164E-02  0.1186339E+00
        -11   -1    0    0    0    0  0.00000000000E+00  0.00000000000E+00  0.45593999997E+02  0.45594000000E+02  0.51100000000E-03 0. -1.
         11   -1    0    0    0    0 -0.00000000000E+00 -0.00000000000E+00 -0.45593999997E+02  0.45594000000E+02  0.51100000000E-03 0.  1.
    9900012    2    1    2    0    0 -0.78215145444E+00 -0.88090858215E+00 -0.72087435965E-01  0.90007763826E+02  0.90000025509E+02 0.  0.
         12    1    1    2    0    0  0.78215145444E+00  0.88090858215E+00  0.72087435965E-01  0.11802361739E+01  0.00000000000E+00 0. -1.
         11    1    3    3    0    0 -0.49674625339E+01 -0.20695281732E+01  0.83754515782E+01  0.99552408452E+01  0.51100000000E-03 0. -1.
        -11    1    3    3    0    0 -0.29223157678E+02  0.22399589343E+02 -0.15332259570E+02  0.39884993810E+02  0.51100000000E-03 0.  1.
         12    1    3    3    0    0  0.33408468758E+02 -0.21210969752E+02  0.68847205563E+01  0.40167529171E+02  0.00000000000E+00 0. -1.
</event>
<event>
 7    1  0.2285268E-015  0.9000778E+02  0.7816164E-02  0.1186339E+00
        -11   -1    0    0    0    0  0.00000000000E+00  0.00000000000E+00  0.45593999997E+02  0.45594000000E+02  0.51100000000E-03 0. -1.
         11   -1    0    0    0    0 -0.00000000000E+00 -0.00000000000E+00 -0.45593999997E+02  0.45594000000E+02  0.51100000000E-03 0.  1.
    9900012    2    1    2    0    0 -0.81335658388E+00  0.62527876565E+00 -0.58343822922E+00  0.90007778565E+02  0.90000040442E+02 0.  0.
         12    1    1    2    0    0  0.81335658388E+00 -0.62527876565E+00  0.58343822922E+00  0.11802214346E+01  0.00000000000E+00 0. -1.
         11    1    3    3    0    0  0.26120142749E+02 -0.13704078467E+02 -0.24203863541E+01  0.29595977670E+02  0.51100000000E-03 0. -1.
        -11    1    3    3    0    0 -0.33478312838E+01  0.21195294813E+02  0.20411165161E+02  0.29615269035E+02  0.51100000000E-03 0.  1.
        -12    1    3    3    0    0 -0.23585668049E+02 -0.68659375804E+01 -0.18574217036E+02  0.30796531861E+02  0.00000000000E+00 0.  1.
</event>
<event>
 7    1  0.2285268E-015  0.9000766E+02  0.7816164E-02  0.1186339E+00
        -11   -1    0    0    0    0  0.00000000000E+00  0.00000000000E+00  0.45593999997E+02  0.45594000000E+02  0.51100000000E-03 0.  1.
         11   -1    0    0    0    0 -0.00000000000E+00 -0.00000000000E+00 -0.45593999997E+02  0.45594000000E+02  0.51100000000E-03 0. -1.
    9900012    2    1    2    0    0 -0.77830886494E+00  0.55267279079E+00 -0.69424979725E+00  0.90007663318E+02  0.89999923673E+02 0.  0.
         12    1    1    2    0    0  0.77830886494E+00 -0.55267279079E+00  0.69424979725E+00  0.11803366824E+01  0.00000000000E+00 0. -1.
         11    1    3    3    0    0  0.17422018832E+01 -0.50640780493E+01  0.70267135864E+01  0.88348660419E+01  0.51100000000E-03 0. -1.
        -11    1    3    3    0    0  0.20989328986E+02  0.36157996794E+02  0.27857963029E+00  0.41809451925E+02  0.51100000000E-03 0.  1.
         12    1    3    3    0    0 -0.23509839734E+02 -0.30541245954E+02 -0.79995430140E+01  0.39363345350E+02  0.00000000000E+00 0. -1.
</event>
<event>
 7    1  0.2285268E-015  0.9000778E+02  0.7816164E-02  0.1186339E+00
        -11   -1    0    0    0    0  0.00000000000E+00  0.00000000000E+00  0.45593999997E+02  0.45594000000E+02  0.51100000000E-03 0. -1.
         11   -1    0    0    0    0 -0.00000000000E+00 -0.00000000000E+00 -0.45593999997E+02  0.45594000000E+02  0.51100000000E-03 0.  1.
    9900012    2    1    2    0    0 -0.17033311697E+00  0.10678160895E+01  0.47293228315E+00  0.90007784123E+02  0.90000046073E+02 0.  0.
         12    1    1    2    0    0  0.17033311697E+00 -0.10678160895E+01 -0.47293228315E+00  0.11802158769E+01  0.00000000000E+00 0. -1.
         11    1    3    3    0    0 -0.53913757780E+00 -0.12048962669E+01 -0.87340856022E+01  0.88332720953E+01  0.51100000000E-03 0. -1.
        -11    1    3    3    0    0  0.56518613795E+01  0.40832883386E+02  0.92809592982E+01  0.42254042509E+02  0.51100000000E-03 0.  1.
         12    1    3    3    0    0 -0.52830569187E+01 -0.38560171029E+02 -0.73941412809E-01  0.38920469518E+02  0.00000000000E+00 0. -1.
</event>
<event>
 7    1  0.2285268E-015  0.9000754E+02  0.7816164E-02  0.1186339E+00
        -11   -1    0    0    0    0  0.00000000000E+00  0.00000000000E+00  0.45593999997E+02  0.45594000000E+02  0.51100000000E-03 0.  1.
         11   -1    0    0    0    0 -0.00000000000E+00 -0.00000000000E+00 -0.45593999997E+02  0.45594000000E+02  0.51100000000E-03 0. -1.
    9900012    2    1    2    0    0  0.30378397193E+00 -0.49848444182E-01  0.11396135018E+01  0.90007538860E+02  0.89999797573E+02 0.  0.
         12    1    1    2    0    0 -0.30378397193E+00  0.49848444182E-01 -0.11396135018E+01  0.11804611398E+01  0.00000000000E+00 0. -1.
         11    1    3    3    0    0  0.38586666815E+01  0.58649999730E+01  0.63367360009E+01  0.94573652065E+01  0.51100000000E-03 0. -1.
        -11    1    3    3    0    0  0.38137653628E+02 -0.13819125665E+01  0.88658645253E+00  0.38172979218E+02  0.51100000000E-03 0.  1.
         12    1    3    3    0    0 -0.41692536337E+02 -0.45329358507E+01 -0.60837089516E+01  0.42377194436E+02  0.00000000000E+00 0. -1.
</event>
<event>
 7    1  0.2285268E-015  0.9000776E+02  0.7816164E-02  0.1186339E+00
        -11   -1    0    0    0    0  0.00000000000E+00  0.00000000000E+00  0.45593999997E+02  0.45594000000E+02  0.51100000000E-03 0.  1.
         11   -1    0    0    0    0 -0.00000000000E+00 -0.00000000000E+00 -0.45593999997E+02  0.45594000000E+02  0.51100000000E-03 0. -1.
    9900012    2    1    2    0    0 -0.17371511809E+00 -0.96836332142E+00  0.65197051405E+00  0.90007758493E+02  0.90000020105E+02 0.  0.
         12    1    1    2    0    0  0.17371511809E+00  0.96836332142E+00 -0.65197051405E+00  0.11802415074E+01  0.00000000000E+00 0. -1.
         11    1    3    3    0    0 -0.59193367891E+00  0.90069719082E+01  0.52907192348E+00  0.90418939276E+01  0.51100000000E-03 0. -1.
        -11    1    3    3    0    0 -0.36457186888E+02 -0.16197093335E+02  0.12117110260E+02  0.41692885120E+02  0.51100000000E-03 0.  1.
         12    1    3    3    0    0  0.36875405449E+02  0.62217581057E+01 -0.11994211670E+02  0.39272979445E+02  0.00000000000E+00 0. -1.
</event>
<event>
 7    1  0.2285268E-015  0.9000784E+02  0.7816164E-02  0.1186339E+00
        -11   -1    0    0    0    0  0.00000000000E+00  0.00000000000E+00  0.45593999997E+02  0.45594000000E+02  0.51100000000E-03 0.  1.
         11   -1    0    0    0    0 -0.00000000000E+00 -0.00000000000E+00 -0.45593999997E+02  0.45594000000E+02  0.51100000000E-03 0. -1.
    9900012    2    1    2    0    0 -0.20823747590E+00 -0.49406027820E+00  0.10513451829E+01  0.90007836834E+02  0.90000099480E+02 0.  0.
         12    1    1    2    0    0  0.20823747590E+00  0.49406027820E+00 -0.10513451829E+01  0.11801631660E+01  0.00000000000E+00 0. -1.
         11    1    3    3    0    0 -0.27486581570E+02  0.28716883090E+02  0.53824481013E+01  0.40114115827E+02  0.51100000000E-03 0. -1.
        -11    1    3    3    0    0  0.76716140694E+01  0.53289657928E+01  0.23179057717E+01  0.96241480806E+01  0.51100000000E-03 0.  1.
        -12    1    3    3    0    0  0.19606730024E+02 -0.34539909161E+02 -0.66490086902E+01  0.40269572926E+02  0.00000000000E+00 0.  1.
</event>
<event>
 7    1  0.2285268E-015  0.9000769E+02  0.7816164E-02  0.1186339E+00
        -11   -1    0    0    0    0  0.00000000000E+00  0.00000000000E+00  0.45593999997E+02  0.45594000000E+02  0.51100000000E-03 0.  1.
         11   -1    0    0    0    0 -0.00000000000E+00 -0.00000000000E+00 -0.45593999997E+02  0.45594000000E+02  0.51100000000E-03 0. -1.
    9900012    2    1    2    0    0  0.15137443372E+00 -0.41806751439E+00  0.10933564565E+01  0.90007693681E+02  0.89999954438E+02 0.  0.
         12    1    1    2    0    0 -0.15137443372E+00  0.41806751439E+00 -0.10933564565E+01  0.11803063190E+01  0.00000000000E+00 0. -1.
         11    1    3    3    0    0  0.78343287676E+01 -0.21824605239E+01 -0.21813134772E+01  0.84200932254E+01  0.51100000000E-03 0. -1.
        -11    1    3    3    0    0  0.18786655050E+02 -0.46387753456E+01  0.34867509653E+02  0.39877310269E+02  0.51100000000E-03 0.  1.
         12    1    3    3    0    0 -0.26469609384E+02  0.64031683551E+01 -0.31592839719E+02  0.41710290186E+02  0.00000000000E+00 0. -1.
</event>
<event>
 7    1  0.2285268E-015  0.9000779E+02  0.7816164E-02  0.1186339E+00
        -11   -1    0    0    0    0  0.00000000000E+00  0.00000000000E+00  0.45593999997E+02  0.45594000000E+02  0.51100000000E-03 0.  1.
         11   -1    0    0    0    0 -0.00000000000E+00 -0.00000000000E+00 -0.45593999997E+02  0.45594000000E+02  0.51100000000E-03 0. -1.
    9900012    2    1    2    0    0 -0.30275997758E+00 -0.11404777453E+01  0.23427964780E-01  0.90007787324E+02  0.90000049316E+02 0.  0.
         12    1    1    2    0    0  0.30275997758E+00  0.11404777453E+01 -0.23427964780E-01  0.11802126762E+01  0.00000000000E+00 0. -1.
         11    1    3    3    0    0 -0.47523648304E+01 -0.17161679014E+02 -0.28990098492E+00  0.17809891659E+02  0.51100000000E-03 0. -1.
        -11    1    3    3    0    0  0.33335228111E+02  0.94953515107E+01 -0.16234205400E+02  0.38274646423E+02  0.51100000000E-03 0.  1.
         12    1    3    3    0    0 -0.28885623259E+02  0.65258497576E+01  0.16547534350E+02  0.33923249242E+02  0.00000000000E+00 0. -1.
</event>
<event>
 7    1  0.2285268E-015  0.9000773E+02  0.7816164E-02  0.1186339E+00
        -11   -1    0    0    0    0  0.00000000000E+00  0.00000000000E+00  0.45593999997E+02  0.45594000000E+02  0.51100000000E-03 0.  1.
         11   -1    0    0    0    0 -0.00000000000E+00 -0.00000000000E+00 -0.45593999997E+02  0.45594000000E+02  0.51100000000E-03 0. -1.
    9900012    2    1    2    0    0  0.10237697554E+00  0.94806928226E+00  0.69550176370E+00  0.90007729221E+02  0.89999990446E+02 0.  0.
         12    1    1    2    0    0 -0.10237697554E+00 -0.94806928226E+00 -0.69550176370E+00  0.11802707793E+01  0.00000000000E+00 0. -1.
         11    1    3    3    0    0  0.33491755171E+02 -0.96247645678E+01  0.11141121506E+02  0.36584946987E+02  0.51100000000E-03 0. -1.
        -11    1    3    3    0    0  0.83979120120E+01  0.46136118663E+01 -0.51606717169E+01  0.10883146303E+02  0.51100000000E-03 0.  1.
        -12    1    3    3    0    0 -0.41787290207E+02  0.59592219838E+01 -0.52849480252E+01  0.42539635931E+02  0.00000000000E+00 0.  1.
</event>
<event>
 7    1  0.2285268E-015  0.9000777E+02  0.7816164E-02  0.1186339E+00
        -11   -1    0    0    0    0  0.00000000000E+00  0.00000000000E+00  0.45593999997E+02  0.45594000000E+02  0.51100000000E-03 0. -1.
         11   -1    0    0    0    0 -0.00000000000E+00 -0.00000000000E+00 -0.45593999997E+02  0.45594000000E+02  0.51100000000E-03 0.  1.
    9900012    2    1    2    0    0  0.11201450661E+01  0.30256604541E+00  0.21602995948E+00  0.90007771156E+02  0.90000032935E+02 0.  0.
         12    1    1    2    0    0 -0.11201450661E+01 -0.30256604541E+00 -0.21602995948E+00  0.11802288440E+01  0.00000000000E+00 0. -1.
         11    1    3    3    0    0 -0.47127472172E+01 -0.50100579590E+01  0.61560892910E+01  0.92308235118E+01  0.51100000000E-03 0. -1.
        -11    1    3    3    0    0 -0.29124265394E+02  0.21972331088E+02  0.11576269950E+02  0.38275529968E+02  0.51100000000E-03 0.  1.
         12    1    3    3    0    0  0.34957157677E+02 -0.16659707084E+02 -0.17516329281E+02  0.42501417676E+02  0.00000000000E+00 0. -1.
</event>
<event>
 7    1  0.2285268E-015  0.9000776E+02  0.7816164E-02  0.1186339E+00
        -11   -1    0    0    0    0  0.00000000000E+00  0.00000000000E+00  0.45593999997E+02  0.45594000000E+02  0.51100000000E-03 0.  1.
         11   -1    0    0    0    0 -0.00000000000E+00 -0.00000000000E+00 -0.45593999997E+02  0.45594000000E+02  0.51100000000E-03 0. -1.
    9900012    2    1    2    0    0  0.49603246415E+00 -0.60892038596E+00  0.88098570131E+00  0.90007759326E+02  0.90000020949E+02 0.  0.
         12    1    1    2    0    0 -0.49603246415E+00  0.60892038596E+00 -0.88098570131E+00  0.11802406737E+01  0.00000000000E+00 0. -1.
         11    1    3    3    0    0  0.12340346461E+01  0.35845384140E+02 -0.94432852303E+01  0.37088947705E+02  0.51100000000E-03 0. -1.
        -11    1    3    3    0    0  0.50169783251E+01  0.30530554925E+01 -0.72223387139E+01  0.93087805922E+01  0.51100000000E-03 0.  1.
        -12    1    3    3    0    0 -0.57549805071E+01 -0.39507360019E+02  0.17546609645E+02  0.43610031029E+02  0.00000000000E+00 0.  1.
</event>
<event>
 7    1  0.2285268E-015  0.9000766E+02  0.7816164E-02  0.1186339E+00
        -11   -1    0    0    0    0  0.00000000000E+00  0.00000000000E+00  0.45593999997E+02  0.45594000000E+02  0.51100000000E-03 0. -1.
         11   -1    0    0    0    0 -0.00000000000E+00 -0.00000000000E+00 -0.45593999997E+02  0.45594000000E+02  0.51100000000E-03 0.  1.
    9900012    2    1    2    0    0  0.61141221020E+00 -0.76472119241E+00 -0.65922877530E+00  0.90007658536E+02  0.89999918829E+02 0.  0.
         12    1    1    2    0    0 -0.61141221020E+00  0.76472119241E+00  0.65922877530E+00  0.11803414638E+01  0.00000000000E+00 0. -1.
         11    1    3    3    0    0  0.16579612009E+02  0.23643218617E+02  0.20121041221E+02  0.35195761407E+02  0.51100000000E-03 0. -1.
        -11    1    3    3    0    0 -0.99644618058E+01  0.10855963537E+02 -0.83819859427E+01  0.16952879755E+02  0.51100000000E-03 0.  1.
        -12    1    3    3    0    0 -0.60037379929E+01 -0.35263903346E+02 -0.12398284054E+02  0.37859017374E+02  0.00000000000E+00 0.  1.
</event>
<event>
 7    1  0.2285268E-015  0.9000773E+02  0.7816164E-02  0.1186339E+00
        -11   -1    0    0    0    0  0.00000000000E+00  0.00000000000E+00  0.45593999997E+02  0.45594000000E+02  0.51100000000E-03 0.  1.
         11   -1    0    0    0    0 -0.00000000000E+00 -0.00000000000E+00 -0.45593999997E+02  0.45594000000E+02  0.51100000000E-03 0. -1.
    9900012    2    1    2    0    0  0.76715398292E+00  0.81552371890E+00  0.37340443177E+00  0.90007730946E+02  0.89999992195E+02 0.  0.
         12    1    1    2    0    0 -0.76715398292E+00 -0.81552371890E+00 -0.37340443177E+00  0.11802690538E+01  0.00000000000E+00 0. -1.
         11    1    3    3    0    0  0.19067844102E+01 -0.82779418123E+01  0.68241293415E+01  0.10896278675E+02  0.51100000000E-03 0. -1.
        -11    1    3    3    0    0  0.32903823684E+02 -0.15838324575E+02 -0.69317003237E+00  0.36523891131E+02  0.51100000000E-03 0.  1.
         12    1    3    3    0    0 -0.34043454111E+02  0.24931790107E+02 -0.57575548773E+01  0.42587561141E+02  0.00000000000E+00 0. -1.
</event>
<event>
 7    1  0.2285268E-015  0.9000771E+02  0.7816164E-02  0.1186339E+00
        -11   -1    0    0    0    0  0.00000000000E+00  0.00000000000E+00  0.45593999997E+02  0.45594000000E+02  0.51100000000E-03 0. -1.
         11   -1    0    0    0    0 -0.00000000000E+00 -0.00000000000E+00 -0.45593999997E+02  0.45594000000E+02  0.51100000000E-03 0.  1.
    9900012    2    1    2    0    0 -0.22442646310E+00 -0.53034390532E+00 -0.10302684687E+01  0.90007709776E+02  0.89999970745E+02 0.  0.
         12    1    1    2    0    0  0.22442646310E+00  0.53034390532E+00  0.10302684687E+01  0.11802902240E+01  0.00000000000E+00 0. -1.
         11    1    3    3    0    0  0.11621992447E+02 -0.29183056597E+01 -0.11305688267E+01  0.12036004424E+02  0.51100000000E-03 0. -1.
        -11    1    3    3    0    0  0.12096074021E+01 -0.36629546211E+02  0.26768850968E+01  0.36747143016E+02  0.51100000000E-03 0.  1.
         12    1    3    3    0    0 -0.13056026312E+02  0.39017507966E+02 -0.25765847388E+01  0.41224562337E+02  0.00000000000E+00 0. -1.
</event>
<event>
 7    1  0.2285268E-015  0.9000772E+02  0.7816164E-02  0.1186339E+00
        -11   -1    0    0    0    0  0.00000000000E+00  0.00000000000E+00  0.45593999997E+02  0.45594000000E+02  0.51100000000E-03 0. -1.
         11   -1    0    0    0    0 -0.00000000000E+00 -0.00000000000E+00 -0.45593999997E+02  0.45594000000E+02  0.51100000000E-03 0.  1.
    9900012    2    1    2    0    0 -0.11015551779E+01 -0.22798154522E+00 -0.35728262689E+00  0.90007724494E+02  0.89999985657E+02 0.  0.
         12    1    1    2    0    0  0.11015551779E+01  0.22798154522E+00  0.35728262689E+00  0.11802755062E+01  0.00000000000E+00 0. -1.
         11    1    3    3    0    0 -0.34559766665E+01 -0.33684065188E+02 -0.11918658472E+02  0.35897276252E+02  0.51100000000E-03 0. -1.
        -11    1    3    3    0    0  0.42551303144E+00 -0.83041880438E+01 -0.43448807751E+01  0.93818222973E+01  0.51100000000E-03 0.  1.
        -12    1    3    3    0    0  0.19289084571E+01  0.41760271687E+02  0.15906256621E+02  0.44728625944E+02  0.00000000000E+00 0.  1.
</event>
<event>
 7    1  0.2285268E-015  0.9000776E+02  0.7816164E-02  0.1186339E+00
        -11   -1    0    0    0    0  0.00000000000E+00  0.00000000000E+00  0.45593999997E+02  0.45594000000E+02  0.51100000000E-03 0.  1.
         11   -1    0    0    0    0 -0.00000000000E+00 -0.00000000000E+00 -0.45593999997E+02  0.45594000000E+02  0.51100000000E-03 0. -1.
    9900012    2    1    2    0    0  0.27735063290E+00 -0.85906947816E+00  0.76029657608E+00  0.90007756540E+02  0.90000018126E+02 0.  0.
         12    1    1    2    0    0 -0.27735063290E+00  0.85906947816E+00 -0.76029657608E+00  0.11802434603E+01  0.00000000000E+00 0. -1.
         11    1    3    3    0    0 -0.81742300438E+01  0.28859100829E+01 -0.62182922479E+01  0.10668349102E+02  0.51100000000E-03 0. -1.
        -11    1    3    3    0    0 -0.21375256474E+02  0.83660621463E+01  0.31426229497E+02  0.38916583686E+02  0.51100000000E-03 0.  1.
         12    1    3    3    0    0  0.29826837150E+02 -0.12111041707E+02 -0.24447640673E+02  0.40422823752E+02  0.00000000000E+00 0. -1.
</event>
<event>
 7    1  0.2285268E-015  0.9000784E+02  0.7816164E-02  0.1186339E+00
        -11   -1    0    0    0    0  0.00000000000E+00  0.00000000000E+00  0.45593999997E+02  0.45594000000E+02  0.51100000000E-03 0.  1.
         11   -1    0    0    0    0 -0.00000000000E+00 -0.00000000000E+00 -0.45593999997E+02  0.45594000000E+02  0.51100000000E-03 0. -1.
    9900012    2    1    2    0    0  0.11249568517E+01  0.31973467759E+00  0.15819145641E+00  0.90007837842E+02  0.90000100502E+02 0.  0.
         12    1    1    2    0    0 -0.11249568517E+01 -0.31973467759E+00 -0.15819145641E+00  0.11801621579E+01  0.00000000000E+00 0. -1.
         11    1    3    3    0    0 -0.84930800620E+01 -0.55545181052E+01 -0.20417061270E+00  0.10150210157E+02  0.51100000000E-03 0. -1.
        -11    1    3    3    0    0 -0.17860107760E+02 -0.18019018920E+02  0.25216458653E+02  0.35770634315E+02  0.51100000000E-03 0.  1.
         12    1    3    3    0    0  0.27478144674E+02  0.23893271703E+02 -0.24854096584E+02  0.44086993370E+02  0.00000000000E+00 0. -1.
</event>
<event>
 7    1  0.2285268E-015  0.9000807E+02  0.7816164E-02  0.1186338E+00
        -11   -1    0    0    0    0  0.00000000000E+00  0.00000000000E+00  0.45593999997E+02  0.45594000000E+02  0.51100000000E-03 0. -1.
         11   -1    0    0    0    0 -0.00000000000E+00 -0.00000000000E+00 -0.45593999997E+02  0.45594000000E+02  0.51100000000E-03 0.  1.
    9900012    2    1    2    0    0  0.60669600906E+00  0.74170866928E+00 -0.68848660827E+00  0.90008073898E+02  0.90000339672E+02 0.  0.
         12    1    1    2    0    0 -0.60669600906E+00 -0.74170866928E+00  0.68848660827E+00  0.11799261025E+01  0.00000000000E+00 0. -1.
         11    1    3    3    0    0  0.23357472270E+02 -0.33665301656E+01  0.26361734555E+02  0.35381437015E+02  0.51100000000E-03 0. -1.
        -11    1    3    3    0    0  0.93707629681E+01  0.68777771318E+01  0.12971213746E+01  0.11696048093E+02  0.51100000000E-03 0.  1.
        -12    1    3    3    0    0 -0.32121539229E+02 -0.27695382969E+01 -0.28347342538E+02  0.42930588789E+02  0.00000000000E+00 0.  1.
</event>
<event>
 7    1  0.2285268E-015  0.9000780E+02  0.7816164E-02  0.1186339E+00
        -11   -1    0    0    0    0  0.00000000000E+00  0.00000000000E+00  0.45593999997E+02  0.45594000000E+02  0.51100000000E-03 0. -1.
         11   -1    0    0    0    0 -0.00000000000E+00 -0.00000000000E+00 -0.45593999997E+02  0.45594000000E+02  0.51100000000E-03 0.  1.
    9900012    2    1    2    0    0  0.52944332103E+00 -0.14575444581E+00 -0.10446583294E+01  0.90007802722E+02  0.90000064918E+02 0.  0.
         12    1    1    2    0    0 -0.52944332103E+00  0.14575444581E+00  0.10446583294E+01  0.11801972775E+01  0.00000000000E+00 0. -1.
         11    1    3    3    0    0  0.21249202140E+01 -0.17517570467E+02  0.30708463211E+02  0.35417372490E+02  0.51100000000E-03 0. -1.
        -11    1    3    3    0    0  0.51220216838E+01 -0.53583865545E+01  0.63208138324E+01  0.97416682536E+01  0.51100000000E-03 0.  1.
        -12    1    3    3    0    0 -0.67174985768E+01  0.22730202576E+02 -0.38073935373E+02  0.44848761979E+02  0.00000000000E+00 0.  1.
</event>
<event>
 7    1  0.2285268E-015  0.9000766E+02  0.7816164E-02  0.1186339E+00
        -11   -1    0    0    0    0  0.00000000000E+00  0.00000000000E+00  0.45593999997E+02  0.45594000000E+02  0.51100000000E-03 0. -1.
         11   -1    0    0    0    0 -0.00000000000E+00 -0.00000000000E+00 -0.45593999997E+02  0.45594000000E+02  0.51100000000E-03 0.  1.
    9900012    2    1    2    0    0 -0.88149298717E+00 -0.51444001036E+00 -0.59289822222E+00  0.90007658222E+02  0.89999918511E+02 0.  0.
         12    1    1    2    0    0  0.88149298717E+00  0.51444001036E+00  0.59289822222E+00  0.11803417779E+01  0.00000000000E+00 0. -1.
         11    1    3    3    0    0 -0.77995473138E+01  0.32581590453E+02 -0.16964262839E+02  0.37552352638E+02  0.51100000000E-03 0. -1.
        -11    1    3    3    0    0  0.32777623320E+01  0.79501471993E+01  0.35031791638E+01  0.92855172667E+01  0.51100000000E-03 0.  1.
        -12    1    3    3    0    0  0.36402919947E+01 -0.41046177662E+02  0.12868185453E+02  0.43169788317E+02  0.00000000000E+00 0.  1.
</event>
<event>
 7    1  0.2285268E-015  0.9000775E+02  0.7816164E-02  0.1186339E+00
        -11   -1    0    0    0    0  0.00000000000E+00  0.00000000000E+00  0.45593999997E+02  0.45594000000E+02  0.51100000000E-03 0. -1.
         11   -1    0    0    0    0 -0.00000000000E+00 -0.00000000000E+00 -0.45593999997E+02  0.45594000000E+02  0.51100000000E-03 0.  1.
    9900012    2    1    2    0    0 -0.12617630803E+00  0.70750306883E+00 -0.93621642418E+00  0.90007753311E+02  0.90000014855E+02 0.  0.
         12    1    1    2    0    0  0.12617630803E+00 -0.70750306883E+00  0.93621642418E+00  0.11802466886E+01  0.00000000000E+00 0. -1.
         11    1    3    3    0    0 -0.20942012677E+02 -0.43786072251E+01  0.31237916647E+02  0.37862217749E+02  0.51100000000E-03 0. -1.
        -11    1    3    3    0    0 -0.79058498352E+01 -0.52189295070E+01 -0.30207698804E+01  0.99430748638E+01  0.51100000000E-03 0.  1.
        -12    1    3    3    0    0  0.28721686204E+02  0.10305039801E+02 -0.29153363191E+02  0.42202460699E+02  0.00000000000E+00 0.  1.
</event>
<event>
 7    1  0.2285268E-015  0.9000778E+02  0.7816164E-02  0.1186339E+00
        -11   -1    0    0    0    0  0.00000000000E+00  0.00000000000E+00  0.45593999997E+02  0.45594000000E+02  0.51100000000E-03 0.  1.
         11   -1    0    0    0    0 -0.00000000000E+00 -0.00000000000E+00 -0.45593999997E+02  0.45594000000E+02  0.51100000000E-03 0. -1.
    9900012    2    1    2    0    0  0.85832099655E+00  0.14510254245E+00  0.79696326239E+00  0.90007779630E+02  0.90000041521E+02 0.  0.
         12    1    1    2    0    0 -0.85832099655E+00 -0.14510254245E+00 -0.79696326239E+00  0.11802203703E+01  0.00000000000E+00 0. -1.
         11    1    3    3    0    0  0.20181872339E+02 -0.32041400054E+02  0.16578573212E+01  0.37903928288E+02  0.51100000000E-03 0. -1.
        -11    1    3    3    0    0  0.12154727386E+01 -0.25305457832E+01 -0.10300690527E+02  0.10676388038E+02  0.51100000000E-03 0.  1.
        -12    1    3    3    0    0 -0.20539024081E+02  0.34717048380E+02  0.94397964685E+01  0.41427463303E+02  0.00000000000E+00 0.  1.
</event>
<event>
 7    1  0.2285268E-015  0.9000875E+02  0.7816164E-02  0.1186337E+00
        -11   -1    0    0    0    0  0.00000000000E+00  0.00000000000E+00  0.45593999997E+02  0.45594000000E+02  0.51100000000E-03 0. -1.
         11   -1    0    0    0    0 -0.00000000000E+00 -0.00000000000E+00 -0.45593999997E+02  0.45594000000E+02  0.51100000000E-03 0.  1.
    9900012    2    1    2    0    0 -0.52731524683E+00  0.10546117668E+01 -0.19246357139E-01  0.90008746944E+02  0.90001021598E+02 0.  0.
         12    1    1    2    0    0  0.52731524683E+00 -0.10546117668E+01  0.19246357139E-01  0.11792530561E+01  0.00000000000E+00 0. -1.
         11    1    3    3    0    0 -0.61303944494E+01  0.34463702168E+02 -0.20208819713E+02  0.40419362906E+02  0.51100000000E-03 0. -1.
        -11    1    3    3    0    0  0.31202243614E+00  0.39778287506E+01  0.95646628363E+01  0.10363554169E+02  0.51100000000E-03 0.  1.
        -12    1    3    3    0    0  0.52910567664E+01 -0.37386919152E+02  0.10624910520E+02  0.39225829869E+02  0.00000000000E+00 0.  1.
</event>
<event>
 7    1  0.2285268E-015  0.9000773E+02  0.7816164E-02  0.1186339E+00
        -11   -1    0    0    0    0  0.00000000000E+00  0.00000000000E+00  0.45593999997E+02  0.45594000000E+02  0.51100000000E-03 0.  1.
         11   -1    0    0    0    0 -0.00000000000E+00 -0.00000000000E+00 -0.45593999997E+02  0.45594000000E+02  0.51100000000E-03 0. -1.
    9900012    2    1    2    0    0 -0.10780359982E+01  0.11481657291E+00  0.46657866831E+00  0.90007728797E+02  0.89999990017E+02 0.  0.
         12    1    1    2    0    0  0.10780359982E+01 -0.11481657291E+00 -0.46657866831E+00  0.11802712030E+01  0.00000000000E+00 0. -1.
         11    1    3    3    0    0 -0.15157753051E+02 -0.21778496553E+02 -0.27135613292E+02  0.37952627032E+02  0.51100000000E-03 0. -1.
        -11    1    3    3    0    0  0.20011663428E+01 -0.91691234708E+01  0.10508711050E+01  0.94436127777E+01  0.51100000000E-03 0.  1.
        -12    1    3    3    0    0  0.12078550710E+02  0.31062436596E+02  0.26551320855E+02  0.42611488987E+02  0.00000000000E+00 0.  1.
</event>
<event>
 7    1  0.2285268E-015  0.9000764E+02  0.7816164E-02  0.1186339E+00
        -11   -1    0    0    0    0  0.00000000000E+00  0.00000000000E+00  0.45593999997E+02  0.45594000000E+02  0.51100000000E-03 0.  1.
         11   -1    0    0    0    0 -0.00000000000E+00 -0.00000000000E+00 -0.45593999997E+02  0.45594000000E+02  0.51100000000E-03 0. -1.
    9900012    2    1    2    0    0 -0.68398410422E+00  0.48779545904E+00  0.82913838172E+00  0.90007640258E+02  0.89999900309E+02 0.  0.
         12    1    1    2    0    0  0.68398410422E+00 -0.48779545904E+00 -0.82913838172E+00  0.11803597421E+01  0.00000000000E+00 0. -1.
         11    1    3    3    0    0 -0.59261777361E+01 -0.26489217172E+02 -0.29303207609E+02  0.39943412290E+02  0.51100000000E-03 0. -1.
        -11    1    3    3    0    0 -0.98063681885E+01  0.43689507452E+01  0.19234416373E+01  0.10906521703E+02  0.51100000000E-03 0.  1.
        -12    1    3    3    0    0  0.15048561820E+02  0.22608061886E+02  0.28208904353E+02  0.39157706265E+02  0.00000000000E+00 0.  1.
</event>
<event>
 7    1  0.2285268E-015  0.9000756E+02  0.7816164E-02  0.1186339E+00
        -11   -1    0    0    0    0  0.00000000000E+00  0.00000000000E+00  0.45593999997E+02  0.45594000000E+02  0.51100000000E-03 0. -1.
         11   -1    0    0    0    0 -0.00000000000E+00 -0.00000000000E+00 -0.45593999997E+02  0.45594000000E+02  0.51100000000E-03 0.  1.
    9900012    2    1    2    0    0 -0.30835620582E+00  0.52638571854E+00 -0.10105828322E+01  0.90007558076E+02  0.89999817043E+02 0.  0.
         12    1    1    2    0    0  0.30835620582E+00 -0.52638571854E+00  0.10105828322E+01  0.11804419237E+01  0.00000000000E+00 0. -1.
         11    1    3    3    0    0  0.31019695922E+02 -0.14144809894E+01  0.19822134711E+02  0.36839371823E+02  0.51100000000E-03 0. -1.
        -11    1    3    3    0    0  0.57800867363E+01 -0.75490058555E+01  0.12189374835E+00  0.95085093697E+01  0.51100000000E-03 0.  1.
        -12    1    3    3    0    0 -0.37108138864E+02  0.94898725635E+01 -0.20954611291E+02  0.43659676884E+02  0.00000000000E+00 0.  1.
</event>
<event>
 7    1  0.2285268E-015  0.9000776E+02  0.7816164E-02  0.1186339E+00
        -11   -1    0    0    0    0  0.00000000000E+00  0.00000000000E+00  0.45593999997E+02  0.45594000000E+02  0.51100000000E-03 0. -1.
         11   -1    0    0    0    0 -0.00000000000E+00 -0.00000000000E+00 -0.45593999997E+02  0.45594000000E+02  0.51100000000E-03 0.  1.
    9900012    2    1    2    0    0 -0.10870096018E+01  0.43839169291E+00  0.13852425775E+00  0.90007760143E+02  0.90000021777E+02 0.  0.
         12    1    1    2    0    0  0.10870096018E+01 -0.43839169291E+00 -0.13852425775E+00  0.11802398573E+01  0.00000000000E+00 0. -1.
         11    1    3    3    0    0 -0.27754796902E+02 -0.17381494137E+02  0.21117011328E+02  0.38966309258E+02  0.51100000000E-03 0. -1.
        -11    1    3    3    0    0 -0.26823366780E+01  0.48485098866E+01  0.66791480588E+01  0.86783637414E+01  0.51100000000E-03 0.  1.
        -12    1    3    3    0    0  0.29350123978E+02  0.12971375943E+02 -0.27657635129E+02  0.42363087143E+02  0.00000000000E+00 0.  1.
</event>
<event>
 7    1  0.2285268E-015  0.9000781E+02  0.7816164E-02  0.1186339E+00
        -11   -1    0    0    0    0  0.00000000000E+00  0.00000000000E+00  0.45593999997E+02  0.45594000000E+02  0.51100000000E-03 0. -1.
         11   -1    0    0    0    0 -0.00000000000E+00 -0.00000000000E+00 -0.45593999997E+02  0.45594000000E+02  0.51100000000E-03 0.  1.
    9900012    2    1    2    0    0  0.18154093202E+00 -0.10610818395E+01 -0.48373661645E+00  0.90007808111E+02  0.90000070378E+02 0.  0.
         12    1    1    2    0    0 -0.18154093202E+00  0.10610818395E+01  0.48373661645E+00  0.11801918887E+01  0.00000000000E+00 0. -1.
         11    1    3    3    0    0  0.38573894390E+01  0.18943411147E+01 -0.97392335198E+01  0.10645217300E+02  0.51100000000E-03 0. -1.
        -11    1    3    3    0    0 -0.17271267227E+02  0.28789137002E+02 -0.15394876663E+02  0.36933904596E+02  0.51100000000E-03 0.  1.
         12    1    3    3    0    0  0.13595418720E+02 -0.31744559957E+02  0.24650373566E+02  0.42428686216E+02  0.00000000000E+00 0. -1.
</event>
<event>
 7    1  0.2285268E-015  0.9000775E+02  0.7816164E-02  0.1186339E+00
        -11   -1    0    0    0    0  0.00000000000E+00  0.00000000000E+00  0.45593999997E+02  0.45594000000E+02  0.51100000000E-03 0.  1.
         11   -1    0    0    0    0 -0.00000000000E+00 -0.00000000000E+00 -0.45593999997E+02  0.45594000000E+02  0.51100000000E-03 0. -1.
    9900012    2    1    2    0    0 -0.17833901283E+00  0.65192964246E+00  0.96755583483E+00  0.90007753689E+02  0.90000015237E+02 0.  0.
         12    1    1    2    0    0  0.17833901283E+00 -0.65192964246E+00 -0.96755583483E+00  0.11802463115E+01  0.00000000000E+00 0. -1.
         11    1    3    3    0    0  0.10633124979E+02  0.34936228035E+01 -0.13263156736E+02  0.17354540443E+02  0.51100000000E-03 0. -1.
        -11    1    3    3    0    0 -0.10801851742E+01  0.20548050163E+02  0.34526248325E+02  0.40192673327E+02  0.51100000000E-03 0.  1.
         12    1    3    3    0    0 -0.97312788180E+01 -0.23389743325E+02 -0.20295535754E+02  0.32460539918E+02  0.00000000000E+00 0. -1.
</event>
<event>
 7    1  0.2285268E-015  0.9000789E+02  0.7816164E-02  0.1186339E+00
        -11   -1    0    0    0    0  0.00000000000E+00  0.00000000000E+00  0.45593999997E+02  0.45594000000E+02  0.51100000000E-03 0. -1.
         11   -1    0    0    0    0 -0.00000000000E+00 -0.00000000000E+00 -0.45593999997E+02  0.45594000000E+02  0.51100000000E-03 0.  1.
    9900012    2    1    2    0    0  0.68541106741E+00  0.95191141083E+00  0.12932675981E+00  0.90007894464E+02  0.90000157871E+02 0.  0.
         12    1    1    2    0    0 -0.68541106741E+00 -0.95191141083E+00 -0.12932675981E+00  0.11801055360E+01  0.00000000000E+00 0. -1.
         11    1    3    3    0    0 -0.13143971610E+02 -0.26221030650E+02  0.16159797797E+02  0.33487990432E+02  0.51100000000E-03 0. -1.
        -11    1    3    3    0    0 -0.57530574907E+01 -0.89670522427E+01  0.32215907188E+01  0.11130334381E+02  0.51100000000E-03 0.  1.
        -12    1    3    3    0    0  0.19582440168E+02  0.36139994304E+02 -0.19252061756E+02  0.45389569651E+02  0.00000000000E+00 0.  1.
</event>
<event>
 7    1  0.2285268E-015  0.9000775E+02  0.7816164E-02  0.1186339E+00
        -11   -1    0    0    0    0  0.00000000000E+00  0.00000000000E+00  0.45593999997E+02  0.45594000000E+02  0.51100000000E-03 0.  1.
         11   -1    0    0    0    0 -0.00000000000E+00 -0.00000000000E+00 -0.45593999997E+02  0.45594000000E+02  0.51100000000E-03 0. -1.
    9900012    2    1    2    0    0  0.78628161611E+00 -0.39915900688E-01  0.87929121530E+00  0.90007752102E+02  0.90000013630E+02 0.  0.
         12    1    1    2    0    0 -0.78628161611E+00  0.39915900688E-01 -0.87929121530E+00  0.11802478978E+01  0.00000000000E+00 0. -1.
         11    1    3    3    0    0  0.87380645737E+01  0.74248890195E+01  0.14484949807E+01  0.11557719819E+02  0.51100000000E-03 0. -1.
        -11    1    3    3    0    0  0.29458142776E+02 -0.28658881465E+01  0.19797231902E+02  0.35607946892E+02  0.51100000000E-03 0.  1.
         12    1    3    3    0    0 -0.37409925733E+02 -0.45989167736E+01 -0.20366435667E+02  0.42842085391E+02  0.00000000000E+00 0. -1.
</event>
<event>
 7    1  0.2285268E-015  0.9000769E+02  0.7816164E-02  0.1186339E+00
        -11   -1    0    0    0    0  0.00000000000E+00  0.00000000000E+00  0.45593999997E+02  0.45594000000E+02  0.51100000000E-03 0. -1.
         11   -1    0    0    0    0 -0.00000000000E+00 -0.00000000000E+00 -0.45593999997E+02  0.45594000000E+02  0.51100000000E-03 0.  1.
    9900012    2    1    2    0    0 -0.11548076744E+01  0.11036281676E+00 -0.21762299715E+00  0.90007694749E+02  0.89999955520E+02 0.  0.
         12    1    1    2    0    0  0.11548076744E+01 -0.11036281676E+00  0.21762299715E+00  0.11803052508E+01  0.00000000000E+00 0. -1.
         11    1    3    3    0    0  0.14432085445E+02 -0.14718271620E+01  0.30578751152E+02  0.33845404234E+02  0.51100000000E-03 0. -1.
        -11    1    3    3    0    0  0.10952028171E+01  0.28271347250E+01  0.10858519880E+02  0.11273846469E+02  0.51100000000E-03 0.  1.
        -12    1    3    3    0    0 -0.16682095936E+02 -0.12449447462E+01 -0.41654894030E+02  0.44888444046E+02  0.00000000000E+00 0.  1.
</event>
<event>
 7    1  0.2285268E-015  0.9000771E+02  0.7816164E-02  0.1186339E+00
        -11   -1    0    0    0    0  0.00000000000E+00  0.00000000000E+00  0.45593999997E+02  0.45594000000E+02  0.51100000000E-03 0.  1.
         11   -1    0    0    0    0 -0.00000000000E+00 -0.00000000000E+00 -0.45593999997E+02  0.45594000000E+02  0.51100000000E-03 0. -1.
    9900012    2    1    2    0    0  0.10414779596E+01 -0.49548799298E+00  0.25080167447E+00  0.90007709285E+02  0.89999970248E+02 0.  0.
         12    1    1    2    0    0 -0.10414779596E+01  0.49548799298E+00 -0.25080167447E+00  0.11802907148E+01  0.00000000000E+00 0. -1.
         11    1    3    3    0    0 -0.85528054001E+01 -0.19635308309E+02 -0.29207659040E+02  0.36218547175E+02  0.51100000000E-03 0. -1.
        -11    1    3    3    0    0 -0.19200028104E+01 -0.14538573129E+01 -0.86439505165E+01  0.89731818588E+01  0.51100000000E-03 0.  1.
        -12    1    3    3    0    0  0.11514286170E+02  0.20593677629E+02  0.38102411231E+02  0.44815980252E+02  0.00000000000E+00 0.  1.
</event>
<event>
 7    1  0.2285268E-015  0.9000772E+02  0.7816164E-02  0.1186339E+00
        -11   -1    0    0    0    0  0.00000000000E+00  0.00000000000E+00  0.45593999997E+02  0.45594000000E+02  0.51100000000E-03 0. -1.
         11   -1    0    0    0    0 -0.00000000000E+00 -0.00000000000E+00 -0.45593999997E+02  0.45594000000E+02  0.51100000000E-03 0.  1.
    9900012    2    1    2    0    0  0.11653206252E+01  0.17633671525E+00  0.63111273620E-01  0.90007724681E+02  0.89999985846E+02 0.  0.
         12    1    1    2    0    0 -0.11653206252E+01 -0.17633671525E+00 -0.63111273620E-01  0.11802753194E+01  0.00000000000E+00 0. -1.
         11    1    3    3    0    0  0.19558555778E+00 -0.22717640550E+01  0.96696544171E+01  0.99348569410E+01  0.51100000000E-03 0. -1.
        -11    1    3    3    0    0 -0.66537660559E+01 -0.31990063031E+02 -0.25439679893E+02  0.41410313314E+02  0.51100000000E-03 0.  1.
         12    1    3    3    0    0  0.76235011233E+01  0.34438163801E+02  0.15833136749E+02  0.38662554426E+02  0.00000000000E+00 0. -1.
</event>
<event>
 7    1  0.2285268E-015  0.9000771E+02  0.7816164E-02  0.1186339E+00
        -11   -1    0    0    0    0  0.00000000000E+00  0.00000000000E+00  0.45593999997E+02  0.45594000000E+02  0.51100000000E-03 0.  1.
         11   -1    0    0    0    0 -0.00000000000E+00 -0.00000000000E+00 -0.45593999997E+02  0.45594000000E+02  0.51100000000E-03 0. -1.
    9900012    2    1    2    0    0  0.25749425695E+00 -0.95732433264E+00  0.64056402237E+00  0.90007705360E+02  0.89999966271E+02 0.  0.
         12    1    1    2    0    0 -0.25749425695E+00  0.95732433264E+00 -0.64056402237E+00  0.11802946399E+01  0.00000000000E+00 0. -1.
         11    1    3    3    0    0  0.88387610284E+00 -0.32474161322E+01 -0.84971117168E+01  0.91393575425E+01  0.51100000000E-03 0. -1.
        -11    1    3    3    0    0  0.83905008025E+01  0.40187246303E+02  0.96475929452E+00  0.41065143734E+02  0.51100000000E-03 0.  1.
         12    1    3    3    0    0 -0.90168826484E+01 -0.37897154503E+02  0.81729164447E+01  0.39803204084E+02  0.00000000000E+00 0. -1.
</event>
<event>
 7    1  0.4456052E-015  0.9000779E+02  0.7816164E-02  0.1186339E+00
        -11   -1    0    0    0    0  0.00000000000E+00  0.00000000000E+00  0.45593999997E+02  0.45594000000E+02  0.51100000000E-03 0. -1.
         11   -1    0    0    0    0 -0.00000000000E+00 -0.00000000000E+00 -0.45593999997E+02  0.45594000000E+02  0.51100000000E-03 0.  1.
    9900012    2    1    2    0    0  0.80788378393E+00 -0.58741502880E+00 -0.62862748931E+00  0.90007785975E+02  0.90000047950E+02 0.  0.
         12    1    1    2    0    0 -0.80788378393E+00  0.58741502880E+00  0.62862748931E+00  0.11802140250E+01  0.00000000000E+00 0. -1.
         11    1    3    3    0    0 -0.15452899198E+01 -0.75779474209E+01 -0.59157452680E+01  0.97370041793E+01  0.51100000000E-03 0. -1.
        -11    1    3    3    0    0  0.17345066077E+02 -0.12726943230E+02 -0.30147926015E+02  0.37036790418E+02  0.51100000000E-03 0.  1.
         12    1    3    3    0    0 -0.14991892374E+02  0.19717475622E+02  0.35435043793E+02  0.43233991378E+02  0.00000000000E+00 0. -1.
</event>
<event>
 7    1  0.2285268E-015  0.9000864E+02  0.7816164E-02  0.1186337E+00
        -11   -1    0    0    0    0  0.00000000000E+00  0.00000000000E+00  0.45593999997E+02  0.45594000000E+02  0.51100000000E-03 0. -1.
         11   -1    0    0    0    0 -0.00000000000E+00 -0.00000000000E+00 -0.45593999997E+02  0.45594000000E+02  0.51100000000E-03 0.  1.
    9900012    2    1    2    0    0 -0.48994481552E+00 -0.10677180577E+01 -0.10402906231E+00  0.90008640081E+02  0.90000913325E+02 0.  0.
         12    1    1    2    0    0  0.48994481552E+00  0.10677180577E+01  0.10402906231E+00  0.11793599191E+01  0.00000000000E+00 0. -1.
         11    1    3    3    0    0 -0.92248863292E+01 -0.28433962022E+02  0.20742458826E+02  0.36384589079E+02  0.51100000000E-03 0. -1.
        -11    1    3    3    0    0  0.14847824930E+01 -0.92192747245E+01  0.24436578303E+01  0.96525162186E+01  0.51100000000E-03 0.  1.
        -12    1    3    3    0    0  0.72501590207E+01  0.36585518689E+02 -0.23290145719E+02  0.43971534783E+02  0.00000000000E+00 0.  1.
</event>
<event>
 7    1  0.2816149E-015  0.9000791E+02  0.7816164E-02  0.1186339E+00
        -11   -1    0    0    0    0  0.00000000000E+00  0.00000000000E+00  0.45593999997E+02  0.45594000000E+02  0.51100000000E-03 0. -1.
         11   -1    0    0    0    0 -0.00000000000E+00 -0.00000000000E+00 -0.45593999997E+02  0.45594000000E+02  0.51100000000E-03 0.  1.
    9900012    2    1    2    0    0  0.82673338616E+00  0.77921693738E+00 -0.31929078133E+00  0.90007909440E+02  0.90000173044E+02 0.  0.
         12    1    1    2    0    0 -0.82673338616E+00 -0.77921693738E+00  0.31929078133E+00  0.11800905602E+01  0.00000000000E+00 0. -1.
         11    1    3    3    0    0 -0.50236258440E+00 -0.13903276734E+01 -0.94009985359E+01  0.95165200015E+01  0.51100000000E-03 0. -1.
        -11    1    3    3    0    0 -0.74340574937E+01  0.19708331770E+02 -0.30064911602E+02  0.36709432873E+02  0.51100000000E-03 0.  1.
         12    1    3    3    0    0  0.87631534643E+01 -0.17538787159E+02  0.39146619356E+02  0.43781956565E+02  0.00000000000E+00 0. -1.
</event>
<event>
 7    1  0.2285268E-015  0.9000772E+02  0.7816164E-02  0.1186339E+00
        -11   -1    0    0    0    0  0.00000000000E+00  0.00000000000E+00  0.45593999997E+02  0.45594000000E+02  0.51100000000E-03 0.  1.
         11   -1    0    0    0    0 -0.00000000000E+00 -0.00000000000E+00 -0.45593999997E+02  0.45594000000E+02  0.51100000000E-03 0. -1.
    9900012    2    1    2    0    0 -0.20013951724E+00 -0.14698546173E+00  0.11538588617E+01  0.90007724259E+02  0.89999985419E+02 0.  0.
         12    1    1    2    0    0  0.20013951724E+00  0.14698546173E+00 -0.11538588617E+01  0.11802757412E+01  0.00000000000E+00 0. -1.
         11    1    3    3    0    0  0.15342329621E+02 -0.40171889267E+02 -0.18638541021E+01  0.43042324726E+02  0.51100000000E-03 0. -1.
        -11    1    3    3    0    0  0.34660827688E+01  0.88491525813E+01  0.42952986572E+01  0.10429325097E+02  0.51100000000E-03 0.  1.
        -12    1    3    3    0    0 -0.19008551907E+02  0.31175751224E+02 -0.12775856933E+01  0.36536074436E+02  0.00000000000E+00 0.  1.
</event>
<event>
 7    1  0.2285268E-015  0.9000806E+02  0.7816164E-02  0.1186338E+00
        -11   -1    0    0    0    0  0.00000000000E+00  0.00000000000E+00  0.45593999997E+02  0.45594000000E+02  0.51100000000E-03 0. -1.
         11   -1    0    0    0    0 -0.00000000000E+00 -0.00000000000E+00 -0.45593999997E+02  0.45594000000E+02  0.51100000000E-03 0.  1.
    9900012    2    1    2    0    0  0.10527556954E+00 -0.86194478748E+00  0.79889701897E+00  0.90008055845E+02  0.90000321381E+02 0.  0.
         12    1    1    2    0    0 -0.10527556954E+00  0.86194478748E+00 -0.79889701897E+00  0.11799441551E+01  0.00000000000E+00 0. -1.
         11    1    3    3    0    0  0.13563712963E+01 -0.73351560323E+01  0.62826999178E+01  0.97527727150E+01  0.51100000000E-03 0. -1.
        -11    1    3    3    0    0  0.32368869447E+02  0.18425900504E+01 -0.25149167150E+02  0.41031932150E+02  0.51100000000E-03 0.  1.
         12    1    3    3    0    0 -0.33619965174E+02  0.46306211944E+01  0.19665364251E+02  0.39223350980E+02  0.00000000000E+00 0. -1.
</event>
<event>
 7    1  0.2285268E-015  0.9000724E+02  0.7816164E-02  0.1186340E+00
        -11   -1    0    0    0    0  0.00000000000E+00  0.00000000000E+00  0.45593999997E+02  0.45594000000E+02  0.51100000000E-03 0. -1.
         11   -1    0    0    0    0 -0.00000000000E+00 -0.00000000000E+00 -0.45593999997E+02  0.45594000000E+02  0.51100000000E-03 0.  1.
    9900012    2    1    2    0    0 -0.25504590108E+00  0.10388614496E+01 -0.49991197953E+00  0.90007240283E+02  0.89999495053E+02 0.  0.
         12    1    1    2    0    0  0.25504590108E+00 -0.10388614496E+01  0.49991197953E+00  0.11807597175E+01  0.00000000000E+00 0. -1.
         11    1    3    3    0    0  0.23648024000E+02 -0.38163805267E+01  0.37232698473E+02  0.44272651098E+02  0.51100000000E-03 0. -1.
        -11    1    3    3    0    0 -0.16306780882E+01  0.14317489243E-01 -0.85594838297E+01  0.87134424718E+01  0.51100000000E-03 0.  1.
        -12    1    3    3    0    0 -0.22272391813E+02  0.48409244871E+01 -0.29173126623E+02  0.37021146712E+02  0.00000000000E+00 0.  1.
</event>
<event>
 7    1  0.2285268E-015  0.9000770E+02  0.7816164E-02  0.1186339E+00
        -11   -1    0    0    0    0  0.00000000000E+00  0.00000000000E+00  0.45593999997E+02  0.45594000000E+02  0.51100000000E-03 0.  1.
         11   -1    0    0    0    0 -0.00000000000E+00 -0.00000000000E+00 -0.45593999997E+02  0.45594000000E+02  0.51100000000E-03 0. -1.
    9900012    2    1    2    0    0 -0.46608553738E+00  0.94372559982E-02  0.10843357968E+01  0.90007699653E+02  0.89999960488E+02 0.  0.
         12    1    1    2    0    0  0.46608553738E+00 -0.94372559982E-02 -0.10843357968E+01  0.11803003474E+01  0.00000000000E+00 0. -1.
         11    1    3    3    0    0  0.12279686959E+01 -0.13349746640E+02  0.31174674940E+01  0.13763802030E+02  0.51100000000E-03 0. -1.
        -11    1    3    3    0    0  0.14710601668E+02 -0.26628038656E+02  0.88326396912E+01  0.31677590949E+02  0.51100000000E-03 0.  1.
         12    1    3    3    0    0 -0.16404655901E+02  0.39987222553E+02 -0.10865771388E+02  0.44566306674E+02  0.00000000000E+00 0. -1.
</event>
<event>
 7    1  0.2285268E-015  0.9000764E+02  0.7816164E-02  0.1186339E+00
        -11   -1    0    0    0    0  0.00000000000E+00  0.00000000000E+00  0.45593999997E+02  0.45594000000E+02  0.51100000000E-03 0.  1.
         11   -1    0    0    0    0 -0.00000000000E+00 -0.00000000000E+00 -0.45593999997E+02  0.45594000000E+02  0.51100000000E-03 0. -1.
    9900012    2    1    2    0    0 -0.81706203706E+00 -0.32834489209E+00  0.78604001263E+00  0.90007635801E+02  0.89999895794E+02 0.  0.
         12    1    1    2    0    0  0.81706203706E+00  0.32834489209E+00 -0.78604001263E+00  0.11803641989E+01  0.00000000000E+00 0. -1.
         11    1    3    3    0    0  0.89951416844E+01  0.45066207885E+01  0.11906914619E-02  0.10060924735E+02  0.51100000000E-03 0. -1.
        -11    1    3    3    0    0  0.14832928351E+02  0.40093615595E+01  0.34200930001E+02  0.37493924265E+02  0.51100000000E-03 0.  1.
         12    1    3    3    0    0 -0.24645132073E+02 -0.88443272400E+01 -0.33416080679E+02  0.42452786801E+02  0.00000000000E+00 0. -1.
</event>
<event>
 7    1  0.2285268E-015  0.9000773E+02  0.7816164E-02  0.1186339E+00
        -11   -1    0    0    0    0  0.00000000000E+00  0.00000000000E+00  0.45593999997E+02  0.45594000000E+02  0.51100000000E-03 0.  1.
         11   -1    0    0    0    0 -0.00000000000E+00 -0.00000000000E+00 -0.45593999997E+02  0.45594000000E+02  0.51100000000E-03 0. -1.
    9900012    2    1    2    0    0 -0.96599939372E-01 -0.11536224376E+01 -0.22994081261E+00  0.90007725009E+02  0.89999986179E+02 0.  0.
         12    1    1    2    0    0  0.96599939372E-01  0.11536224376E+01  0.22994081261E+00  0.11802749909E+01  0.00000000000E+00 0. -1.
         11    1    3    3    0    0  0.24087689270E+02 -0.49203937098E+01 -0.33637753820E+02  0.41664439646E+02  0.51100000000E-03 0. -1.
        -11    1    3    3    0    0  0.29272471596E+01 -0.54939768628E+01  0.71608090520E+01  0.94884005103E+01  0.51100000000E-03 0.  1.
        -12    1    3    3    0    0 -0.27111536369E+02  0.92607481350E+01  0.26247003956E+02  0.38854884853E+02  0.00000000000E+00 0.  1.
</event>
<event>
 7    1  0.2285268E-015  0.9000772E+02  0.7816164E-02  0.1186339E+00
        -11   -1    0    0    0    0  0.00000000000E+00  0.00000000000E+00  0.45593999997E+02  0.45594000000E+02  0.51100000000E-03 0.  1.
         11   -1    0    0    0    0 -0.00000000000E+00 -0.00000000000E+00 -0.45593999997E+02  0.45594000000E+02  0.51100000000E-03 0. -1.
    9900012    2    1    2    0    0  0.18790222442E+00  0.70725671868E+00  0.92604176382E+00  0.90007715009E+02  0.89999976047E+02 0.  0.
         12    1    1    2    0    0 -0.18790222442E+00 -0.70725671868E+00 -0.92604176382E+00  0.11802849912E+01  0.00000000000E+00 0. -1.
         11    1    3    3    0    0  0.40534130614E+02 -0.29582730407E+01 -0.69747048076E+01  0.41236071969E+02  0.51100000000E-03 0. -1.
        -11    1    3    3    0    0 -0.30757665924E+01  0.92144470305E+01 -0.17583271580E+01  0.98720863481E+01  0.51100000000E-03 0.  1.
        -12    1    3    3    0    0 -0.37270461797E+02 -0.55489172712E+01  0.96590737294E+01  0.38899556691E+02  0.00000000000E+00 0.  1.
</event>
<event>
 7    1  0.2285268E-015  0.9000775E+02  0.7816164E-02  0.1186339E+00
        -11   -1    0    0    0    0  0.00000000000E+00  0.00000000000E+00  0.45593999997E+02  0.45594000000E+02  0.51100000000E-03 0.  1.
         11   -1    0    0    0    0 -0.00000000000E+00 -0.00000000000E+00 -0.45593999997E+02  0.45594000000E+02  0.51100000000E-03 0. -1.
    9900012    2    1    2    0    0 -0.74473068904E+00  0.83408502386E+00  0.37770139399E+00  0.90007754276E+02  0.90000015832E+02 0.  0.
         12    1    1    2    0    0  0.74473068904E+00 -0.83408502386E+00 -0.37770139399E+00  0.11802457241E+01  0.00000000000E+00 0. -1.
         11    1    3    3    0    0 -0.22302685238E+02 -0.62204243377E+01 -0.29043664136E+02  0.37143476876E+02  0.51100000000E-03 0. -1.
        -11    1    3    3    0    0  0.19054566758E+00 -0.82060011650E+01 -0.49696700737E+01  0.95954355646E+01  0.51100000000E-03 0.  1.
        -12    1    3    3    0    0  0.21367408881E+02  0.15260510527E+02  0.34391035604E+02  0.43268841835E+02  0.00000000000E+00 0.  1.
</event>
<event>
 7    1  0.2285268E-015  0.9000780E+02  0.7816164E-02  0.1186339E+00
        -11   -1    0    0    0    0  0.00000000000E+00  0.00000000000E+00  0.45593999997E+02  0.45594000000E+02  0.51100000000E-03 0.  1.
         11   -1    0    0    0    0 -0.00000000000E+00 -0.00000000000E+00 -0.45593999997E+02  0.45594000000E+02  0.51100000000E-03 0. -1.
    9900012    2    1    2    0    0  0.36975431632E-01  0.78140314713E+00  0.88369604239E+00  0.90007798002E+02  0.90000060136E+02 0.  0.
         12    1    1    2    0    0 -0.36975431632E-01 -0.78140314713E+00 -0.88369604239E+00  0.11802019981E+01  0.00000000000E+00 0. -1.
         11    1    3    3    0    0 -0.11086098789E+02 -0.23278604948E+00 -0.41417272127E+01  0.11836793496E+02  0.51100000000E-03 0. -1.
        -11    1    3    3    0    0 -0.40214169827E+01  0.37752422507E+02 -0.10017358044E+01  0.37979213717E+02  0.51100000000E-03 0.  1.
         12    1    3    3    0    0  0.15144491203E+02 -0.36738233310E+02  0.60271590595E+01  0.40191790789E+02  0.00000000000E+00 0. -1.
</event>
<event>
 7    1  0.2994429E-015  0.9000782E+02  0.7816164E-02  0.1186339E+00
        -11   -1    0    0    0    0  0.00000000000E+00  0.00000000000E+00  0.45593999997E+02  0.45594000000E+02  0.51100000000E-03 0. -1.
         11   -1    0    0    0    0 -0.00000000000E+00 -0.00000000000E+00 -0.45593999997E+02  0.45594000000E+02  0.51100000000E-03 0.  1.
    9900012    2    1    2    0    0 -0.54579751972E+00  0.84434401451E+00 -0.61808083346E+00  0.90007815411E+02  0.90000077774E+02 0.  0.
         12    1    1    2    0    0  0.54579751972E+00 -0.84434401451E+00  0.61808083346E+00  0.11801845890E+01  0.00000000000E+00 0. -1.
         11    1    3    3    0    0  0.36428160122E+01 -0.60820320389E+01  0.64683682693E+01  0.95969271410E+01  0.51100000000E-03 0. -1.
        -11    1    3    3    0    0  0.36401839503E+02 -0.72069652710E+01 -0.38832497943E+01  0.37311042559E+02  0.51100000000E-03 0.  1.
         12    1    3    3    0    0 -0.40590453034E+02  0.14133341324E+02 -0.32031993084E+01  0.43099845711E+02  0.00000000000E+00 0. -1.
</event>
<event>
 7    1  0.2285268E-015  0.9000781E+02  0.7816164E-02  0.1186339E+00
        -11   -1    0    0    0    0  0.00000000000E+00  0.00000000000E+00  0.45593999997E+02  0.45594000000E+02  0.51100000000E-03 0.  1.
         11   -1    0    0    0    0 -0.00000000000E+00 -0.00000000000E+00 -0.45593999997E+02  0.45594000000E+02  0.51100000000E-03 0. -1.
    9900012    2    1    2    0    0 -0.94083898713E-01  0.88880569192E+00  0.77072366862E+00  0.90007812595E+02  0.90000074921E+02 0.  0.
         12    1    1    2    0    0  0.94083898713E-01 -0.88880569192E+00 -0.77072366862E+00  0.11801874052E+01  0.00000000000E+00 0. -1.
         11    1    3    3    0    0  0.33559503931E+02 -0.62572549370E+01  0.10565878509E+02  0.35735575165E+02  0.51100000000E-03 0. -1.
        -11    1    3    3    0    0  0.93233397118E+01 -0.16271235768E+01 -0.81607031821E+00  0.94993771133E+01  0.51100000000E-03 0.  1.
        -12    1    3    3    0    0 -0.42976927542E+02  0.87731842057E+01 -0.89790845223E+01  0.44772860316E+02  0.00000000000E+00 0.  1.
</event>
<event>
 7    1  0.2285268E-015  0.9000775E+02  0.7816164E-02  0.1186339E+00
        -11   -1    0    0    0    0  0.00000000000E+00  0.00000000000E+00  0.45593999997E+02  0.45594000000E+02  0.51100000000E-03 0.  1.
         11   -1    0    0    0    0 -0.00000000000E+00 -0.00000000000E+00 -0.45593999997E+02  0.45594000000E+02  0.51100000000E-03 0. -1.
    9900012    2    1    2    0    0 -0.85589025764E+00  0.31361301036E-01  0.81207734158E+00  0.90007745251E+02  0.90000006688E+02 0.  0.
         12    1    1    2    0    0  0.85589025764E+00 -0.31361301036E-01 -0.81207734158E+00  0.11802547492E+01  0.00000000000E+00 0. -1.
         11    1    3    3    0    0  0.30729590490E+02 -0.51632573347E+00 -0.29106156532E+02  0.42328981470E+02  0.51100000000E-03 0. -1.
        -11    1    3    3    0    0 -0.67726924165E+01  0.78433442592E+01  0.41292845330E+01  0.11155196222E+02  0.51100000000E-03 0.  1.
        -12    1    3    3    0    0 -0.24812788331E+02 -0.72956572247E+01  0.25788949341E+02  0.36523567559E+02  0.00000000000E+00 0.  1.
</event>
<event>
 7    1  0.2285268E-015  0.9000770E+02  0.7816164E-02  0.1186339E+00
        -11   -1    0    0    0    0  0.00000000000E+00  0.00000000000E+00  0.45593999997E+02  0.45594000000E+02  0.51100000000E-03 0.  1.
         11   -1    0    0    0    0 -0.00000000000E+00 -0.00000000000E+00 -0.45593999997E+02  0.45594000000E+02  0.51100000000E-03 0. -1.
    9900012    2    1    2    0    0  0.65816366615E+00  0.48942635973E+00  0.84876423239E+00  0.90007695677E+02  0.89999956460E+02 0.  0.
         12    1    1    2    0    0 -0.65816366615E+00 -0.48942635973E+00 -0.84876423239E+00  0.11803043231E+01  0.00000000000E+00 0. -1.
         11    1    3    3    0    0 -0.23150488018E+01 -0.82224944438E+00  0.87593932870E+01  0.90973906215E+01  0.51100000000E-03 0. -1.
        -11    1    3    3    0    0 -0.40634904830E+01  0.40043539904E+02  0.20583042894E+01  0.40301782340E+02  0.51100000000E-03 0.  1.
         12    1    3    3    0    0  0.70367029510E+01 -0.38731864100E+02 -0.99689333440E+01  0.40608522715E+02  0.00000000000E+00 0. -1.
</event>
<event>
 7    1  0.2285268E-015  0.9000788E+02  0.7816164E-02  0.1186339E+00
        -11   -1    0    0    0    0  0.00000000000E+00  0.00000000000E+00  0.45593999997E+02  0.45594000000E+02  0.51100000000E-03 0.  1.
         11   -1    0    0    0    0 -0.00000000000E+00 -0.00000000000E+00 -0.45593999997E+02  0.45594000000E+02  0.51100000000E-03 0. -1.
    9900012    2    1    2    0    0  0.16128071241E-01  0.23712806996E+00  0.11559423201E+01  0.90007876073E+02  0.90000139237E+02 0.  0.
         12    1    1    2    0    0 -0.16128071241E-01 -0.23712806996E+00 -0.11559423201E+01  0.11801239273E+01  0.00000000000E+00 0. -1.
         11    1    3    3    0    0  0.68049236279E+01  0.54155022907E+01 -0.14263102084E+01  0.88130024233E+01  0.51100000000E-03 0. -1.
        -11    1    3    3    0    0  0.34861124070E+02  0.10582290765E+02  0.39231687223E+01  0.36642517686E+02  0.51100000000E-03 0.  1.
         12    1    3    3    0    0 -0.41649919627E+02 -0.15760664985E+02 -0.13409161938E+01  0.44552355964E+02  0.00000000000E+00 0. -1.
</event>
<event>
 7    1  0.2285268E-015  0.9000774E+02  0.7816164E-02  0.1186339E+00
        -11   -1    0    0    0    0  0.00000000000E+00  0.00000000000E+00  0.45593999997E+02  0.45594000000E+02  0.51100000000E-03 0. -1.
         11   -1    0    0    0    0 -0.00000000000E+00 -0.00000000000E+00 -0.45593999997E+02  0.45594000000E+02  0.51100000000E-03 0.  1.
    9900012    2    1    2    0    0 -0.88680878946E+00  0.76098323727E+00 -0.16580840532E+00  0.90007738273E+02  0.89999999618E+02 0.  0.
         12    1    1    2    0    0  0.88680878946E+00 -0.76098323727E+00  0.16580840532E+00  0.11802617268E+01  0.00000000000E+00 0. -1.
         11    1    3    3    0    0 -0.24543463871E+02 -0.29625371031E+02  0.13339601587E+02  0.40718413504E+02  0.51100000000E-03 0. -1.
        -11    1    3    3    0    0  0.16421675238E+01  0.75474118468E+01  0.78785677878E+01  0.11033221216E+02  0.51100000000E-03 0.  1.
        -12    1    3    3    0    0  0.22014487557E+02  0.22838942422E+02 -0.21383977780E+02  0.38256103553E+02  0.00000000000E+00 0.  1.
</event>
<event>
 7    1  0.2285268E-015  0.9000779E+02  0.7816164E-02  0.1186339E+00
        -11   -1    0    0    0    0  0.00000000000E+00  0.00000000000E+00  0.45593999997E+02  0.45594000000E+02  0.51100000000E-03 0.  1.
         11   -1    0    0    0    0 -0.00000000000E+00 -0.00000000000E+00 -0.45593999997E+02  0.45594000000E+02  0.51100000000E-03 0. -1.
    9900012    2    1    2    0    0 -0.61997687038E+00 -0.67234931099E+00  0.74596496051E+00  0.90007792968E+02  0.90000055035E+02 0.  0.
         12    1    1    2    0    0  0.61997687038E+00  0.67234931099E+00 -0.74596496051E+00  0.11802070319E+01  0.00000000000E+00 0. -1.
         11    1    3    3    0    0  0.34775283002E+02  0.22519555815E+02 -0.62683707579E+01  0.41901589161E+02  0.51100000000E-03 0. -1.
        -11    1    3    3    0    0 -0.86016796332E+01  0.37943177296E+01 -0.18127407538E+00  0.94031165098E+01  0.51100000000E-03 0.  1.
        -12    1    3    3    0    0 -0.26793580240E+02 -0.26986222855E+02  0.71956097938E+01  0.38703087297E+02  0.00000000000E+00 0.  1.
</event>
<event>
 7    1  0.2285268E-015  0.9000772E+02  0.7816164E-02  0.1186339E+00
        -11   -1    0    0    0    0  0.00000000000E+00  0.00000000000E+00  0.45593999997E+02  0.45594000000E+02  0.51100000000E-03 0. -1.
         11   -1    0    0    0    0 -0.00000000000E+00 -0.00000000000E+00 -0.45593999997E+02  0.45594000000E+02  0.51100000000E-03 0.  1.
    9900012    2    1    2    0    0 -0.17498736837E+00  0.29913766137E+00 -0.11282574226E+01  0.90007716673E+02  0.89999977733E+02 0.  0.
         12    1    1    2    0    0  0.17498736837E+00 -0.29913766137E+00  0.11282574226E+01  0.11802833266E+01  0.00000000000E+00 0. -1.
         11    1    3    3    0    0 -0.45447774949E+01  0.27652508862E+02  0.23474125003E+02  0.36556132095E+02  0.51100000000E-03 0. -1.
        -11    1    3    3    0    0  0.75747383278E+01  0.64257522536E+01  0.22454160860E+01  0.10183754044E+02  0.51100000000E-03 0.  1.
        -12    1    3    3    0    0 -0.32049482013E+01 -0.33779123454E+02 -0.26847798511E+02  0.43267830535E+02  0.00000000000E+00 0.  1.
</event>
<event>
 7    1  0.2285268E-015  0.9000773E+02  0.7816164E-02  0.1186339E+00
        -11   -1    0    0    0    0  0.00000000000E+00  0.00000000000E+00  0.45593999997E+02  0.45594000000E+02  0.51100000000E-03 0.  1.
         11   -1    0    0    0    0 -0.00000000000E+00 -0.00000000000E+00 -0.45593999997E+02  0.45594000000E+02  0.51100000000E-03 0. -1.
    9900012    2    1    2    0    0 -0.34001294507E+00  0.58094843820E-01  0.11287367639E+01  0.90007732871E+02  0.89999994145E+02 0.  0.
         12    1    1    2    0    0  0.34001294507E+00 -0.58094843820E-01 -0.11287367639E+01  0.11802671290E+01  0.00000000000E+00 0. -1.
         11    1    3    3    0    0  0.38295437154E+01 -0.60847522871E+01 -0.58181737190E+01  0.92488248523E+01  0.51100000000E-03 0. -1.
        -11    1    3    3    0    0  0.16355826554E+02 -0.62307505620E+01 -0.31161629910E+02  0.35740488157E+02  0.51100000000E-03 0.  1.
         12    1    3    3    0    0 -0.20525383214E+02  0.12373597693E+02  0.38108540393E+02  0.45018419861E+02  0.00000000000E+00 0. -1.
</event>
<event>
 7    1  0.2285268E-015  0.9000795E+02  0.7816164E-02  0.1186339E+00
        -11   -1    0    0    0    0  0.00000000000E+00  0.00000000000E+00  0.45593999997E+02  0.45594000000E+02  0.51100000000E-03 0. -1.
         11   -1    0    0    0    0 -0.00000000000E+00 -0.00000000000E+00 -0.45593999997E+02  0.45594000000E+02  0.51100000000E-03 0.  1.
    9900012    2    1    2    0    0  0.36674869352E+00  0.11121094460E+01  0.14568535575E+00  0.90007950744E+02  0.90000214893E+02 0.  0.
         12    1    1    2    0    0 -0.36674869352E+00 -0.11121094460E+01 -0.14568535575E+00  0.11800492561E+01  0.00000000000E+00 0. -1.
         11    1    3    3    0    0  0.30406152515E+02  0.19648282203E+02  0.16068582459E+02  0.39607934140E+02  0.51100000000E-03 0. -1.
        -11    1    3    3    0    0  0.68572604656E+01 -0.39668531326E+01 -0.45376926969E+01  0.91295454510E+01  0.51100000000E-03 0.  1.
        -12    1    3    3    0    0 -0.36896664287E+02 -0.14569319624E+02 -0.11385204407E+02  0.41270471153E+02  0.00000000000E+00 0.  1.
</event>
<event>
 7    1  0.2285268E-015  0.9000770E+02  0.7816164E-02  0.1186339E+00
        -11   -1    0    0    0    0  0.00000000000E+00  0.00000000000E+00  0.45593999997E+02  0.45594000000E+02  0.51100000000E-03 0. -1.
         11   -1    0    0    0    0 -0.00000000000E+00 -0.00000000000E+00 -0.45593999997E+02  0.45594000000E+02  0.51100000000E-03 0.  1.
    9900012    2    1    2    0    0 -0.74015486417E+00  0.85859627101E+00 -0.32876318873E+00  0.90007702574E+02  0.89999963448E+02 0.  0.
         12    1    1    2    0    0  0.74015486417E+00 -0.85859627101E+00  0.32876318873E+00  0.11802974260E+01  0.00000000000E+00 0. -1.
         11    1    3    3    0    0 -0.37097415397E+01 -0.68144554576E+01 -0.70055873778E+01  0.10453575477E+02  0.51100000000E-03 0. -1.
        -11    1    3    3    0    0 -0.61427643825E+01 -0.22045524477E+02 -0.25875794955E+02  0.34544109028E+02  0.51100000000E-03 0.  1.
         12    1    3    3    0    0  0.91123510581E+01  0.29718576205E+02  0.32552619144E+02  0.45010018070E+02  0.00000000000E+00 0. -1.
</event>
<event>
 7    1  0.2285268E-015  0.9000775E+02  0.7816164E-02  0.1186339E+00
        -11   -1    0    0    0    0  0.00000000000E+00  0.00000000000E+00  0.45593999997E+02  0.45594000000E+02  0.51100000000E-03 0. -1.
         11   -1    0    0    0    0 -0.00000000000E+00 -0.00000000000E+00 -0.45593999997E+02  0.45594000000E+02  0.51100000000E-03 0.  1.
    9900012    2    1    2    0    0  0.43212646379E+00  0.10625739718E+01 -0.27783617261E+00  0.90007750168E+02  0.90000011671E+02 0.  0.
         12    1    1    2    0    0 -0.43212646379E+00 -0.10625739718E+01  0.27783617261E+00  0.11802498316E+01  0.00000000000E+00 0. -1.
         11    1    3    3    0    0  0.16936544110E+02 -0.26284534900E+02  0.25854343197E+02  0.40573025074E+02  0.51100000000E-03 0. -1.
        -11    1    3    3    0    0  0.78779253149E+00 -0.39931792625E+01  0.13703942830E+01  0.42946569650E+01  0.51100000000E-03 0.  1.
        -12    1    3    3    0    0 -0.17292210178E+02  0.31340288134E+02 -0.27502573652E+02  0.45140068129E+02  0.00000000000E+00 0.  1.
</event>
<event>
 7    1  0.2285268E-015  0.9000759E+02  0.7816164E-02  0.1186339E+00
        -11   -1    0    0    0    0  0.00000000000E+00  0.00000000000E+00  0.45593999997E+02  0.45594000000E+02  0.51100000000E-03 0.  1.
         11   -1    0    0    0    0 -0.00000000000E+00 -0.00000000000E+00 -0.45593999997E+02  0.45594000000E+02  0.51100000000E-03 0. -1.
    9900012    2    1    2    0    0  0.63718074131E+00 -0.99304784611E+00  0.34985597926E-01  0.90007590192E+02  0.89999849583E+02 0.  0.
         12    1    1    2    0    0 -0.63718074131E+00  0.99304784611E+00 -0.34985597926E-01  0.11804098076E+01  0.00000000000E+00 0. -1.
         11    1    3    3    0    0 -0.73678200966E+01  0.69347139688E+01  0.10556889180E+02  0.14622685808E+02  0.51100000000E-03 0. -1.
        -11    1    3    3    0    0 -0.13126898201E+02  0.15432206686E+02  0.22138217308E+02  0.30009483925E+02  0.51100000000E-03 0.  1.
         12    1    3    3    0    0  0.21131899039E+02 -0.23359968501E+02 -0.32660120890E+02  0.45375420460E+02  0.00000000000E+00 0. -1.
</event>
<event>
 7    1  0.2285268E-015  0.9000778E+02  0.7816164E-02  0.1186339E+00
        -11   -1    0    0    0    0  0.00000000000E+00  0.00000000000E+00  0.45593999997E+02  0.45594000000E+02  0.51100000000E-03 0.  1.
         11   -1    0    0    0    0 -0.00000000000E+00 -0.00000000000E+00 -0.45593999997E+02  0.45594000000E+02  0.51100000000E-03 0. -1.
    9900012    2    1    2    0    0 -0.26629574666E-01  0.11767009717E+01  0.87064379906E-01  0.90007782004E+02  0.90000043927E+02 0.  0.
         12    1    1    2    0    0  0.26629574666E-01 -0.11767009717E+01 -0.87064379906E-01  0.11802179956E+01  0.00000000000E+00 0. -1.
         11    1    3    3    0    0 -0.63353422533E+01 -0.84576963731E+01  0.22458128350E+01  0.10803372851E+02  0.51100000000E-03 0. -1.
        -11    1    3    3    0    0 -0.19680997153E+02 -0.21923668364E+02  0.17044159162E+02  0.34036630933E+02  0.51100000000E-03 0.  1.
         12    1    3    3    0    0  0.25989709832E+02  0.31558065709E+02 -0.19202907617E+02  0.45167778220E+02  0.00000000000E+00 0. -1.
</event>
<event>
 7    1  0.2285268E-015  0.9000770E+02  0.7816164E-02  0.1186339E+00
        -11   -1    0    0    0    0  0.00000000000E+00  0.00000000000E+00  0.45593999997E+02  0.45594000000E+02  0.51100000000E-03 0.  1.
         11   -1    0    0    0    0 -0.00000000000E+00 -0.00000000000E+00 -0.45593999997E+02  0.45594000000E+02  0.51100000000E-03 0. -1.
    9900012    2    1    2    0    0 -0.57124938148E+00 -0.68266846160E+00  0.77507948706E+00  0.90007699066E+02  0.89999959893E+02 0.  0.
         12    1    1    2    0    0  0.57124938148E+00  0.68266846160E+00 -0.77507948706E+00  0.11803009343E+01  0.00000000000E+00 0. -1.
         11    1    3    3    0    0 -0.96747181630E+01  0.10065408486E+02  0.44429774545E+01  0.14651029604E+02  0.51100000000E-03 0. -1.
        -11    1    3    3    0    0  0.92094738679E+01 -0.14531127135E+02  0.33678975557E+02  0.37818533282E+02  0.51100000000E-03 0.  1.
         12    1    3    3    0    0 -0.10600508638E+00  0.37830501867E+01 -0.37346873525E+02  0.37538136180E+02  0.00000000000E+00 0. -1.
</event>
<event>
 7    1  0.2285268E-015  0.9000775E+02  0.7816164E-02  0.1186339E+00
        -11   -1    0    0    0    0  0.00000000000E+00  0.00000000000E+00  0.45593999997E+02  0.45594000000E+02  0.51100000000E-03 0.  1.
         11   -1    0    0    0    0 -0.00000000000E+00 -0.00000000000E+00 -0.45593999997E+02  0.45594000000E+02  0.51100000000E-03 0. -1.
    9900012    2    1    2    0    0  0.75991867928E+00 -0.51150428847E+00  0.74423355276E+00  0.90007747223E+02  0.90000008686E+02 0.  0.
         12    1    1    2    0    0 -0.75991867928E+00  0.51150428847E+00 -0.74423355276E+00  0.11802527769E+01  0.00000000000E+00 0. -1.
         11    1    3    3    0    0 -0.23254030230E+02  0.15868553326E+02 -0.25649232395E+02  0.38084695473E+02  0.51100000000E-03 0. -1.
        -11    1    3    3    0    0 -0.44464984328E+01 -0.47638434659E+01 -0.48267231055E+01  0.81094271734E+01  0.51100000000E-03 0.  1.
        -12    1    3    3    0    0  0.28460447342E+02 -0.11616214148E+02  0.31220189053E+02  0.43813624577E+02  0.00000000000E+00 0.  1.
</event>
<event>
 7    1  0.2285268E-015  0.9000771E+02  0.7816164E-02  0.1186339E+00
        -11   -1    0    0    0    0  0.00000000000E+00  0.00000000000E+00  0.45593999997E+02  0.45594000000E+02  0.51100000000E-03 0. -1.
         11   -1    0    0    0    0 -0.00000000000E+00 -0.00000000000E+00 -0.45593999997E+02  0.45594000000E+02  0.51100000000E-03 0.  1.
    9900012    2    1    2    0    0  0.44030781287E+00  0.10886155697E+01  0.11889183542E+00  0.90007707622E+02  0.89999968563E+02 0.  0.
         12    1    1    2    0    0 -0.44030781287E+00 -0.10886155697E+01 -0.11889183542E+00  0.11802923778E+01  0.00000000000E+00 0. -1.
         11    1    3    3    0    0 -0.30183512111E+01 -0.64065765988E+01  0.63558878309E+01  0.95158803129E+01  0.51100000000E-03 0. -1.
        -11    1    3    3    0    0 -0.15022082136E+02  0.39722140616E+02  0.17070640008E+01  0.42502064356E+02  0.51100000000E-03 0.  1.
         12    1    3    3    0    0  0.18480741159E+02 -0.32226948447E+02 -0.79440599962E+01  0.37989762953E+02  0.00000000000E+00 0. -1.
</event>
<event>
 7    1  0.2285268E-015  0.9000770E+02  0.7816164E-02  0.1186339E+00
        -11   -1    0    0    0    0  0.00000000000E+00  0.00000000000E+00  0.45593999997E+02  0.45594000000E+02  0.51100000000E-03 0. -1.
         11   -1    0    0    0    0 -0.00000000000E+00 -0.00000000000E+00 -0.45593999997E+02  0.45594000000E+02  0.51100000000E-03 0.  1.
    9900012    2    1    2    0    0 -0.54128077530E+00  0.66867607722E+00  0.80807954029E+00  0.90007701259E+02  0.89999962116E+02 0.  0.
         12    1    1    2    0    0  0.54128077530E+00 -0.66867607722E+00 -0.80807954029E+00  0.11802987407E+01  0.00000000000E+00 0. -1.
         11    1    3    3    0    0 -0.14791677680E+02  0.23238915141E+02  0.24752698658E+02  0.37034267870E+02  0.51100000000E-03 0. -1.
        -11    1    3    3    0    0  0.41438227280E+01  0.29464585839E+01  0.88519130029E+01  0.10208293151E+02  0.51100000000E-03 0.  1.
        -12    1    3    3    0    0  0.10106574177E+02 -0.25516697648E+02 -0.32796532121E+02  0.42765140238E+02  0.00000000000E+00 0.  1.
</event>
<event>
 7    1  0.2285268E-015  0.9000776E+02  0.7816164E-02  0.1186339E+00
        -11   -1    0    0    0    0  0.00000000000E+00  0.00000000000E+00  0.45593999997E+02  0.45594000000E+02  0.51100000000E-03 0.  1.
         11   -1    0    0    0    0 -0.00000000000E+00 -0.00000000000E+00 -0.45593999997E+02  0.45594000000E+02  0.51100000000E-03 0. -1.
    9900012    2    1    2    0    0 -0.95912571818E+00  0.16472551128E+00  0.66776440610E+00  0.90007760220E+02  0.90000021854E+02 0.  0.
         12    1    1    2    0    0  0.95912571818E+00 -0.16472551128E+00 -0.66776440610E+00  0.11802397805E+01  0.00000000000E+00 0. -1.
         11    1    3    3    0    0  0.39796334114E+01  0.93783396778E+01 -0.54681288784E+00  0.10202438032E+02  0.51100000000E-03 0. -1.
        -11    1    3    3    0    0  0.98889376860E+01  0.32674574355E+02  0.74304955631E+01  0.34937532289E+02  0.51100000000E-03 0.  1.
         12    1    3    3    0    0 -0.14827696816E+02 -0.41888188522E+02 -0.62159182691E+01  0.44867789899E+02  0.00000000000E+00 0. -1.
</event>
<event>
 7    1  0.2890368E-015  0.9000772E+02  0.7816164E-02  0.1186339E+00
        -11   -1    0    0    0    0  0.00000000000E+00  0.00000000000E+00  0.45593999997E+02  0.45594000000E+02  0.51100000000E-03 0.  1.
         11   -1    0    0    0    0 -0.00000000000E+00 -0.00000000000E+00 -0.45593999997E+02  0.45594000000E+02  0.51100000000E-03 0. -1.
    9900012    2    1    2    0    0  0.10043063812E+01  0.43138456896E+00 -0.44535856001E+00  0.90007716898E+02  0.89999977961E+02 0.  0.
         12    1    1    2    0    0 -0.10043063812E+01 -0.43138456896E+00  0.44535856001E+00  0.11802831019E+01  0.00000000000E+00 0. -1.
         11    1    3    3    0    0  0.36480945646E+01  0.30637357049E+01 -0.87748566181E+01  0.99846471821E+01  0.51100000000E-03 0. -1.
        -11    1    3    3    0    0 -0.16182486247E+02  0.35545677455E+02  0.50897802281E+01  0.39386214720E+02  0.51100000000E-03 0.  1.
         12    1    3    3    0    0  0.13538698064E+02 -0.38178028591E+02  0.32397178300E+01  0.40636854996E+02  0.00000000000E+00 0. -1.
</event>
<event>
 7    1  0.2285268E-015  0.9000770E+02  0.7816164E-02  0.1186339E+00
        -11   -1    0    0    0    0  0.00000000000E+00  0.00000000000E+00  0.45593999997E+02  0.45594000000E+02  0.51100000000E-03 0.  1.
         11   -1    0    0    0    0 -0.00000000000E+00 -0.00000000000E+00 -0.45593999997E+02  0.45594000000E+02  0.51100000000E-03 0. -1.
    9900012    2    1    2    0    0  0.36561390755E-01  0.10239777508E+01 -0.58586335877E+00  0.90007702137E+02  0.89999963006E+02 0.  0.
         12    1    1    2    0    0 -0.36561390755E-01 -0.10239777508E+01  0.58586335877E+00  0.11802978627E+01  0.00000000000E+00 0. -1.
         11    1    3    3    0    0 -0.40088680784E+01  0.34740464253E+01  0.42231531506E+01  0.67804899992E+01  0.51100000000E-03 0. -1.
        -11    1    3    3    0    0 -0.77933769178E+01  0.31832731337E+02  0.20810585092E+02  0.38821900524E+02  0.51100000000E-03 0.  1.
         12    1    3    3    0    0  0.11838806387E+02 -0.34282800012E+02 -0.25619601601E+02  0.44405311614E+02  0.00000000000E+00 0. -1.
</event>
<event>
 7    1  0.2285268E-015  0.9000764E+02  0.7816164E-02  0.1186339E+00
        -11   -1    0    0    0    0  0.00000000000E+00  0.00000000000E+00  0.45593999997E+02  0.45594000000E+02  0.51100000000E-03 0.  1.
         11   -1    0    0    0    0 -0.00000000000E+00 -0.00000000000E+00 -0.45593999997E+02  0.45594000000E+02  0.51100000000E-03 0. -1.
    9900012    2    1    2    0    0  0.70519446625E+00 -0.88865411438E+00  0.32596940938E+00  0.90007635045E+02  0.89999895028E+02 0.  0.
         12    1    1    2    0    0 -0.70519446625E+00  0.88865411438E+00 -0.32596940938E+00  0.11803649546E+01  0.00000000000E+00 0. -1.
         11    1    3    3    0    0 -0.17002395630E+02 -0.37900325074E+02 -0.41719856217E+01  0.41748312088E+02  0.51100000000E-03 0. -1.
        -11    1    3    3    0    0  0.58226290228E+01  0.72290126116E+01 -0.94898870127E+01  0.13274772610E+02  0.51100000000E-03 0.  1.
        -12    1    3    3    0    0  0.11884961073E+02  0.29782658348E+02  0.13987842044E+02  0.34984550348E+02  0.00000000000E+00 0.  1.
</event>
<event>
 7    1  0.2285268E-015  0.9000768E+02  0.7816164E-02  0.1186339E+00
        -11   -1    0    0    0    0  0.00000000000E+00  0.00000000000E+00  0.45593999997E+02  0.45594000000E+02  0.51100000000E-03 0.  1.
         11   -1    0    0    0    0 -0.00000000000E+00 -0.00000000000E+00 -0.45593999997E+02  0.45594000000E+02  0.51100000000E-03 0. -1.
    9900012    2    1    2    0    0  0.15766704137E-02  0.11788950051E+01 -0.57921839824E-01  0.90007681882E+02  0.89999942483E+02 0.  0.
         12    1    1    2    0    0 -0.15766704137E-02 -0.11788950051E+01  0.57921839824E-01  0.11803181175E+01  0.00000000000E+00 0. -1.
         11    1    3    3    0    0 -0.19421524976E+02 -0.11697795124E+02 -0.24362781648E+02  0.33280312094E+02  0.51100000000E-03 0. -1.
        -11    1    3    3    0    0 -0.73966144021E+01  0.16088339628E+01 -0.94882322740E+01  0.12137742924E+02  0.51100000000E-03 0.  1.
        -12    1    3    3    0    0  0.26819716049E+02  0.11267856166E+02  0.33793092082E+02  0.44589626865E+02  0.00000000000E+00 0.  1.
</event>
<event>
 7    1  0.2285268E-015  0.9000766E+02  0.7816164E-02  0.1186339E+00
        -11   -1    0    0    0    0  0.00000000000E+00  0.00000000000E+00  0.45593999997E+02  0.45594000000E+02  0.51100000000E-03 0. -1.
         11   -1    0    0    0    0 -0.00000000000E+00 -0.00000000000E+00 -0.45593999997E+02  0.45594000000E+02  0.51100000000E-03 0.  1.
    9900012    2    1    2    0    0 -0.81429672307E+00 -0.84969097335E+00  0.90277621978E-01  0.90007659391E+02  0.89999919695E+02 0.  0.
         12    1    1    2    0    0  0.81429672307E+00  0.84969097335E+00 -0.90277621978E-01  0.11803406087E+01  0.00000000000E+00 0. -1.
         11    1    3    3    0    0 -0.21407027213E+01 -0.61706129807E+01 -0.62105168256E+01  0.90127460966E+01  0.51100000000E-03 0. -1.
        -11    1    3    3    0    0 -0.37087017448E+00 -0.94485936731E+01 -0.35443055902E+02  0.36682743614E+02  0.51100000000E-03 0.  1.
         12    1    3    3    0    0  0.16972761727E+01  0.14769515680E+02  0.41743850350E+02  0.44312169681E+02  0.00000000000E+00 0. -1.
</event>
<event>
 7    1  0.2285268E-015  0.9000775E+02  0.7816164E-02  0.1186339E+00
        -11   -1    0    0    0    0  0.00000000000E+00  0.00000000000E+00  0.45593999997E+02  0.45594000000E+02  0.51100000000E-03 0. -1.
         11   -1    0    0    0    0 -0.00000000000E+00 -0.00000000000E+00 -0.45593999997E+02  0.45594000000E+02  0.51100000000E-03 0.  1.
    9900012    2    1    2    0    0  0.11018386386E+01 -0.33478898056E-01 -0.42169350964E+00  0.90007748062E+02  0.90000009536E+02 0.  0.
         12    1    1    2    0    0 -0.11018386386E+01  0.33478898056E-01  0.42169350964E+00  0.11802519385E+01  0.00000000000E+00 0. -1.
         11    1    3    3    0    0 -0.14016293991E+02  0.38230924604E+01  0.32956580337E+02  0.36016783879E+02  0.51100000000E-03 0. -1.
        -11    1    3    3    0    0 -0.10924624643E+01  0.25734025950E+01  0.83283694580E+01  0.87850790118E+01  0.51100000000E-03 0.  1.
        -12    1    3    3    0    0  0.16210595094E+02 -0.64299739534E+01 -0.41706643305E+02  0.45205885171E+02  0.00000000000E+00 0.  1.
</event>
<event>
 7    1  0.2285268E-015  0.9000753E+02  0.7816164E-02  0.1186339E+00
        -11   -1    0    0    0    0  0.00000000000E+00  0.00000000000E+00  0.45593999997E+02  0.45594000000E+02  0.51100000000E-03 0.  1.
         11   -1    0    0    0    0 -0.00000000000E+00 -0.00000000000E+00 -0.45593999997E+02  0.45594000000E+02  0.51100000000E-03 0. -1.
    9900012    2    1    2    0    0  0.47668816561E+00 -0.90922239808E+00  0.58274699757E+00  0.90007529314E+02  0.89999787901E+02 0.  0.
         12    1    1    2    0    0 -0.47668816561E+00  0.90922239808E+00 -0.58274699757E+00  0.11804706856E+01  0.00000000000E+00 0. -1.
         11    1    3    3    0    0 -0.29794953532E+02  0.12493264157E+02 -0.22366658362E+02  0.39294889131E+02  0.51100000000E-03 0. -1.
        -11    1    3    3    0    0 -0.54367663090E+00  0.72005853235E+01  0.20769145617E+00  0.72240673642E+01  0.51100000000E-03 0.  1.
        -12    1    3    3    0    0  0.30815318329E+02 -0.20603071879E+02  0.22741713904E+02  0.43488572819E+02  0.00000000000E+00 0.  1.
</event>
<event>
 7    1  0.2285268E-015  0.9000768E+02  0.7816164E-02  0.1186339E+00
        -11   -1    0    0    0    0  0.00000000000E+00  0.00000000000E+00  0.45593999997E+02  0.45594000000E+02  0.51100000000E-03 0. -1.
         11   -1    0    0    0    0 -0.00000000000E+00 -0.00000000000E+00 -0.45593999997E+02  0.45594000000E+02  0.51100000000E-03 0.  1.
    9900012    2    1    2    0    0  0.64088744936E+00 -0.75068630397E+00  0.64721269410E+00  0.90007681856E+02  0.89999942456E+02 0.  0.
         12    1    1    2    0    0 -0.64088744936E+00  0.75068630397E+00 -0.64721269410E+00  0.11803181440E+01  0.00000000000E+00 0. -1.
         11    1    3    3    0    0  0.31534461201E+02 -0.87570927966E+01  0.20727329908E+02  0.38739271067E+02  0.51100000000E-03 0. -1.
        -11    1    3    3    0    0  0.35072576579E+01  0.93126987969E+01  0.22921834052E+01  0.10211822569E+02  0.51100000000E-03 0.  1.
        -12    1    3    3    0    0 -0.34400831409E+02 -0.13062923043E+01 -0.22372300619E+02  0.41056588219E+02  0.00000000000E+00 0.  1.
</event>
<event>
 7    1  0.2285268E-015  0.9000779E+02  0.7816164E-02  0.1186339E+00
        -11   -1    0    0    0    0  0.00000000000E+00  0.00000000000E+00  0.45593999997E+02  0.45594000000E+02  0.51100000000E-03 0.  1.
         11   -1    0    0    0    0 -0.00000000000E+00 -0.00000000000E+00 -0.45593999997E+02  0.45594000000E+02  0.51100000000E-03 0. -1.
    9900012    2    1    2    0    0  0.50067976001E+00 -0.10370237166E+01  0.25843388317E+00  0.90007793881E+02  0.90000055960E+02 0.  0.
         12    1    1    2    0    0 -0.50067976001E+00  0.10370237166E+01 -0.25843388317E+00  0.11802061188E+01  0.00000000000E+00 0. -1.
         11    1    3    3    0    0 -0.21144451606E+02  0.22351555381E+02 -0.21889763490E+02  0.37760317896E+02  0.51100000000E-03 0. -1.
        -11    1    3    3    0    0  0.32365708941E+00  0.86873882832E+01  0.55028901736E+01  0.10288696206E+02  0.51100000000E-03 0.  1.
        -12    1    3    3    0    0  0.21321474277E+02 -0.32075967381E+02  0.16645307200E+02  0.41958779779E+02  0.00000000000E+00 0.  1.
</event>
<event>
 7    1  0.2285268E-015  0.9000706E+02  0.7816164E-02  0.1186340E+00
        -11   -1    0    0    0    0  0.00000000000E+00  0.00000000000E+00  0.45593999997E+02  0.45594000000E+02  0.51100000000E-03 0.  1.
         11   -1    0    0    0    0 -0.00000000000E+00 -0.00000000000E+00 -0.45593999997E+02  0.45594000000E+02  0.51100000000E-03 0. -1.
    9900012    2    1    2    0    0  0.63051890463E+00 -0.99588042048E+00 -0.72755057465E-01  0.90007057495E+02  0.89999309852E+02 0.  0.
         12    1    1    2    0    0 -0.63051890463E+00  0.99588042048E+00  0.72755057465E-01  0.11809425047E+01  0.00000000000E+00 0. -1.
         11    1    3    3    0    0  0.24678319975E+02  0.20496907834E+02  0.15932631661E+02  0.35818870159E+02  0.51100000000E-03 0. -1.
        -11    1    3    3    0    0  0.22818066008E+01  0.85143483185E+01  0.38301893849E+01  0.96109895244E+01  0.51100000000E-03 0.  1.
        -12    1    3    3    0    0 -0.26329607671E+02 -0.30007136573E+02 -0.19835576103E+02  0.44577197812E+02  0.00000000000E+00 0.  1.
</event>
<event>
 7    1  0.2285268E-015  0.9000773E+02  0.7816164E-02  0.1186339E+00
        -11   -1    0    0    0    0  0.00000000000E+00  0.00000000000E+00  0.45593999997E+02  0.45594000000E+02  0.51100000000E-03 0. -1.
         11   -1    0    0    0    0 -0.00000000000E+00 -0.00000000000E+00 -0.45593999997E+02  0.45594000000E+02  0.51100000000E-03 0.  1.
    9900012    2    1    2    0    0  0.15410879806E+00  0.77019860511E+00 -0.88095479372E+00  0.90007730217E+02  0.89999991455E+02 0.  0.
         12    1    1    2    0    0 -0.15410879806E+00 -0.77019860511E+00  0.88095479372E+00  0.11802697834E+01  0.00000000000E+00 0. -1.
         11    1    3    3    0    0 -0.77167904134E+01  0.36415090176E+01 -0.27360664624E+01  0.89607757564E+01  0.51100000000E-03 0. -1.
        -11    1    3    3    0    0 -0.19050498723E+01 -0.19330214920E+02 -0.34709183445E+02  0.39774537578E+02  0.51100000000E-03 0.  1.
         12    1    3    3    0    0  0.97759490837E+01  0.16458904508E+02  0.36564295114E+02  0.41272416882E+02  0.00000000000E+00 0. -1.
</event>
<event>
 7    1  0.2285268E-015  0.9000772E+02  0.7816164E-02  0.1186339E+00
        -11   -1    0    0    0    0  0.00000000000E+00  0.00000000000E+00  0.45593999997E+02  0.45594000000E+02  0.51100000000E-03 0.  1.
         11   -1    0    0    0    0 -0.00000000000E+00 -0.00000000000E+00 -0.45593999997E+02  0.45594000000E+02  0.51100000000E-03 0. -1.
    9900012    2    1    2    0    0  0.90193970786E+00 -0.48701539952E+00  0.58513038655E+00  0.90007721726E+02  0.89999982852E+02 0.  0.
         12    1    1    2    0    0 -0.90193970786E+00  0.48701539952E+00 -0.58513038655E+00  0.11802782745E+01  0.00000000000E+00 0. -1.
         11    1    3    3    0    0  0.15100984890E+02 -0.38125531252E+02 -0.49564096898E+01  0.41305712380E+02  0.51100000000E-03 0. -1.
        -11    1    3    3    0    0  0.62878533689E+01  0.30225526327E+01  0.48049759113E+01  0.84711698233E+01  0.51100000000E-03 0.  1.
        -12    1    3    3    0    0 -0.20486898551E+02  0.34615963220E+02  0.73656416510E+00  0.40230839522E+02  0.00000000000E+00 0.  1.
</event>
<event>
 7    1  0.2285268E-015  0.9000772E+02  0.7816164E-02  0.1186339E+00
        -11   -1    0    0    0    0  0.00000000000E+00  0.00000000000E+00  0.45593999997E+02  0.45594000000E+02  0.51100000000E-03 0.  1.
         11   -1    0    0    0    0 -0.00000000000E+00 -0.00000000000E+00 -0.45593999997E+02  0.45594000000E+02  0.51100000000E-03 0. -1.
    9900012    2    1    2    0    0  0.61712392523E+00  0.99628659454E+00  0.14013402252E+00  0.90007717635E+02  0.89999978707E+02 0.  0.
         12    1    1    2    0    0 -0.61712392523E+00 -0.99628659454E+00 -0.14013402252E+00  0.11802823653E+01  0.00000000000E+00 0. -1.
         11    1    3    3    0    0 -0.12002650614E+02 -0.17501489500E+02 -0.28202604369E+02  0.35295221347E+02  0.51100000000E-03 0. -1.
        -11    1    3    3    0    0 -0.32826208761E+01  0.12262518454E+00 -0.93247733046E+01  0.98864571104E+01  0.51100000000E-03 0.  1.
        -12    1    3    3    0    0  0.15902395416E+02  0.18375150910E+02  0.37667511696E+02  0.44826039177E+02  0.00000000000E+00 0.  1.
</event>
<event>
 7    1  0.2285268E-015  0.9000769E+02  0.7816164E-02  0.1186339E+00
        -11   -1    0    0    0    0  0.00000000000E+00  0.00000000000E+00  0.45593999997E+02  0.45594000000E+02  0.51100000000E-03 0.  1.
         11   -1    0    0    0    0 -0.00000000000E+00 -0.00000000000E+00 -0.45593999997E+02  0.45594000000E+02  0.51100000000E-03 0. -1.
    9900012    2    1    2    0    0  0.45212225317E+00  0.15743427436E+00  0.10788542910E+01  0.90007692132E+02  0.89999952868E+02 0.  0.
         12    1    1    2    0    0 -0.45212225317E+00 -0.15743427436E+00 -0.10788542910E+01  0.11803078682E+01  0.00000000000E+00 0. -1.
         11    1    3    3    0    0 -0.73293884061E+01  0.25719913361E+02 -0.25344043592E+02  0.36845005409E+02  0.51100000000E-03 0. -1.
        -11    1    3    3    0    0 -0.84031450116E+01 -0.54645133739E+00 -0.50535509432E+01  0.98208875641E+01  0.51100000000E-03 0.  1.
        -12    1    3    3    0    0  0.16184655671E+02 -0.25016027750E+02  0.31476448827E+02  0.43341799158E+02  0.00000000000E+00 0.  1.
</event>
<event>
 7    1  0.2285268E-015  0.9000871E+02  0.7816164E-02  0.1186337E+00
        -11   -1    0    0    0    0  0.00000000000E+00  0.00000000000E+00  0.45593999997E+02  0.45594000000E+02  0.51100000000E-03 0.  1.
         11   -1    0    0    0    0 -0.00000000000E+00 -0.00000000000E+00 -0.45593999997E+02  0.45594000000E+02  0.51100000000E-03 0. -1.
    9900012    2    1    2    0    0  0.24981110424E+00 -0.31425220232E+00  0.11088619446E+01  0.90008705785E+02  0.90000979896E+02 0.  0.
         12    1    1    2    0    0 -0.24981110424E+00  0.31425220232E+00 -0.11088619446E+01  0.11792942154E+01  0.00000000000E+00 0. -1.
         11    1    3    3    0    0  0.28629274596E+01 -0.35634015597E+02  0.64817078752E+01  0.36331693581E+02  0.51100000000E-03 0. -1.
        -11    1    3    3    0    0 -0.88886464691E+01  0.67320365337E+00  0.11567305581E+02  0.14603554289E+02  0.51100000000E-03 0.  1.
         12    1    3    3    0    0  0.62755301137E+01  0.34646559742E+02 -0.16940151512E+02  0.39073457914E+02  0.00000000000E+00 0. -1.
</event>
<event>
 7    1  0.2285268E-015  0.9000763E+02  0.7816164E-02  0.1186339E+00
        -11   -1    0    0    0    0  0.00000000000E+00  0.00000000000E+00  0.45593999997E+02  0.45594000000E+02  0.51100000000E-03 0.  1.
         11   -1    0    0    0    0 -0.00000000000E+00 -0.00000000000E+00 -0.45593999997E+02  0.45594000000E+02  0.51100000000E-03 0. -1.
    9900012    2    1    2    0    0 -0.11620811932E+00  0.31836114068E+00  0.11306753877E+01  0.90007625070E+02  0.89999884921E+02 0.  0.
         12    1    1    2    0    0  0.11620811932E+00 -0.31836114068E+00 -0.11306753877E+01  0.11803749300E+01  0.00000000000E+00 0. -1.
         11    1    3    3    0    0 -0.78482873575E+01  0.27219766564E+01  0.44205836960E+01  0.94099060483E+01  0.51100000000E-03 0. -1.
        -11    1    3    3    0    0  0.10439582945E+02 -0.30663940544E+02  0.24696291994E+02  0.40732898009E+02  0.51100000000E-03 0.  1.
         12    1    3    3    0    0 -0.27075037069E+01  0.28260325028E+02 -0.27986200302E+02  0.39864821012E+02  0.00000000000E+00 0. -1.
</event>
<event>
 7    1  0.2285268E-015  0.9000782E+02  0.7816164E-02  0.1186339E+00
        -11   -1    0    0    0    0  0.00000000000E+00  0.00000000000E+00  0.45593999997E+02  0.45594000000E+02  0.51100000000E-03 0. -1.
         11   -1    0    0    0    0 -0.00000000000E+00 -0.00000000000E+00 -0.45593999997E+02  0.45594000000E+02  0.51100000000E-03 0.  1.
    9900012    2    1    2    0    0  0.83066001543E+00  0.74041082030E+00 -0.39321912738E+00  0.90007819706E+02  0.90000082126E+02 0.  0.
         12    1    1    2    0    0 -0.83066001543E+00 -0.74041082030E+00  0.39321912738E+00  0.11801802939E+01  0.00000000000E+00 0. -1.
         11    1    3    3    0    0  0.24665520229E+02 -0.23229183842E+02  0.11287766901E+02  0.35712694550E+02  0.51100000000E-03 0. -1.
        -11    1    3    3    0    0 -0.28212605922E+01 -0.10051537264E+02  0.42218644514E+01  0.11261307757E+02  0.51100000000E-03 0.  1.
        -12    1    3    3    0    0 -0.21013599621E+02  0.34021131926E+02 -0.15902850480E+02  0.43033817399E+02  0.00000000000E+00 0.  1.
</event>
<event>
 7    1  0.2285268E-015  0.9000776E+02  0.7816164E-02  0.1186339E+00
        -11   -1    0    0    0    0  0.00000000000E+00  0.00000000000E+00  0.45593999997E+02  0.45594000000E+02  0.51100000000E-03 0.  1.
         11   -1    0    0    0    0 -0.00000000000E+00 -0.00000000000E+00 -0.45593999997E+02  0.45594000000E+02  0.51100000000E-03 0. -1.
    9900012    2    1    2    0    0 -0.66448649942E+00 -0.95953021323E+00  0.17525653399E+00  0.90007764688E+02  0.90000026382E+02 0.  0.
         12    1    1    2    0    0  0.66448649942E+00  0.95953021323E+00 -0.17525653399E+00  0.11802353116E+01  0.00000000000E+00 0. -1.
         11    1    3    3    0    0 -0.19998088041E+02 -0.25007404464E+02 -0.19400245594E+02  0.37438794488E+02  0.51100000000E-03 0. -1.
        -11    1    3    3    0    0 -0.52699157731E+01  0.58654085068E-01 -0.72584111383E+01  0.89699490005E+01  0.51100000000E-03 0.  1.
        -12    1    3    3    0    0  0.24603517315E+02  0.23989220166E+02  0.26833913267E+02  0.43599021200E+02  0.00000000000E+00 0.  1.
</event>
<event>
 7    1  0.2285268E-015  0.9000773E+02  0.7816164E-02  0.1186339E+00
        -11   -1    0    0    0    0  0.00000000000E+00  0.00000000000E+00  0.45593999997E+02  0.45594000000E+02  0.51100000000E-03 0.  1.
         11   -1    0    0    0    0 -0.00000000000E+00 -0.00000000000E+00 -0.45593999997E+02  0.45594000000E+02  0.51100000000E-03 0. -1.
    9900012    2    1    2    0    0  0.10856973502E+01 -0.46187477537E+00 -0.31334261931E-01  0.90007725083E+02  0.89999986254E+02 0.  0.
         12    1    1    2    0    0 -0.10856973502E+01  0.46187477537E+00  0.31334261931E-01  0.11802749173E+01  0.00000000000E+00 0. -1.
         11    1    3    3    0    0 -0.21552967378E+02  0.39042303509E+01 -0.34425412783E+02  0.40802971252E+02  0.51100000000E-03 0. -1.
        -11    1    3    3    0    0  0.43399365535E+01 -0.67921507207E+01 -0.20812857492E+01  0.83246688422E+01  0.51100000000E-03 0.  1.
        -12    1    3    3    0    0  0.18298728175E+02  0.24260455944E+01  0.36475364270E+02  0.40880084989E+02  0.00000000000E+00 0.  1.
</event>
<event>
 7    1  0.2285268E-015  0.9000772E+02  0.7816164E-02  0.1186339E+00
        -11   -1    0    0    0    0  0.00000000000E+00  0.00000000000E+00  0.45593999997E+02  0.45594000000E+02  0.51100000000E-03 0. -1.
         11   -1    0    0    0    0 -0.00000000000E+00 -0.00000000000E+00 -0.45593999997E+02  0.45594000000E+02  0.51100000000E-03 0.  1.
    9900012    2    1    2    0    0 -0.42184851331E+00  0.12309080276E+00 -0.10954195584E+01  0.90007723963E+02  0.89999985120E+02 0.  0.
         12    1    1    2    0    0  0.42184851331E+00 -0.12309080276E+00  0.10954195584E+01  0.11802760367E+01  0.00000000000E+00 0. -1.
         11    1    3    3    0    0  0.47562391676E-01  0.93151915572E+01  0.35546146526E+01  0.99704734851E+01  0.51100000000E-03 0. -1.
        -11    1    3    3    0    0 -0.11792759782E+02  0.27764825392E+02  0.18107227409E+02  0.35182757098E+02  0.51100000000E-03 0.  1.
         12    1    3    3    0    0  0.11323348877E+02 -0.36956926146E+02 -0.22757261620E+02  0.44854493380E+02  0.00000000000E+00 0. -1.
</event>
<event>
 7    1  0.2285268E-015  0.9000777E+02  0.7816164E-02  0.1186339E+00
        -11   -1    0    0    0    0  0.00000000000E+00  0.00000000000E+00  0.45593999997E+02  0.45594000000E+02  0.51100000000E-03 0.  1.
         11   -1    0    0    0    0 -0.00000000000E+00 -0.00000000000E+00 -0.45593999997E+02  0.45594000000E+02  0.51100000000E-03 0. -1.
    9900012    2    1    2    0    0 -0.40559989320E+00 -0.10197908966E+01 -0.43412586842E+00  0.90007766965E+02  0.90000028689E+02 0.  0.
         12    1    1    2    0    0  0.40559989320E+00  0.10197908966E+01  0.43412586842E+00  0.11802330346E+01  0.00000000000E+00 0. -1.
         11    1    3    3    0    0 -0.40008066180E+01 -0.65751018598E-01 -0.83972380493E+01  0.93018484136E+01  0.51100000000E-03 0. -1.
        -11    1    3    3    0    0 -0.90412840683E+00 -0.40287582882E+02 -0.12604173527E+00  0.40297923885E+02  0.51100000000E-03 0.  1.
         12    1    3    3    0    0  0.44993351316E+01  0.39333543004E+02  0.80891539162E+01  0.40407994667E+02  0.00000000000E+00 0. -1.
</event>
<event>
 7    1  0.2285268E-015  0.9000773E+02  0.7816164E-02  0.1186339E+00
        -11   -1    0    0    0    0  0.00000000000E+00  0.00000000000E+00  0.45593999997E+02  0.45594000000E+02  0.51100000000E-03 0. -1.
         11   -1    0    0    0    0 -0.00000000000E+00 -0.00000000000E+00 -0.45593999997E+02  0.45594000000E+02  0.51100000000E-03 0.  1.
    9900012    2    1    2    0    0  0.53604812444E+00 -0.85527600700E+00 -0.61171989175E+00  0.90007726360E+02  0.89999987548E+02 0.  0.
         12    1    1    2    0    0 -0.53604812444E+00  0.85527600700E+00  0.61171989175E+00  0.11802736402E+01  0.00000000000E+00 0. -1.
         11    1    3    3    0    0  0.10935973406E+02 -0.24674056806E+01  0.34682735021E+02  0.36449632563E+02  0.51100000000E-03 0. -1.
        -11    1    3    3    0    0 -0.85830220263E+01  0.49698166086E+01  0.63254570140E+01  0.11763449788E+02  0.51100000000E-03 0.  1.
        -12    1    3    3    0    0 -0.18169032556E+01 -0.33576869350E+01 -0.41619911927E+02  0.41794644009E+02  0.00000000000E+00 0.  1.
</event>
<event>
 7    1  0.2285268E-015  0.9000773E+02  0.7816164E-02  0.1186339E+00
        -11   -1    0    0    0    0  0.00000000000E+00  0.00000000000E+00  0.45593999997E+02  0.45594000000E+02  0.51100000000E-03 0.  1.
         11   -1    0    0    0    0 -0.00000000000E+00 -0.00000000000E+00 -0.45593999997E+02  0.45594000000E+02  0.51100000000E-03 0. -1.
    9900012    2    1    2    0    0  0.79710149315E+00  0.86744431312E+00 -0.72105640580E-01  0.90007733229E+02  0.89999994508E+02 0.  0.
         12    1    1    2    0    0 -0.79710149315E+00 -0.86744431312E+00  0.72105640580E-01  0.11802667708E+01  0.00000000000E+00 0. -1.
         11    1    3    3    0    0 -0.25588420327E+02  0.43581657445E+01 -0.31862950513E+02  0.41097548334E+02  0.51100000000E-03 0. -1.
        -11    1    3    3    0    0 -0.45941278257E+01 -0.45188188960E-01  0.96143048816E+01  0.10655651602E+02  0.51100000000E-03 0.  1.
        -12    1    3    3    0    0  0.30979649645E+02 -0.34455332424E+01  0.22176539991E+02  0.38254533293E+02  0.00000000000E+00 0.  1.
</event>
<event>
 7    1  0.2285268E-015  0.9000768E+02  0.7816164E-02  0.1186339E+00
        -11   -1    0    0    0    0  0.00000000000E+00  0.00000000000E+00  0.45593999997E+02  0.45594000000E+02  0.51100000000E-03 0.  1.
         11   -1    0    0    0    0 -0.00000000000E+00 -0.00000000000E+00 -0.45593999997E+02  0.45594000000E+02  0.51100000000E-03 0. -1.
    9900012    2    1    2    0    0  0.45575646542E+00 -0.99330354932E+00  0.44586646982E+00  0.90007676821E+02  0.89999937355E+02 0.  0.
         12    1    1    2    0    0 -0.45575646542E+00  0.99330354932E+00 -0.44586646982E+00  0.11803231785E+01  0.00000000000E+00 0. -1.
         11    1    3    3    0    0  0.71602821214E+00  0.39905108150E+01 -0.11018109369E+02  0.11740341021E+02  0.51100000000E-03 0. -1.
        -11    1    3    3    0    0  0.34011725023E+02  0.53634154532E+01 -0.10827789182E+02  0.36094385758E+02  0.51100000000E-03 0.  1.
         12    1    3    3    0    0 -0.34271996770E+02 -0.10347229817E+02  0.22291765021E+02  0.42172950042E+02  0.00000000000E+00 0. -1.
</event>
<event>
 7    1  0.2285268E-015  0.9000775E+02  0.7816164E-02  0.1186339E+00
        -11   -1    0    0    0    0  0.00000000000E+00  0.00000000000E+00  0.45593999997E+02  0.45594000000E+02  0.51100000000E-03 0. -1.
         11   -1    0    0    0    0 -0.00000000000E+00 -0.00000000000E+00 -0.45593999997E+02  0.45594000000E+02  0.51100000000E-03 0.  1.
    9900012    2    1    2    0    0  0.38439644360E+00  0.59952413809E+00 -0.94116657239E+00  0.90007752426E+02  0.90000013958E+02 0.  0.
         12    1    1    2    0    0 -0.38439644360E+00 -0.59952413809E+00  0.94116657239E+00  0.11802475736E+01  0.00000000000E+00 0. -1.
         11    1    3    3    0    0  0.19987076001E+02 -0.35505060032E+02 -0.59558675112E+01  0.41177237074E+02  0.51100000000E-03 0. -1.
        -11    1    3    3    0    0  0.36006771064E+01  0.76788719479E+01 -0.61497018774E+01  0.10476105357E+02  0.51100000000E-03 0.  1.
        -12    1    3    3    0    0 -0.23203356664E+02  0.28425712222E+02  0.11164402816E+02  0.38354409995E+02  0.00000000000E+00 0.  1.
</event>
<event>
 7    1  0.2285268E-015  0.9000777E+02  0.7816164E-02  0.1186339E+00
        -11   -1    0    0    0    0  0.00000000000E+00  0.00000000000E+00  0.45593999997E+02  0.45594000000E+02  0.51100000000E-03 0. -1.
         11   -1    0    0    0    0 -0.00000000000E+00 -0.00000000000E+00 -0.45593999997E+02  0.45594000000E+02  0.51100000000E-03 0.  1.
    9900012    2    1    2    0    0  0.97183023064E+00  0.10107185130E+00 -0.66202553930E+00  0.90007768103E+02  0.90000029842E+02 0.  0.
         12    1    1    2    0    0 -0.97183023064E+00 -0.10107185130E+00  0.66202553930E+00  0.11802318971E+01  0.00000000000E+00 0. -1.
         11    1    3    3    0    0 -0.63927265304E+01  0.22698130794E+01  0.29734544660E+02  0.30498559807E+02  0.51100000000E-03 0. -1.
        -11    1    3    3    0    0 -0.43292125075E-01  0.45246239971E+01  0.13631753182E+02  0.14363105221E+02  0.51100000000E-03 0.  1.
        -12    1    3    3    0    0  0.74078488861E+01 -0.66933652252E+01 -0.44028323381E+02  0.45146103075E+02  0.00000000000E+00 0.  1.
</event>
<event>
 7    1  0.2285268E-015  0.9000777E+02  0.7816164E-02  0.1186339E+00
        -11   -1    0    0    0    0  0.00000000000E+00  0.00000000000E+00  0.45593999997E+02  0.45594000000E+02  0.51100000000E-03 0.  1.
         11   -1    0    0    0    0 -0.00000000000E+00 -0.00000000000E+00 -0.45593999997E+02  0.45594000000E+02  0.51100000000E-03 0. -1.
    9900012    2    1    2    0    0  0.40174980297E+00  0.51243057538E+00  0.98435337006E+00  0.90007771397E+02  0.90000033179E+02 0.  0.
         12    1    1    2    0    0 -0.40174980297E+00 -0.51243057538E+00 -0.98435337006E+00  0.11802286033E+01  0.00000000000E+00 0. -1.
         11    1    3    3    0    0  0.67599411527E+01  0.61450695095E+01 -0.38724333626E+02  0.39787343448E+02  0.51100000000E-03 0. -1.
        -11    1    3    3    0    0  0.78495742686E+01 -0.39212107862E+01  0.85609171620E+00  0.88161558242E+01  0.51100000000E-03 0.  1.
        -12    1    3    3    0    0 -0.14207765618E+02 -0.17114281479E+01  0.38852595280E+02  0.41404272124E+02  0.00000000000E+00 0.  1.
</event>
<event>
 7    1  0.2285268E-015  0.9000769E+02  0.7816164E-02  0.1186339E+00
        -11   -1    0    0    0    0  0.00000000000E+00  0.00000000000E+00  0.45593999997E+02  0.45594000000E+02  0.51100000000E-03 0.  1.
         11   -1    0    0    0    0 -0.00000000000E+00 -0.00000000000E+00 -0.45593999997E+02  0.45594000000E+02  0.51100000000E-03 0. -1.
    9900012    2    1    2    0    0  0.10841697602E+01  0.79908589124E-01  0.45969004863E+00  0.90007693094E+02  0.89999953843E+02 0.  0.
         12    1    1    2    0    0 -0.10841697602E+01 -0.79908589124E-01 -0.45969004863E+00  0.11803069060E+01  0.00000000000E+00 0. -1.
         11    1    3    3    0    0 -0.14638309543E+02  0.30025082924E+02 -0.17445942251E+02  0.37684832654E+02  0.51100000000E-03 0. -1.
        -11    1    3    3    0    0 -0.10089757716E+02 -0.41551965828E+01 -0.14681214109E+01  0.11010188470E+02  0.51100000000E-03 0.  1.
        -12    1    3    3    0    0  0.25812237020E+02 -0.25789977752E+02  0.19373753710E+02  0.41312671970E+02  0.00000000000E+00 0.  1.
</event>
<event>
 7    1  0.2285268E-015  0.9000767E+02  0.7816164E-02  0.1186339E+00
        -11   -1    0    0    0    0  0.00000000000E+00  0.00000000000E+00  0.45593999997E+02  0.45594000000E+02  0.51100000000E-03 0.  1.
         11   -1    0    0    0    0 -0.00000000000E+00 -0.00000000000E+00 -0.45593999997E+02  0.45594000000E+02  0.51100000000E-03 0. -1.
    9900012    2    1    2    0    0  0.42441650773E+00 -0.79066666925E+00 -0.76674031295E+00  0.90007672138E+02  0.89999932610E+02 0.  0.
         12    1    1    2    0    0 -0.42441650773E+00  0.79066666925E+00  0.76674031295E+00  0.11803278618E+01  0.00000000000E+00 0. -1.
         11    1    3    3    0    0 -0.33901251718E+02 -0.10714286903E+02  0.21314205813E+02  0.41453421832E+02  0.51100000000E-03 0. -1.
        -11    1    3    3    0    0  0.45620497127E+01 -0.73121915168E+01 -0.24856569145E+01  0.89698903515E+01  0.51100000000E-03 0.  1.
        -12    1    3    3    0    0  0.29763618513E+02  0.17235811751E+02 -0.19595289211E+02  0.39584359954E+02  0.00000000000E+00 0.  1.
</event>
<event>
 7    1  0.2285268E-015  0.9000781E+02  0.7816164E-02  0.1186339E+00
        -11   -1    0    0    0    0  0.00000000000E+00  0.00000000000E+00  0.45593999997E+02  0.45594000000E+02  0.51100000000E-03 0. -1.
         11   -1    0    0    0    0 -0.00000000000E+00 -0.00000000000E+00 -0.45593999997E+02  0.45594000000E+02  0.51100000000E-03 0.  1.
    9900012    2    1    2    0    0  0.73230806890E+00  0.18341571494E+00  0.90715786107E+00  0.90007808568E+02  0.90000070841E+02 0.  0.
         12    1    1    2    0    0 -0.73230806890E+00 -0.18341571494E+00 -0.90715786107E+00  0.11801914324E+01  0.00000000000E+00 0. -1.
         11    1    3    3    0    0  0.26483263747E+02 -0.11512094907E+02  0.24652260864E+02  0.37968744433E+02  0.51100000000E-03 0. -1.
        -11    1    3    3    0    0  0.55198574317E+01 -0.70984850842E+01 -0.10039883979E+01  0.90479450441E+01  0.51100000000E-03 0.  1.
        -12    1    3    3    0    0 -0.31270813110E+02  0.18793995706E+02 -0.22741114605E+02  0.42991119090E+02  0.00000000000E+00 0.  1.
</event>
<event>
 7    1  0.2285268E-015  0.9000786E+02  0.7816164E-02  0.1186339E+00
        -11   -1    0    0    0    0  0.00000000000E+00  0.00000000000E+00  0.45593999997E+02  0.45594000000E+02  0.51100000000E-03 0.  1.
         11   -1    0    0    0    0 -0.00000000000E+00 -0.00000000000E+00 -0.45593999997E+02  0.45594000000E+02  0.51100000000E-03 0. -1.
    9900012    2    1    2    0    0 -0.11400341801E+01 -0.21798404492E+00  0.21338331967E+00  0.90007861272E+02  0.90000124241E+02 0.  0.
         12    1    1    2    0    0  0.11400341801E+01  0.21798404492E+00 -0.21338331967E+00  0.11801387278E+01  0.00000000000E+00 0. -1.
         11    1    3    3    0    0  0.21603948844E+02  0.24147596255E+02 -0.19875643206E+02  0.38011553555E+02  0.51100000000E-03 0. -1.
        -11    1    3    3    0    0  0.68504330141E+01 -0.19056971457E+01 -0.35640578459E+01  0.79537804019E+01  0.51100000000E-03 0.  1.
        -12    1    3    3    0    0 -0.29594416039E+02 -0.22459883154E+02  0.23653084372E+02  0.44042527315E+02  0.00000000000E+00 0.  1.
</event>
<event>
 7    1  0.2285268E-015  0.9000772E+02  0.7816164E-02  0.1186339E+00
        -11   -1    0    0    0    0  0.00000000000E+00  0.00000000000E+00  0.45593999997E+02  0.45594000000E+02  0.51100000000E-03 0. -1.
         11   -1    0    0    0    0 -0.00000000000E+00 -0.00000000000E+00 -0.45593999997E+02  0.45594000000E+02  0.51100000000E-03 0.  1.
    9900012    2    1    2    0    0 -0.39542020815E+00 -0.95775786168E+00 -0.56514951690E+00  0.90007724084E+02  0.89999985241E+02 0.  0.
         12    1    1    2    0    0  0.39542020815E+00  0.95775786168E+00  0.56514951690E+00  0.11802759165E+01  0.00000000000E+00 0. -1.
         11    1    3    3    0    0  0.52961636467E+01 -0.52420255743E+01 -0.75441639292E+01  0.10603895093E+02  0.51100000000E-03 0. -1.
        -11    1    3    3    0    0 -0.11685108612E+02 -0.36089909560E+02 -0.34114459716E+00  0.37935994981E+02  0.51100000000E-03 0.  1.
         12    1    3    3    0    0  0.59935247575E+01  0.40374177273E+02  0.73201590094E+01  0.41467834009E+02  0.00000000000E+00 0. -1.
</event>
<event>
 7    1  0.2285268E-015  0.9000818E+02  0.7816164E-02  0.1186338E+00
        -11   -1    0    0    0    0  0.00000000000E+00  0.00000000000E+00  0.45593999997E+02  0.45594000000E+02  0.51100000000E-03 0.  1.
         11   -1    0    0    0    0 -0.00000000000E+00 -0.00000000000E+00 -0.45593999997E+02  0.45594000000E+02  0.51100000000E-03 0. -1.
    9900012    2    1    2    0    0  0.67284126424E+00  0.96898378456E+00 -0.17909142693E-01  0.90008184049E+02  0.90000451277E+02 0.  0.
         12    1    1    2    0    0 -0.67284126424E+00 -0.96898378456E+00  0.17909142693E-01  0.11798159513E+01  0.00000000000E+00 0. -1.
         11    1    3    3    0    0 -0.15059491185E+02 -0.36260866508E+01 -0.32229138341E+02  0.35758273695E+02  0.51100000000E-03 0. -1.
        -11    1    3    3    0    0 -0.49851060880E+01  0.34814072659E+01 -0.73737395768E+01  0.95573801257E+01  0.51100000000E-03 0.  1.
        -12    1    3    3    0    0  0.20717438538E+02  0.11136631695E+01  0.39584968776E+02  0.44692530228E+02  0.00000000000E+00 0.  1.
</event>
<event>
 7    1  0.2285268E-015  0.9000774E+02  0.7816164E-02  0.1186339E+00
        -11   -1    0    0    0    0  0.00000000000E+00  0.00000000000E+00  0.45593999997E+02  0.45594000000E+02  0.51100000000E-03 0.  1.
         11   -1    0    0    0    0 -0.00000000000E+00 -0.00000000000E+00 -0.45593999997E+02  0.45594000000E+02  0.51100000000E-03 0. -1.
    9900012    2    1    2    0    0 -0.19849477501E+00  0.98807437989E+00 -0.61427120787E+00  0.90007737202E+02  0.89999998533E+02 0.  0.
         12    1    1    2    0    0  0.19849477501E+00 -0.98807437989E+00  0.61427120787E+00  0.11802627982E+01  0.00000000000E+00 0. -1.
         11    1    3    3    0    0  0.93395061961E+01  0.29882420962E+01  0.17860135053E+01  0.99672368947E+01  0.51100000000E-03 0. -1.
        -11    1    3    3    0    0  0.14260359006E+02  0.28597653622E+02  0.17535720454E+02  0.36451133367E+02  0.51100000000E-03 0.  1.
         12    1    3    3    0    0 -0.23798359977E+02 -0.30597821338E+02 -0.19936005167E+02  0.43589366940E+02  0.00000000000E+00 0. -1.
</event>
<event>
 7    1  0.2285268E-015  0.9000777E+02  0.7816164E-02  0.1186339E+00
        -11   -1    0    0    0    0  0.00000000000E+00  0.00000000000E+00  0.45593999997E+02  0.45594000000E+02  0.51100000000E-03 0.  1.
         11   -1    0    0    0    0 -0.00000000000E+00 -0.00000000000E+00 -0.45593999997E+02  0.45594000000E+02  0.51100000000E-03 0. -1.
    9900012    2    1    2    0    0 -0.10394857428E+01  0.55820587500E+00  0.28756792087E-01  0.90007766395E+02  0.90000028112E+02 0.  0.
         12    1    1    2    0    0  0.10394857428E+01 -0.55820587500E+00 -0.28756792087E-01  0.11802336046E+01  0.00000000000E+00 0. -1.
         11    1    3    3    0    0  0.69077228890E+01  0.70228082042E+01  0.20237005763E+01  0.10056432512E+02  0.51100000000E-03 0. -1.
        -11    1    3    3    0    0  0.23637255367E+02  0.25520091614E+02  0.18642582470E+01  0.34834901699E+02  0.51100000000E-03 0.  1.
         12    1    3    3    0    0 -0.31584463999E+02 -0.31984693943E+02 -0.38592020313E+01  0.45116432185E+02  0.00000000000E+00 0. -1.
</event>
<event>
 7    1  0.2285268E-015  0.9000775E+02  0.7816164E-02  0.1186339E+00
        -11   -1    0    0    0    0  0.00000000000E+00  0.00000000000E+00  0.45593999997E+02  0.45594000000E+02  0.51100000000E-03 0.  1.
         11   -1    0    0    0    0 -0.00000000000E+00 -0.00000000000E+00 -0.45593999997E+02  0.45594000000E+02  0.51100000000E-03 0. -1.
    9900012    2    1    2    0    0 -0.11113941356E+01 -0.30316427934E+00  0.25665724570E+00  0.90007754921E+02  0.90000016486E+02 0.  0.
         12    1    1    2    0    0  0.11113941356E+01  0.30316427934E+00 -0.25665724570E+00  0.11802450791E+01  0.00000000000E+00 0. -1.
         11    1    3    3    0    0  0.33845389682E+01  0.18772030911E+01  0.81935391707E+01  0.90616267786E+01  0.51100000000E-03 0. -1.
        -11    1    3    3    0    0  0.14433594773E+02 -0.26899324458E+02  0.22098026589E+02  0.37685873929E+02  0.51100000000E-03 0.  1.
         12    1    3    3    0    0 -0.18929527877E+02  0.24718957088E+02 -0.30034908514E+02  0.43260254213E+02  0.00000000000E+00 0. -1.
</event>
<event>
 7    1  0.2285268E-015  0.9000770E+02  0.7816164E-02  0.1186339E+00
        -11   -1    0    0    0    0  0.00000000000E+00  0.00000000000E+00  0.45593999997E+02  0.45594000000E+02  0.51100000000E-03 0.  1.
         11   -1    0    0    0    0 -0.00000000000E+00 -0.00000000000E+00 -0.45593999997E+02  0.45594000000E+02  0.51100000000E-03 0. -1.
    9900012    2    1    2    0    0 -0.65116581894E+00 -0.55957781248E+00  0.80992183530E+00  0.90007695958E+02  0.89999956745E+02 0.  0.
         12    1    1    2    0    0  0.65116581894E+00  0.55957781248E+00 -0.80992183530E+00  0.11803040419E+01  0.00000000000E+00 0. -1.
         11    1    3    3    0    0 -0.14861971302E+02  0.34334121345E+02  0.20179614077E+01  0.37467082192E+02  0.51100000000E-03 0. -1.
        -11    1    3    3    0    0  0.62532410352E+01  0.65986997430E+01  0.40759453592E+01  0.99628907740E+01  0.51100000000E-03 0.  1.
        -12    1    3    3    0    0  0.79575644480E+01 -0.41492398900E+02 -0.52839849316E+01  0.42577722992E+02  0.00000000000E+00 0.  1.
</event>
<event>
 7    1  0.2285268E-015  0.9000788E+02  0.7816164E-02  0.1186339E+00
        -11   -1    0    0    0    0  0.00000000000E+00  0.00000000000E+00  0.45593999997E+02  0.45594000000E+02  0.51100000000E-03 0.  1.
         11   -1    0    0    0    0 -0.00000000000E+00 -0.00000000000E+00 -0.45593999997E+02  0.45594000000E+02  0.51100000000E-03 0. -1.
    9900012    2    1    2    0    0 -0.74638245686E+00 -0.31857719851E+00  0.85680336987E+00  0.90007877033E+02  0.90000140209E+02 0.  0.
         12    1    1    2    0    0  0.74638245686E+00  0.31857719851E+00 -0.85680336987E+00  0.11801229673E+01  0.00000000000E+00 0. -1.
         11    1    3    3    0    0 -0.85587317216E+01 -0.27341184954E+01 -0.36197640351E+02  0.37296064938E+02  0.51100000000E-03 0. -1.
        -11    1    3    3    0    0 -0.61866183976E+01  0.45052336560E+01 -0.44550912339E+01  0.88554624756E+01  0.51100000000E-03 0.  1.
        -12    1    3    3    0    0  0.13998967662E+02 -0.20896923591E+01  0.41509534955E+02  0.43856349619E+02  0.00000000000E+00 0.  1.
</event>
<event>
 7    1  0.2285268E-015  0.9000767E+02  0.7816164E-02  0.1186339E+00
        -11   -1    0    0    0    0  0.00000000000E+00  0.00000000000E+00  0.45593999997E+02  0.45594000000E+02  0.51100000000E-03 0. -1.
         11   -1    0    0    0    0 -0.00000000000E+00 -0.00000000000E+00 -0.45593999997E+02  0.45594000000E+02  0.51100000000E-03 0.  1.
    9900012    2    1    2    0    0 -0.10603413242E+01  0.51001825152E+00  0.93501433333E-01  0.90007667480E+02  0.89999927890E+02 0.  0.
         12    1    1    2    0    0  0.10603413242E+01 -0.51001825152E+00 -0.93501433333E-01  0.11803325204E+01  0.00000000000E+00 0. -1.
         11    1    3    3    0    0  0.16999852237E+01  0.38608493986E+02  0.73386285466E+01  0.39336512642E+02  0.51100000000E-03 0. -1.
        -11    1    3    3    0    0  0.14101909569E+01  0.15564497129E+01 -0.10459394385E+02  0.10668181916E+02  0.51100000000E-03 0.  1.
        -12    1    3    3    0    0 -0.41705175048E+01 -0.39654925447E+02  0.32142672715E+01  0.40002972922E+02  0.00000000000E+00 0.  1.
</event>
<event>
 7    1  0.2285268E-015  0.9000774E+02  0.7816164E-02  0.1186339E+00
        -11   -1    0    0    0    0  0.00000000000E+00  0.00000000000E+00  0.45593999997E+02  0.45594000000E+02  0.51100000000E-03 0.  1.
         11   -1    0    0    0    0 -0.00000000000E+00 -0.00000000000E+00 -0.45593999997E+02  0.45594000000E+02  0.51100000000E-03 0. -1.
    9900012    2    1    2    0    0 -0.31338792989E+00 -0.94038727764E+00  0.64067545320E+00  0.90007743561E+02  0.90000004976E+02 0.  0.
         12    1    1    2    0    0  0.31338792989E+00  0.94038727764E+00 -0.64067545320E+00  0.11802564395E+01  0.00000000000E+00 0. -1.
         11    1    3    3    0    0 -0.28202455758E+02 -0.21698802954E+02  0.31677176387E+01  0.35724655292E+02  0.51100000000E-03 0. -1.
        -11    1    3    3    0    0 -0.88427687287E+01 -0.31066700237E+01  0.36254161769E+01  0.10049358196E+02  0.51100000000E-03 0.  1.
        -12    1    3    3    0    0  0.36731836557E+02  0.23865085700E+02 -0.61524583624E+01  0.44233730073E+02  0.00000000000E+00 0.  1.
</event>
<event>
 7    1  0.2285268E-015  0.9000772E+02  0.7816164E-02  0.1186339E+00
        -11   -1    0    0    0    0  0.00000000000E+00  0.00000000000E+00  0.45593999997E+02  0.45594000000E+02  0.51100000000E-03 0.  1.
         11   -1    0    0    0    0 -0.00000000000E+00 -0.00000000000E+00 -0.45593999997E+02  0.45594000000E+02  0.51100000000E-03 0. -1.
    9900012    2    1    2    0    0  0.85400773845E-01  0.19446105256E-02  0.11771805195E+01  0.90007724164E+02  0.89999985323E+02 0.  0.
         12    1    1    2    0    0 -0.85400773845E-01 -0.19446105256E-02 -0.11771805195E+01  0.11802758360E+01  0.00000000000E+00 0. -1.
         11    1    3    3    0    0  0.25768339563E+02  0.35511483692E+02 -0.16914827285E+01  0.43908244236E+02  0.51100000000E-03 0. -1.
        -11    1    3    3    0    0 -0.17913720180E+01 -0.76703947158E+01  0.50375876548E+01  0.93499336064E+01  0.51100000000E-03 0.  1.
        -12    1    3    3    0    0 -0.23891566771E+02 -0.27839144365E+02 -0.21689244068E+01  0.36749546322E+02  0.00000000000E+00 0.  1.
</event>
<event>
 7    1  0.2285268E-015  0.9000771E+02  0.7816164E-02  0.1186339E+00
        -11   -1    0    0    0    0  0.00000000000E+00  0.00000000000E+00  0.45593999997E+02  0.45594000000E+02  0.51100000000E-03 0.  1.
         11   -1    0    0    0    0 -0.00000000000E+00 -0.00000000000E+00 -0.45593999997E+02  0.45594000000E+02  0.51100000000E-03 0. -1.
    9900012    2    1    2    0    0 -0.75884350354E+00  0.59516405363E+00  0.68045513342E+00  0.90007710670E+02  0.89999971651E+02 0.  0.
         12    1    1    2    0    0  0.75884350354E+00 -0.59516405363E+00 -0.68045513342E+00  0.11802893299E+01  0.00000000000E+00 0. -1.
         11    1    3    3    0    0 -0.28746468829E+01  0.34845040677E+02 -0.12570312243E+02  0.37154450671E+02  0.51100000000E-03 0. -1.
        -11    1    3    3    0    0 -0.85560857213E+01  0.45500464239E+01 -0.18623727893E+01  0.98680270570E+01  0.51100000000E-03 0.  1.
        -12    1    3    3    0    0  0.10671889101E+02 -0.38799923047E+02  0.15113140165E+02  0.42985232943E+02  0.00000000000E+00 0.  1.
</event>
<event>
 7    1  0.2285268E-015  0.9000772E+02  0.7816164E-02  0.1186339E+00
        -11   -1    0    0    0    0  0.00000000000E+00  0.00000000000E+00  0.45593999997E+02  0.45594000000E+02  0.51100000000E-03 0.  1.
         11   -1    0    0    0    0 -0.00000000000E+00 -0.00000000000E+00 -0.45593999997E+02  0.45594000000E+02  0.51100000000E-03 0. -1.
    9900012    2    1    2    0    0 -0.10919096619E+01  0.60742751258E-01  0.44395386208E+00  0.90007724005E+02  0.89999985162E+02 0.  0.
         12    1    1    2    0    0  0.10919096619E+01 -0.60742751258E-01 -0.44395386208E+00  0.11802759945E+01  0.00000000000E+00 0. -1.
         11    1    3    3    0    0  0.12255523367E+02  0.84280683916E+01  0.14986945477E+01  0.14949122898E+02  0.51100000000E-03 0. -1.
        -11    1    3    3    0    0 -0.56870891511E+01  0.32710395053E+02  0.10747844479E+01  0.33218490173E+02  0.51100000000E-03 0.  1.
         12    1    3    3    0    0 -0.76603438780E+01 -0.41077720693E+02 -0.21295251335E+01  0.41840110934E+02  0.00000000000E+00 0. -1.
</event>
<event>
 7    1  0.2285268E-015  0.9000782E+02  0.7816164E-02  0.1186339E+00
        -11   -1    0    0    0    0  0.00000000000E+00  0.00000000000E+00  0.45593999997E+02  0.45594000000E+02  0.51100000000E-03 0. -1.
         11   -1    0    0    0    0 -0.00000000000E+00 -0.00000000000E+00 -0.45593999997E+02  0.45594000000E+02  0.51100000000E-03 0.  1.
    9900012    2    1    2    0    0 -0.90640250972E+00  0.18674534482E+00 -0.73238069496E+00  0.90007821702E+02  0.90000084148E+02 0.  0.
         12    1    1    2    0    0  0.90640250972E+00 -0.18674534482E+00  0.73238069496E+00  0.11801782983E+01  0.00000000000E+00 0. -1.
         11    1    3    3    0    0 -0.68551827954E+01  0.41616926312E+02  0.18940525011E+01  0.42220250141E+02  0.51100000000E-03 0. -1.
        -11    1    3    3    0    0  0.18883284729E+01 -0.38175992076E+01 -0.84960397189E+01  0.95038170909E+01  0.51100000000E-03 0.  1.
        -12    1    3    3    0    0  0.40604518128E+01 -0.37612581760E+02  0.58696065228E+01  0.38283754470E+02  0.00000000000E+00 0.  1.
</event>
<event>
 7    1  0.2711909E-015  0.9000756E+02  0.7816164E-02  0.1186339E+00
        -11   -1    0    0    0    0  0.00000000000E+00  0.00000000000E+00  0.45593999997E+02  0.45594000000E+02  0.51100000000E-03 0. -1.
         11   -1    0    0    0    0 -0.00000000000E+00 -0.00000000000E+00 -0.45593999997E+02  0.45594000000E+02  0.51100000000E-03 0.  1.
    9900012    2    1    2    0    0 -0.47490798344E-01 -0.75957201087E+00 -0.90234641361E+00  0.90007561918E+02  0.89999820935E+02 0.  0.
         12    1    1    2    0    0  0.47490798344E-01  0.75957201087E+00  0.90234641361E+00  0.11804380821E+01  0.00000000000E+00 0. -1.
         11    1    3    3    0    0 -0.26563781171E+01 -0.43835749501E+01  0.80932530154E+01  0.95798130815E+01  0.51100000000E-03 0. -1.
        -11    1    3    3    0    0 -0.33784363518E+02 -0.12009760093E+02 -0.17527278401E+02  0.39910187223E+02  0.51100000000E-03 0.  1.
         12    1    3    3    0    0  0.36393250836E+02  0.15633763032E+02  0.85316789718E+01  0.40517561613E+02  0.00000000000E+00 0. -1.
</event>
<event>
 7    1  0.2285268E-015  0.9000765E+02  0.7816164E-02  0.1186339E+00
        -11   -1    0    0    0    0  0.00000000000E+00  0.00000000000E+00  0.45593999997E+02  0.45594000000E+02  0.51100000000E-03 0.  1.
         11   -1    0    0    0    0 -0.00000000000E+00 -0.00000000000E+00 -0.45593999997E+02  0.45594000000E+02  0.51100000000E-03 0. -1.
    9900012    2    1    2    0    0  0.30428625253E+00  0.71754098044E+00 -0.88643432225E+00  0.90007652174E+02  0.89999912383E+02 0.  0.
         12    1    1    2    0    0 -0.30428625253E+00 -0.71754098044E+00  0.88643432225E+00  0.11803478257E+01  0.00000000000E+00 0. -1.
         11    1    3    3    0    0 -0.18994480147E+02  0.37503161993E+02 -0.44198861297E+01  0.42270708880E+02  0.51100000000E-03 0. -1.
        -11    1    3    3    0    0  0.32930202660E+01  0.29038671505E+01 -0.15157823977E+01  0.46447845417E+01  0.51100000000E-03 0.  1.
        -12    1    3    3    0    0  0.16005746133E+02 -0.39689488163E+02  0.50492342052E+01  0.43092158753E+02  0.00000000000E+00 0.  1.
</event>
<event>
 7    1  0.2285268E-015  0.9000775E+02  0.7816164E-02  0.1186339E+00
        -11   -1    0    0    0    0  0.00000000000E+00  0.00000000000E+00  0.45593999997E+02  0.45594000000E+02  0.51100000000E-03 0.  1.
         11   -1    0    0    0    0 -0.00000000000E+00 -0.00000000000E+00 -0.45593999997E+02  0.45594000000E+02  0.51100000000E-03 0. -1.
    9900012    2    1    2    0    0  0.95822690429E+00 -0.66871556246E+00  0.16615776515E+00  0.90007750998E+02  0.90000012511E+02 0.  0.
         12    1    1    2    0    0 -0.95822690429E+00  0.66871556246E+00 -0.16615776515E+00  0.11802490019E+01  0.00000000000E+00 0. -1.
         11    1    3    3    0    0 -0.14309927848E+02 -0.38529593192E+02  0.66243040007E+01  0.41631538409E+02  0.51100000000E-03 0. -1.
        -11    1    3    3    0    0  0.21139982007E+01  0.64473180948E+01  0.87549068818E+01  0.11076339367E+02  0.51100000000E-03 0.  1.
        -12    1    3    3    0    0  0.13154156552E+02  0.31413559534E+02 -0.15213053117E+02  0.37299873222E+02  0.00000000000E+00 0.  1.
</event>
<event>
 7    1  0.2285268E-015  0.9000783E+02  0.7816164E-02  0.1186339E+00
        -11   -1    0    0    0    0  0.00000000000E+00  0.00000000000E+00  0.45593999997E+02  0.45594000000E+02  0.51100000000E-03 0.  1.
         11   -1    0    0    0    0 -0.00000000000E+00 -0.00000000000E+00 -0.45593999997E+02  0.45594000000E+02  0.51100000000E-03 0. -1.
    9900012    2    1    2    0    0  0.99159907467E+00  0.62264003190E+00  0.14785500153E+00  0.90007826099E+02  0.90000088604E+02 0.  0.
         12    1    1    2    0    0 -0.99159907467E+00 -0.62264003190E+00 -0.14785500153E+00  0.11801739006E+01  0.00000000000E+00 0. -1.
         11    1    3    3    0    0 -0.28520758380E+01 -0.37470683654E+01  0.58137989373E+01  0.74816519744E+01  0.51100000000E-03 0. -1.
        -11    1    3    3    0    0  0.29187189588E+02 -0.17517001210E+02  0.20757861227E+02  0.39870116258E+02  0.51100000000E-03 0.  1.
         12    1    3    3    0    0 -0.25343514675E+02  0.21886709607E+02 -0.26423805163E+02  0.42656057867E+02  0.00000000000E+00 0. -1.
</event>
<event>
 7    1  0.2285268E-015  0.9000777E+02  0.7816164E-02  0.1186339E+00
        -11   -1    0    0    0    0  0.00000000000E+00  0.00000000000E+00  0.45593999997E+02  0.45594000000E+02  0.51100000000E-03 0.  1.
         11   -1    0    0    0    0 -0.00000000000E+00 -0.00000000000E+00 -0.45593999997E+02  0.45594000000E+02  0.51100000000E-03 0. -1.
    9900012    2    1    2    0    0  0.81949800199E+00 -0.67944162241E+00 -0.50963737622E+00  0.90007767756E+02  0.90000029491E+02 0.  0.
         12    1    1    2    0    0 -0.81949800199E+00  0.67944162241E+00  0.50963737622E+00  0.11802322436E+01  0.00000000000E+00 0. -1.
         11    1    3    3    0    0  0.11802007727E+02 -0.17661474788E+02 -0.25268472058E+02  0.33010767311E+02  0.51100000000E-03 0. -1.
        -11    1    3    3    0    0  0.79073781518E+01 -0.11782251486E+02 -0.67496565775E+00  0.14205761444E+02  0.51100000000E-03 0.  1.
        -12    1    3    3    0    0 -0.18889887877E+02  0.28764284652E+02  0.25433800339E+02  0.42791239001E+02  0.00000000000E+00 0.  1.
</event>
<event>
 7    1  0.2285268E-015  0.9000778E+02  0.7816164E-02  0.1186339E+00
        -11   -1    0    0    0    0  0.00000000000E+00  0.00000000000E+00  0.45593999997E+02  0.45594000000E+02  0.51100000000E-03 0. -1.
         11   -1    0    0    0    0 -0.00000000000E+00 -0.00000000000E+00 -0.45593999997E+02  0.45594000000E+02  0.51100000000E-03 0.  1.
    9900012    2    1    2    0    0 -0.10006881973E+01 -0.21473595755E+00  0.58773315827E+00  0.90007780247E+02  0.90000042146E+02 0.  0.
         12    1    1    2    0    0  0.10006881973E+01  0.21473595755E+00 -0.58773315827E+00  0.11802197528E+01  0.00000000000E+00 0. -1.
         11    1    3    3    0    0  0.12778072090E+02  0.97686580151E+01  0.22115224294E+02  0.27345730043E+02  0.51100000000E-03 0. -1.
        -11    1    3    3    0    0 -0.10740402060E+02  0.18398969286E+02  0.68829555005E+01  0.22388688748E+02  0.51100000000E-03 0.  1.
        -12    1    3    3    0    0 -0.30383582274E+01 -0.28382363258E+02 -0.28410446636E+02  0.40273361455E+02  0.00000000000E+00 0.  1.
</event>
<event>
 7    1  0.2285268E-015  0.9000773E+02  0.7816164E-02  0.1186339E+00
        -11   -1    0    0    0    0  0.00000000000E+00  0.00000000000E+00  0.45593999997E+02  0.45594000000E+02  0.51100000000E-03 0. -1.
         11   -1    0    0    0    0 -0.00000000000E+00 -0.00000000000E+00 -0.45593999997E+02  0.45594000000E+02  0.51100000000E-03 0.  1.
    9900012    2    1    2    0    0  0.11504790774E+01  0.24103830805E+00 -0.10650422731E+00  0.90007726844E+02  0.89999988038E+02 0.  0.
         12    1    1    2    0    0 -0.11504790774E+01 -0.24103830805E+00  0.10650422731E+00  0.11802731565E+01  0.00000000000E+00 0. -1.
         11    1    3    3    0    0 -0.68722317830E+01  0.45658906747E+01 -0.45373623007E+01  0.94160811510E+01  0.51100000000E-03 0. -1.
        -11    1    3    3    0    0  0.95446026522E+01 -0.17723257882E+02 -0.34194750982E+02  0.39679897993E+02  0.51100000000E-03 0.  1.
         12    1    3    3    0    0 -0.15218917918E+01  0.13398405515E+02  0.38625609055E+02  0.40911747700E+02  0.00000000000E+00 0. -1.
</event>
<event>
 7    1  0.2285268E-015  0.9000823E+02  0.7816164E-02  0.1186338E+00
        -11   -1    0    0    0    0  0.00000000000E+00  0.00000000000E+00  0.45593999997E+02  0.45594000000E+02  0.51100000000E-03 0. -1.
         11   -1    0    0    0    0 -0.00000000000E+00 -0.00000000000E+00 -0.45593999997E+02  0.45594000000E+02  0.51100000000E-03 0.  1.
    9900012    2    1    2    0    0  0.19497868042E+00 -0.58615216499E-01 -0.11620728027E+01  0.90008226450E+02  0.90000494238E+02 0.  0.
         12    1    1    2    0    0 -0.19497868042E+00  0.58615216499E-01  0.11620728027E+01  0.11797735496E+01  0.00000000000E+00 0. -1.
         11    1    3    3    0    0  0.13727466295E+01  0.84222504878E+01 -0.48045168263E+01  0.97929627173E+01  0.51100000000E-03 0. -1.
        -11    1    3    3    0    0  0.18822051325E+02  0.23691731610E+02 -0.19335751599E+02  0.35908760114E+02  0.51100000000E-03 0.  1.
         12    1    3    3    0    0 -0.19999819274E+02 -0.32172597314E+02  0.22978195623E+02  0.44306503619E+02  0.00000000000E+00 0. -1.
</event>
<event>
 7    1  0.2285268E-015  0.9000774E+02  0.7816164E-02  0.1186339E+00
        -11   -1    0    0    0    0  0.00000000000E+00  0.00000000000E+00  0.45593999997E+02  0.45594000000E+02  0.51100000000E-03 0. -1.
         11   -1    0    0    0    0 -0.00000000000E+00 -0.00000000000E+00 -0.45593999997E+02  0.45594000000E+02  0.51100000000E-03 0.  1.
    9900012    2    1    2    0    0  0.11247990019E+00 -0.10488495243E+01  0.52941134346E+00  0.90007740104E+02  0.90000001473E+02 0.  0.
         12    1    1    2    0    0 -0.11247990019E+00  0.10488495243E+01 -0.52941134346E+00  0.11802598964E+01  0.00000000000E+00 0. -1.
         11    1    3    3    0    0  0.17585795511E+01 -0.28978960452E+00 -0.95511704004E+01  0.97160401569E+01  0.51100000000E-03 0. -1.
        -11    1    3    3    0    0  0.33841342127E+01  0.10016524392E+02 -0.33494248435E+02  0.35123322789E+02  0.51100000000E-03 0.  1.
         12    1    3    3    0    0 -0.50302338637E+01 -0.10775584312E+02  0.43574830178E+02  0.45168377158E+02  0.00000000000E+00 0. -1.
</event>
<event>
 7    1  0.2285268E-015  0.9000776E+02  0.7816164E-02  0.1186339E+00
        -11   -1    0    0    0    0  0.00000000000E+00  0.00000000000E+00  0.45593999997E+02  0.45594000000E+02  0.51100000000E-03 0.  1.
         11   -1    0    0    0    0 -0.00000000000E+00 -0.00000000000E+00 -0.45593999997E+02  0.45594000000E+02  0.51100000000E-03 0. -1.
    9900012    2    1    2    0    0 -0.38756790069E+00 -0.97791634788E+00  0.53520425975E+00  0.90007757287E+02  0.90000018884E+02 0.  0.
         12    1    1    2    0    0  0.38756790069E+00  0.97791634788E+00 -0.53520425975E+00  0.11802427126E+01  0.00000000000E+00 0. -1.
         11    1    3    3    0    0 -0.37498875765E+02 -0.15684852999E+02  0.20588999687E+01  0.40699132259E+02  0.51100000000E-03 0. -1.
        -11    1    3    3    0    0 -0.17290605178E+00  0.46162130334E+01  0.82593235536E+01  0.94633897255E+01  0.51100000000E-03 0.  1.
        -12    1    3    3    0    0  0.37284213916E+02  0.10090723618E+02 -0.97830192626E+01  0.39845235303E+02  0.00000000000E+00 0.  1.
</event>
<event>
 7    1  0.2285268E-015  0.9000767E+02  0.7816164E-02  0.1186339E+00
        -11   -1    0    0    0    0  0.00000000000E+00  0.00000000000E+00  0.45593999997E+02  0.45594000000E+02  0.51100000000E-03 0.  1.
         11   -1    0    0    0    0 -0.00000000000E+00 -0.00000000000E+00 -0.45593999997E+02  0.45594000000E+02  0.51100000000E-03 0. -1.
    9900012    2    1    2    0    0 -0.29524346395E+00  0.45489398211E+00  0.10483665075E+01  0.90007673955E+02  0.89999934451E+02 0.  0.
         12    1    1    2    0    0  0.29524346395E+00 -0.45489398211E+00 -0.10483665075E+01  0.11803260448E+01  0.00000000000E+00 0. -1.
         11    1    3    3    0    0  0.34746609458E+02  0.34819127309E+01 -0.65595745677E+01  0.35531374923E+02  0.51100000000E-03 0. -1.
        -11    1    3    3    0    0  0.73936209059E+01  0.11688592043E+00 -0.62946943109E+01  0.97109458421E+01  0.51100000000E-03 0.  1.
        -12    1    3    3    0    0 -0.42435473828E+02 -0.31439046692E+01  0.13902635386E+02  0.44765353191E+02  0.00000000000E+00 0.  1.
</event>
<event>
 7    1  0.2285268E-015  0.9000755E+02  0.7816164E-02  0.1186339E+00
        -11   -1    0    0    0    0  0.00000000000E+00  0.00000000000E+00  0.45593999997E+02  0.45594000000E+02  0.51100000000E-03 0. -1.
         11   -1    0    0    0    0 -0.00000000000E+00 -0.00000000000E+00 -0.45593999997E+02  0.45594000000E+02  0.51100000000E-03 0.  1.
    9900012    2    1    2    0    0 -0.36175460231E+00  0.88001658459E+00 -0.69869185018E+00  0.90007548441E+02  0.89999807280E+02 0.  0.
         12    1    1    2    0    0  0.36175460231E+00 -0.88001658459E+00  0.69869185018E+00  0.11804515589E+01  0.00000000000E+00 0. -1.
         11    1    3    3    0    0 -0.38151500755E+01  0.77400517795E+00  0.56596892015E+01  0.68692456815E+01  0.51100000000E-03 0. -1.
        -11    1    3    3    0    0 -0.94194779813E+00 -0.13610567916E+02 -0.42285226118E+02  0.44431691086E+02  0.51100000000E-03 0.  1.
         12    1    3    3    0    0  0.43953432713E+01  0.13716579323E+02  0.35926845067E+02  0.38706611673E+02  0.00000000000E+00 0. -1.
</event>
<event>
 7    1  0.2285268E-015  0.9000773E+02  0.7816164E-02  0.1186339E+00
        -11   -1    0    0    0    0  0.00000000000E+00  0.00000000000E+00  0.45593999997E+02  0.45594000000E+02  0.51100000000E-03 0. -1.
         11   -1    0    0    0    0 -0.00000000000E+00 -0.00000000000E+00 -0.45593999997E+02  0.45594000000E+02  0.51100000000E-03 0.  1.
    9900012    2    1    2    0    0 -0.27845977436E+00  0.10163927972E+01 -0.53145145378E+00  0.90007731043E+02  0.89999992292E+02 0.  0.
         12    1    1    2    0    0  0.27845977436E+00 -0.10163927972E+01  0.53145145378E+00  0.11802689575E+01  0.00000000000E+00 0. -1.
         11    1    3    3    0    0 -0.22860866920E+01  0.85074434795E+01  0.34008909312E+01  0.94429257282E+01  0.51100000000E-03 0. -1.
        -11    1    3    3    0    0 -0.24907557800E+02  0.24095922871E+02  0.11157849212E+02  0.36407382959E+02  0.51100000000E-03 0.  1.
         12    1    3    3    0    0  0.26915184718E+02 -0.31586973554E+02 -0.15090191597E+02  0.44157422356E+02  0.00000000000E+00 0. -1.
</event>
<event>
 7    1  0.2285268E-015  0.9000771E+02  0.7816164E-02  0.1186339E+00
        -11   -1    0    0    0    0  0.00000000000E+00  0.00000000000E+00  0.45593999997E+02  0.45594000000E+02  0.51100000000E-03 0.  1.
         11   -1    0    0    0    0 -0.00000000000E+00 -0.00000000000E+00 -0.45593999997E+02  0.45594000000E+02  0.51100000000E-03 0. -1.
    9900012    2    1    2    0    0  0.38684385886E+00  0.91082909991E+00  0.64329689699E+00  0.90007708206E+02  0.89999969155E+02 0.  0.
         12    1    1    2    0    0 -0.38684385886E+00 -0.91082909991E+00 -0.64329689699E+00  0.11802917936E+01  0.00000000000E+00 0. -1.
         11    1    3    3    0    0  0.36541370285E+02 -0.84691971677E+01 -0.11489498821E+02  0.39230187693E+02  0.51100000000E-03 0. -1.
        -11    1    3    3    0    0 -0.20059207298E+01 -0.94122471864E+01 -0.93122946503E+00  0.96685729893E+01  0.51100000000E-03 0.  1.
        -12    1    3    3    0    0 -0.34148605696E+02  0.18792273454E+02  0.13064025184E+02  0.41108947524E+02  0.00000000000E+00 0.  1.
</event>
<event>
 7    1  0.2285268E-015  0.9000770E+02  0.7816164E-02  0.1186339E+00
        -11   -1    0    0    0    0  0.00000000000E+00  0.00000000000E+00  0.45593999997E+02  0.45594000000E+02  0.51100000000E-03 0. -1.
         11   -1    0    0    0    0 -0.00000000000E+00 -0.00000000000E+00 -0.45593999997E+02  0.45594000000E+02  0.51100000000E-03 0.  1.
    9900012    2    1    2    0    0 -0.18539338791E+00  0.70772744949E+00 -0.92621087204E+00  0.90007696890E+02  0.89999957689E+02 0.  0.
         12    1    1    2    0    0  0.18539338791E+00 -0.70772744949E+00  0.92621087204E+00  0.11803031096E+01  0.00000000000E+00 0. -1.
         11    1    3    3    0    0 -0.63626199849E+01 -0.57038888962E+01  0.15272208945E+01  0.86804196635E+01  0.51100000000E-03 0. -1.
        -11    1    3    3    0    0 -0.32527585326E+02 -0.12301532843E+02  0.10672655551E+02  0.36376875817E+02  0.51100000000E-03 0.  1.
         12    1    3    3    0    0  0.38704811924E+02  0.18713149189E+02 -0.13126087318E+02  0.44950401409E+02  0.00000000000E+00 0. -1.
</event>
<event>
 7    1  0.2285268E-015  0.9000777E+02  0.7816164E-02  0.1186339E+00
        -11   -1    0    0    0    0  0.00000000000E+00  0.00000000000E+00  0.45593999997E+02  0.45594000000E+02  0.51100000000E-03 0. -1.
         11   -1    0    0    0    0 -0.00000000000E+00 -0.00000000000E+00 -0.45593999997E+02  0.45594000000E+02  0.51100000000E-03 0.  1.
    9900012    2    1    2    0    0 -0.98504845513E+00  0.63497064722E+00 -0.13943922772E+00  0.90007766345E+02  0.90000028061E+02 0.  0.
         12    1    1    2    0    0  0.98504845513E+00 -0.63497064722E+00  0.13943922772E+00  0.11802336548E+01  0.00000000000E+00 0. -1.
         11    1    3    3    0    0 -0.82751464857E+00  0.87663926623E+01 -0.23648526994E+01  0.91173981680E+01  0.51100000000E-03 0. -1.
        -11    1    3    3    0    0 -0.30338995338E+02  0.21322036133E+02  0.90495909237E+01  0.38170393751E+02  0.51100000000E-03 0.  1.
         12    1    3    3    0    0  0.30181461531E+02 -0.29453458148E+02 -0.68241774521E+01  0.42719974426E+02  0.00000000000E+00 0. -1.
</event>
<event>
 7    1  0.2285268E-015  0.9000769E+02  0.7816164E-02  0.1186339E+00
        -11   -1    0    0    0    0  0.00000000000E+00  0.00000000000E+00  0.45593999997E+02  0.45594000000E+02  0.51100000000E-03 0.  1.
         11   -1    0    0    0    0 -0.00000000000E+00 -0.00000000000E+00 -0.45593999997E+02  0.45594000000E+02  0.51100000000E-03 0. -1.
    9900012    2    1    2    0    0  0.26819563093E+00 -0.46152290733E+00  0.10527050805E+01  0.90007694837E+02  0.89999955609E+02 0.  0.
         12    1    1    2    0    0 -0.26819563093E+00  0.46152290733E+00 -0.10527050805E+01  0.11803051626E+01  0.00000000000E+00 0. -1.
         11    1    3    3    0    0  0.16961324360E+01 -0.42751176420E+01 -0.35635036249E+02  0.35930617930E+02  0.51100000000E-03 0. -1.
        -11    1    3    3    0    0 -0.23944245883E+01 -0.12568933254E+02 -0.11372336182E+01  0.12845413688E+02  0.51100000000E-03 0.  1.
        -12    1    3    3    0    0  0.96648778325E+00  0.16382527989E+02  0.37824974948E+02  0.41231663219E+02  0.00000000000E+00 0.  1.
</event>
<event>
 7    1  0.2285268E-015  0.9000775E+02  0.7816164E-02  0.1186339E+00
        -11   -1    0    0    0    0  0.00000000000E+00  0.00000000000E+00  0.45593999997E+02  0.45594000000E+02  0.51100000000E-03 0. -1.
         11   -1    0    0    0    0 -0.00000000000E+00 -0.00000000000E+00 -0.45593999997E+02  0.45594000000E+02  0.51100000000E-03 0.  1.
    9900012    2    1    2    0    0  0.95435227549E+00 -0.68385331610E+00 -0.12059610760E+00  0.90007751278E+02  0.90000012795E+02 0.  0.
         12    1    1    2    0    0 -0.95435227549E+00  0.68385331610E+00  0.12059610760E+00  0.11802487216E+01  0.00000000000E+00 0. -1.
         11    1    3    3    0    0 -0.44796070106E+01 -0.56409909166E+01 -0.74246346758E+01  0.10344701920E+02  0.51100000000E-03 0. -1.
        -11    1    3    3    0    0 -0.21039423704E+02  0.32798439229E+01 -0.28204725152E+02  0.35340079896E+02  0.51100000000E-03 0.  1.
         12    1    3    3    0    0  0.26473382990E+02  0.16772936777E+01  0.35508763720E+02  0.44322969462E+02  0.00000000000E+00 0. -1.
</event>
<event>
 7    1  0.2285268E-015  0.9000765E+02  0.7816164E-02  0.1186339E+00
        -11   -1    0    0    0    0  0.00000000000E+00  0.00000000000E+00  0.45593999997E+02  0.45594000000E+02  0.51100000000E-03 0.  1.
         11   -1    0    0    0    0 -0.00000000000E+00 -0.00000000000E+00 -0.45593999997E+02  0.45594000000E+02  0.51100000000E-03 0. -1.
    9900012    2    1    2    0    0 -0.91931742866E+00  0.40047585445E+00 -0.62264908571E+00  0.90007653725E+02  0.89999913954E+02 0.  0.
         12    1    1    2    0    0  0.91931742866E+00 -0.40047585445E+00  0.62264908571E+00  0.11803462749E+01  0.00000000000E+00 0. -1.
         11    1    3    3    0    0  0.66210867306E+01  0.41787692342E+01  0.54474742340E+01  0.95381275730E+01  0.51100000000E-03 0. -1.
        -11    1    3    3    0    0  0.16925082502E+01 -0.21696532077E+02  0.31233918794E+02  0.38067857463E+02  0.51100000000E-03 0.  1.
         12    1    3    3    0    0 -0.92329124095E+01  0.17918238697E+02 -0.37304042114E+02  0.42401668689E+02  0.00000000000E+00 0. -1.
</event>
<event>
 7    1  0.2285268E-015  0.9000814E+02  0.7816164E-02  0.1186338E+00
        -11   -1    0    0    0    0  0.00000000000E+00  0.00000000000E+00  0.45593999997E+02  0.45594000000E+02  0.51100000000E-03 0.  1.
         11   -1    0    0    0    0 -0.00000000000E+00 -0.00000000000E+00 -0.45593999997E+02  0.45594000000E+02  0.51100000000E-03 0. -1.
    9900012    2    1    2    0    0 -0.89622659992E+00  0.71193872530E+00  0.28632481834E+00  0.90008143751E+02  0.90000410447E+02 0.  0.
         12    1    1    2    0    0  0.89622659992E+00 -0.71193872530E+00 -0.28632481834E+00  0.11798562491E+01  0.00000000000E+00 0. -1.
         11    1    3    3    0    0  0.34976056145E+01  0.87365429897E+01  0.96802206328E+00  0.94603115922E+01  0.51100000000E-03 0. -1.
        -11    1    3    3    0    0  0.19387919874E+01 -0.20189554963E+02  0.36036370094E+02  0.41352110149E+02  0.51100000000E-03 0.  1.
         12    1    3    3    0    0 -0.63326242018E+01  0.12164950699E+02 -0.36718067339E+02  0.39195722010E+02  0.00000000000E+00 0. -1.
</event>
<event>
 7    1  0.2285268E-015  0.9000777E+02  0.7816164E-02  0.1186339E+00
        -11   -1    0    0    0    0  0.00000000000E+00  0.00000000000E+00  0.45593999997E+02  0.45594000000E+02  0.51100000000E-03 0. -1.
         11   -1    0    0    0    0 -0.00000000000E+00 -0.00000000000E+00 -0.45593999997E+02  0.45594000000E+02  0.51100000000E-03 0.  1.
    9900012    2    1    2    0    0  0.58726929093E-01  0.11025380696E+01  0.41700692225E+00  0.90007773827E+02  0.90000035641E+02 0.  0.
         12    1    1    2    0    0 -0.58726929093E-01 -0.11025380696E+01 -0.41700692225E+00  0.11802261734E+01  0.00000000000E+00 0. -1.
         11    1    3    3    0    0 -0.24466597286E+02 -0.11405760633E+02 -0.20413592944E+02  0.33844062042E+02  0.51100000000E-03 0. -1.
        -11    1    3    3    0    0 -0.89383281869E+01 -0.87191228286E+01  0.59703900789E+01  0.13840605898E+02  0.51100000000E-03 0.  1.
        -12    1    3    3    0    0  0.33463652402E+02  0.21227421531E+02  0.14860209787E+02  0.42323105886E+02  0.00000000000E+00 0.  1.
</event>
<event>
 7    1  0.2285268E-015  0.9000774E+02  0.7816164E-02  0.1186339E+00
        -11   -1    0    0    0    0  0.00000000000E+00  0.00000000000E+00  0.45593999997E+02  0.45594000000E+02  0.51100000000E-03 0.  1.
         11   -1    0    0    0    0 -0.00000000000E+00 -0.00000000000E+00 -0.45593999997E+02  0.45594000000E+02  0.51100000000E-03 0. -1.
    9900012    2    1    2    0    0  0.51171947927E+00  0.72592150103E+00  0.77730272890E+00  0.90007738002E+02  0.89999999344E+02 0.  0.
         12    1    1    2    0    0 -0.51171947927E+00 -0.72592150103E+00 -0.77730272890E+00  0.11802619978E+01  0.00000000000E+00 0. -1.
         11    1    3    3    0    0 -0.31417703890E+02  0.28012809898E+02 -0.89057746488E+01  0.43024440246E+02  0.51100000000E-03 0. -1.
        -11    1    3    3    0    0  0.10449299739E+02 -0.36048620448E+01 -0.45911492883E+01  0.11969191595E+02  0.51100000000E-03 0.  1.
        -12    1    3    3    0    0  0.21480123631E+02 -0.23682026352E+02  0.14274226666E+02  0.35014106161E+02  0.00000000000E+00 0.  1.
</event>
<event>
 7    1  0.2285268E-015  0.9000756E+02  0.7816164E-02  0.1186339E+00
        -11   -1    0    0    0    0  0.00000000000E+00  0.00000000000E+00  0.45593999997E+02  0.45594000000E+02  0.51100000000E-03 0.  1.
         11   -1    0    0    0    0 -0.00000000000E+00 -0.00000000000E+00 -0.45593999997E+02  0.45594000000E+02  0.51100000000E-03 0. -1.
    9900012    2    1    2    0    0 -0.15444073998E+00  0.48539072159E+00  0.10648841475E+01  0.90007561801E+02  0.89999820816E+02 0.  0.
         12    1    1    2    0    0  0.15444073998E+00 -0.48539072159E+00 -0.10648841475E+01  0.11804381993E+01  0.00000000000E+00 0. -1.
         11    1    3    3    0    0 -0.96000944561E+01 -0.32841520465E+02 -0.19769369878E+02  0.39516518896E+02  0.51100000000E-03 0. -1.
        -11    1    3    3    0    0 -0.92468508561E+01  0.37913484154E+01  0.39865950592E+00  0.10001874985E+02  0.51100000000E-03 0.  1.
        -12    1    3    3    0    0  0.18692504572E+02  0.29535562771E+02  0.20435594520E+02  0.40489167919E+02  0.00000000000E+00 0.  1.
</event>
<event>
 7    1  0.2285268E-015  0.9000783E+02  0.7816164E-02  0.1186339E+00
        -11   -1    0    0    0    0  0.00000000000E+00  0.00000000000E+00  0.45593999997E+02  0.45594000000E+02  0.51100000000E-03 0.  1.
         11   -1    0    0    0    0 -0.00000000000E+00 -0.00000000000E+00 -0.45593999997E+02  0.45594000000E+02  0.51100000000E-03 0. -1.
    9900012    2    1    2    0    0  0.85368704793E+00  0.74277845071E+00  0.33512676497E+00  0.90007825711E+02  0.90000088211E+02 0.  0.
         12    1    1    2    0    0 -0.85368704793E+00 -0.74277845071E+00 -0.33512676497E+00  0.11801742885E+01  0.00000000000E+00 0. -1.
         11    1    3    3    0    0 -0.15520174312E+01  0.96009496238E+01  0.32965878411E+01  0.10269103342E+02  0.51100000000E-03 0. -1.
        -11    1    3    3    0    0 -0.56572360751E+01  0.24401111637E+02  0.25116390183E+02  0.35471842710E+02  0.51100000000E-03 0.  1.
         12    1    3    3    0    0  0.80629405543E+01 -0.33259282811E+02 -0.28077851260E+02  0.44266879660E+02  0.00000000000E+00 0. -1.
</event>
<event>
 7    1  0.2285268E-015  0.9000775E+02  0.7816164E-02  0.1186339E+00
        -11   -1    0    0    0    0  0.00000000000E+00  0.00000000000E+00  0.45593999997E+02  0.45594000000E+02  0.51100000000E-03 0.  1.
         11   -1    0    0    0    0 -0.00000000000E+00 -0.00000000000E+00 -0.45593999997E+02  0.45594000000E+02  0.51100000000E-03 0. -1.
    9900012    2    1    2    0    0  0.80327681685E+00  0.61214399085E+00  0.61075461284E+00  0.90007747863E+02  0.90000009335E+02 0.  0.
         12    1    1    2    0    0 -0.80327681685E+00 -0.61214399085E+00 -0.61075461284E+00  0.11802521371E+01  0.00000000000E+00 0. -1.
         11    1    3    3    0    0  0.17033864020E+02  0.77056362550E+01 -0.66152362628E+01  0.19831558301E+02  0.51100000000E-03 0. -1.
        -11    1    3    3    0    0 -0.24690390256E+02  0.75783580429E+01 -0.23611816477E+02  0.34993781722E+02  0.51100000000E-03 0.  1.
         12    1    3    3    0    0  0.84598030528E+01 -0.14671850307E+02  0.30837807352E+02  0.35182407840E+02  0.00000000000E+00 0. -1.
</event>
<event>
 7    1  0.2285268E-015  0.9000765E+02  0.7816164E-02  0.1186339E+00
        -11   -1    0    0    0    0  0.00000000000E+00  0.00000000000E+00  0.45593999997E+02  0.45594000000E+02  0.51100000000E-03 0. -1.
         11   -1    0    0    0    0 -0.00000000000E+00 -0.00000000000E+00 -0.45593999997E+02  0.45594000000E+02  0.51100000000E-03 0.  1.
    9900012    2    1    2    0    0  0.61980464744E-01  0.59894621776E+00 -0.10152098072E+01  0.90007648738E+02  0.89999908901E+02 0.  0.
         12    1    1    2    0    0 -0.61980464744E-01 -0.59894621776E+00  0.10152098072E+01  0.11803512623E+01  0.00000000000E+00 0. -1.
         11    1    3    3    0    0  0.17083059458E+02  0.16713895171E+02  0.31140263252E+02  0.39254314513E+02  0.51100000000E-03 0. -1.
        -11    1    3    3    0    0 -0.14785992670E+01 -0.60033935966E+01  0.58210801186E+01  0.84918763813E+01  0.51100000000E-03 0.  1.
        -12    1    3    3    0    0 -0.15542479726E+02 -0.10111555357E+02 -0.37976553178E+02  0.42261457843E+02  0.00000000000E+00 0.  1.
</event>
<event>
 7    1  0.2285268E-015  0.9000772E+02  0.7816164E-02  0.1186339E+00
        -11   -1    0    0    0    0  0.00000000000E+00  0.00000000000E+00  0.45593999997E+02  0.45594000000E+02  0.51100000000E-03 0.  1.
         11   -1    0    0    0    0 -0.00000000000E+00 -0.00000000000E+00 -0.45593999997E+02  0.45594000000E+02  0.51100000000E-03 0. -1.
    9900012    2    1    2    0    0  0.79634977950E+00  0.80622153931E+00  0.32999189416E+00  0.90007720037E+02  0.89999981141E+02 0.  0.
         12    1    1    2    0    0 -0.79634977950E+00 -0.80622153931E+00 -0.32999189416E+00  0.11802799634E+01  0.00000000000E+00 0. -1.
         11    1    3    3    0    0  0.59425102196E+01  0.57278223240E+01 -0.50738284241E+01  0.96884008703E+01  0.51100000000E-03 0. -1.
        -11    1    3    3    0    0 -0.42232394677E+02 -0.23656164072E+01  0.80237723826E+01  0.43052900304E+02  0.51100000000E-03 0.  1.
         12    1    3    3    0    0  0.37086234236E+02 -0.25559843775E+01 -0.26199520644E+01  0.37266418862E+02  0.00000000000E+00 0. -1.
</event>
<event>
 7    1  0.2285268E-015  0.9000771E+02  0.7816164E-02  0.1186339E+00
        -11   -1    0    0    0    0  0.00000000000E+00  0.00000000000E+00  0.45593999997E+02  0.45594000000E+02  0.51100000000E-03 0.  1.
         11   -1    0    0    0    0 -0.00000000000E+00 -0.00000000000E+00 -0.45593999997E+02  0.45594000000E+02  0.51100000000E-03 0. -1.
    9900012    2    1    2    0    0  0.47996068931E-02  0.58723019832E-01  0.11788221886E+01  0.90007706316E+02  0.89999967239E+02 0.  0.
         12    1    1    2    0    0 -0.47996068931E-02 -0.58723019832E-01 -0.11788221886E+01  0.11802936844E+01  0.00000000000E+00 0. -1.
         11    1    3    3    0    0 -0.10724862439E+01  0.95469185844E+01 -0.16542733721E+01  0.97483589312E+01  0.51100000000E-03 0. -1.
        -11    1    3    3    0    0  0.35408273146E+02 -0.23217813608E+02 -0.44482679150E+01  0.42574637563E+02  0.51100000000E-03 0.  1.
         12    1    3    3    0    0 -0.34330987295E+02  0.13729618044E+02  0.72813634756E+01  0.37684709822E+02  0.00000000000E+00 0. -1.
</event>
<event>
 7    1  0.2285268E-015  0.9000658E+02  0.7816164E-02  0.1186341E+00
        -11   -1    0    0    0    0  0.00000000000E+00  0.00000000000E+00  0.45593999997E+02  0.45594000000E+02  0.51100000000E-03 0.  1.
         11   -1    0    0    0    0 -0.00000000000E+00 -0.00000000000E+00 -0.45593999997E+02  0.45594000000E+02  0.51100000000E-03 0. -1.
    9900012    2    1    2    0    0 -0.50491098849E+00 -0.10504253857E+01  0.19347090152E+00  0.90006577304E+02  0.89998823317E+02 0.  0.
         12    1    1    2    0    0  0.50491098849E+00  0.10504253857E+01 -0.19347090152E+00  0.11814226961E+01  0.00000000000E+00 0. -1.
         11    1    3    3    0    0  0.13265831759E+02 -0.38740152886E+00 -0.34713533533E+02  0.37163985023E+02  0.51100000000E-03 0. -1.
        -11    1    3    3    0    0  0.88510581356E+01  0.13743191019E+01 -0.23026705976E+01  0.92483660858E+01  0.51100000000E-03 0.  1.
        -12    1    3    3    0    0 -0.22621800883E+02 -0.20373429587E+01  0.37209675032E+02  0.43594226195E+02  0.00000000000E+00 0.  1.
</event>
<event>
 7    1  0.2285268E-015  0.9000786E+02  0.7816164E-02  0.1186339E+00
        -11   -1    0    0    0    0  0.00000000000E+00  0.00000000000E+00  0.45593999997E+02  0.45594000000E+02  0.51100000000E-03 0. -1.
         11   -1    0    0    0    0 -0.00000000000E+00 -0.00000000000E+00 -0.45593999997E+02  0.45594000000E+02  0.51100000000E-03 0.  1.
    9900012    2    1    2    0    0  0.85403290279E+00 -0.73914259445E+00 -0.34210741265E+00  0.90007855324E+02  0.90000118214E+02 0.  0.
         12    1    1    2    0    0 -0.85403290279E+00  0.73914259445E+00  0.34210741265E+00  0.11801446758E+01  0.00000000000E+00 0. -1.
         11    1    3    3    0    0  0.11122866999E+02  0.15711588317E+02  0.34118220334E+02  0.39174291784E+02  0.51100000000E-03 0. -1.
        -11    1    3    3    0    0  0.54755433858E+00  0.50453526399E+01  0.33026688895E+01  0.60549996754E+01  0.51100000000E-03 0.  1.
        -12    1    3    3    0    0 -0.10816388435E+02 -0.21496083552E+02 -0.37762996636E+02  0.44778563865E+02  0.00000000000E+00 0.  1.
</event>
<event>
 7    1  0.2285268E-015  0.9000736E+02  0.7816164E-02  0.1186340E+00
        -11   -1    0    0    0    0  0.00000000000E+00  0.00000000000E+00  0.45593999997E+02  0.45594000000E+02  0.51100000000E-03 0.  1.
         11   -1    0    0    0    0 -0.00000000000E+00 -0.00000000000E+00 -0.45593999997E+02  0.45594000000E+02  0.51100000000E-03 0. -1.
    9900012    2    1    2    0    0 -0.68049913967E+00 -0.94899594026E-01  0.96011235291E+00  0.90007364264E+02  0.89999620671E+02 0.  0.
         12    1    1    2    0    0  0.68049913967E+00  0.94899594026E-01 -0.96011235291E+00  0.11806357365E+01  0.00000000000E+00 0. -1.
         11    1    3    3    0    0 -0.23130334301E+02 -0.27119319802E+02  0.87559048433E+01  0.36703347821E+02  0.51100000000E-03 0. -1.
        -11    1    3    3    0    0  0.41080669548E+00 -0.94810559587E+01  0.16389054525E+01  0.96304307057E+01  0.51100000000E-03 0.  1.
        -12    1    3    3    0    0  0.22039028466E+02  0.36505476166E+02 -0.94346979429E+01  0.43673585737E+02  0.00000000000E+00 0.  1.
</event>
<event>
 7    1  0.2285268E-015  0.9000772E+02  0.7816164E-02  0.1186339E+00
        -11   -1    0    0    0    0  0.00000000000E+00  0.00000000000E+00  0.45593999997E+02  0.45594000000E+02  0.51100000000E-03 0. -1.
         11   -1    0    0    0    0 -0.00000000000E+00 -0.00000000000E+00 -0.45593999997E+02  0.45594000000E+02  0.51100000000E-03 0.  1.
    9900012    2    1    2    0    0 -0.84189013364E+00  0.43139538357E+00 -0.70581850587E+00  0.90007720060E+02  0.89999981165E+02 0.  0.
         12    1    1    2    0    0  0.84189013364E+00 -0.43139538357E+00  0.70581850587E+00  0.11802799402E+01  0.00000000000E+00 0. -1.
         11    1    3    3    0    0 -0.77322026296E+01  0.69341698409E+01 -0.22418273329E+01  0.10625227477E+02  0.51100000000E-03 0. -1.
        -11    1    3    3    0    0 -0.44448880989E+01 -0.25883049515E+01 -0.37856882530E+02  0.38204710546E+02  0.51100000000E-03 0.  1.
         12    1    3    3    0    0  0.11335200595E+02 -0.39144695058E+01  0.39392891357E+02  0.41177782037E+02  0.00000000000E+00 0. -1.
</event>
<event>
 7    1  0.2285268E-015  0.9000755E+02  0.7816164E-02  0.1186339E+00
        -11   -1    0    0    0    0  0.00000000000E+00  0.00000000000E+00  0.45593999997E+02  0.45594000000E+02  0.51100000000E-03 0. -1.
         11   -1    0    0    0    0 -0.00000000000E+00 -0.00000000000E+00 -0.45593999997E+02  0.45594000000E+02  0.51100000000E-03 0.  1.
    9900012    2    1    2    0    0  0.20875660512E+00 -0.10160772043E+01 -0.56344668278E+00  0.90007549082E+02  0.89999807930E+02 0.  0.
         12    1    1    2    0    0 -0.20875660512E+00  0.10160772043E+01  0.56344668278E+00  0.11804509179E+01  0.00000000000E+00 0. -1.
         11    1    3    3    0    0 -0.12602599626E+02 -0.36271838254E+02 -0.37452572213E+00  0.38400677564E+02  0.51100000000E-03 0. -1.
        -11    1    3    3    0    0 -0.97244687298E+01  0.91913809977E+00 -0.35622118043E+01  0.10397089022E+02  0.51100000000E-03 0.  1.
        -12    1    3    3    0    0  0.22535824961E+02  0.34336622950E+02  0.33732908436E+01  0.41209782496E+02  0.00000000000E+00 0.  1.
</event>
<event>
 7    1  0.2285268E-015  0.9000772E+02  0.7816164E-02  0.1186339E+00
        -11   -1    0    0    0    0  0.00000000000E+00  0.00000000000E+00  0.45593999997E+02  0.45594000000E+02  0.51100000000E-03 0.  1.
         11   -1    0    0    0    0 -0.00000000000E+00 -0.00000000000E+00 -0.45593999997E+02  0.45594000000E+02  0.51100000000E-03 0. -1.
    9900012    2    1    2    0    0 -0.37332935274E+00  0.10467499185E+01  0.39747935638E+00  0.90007724593E+02  0.89999985758E+02 0.  0.
         12    1    1    2    0    0  0.37332935274E+00 -0.10467499185E+01 -0.39747935638E+00  0.11802754069E+01  0.00000000000E+00 0. -1.
         11    1    3    3    0    0  0.10227413554E+02  0.45513713503E+01  0.11121896945E+01  0.11249530450E+02  0.51100000000E-03 0. -1.
        -11    1    3    3    0    0 -0.33654118737E+02  0.24912701654E+02  0.29923001708E+01  0.41978521558E+02  0.51100000000E-03 0.  1.
         12    1    3    3    0    0  0.23053375830E+02 -0.28417323085E+02 -0.37070105089E+01  0.36779672584E+02  0.00000000000E+00 0. -1.
</event>
<event>
 7    1  0.2285268E-015  0.9000774E+02  0.7816164E-02  0.1186339E+00
        -11   -1    0    0    0    0  0.00000000000E+00  0.00000000000E+00  0.45593999997E+02  0.45594000000E+02  0.51100000000E-03 0.  1.
         11   -1    0    0    0    0 -0.00000000000E+00 -0.00000000000E+00 -0.45593999997E+02  0.45594000000E+02  0.51100000000E-03 0. -1.
    9900012    2    1    2    0    0 -0.78014306413E+00  0.19183849004E+00  0.86462981552E+00  0.90007741586E+02  0.90000002975E+02 0.  0.
         12    1    1    2    0    0  0.78014306413E+00 -0.19183849004E+00 -0.86462981552E+00  0.11802584144E+01  0.00000000000E+00 0. -1.
         11    1    3    3    0    0 -0.22798571437E+02  0.99000922811E+01 -0.29249364307E+02  0.38383746552E+02  0.51100000000E-03 0. -1.
        -11    1    3    3    0    0 -0.95858095080E+00  0.58111200798E-01 -0.69057259184E+01  0.69721807974E+01  0.51100000000E-03 0.  1.
        -12    1    3    3    0    0  0.22977009324E+02 -0.97663649919E+01  0.37019720041E+02  0.44651814236E+02  0.00000000000E+00 0.  1.
</event>
<event>
 7    1  0.2285268E-015  0.9000772E+02  0.7816164E-02  0.1186339E+00
        -11   -1    0    0    0    0  0.00000000000E+00  0.00000000000E+00  0.45593999997E+02  0.45594000000E+02  0.51100000000E-03 0.  1.
         11   -1    0    0    0    0 -0.00000000000E+00 -0.00000000000E+00 -0.45593999997E+02  0.45594000000E+02  0.51100000000E-03 0. -1.
    9900012    2    1    2    0    0 -0.10344999895E+01 -0.47237565664E+00 -0.31578719073E+00  0.90007724380E+02  0.89999985542E+02 0.  0.
         12    1    1    2    0    0  0.10344999895E+01  0.47237565664E+00  0.31578719073E+00  0.11802756200E+01  0.00000000000E+00 0. -1.
         11    1    3    3    0    0 -0.94637996628E+01 -0.35033329868E+02 -0.13659135006E+02  0.38774600902E+02  0.51100000000E-03 0. -1.
        -11    1    3    3    0    0  0.53445514493E+01 -0.64270074379E+01  0.20712147665E+01  0.86116540613E+01  0.51100000000E-03 0.  1.
        -12    1    3    3    0    0  0.30847482239E+01  0.40987961650E+02  0.11272133048E+02  0.42621469417E+02  0.00000000000E+00 0.  1.
</event>
<event>
 7    1  0.2285268E-015  0.9000818E+02  0.7816164E-02  0.1186338E+00
        -11   -1    0    0    0    0  0.00000000000E+00  0.00000000000E+00  0.45593999997E+02  0.45594000000E+02  0.51100000000E-03 0.  1.
         11   -1    0    0    0    0 -0.00000000000E+00 -0.00000000000E+00 -0.45593999997E+02  0.45594000000E+02  0.51100000000E-03 0. -1.
    9900012    2    1    2    0    0 -0.65430506004E+00 -0.70016779546E+00  0.68820686710E+00  0.90008178511E+02  0.90000445666E+02 0.  0.
         12    1    1    2    0    0  0.65430506004E+00  0.70016779546E+00 -0.68820686710E+00  0.11798214888E+01  0.00000000000E+00 0. -1.
         11    1    3    3    0    0  0.57062205648E+01  0.47031268823E+01  0.62613288051E+01  0.96894062910E+01  0.51100000000E-03 0. -1.
        -11    1    3    3    0    0 -0.67858407925E+01  0.15773321768E+02  0.32496172791E+02  0.36753864574E+02  0.51100000000E-03 0.  1.
         12    1    3    3    0    0  0.42531516766E+00 -0.21176616445E+02 -0.38069294729E+02  0.43564907646E+02  0.00000000000E+00 0. -1.
</event>
<event>
 7    1  0.2285268E-015  0.9000797E+02  0.7816164E-02  0.1186339E+00
        -11   -1    0    0    0    0  0.00000000000E+00  0.00000000000E+00  0.45593999997E+02  0.45594000000E+02  0.51100000000E-03 0. -1.
         11   -1    0    0    0    0 -0.00000000000E+00 -0.00000000000E+00 -0.45593999997E+02  0.45594000000E+02  0.51100000000E-03 0.  1.
    9900012    2    1    2    0    0 -0.41033550091E+00  0.11061704298E+01 -0.22218585725E-01  0.90007965294E+02  0.90000229635E+02 0.  0.
         12    1    1    2    0    0  0.41033550091E+00 -0.11061704298E+01  0.22218585725E-01  0.11800347065E+01  0.00000000000E+00 0. -1.
         11    1    3    3    0    0  0.29596943117E+01 -0.54902381515E+01  0.81361923446E+01  0.10251835519E+02  0.51100000000E-03 0. -1.
        -11    1    3    3    0    0  0.11834658536E+02 -0.28024478007E+02 -0.24010886334E+02  0.38755040614E+02  0.51100000000E-03 0.  1.
         12    1    3    3    0    0 -0.15204688348E+02  0.34620886588E+02  0.15852475403E+02  0.41001089160E+02  0.00000000000E+00 0. -1.
</event>
<event>
 7    1  0.2285268E-015  0.9000756E+02  0.7816164E-02  0.1186339E+00
        -11   -1    0    0    0    0  0.00000000000E+00  0.00000000000E+00  0.45593999997E+02  0.45594000000E+02  0.51100000000E-03 0.  1.
         11   -1    0    0    0    0 -0.00000000000E+00 -0.00000000000E+00 -0.45593999997E+02  0.45594000000E+02  0.51100000000E-03 0. -1.
    9900012    2    1    2    0    0 -0.11731946116E+01 -0.20730333161E-01 -0.12894206024E+00  0.90007558812E+02  0.89999817788E+02 0.  0.
         12    1    1    2    0    0  0.11731946116E+01  0.20730333161E-01  0.12894206024E+00  0.11804411880E+01  0.00000000000E+00 0. -1.
         11    1    3    3    0    0 -0.10709807624E+02  0.13619197103E+02  0.43209077245E+01  0.17856448496E+02  0.51100000000E-03 0. -1.
        -11    1    3    3    0    0  0.12857530600E+02  0.11392692561E+02  0.26886812590E+02  0.31906272556E+02  0.51100000000E-03 0.  1.
         12    1    3    3    0    0 -0.33209175877E+01 -0.25032619996E+02 -0.31336662375E+02  0.40244837760E+02  0.00000000000E+00 0. -1.
</event>
<event>
 7    1  0.2285268E-015  0.9000733E+02  0.7816164E-02  0.1186340E+00
        -11   -1    0    0    0    0  0.00000000000E+00  0.00000000000E+00  0.45593999997E+02  0.45594000000E+02  0.51100000000E-03 0. -1.
         11   -1    0    0    0    0 -0.00000000000E+00 -0.00000000000E+00 -0.45593999997E+02  0.45594000000E+02  0.51100000000E-03 0.  1.
    9900012    2    1    2    0    0 -0.95408985514E-01 -0.11738543315E+01 -0.83333795395E-01  0.90007330111E+02  0.89999586067E+02 0.  0.
         12    1    1    2    0    0  0.95408985514E-01  0.11738543315E+01  0.83333795395E-01  0.11806698893E+01  0.00000000000E+00 0. -1.
         11    1    3    3    0    0  0.66312871413E+01 -0.77692602501E+01 -0.27725855163E+01  0.10584073162E+02  0.51100000000E-03 0. -1.
        -11    1    3    3    0    0  0.30800170640E+02  0.36748800565E+01 -0.18611489001E+02  0.36173785785E+02  0.51100000000E-03 0.  1.
         12    1    3    3    0    0 -0.37526866767E+02  0.29205258621E+01  0.21300740722E+02  0.43249471164E+02  0.00000000000E+00 0. -1.
</event>
<event>
 7    1  0.2285268E-015  0.9000775E+02  0.7816164E-02  0.1186339E+00
        -11   -1    0    0    0    0  0.00000000000E+00  0.00000000000E+00  0.45593999997E+02  0.45594000000E+02  0.51100000000E-03 0.  1.
         11   -1    0    0    0    0 -0.00000000000E+00 -0.00000000000E+00 -0.45593999997E+02  0.45594000000E+02  0.51100000000E-03 0. -1.
    9900012    2    1    2    0    0  0.89174860447E-01 -0.10809613934E+01  0.46536472093E+00  0.90007748326E+02  0.90000009804E+02 0.  0.
         12    1    1    2    0    0 -0.89174860447E-01  0.10809613934E+01 -0.46536472093E+00  0.11802516737E+01  0.00000000000E+00 0. -1.
         11    1    3    3    0    0 -0.11757328246E+02  0.35829077782E+02 -0.17448317586E+02  0.41549986390E+02  0.51100000000E-03 0. -1.
        -11    1    3    3    0    0  0.30744476838E+01 -0.15050564666E+02 -0.44347748295E+01  0.15988713312E+02  0.51100000000E-03 0.  1.
        -12    1    3    3    0    0  0.87720554229E+01 -0.21859474509E+02  0.22348457136E+02  0.32469048624E+02  0.00000000000E+00 0.  1.
</event>
<event>
 7    1  0.2285268E-015  0.9000839E+02  0.7816164E-02  0.1186338E+00
        -11   -1    0    0    0    0  0.00000000000E+00  0.00000000000E+00  0.45593999997E+02  0.45594000000E+02  0.51100000000E-03 0.  1.
         11   -1    0    0    0    0 -0.00000000000E+00 -0.00000000000E+00 -0.45593999997E+02  0.45594000000E+02  0.51100000000E-03 0. -1.
    9900012    2    1    2    0    0  0.11633230858E+01  0.16567436423E+00  0.10347464194E+00  0.90008391761E+02  0.90000661729E+02 0.  0.
         12    1    1    2    0    0 -0.11633230858E+01 -0.16567436423E+00 -0.10347464194E+00  0.11796082394E+01  0.00000000000E+00 0. -1.
         11    1    3    3    0    0 -0.81451891189E+01  0.80994728341E+01  0.25377388389E+01  0.11763744499E+02  0.51100000000E-03 0. -1.
        -11    1    3    3    0    0 -0.13673477692E+02  0.51579140689E+01  0.31791751786E+02  0.34989763527E+02  0.51100000000E-03 0.  1.
         12    1    3    3    0    0  0.22981989897E+02 -0.13091712539E+02 -0.34226015983E+02  0.43254883735E+02  0.00000000000E+00 0. -1.
</event>
<event>
 7    1  0.2980130E-015  0.9000771E+02  0.7816164E-02  0.1186339E+00
        -11   -1    0    0    0    0  0.00000000000E+00  0.00000000000E+00  0.45593999997E+02  0.45594000000E+02  0.51100000000E-03 0. -1.
         11   -1    0    0    0    0 -0.00000000000E+00 -0.00000000000E+00 -0.45593999997E+02  0.45594000000E+02  0.51100000000E-03 0.  1.
    9900012    2    1    2    0    0 -0.98828211152E+00  0.64440170713E+00  0.33517824565E-01  0.90007712519E+02  0.89999973525E+02 0.  0.
         12    1    1    2    0    0  0.98828211152E+00 -0.64440170713E+00 -0.33517824565E-01  0.11802874805E+01  0.00000000000E+00 0. -1.
         11    1    3    3    0    0 -0.12361190160E+01 -0.33941216073E+01  0.85697069566E+01  0.92998886708E+01  0.51100000000E-03 0. -1.
        -11    1    3    3    0    0  0.30362154808E+02  0.38567993445E+01  0.22098199308E+02  0.37750043162E+02  0.51100000000E-03 0.  1.
         12    1    3    3    0    0 -0.30114317904E+02  0.18172396985E+00 -0.30634388440E+02  0.42957780687E+02  0.00000000000E+00 0. -1.
</event>
<event>
 7    1  0.2285268E-015  0.9000779E+02  0.7816164E-02  0.1186339E+00
        -11   -1    0    0    0    0  0.00000000000E+00  0.00000000000E+00  0.45593999997E+02  0.45594000000E+02  0.51100000000E-03 0.  1.
         11   -1    0    0    0    0 -0.00000000000E+00 -0.00000000000E+00 -0.45593999997E+02  0.45594000000E+02  0.51100000000E-03 0. -1.
    9900012    2    1    2    0    0  0.42169250226E+00  0.11019930053E+01  0.25946285503E-01  0.90007793933E+02  0.90000056013E+02 0.  0.
         12    1    1    2    0    0 -0.42169250226E+00 -0.11019930053E+01 -0.25946285503E-01  0.11802060668E+01  0.00000000000E+00 0. -1.
         11    1    3    3    0    0 -0.67405967312E+01 -0.16404578745E+01 -0.10922503991E+02  0.12939391022E+02  0.51100000000E-03 0. -1.
        -11    1    3    3    0    0  0.33690951968E+02 -0.15085736680E+02 -0.10736534858E+02  0.38443892580E+02  0.51100000000E-03 0.  1.
         12    1    3    3    0    0 -0.26528662734E+02  0.17828187560E+02  0.21684985134E+02  0.38624510332E+02  0.00000000000E+00 0. -1.
</event>
<event>
 7    1  0.2285268E-015  0.9000760E+02  0.7816164E-02  0.1186339E+00
        -11   -1    0    0    0    0  0.00000000000E+00  0.00000000000E+00  0.45593999997E+02  0.45594000000E+02  0.51100000000E-03 0. -1.
         11   -1    0    0    0    0 -0.00000000000E+00 -0.00000000000E+00 -0.45593999997E+02  0.45594000000E+02  0.51100000000E-03 0.  1.
    9900012    2    1    2    0    0 -0.10976021453E+01  0.32650930112E+00  0.28637629359E+00  0.90007597452E+02  0.89999856939E+02 0.  0.
         12    1    1    2    0    0  0.10976021453E+01 -0.32650930112E+00 -0.28637629359E+00  0.11804025477E+01  0.00000000000E+00 0. -1.
         11    1    3    3    0    0 -0.14572136117E+02  0.32842070521E+02  0.19600940088E+02  0.40928542604E+02  0.51100000000E-03 0. -1.
        -11    1    3    3    0    0 -0.65913187821E+01  0.19357706491E-02 -0.50090084986E+01  0.82786263012E+01  0.51100000000E-03 0.  1.
        -12    1    3    3    0    0  0.20065852754E+02 -0.32517496991E+02 -0.14305555295E+02  0.40800428547E+02  0.00000000000E+00 0.  1.
</event>
<event>
 7    1  0.2285268E-015  0.9000780E+02  0.7816164E-02  0.1186339E+00
        -11   -1    0    0    0    0  0.00000000000E+00  0.00000000000E+00  0.45593999997E+02  0.45594000000E+02  0.51100000000E-03 0.  1.
         11   -1    0    0    0    0 -0.00000000000E+00 -0.00000000000E+00 -0.45593999997E+02  0.45594000000E+02  0.51100000000E-03 0. -1.
    9900012    2    1    2    0    0  0.34961702980E+00 -0.74181359985E+00  0.84874246529E+00  0.90007795248E+02  0.90000057345E+02 0.  0.
         12    1    1    2    0    0 -0.34961702980E+00  0.74181359985E+00 -0.84874246529E+00  0.11802047521E+01  0.00000000000E+00 0. -1.
         11    1    3    3    0    0  0.91794777330E+01  0.38020452307E+00  0.18044809694E+01  0.93628798326E+01  0.51100000000E-03 0. -1.
        -11    1    3    3    0    0  0.69801082851E+01  0.29623168149E+02  0.23370356026E+02  0.38372223599E+02  0.51100000000E-03 0.  1.
         12    1    3    3    0    0 -0.15809968988E+02 -0.30745186272E+02 -0.24326094530E+02  0.42272691817E+02  0.00000000000E+00 0. -1.
</event>
<event>
 7    1  0.2285268E-015  0.9000804E+02  0.7816164E-02  0.1186338E+00
        -11   -1    0    0    0    0  0.00000000000E+00  0.00000000000E+00  0.45593999997E+02  0.45594000000E+02  0.51100000000E-03 0. -1.
         11   -1    0    0    0    0 -0.00000000000E+00 -0.00000000000E+00 -0.45593999997E+02  0.45594000000E+02  0.51100000000E-03 0.  1.
    9900012    2    1    2    0    0  0.81724352458E+00  0.56333575906E+00 -0.63802913299E+00  0.90008035877E+02  0.90000301151E+02 0.  0.
         12    1    1    2    0    0 -0.81724352458E+00 -0.56333575906E+00  0.63802913299E+00  0.11799641225E+01  0.00000000000E+00 0. -1.
         11    1    3    3    0    0  0.15232610906E+02  0.15206504625E+02  0.76339215130E+01  0.22837403002E+02  0.51100000000E-03 0. -1.
        -11    1    3    3    0    0  0.54434516617E+01  0.17537222677E+02 -0.20410996893E+02  0.27455311683E+02  0.51100000000E-03 0.  1.
         12    1    3    3    0    0 -0.19858819043E+02 -0.32180391543E+02  0.12139046247E+02  0.39715321193E+02  0.00000000000E+00 0. -1.
</event>
<event>
 7    1  0.2285268E-015  0.9000778E+02  0.7816164E-02  0.1186339E+00
        -11   -1    0    0    0    0  0.00000000000E+00  0.00000000000E+00  0.45593999997E+02  0.45594000000E+02  0.51100000000E-03 0. -1.
         11   -1    0    0    0    0 -0.00000000000E+00 -0.00000000000E+00 -0.45593999997E+02  0.45594000000E+02  0.51100000000E-03 0.  1.
    9900012    2    1    2    0    0  0.76974257811E+00  0.87097385930E+00 -0.20447385747E+00  0.90007784486E+02  0.90000046442E+02 0.  0.
         12    1    1    2    0    0 -0.76974257811E+00 -0.87097385930E+00  0.20447385747E+00  0.11802155136E+01  0.00000000000E+00 0. -1.
         11    1    3    3    0    0 -0.16079199046E+02  0.28268036604E+02 -0.15474229217E+02  0.36014917819E+02  0.51100000000E-03 0. -1.
        -11    1    3    3    0    0 -0.44593148225E+01  0.83580060313E+01 -0.49098399579E+00  0.94859274218E+01  0.51100000000E-03 0.  1.
        -12    1    3    3    0    0  0.21308256447E+02 -0.35755068776E+02  0.15760739355E+02  0.44506939245E+02  0.00000000000E+00 0.  1.
</event>
<event>
 7    1  0.2285268E-015  0.9000776E+02  0.7816164E-02  0.1186339E+00
        -11   -1    0    0    0    0  0.00000000000E+00  0.00000000000E+00  0.45593999997E+02  0.45594000000E+02  0.51100000000E-03 0.  1.
         11   -1    0    0    0    0 -0.00000000000E+00 -0.00000000000E+00 -0.45593999997E+02  0.45594000000E+02  0.51100000000E-03 0. -1.
    9900012    2    1    2    0    0  0.70523106065E+00  0.85827232135E+00 -0.39872203877E+00  0.90007762104E+02  0.90000023764E+02 0.  0.
         12    1    1    2    0    0 -0.70523106065E+00 -0.85827232135E+00  0.39872203877E+00  0.11802378958E+01  0.00000000000E+00 0. -1.
         11    1    3    3    0    0 -0.85442369188E+01 -0.18165152572E+02 -0.34833177801E+02  0.40203569848E+02  0.51100000000E-03 0. -1.
        -11    1    3    3    0    0 -0.56729246222E+01  0.43804223153E+01 -0.23082578800E+01  0.75298225830E+01  0.51100000000E-03 0.  1.
        -12    1    3    3    0    0  0.14922392602E+02  0.14643002578E+02  0.36742713643E+02  0.42274369673E+02  0.00000000000E+00 0.  1.
</event>
<event>
 7    1  0.3187560E-015  0.9000777E+02  0.7816164E-02  0.1186339E+00
        -11   -1    0    0    0    0  0.00000000000E+00  0.00000000000E+00  0.45593999997E+02  0.45594000000E+02  0.51100000000E-03 0.  1.
         11   -1    0    0    0    0 -0.00000000000E+00 -0.00000000000E+00 -0.45593999997E+02  0.45594000000E+02  0.51100000000E-03 0. -1.
    9900012    2    1    2    0    0 -0.37386479410E+00  0.78905099595E+00  0.79408830474E+00  0.90007765873E+02  0.90000027583E+02 0.  0.
         12    1    1    2    0    0  0.37386479410E+00 -0.78905099595E+00 -0.79408830474E+00  0.11802341269E+01  0.00000000000E+00 0. -1.
         11    1    3    3    0    0  0.57309141764E+01  0.67888942358E+01  0.39207484478E+01  0.97110622948E+01  0.51100000000E-03 0. -1.
        -11    1    3    3    0    0 -0.25940867488E+01  0.34411313258E+02  0.12676593026E+02  0.36763620295E+02  0.51100000000E-03 0.  1.
         12    1    3    3    0    0 -0.35106922217E+01 -0.40411156498E+02 -0.15803253169E+02  0.43533083283E+02  0.00000000000E+00 0. -1.
</event>
<event>
 7    1  0.2285268E-015  0.9000763E+02  0.7816164E-02  0.1186339E+00
        -11   -1    0    0    0    0  0.00000000000E+00  0.00000000000E+00  0.45593999997E+02  0.45594000000E+02  0.51100000000E-03 0.  1.
         11   -1    0    0    0    0 -0.00000000000E+00 -0.00000000000E+00 -0.45593999997E+02  0.45594000000E+02  0.51100000000E-03 0. -1.
    9900012    2    1    2    0    0 -0.90746388454E-01 -0.10033801181E+01  0.61504177150E+00  0.90007625928E+02  0.89999885791E+02 0.  0.
         12    1    1    2    0    0  0.90746388454E-01  0.10033801181E+01 -0.61504177150E+00  0.11803740717E+01  0.00000000000E+00 0. -1.
         11    1    3    3    0    0  0.77614700997E+00 -0.95219612755E+01 -0.24860248850E+01  0.98717004970E+01  0.51100000000E-03 0. -1.
        -11    1    3    3    0    0 -0.36083369434E+02 -0.13328757788E+02  0.40750958834E+01  0.38681671895E+02  0.51100000000E-03 0.  1.
         12    1    3    3    0    0  0.35216476035E+02  0.21847338945E+02 -0.97402922692E+00  0.41454253536E+02  0.00000000000E+00 0. -1.
</event>
<event>
 7    1  0.2285268E-015  0.9000790E+02  0.7816164E-02  0.1186339E+00
        -11   -1    0    0    0    0  0.00000000000E+00  0.00000000000E+00  0.45593999997E+02  0.45594000000E+02  0.51100000000E-03 0.  1.
         11   -1    0    0    0    0 -0.00000000000E+00 -0.00000000000E+00 -0.45593999997E+02  0.45594000000E+02  0.51100000000E-03 0. -1.
    9900012    2    1    2    0    0 -0.14571026312E+00  0.56632655288E+00  0.10250294779E+01  0.90007897176E+02  0.90000160618E+02 0.  0.
         12    1    1    2    0    0  0.14571026312E+00 -0.56632655288E+00 -0.10250294779E+01  0.11801028243E+01  0.00000000000E+00 0. -1.
         11    1    3    3    0    0 -0.33892247350E+02  0.16646444059E+02  0.50852902955E+01  0.38100507974E+02  0.51100000000E-03 0. -1.
        -11    1    3    3    0    0 -0.65835440339E+01 -0.61248818594E+01  0.35645458761E+01  0.96728081445E+01  0.51100000000E-03 0.  1.
        -12    1    3    3    0    0  0.40330081120E+02 -0.99552356469E+01 -0.76248066936E+01  0.42234581057E+02  0.00000000000E+00 0.  1.
</event>
<event>
 7    1  0.2285268E-015  0.9000772E+02  0.7816164E-02  0.1186339E+00
        -11   -1    0    0    0    0  0.00000000000E+00  0.00000000000E+00  0.45593999997E+02  0.45594000000E+02  0.51100000000E-03 0.  1.
         11   -1    0    0    0    0 -0.00000000000E+00 -0.00000000000E+00 -0.45593999997E+02  0.45594000000E+02  0.51100000000E-03 0. -1.
    9900012    2    1    2    0    0  0.30226299535E+00 -0.89723398915E+00  0.70475219635E+00  0.90007717234E+02  0.89999978301E+02 0.  0.
         12    1    1    2    0    0 -0.30226299535E+00  0.89723398915E+00 -0.70475219635E+00  0.11802827661E+01  0.00000000000E+00 0. -1.
         11    1    3    3    0    0 -0.20328551540E+02  0.50566472001E+01 -0.34073256073E+02  0.39997580781E+02  0.51100000000E-03 0. -1.
        -11    1    3    3    0    0 -0.62164823862E+01  0.38222577719E+01  0.58744831432E+01  0.93682367708E+01  0.51100000000E-03 0.  1.
        -12    1    3    3    0    0  0.26847296922E+02 -0.97761389612E+01  0.28903525127E+02  0.40641899682E+02  0.00000000000E+00 0.  1.
</event>
<event>
 7    1  0.2285268E-015  0.9000776E+02  0.7816164E-02  0.1186339E+00
        -11   -1    0    0    0    0  0.00000000000E+00  0.00000000000E+00  0.45593999997E+02  0.45594000000E+02  0.51100000000E-03 0.  1.
         11   -1    0    0    0    0 -0.00000000000E+00 -0.00000000000E+00 -0.45593999997E+02  0.45594000000E+02  0.51100000000E-03 0. -1.
    9900012    2    1    2    0    0 -0.33345481942E+00 -0.19023298663E-01  0.11319949929E+01  0.90007759912E+02  0.90000021542E+02 0.  0.
         12    1    1    2    0    0  0.33345481942E+00  0.19023298663E-01 -0.11319949929E+01  0.11802400884E+01  0.00000000000E+00 0. -1.
         11    1    3    3    0    0  0.69954926383E+01  0.41951772429E+01  0.37940598479E+01  0.89961836210E+01  0.51100000000E-03 0. -1.
        -11    1    3    3    0    0  0.74885393164E+01 -0.35409335166E+02  0.18357956225E+02  0.40582185685E+02  0.51100000000E-03 0.  1.
         12    1    3    3    0    0 -0.14817486774E+02  0.31195134624E+02 -0.21020021080E+02  0.40429390605E+02  0.00000000000E+00 0. -1.
</event>
<event>
 7    1  0.2285268E-015  0.9000774E+02  0.7816164E-02  0.1186339E+00
        -11   -1    0    0    0    0  0.00000000000E+00  0.00000000000E+00  0.45593999997E+02  0.45594000000E+02  0.51100000000E-03 0. -1.
         11   -1    0    0    0    0 -0.00000000000E+00 -0.00000000000E+00 -0.45593999997E+02  0.45594000000E+02  0.51100000000E-03 0.  1.
    9900012    2    1    2    0    0 -0.11296854201E+01 -0.12460466131E+00 -0.31825931002E+00  0.90007743901E+02  0.90000005321E+02 0.  0.
         12    1    1    2    0    0  0.11296854201E+01  0.12460466131E+00  0.31825931002E+00  0.11802560987E+01  0.00000000000E+00 0. -1.
         11    1    3    3    0    0 -0.27769837268E+02  0.55970627411E+01  0.27000781662E+02  0.39134807829E+02  0.51100000000E-03 0. -1.
        -11    1    3    3    0    0 -0.73651752096E+01  0.23142122054E+01 -0.71792639508E+01  0.10542448252E+02  0.51100000000E-03 0.  1.
        -12    1    3    3    0    0  0.34005327058E+02 -0.80358796078E+01 -0.20139777021E+02  0.40330487820E+02  0.00000000000E+00 0.  1.
</event>
<event>
 7    1  0.2285268E-015  0.9000768E+02  0.7816164E-02  0.1186339E+00
        -11   -1    0    0    0    0  0.00000000000E+00  0.00000000000E+00  0.45593999997E+02  0.45594000000E+02  0.51100000000E-03 0. -1.
         11   -1    0    0    0    0 -0.00000000000E+00 -0.00000000000E+00 -0.45593999997E+02  0.45594000000E+02  0.51100000000E-03 0.  1.
    9900012    2    1    2    0    0  0.21114960386E+00 -0.80498479019E+00 -0.83699707931E+00  0.90007682764E+02  0.89999943376E+02 0.  0.
         12    1    1    2    0    0 -0.21114960386E+00  0.80498479019E+00  0.83699707931E+00  0.11803172363E+01  0.00000000000E+00 0. -1.
         11    1    3    3    0    0  0.12334593481E+02 -0.35748860931E+02 -0.84611251349E+01  0.38751953409E+02  0.51100000000E-03 0. -1.
        -11    1    3    3    0    0 -0.10192593327E+02 -0.42813049276E+01 -0.81962845115E+00  0.11085590723E+02  0.51100000000E-03 0.  1.
         12    1    3    3    0    0 -0.19308505498E+01  0.39225181069E+02  0.84437565067E+01  0.40170138632E+02  0.00000000000E+00 0. -1.
</event>
<event>
 7    1  0.2285268E-015  0.9000787E+02  0.7816164E-02  0.1186339E+00
        -11   -1    0    0    0    0  0.00000000000E+00  0.00000000000E+00  0.45593999997E+02  0.45594000000E+02  0.51100000000E-03 0.  1.
         11   -1    0    0    0    0 -0.00000000000E+00 -0.00000000000E+00 -0.45593999997E+02  0.45594000000E+02  0.51100000000E-03 0. -1.
    9900012    2    1    2    0    0 -0.91467569907E+00 -0.74563243295E+00  0.99726135157E-02  0.90007873391E+02  0.90000136520E+02 0.  0.
         12    1    1    2    0    0  0.91467569907E+00  0.74563243295E+00 -0.99726135157E-02  0.11801266087E+01  0.00000000000E+00 0. -1.
         11    1    3    3    0    0  0.12705165472E+02 -0.19708299827E+02 -0.11469671666E+01  0.23476665983E+02  0.51100000000E-03 0. -1.
        -11    1    3    3    0    0 -0.12572225873E+02 -0.68713650449E+01  0.26627468536E+02  0.30237370949E+02  0.51100000000E-03 0.  1.
         12    1    3    3    0    0 -0.10476152979E+01  0.25834032439E+02 -0.25470528756E+02  0.36293836460E+02  0.00000000000E+00 0. -1.
</event>
<event>
 7    1  0.2285268E-015  0.9000772E+02  0.7816164E-02  0.1186339E+00
        -11   -1    0    0    0    0  0.00000000000E+00  0.00000000000E+00  0.45593999997E+02  0.45594000000E+02  0.51100000000E-03 0.  1.
         11   -1    0    0    0    0 -0.00000000000E+00 -0.00000000000E+00 -0.45593999997E+02  0.45594000000E+02  0.51100000000E-03 0. -1.
    9900012    2    1    2    0    0 -0.50513179211E+00 -0.98108062300E+00 -0.41879902572E+00  0.90007716161E+02  0.89999977215E+02 0.  0.
         12    1    1    2    0    0  0.50513179211E+00  0.98108062300E+00  0.41879902572E+00  0.11802838388E+01  0.00000000000E+00 0. -1.
         11    1    3    3    0    0 -0.30157836400E+02 -0.93233388819E+01 -0.30204898586E+02  0.43689308110E+02  0.51100000000E-03 0. -1.
        -11    1    3    3    0    0  0.86728056375E+00 -0.22608447203E+01  0.88588614438E+01  0.91838456415E+01  0.51100000000E-03 0.  1.
        -12    1    3    3    0    0  0.28785424044E+02  0.10603102979E+02  0.20927238117E+02  0.37134562410E+02  0.00000000000E+00 0.  1.
</event>
<event>
 7    1  0.2285268E-015  0.9000774E+02  0.7816164E-02  0.1186339E+00
        -11   -1    0    0    0    0  0.00000000000E+00  0.00000000000E+00  0.45593999997E+02  0.45594000000E+02  0.51100000000E-03 0.  1.
         11   -1    0    0    0    0 -0.00000000000E+00 -0.00000000000E+00 -0.45593999997E+02  0.45594000000E+02  0.51100000000E-03 0. -1.
    9900012    2    1    2    0    0 -0.10443925507E+01  0.24747086164E+00  0.49093021033E+00  0.90007741512E+02  0.90000002900E+02 0.  0.
         12    1    1    2    0    0  0.10443925507E+01 -0.24747086164E+00 -0.49093021033E+00  0.11802584881E+01  0.00000000000E+00 0. -1.
         11    1    3    3    0    0  0.21079701366E+02 -0.22565632272E+02 -0.13537297283E+02  0.33716761225E+02  0.51100000000E-03 0. -1.
        -11    1    3    3    0    0  0.61348025780E+01 -0.39020605013E+01 -0.86293642524E+01  0.11283962358E+02  0.51100000000E-03 0.  1.
        -12    1    3    3    0    0 -0.28258896495E+02  0.26715163635E+02  0.22657591746E+02  0.45007017929E+02  0.00000000000E+00 0.  1.
</event>
<event>
 7    1  0.2285268E-015  0.9000768E+02  0.7816164E-02  0.1186339E+00
        -11   -1    0    0    0    0  0.00000000000E+00  0.00000000000E+00  0.45593999997E+02  0.45594000000E+02  0.51100000000E-03 0. -1.
         11   -1    0    0    0    0 -0.00000000000E+00 -0.00000000000E+00 -0.45593999997E+02  0.45594000000E+02  0.51100000000E-03 0.  1.
    9900012    2    1    2    0    0  0.80811282200E+00  0.73179738702E+00  0.45229738838E+00  0.90007683654E+02  0.89999944278E+02 0.  0.
         12    1    1    2    0    0 -0.80811282200E+00 -0.73179738702E+00 -0.45229738838E+00  0.11803163458E+01  0.00000000000E+00 0. -1.
         11    1    3    3    0    0 -0.54747990615E+01 -0.16289807235E+00 -0.80766880683E+01  0.97587320364E+01  0.51100000000E-03 0. -1.
        -11    1    3    3    0    0 -0.18341750039E+02  0.30193375508E+02 -0.11369976049E+02  0.37112478693E+02  0.51100000000E-03 0.  1.
         12    1    3    3    0    0  0.24624661923E+02 -0.29298680049E+02  0.19898961506E+02  0.43136472925E+02  0.00000000000E+00 0. -1.
</event>
<event>
 7    1  0.2285268E-015  0.9000785E+02  0.7816164E-02  0.1186339E+00
        -11   -1    0    0    0    0  0.00000000000E+00  0.00000000000E+00  0.45593999997E+02  0.45594000000E+02  0.51100000000E-03 0. -1.
         11   -1    0    0    0    0 -0.00000000000E+00 -0.00000000000E+00 -0.45593999997E+02  0.45594000000E+02  0.51100000000E-03 0.  1.
    9900012    2    1    2    0    0  0.11308854462E+01 -0.18042090435E+00 -0.28511355293E+00  0.90007854529E+02  0.90000117408E+02 0.  0.
         12    1    1    2    0    0 -0.11308854462E+01  0.18042090435E+00  0.28511355293E+00  0.11801454712E+01  0.00000000000E+00 0. -1.
         11    1    3    3    0    0 -0.15870896017E+02 -0.30056766911E+02 -0.92031999235E+01  0.35213540955E+02  0.51100000000E-03 0. -1.
        -11    1    3    3    0    0 -0.54473941155E+00 -0.10232636470E+02  0.89536240174E+00  0.10286168589E+02  0.51100000000E-03 0.  1.
        -12    1    3    3    0    0  0.17546520875E+02  0.40108982476E+02  0.80227239688E+01  0.44508144985E+02  0.00000000000E+00 0.  1.
</event>
<event>
 7    1  0.2285268E-015  0.9000772E+02  0.7816164E-02  0.1186339E+00
        -11   -1    0    0    0    0  0.00000000000E+00  0.00000000000E+00  0.45593999997E+02  0.45594000000E+02  0.51100000000E-03 0.  1.
         11   -1    0    0    0    0 -0.00000000000E+00 -0.00000000000E+00 -0.45593999997E+02  0.45594000000E+02  0.51100000000E-03 0. -1.
    9900012    2    1    2    0    0 -0.53244824342E+00  0.50111629533E+00  0.92651646787E+00  0.90007723999E+02  0.89999985156E+02 0.  0.
         12    1    1    2    0    0  0.53244824342E+00 -0.50111629533E+00 -0.92651646787E+00  0.11802760010E+01  0.00000000000E+00 0. -1.
         11    1    3    3    0    0  0.30089410606E+02 -0.20428158855E+02 -0.92005519101E+01  0.37514430031E+02  0.51100000000E-03 0. -1.
        -11    1    3    3    0    0  0.67635385744E+01  0.74143522348E+00  0.71976051667E+01  0.99045797808E+01  0.51100000000E-03 0.  1.
        -12    1    3    3    0    0 -0.37385397423E+02  0.20187839927E+02  0.29294632112E+01  0.42588714187E+02  0.00000000000E+00 0.  1.
</event>
<event>
 7    1  0.2285268E-015  0.9000776E+02  0.7816164E-02  0.1186339E+00
        -11   -1    0    0    0    0  0.00000000000E+00  0.00000000000E+00  0.45593999997E+02  0.45594000000E+02  0.51100000000E-03 0. -1.
         11   -1    0    0    0    0 -0.00000000000E+00 -0.00000000000E+00 -0.45593999997E+02  0.45594000000E+02  0.51100000000E-03 0.  1.
    9900012    2    1    2    0    0  0.18674627736E+00  0.69550819527E+00 -0.93507749092E+00  0.90007756069E+02  0.90000017649E+02 0.  0.
         12    1    1    2    0    0 -0.18674627736E+00 -0.69550819527E+00  0.93507749092E+00  0.11802439306E+01  0.00000000000E+00 0. -1.
         11    1    3    3    0    0  0.29103876139E+02 -0.50538357091E+01  0.26792866885E+02  0.39880252981E+02  0.51100000000E-03 0. -1.
        -11    1    3    3    0    0 -0.17778547750E+02  0.59656570387E+01  0.15351331050E+01  0.18815484525E+02  0.51100000000E-03 0.  1.
        -12    1    3    3    0    0 -0.11138582112E+02 -0.21631313433E+00 -0.29263077481E+02  0.31312018563E+02  0.00000000000E+00 0.  1.
</event>
<event>
 7    1  0.2285268E-015  0.9000780E+02  0.7816164E-02  0.1186339E+00
        -11   -1    0    0    0    0  0.00000000000E+00  0.00000000000E+00  0.45593999997E+02  0.45594000000E+02  0.51100000000E-03 0. -1.
         11   -1    0    0    0    0 -0.00000000000E+00 -0.00000000000E+00 -0.45593999997E+02  0.45594000000E+02  0.51100000000E-03 0.  1.
    9900012    2    1    2    0    0  0.77546637290E-01  0.77991847114E+00 -0.88237547763E+00  0.90007799684E+02  0.90000061840E+02 0.  0.
         12    1    1    2    0    0 -0.77546637290E-01 -0.77991847114E+00  0.88237547763E+00  0.11802003161E+01  0.00000000000E+00 0. -1.
         11    1    3    3    0    0 -0.64723194679E+01  0.13148645554E+02  0.30742220003E+02  0.34056745149E+02  0.51100000000E-03 0. -1.
        -11    1    3    3    0    0  0.10492087459E+02  0.15104069029E+02 -0.11995353220E+02  0.21956896402E+02  0.51100000000E-03 0.  1.
        -12    1    3    3    0    0 -0.39422213536E+01 -0.27472796112E+02 -0.19629242260E+02  0.33994158133E+02  0.00000000000E+00 0.  1.
</event>
<event>
 7    1  0.2285268E-015  0.9000766E+02  0.7816164E-02  0.1186339E+00
        -11   -1    0    0    0    0  0.00000000000E+00  0.00000000000E+00  0.45593999997E+02  0.45594000000E+02  0.51100000000E-03 0.  1.
         11   -1    0    0    0    0 -0.00000000000E+00 -0.00000000000E+00 -0.45593999997E+02  0.45594000000E+02  0.51100000000E-03 0. -1.
    9900012    2    1    2    0    0 -0.81298858763E+00  0.72777201819E+00  0.45010193648E+00  0.90007663477E+02  0.89999923835E+02 0.  0.
         12    1    1    2    0    0  0.81298858763E+00 -0.72777201819E+00 -0.45010193648E+00  0.11803365229E+01  0.00000000000E+00 0. -1.
         11    1    3    3    0    0  0.11674666185E+00 -0.33935982874E+02 -0.12658481514E+00  0.33936419778E+02  0.51100000000E-03 0. -1.
        -11    1    3    3    0    0 -0.69076225846E+00 -0.10568275009E+02  0.21686371912E+01  0.10810577075E+02  0.51100000000E-03 0.  1.
        -12    1    3    3    0    0 -0.23897299101E+00  0.45232029901E+02 -0.15919504396E+01  0.45260666624E+02  0.00000000000E+00 0.  1.
</event>
<event>
 7    1  0.2285268E-015  0.9000753E+02  0.7816164E-02  0.1186339E+00
        -11   -1    0    0    0    0  0.00000000000E+00  0.00000000000E+00  0.45593999997E+02  0.45594000000E+02  0.51100000000E-03 0.  1.
         11   -1    0    0    0    0 -0.00000000000E+00 -0.00000000000E+00 -0.45593999997E+02  0.45594000000E+02  0.51100000000E-03 0. -1.
    9900012    2    1    2    0    0  0.86893564765E+00 -0.39195862255E+00  0.69629128610E+00  0.90007533026E+02  0.89999791662E+02 0.  0.
         12    1    1    2    0    0 -0.86893564765E+00  0.39195862255E+00 -0.69629128610E+00  0.11804669740E+01  0.00000000000E+00 0. -1.
         11    1    3    3    0    0  0.71353908318E+01 -0.49767520854E+01 -0.52560382125E+01  0.10164044549E+02  0.51100000000E-03 0. -1.
        -11    1    3    3    0    0 -0.16460527961E+02 -0.12092868114E+02  0.37517082543E+02  0.42716717135E+02  0.51100000000E-03 0.  1.
         12    1    3    3    0    0  0.10194072777E+02  0.16677661577E+02 -0.31564753045E+02  0.37126771342E+02  0.00000000000E+00 0. -1.
</event>
<event>
 7    1  0.2285268E-015  0.9000723E+02  0.7816164E-02  0.1186340E+00
        -11   -1    0    0    0    0  0.00000000000E+00  0.00000000000E+00  0.45593999997E+02  0.45594000000E+02  0.51100000000E-03 0.  1.
         11   -1    0    0    0    0 -0.00000000000E+00 -0.00000000000E+00 -0.45593999997E+02  0.45594000000E+02  0.51100000000E-03 0. -1.
    9900012    2    1    2    0    0 -0.22916104923E+00 -0.78671763024E+00  0.85015954336E+00  0.90007233018E+02  0.89999487693E+02 0.  0.
         12    1    1    2    0    0  0.22916104923E+00  0.78671763024E+00 -0.85015954336E+00  0.11807669818E+01  0.00000000000E+00 0. -1.
         11    1    3    3    0    0  0.67263795363E+01 -0.76270416843E+01  0.33313606017E+01  0.10701117243E+02  0.51100000000E-03 0. -1.
        -11    1    3    3    0    0 -0.18823446184E+01 -0.80148863670E+01  0.36429544717E+02  0.37348271088E+02  0.51100000000E-03 0.  1.
         12    1    3    3    0    0 -0.50731959671E+01  0.14855210421E+02 -0.38910745776E+02  0.41957844687E+02  0.00000000000E+00 0. -1.
</event>
<event>
 7    1  0.2285268E-015  0.9000776E+02  0.7816164E-02  0.1186339E+00
        -11   -1    0    0    0    0  0.00000000000E+00  0.00000000000E+00  0.45593999997E+02  0.45594000000E+02  0.51100000000E-03 0. -1.
         11   -1    0    0    0    0 -0.00000000000E+00 -0.00000000000E+00 -0.45593999997E+02  0.45594000000E+02  0.51100000000E-03 0.  1.
    9900012    2    1    2    0    0  0.24620491202E-01  0.17311739826E+00 -0.11672104555E+01  0.90007764409E+02  0.90000026099E+02 0.  0.
         12    1    1    2    0    0 -0.24620491202E-01 -0.17311739826E+00  0.11672104555E+01  0.11802355907E+01  0.00000000000E+00 0. -1.
         11    1    3    3    0    0  0.22379403132E+00 -0.27630615985E+02  0.31906924294E+02  0.42208445146E+02  0.51100000000E-03 0. -1.
        -11    1    3    3    0    0 -0.61655375746E+01  0.19489840245E+01 -0.16548123569E+01  0.66746383055E+01  0.51100000000E-03 0.  1.
        -12    1    3    3    0    0  0.59663640345E+01  0.25854749359E+02 -0.31419322393E+02  0.41124680957E+02  0.00000000000E+00 0.  1.
</event>
<event>
 7    1  0.2285268E-015  0.9000777E+02  0.7816164E-02  0.1186339E+00
        -11   -1    0    0    0    0  0.00000000000E+00  0.00000000000E+00  0.45593999997E+02  0.45594000000E+02  0.51100000000E-03 0.  1.
         11   -1    0    0    0    0 -0.00000000000E+00 -0.00000000000E+00 -0.45593999997E+02  0.45594000000E+02  0.51100000000E-03 0. -1.
    9900012    2    1    2    0    0  0.52475788076E+00  0.10286801112E+01  0.24370671190E+00  0.90007768427E+02  0.90000030170E+02 0.  0.
         12    1    1    2    0    0 -0.52475788076E+00 -0.10286801112E+01 -0.24370671190E+00  0.11802315731E+01  0.00000000000E+00 0. -1.
         11    1    3    3    0    0 -0.19098794814E+02 -0.74350384993E+01 -0.28163503488E+02  0.34831403788E+02  0.51100000000E-03 0. -1.
        -11    1    3    3    0    0 -0.64763399372E+01  0.31634022586E+01 -0.75448715626E+01  0.10434327002E+02  0.51100000000E-03 0.  1.
        -12    1    3    3    0    0  0.26099892632E+02  0.53003163519E+01  0.35952081762E+02  0.44742037637E+02  0.00000000000E+00 0.  1.
</event>
<event>
 7    1  0.2285268E-015  0.9000769E+02  0.7816164E-02  0.1186339E+00
        -11   -1    0    0    0    0  0.00000000000E+00  0.00000000000E+00  0.45593999997E+02  0.45594000000E+02  0.51100000000E-03 0. -1.
         11   -1    0    0    0    0 -0.00000000000E+00 -0.00000000000E+00 -0.45593999997E+02  0.45594000000E+02  0.51100000000E-03 0.  1.
    9900012    2    1    2    0    0  0.59002331065E+00  0.91152430355E+00 -0.46274080699E+00  0.90007689398E+02  0.89999950098E+02 0.  0.
         12    1    1    2    0    0 -0.59002331065E+00 -0.91152430355E+00  0.46274080699E+00  0.11803106021E+01  0.00000000000E+00 0. -1.
         11    1    3    3    0    0  0.34967207859E+02 -0.37192888175E-01  0.25215003062E+02  0.43110362889E+02  0.51100000000E-03 0. -1.
        -11    1    3    3    0    0  0.16091779834E+01 -0.26128947899E+01 -0.17016052344E+01  0.35088650017E+01  0.51100000000E-03 0.  1.
        -12    1    3    3    0    0 -0.35986362532E+02  0.35616119816E+01 -0.23976138634E+02  0.43388461507E+02  0.00000000000E+00 0.  1.
</event>
<event>
 7    1  0.2285268E-015  0.9000774E+02  0.7816164E-02  0.1186339E+00
        -11   -1    0    0    0    0  0.00000000000E+00  0.00000000000E+00  0.45593999997E+02  0.45594000000E+02  0.51100000000E-03 0. -1.
         11   -1    0    0    0    0 -0.00000000000E+00 -0.00000000000E+00 -0.45593999997E+02  0.45594000000E+02  0.51100000000E-03 0.  1.
    9900012    2    1    2    0    0  0.13626067048E+00 -0.10667327191E+01  0.48635268646E+00  0.90007735369E+02  0.89999996676E+02 0.  0.
         12    1    1    2    0    0 -0.13626067048E+00  0.10667327191E+01 -0.48635268646E+00  0.11802646313E+01  0.00000000000E+00 0. -1.
         11    1    3    3    0    0 -0.25309884268E+02 -0.17230541303E+02  0.18747236983E+02  0.35901820149E+02  0.51100000000E-03 0. -1.
        -11    1    3    3    0    0 -0.87805267516E+01 -0.32117205833E+01  0.24369120552E+01  0.96618497073E+01  0.51100000000E-03 0.  1.
        -12    1    3    3    0    0  0.34226671690E+02  0.19375529167E+02 -0.20697796351E+02  0.44444065513E+02  0.00000000000E+00 0.  1.
</event>
<event>
 7    1  0.2285268E-015  0.9000782E+02  0.7816164E-02  0.1186339E+00
        -11   -1    0    0    0    0  0.00000000000E+00  0.00000000000E+00  0.45593999997E+02  0.45594000000E+02  0.51100000000E-03 0.  1.
         11   -1    0    0    0    0 -0.00000000000E+00 -0.00000000000E+00 -0.45593999997E+02  0.45594000000E+02  0.51100000000E-03 0. -1.
    9900012    2    1    2    0    0 -0.87161815503E+00  0.79388766903E+00  0.53431398877E-01  0.90007817491E+02  0.90000079882E+02 0.  0.
         12    1    1    2    0    0  0.87161815503E+00 -0.79388766903E+00 -0.53431398877E-01  0.11801825086E+01  0.00000000000E+00 0. -1.
         11    1    3    3    0    0  0.11116912866E+02  0.30326345183E+02 -0.17643380693E+02  0.36804372652E+02  0.51100000000E-03 0. -1.
        -11    1    3    3    0    0 -0.61895916045E+01  0.91279179496E+01  0.28955730789E+01  0.11402380192E+02  0.51100000000E-03 0.  1.
        -12    1    3    3    0    0 -0.57989394167E+01 -0.38660375463E+02  0.14801239013E+02  0.41801064647E+02  0.00000000000E+00 0.  1.
</event>
<event>
 7    1  0.2285268E-015  0.9000770E+02  0.7816164E-02  0.1186339E+00
        -11   -1    0    0    0    0  0.00000000000E+00  0.00000000000E+00  0.45593999997E+02  0.45594000000E+02  0.51100000000E-03 0.  1.
         11   -1    0    0    0    0 -0.00000000000E+00 -0.00000000000E+00 -0.45593999997E+02  0.45594000000E+02  0.51100000000E-03 0. -1.
    9900012    2    1    2    0    0  0.57077302227E+00  0.28482749324E+00 -0.99307000696E+00  0.90007704875E+02  0.89999965779E+02 0.  0.
         12    1    1    2    0    0 -0.57077302227E+00 -0.28482749324E+00  0.99307000696E+00  0.11802951252E+01  0.00000000000E+00 0. -1.
         11    1    3    3    0    0  0.22658528426E+02  0.12386596982E+02 -0.32446834543E+02  0.41468467145E+02  0.51100000000E-03 0. -1.
        -11    1    3    3    0    0 -0.50053073811E+01 -0.87294675863E+01 -0.25111305748E+01  0.10371233453E+02  0.51100000000E-03 0.  1.
        -12    1    3    3    0    0 -0.17082448022E+02 -0.33723019027E+01  0.33964895111E+02  0.38168004277E+02  0.00000000000E+00 0.  1.
</event>
<event>
 7    1  0.2285268E-015  0.9000772E+02  0.7816164E-02  0.1186339E+00
        -11   -1    0    0    0    0  0.00000000000E+00  0.00000000000E+00  0.45593999997E+02  0.45594000000E+02  0.51100000000E-03 0.  1.
         11   -1    0    0    0    0 -0.00000000000E+00 -0.00000000000E+00 -0.45593999997E+02  0.45594000000E+02  0.51100000000E-03 0. -1.
    9900012    2    1    2    0    0 -0.22304536487E-01  0.33465559563E+00  0.11316178732E+01  0.90007724239E+02  0.89999985399E+02 0.  0.
         12    1    1    2    0    0  0.22304536487E-01 -0.33465559563E+00 -0.11316178732E+01  0.11802757605E+01  0.00000000000E+00 0. -1.
         11    1    3    3    0    0 -0.21606597472E+02  0.32109471637E+02  0.10720768932E+02  0.40159657741E+02  0.51100000000E-03 0. -1.
        -11    1    3    3    0    0  0.12274833153E+01  0.26097313926E+01 -0.94592920930E+01  0.98891668199E+01  0.51100000000E-03 0.  1.
        -12    1    3    3    0    0  0.20356809621E+02 -0.34384547434E+02 -0.12985896561E+00  0.39958899678E+02  0.00000000000E+00 0.  1.
</event>
<event>
 7    1  0.2285268E-015  0.9000786E+02  0.7816164E-02  0.1186339E+00
        -11   -1    0    0    0    0  0.00000000000E+00  0.00000000000E+00  0.45593999997E+02  0.45594000000E+02  0.51100000000E-03 0.  1.
         11   -1    0    0    0    0 -0.00000000000E+00 -0.00000000000E+00 -0.45593999997E+02  0.45594000000E+02  0.51100000000E-03 0. -1.
    9900012    2    1    2    0    0 -0.45872963610E-01 -0.49829064127E+00  0.10688026831E+01  0.90007857183E+02  0.90000120098E+02 0.  0.
         12    1    1    2    0    0  0.45872963610E-01  0.49829064127E+00 -0.10688026831E+01  0.11801428166E+01  0.00000000000E+00 0. -1.
         11    1    3    3    0    0 -0.19988670603E+02  0.62832673400E+01 -0.33157708564E+02  0.39223207906E+02  0.51100000000E-03 0. -1.
        -11    1    3    3    0    0  0.52376041504E+01 -0.80754311288E+01 -0.35243412500E+01  0.10250173982E+02  0.51100000000E-03 0.  1.
        -12    1    3    3    0    0  0.14705193489E+02  0.12938731475E+01  0.37750852497E+02  0.40534475296E+02  0.00000000000E+00 0.  1.
</event>
<event>
 7    1  0.2285268E-015  0.9000657E+02  0.7816164E-02  0.1186341E+00
        -11   -1    0    0    0    0  0.00000000000E+00  0.00000000000E+00  0.45593999997E+02  0.45594000000E+02  0.51100000000E-03 0.  1.
         11   -1    0    0    0    0 -0.00000000000E+00 -0.00000000000E+00 -0.45593999997E+02  0.45594000000E+02  0.51100000000E-03 0. -1.
    9900012    2    1    2    0    0  0.68249539143E+00 -0.20744074282E+00  0.94177349530E+00  0.90006573347E+02  0.89998819307E+02 0.  0.
         12    1    1    2    0    0 -0.68249539143E+00  0.20744074282E+00 -0.94177349530E+00  0.11814266535E+01  0.00000000000E+00 0. -1.
         11    1    3    3    0    0  0.44671882330E+01  0.75277321765E+01 -0.23287868863E+01  0.90579120692E+01  0.51100000000E-03 0. -1.
        -11    1    3    3    0    0 -0.17545209924E+02  0.27146015535E+02  0.21935400234E+02  0.39062799879E+02  0.51100000000E-03 0.  1.
         12    1    3    3    0    0  0.13760517082E+02 -0.34881188454E+02 -0.18664839853E+02  0.41885861398E+02  0.00000000000E+00 0. -1.
</event>
<event>
 7    1  0.2285268E-015  0.9000770E+02  0.7816164E-02  0.1186339E+00
        -11   -1    0    0    0    0  0.00000000000E+00  0.00000000000E+00  0.45593999997E+02  0.45594000000E+02  0.51100000000E-03 0. -1.
         11   -1    0    0    0    0 -0.00000000000E+00 -0.00000000000E+00 -0.45593999997E+02  0.45594000000E+02  0.51100000000E-03 0.  1.
    9900012    2    1    2    0    0  0.13846982242E+00 -0.11708508450E+01 -0.55071440377E-01  0.90007704081E+02  0.89999964975E+02 0.  0.
         12    1    1    2    0    0 -0.13846982242E+00  0.11708508450E+01  0.55071440377E-01  0.11802959191E+01  0.00000000000E+00 0. -1.
         11    1    3    3    0    0  0.10156980970E+02  0.81964984051E+00  0.28258421192E+01  0.10574567236E+02  0.51100000000E-03 0. -1.
        -11    1    3    3    0    0  0.20475567541E+02 -0.22865839849E+01 -0.31481794380E+02  0.37624203780E+02  0.51100000000E-03 0.  1.
         12    1    3    3    0    0 -0.30494078688E+02  0.29608329941E+00  0.28600880820E+02  0.41808933065E+02  0.00000000000E+00 0. -1.
</event>
<event>
 7    1  0.2285268E-015  0.9000773E+02  0.7816164E-02  0.1186339E+00
        -11   -1    0    0    0    0  0.00000000000E+00  0.00000000000E+00  0.45593999997E+02  0.45594000000E+02  0.51100000000E-03 0.  1.
         11   -1    0    0    0    0 -0.00000000000E+00 -0.00000000000E+00 -0.45593999997E+02  0.45594000000E+02  0.51100000000E-03 0. -1.
    9900012    2    1    2    0    0  0.10977291826E+01  0.42173321544E+00 -0.10079769693E+00  0.90007733742E+02  0.89999995028E+02 0.  0.
         12    1    1    2    0    0 -0.10977291826E+01 -0.42173321544E+00  0.10079769693E+00  0.11802662577E+01  0.00000000000E+00 0. -1.
         11    1    3    3    0    0  0.12164630803E+02  0.68440362048E+01 -0.33091548957E+02  0.35914755837E+02  0.51100000000E-03 0. -1.
        -11    1    3    3    0    0  0.29471763403E+01 -0.21425865241E+01 -0.89515698185E+01  0.96647363063E+01  0.51100000000E-03 0.  1.
        -12    1    3    3    0    0 -0.14014077961E+02 -0.42797164653E+01  0.41942321079E+02  0.44428241599E+02  0.00000000000E+00 0.  1.
</event>
<event>
 7    1  0.2285268E-015  0.9000779E+02  0.7816164E-02  0.1186339E+00
        -11   -1    0    0    0    0  0.00000000000E+00  0.00000000000E+00  0.45593999997E+02  0.45594000000E+02  0.51100000000E-03 0.  1.
         11   -1    0    0    0    0 -0.00000000000E+00 -0.00000000000E+00 -0.45593999997E+02  0.45594000000E+02  0.51100000000E-03 0. -1.
    9900012    2    1    2    0    0 -0.10434092379E+01 -0.50314696355E+00  0.22591415097E+00  0.90007789464E+02  0.90000051485E+02 0.  0.
         12    1    1    2    0    0  0.10434092379E+01  0.50314696355E+00 -0.22591415097E+00  0.11802105355E+01  0.00000000000E+00 0. -1.
         11    1    3    3    0    0  0.82593635762E+01 -0.21371443870E+02  0.21476115650E+02  0.31403490943E+02  0.51100000000E-03 0. -1.
        -11    1    3    3    0    0  0.57261810239E+01  0.57968290530E+01  0.14710762823E+02  0.16816626276E+02  0.51100000000E-03 0.  1.
         12    1    3    3    0    0 -0.15028953838E+02  0.15071467853E+02 -0.35960964322E+02  0.41787672245E+02  0.00000000000E+00 0. -1.
</event>
<event>
 7    1  0.2285268E-015  0.9000772E+02  0.7816164E-02  0.1186339E+00
        -11   -1    0    0    0    0  0.00000000000E+00  0.00000000000E+00  0.45593999997E+02  0.45594000000E+02  0.51100000000E-03 0.  1.
         11   -1    0    0    0    0 -0.00000000000E+00 -0.00000000000E+00 -0.45593999997E+02  0.45594000000E+02  0.51100000000E-03 0. -1.
    9900012    2    1    2    0    0  0.12242472663E-01  0.10032422170E+01 -0.62162482421E+00  0.90007719421E+02  0.89999980517E+02 0.  0.
         12    1    1    2    0    0 -0.12242472663E-01 -0.10032422170E+01  0.62162482421E+00  0.11802805795E+01  0.00000000000E+00 0. -1.
         11    1    3    3    0    0  0.28172643970E+02  0.13350397327E+02 -0.31330665508E+02  0.44198886620E+02  0.51100000000E-03 0. -1.
        -11    1    3    3    0    0 -0.33089128215E+01 -0.81369621978E+01  0.81322326993E+01  0.11970474795E+02  0.51100000000E-03 0.  1.
        -12    1    3    3    0    0 -0.24851488676E+02 -0.42101929120E+01  0.22576807984E+02  0.33838358006E+02  0.00000000000E+00 0.  1.
</event>
<event>
 7    1  0.2285268E-015  0.9000738E+02  0.7816164E-02  0.1186340E+00
        -11   -1    0    0    0    0  0.00000000000E+00  0.00000000000E+00  0.45593999997E+02  0.45594000000E+02  0.51100000000E-03 0.  1.
         11   -1    0    0    0    0 -0.00000000000E+00 -0.00000000000E+00 -0.45593999997E+02  0.45594000000E+02  0.51100000000E-03 0. -1.
    9900012    2    1    2    0    0 -0.91260841476E+00  0.55157140969E+00  0.50673425514E+00  0.90007379509E+02  0.89999636118E+02 0.  0.
         12    1    1    2    0    0  0.91260841476E+00 -0.55157140969E+00 -0.50673425514E+00  0.11806204911E+01  0.00000000000E+00 0. -1.
         11    1    3    3    0    0  0.11906606525E+02 -0.37626827062E+02  0.26933158813E+01  0.39557544722E+02  0.51100000000E-03 0. -1.
        -11    1    3    3    0    0  0.51682397450E+01  0.19166622469E+01 -0.78349684981E+01  0.95797196127E+01  0.51100000000E-03 0.  1.
        -12    1    3    3    0    0 -0.17987454685E+02  0.36261736225E+02  0.56483868720E+01  0.40870115174E+02  0.00000000000E+00 0.  1.
</event>
<event>
 7    1  0.2285268E-015  0.9000765E+02  0.7816164E-02  0.1186339E+00
        -11   -1    0    0    0    0  0.00000000000E+00  0.00000000000E+00  0.45593999997E+02  0.45594000000E+02  0.51100000000E-03 0. -1.
         11   -1    0    0    0    0 -0.00000000000E+00 -0.00000000000E+00 -0.45593999997E+02  0.45594000000E+02  0.51100000000E-03 0.  1.
    9900012    2    1    2    0    0  0.63406012847E+00  0.99278723214E+00 -0.74608755256E-01  0.90007650390E+02  0.89999910575E+02 0.  0.
         12    1    1    2    0    0 -0.63406012847E+00 -0.99278723214E+00  0.74608755256E-01  0.11803496097E+01  0.00000000000E+00 0. -1.
         11    1    3    3    0    0 -0.39843860133E+01 -0.37041803719E+02 -0.22860197940E+01  0.37325546766E+02  0.51100000000E-03 0. -1.
        -11    1    3    3    0    0 -0.81546085788E+01 -0.29695445263E+01 -0.34976490914E+01  0.93567828443E+01  0.51100000000E-03 0.  1.
        -12    1    3    3    0    0  0.12773054721E+02  0.41004135477E+02  0.57090601302E+01  0.43325320780E+02  0.00000000000E+00 0.  1.
</event>
<event>
 7    1  0.2285268E-015  0.9000779E+02  0.7816164E-02  0.1186339E+00
        -11   -1    0    0    0    0  0.00000000000E+00  0.00000000000E+00  0.45593999997E+02  0.45594000000E+02  0.51100000000E-03 0.  1.
         11   -1    0    0    0    0 -0.00000000000E+00 -0.00000000000E+00 -0.45593999997E+02  0.45594000000E+02  0.51100000000E-03 0. -1.
    9900012    2    1    2    0    0 -0.69046069943E+00  0.84899888994E+00 -0.44200270721E+00  0.90007787525E+02  0.90000049520E+02 0.  0.
         12    1    1    2    0    0  0.69046069943E+00 -0.84899888994E+00  0.44200270721E+00  0.11802124748E+01  0.00000000000E+00 0. -1.
         11    1    3    3    0    0  0.58373548274E+01 -0.29883472710E+02 -0.16144269984E+02  0.34463518482E+02  0.51100000000E-03 0. -1.
        -11    1    3    3    0    0  0.36454443567E+01 -0.98666164388E+01 -0.81195346614E+00  0.10549817686E+02  0.51100000000E-03 0.  1.
        -12    1    3    3    0    0 -0.10173259883E+02  0.40599088039E+02  0.16514220743E+02  0.44994451358E+02  0.00000000000E+00 0.  1.
</event>
<event>
 7    1  0.2285268E-015  0.9000773E+02  0.7816164E-02  0.1186339E+00
        -11   -1    0    0    0    0  0.00000000000E+00  0.00000000000E+00  0.45593999997E+02  0.45594000000E+02  0.51100000000E-03 0.  1.
         11   -1    0    0    0    0 -0.00000000000E+00 -0.00000000000E+00 -0.45593999997E+02  0.45594000000E+02  0.51100000000E-03 0. -1.
    9900012    2    1    2    0    0  0.80932903944E+00  0.52678305928E+00  0.67861150515E+00  0.90007734157E+02  0.89999995448E+02 0.  0.
         12    1    1    2    0    0 -0.80932903944E+00 -0.52678305928E+00 -0.67861150515E+00  0.11802658432E+01  0.00000000000E+00 0. -1.
         11    1    3    3    0    0 -0.52876625660E+01 -0.91569746660E+01 -0.35415353465E+01  0.11151324285E+02  0.51100000000E-03 0. -1.
        -11    1    3    3    0    0  0.34604843239E+02  0.24952925042E+02 -0.95308537589E+01  0.43714766582E+02  0.51100000000E-03 0.  1.
         12    1    3    3    0    0 -0.28507851633E+02 -0.15269167316E+02  0.13751000611E+02  0.35141643289E+02  0.00000000000E+00 0. -1.
</event>
<event>
 7    1  0.2285268E-015  0.9000774E+02  0.7816164E-02  0.1186339E+00
        -11   -1    0    0    0    0  0.00000000000E+00  0.00000000000E+00  0.45593999997E+02  0.45594000000E+02  0.51100000000E-03 0.  1.
         11   -1    0    0    0    0 -0.00000000000E+00 -0.00000000000E+00 -0.45593999997E+02  0.45594000000E+02  0.51100000000E-03 0. -1.
    9900012    2    1    2    0    0 -0.11770184098E+01  0.68788516422E-01 -0.54038044109E-01  0.90007735493E+02  0.89999996801E+02 0.  0.
         12    1    1    2    0    0  0.11770184098E+01 -0.68788516422E-01  0.54038044109E-01  0.11802645073E+01  0.00000000000E+00 0. -1.
         11    1    3    3    0    0  0.18324163653E+02 -0.62216917443E+01 -0.33175485934E+02  0.38406995313E+02  0.51100000000E-03 0. -1.
        -11    1    3    3    0    0 -0.46602264710E+00 -0.11579676669E+02  0.34802172929E+01  0.12100330637E+02  0.51100000000E-03 0.  1.
        -12    1    3    3    0    0 -0.19035159416E+02  0.17870156929E+02  0.29641230597E+02  0.39500409542E+02  0.00000000000E+00 0.  1.
</event>
<event>
 7    1  0.2285268E-015  0.9000775E+02  0.7816164E-02  0.1186339E+00
        -11   -1    0    0    0    0  0.00000000000E+00  0.00000000000E+00  0.45593999997E+02  0.45594000000E+02  0.51100000000E-03 0. -1.
         11   -1    0    0    0    0 -0.00000000000E+00 -0.00000000000E+00 -0.45593999997E+02  0.45594000000E+02  0.51100000000E-03 0.  1.
    9900012    2    1    2    0    0 -0.86203527951E+00 -0.15167990360E-01 -0.80600796395E+00  0.90007752683E+02  0.90000014219E+02 0.  0.
         12    1    1    2    0    0  0.86203527951E+00  0.15167990360E-01  0.80600796395E+00  0.11802473169E+01  0.00000000000E+00 0. -1.
         11    1    3    3    0    0 -0.27813556537E+02  0.11079052896E+02  0.24654564599E+02  0.38783848392E+02  0.51100000000E-03 0. -1.
        -11    1    3    3    0    0  0.28603866766E+00 -0.52436030645E+01  0.70375686818E+01  0.87809204774E+01  0.51100000000E-03 0.  1.
        -12    1    3    3    0    0  0.26665482590E+02 -0.58506178215E+01 -0.32498141245E+02  0.42442983813E+02  0.00000000000E+00 0.  1.
</event>
<event>
 7    1  0.2285268E-015  0.9000766E+02  0.7816164E-02  0.1186339E+00
        -11   -1    0    0    0    0  0.00000000000E+00  0.00000000000E+00  0.45593999997E+02  0.45594000000E+02  0.51100000000E-03 0. -1.
         11   -1    0    0    0    0 -0.00000000000E+00 -0.00000000000E+00 -0.45593999997E+02  0.45594000000E+02  0.51100000000E-03 0.  1.
    9900012    2    1    2    0    0  0.11541113829E+01 -0.97818434257E-01 -0.22730006072E+00  0.90007658165E+02  0.89999918453E+02 0.  0.
         12    1    1    2    0    0 -0.11541113829E+01  0.97818434257E-01  0.22730006072E+00  0.11803418352E+01  0.00000000000E+00 0. -1.
         11    1    3    3    0    0  0.14034193409E+02 -0.31858726374E+02 -0.48456702627E+01  0.35148507100E+02  0.51100000000E-03 0. -1.
        -11    1    3    3    0    0  0.12048825684E+02 -0.23823421662E+01 -0.38868023270E+00  0.12288239383E+02  0.51100000000E-03 0.  1.
        -12    1    3    3    0    0 -0.24928907709E+02  0.34143250106E+02  0.50070504347E+01  0.42570911682E+02  0.00000000000E+00 0.  1.
</event>
<event>
 7    1  0.2285268E-015  0.9000773E+02  0.7816164E-02  0.1186339E+00
        -11   -1    0    0    0    0  0.00000000000E+00  0.00000000000E+00  0.45593999997E+02  0.45594000000E+02  0.51100000000E-03 0.  1.
         11   -1    0    0    0    0 -0.00000000000E+00 -0.00000000000E+00 -0.45593999997E+02  0.45594000000E+02  0.51100000000E-03 0. -1.
    9900012    2    1    2    0    0  0.53163330700E+00  0.40925957278E+00  0.97103407866E+00  0.90007731152E+02  0.89999992403E+02 0.  0.
         12    1    1    2    0    0 -0.53163330700E+00 -0.40925957278E+00 -0.97103407866E+00  0.11802688477E+01  0.00000000000E+00 0. -1.
         11    1    3    3    0    0  0.94007593363E+01  0.10385032487E+00 -0.12288082253E+01  0.94812990094E+01  0.51100000000E-03 0. -1.
        -11    1    3    3    0    0 -0.25326048440E+02 -0.16525549493E+01 -0.32993656477E+02  0.41625965880E+02  0.51100000000E-03 0.  1.
         12    1    3    3    0    0  0.16456922411E+02  0.19579641972E+01  0.35193498781E+02  0.38900466263E+02  0.00000000000E+00 0. -1.
</event>
<event>
 7    1  0.2285268E-015  0.9000785E+02  0.7816164E-02  0.1186339E+00
        -11   -1    0    0    0    0  0.00000000000E+00  0.00000000000E+00  0.45593999997E+02  0.45594000000E+02  0.51100000000E-03 0. -1.
         11   -1    0    0    0    0 -0.00000000000E+00 -0.00000000000E+00 -0.45593999997E+02  0.45594000000E+02  0.51100000000E-03 0.  1.
    9900012    2    1    2    0    0  0.59103566379E+00 -0.59030887789E+00 -0.83365043758E+00  0.90007847137E+02  0.90000109919E+02 0.  0.
         12    1    1    2    0    0 -0.59103566379E+00  0.59030887789E+00  0.83365043758E+00  0.11801528627E+01  0.00000000000E+00 0. -1.
         11    1    3    3    0    0  0.20293171439E+02 -0.79988107166E+01 -0.47743385180E+01  0.22329086154E+02  0.51100000000E-03 0. -1.
        -11    1    3    3    0    0  0.17101415858E+02 -0.13934056393E+02 -0.80415877162E+01  0.23479426849E+02  0.51100000000E-03 0.  1.
         12    1    3    3    0    0 -0.36803551633E+02  0.21342558231E+02  0.11982275797E+02  0.44199334134E+02  0.00000000000E+00 0. -1.
</event>
<event>
 7    1  0.2285268E-015  0.9000785E+02  0.7816164E-02  0.1186339E+00
        -11   -1    0    0    0    0  0.00000000000E+00  0.00000000000E+00  0.45593999997E+02  0.45594000000E+02  0.51100000000E-03 0.  1.
         11   -1    0    0    0    0 -0.00000000000E+00 -0.00000000000E+00 -0.45593999997E+02  0.45594000000E+02  0.51100000000E-03 0. -1.
    9900012    2    1    2    0    0  0.83259255250E+00 -0.78190990131E+00 -0.29690312407E+00  0.90007853858E+02  0.90000116728E+02 0.  0.
         12    1    1    2    0    0 -0.83259255250E+00  0.78190990131E+00  0.29690312407E+00  0.11801461424E+01  0.00000000000E+00 0. -1.
         11    1    3    3    0    0  0.77864902023E+01 -0.73594347028E+00  0.40866111734E+01  0.88244792258E+01  0.51100000000E-03 0. -1.
        -11    1    3    3    0    0  0.30005184781E+02 -0.45367716353E+01  0.20302921438E+02  0.36511669775E+02  0.51100000000E-03 0.  1.
         12    1    3    3    0    0 -0.36959082430E+02  0.44908052042E+01 -0.24686435736E+02  0.44671704857E+02  0.00000000000E+00 0. -1.
</event>
<event>
 7    1  0.2285268E-015  0.9000792E+02  0.7816164E-02  0.1186339E+00
        -11   -1    0    0    0    0  0.00000000000E+00  0.00000000000E+00  0.45593999997E+02  0.45594000000E+02  0.51100000000E-03 0.  1.
         11   -1    0    0    0    0 -0.00000000000E+00 -0.00000000000E+00 -0.45593999997E+02  0.45594000000E+02  0.51100000000E-03 0. -1.
    9900012    2    1    2    0    0  0.74584236138E+00 -0.91319170348E+00 -0.48939601163E-01  0.90007917376E+02  0.90000181085E+02 0.  0.
         12    1    1    2    0    0 -0.74584236138E+00  0.91319170348E+00  0.48939601163E-01  0.11800826242E+01  0.00000000000E+00 0. -1.
         11    1    3    3    0    0  0.62306588567E+01  0.33126754500E+02 -0.20522922761E+02  0.39463823084E+02  0.51100000000E-03 0. -1.
        -11    1    3    3    0    0 -0.68313202758E+01 -0.18857365703E+01 -0.56738185823E+01  0.90782793904E+01  0.51100000000E-03 0.  1.
        -12    1    3    3    0    0  0.13465037805E+01 -0.32154209633E+02  0.26147801742E+02  0.41465814902E+02  0.00000000000E+00 0.  1.
</event>
<event>
 7    1  0.2285268E-015  0.9000814E+02  0.7816164E-02  0.1186338E+00
        -11   -1    0    0    0    0  0.00000000000E+00  0.00000000000E+00  0.45593999997E+02  0.45594000000E+02  0.51100000000E-03 0. -1.
         11   -1    0    0    0    0 -0.00000000000E+00 -0.00000000000E+00 -0.45593999997E+02  0.45594000000E+02  0.51100000000E-03 0.  1.
    9900012    2    1    2    0    0 -0.46278651576E+00 -0.10444914547E+01  0.29485823260E+00  0.90008137662E+02  0.90000404279E+02 0.  0.
         12    1    1    2    0    0  0.46278651576E+00  0.10444914547E+01 -0.29485823260E+00  0.11798623375E+01  0.00000000000E+00 0. -1.
         11    1    3    3    0    0  0.23013378260E+02 -0.12038830487E+02 -0.13339903205E+02  0.29197637510E+02  0.51100000000E-03 0. -1.
        -11    1    3    3    0    0  0.94327418736E+01 -0.41980785362E+01 -0.12434972254E+02  0.16162580792E+02  0.51100000000E-03 0.  1.
         12    1    3    3    0    0 -0.32908906649E+02  0.15192417568E+02  0.26069733691E+02  0.44647919360E+02  0.00000000000E+00 0. -1.
</event>
<event>
 7    1  0.2285268E-015  0.9000773E+02  0.7816164E-02  0.1186339E+00
        -11   -1    0    0    0    0  0.00000000000E+00  0.00000000000E+00  0.45593999997E+02  0.45594000000E+02  0.51100000000E-03 0.  1.
         11   -1    0    0    0    0 -0.00000000000E+00 -0.00000000000E+00 -0.45593999997E+02  0.45594000000E+02  0.51100000000E-03 0. -1.
    9900012    2    1    2    0    0 -0.99502256959E+00  0.50391499732E+00  0.38605526490E+00  0.90007729308E+02  0.89999990535E+02 0.  0.
         12    1    1    2    0    0  0.99502256959E+00 -0.50391499732E+00 -0.38605526490E+00  0.11802706919E+01  0.00000000000E+00 0. -1.
         11    1    3    3    0    0 -0.85416595097E+01 -0.11603697603E+02  0.61896533692E+01  0.15681758649E+02  0.51100000000E-03 0. -1.
        -11    1    3    3    0    0 -0.17951690488E+02 -0.20280184773E+02  0.11750524175E+02  0.29523277333E+02  0.51100000000E-03 0.  1.
         12    1    3    3    0    0  0.25498327428E+02  0.32387797374E+02 -0.17554122279E+02  0.44802693327E+02  0.00000000000E+00 0. -1.
</event>
<event>
 7    1  0.2285268E-015  0.9000776E+02  0.7816164E-02  0.1186339E+00
        -11   -1    0    0    0    0  0.00000000000E+00  0.00000000000E+00  0.45593999997E+02  0.45594000000E+02  0.51100000000E-03 0.  1.
         11   -1    0    0    0    0 -0.00000000000E+00 -0.00000000000E+00 -0.45593999997E+02  0.45594000000E+02  0.51100000000E-03 0. -1.
    9900012    2    1    2    0    0 -0.11373335355E+00 -0.25271822264E+00  0.11472423312E+01  0.90007759879E+02  0.90000021510E+02 0.  0.
         12    1    1    2    0    0  0.11373335355E+00  0.25271822264E+00 -0.11472423312E+01  0.11802401206E+01  0.00000000000E+00 0. -1.
         11    1    3    3    0    0  0.16303425155E+02 -0.20617650759E+02 -0.33138322284E+02  0.42297016427E+02  0.51100000000E-03 0. -1.
        -11    1    3    3    0    0  0.47979997002E+01  0.41029396975E+01  0.83285313615E+01  0.10450806198E+02  0.51100000000E-03 0.  1.
        -12    1    3    3    0    0 -0.21215158209E+02  0.16261992838E+02  0.25957033253E+02  0.37259937255E+02  0.00000000000E+00 0.  1.
</event>
<event>
 7    1  0.2285268E-015  0.9000770E+02  0.7816164E-02  0.1186339E+00
        -11   -1    0    0    0    0  0.00000000000E+00  0.00000000000E+00  0.45593999997E+02  0.45594000000E+02  0.51100000000E-03 0. -1.
         11   -1    0    0    0    0 -0.00000000000E+00 -0.00000000000E+00 -0.45593999997E+02  0.45594000000E+02  0.51100000000E-03 0.  1.
    9900012    2    1    2    0    0 -0.67794960529E+00  0.34163737410E+00 -0.90375883716E+00  0.90007698429E+02  0.89999959248E+02 0.  0.
         12    1    1    2    0    0  0.67794960529E+00 -0.34163737410E+00  0.90375883716E+00  0.11803015710E+01  0.00000000000E+00 0. -1.
         11    1    3    3    0    0  0.27887093530E+02  0.27390628484E+02 -0.11257723935E+02  0.40677670321E+02  0.51100000000E-03 0. -1.
        -11    1    3    3    0    0 -0.84557767864E+01  0.44339488876E+01 -0.24192106761E+01  0.98494997008E+01  0.51100000000E-03 0.  1.
        -12    1    3    3    0    0 -0.20109266348E+02 -0.31482939998E+02  0.12773175774E+02  0.39480528407E+02  0.00000000000E+00 0.  1.
</event>
<event>
 7    1  0.2285268E-015  0.9000769E+02  0.7816164E-02  0.1186339E+00
        -11   -1    0    0    0    0  0.00000000000E+00  0.00000000000E+00  0.45593999997E+02  0.45594000000E+02  0.51100000000E-03 0.  1.
         11   -1    0    0    0    0 -0.00000000000E+00 -0.00000000000E+00 -0.45593999997E+02  0.45594000000E+02  0.51100000000E-03 0. -1.
    9900012    2    1    2    0    0  0.25365978646E+00  0.10475570941E+01  0.48106266091E+00  0.90007686297E+02  0.89999946957E+02 0.  0.
         12    1    1    2    0    0 -0.25365978646E+00 -0.10475570941E+01 -0.48106266091E+00  0.11803137026E+01  0.00000000000E+00 0. -1.
         11    1    3    3    0    0 -0.16931230853E+01 -0.42331483801E+01 -0.15065526677E+02  0.15740276532E+02  0.51100000000E-03 0. -1.
        -11    1    3    3    0    0 -0.22650320893E+02 -0.23421553856E+02  0.16359436758E+02  0.36458708053E+02  0.51100000000E-03 0.  1.
         12    1    3    3    0    0  0.24597103764E+02  0.28702259330E+02 -0.81284741982E+00  0.37808701713E+02  0.00000000000E+00 0. -1.
</event>
<event>
 7    1  0.2285268E-015  0.9000758E+02  0.7816164E-02  0.1186339E+00
        -11   -1    0    0    0    0  0.00000000000E+00  0.00000000000E+00  0.45593999997E+02  0.45594000000E+02  0.51100000000E-03 0.  1.
         11   -1    0    0    0    0 -0.00000000000E+00 -0.00000000000E+00 -0.45593999997E+02  0.45594000000E+02  0.51100000000E-03 0. -1.
    9900012    2    1    2    0    0  0.67922181953E+00 -0.82158629990E+00  0.50700445644E+00  0.90007576412E+02  0.89999835620E+02 0.  0.
         12    1    1    2    0    0 -0.67922181953E+00  0.82158629990E+00 -0.50700445644E+00  0.11804235880E+01  0.00000000000E+00 0. -1.
         11    1    3    3    0    0  0.21671764281E+02 -0.15795540283E+02 -0.35002341291E+02  0.44094538845E+02  0.51100000000E-03 0. -1.
        -11    1    3    3    0    0 -0.15861842220E+00  0.47527982435E+01  0.11868697933E+02  0.12785939224E+02  0.51100000000E-03 0.  1.
        -12    1    3    3    0    0 -0.20833924040E+02  0.10221155739E+02  0.23640647814E+02  0.33127098342E+02  0.00000000000E+00 0.  1.
</event>
<event>
 7    1  0.2285268E-015  0.9000771E+02  0.7816164E-02  0.1186339E+00
        -11   -1    0    0    0    0  0.00000000000E+00  0.00000000000E+00  0.45593999997E+02  0.45594000000E+02  0.51100000000E-03 0.  1.
         11   -1    0    0    0    0 -0.00000000000E+00 -0.00000000000E+00 -0.45593999997E+02  0.45594000000E+02  0.51100000000E-03 0. -1.
    9900012    2    1    2    0    0 -0.18790171472E+00 -0.30274822358E+00  0.11252161210E+01  0.90007714077E+02  0.89999975103E+02 0.  0.
         12    1    1    2    0    0  0.18790171472E+00  0.30274822358E+00 -0.11252161210E+01  0.11802859231E+01  0.00000000000E+00 0. -1.
         11    1    3    3    0    0 -0.26105434519E+01 -0.87248963905E+01  0.43398716547E+01  0.10088272418E+02  0.51100000000E-03 0. -1.
        -11    1    3    3    0    0 -0.29726988879E+02  0.28612326390E+02  0.33377338250E+01  0.41394438716E+02  0.51100000000E-03 0.  1.
         12    1    3    3    0    0  0.32149630617E+02 -0.20190178223E+02 -0.65523893588E+01  0.38525002943E+02  0.00000000000E+00 0. -1.
</event>
<event>
 7    1  0.2285268E-015  0.9000762E+02  0.7816164E-02  0.1186339E+00
        -11   -1    0    0    0    0  0.00000000000E+00  0.00000000000E+00  0.45593999997E+02  0.45594000000E+02  0.51100000000E-03 0. -1.
         11   -1    0    0    0    0 -0.00000000000E+00 -0.00000000000E+00 -0.45593999997E+02  0.45594000000E+02  0.51100000000E-03 0.  1.
    9900012    2    1    2    0    0  0.59424418698E+00 -0.68984566917E-01 -0.10175535273E+01  0.90007618619E+02  0.89999878384E+02 0.  0.
         12    1    1    2    0    0 -0.59424418698E+00  0.68984566917E-01  0.10175535273E+01  0.11803813813E+01  0.00000000000E+00 0. -1.
         11    1    3    3    0    0  0.69472928326E+01 -0.81806584554E+00 -0.62043477626E+01  0.93502962974E+01  0.51100000000E-03 0. -1.
        -11    1    3    3    0    0  0.28040058235E+01 -0.31664405025E+02 -0.20909416139E+02  0.38048661971E+02  0.51100000000E-03 0.  1.
         12    1    3    3    0    0 -0.91570544691E+01  0.32413486304E+02  0.26096210374E+02  0.42608660350E+02  0.00000000000E+00 0. -1.
</event>
<event>
 7    1  0.2285268E-015  0.9000776E+02  0.7816164E-02  0.1186339E+00
        -11   -1    0    0    0    0  0.00000000000E+00  0.00000000000E+00  0.45593999997E+02  0.45594000000E+02  0.51100000000E-03 0. -1.
         11   -1    0    0    0    0 -0.00000000000E+00 -0.00000000000E+00 -0.45593999997E+02  0.45594000000E+02  0.51100000000E-03 0.  1.
    9900012    2    1    2    0    0 -0.80767654279E+00  0.80600883003E+00  0.30163643230E+00  0.90007755886E+02  0.90000017463E+02 0.  0.
         12    1    1    2    0    0  0.80767654279E+00 -0.80600883003E+00 -0.30163643230E+00  0.11802441142E+01  0.00000000000E+00 0. -1.
         11    1    3    3    0    0  0.31994791863E+02 -0.12419628540E+02  0.14370241536E+02  0.37207764264E+02  0.51100000000E-03 0. -1.
        -11    1    3    3    0    0  0.29995136620E+01  0.14414711585E+02 -0.13412465023E+01  0.14784449084E+02  0.51100000000E-03 0.  1.
        -12    1    3    3    0    0 -0.35801982068E+02 -0.11890742146E+01 -0.12727358601E+02  0.38015542538E+02  0.00000000000E+00 0.  1.
</event>
<event>
 7    1  0.2285268E-015  0.9000781E+02  0.7816164E-02  0.1186339E+00
        -11   -1    0    0    0    0  0.00000000000E+00  0.00000000000E+00  0.45593999997E+02  0.45594000000E+02  0.51100000000E-03 0.  1.
         11   -1    0    0    0    0 -0.00000000000E+00 -0.00000000000E+00 -0.45593999997E+02  0.45594000000E+02  0.51100000000E-03 0. -1.
    9900012    2    1    2    0    0  0.20770251636E+00 -0.69799737896E+00  0.92871051348E+00  0.90007811924E+02  0.90000074242E+02 0.  0.
         12    1    1    2    0    0 -0.20770251636E+00  0.69799737896E+00 -0.92871051348E+00  0.11801880758E+01  0.00000000000E+00 0. -1.
         11    1    3    3    0    0 -0.29012385395E+02  0.13681265027E+02  0.12478479620E+02  0.34418134361E+02  0.51100000000E-03 0. -1.
        -11    1    3    3    0    0 -0.59937683962E+01  0.55433248533E+01  0.73030229434E+01  0.10953896767E+02  0.51100000000E-03 0.  1.
        -12    1    3    3    0    0  0.35213856307E+02 -0.19922587259E+02 -0.18852792050E+02  0.44635780795E+02  0.00000000000E+00 0.  1.
</event>
<event>
 7    1  0.2285268E-015  0.9000765E+02  0.7816164E-02  0.1186339E+00
        -11   -1    0    0    0    0  0.00000000000E+00  0.00000000000E+00  0.45593999997E+02  0.45594000000E+02  0.51100000000E-03 0.  1.
         11   -1    0    0    0    0 -0.00000000000E+00 -0.00000000000E+00 -0.45593999997E+02  0.45594000000E+02  0.51100000000E-03 0. -1.
    9900012    2    1    2    0    0  0.12884860458E-01  0.10358620628E+01  0.56572791783E+00  0.90007650768E+02  0.89999910958E+02 0.  0.
         12    1    1    2    0    0 -0.12884860458E-01 -0.10358620628E+01 -0.56572791783E+00  0.11803492321E+01  0.00000000000E+00 0. -1.
         11    1    3    3    0    0 -0.26298455548E+02  0.24510474641E+02 -0.11416082021E+02  0.37718683174E+02  0.51100000000E-03 0. -1.
        -11    1    3    3    0    0 -0.13103149531E+01  0.18115998012E-02 -0.98733662650E+01  0.99599342479E+01  0.51100000000E-03 0.  1.
        -12    1    3    3    0    0  0.27621655362E+02 -0.23476424178E+02  0.21855176204E+02  0.42329033346E+02  0.00000000000E+00 0.  1.
</event>
<event>
 7    1  0.2285268E-015  0.9000783E+02  0.7816164E-02  0.1186339E+00
        -11   -1    0    0    0    0  0.00000000000E+00  0.00000000000E+00  0.45593999997E+02  0.45594000000E+02  0.51100000000E-03 0.  1.
         11   -1    0    0    0    0 -0.00000000000E+00 -0.00000000000E+00 -0.45593999997E+02  0.45594000000E+02  0.51100000000E-03 0. -1.
    9900012    2    1    2    0    0  0.32222884130E+00 -0.95263537136E+00 -0.61761392609E+00  0.90007833682E+02  0.90000096286E+02 0.  0.
         12    1    1    2    0    0 -0.32222884130E+00  0.95263537136E+00  0.61761392609E+00  0.11801663182E+01  0.00000000000E+00 0. -1.
         11    1    3    3    0    0  0.38513358375E+00 -0.10265171594E+02 -0.38038861045E+01  0.10954068901E+02  0.51100000000E-03 0. -1.
        -11    1    3    3    0    0 -0.35453665191E+01 -0.99092512054E+01  0.37838358712E+02  0.39274728178E+02  0.51100000000E-03 0.  1.
         12    1    3    3    0    0  0.34824617767E+01  0.19221787428E+02 -0.34652086533E+02  0.39779036603E+02  0.00000000000E+00 0. -1.
</event>
<event>
 7    1  0.2285268E-015  0.9000779E+02  0.7816164E-02  0.1186339E+00
        -11   -1    0    0    0    0  0.00000000000E+00  0.00000000000E+00  0.45593999997E+02  0.45594000000E+02  0.51100000000E-03 0.  1.
         11   -1    0    0    0    0 -0.00000000000E+00 -0.00000000000E+00 -0.45593999997E+02  0.45594000000E+02  0.51100000000E-03 0. -1.
    9900012    2    1    2    0    0 -0.67293300717E+00  0.87451308979E+00  0.41868071986E+00  0.90007785815E+02  0.90000047788E+02 0.  0.
         12    1    1    2    0    0  0.67293300717E+00 -0.87451308979E+00 -0.41868071986E+00  0.11802141846E+01  0.00000000000E+00 0. -1.
         11    1    3    3    0    0  0.13787784167E+02  0.26024775211E+02 -0.20338767335E+02  0.35791861840E+02  0.51100000000E-03 0. -1.
        -11    1    3    3    0    0  0.13167883803E+02 -0.77725391268E+00  0.44003595507E+01  0.13905410887E+02  0.51100000000E-03 0.  1.
        -12    1    3    3    0    0 -0.27628600977E+02 -0.24373008209E+02  0.16357088504E+02  0.40310513088E+02  0.00000000000E+00 0.  1.
</event>
<event>
 7    1  0.2285268E-015  0.9000758E+02  0.7816164E-02  0.1186339E+00
        -11   -1    0    0    0    0  0.00000000000E+00  0.00000000000E+00  0.45593999997E+02  0.45594000000E+02  0.51100000000E-03 0. -1.
         11   -1    0    0    0    0 -0.00000000000E+00 -0.00000000000E+00 -0.45593999997E+02  0.45594000000E+02  0.51100000000E-03 0.  1.
    9900012    2    1    2    0    0  0.43053722313E+00  0.59478888967E+00 -0.92426002804E+00  0.90007579430E+02  0.89999838678E+02 0.  0.
         12    1    1    2    0    0 -0.43053722313E+00 -0.59478888967E+00  0.92426002804E+00  0.11804205705E+01  0.00000000000E+00 0. -1.
         11    1    3    3    0    0 -0.34571953402E+02  0.47248442845E+01  0.23097472998E+02  0.41845398489E+02  0.51100000000E-03 0. -1.
        -11    1    3    3    0    0  0.21293231424E+01  0.64605924296E+01 -0.66072908588E+01  0.94831199687E+01  0.51100000000E-03 0.  1.
        -12    1    3    3    0    0  0.32873167483E+02 -0.10590647824E+02 -0.17414442167E+02  0.38679060972E+02  0.00000000000E+00 0.  1.
</event>
<event>
 7    1  0.2285268E-015  0.9000775E+02  0.7816164E-02  0.1186339E+00
        -11   -1    0    0    0    0  0.00000000000E+00  0.00000000000E+00  0.45593999997E+02  0.45594000000E+02  0.51100000000E-03 0.  1.
         11   -1    0    0    0    0 -0.00000000000E+00 -0.00000000000E+00 -0.45593999997E+02  0.45594000000E+02  0.51100000000E-03 0. -1.
    9900012    2    1    2    0    0  0.31209740885E+00 -0.10020771547E+00  0.11338218268E+01  0.90007746504E+02  0.90000007958E+02 0.  0.
         12    1    1    2    0    0 -0.31209740885E+00  0.10020771547E+00 -0.11338218268E+01  0.11802534956E+01  0.00000000000E+00 0. -1.
         11    1    3    3    0    0 -0.38233358067E+02  0.19933221970E+01 -0.16474688901E+02  0.41679471891E+02  0.51100000000E-03 0. -1.
        -11    1    3    3    0    0  0.72845865173E+01 -0.11040135057E+01 -0.57053789603E+01  0.93185511690E+01  0.51100000000E-03 0.  1.
        -12    1    3    3    0    0  0.31260868959E+02 -0.98951640676E+00  0.23313889688E+02  0.39009723444E+02  0.00000000000E+00 0.  1.
</event>
<event>
 7    1  0.2285268E-015  0.9000779E+02  0.7816164E-02  0.1186339E+00
        -11   -1    0    0    0    0  0.00000000000E+00  0.00000000000E+00  0.45593999997E+02  0.45594000000E+02  0.51100000000E-03 0.  1.
         11   -1    0    0    0    0 -0.00000000000E+00 -0.00000000000E+00 -0.45593999997E+02  0.45594000000E+02  0.51100000000E-03 0. -1.
    9900012    2    1    2    0    0 -0.21792190018E+00  0.11457482831E+01 -0.18071253707E+00  0.90007794042E+02  0.90000056123E+02 0.  0.
         12    1    1    2    0    0  0.21792190018E+00 -0.11457482831E+01  0.18071253707E+00  0.11802059582E+01  0.00000000000E+00 0. -1.
         11    1    3    3    0    0  0.12590229122E+02 -0.37084722628E+02 -0.15499248101E+02  0.42119083724E+02  0.51100000000E-03 0. -1.
        -11    1    3    3    0    0 -0.76032644998E+01  0.26567294416E+01  0.76901933206E+01  0.11135839257E+02  0.51100000000E-03 0.  1.
        -12    1    3    3    0    0 -0.52048865223E+01  0.35573741470E+02  0.76283422437E+01  0.36752871061E+02  0.00000000000E+00 0.  1.
</event>
<event>
 7    1  0.2285268E-015  0.9000773E+02  0.7816164E-02  0.1186339E+00
        -11   -1    0    0    0    0  0.00000000000E+00  0.00000000000E+00  0.45593999997E+02  0.45594000000E+02  0.51100000000E-03 0.  1.
         11   -1    0    0    0    0 -0.00000000000E+00 -0.00000000000E+00 -0.45593999997E+02  0.45594000000E+02  0.51100000000E-03 0. -1.
    9900012    2    1    2    0    0 -0.11699056864E+01  0.13406713157E+00 -0.79904706961E-01  0.90007729661E+02  0.89999990893E+02 0.  0.
         12    1    1    2    0    0  0.11699056864E+01 -0.13406713157E+00  0.79904706961E-01  0.11802703390E+01  0.00000000000E+00 0. -1.
         11    1    3    3    0    0  0.20601525042E+02 -0.29390715799E+02 -0.11686616923E+02  0.37746708792E+02  0.51100000000E-03 0. -1.
        -11    1    3    3    0    0  0.57032581399E+01 -0.13137428445E+01  0.91808070003E+01  0.10887621003E+02  0.51100000000E-03 0.  1.
        -12    1    3    3    0    0 -0.27474688868E+02  0.30838525775E+02  0.24259052157E+01  0.41373399866E+02  0.00000000000E+00 0.  1.
</event>
<event>
 7    1  0.2285268E-015  0.9000788E+02  0.7816164E-02  0.1186339E+00
        -11   -1    0    0    0    0  0.00000000000E+00  0.00000000000E+00  0.45593999997E+02  0.45594000000E+02  0.51100000000E-03 0.  1.
         11   -1    0    0    0    0 -0.00000000000E+00 -0.00000000000E+00 -0.45593999997E+02  0.45594000000E+02  0.51100000000E-03 0. -1.
    9900012    2    1    2    0    0  0.68522311232E-02 -0.80681789527E+00  0.86120698488E+00  0.90007881557E+02  0.90000144793E+02 0.  0.
         12    1    1    2    0    0 -0.68522311232E-02  0.80681789527E+00 -0.86120698488E+00  0.11801184432E+01  0.00000000000E+00 0. -1.
         11    1    3    3    0    0 -0.23563145925E+02  0.31117962787E+02 -0.12482210367E+02  0.40979934478E+02  0.51100000000E-03 0. -1.
        -11    1    3    3    0    0 -0.29154101426E+01 -0.49803234060E+01 -0.44290644109E+01  0.72746030370E+01  0.51100000000E-03 0.  1.
        -12    1    3    3    0    0  0.26485408298E+02 -0.26944457277E+02  0.17772481763E+02  0.41753344042E+02  0.00000000000E+00 0.  1.
</event>
<event>
 7    1  0.2285268E-015  0.9000770E+02  0.7816164E-02  0.1186339E+00
        -11   -1    0    0    0    0  0.00000000000E+00  0.00000000000E+00  0.45593999997E+02  0.45594000000E+02  0.51100000000E-03 0. -1.
         11   -1    0    0    0    0 -0.00000000000E+00 -0.00000000000E+00 -0.45593999997E+02  0.45594000000E+02  0.51100000000E-03 0.  1.
    9900012    2    1    2    0    0  0.67630461617E+00  0.71326806638E+00 -0.65343133530E+00  0.90007698438E+02  0.89999959257E+02 0.  0.
         12    1    1    2    0    0 -0.67630461617E+00 -0.71326806638E+00  0.65343133530E+00  0.11803015625E+01  0.00000000000E+00 0. -1.
         11    1    3    3    0    0  0.30403680807E+02 -0.23392440838E+02 -0.14183306096E+02  0.40899343113E+02  0.51100000000E-03 0. -1.
        -11    1    3    3    0    0 -0.28280316414E+01  0.41346562063E+01 -0.78884241336E+01  0.93445374675E+01  0.51100000000E-03 0.  1.
        -12    1    3    3    0    0 -0.26899344550E+02  0.19971052698E+02  0.21418298894E+02  0.39763817857E+02  0.00000000000E+00 0.  1.
</event>
<event>
 7    1  0.2285268E-015  0.9000773E+02  0.7816164E-02  0.1186339E+00
        -11   -1    0    0    0    0  0.00000000000E+00  0.00000000000E+00  0.45593999997E+02  0.45594000000E+02  0.51100000000E-03 0.  1.
         11   -1    0    0    0    0 -0.00000000000E+00 -0.00000000000E+00 -0.45593999997E+02  0.45594000000E+02  0.51100000000E-03 0. -1.
    9900012    2    1    2    0    0  0.10701743004E+01  0.18249996790E+00 -0.46308763924E+00  0.90007733321E+02  0.89999994601E+02 0.  0.
         12    1    1    2    0    0 -0.10701743004E+01 -0.18249996790E+00  0.46308763924E+00  0.11802666788E+01  0.00000000000E+00 0. -1.
         11    1    3    3    0    0 -0.63879479657E-01  0.89933326927E+01 -0.14677964506E+01  0.91125485015E+01  0.51100000000E-03 0. -1.
        -11    1    3    3    0    0  0.10083696132E+02  0.10938753085E+02  0.36435724383E+02  0.39356057454E+02  0.51100000000E-03 0.  1.
         12    1    3    3    0    0 -0.89496423515E+01 -0.19749585810E+02 -0.35431015572E+02  0.41539127366E+02  0.00000000000E+00 0. -1.
</event>
<event>
 7    1  0.2418443E-015  0.9000775E+02  0.7816164E-02  0.1186339E+00
        -11   -1    0    0    0    0  0.00000000000E+00  0.00000000000E+00  0.45593999997E+02  0.45594000000E+02  0.51100000000E-03 0.  1.
         11   -1    0    0    0    0 -0.00000000000E+00 -0.00000000000E+00 -0.45593999997E+02  0.45594000000E+02  0.51100000000E-03 0. -1.
    9900012    2    1    2    0    0 -0.10660709800E+01  0.50029775695E+00 -0.78666919040E-01  0.90007748474E+02  0.90000009954E+02 0.  0.
         12    1    1    2    0    0  0.10660709800E+01 -0.50029775695E+00  0.78666919040E-01  0.11802515258E+01  0.00000000000E+00 0. -1.
         11    1    3    3    0    0  0.78763310806E+01  0.39732154061E+01  0.23833307898E+01  0.91380138909E+01  0.51100000000E-03 0. -1.
        -11    1    3    3    0    0 -0.18694803108E+02  0.10043945405E+02  0.34397188610E+02  0.40417113789E+02  0.51100000000E-03 0.  1.
         12    1    3    3    0    0  0.97524010472E+01 -0.13516863054E+02 -0.36859186319E+02  0.40452620794E+02  0.00000000000E+00 0. -1.
</event>
<event>
 7    1  0.2285268E-015  0.9000749E+02  0.7816164E-02  0.1186340E+00
        -11   -1    0    0    0    0  0.00000000000E+00  0.00000000000E+00  0.45593999997E+02  0.45594000000E+02  0.51100000000E-03 0. -1.
         11   -1    0    0    0    0 -0.00000000000E+00 -0.00000000000E+00 -0.45593999997E+02  0.45594000000E+02  0.51100000000E-03 0.  1.
    9900012    2    1    2    0    0 -0.49831722524E+00  0.24769948362E-01 -0.10698929307E+01  0.90007489733E+02  0.89999747797E+02 0.  0.
         12    1    1    2    0    0  0.49831722524E+00 -0.24769948362E-01  0.10698929307E+01  0.11805102670E+01  0.00000000000E+00 0. -1.
         11    1    3    3    0    0  0.17126655448E+01 -0.69320737884E+01 -0.59593771470E+01  0.93005938799E+01  0.51100000000E-03 0. -1.
        -11    1    3    3    0    0 -0.43990272865E+01 -0.34445840150E+02 -0.10816611188E+02  0.36371230699E+02  0.51100000000E-03 0.  1.
         12    1    3    3    0    0  0.21880445164E+01  0.41402683887E+02  0.15706095404E+02  0.44335665154E+02  0.00000000000E+00 0. -1.
</event>
<event>
 7    1  0.2285268E-015  0.9000772E+02  0.7816164E-02  0.1186339E+00
        -11   -1    0    0    0    0  0.00000000000E+00  0.00000000000E+00  0.45593999997E+02  0.45594000000E+02  0.51100000000E-03 0. -1.
         11   -1    0    0    0    0 -0.00000000000E+00 -0.00000000000E+00 -0.45593999997E+02  0.45594000000E+02  0.51100000000E-03 0.  1.
    9900012    2    1    2    0    0  0.59935120660E+00 -0.85391954892E+00 -0.55195010181E+00  0.90007724871E+02  0.89999986039E+02 0.  0.
         12    1    1    2    0    0 -0.59935120660E+00  0.85391954892E+00  0.55195010181E+00  0.11802751288E+01  0.00000000000E+00 0. -1.
         11    1    3    3    0    0 -0.27966253875E+01 -0.10729756612E+02 -0.15402038606E+00  0.11089297229E+02  0.51100000000E-03 0. -1.
        -11    1    3    3    0    0  0.23263952355E+02 -0.27464351757E+02 -0.51333073427E+01  0.36357295570E+02  0.51100000000E-03 0.  1.
         12    1    3    3    0    0 -0.19867975761E+02  0.37340188820E+02  0.47353776269E+01  0.42561132072E+02  0.00000000000E+00 0. -1.
</event>
<event>
 7    1  0.2285268E-015  0.9000772E+02  0.7816164E-02  0.1186339E+00
        -11   -1    0    0    0    0  0.00000000000E+00  0.00000000000E+00  0.45593999997E+02  0.45594000000E+02  0.51100000000E-03 0. -1.
         11   -1    0    0    0    0 -0.00000000000E+00 -0.00000000000E+00 -0.45593999997E+02  0.45594000000E+02  0.51100000000E-03 0.  1.
    9900012    2    1    2    0    0  0.44702329080E+00  0.68325222909E+00 -0.85228759566E+00  0.90007721399E+02  0.89999982521E+02 0.  0.
         12    1    1    2    0    0 -0.44702329080E+00 -0.68325222909E+00  0.85228759566E+00  0.11802786013E+01  0.00000000000E+00 0. -1.
         11    1    3    3    0    0 -0.95406810993E+01 -0.66703591535E+01 -0.10351390355E+01  0.11687163906E+02  0.51100000000E-03 0. -1.
        -11    1    3    3    0    0  0.22916380067E+02 -0.18187676274E+02 -0.26286942360E+02  0.39331353683E+02  0.51100000000E-03 0.  1.
         12    1    3    3    0    0 -0.12928675677E+02  0.25541287657E+02  0.26469793800E+02  0.38989203810E+02  0.00000000000E+00 0. -1.
</event>
<event>
 7    1  0.2285268E-015  0.9000753E+02  0.7816164E-02  0.1186339E+00
        -11   -1    0    0    0    0  0.00000000000E+00  0.00000000000E+00  0.45593999997E+02  0.45594000000E+02  0.51100000000E-03 0. -1.
         11   -1    0    0    0    0 -0.00000000000E+00 -0.00000000000E+00 -0.45593999997E+02  0.45594000000E+02  0.51100000000E-03 0.  1.
    9900012    2    1    2    0    0 -0.50986929871E+00 -0.99849281460E+00 -0.36954316149E+00  0.90007526895E+02  0.89999785450E+02 0.  0.
         12    1    1    2    0    0  0.50986929871E+00  0.99849281460E+00  0.36954316149E+00  0.11804731046E+01  0.00000000000E+00 0. -1.
         11    1    3    3    0    0 -0.65219707136E+01 -0.52753351625E+00  0.36677735678E+02  0.37256820696E+02  0.51100000000E-03 0. -1.
        -11    1    3    3    0    0  0.59906241390E+01 -0.23595111440E+01  0.65078687758E+01  0.91546287023E+01  0.51100000000E-03 0.  1.
        -12    1    3    3    0    0  0.21477275911E-01  0.18885518457E+01 -0.43555147616E+02  0.43596077497E+02  0.00000000000E+00 0.  1.
</event>
<event>
 7    1  0.2285268E-015  0.9000766E+02  0.7816164E-02  0.1186339E+00
        -11   -1    0    0    0    0  0.00000000000E+00  0.00000000000E+00  0.45593999997E+02  0.45594000000E+02  0.51100000000E-03 0.  1.
         11   -1    0    0    0    0 -0.00000000000E+00 -0.00000000000E+00 -0.45593999997E+02  0.45594000000E+02  0.51100000000E-03 0. -1.
    9900012    2    1    2    0    0  0.30040063621E+00  0.95551625248E+00  0.62446137221E+00  0.90007659432E+02  0.89999919737E+02 0.  0.
         12    1    1    2    0    0 -0.30040063621E+00 -0.95551625248E+00 -0.62446137221E+00  0.11803405680E+01  0.00000000000E+00 0. -1.
         11    1    3    3    0    0  0.37756730233E+01 -0.29459447926E+01  0.66122530536E+01  0.81643241120E+01  0.51100000000E-03 0. -1.
        -11    1    3    3    0    0  0.37045272994E+01 -0.60316582719E+01  0.36728056433E+02  0.37403937675E+02  0.51100000000E-03 0.  1.
         12    1    3    3    0    0 -0.71797996866E+01  0.99331193170E+01 -0.42715848114E+02  0.44439397645E+02  0.00000000000E+00 0. -1.
</event>
<event>
 7    1  0.2285268E-015  0.9000771E+02  0.7816164E-02  0.1186339E+00
        -11   -1    0    0    0    0  0.00000000000E+00  0.00000000000E+00  0.45593999997E+02  0.45594000000E+02  0.51100000000E-03 0. -1.
         11   -1    0    0    0    0 -0.00000000000E+00 -0.00000000000E+00 -0.45593999997E+02  0.45594000000E+02  0.51100000000E-03 0.  1.
    9900012    2    1    2    0    0  0.25093987852E+00 -0.98897278481E+00 -0.59333252324E+00  0.90007711275E+02  0.89999972264E+02 0.  0.
         12    1    1    2    0    0 -0.25093987852E+00  0.98897278481E+00  0.59333252324E+00  0.11802887252E+01  0.00000000000E+00 0. -1.
         11    1    3    3    0    0 -0.32365415048E+01 -0.60658689525E+01 -0.21253829769E+01  0.71963337972E+01  0.51100000000E-03 0. -1.
        -11    1    3    3    0    0 -0.22479255753E+02 -0.15787528426E+01  0.33948683540E+02  0.40747055281E+02  0.51100000000E-03 0.  1.
         12    1    3    3    0    0  0.25966737136E+02  0.66556490103E+01 -0.32416633086E+02  0.42064322197E+02  0.00000000000E+00 0. -1.
</event>
<event>
 7    1  0.2285268E-015  0.9000788E+02  0.7816164E-02  0.1186339E+00
        -11   -1    0    0    0    0  0.00000000000E+00  0.00000000000E+00  0.45593999997E+02  0.45594000000E+02  0.51100000000E-03 0. -1.
         11   -1    0    0    0    0 -0.00000000000E+00 -0.00000000000E+00 -0.45593999997E+02  0.45594000000E+02  0.51100000000E-03 0.  1.
    9900012    2    1    2    0    0 -0.88659357232E+00 -0.77825992203E+00 -0.30807428579E-01  0.90007878919E+02  0.90000142120E+02 0.  0.
         12    1    1    2    0    0  0.88659357232E+00  0.77825992203E+00  0.30807428579E-01  0.11801210812E+01  0.00000000000E+00 0. -1.
         11    1    3    3    0    0  0.25146588242E+02 -0.24105725444E+02 -0.13497734847E+02  0.37358074705E+02  0.51100000000E-03 0. -1.
        -11    1    3    3    0    0  0.52550200992E+00 -0.90118628884E+01  0.30102378798E+01  0.95158476992E+01  0.51100000000E-03 0.  1.
        -12    1    3    3    0    0 -0.26558683824E+02  0.32339328410E+02  0.10456689539E+02  0.43133956515E+02  0.00000000000E+00 0.  1.
</event>
<event>
 7    1  0.2285268E-015  0.9000777E+02  0.7816164E-02  0.1186339E+00
        -11   -1    0    0    0    0  0.00000000000E+00  0.00000000000E+00  0.45593999997E+02  0.45594000000E+02  0.51100000000E-03 0. -1.
         11   -1    0    0    0    0 -0.00000000000E+00 -0.00000000000E+00 -0.45593999997E+02  0.45594000000E+02  0.51100000000E-03 0.  1.
    9900012    2    1    2    0    0  0.11080864432E+00 -0.95188500352E+00 -0.68889966887E+00  0.90007768510E+02  0.90000030255E+02 0.  0.
         12    1    1    2    0    0 -0.11080864432E+00  0.95188500352E+00  0.68889966887E+00  0.11802314897E+01  0.00000000000E+00 0. -1.
         11    1    3    3    0    0  0.63107471743E+01  0.81125917523E+01  0.43326466536E+00  0.10287244207E+02  0.51100000000E-03 0. -1.
        -11    1    3    3    0    0  0.22665718620E+02 -0.17476164053E+02 -0.27523687212E+02  0.39707738145E+02  0.51100000000E-03 0.  1.
         12    1    3    3    0    0 -0.28865657150E+02  0.84116872970E+01  0.26401522878E+02  0.40012786159E+02  0.00000000000E+00 0. -1.
</event>
<event>
 7    1  0.2285268E-015  0.9000771E+02  0.7816164E-02  0.1186339E+00
        -11   -1    0    0    0    0  0.00000000000E+00  0.00000000000E+00  0.45593999997E+02  0.45594000000E+02  0.51100000000E-03 0.  1.
         11   -1    0    0    0    0 -0.00000000000E+00 -0.00000000000E+00 -0.45593999997E+02  0.45594000000E+02  0.51100000000E-03 0. -1.
    9900012    2    1    2    0    0  0.97139174732E+00 -0.61757317472E+00  0.26091302931E+00  0.90007714373E+02  0.89999975403E+02 0.  0.
         12    1    1    2    0    0 -0.97139174732E+00  0.61757317472E+00 -0.26091302931E+00  0.11802856272E+01  0.00000000000E+00 0. -1.
         11    1    3    3    0    0 -0.74922129871E+01  0.20175972204E+01  0.88630559937E+01  0.11779546502E+02  0.51100000000E-03 0. -1.
        -11    1    3    3    0    0 -0.17245923709E+02  0.11391932386E+02  0.25793453733E+02  0.33052991752E+02  0.51100000000E-03 0.  1.
         12    1    3    3    0    0  0.25709528443E+02 -0.14027102781E+02 -0.34395596697E+02  0.45175176119E+02  0.00000000000E+00 0. -1.
</event>
<event>
 7    1  0.2285268E-015  0.9000819E+02  0.7816164E-02  0.1186338E+00
        -11   -1    0    0    0    0  0.00000000000E+00  0.00000000000E+00  0.45593999997E+02  0.45594000000E+02  0.51100000000E-03 0.  1.
         11   -1    0    0    0    0 -0.00000000000E+00 -0.00000000000E+00 -0.45593999997E+02  0.45594000000E+02  0.51100000000E-03 0. -1.
    9900012    2    1    2    0    0 -0.44843973943E+00  0.10032213502E+01  0.42943221504E+00  0.90008185055E+02  0.90000452297E+02 0.  0.
         12    1    1    2    0    0  0.44843973943E+00 -0.10032213502E+01 -0.42943221504E+00  0.11798149451E+01  0.00000000000E+00 0. -1.
         11    1    3    3    0    0 -0.51605758188E+01  0.49833231671E+01 -0.70239461642E+01  0.10039963772E+02  0.51100000000E-03 0. -1.
        -11    1    3    3    0    0  0.99120747626E+00 -0.29030282725E+02 -0.25331436024E+02  0.38541165767E+02  0.51100000000E-03 0.  1.
         12    1    3    3    0    0  0.37209286031E+01  0.25050180908E+02  0.32784814404E+02  0.41427055516E+02  0.00000000000E+00 0. -1.
</event>
<event>
 7    1  0.2285268E-015  0.9000776E+02  0.7816164E-02  0.1186339E+00
        -11   -1    0    0    0    0  0.00000000000E+00  0.00000000000E+00  0.45593999997E+02  0.45594000000E+02  0.51100000000E-03 0.  1.
         11   -1    0    0    0    0 -0.00000000000E+00 -0.00000000000E+00 -0.45593999997E+02  0.45594000000E+02  0.51100000000E-03 0. -1.
    9900012    2    1    2    0    0 -0.20615131572E+00 -0.11611242480E+01  0.47641879129E-01  0.90007755266E+02  0.90000016835E+02 0.  0.
         12    1    1    2    0    0  0.20615131572E+00  0.11611242480E+01 -0.47641879129E-01  0.11802447344E+01  0.00000000000E+00 0. -1.
         11    1    3    3    0    0 -0.24631993221E+02  0.30844988862E+01 -0.21727679530E+02  0.32990017906E+02  0.51100000000E-03 0. -1.
        -11    1    3    3    0    0 -0.73665189043E+01 -0.30945461118E+01 -0.94948357549E+01  0.12409420723E+02  0.51100000000E-03 0.  1.
        -12    1    3    3    0    0  0.31792360809E+02 -0.11510770225E+01  0.31270157164E+02  0.44608316637E+02  0.00000000000E+00 0.  1.
</event>
<event>
 7    1  0.2285268E-015  0.9000780E+02  0.7816164E-02  0.1186339E+00
        -11   -1    0    0    0    0  0.00000000000E+00  0.00000000000E+00  0.45593999997E+02  0.45594000000E+02  0.51100000000E-03 0. -1.
         11   -1    0    0    0    0 -0.00000000000E+00 -0.00000000000E+00 -0.45593999997E+02  0.45594000000E+02  0.51100000000E-03 0.  1.
    9900012    2    1    2    0    0  0.57963784940E+00 -0.49714128551E-01 -0.10268442708E+01  0.90007804810E+02  0.90000067033E+02 0.  0.
         12    1    1    2    0    0 -0.57963784940E+00  0.49714128551E-01  0.10268442708E+01  0.11801951904E+01  0.00000000000E+00 0. -1.
         11    1    3    3    0    0 -0.20253956610E+02  0.40172751512E+00  0.25632107404E+02  0.32670920918E+02  0.51100000000E-03 0. -1.
        -11    1    3    3    0    0 -0.83520450374E+01 -0.94383977901E+00  0.82872122622E+01  0.11803617122E+02  0.51100000000E-03 0.  1.
        -12    1    3    3    0    0  0.29185639497E+02  0.49239813534E+00 -0.34946163937E+02  0.45533266769E+02  0.00000000000E+00 0.  1.
</event>
<event>
 7    1  0.2285268E-015  0.9000774E+02  0.7816164E-02  0.1186339E+00
        -11   -1    0    0    0    0  0.00000000000E+00  0.00000000000E+00  0.45593999997E+02  0.45594000000E+02  0.51100000000E-03 0.  1.
         11   -1    0    0    0    0 -0.00000000000E+00 -0.00000000000E+00 -0.45593999997E+02  0.45594000000E+02  0.51100000000E-03 0. -1.
    9900012    2    1    2    0    0  0.56946322216E+00 -0.71256907394E+00  0.74898597857E+00  0.90007736028E+02  0.89999997344E+02 0.  0.
         12    1    1    2    0    0 -0.56946322216E+00  0.71256907394E+00 -0.74898597857E+00  0.11802639716E+01  0.00000000000E+00 0. -1.
         11    1    3    3    0    0 -0.23848899101E+02 -0.29839381243E+02  0.36439437487E+00  0.38200673355E+02  0.51100000000E-03 0. -1.
        -11    1    3    3    0    0  0.40069602164E+01 -0.79713473904E+01  0.29230228331E+01  0.93884062619E+01  0.51100000000E-03 0.  1.
        -12    1    3    3    0    0  0.20411402106E+02  0.37098159559E+02 -0.25384312294E+01  0.42418656411E+02  0.00000000000E+00 0.  1.
</event>
<event>
 7    1  0.2285268E-015  0.9000782E+02  0.7816164E-02  0.1186339E+00
        -11   -1    0    0    0    0  0.00000000000E+00  0.00000000000E+00  0.45593999997E+02  0.45594000000E+02  0.51100000000E-03 0. -1.
         11   -1    0    0    0    0 -0.00000000000E+00 -0.00000000000E+00 -0.45593999997E+02  0.45594000000E+02  0.51100000000E-03 0.  1.
    9900012    2    1    2    0    0  0.51128610705E+00  0.40750900585E+00 -0.98252170475E+00  0.90007819517E+02  0.90000081934E+02 0.  0.
         12    1    1    2    0    0 -0.51128610705E+00 -0.40750900585E+00  0.98252170475E+00  0.11801804834E+01  0.00000000000E+00 0. -1.
         11    1    3    3    0    0 -0.19253256595E+02  0.19338242134E+02 -0.26988763060E+02  0.38380318265E+02  0.51100000000E-03 0. -1.
        -11    1    3    3    0    0 -0.79337809708E+01 -0.41348748023E+01 -0.24218927526E+01  0.92686371646E+01  0.51100000000E-03 0.  1.
        -12    1    3    3    0    0  0.27698323673E+02 -0.14795858326E+02  0.28428134108E+02  0.42358864087E+02  0.00000000000E+00 0.  1.
</event>
<event>
 7    1  0.2285268E-015  0.9000767E+02  0.7816164E-02  0.1186339E+00
        -11   -1    0    0    0    0  0.00000000000E+00  0.00000000000E+00  0.45593999997E+02  0.45594000000E+02  0.51100000000E-03 0. -1.
         11   -1    0    0    0    0 -0.00000000000E+00 -0.00000000000E+00 -0.45593999997E+02  0.45594000000E+02  0.51100000000E-03 0.  1.
    9900012    2    1    2    0    0  0.10345824339E+01 -0.48908468605E+00 -0.28915819057E+00  0.90007670765E+02  0.89999931220E+02 0.  0.
         12    1    1    2    0    0 -0.10345824339E+01  0.48908468605E+00  0.28915819057E+00  0.11803292345E+01  0.00000000000E+00 0. -1.
         11    1    3    3    0    0  0.16276987156E+02  0.32198824057E+02  0.97039595071E-01  0.36079273808E+02  0.51100000000E-03 0. -1.
        -11    1    3    3    0    0  0.43162012554E+01  0.77645246654E+01  0.12209828191E+01  0.89670639488E+01  0.51100000000E-03 0.  1.
        -12    1    3    3    0    0 -0.19558605978E+02 -0.40452433408E+02 -0.16071806047E+01  0.44961333009E+02  0.00000000000E+00 0.  1.
</event>
<event>
 7    1  0.2285268E-015  0.9000785E+02  0.7816164E-02  0.1186339E+00
        -11   -1    0    0    0    0  0.00000000000E+00  0.00000000000E+00  0.45593999997E+02  0.45594000000E+02  0.51100000000E-03 0. -1.
         11   -1    0    0    0    0 -0.00000000000E+00 -0.00000000000E+00 -0.45593999997E+02  0.45594000000E+02  0.51100000000E-03 0.  1.
    9900012    2    1    2    0    0 -0.10083174485E+01  0.53808456538E+00 -0.29415367010E+00  0.90007845155E+02  0.90000107911E+02 0.  0.
         12    1    1    2    0    0  0.10083174485E+01 -0.53808456538E+00  0.29415367010E+00  0.11801548449E+01  0.00000000000E+00 0. -1.
         11    1    3    3    0    0 -0.59569165487E+01  0.65477881505E+01  0.41787008981E+01  0.97887652893E+01  0.51100000000E-03 0. -1.
        -11    1    3    3    0    0  0.10599199558E+02  0.22726566395E+02 -0.31571494488E+02  0.40318719174E+02  0.51100000000E-03 0.  1.
         12    1    3    3    0    0 -0.56506004576E+01 -0.28736269980E+02  0.27098639919E+02  0.39900360692E+02  0.00000000000E+00 0. -1.
</event>
<event>
 7    1  0.2285268E-015  0.9000753E+02  0.7816164E-02  0.1186339E+00
        -11   -1    0    0    0    0  0.00000000000E+00  0.00000000000E+00  0.45593999997E+02  0.45594000000E+02  0.51100000000E-03 0. -1.
         11   -1    0    0    0    0 -0.00000000000E+00 -0.00000000000E+00 -0.45593999997E+02  0.45594000000E+02  0.51100000000E-03 0.  1.
    9900012    2    1    2    0    0  0.28287568139E+00  0.10194463822E+01 -0.52365647232E+00  0.90007531585E+02  0.89999790202E+02 0.  0.
         12    1    1    2    0    0 -0.28287568139E+00 -0.10194463822E+01  0.52365647232E+00  0.11804684148E+01  0.00000000000E+00 0. -1.
         11    1    3    3    0    0  0.93717484001E+01 -0.24772850929E+02  0.23903678808E+02  0.35677859690E+02  0.51100000000E-03 0. -1.
        -11    1    3    3    0    0 -0.15900203475E+01 -0.48767456417E+01  0.77215429778E+01  0.92700074961E+01  0.51100000000E-03 0.  1.
        -12    1    3    3    0    0 -0.74988523712E+01  0.30669042953E+02 -0.32148878258E+02  0.45059664399E+02  0.00000000000E+00 0.  1.
</event>
<event>
 7    1  0.2285268E-015  0.9000809E+02  0.7816164E-02  0.1186338E+00
        -11   -1    0    0    0    0  0.00000000000E+00  0.00000000000E+00  0.45593999997E+02  0.45594000000E+02  0.51100000000E-03 0. -1.
         11   -1    0    0    0    0 -0.00000000000E+00 -0.00000000000E+00 -0.45593999997E+02  0.45594000000E+02  0.51100000000E-03 0.  1.
    9900012    2    1    2    0    0 -0.68354945019E+00 -0.78051868430E+00 -0.56191052305E+00  0.90008087841E+02  0.90000353800E+02 0.  0.
         12    1    1    2    0    0  0.68354945019E+00  0.78051868430E+00  0.56191052305E+00  0.11799121592E+01  0.00000000000E+00 0. -1.
         11    1    3    3    0    0  0.12956991832E+02 -0.12860195847E+02  0.38381532935E+02  0.42501886373E+02  0.51100000000E-03 0. -1.
        -11    1    3    3    0    0 -0.85163924140E+01  0.10256626451E+01 -0.22864759107E+01  0.88774374660E+01  0.51100000000E-03 0.  1.
        -12    1    3    3    0    0 -0.51241488679E+01  0.11054014517E+02 -0.36656967547E+02  0.38628764002E+02  0.00000000000E+00 0.  1.
</event>
<event>
 7    1  0.2285268E-015  0.9000753E+02  0.7816164E-02  0.1186339E+00
        -11   -1    0    0    0    0  0.00000000000E+00  0.00000000000E+00  0.45593999997E+02  0.45594000000E+02  0.51100000000E-03 0. -1.
         11   -1    0    0    0    0 -0.00000000000E+00 -0.00000000000E+00 -0.45593999997E+02  0.45594000000E+02  0.51100000000E-03 0.  1.
    9900012    2    1    2    0    0 -0.57228884911E+00  0.23002215850E+00 -0.10065230190E+01  0.90007528354E+02  0.89999786928E+02 0.  0.
         12    1    1    2    0    0  0.57228884911E+00 -0.23002215850E+00  0.10065230190E+01  0.11804716464E+01  0.00000000000E+00 0. -1.
         11    1    3    3    0    0  0.31961366572E+01  0.47687313815E+01  0.78348360448E+01  0.97129163813E+01  0.51100000000E-03 0. -1.
        -11    1    3    3    0    0 -0.98844423682E+01  0.36755650210E+02 -0.42395633834E+01  0.38296917908E+02  0.51100000000E-03 0.  1.
         12    1    3    3    0    0  0.61160168618E+01 -0.41294359433E+02 -0.46017956804E+01  0.41997694064E+02  0.00000000000E+00 0. -1.
</event>
<event>
 7    1  0.2285268E-015  0.9000793E+02  0.7816164E-02  0.1186339E+00
        -11   -1    0    0    0    0  0.00000000000E+00  0.00000000000E+00  0.45593999997E+02  0.45594000000E+02  0.51100000000E-03 0.  1.
         11   -1    0    0    0    0 -0.00000000000E+00 -0.00000000000E+00 -0.45593999997E+02  0.45594000000E+02  0.51100000000E-03 0. -1.
    9900012    2    1    2    0    0  0.76871011450E+00  0.36077801064E+00  0.81943994067E+00  0.90007933125E+02  0.90000197042E+02 0.  0.
         12    1    1    2    0    0 -0.76871011450E+00 -0.36077801064E+00 -0.81943994067E+00  0.11800668750E+01  0.00000000000E+00 0. -1.
         11    1    3    3    0    0 -0.70958148098E+01  0.18049826471E+01  0.45095227649E+01  0.85990898355E+01  0.51100000000E-03 0. -1.
        -11    1    3    3    0    0  0.23403811810E+02 -0.65062103232E+01  0.33155276516E+02  0.41101600226E+02  0.51100000000E-03 0.  1.
         12    1    3    3    0    0 -0.15539286885E+02  0.50620056867E+01 -0.36845359340E+02  0.40307243064E+02  0.00000000000E+00 0. -1.
</event>
<event>
 7    1  0.3101333E-015  0.9000773E+02  0.7816164E-02  0.1186339E+00
        -11   -1    0    0    0    0  0.00000000000E+00  0.00000000000E+00  0.45593999997E+02  0.45594000000E+02  0.51100000000E-03 0. -1.
         11   -1    0    0    0    0 -0.00000000000E+00 -0.00000000000E+00 -0.45593999997E+02  0.45594000000E+02  0.51100000000E-03 0.  1.
    9900012    2    1    2    0    0  0.38710046025E+00  0.10205040984E+01  0.44917128711E+00  0.90007732985E+02  0.89999994261E+02 0.  0.
         12    1    1    2    0    0 -0.38710046025E+00 -0.10205040984E+01 -0.44917128711E+00  0.11802670148E+01  0.00000000000E+00 0. -1.
         11    1    3    3    0    0 -0.28559246491E+01 -0.80338402652E+01  0.32571678429E+01  0.91273236837E+01  0.51100000000E-03 0. -1.
        -11    1    3    3    0    0  0.15969082085E+02 -0.29372975301E+01  0.35353369051E+02  0.38903727365E+02  0.51100000000E-03 0.  1.
         12    1    3    3    0    0 -0.12726056975E+02  0.11991641894E+02 -0.38161365606E+02  0.41976681936E+02  0.00000000000E+00 0. -1.
</event>
<event>
 7    1  0.2285268E-015  0.9000778E+02  0.7816164E-02  0.1186339E+00
        -11   -1    0    0    0    0  0.00000000000E+00  0.00000000000E+00  0.45593999997E+02  0.45594000000E+02  0.51100000000E-03 0.  1.
         11   -1    0    0    0    0 -0.00000000000E+00 -0.00000000000E+00 -0.45593999997E+02  0.45594000000E+02  0.51100000000E-03 0. -1.
    9900012    2    1    2    0    0  0.62609124728E+00  0.29772122332E+00  0.95513499789E+00  0.90007783477E+02  0.90000045419E+02 0.  0.
         12    1    1    2    0    0 -0.62609124728E+00 -0.29772122332E+00 -0.95513499789E+00  0.11802165229E+01  0.00000000000E+00 0. -1.
         11    1    3    3    0    0  0.43852947411E+01 -0.25594887452E+02 -0.15572732272E+02  0.30279350461E+02  0.51100000000E-03 0. -1.
        -11    1    3    3    0    0 -0.91645990421E+00 -0.12839260793E+02 -0.66639073403E+01  0.14494625824E+02  0.51100000000E-03 0.  1.
        -12    1    3    3    0    0 -0.28427435896E+01  0.38731869468E+02  0.23191774610E+02  0.45233807193E+02  0.00000000000E+00 0.  1.
</event>
<event>
 7    1  0.2285268E-015  0.9000769E+02  0.7816164E-02  0.1186339E+00
        -11   -1    0    0    0    0  0.00000000000E+00  0.00000000000E+00  0.45593999997E+02  0.45594000000E+02  0.51100000000E-03 0.  1.
         11   -1    0    0    0    0 -0.00000000000E+00 -0.00000000000E+00 -0.45593999997E+02  0.45594000000E+02  0.51100000000E-03 0. -1.
    9900012    2    1    2    0    0  0.66764538968E-01 -0.15821354216E+00  0.11677481386E+01  0.90007692945E+02  0.89999953692E+02 0.  0.
         12    1    1    2    0    0 -0.66764538968E-01  0.15821354216E+00 -0.11677481386E+01  0.11803070549E+01  0.00000000000E+00 0. -1.
         11    1    3    3    0    0 -0.26594091605E+02  0.38344552854E+01 -0.27406143084E+02  0.38380274031E+02  0.51100000000E-03 0. -1.
        -11    1    3    3    0    0 -0.67996978517E+01 -0.61082364437E+01  0.36121753973E+01  0.98282376187E+01  0.51100000000E-03 0.  1.
        -12    1    3    3    0    0  0.33460553996E+02  0.21155676162E+01  0.24961715826E+02  0.41799181296E+02  0.00000000000E+00 0.  1.
</event>
<event>
 7    1  0.2285268E-015  0.9000770E+02  0.7816164E-02  0.1186339E+00
        -11   -1    0    0    0    0  0.00000000000E+00  0.00000000000E+00  0.45593999997E+02  0.45594000000E+02  0.51100000000E-03 0. -1.
         11   -1    0    0    0    0 -0.00000000000E+00 -0.00000000000E+00 -0.45593999997E+02  0.45594000000E+02  0.51100000000E-03 0.  1.
    9900012    2    1    2    0    0 -0.89780488983E+00 -0.71458607720E+00 -0.27644435459E+00  0.90007699884E+02  0.89999960723E+02 0.  0.
         12    1    1    2    0    0  0.89780488983E+00  0.71458607720E+00  0.27644435459E+00  0.11803001157E+01  0.00000000000E+00 0. -1.
         11    1    3    3    0    0 -0.18472138908E+02 -0.12335671923E+02  0.35097834681E+02  0.41536089335E+02  0.51100000000E-03 0. -1.
        -11    1    3    3    0    0  0.39908379518E+01 -0.72755496132E+01 -0.35012050164E+01  0.90066001665E+01  0.51100000000E-03 0.  1.
        -12    1    3    3    0    0  0.13583496067E+02  0.18896635459E+02 -0.31873074019E+02  0.39465010383E+02  0.00000000000E+00 0.  1.
</event>
<event>
 7    1  0.2285268E-015  0.9000768E+02  0.7816164E-02  0.1186339E+00
        -11   -1    0    0    0    0  0.00000000000E+00  0.00000000000E+00  0.45593999997E+02  0.45594000000E+02  0.51100000000E-03 0.  1.
         11   -1    0    0    0    0 -0.00000000000E+00 -0.00000000000E+00 -0.45593999997E+02  0.45594000000E+02  0.51100000000E-03 0. -1.
    9900012    2    1    2    0    0 -0.50118676333E+00  0.99540219922E+00 -0.38876814841E+00  0.90007680389E+02  0.89999940971E+02 0.  0.
         12    1    1    2    0    0  0.50118676333E+00 -0.99540219922E+00  0.38876814841E+00  0.11803196106E+01  0.00000000000E+00 0. -1.
         11    1    3    3    0    0 -0.24896881159E+02 -0.22651341272E+02 -0.15731862521E+02  0.37154131015E+02  0.51100000000E-03 0. -1.
        -11    1    3    3    0    0 -0.48216167666E+01 -0.30652581637E+01  0.11796562420E+02  0.13107352175E+02  0.51100000000E-03 0.  1.
        -12    1    3    3    0    0  0.29217311162E+02  0.26712001635E+02  0.35465319527E+01  0.39746197199E+02  0.00000000000E+00 0.  1.
</event>
<event>
 7    1  0.2285268E-015  0.9000775E+02  0.7816164E-02  0.1186339E+00
        -11   -1    0    0    0    0  0.00000000000E+00  0.00000000000E+00  0.45593999997E+02  0.45594000000E+02  0.51100000000E-03 0.  1.
         11   -1    0    0    0    0 -0.00000000000E+00 -0.00000000000E+00 -0.45593999997E+02  0.45594000000E+02  0.51100000000E-03 0. -1.
    9900012    2    1    2    0    0  0.65824135394E+00 -0.11494522864E+00  0.97288555064E+00  0.90007745629E+02  0.90000007071E+02 0.  0.
         12    1    1    2    0    0 -0.65824135394E+00  0.11494522864E+00 -0.97288555064E+00  0.11802543710E+01  0.00000000000E+00 0. -1.
         11    1    3    3    0    0 -0.81382603219E+01  0.18386077440E+01  0.63433534456E+01  0.10480929954E+02  0.51100000000E-03 0. -1.
        -11    1    3    3    0    0 -0.15709949252E+02 -0.29070660102E+01  0.31456311793E+02  0.35281058518E+02  0.51100000000E-03 0.  1.
         12    1    3    3    0    0  0.24506450928E+02  0.95351303756E+00 -0.36826779688E+02  0.44245757157E+02  0.00000000000E+00 0. -1.
</event>
<event>
 7    1  0.3070324E-015  0.9000778E+02  0.7816164E-02  0.1186339E+00
        -11   -1    0    0    0    0  0.00000000000E+00  0.00000000000E+00  0.45593999997E+02  0.45594000000E+02  0.51100000000E-03 0. -1.
         11   -1    0    0    0    0 -0.00000000000E+00 -0.00000000000E+00 -0.45593999997E+02  0.45594000000E+02  0.51100000000E-03 0.  1.
    9900012    2    1    2    0    0 -0.10290922622E+01  0.13971607184E+00 -0.56068757883E+00  0.90007778823E+02  0.90000040704E+02 0.  0.
         12    1    1    2    0    0  0.10290922622E+01 -0.13971607184E+00  0.56068757883E+00  0.11802211767E+01  0.00000000000E+00 0. -1.
         11    1    3    3    0    0 -0.34155826112E+01  0.74945921747E+01 -0.45287853246E+01  0.93992027968E+01  0.51100000000E-03 0. -1.
        -11    1    3    3    0    0  0.31738706503E+02  0.16801189167E+02 -0.14022901270E+02  0.38552136234E+02  0.51100000000E-03 0.  1.
         12    1    3    3    0    0 -0.29352216154E+02 -0.24156065270E+02  0.17990999016E+02  0.42056439793E+02  0.00000000000E+00 0. -1.
</event>
<event>
 7    1  0.2285268E-015  0.9000782E+02  0.7816164E-02  0.1186339E+00
        -11   -1    0    0    0    0  0.00000000000E+00  0.00000000000E+00  0.45593999997E+02  0.45594000000E+02  0.51100000000E-03 0.  1.
         11   -1    0    0    0    0 -0.00000000000E+00 -0.00000000000E+00 -0.45593999997E+02  0.45594000000E+02  0.51100000000E-03 0. -1.
    9900012    2    1    2    0    0  0.11705653577E+01  0.53368449029E-01  0.14058821171E+00  0.90007815060E+02  0.90000077418E+02 0.  0.
         12    1    1    2    0    0 -0.11705653577E+01 -0.53368449029E-01 -0.14058821171E+00  0.11801849403E+01  0.00000000000E+00 0. -1.
         11    1    3    3    0    0 -0.22719288679E+02 -0.24771262716E+02 -0.20826123476E+02  0.39541231062E+02  0.51100000000E-03 0. -1.
        -11    1    3    3    0    0  0.92488819102E+01 -0.11055624133E+01 -0.53364899476E+01  0.10735092457E+02  0.51100000000E-03 0.  1.
        -12    1    3    3    0    0  0.14640972126E+02  0.25930193578E+02  0.26303201635E+02  0.39731491541E+02  0.00000000000E+00 0.  1.
</event>
<event>
 7    1  0.2285268E-015  0.9000777E+02  0.7816164E-02  0.1186339E+00
        -11   -1    0    0    0    0  0.00000000000E+00  0.00000000000E+00  0.45593999997E+02  0.45594000000E+02  0.51100000000E-03 0. -1.
         11   -1    0    0    0    0 -0.00000000000E+00 -0.00000000000E+00 -0.45593999997E+02  0.45594000000E+02  0.51100000000E-03 0.  1.
    9900012    2    1    2    0    0  0.10917841155E+01 -0.36785009756E+00  0.25617873543E+00  0.90007773838E+02  0.90000035653E+02 0.  0.
         12    1    1    2    0    0 -0.10917841155E+01  0.36785009756E+00 -0.25617873543E+00  0.11802261621E+01  0.00000000000E+00 0. -1.
         11    1    3    3    0    0 -0.74219733333E+01  0.17580283173E+01 -0.63675135407E+01  0.99358734229E+01  0.51100000000E-03 0. -1.
        -11    1    3    3    0    0 -0.78953988270E+01 -0.23152934954E+02 -0.27471073931E+02  0.36783904399E+02  0.51100000000E-03 0.  1.
         12    1    3    3    0    0  0.16409156276E+02  0.21027056539E+02  0.34094766207E+02  0.43287996016E+02  0.00000000000E+00 0. -1.
</event>
<event>
 7    1  0.2285268E-015  0.9000769E+02  0.7816164E-02  0.1186339E+00
        -11   -1    0    0    0    0  0.00000000000E+00  0.00000000000E+00  0.45593999997E+02  0.45594000000E+02  0.51100000000E-03 0.  1.
         11   -1    0    0    0    0 -0.00000000000E+00 -0.00000000000E+00 -0.45593999997E+02  0.45594000000E+02  0.51100000000E-03 0. -1.
    9900012    2    1    2    0    0 -0.20003457616E+00  0.28737224610E+00  0.11271824018E+01  0.90007687835E+02  0.89999948515E+02 0.  0.
         12    1    1    2    0    0  0.20003457616E+00 -0.28737224610E+00 -0.11271824018E+01  0.11803121649E+01  0.00000000000E+00 0. -1.
         11    1    3    3    0    0 -0.34738551162E+02  0.20738218213E+02 -0.14507537153E+02  0.42980335806E+02  0.51100000000E-03 0. -1.
        -11    1    3    3    0    0  0.56312620290E+01 -0.19054070826E+01  0.10821544651E+02  0.12346963881E+02  0.51100000000E-03 0.  1.
        -12    1    3    3    0    0  0.28907254557E+02 -0.18545438885E+02  0.48131749039E+01  0.34680388148E+02  0.00000000000E+00 0.  1.
</event>
<event>
 7    1  0.2285268E-015  0.9000896E+02  0.7816164E-02  0.1186337E+00
        -11   -1    0    0    0    0  0.00000000000E+00  0.00000000000E+00  0.45593999997E+02  0.45594000000E+02  0.51100000000E-03 0.  1.
         11   -1    0    0    0    0 -0.00000000000E+00 -0.00000000000E+00 -0.45593999997E+02  0.45594000000E+02  0.51100000000E-03 0. -1.
    9900012    2    1    2    0    0  0.51181125393E+00  0.57884212368E+00 -0.89057275969E+00  0.90008962764E+02  0.90001240264E+02 0.  0.
         12    1    1    2    0    0 -0.51181125393E+00 -0.57884212368E+00  0.89057275969E+00  0.11790372361E+01  0.00000000000E+00 0. -1.
         11    1    3    3    0    0  0.23165144102E+01  0.11111395291E+01 -0.12713821801E+02  0.12970818599E+02  0.51100000000E-03 0. -1.
        -11    1    3    3    0    0 -0.25538817326E+02  0.28690297665E+02  0.43388200764E+01  0.38654750425E+02  0.51100000000E-03 0.  1.
         12    1    3    3    0    0  0.23734114170E+02 -0.29222595070E+02  0.74844289652E+01  0.38383393740E+02  0.00000000000E+00 0. -1.
</event>
<event>
 7    1  0.2285268E-015  0.9000776E+02  0.7816164E-02  0.1186339E+00
        -11   -1    0    0    0    0  0.00000000000E+00  0.00000000000E+00  0.45593999997E+02  0.45594000000E+02  0.51100000000E-03 0.  1.
         11   -1    0    0    0    0 -0.00000000000E+00 -0.00000000000E+00 -0.45593999997E+02  0.45594000000E+02  0.51100000000E-03 0. -1.
    9900012    2    1    2    0    0  0.11089806479E+00 -0.99176582207E+00  0.63014276320E+00  0.90007755225E+02  0.90000016794E+02 0.  0.
         12    1    1    2    0    0 -0.11089806479E+00  0.99176582207E+00 -0.63014276320E+00  0.11802447749E+01  0.00000000000E+00 0. -1.
         11    1    3    3    0    0  0.38352046368E+01  0.63906178164E+00  0.75992473262E+01  0.85361440213E+01  0.51100000000E-03 0. -1.
        -11    1    3    3    0    0  0.84396431323E+01  0.21682020232E+02  0.28833468367E+02  0.37050053655E+02  0.51100000000E-03 0.  1.
         12    1    3    3    0    0 -0.12163949704E+02 -0.23312847836E+02 -0.35802572930E+02  0.44421557548E+02  0.00000000000E+00 0. -1.
</event>
<event>
 7    1  0.2689692E-015  0.9000771E+02  0.7816164E-02  0.1186339E+00
        -11   -1    0    0    0    0  0.00000000000E+00  0.00000000000E+00  0.45593999997E+02  0.45594000000E+02  0.51100000000E-03 0. -1.
         11   -1    0    0    0    0 -0.00000000000E+00 -0.00000000000E+00 -0.45593999997E+02  0.45594000000E+02  0.51100000000E-03 0.  1.
    9900012    2    1    2    0    0  0.26506126368E-01 -0.11771071154E+01 -0.82465941028E-01  0.90007710049E+02  0.89999971022E+02 0.  0.
         12    1    1    2    0    0 -0.26506126368E-01  0.11771071154E+01  0.82465941028E-01  0.11802899505E+01  0.00000000000E+00 0. -1.
         11    1    3    3    0    0 -0.78369812995E+01  0.30181527833E+01 -0.35287192450E+01  0.91093019427E+01  0.51100000000E-03 0. -1.
        -11    1    3    3    0    0 -0.23509232724E+02 -0.31408925901E+02  0.32471111545E+01  0.39366843671E+02  0.51100000000E-03 0.  1.
         12    1    3    3    0    0  0.31372720150E+02  0.27213666002E+02  0.19914214946E+00  0.41531564436E+02  0.00000000000E+00 0. -1.
</event>
<event>
 7    1  0.2285268E-015  0.9000773E+02  0.7816164E-02  0.1186339E+00
        -11   -1    0    0    0    0  0.00000000000E+00  0.00000000000E+00  0.45593999997E+02  0.45594000000E+02  0.51100000000E-03 0. -1.
         11   -1    0    0    0    0 -0.00000000000E+00 -0.00000000000E+00 -0.45593999997E+02  0.45594000000E+02  0.51100000000E-03 0.  1.
    9900012    2    1    2    0    0 -0.65380609510E-03  0.92901491017E+00 -0.72798914206E+00  0.90007729979E+02  0.89999991215E+02 0.  0.
         12    1    1    2    0    0  0.65380609510E-03 -0.92901491017E+00  0.72798914206E+00  0.11802700207E+01  0.00000000000E+00 0. -1.
         11    1    3    3    0    0  0.16296632227E+02 -0.26341825160E+02  0.26383244359E+02  0.40688420439E+02  0.51100000000E-03 0. -1.
        -11    1    3    3    0    0 -0.91183850893E+01  0.33884072213E+01  0.30397233162E+01  0.10191475273E+02  0.51100000000E-03 0.  1.
        -12    1    3    3    0    0 -0.71789009433E+01  0.23882432848E+02 -0.30150956817E+02  0.39127834268E+02  0.00000000000E+00 0.  1.
</event>
<event>
 7    1  0.2285268E-015  0.9000760E+02  0.7816164E-02  0.1186339E+00
        -11   -1    0    0    0    0  0.00000000000E+00  0.00000000000E+00  0.45593999997E+02  0.45594000000E+02  0.51100000000E-03 0.  1.
         11   -1    0    0    0    0 -0.00000000000E+00 -0.00000000000E+00 -0.45593999997E+02  0.45594000000E+02  0.51100000000E-03 0. -1.
    9900012    2    1    2    0    0  0.95167868208E+00  0.62650244886E-01  0.69550675015E+00  0.90007598794E+02  0.89999858298E+02 0.  0.
         12    1    1    2    0    0 -0.95167868208E+00 -0.62650244886E-01 -0.69550675015E+00  0.11804012058E+01  0.00000000000E+00 0. -1.
         11    1    3    3    0    0 -0.23219995847E+02 -0.12060905501E+02  0.11786548586E+02  0.28697671970E+02  0.51100000000E-03 0. -1.
        -11    1    3    3    0    0 -0.11645519318E+02 -0.98514802455E+01  0.53822024078E+01  0.16175224457E+02  0.51100000000E-03 0.  1.
        -12    1    3    3    0    0  0.35817193847E+02  0.21975035991E+02 -0.16473244244E+02  0.45134702368E+02  0.00000000000E+00 0.  1.
</event>
<event>
 7    1  0.2285268E-015  0.9000769E+02  0.7816164E-02  0.1186339E+00
        -11   -1    0    0    0    0  0.00000000000E+00  0.00000000000E+00  0.45593999997E+02  0.45594000000E+02  0.51100000000E-03 0. -1.
         11   -1    0    0    0    0 -0.00000000000E+00 -0.00000000000E+00 -0.45593999997E+02  0.45594000000E+02  0.51100000000E-03 0.  1.
    9900012    2    1    2    0    0 -0.11049052385E+01  0.41503556576E+00 -0.76929601677E-02  0.90007691020E+02  0.89999951741E+02 0.  0.
         12    1    1    2    0    0  0.11049052385E+01 -0.41503556576E+00  0.76929601677E-02  0.11803089801E+01  0.00000000000E+00 0. -1.
         11    1    3    3    0    0 -0.79028753593E+01  0.78482756434E+01  0.54237130795E+01  0.12388201377E+02  0.51100000000E-03 0. -1.
        -11    1    3    3    0    0 -0.12168422624E+02 -0.37984827759E+02  0.49466019491E+01  0.40191871319E+02  0.51100000000E-03 0.  1.
         12    1    3    3    0    0  0.18966392745E+02  0.30551587681E+02 -0.10378007989E+02  0.37427618324E+02  0.00000000000E+00 0. -1.
</event>
<event>
 7    1  0.2285268E-015  0.9000773E+02  0.7816164E-02  0.1186339E+00
        -11   -1    0    0    0    0  0.00000000000E+00  0.00000000000E+00  0.45593999997E+02  0.45594000000E+02  0.51100000000E-03 0. -1.
         11   -1    0    0    0    0 -0.00000000000E+00 -0.00000000000E+00 -0.45593999997E+02  0.45594000000E+02  0.51100000000E-03 0.  1.
    9900012    2    1    2    0    0  0.32201066957E+00 -0.59358528842E+00 -0.96798437476E+00  0.90007733879E+02  0.89999995166E+02 0.  0.
         12    1    1    2    0    0 -0.32201066957E+00  0.59358528842E+00  0.96798437476E+00  0.11802661207E+01  0.00000000000E+00 0. -1.
         11    1    3    3    0    0  0.65802264028E+01  0.34729812298E+01 -0.78158374158E+01  0.10791121022E+02  0.51100000000E-03 0. -1.
        -11    1    3    3    0    0  0.77713667357E+01 -0.39729670614E+02  0.13897681406E+01  0.40506447929E+02  0.51100000000E-03 0.  1.
         12    1    3    3    0    0 -0.14029582469E+02  0.35663104096E+02  0.54580849004E+01  0.38710164929E+02  0.00000000000E+00 0. -1.
</event>
<event>
 7    1  0.2285268E-015  0.9000775E+02  0.7816164E-02  0.1186339E+00
        -11   -1    0    0    0    0  0.00000000000E+00  0.00000000000E+00  0.45593999997E+02  0.45594000000E+02  0.51100000000E-03 0.  1.
         11   -1    0    0    0    0 -0.00000000000E+00 -0.00000000000E+00 -0.45593999997E+02  0.45594000000E+02  0.51100000000E-03 0. -1.
    9900012    2    1    2    0    0 -0.13541485121E+00  0.81916793201E+00  0.83881519833E+00  0.90007752475E+02  0.90000014008E+02 0.  0.
         12    1    1    2    0    0  0.13541485121E+00 -0.81916793201E+00 -0.83881519833E+00  0.11802475248E+01  0.00000000000E+00 0. -1.
         11    1    3    3    0    0  0.33977577704E+01 -0.19902277035E+01  0.87842187661E+01  0.96264356732E+01  0.51100000000E-03 0. -1.
        -11    1    3    3    0    0  0.35431409062E+02 -0.20128663021E+01  0.10490376498E+02  0.37006545072E+02  0.51100000000E-03 0.  1.
         12    1    3    3    0    0 -0.38964581684E+02  0.48222619376E+01 -0.18435780066E+02  0.43374771730E+02  0.00000000000E+00 0. -1.
</event>
<event>
 7    1  0.2285268E-015  0.9000785E+02  0.7816164E-02  0.1186339E+00
        -11   -1    0    0    0    0  0.00000000000E+00  0.00000000000E+00  0.45593999997E+02  0.45594000000E+02  0.51100000000E-03 0.  1.
         11   -1    0    0    0    0 -0.00000000000E+00 -0.00000000000E+00 -0.45593999997E+02  0.45594000000E+02  0.51100000000E-03 0. -1.
    9900012    2    1    2    0    0 -0.10758984566E+01 -0.48394444235E+00  0.31633320881E-01  0.90007847307E+02  0.90000110091E+02 0.  0.
         12    1    1    2    0    0  0.10758984566E+01  0.48394444235E+00 -0.31633320881E-01  0.11801526932E+01  0.00000000000E+00 0. -1.
         11    1    3    3    0    0 -0.10915978939E+02  0.44228698260E+01  0.57282293018E+01  0.13097060162E+02  0.51100000000E-03 0. -1.
        -11    1    3    3    0    0 -0.26571784260E+02 -0.17267575354E+02 -0.18115868421E+02  0.36502240565E+02  0.51100000000E-03 0.  1.
         12    1    3    3    0    0  0.36411864743E+02  0.12360761086E+02  0.12419272440E+02  0.40408546579E+02  0.00000000000E+00 0. -1.
</event>
<event>
 7    1  0.2285268E-015  0.9000769E+02  0.7816164E-02  0.1186339E+00
        -11   -1    0    0    0    0  0.00000000000E+00  0.00000000000E+00  0.45593999997E+02  0.45594000000E+02  0.51100000000E-03 0.  1.
         11   -1    0    0    0    0 -0.00000000000E+00 -0.00000000000E+00 -0.45593999997E+02  0.45594000000E+02  0.51100000000E-03 0. -1.
    9900012    2    1    2    0    0 -0.17051780788E+00  0.10574234880E+01 -0.49589448078E+00  0.90007689832E+02  0.89999950538E+02 0.  0.
         12    1    1    2    0    0  0.17051780788E+00 -0.10574234880E+01  0.49589448078E+00  0.11803101677E+01  0.00000000000E+00 0. -1.
         11    1    3    3    0    0  0.23632176102E+01  0.66243387959E+00  0.11983235493E+02  0.12231988769E+02  0.51100000000E-03 0. -1.
        -11    1    3    3    0    0  0.27362624636E+02 -0.23309847044E+02 -0.16226997365E+02  0.39438276330E+02  0.51100000000E-03 0.  1.
         12    1    3    3    0    0 -0.29896360054E+02  0.23704836652E+02  0.37478673918E+01  0.38337424733E+02  0.00000000000E+00 0. -1.
</event>
<event>
 7    1  0.2285268E-015  0.9000790E+02  0.7816164E-02  0.1186339E+00
        -11   -1    0    0    0    0  0.00000000000E+00  0.00000000000E+00  0.45593999997E+02  0.45594000000E+02  0.51100000000E-03 0. -1.
         11   -1    0    0    0    0 -0.00000000000E+00 -0.00000000000E+00 -0.45593999997E+02  0.45594000000E+02  0.51100000000E-03 0.  1.
    9900012    2    1    2    0    0 -0.31570989494E+00  0.14754265770E+00 -0.11274765326E+01  0.90007896231E+02  0.90000159661E+02 0.  0.
         12    1    1    2    0    0  0.31570989494E+00 -0.14754265770E+00  0.11274765326E+01  0.11801037688E+01  0.00000000000E+00 0. -1.
         11    1    3    3    0    0 -0.32822842717E+02  0.16345351833E+02 -0.15805678637E+02  0.39929049676E+02  0.51100000000E-03 0. -1.
        -11    1    3    3    0    0  0.91471807970E+01  0.67793501892E+01  0.12983680894E+02  0.17268655863E+02  0.51100000000E-03 0.  1.
        -12    1    3    3    0    0  0.23359952025E+02 -0.22977159365E+02  0.16945212107E+01  0.32810190692E+02  0.00000000000E+00 0.  1.
</event>
<event>
 7    1  0.2285268E-015  0.9000777E+02  0.7816164E-02  0.1186339E+00
        -11   -1    0    0    0    0  0.00000000000E+00  0.00000000000E+00  0.45593999997E+02  0.45594000000E+02  0.51100000000E-03 0.  1.
         11   -1    0    0    0    0 -0.00000000000E+00 -0.00000000000E+00 -0.45593999997E+02  0.45594000000E+02  0.51100000000E-03 0. -1.
    9900012    2    1    2    0    0  0.94132987744E+00 -0.64120156448E+00  0.30934537856E+00  0.90007772925E+02  0.90000034728E+02 0.  0.
         12    1    1    2    0    0 -0.94132987744E+00  0.64120156448E+00 -0.30934537856E+00  0.11802270746E+01  0.00000000000E+00 0. -1.
         11    1    3    3    0    0 -0.17489819541E+01  0.35888280746E+02  0.62056424430E+01  0.36462825331E+02  0.51100000000E-03 0. -1.
        -11    1    3    3    0    0 -0.86035390284E+01  0.15466438004E+01  0.76156745269E+01  0.11593596923E+02  0.51100000000E-03 0.  1.
        -12    1    3    3    0    0  0.11293850860E+02 -0.38076126110E+02 -0.13511971591E+02  0.41951350671E+02  0.00000000000E+00 0.  1.
</event>
<event>
 7    1  0.2285268E-015  0.9000778E+02  0.7816164E-02  0.1186339E+00
        -11   -1    0    0    0    0  0.00000000000E+00  0.00000000000E+00  0.45593999997E+02  0.45594000000E+02  0.51100000000E-03 0. -1.
         11   -1    0    0    0    0 -0.00000000000E+00 -0.00000000000E+00 -0.45593999997E+02  0.45594000000E+02  0.51100000000E-03 0.  1.
    9900012    2    1    2    0    0 -0.78115741980E+00 -0.62407928095E-01 -0.88250008608E+00  0.90007784737E+02  0.90000046696E+02 0.  0.
         12    1    1    2    0    0  0.78115741980E+00  0.62407928095E-01  0.88250008608E+00  0.11802152625E+01  0.00000000000E+00 0. -1.
         11    1    3    3    0    0  0.25984469867E+02 -0.22404881633E+02 -0.15661756281E+02  0.37715540634E+02  0.51100000000E-03 0. -1.
        -11    1    3    3    0    0  0.42855088676E+01 -0.53686075896E+01  0.72699336348E+01  0.10001973256E+02  0.51100000000E-03 0.  1.
        -12    1    3    3    0    0 -0.31051136155E+02  0.27711081294E+02  0.75093225597E+01  0.42290270847E+02  0.00000000000E+00 0.  1.
</event>
<event>
 7    1  0.2285268E-015  0.9000766E+02  0.7816164E-02  0.1186339E+00
        -11   -1    0    0    0    0  0.00000000000E+00  0.00000000000E+00  0.45593999997E+02  0.45594000000E+02  0.51100000000E-03 0. -1.
         11   -1    0    0    0    0 -0.00000000000E+00 -0.00000000000E+00 -0.45593999997E+02  0.45594000000E+02  0.51100000000E-03 0.  1.
    9900012    2    1    2    0    0 -0.94314492452E+00 -0.70813685266E+00  0.47082691108E-01  0.90007662366E+02  0.89999922709E+02 0.  0.
         12    1    1    2    0    0  0.94314492452E+00  0.70813685266E+00 -0.47082691108E-01  0.11803376341E+01  0.00000000000E+00 0. -1.
         11    1    3    3    0    0 -0.18043144927E+02  0.12868553901E+02  0.31446795697E+02  0.38471492279E+02  0.51100000000E-03 0. -1.
        -11    1    3    3    0    0 -0.16546456251E+01  0.89583431113E+01 -0.77940125828E+00  0.91431520838E+01  0.51100000000E-03 0.  1.
        -12    1    3    3    0    0  0.18754645627E+02 -0.22535033865E+02 -0.30620311747E+02  0.42393018003E+02  0.00000000000E+00 0.  1.
</event>
<event>
 7    1  0.2285268E-015  0.9000773E+02  0.7816164E-02  0.1186339E+00
        -11   -1    0    0    0    0  0.00000000000E+00  0.00000000000E+00  0.45593999997E+02  0.45594000000E+02  0.51100000000E-03 0.  1.
         11   -1    0    0    0    0 -0.00000000000E+00 -0.00000000000E+00 -0.45593999997E+02  0.45594000000E+02  0.51100000000E-03 0. -1.
    9900012    2    1    2    0    0  0.10029974611E+01  0.61121164301E+00 -0.11595214816E+00  0.90007733725E+02  0.89999995010E+02 0.  0.
         12    1    1    2    0    0 -0.10029974611E+01 -0.61121164301E+00  0.11595214816E+00  0.11802662751E+01  0.00000000000E+00 0. -1.
         11    1    3    3    0    0  0.10426847099E+02  0.79013639890E+01  0.43098880046E+00  0.13089554802E+02  0.51100000000E-03 0. -1.
        -11    1    3    3    0    0  0.24313040838E+02 -0.26780365493E+02  0.79648320597E+01  0.37037150008E+02  0.51100000000E-03 0.  1.
         12    1    3    3    0    0 -0.33736890476E+02  0.19490213147E+02 -0.85117730083E+01  0.39881028914E+02  0.00000000000E+00 0. -1.
</event>
<event>
 7    1  0.2285268E-015  0.9000774E+02  0.7816164E-02  0.1186339E+00
        -11   -1    0    0    0    0  0.00000000000E+00  0.00000000000E+00  0.45593999997E+02  0.45594000000E+02  0.51100000000E-03 0.  1.
         11   -1    0    0    0    0 -0.00000000000E+00 -0.00000000000E+00 -0.45593999997E+02  0.45594000000E+02  0.51100000000E-03 0. -1.
    9900012    2    1    2    0    0 -0.99606695578E-01  0.10921096499E+01  0.43634659973E+00  0.90007735904E+02  0.89999997218E+02 0.  0.
         12    1    1    2    0    0  0.99606695578E-01 -0.10921096499E+01 -0.43634659973E+00  0.11802640960E+01  0.00000000000E+00 0. -1.
         11    1    3    3    0    0 -0.26187337585E+02  0.16074110668E+02  0.24027709479E+02  0.39006211129E+02  0.51100000000E-03 0. -1.
        -11    1    3    3    0    0  0.41052990632E+01  0.50748467913E+01  0.61221525014E+01  0.89492067729E+01  0.51100000000E-03 0.  1.
        -12    1    3    3    0    0  0.21982431826E+02 -0.20056847809E+02 -0.29713515381E+02  0.42052318002E+02  0.00000000000E+00 0.  1.
</event>
<event>
 7    1  0.2285268E-015  0.9000770E+02  0.7816164E-02  0.1186339E+00
        -11   -1    0    0    0    0  0.00000000000E+00  0.00000000000E+00  0.45593999997E+02  0.45594000000E+02  0.51100000000E-03 0.  1.
         11   -1    0    0    0    0 -0.00000000000E+00 -0.00000000000E+00 -0.45593999997E+02  0.45594000000E+02  0.51100000000E-03 0. -1.
    9900012    2    1    2    0    0 -0.10759449715E+01  0.43191069849E+00  0.22112431498E+00  0.90007703259E+02  0.89999964142E+02 0.  0.
         12    1    1    2    0    0  0.10759449715E+01 -0.43191069849E+00 -0.22112431498E+00  0.11802967405E+01  0.00000000000E+00 0. -1.
         11    1    3    3    0    0 -0.53533377405E+01 -0.56367028361E+01  0.46963700425E+01  0.90822098447E+01  0.51100000000E-03 0. -1.
        -11    1    3    3    0    0  0.39761036069E+02 -0.10892160801E+02  0.86970740050E+00  0.41235125165E+02  0.51100000000E-03 0.  1.
         12    1    3    3    0    0 -0.35483643299E+02  0.16960774335E+02 -0.53449531281E+01  0.39690368250E+02  0.00000000000E+00 0. -1.
</event>
<event>
 7    1  0.2285268E-015  0.9000774E+02  0.7816164E-02  0.1186339E+00
        -11   -1    0    0    0    0  0.00000000000E+00  0.00000000000E+00  0.45593999997E+02  0.45594000000E+02  0.51100000000E-03 0.  1.
         11   -1    0    0    0    0 -0.00000000000E+00 -0.00000000000E+00 -0.45593999997E+02  0.45594000000E+02  0.51100000000E-03 0. -1.
    9900012    2    1    2    0    0  0.53694293425E+00  0.10504250550E+01  0.36298404679E-01  0.90007738129E+02  0.89999999472E+02 0.  0.
         12    1    1    2    0    0 -0.53694293425E+00 -0.10504250550E+01 -0.36298404679E-01  0.11802618714E+01  0.00000000000E+00 0. -1.
         11    1    3    3    0    0  0.16801081387E+01  0.10028235356E+02 -0.32660074931E+01  0.10679656966E+02  0.51100000000E-03 0. -1.
        -11    1    3    3    0    0  0.17653566158E+01  0.16907287256E+02  0.34635170150E+02  0.38581962857E+02  0.51100000000E-03 0.  1.
         12    1    3    3    0    0 -0.29085218202E+01 -0.25885097556E+02 -0.31332864252E+02  0.40746118305E+02  0.00000000000E+00 0. -1.
</event>
<event>
 8    1  0.2285268E-015  0.9000774E+02  0.7816164E-02  0.1186339E+00
        -11   -1    0    0    0    0  0.00000000000E+00  0.00000000000E+00  0.45593999997E+02  0.45594000000E+02  0.51100000000E-03 0.  1.
         11   -1    0    0    0    0 -0.00000000000E+00 -0.00000000000E+00 -0.45593999997E+02  0.45594000000E+02  0.51100000000E-03 0. -1.
    9900012    2    1    2    0    0 -0.10935940022E+01 -0.83771783532E-01 -0.43593466559E+00  0.90007743847E+02  0.90000005266E+02 0.  0.
         23    2    3    3    0    0  0.50154667167E+01  0.17947052858E+02  0.13490904783E+02  0.66419863121E+02  0.62308443188E+02 0.  0.
         12    1    1    2    0    0  0.10935940022E+01  0.83771783532E-01  0.43593466559E+00  0.11802561527E+01  0.00000000000E+00 0. -1.
         11    1    4    4    0    0  0.14164356762E+02  0.38000303919E+02  0.17231004717E+02  0.44063132256E+02  0.51100000000E-03 0. -1.
        -11    1    4    4    0    0 -0.91488900458E+01 -0.20053251061E+02 -0.37400999343E+01  0.22356730865E+02  0.51100000000E-03 0.  1.
        -12    1    3    3    0    0 -0.61090607189E+01 -0.18030824642E+02 -0.13926839448E+02  0.23587880726E+02  0.00000000000E+00 0.  1.
</event>
<event>
 7    1  0.2285268E-015  0.9000778E+02  0.7816164E-02  0.1186339E+00
        -11   -1    0    0    0    0  0.00000000000E+00  0.00000000000E+00  0.45593999997E+02  0.45594000000E+02  0.51100000000E-03 0. -1.
         11   -1    0    0    0    0 -0.00000000000E+00 -0.00000000000E+00 -0.45593999997E+02  0.45594000000E+02  0.51100000000E-03 0.  1.
    9900012    2    1    2    0    0 -0.86739467189E+00  0.74010275170E+00  0.30463159458E+00  0.90007777136E+02  0.90000038994E+02 0.  0.
         12    1    1    2    0    0  0.86739467189E+00 -0.74010275170E+00 -0.30463159458E+00  0.11802228638E+01  0.00000000000E+00 0. -1.
         11    1    3    3    0    0  0.23874339830E+02  0.20745220282E+02  0.16611140952E+02  0.35725037030E+02  0.51100000000E-03 0. -1.
        -11    1    3    3    0    0 -0.33356726146E+01  0.62864404961E+01  0.93608394822E+01  0.11758884385E+02  0.51100000000E-03 0.  1.
        -12    1    3    3    0    0 -0.21406061887E+02 -0.26291558026E+02 -0.25667348839E+02  0.42523855721E+02  0.00000000000E+00 0.  1.
</event>
<event>
 7    1  0.2820012E-015  0.9000768E+02  0.7816164E-02  0.1186339E+00
        -11   -1    0    0    0    0  0.00000000000E+00  0.00000000000E+00  0.45593999997E+02  0.45594000000E+02  0.51100000000E-03 0. -1.
         11   -1    0    0    0    0 -0.00000000000E+00 -0.00000000000E+00 -0.45593999997E+02  0.45594000000E+02  0.51100000000E-03 0.  1.
    9900012    2    1    2    0    0  0.43138501747E+00  0.80314754036E+00 -0.74968042030E+00  0.90007678121E+02  0.89999938672E+02 0.  0.
         12    1    1    2    0    0 -0.43138501747E+00 -0.80314754036E+00  0.74968042030E+00  0.11803218788E+01  0.00000000000E+00 0. -1.
         11    1    3    3    0    0  0.29013256569E+01 -0.72460647065E+01  0.50162474015E+01  0.92782478169E+01  0.51100000000E-03 0. -1.
        -11    1    3    3    0    0  0.36194760380E+02  0.67046708068E+01 -0.16851606989E+02  0.40484440813E+02  0.51100000000E-03 0.  1.
         12    1    3    3    0    0 -0.38664701019E+02  0.13445414401E+01  0.11085679167E+02  0.40244989491E+02  0.00000000000E+00 0. -1.
</event>
<event>
 7    1  0.2285268E-015  0.9000775E+02  0.7816164E-02  0.1186339E+00
        -11   -1    0    0    0    0  0.00000000000E+00  0.00000000000E+00  0.45593999997E+02  0.45594000000E+02  0.51100000000E-03 0. -1.
         11   -1    0    0    0    0 -0.00000000000E+00 -0.00000000000E+00 -0.45593999997E+02  0.45594000000E+02  0.51100000000E-03 0.  1.
    9900012    2    1    2    0    0 -0.30283426371E+00  0.71092701901E+00 -0.89211826554E+00  0.90007745444E+02  0.90000006884E+02 0.  0.
         12    1    1    2    0    0  0.30283426371E+00 -0.71092701901E+00  0.89211826554E+00  0.11802545562E+01  0.00000000000E+00 0. -1.
         11    1    3    3    0    0  0.60546790669E+01 -0.27069216581E+01  0.11015637637E+01  0.67230950054E+01  0.51100000000E-03 0. -1.
        -11    1    3    3    0    0  0.12106602541E+02  0.11372402826E+02 -0.38320490402E+02  0.41765552265E+02  0.51100000000E-03 0.  1.
         12    1    3    3    0    0 -0.18464115871E+02 -0.79545541488E+01  0.36326808372E+02  0.41519098173E+02  0.00000000000E+00 0. -1.
</event>
<event>
 7    1  0.2285268E-015  0.9000770E+02  0.7816164E-02  0.1186339E+00
        -11   -1    0    0    0    0  0.00000000000E+00  0.00000000000E+00  0.45593999997E+02  0.45594000000E+02  0.51100000000E-03 0.  1.
         11   -1    0    0    0    0 -0.00000000000E+00 -0.00000000000E+00 -0.45593999997E+02  0.45594000000E+02  0.51100000000E-03 0. -1.
    9900012    2    1    2    0    0 -0.11549208805E+01  0.62432076609E-01  0.23530836288E+00  0.90007699178E+02  0.89999960007E+02 0.  0.
         12    1    1    2    0    0  0.11549208805E+01 -0.62432076609E-01 -0.23530836288E+00  0.11803008219E+01  0.00000000000E+00 0. -1.
         11    1    3    3    0    0 -0.10230226173E+02 -0.10393833433E+02  0.30080667116E+01  0.14890861848E+02  0.51100000000E-03 0. -1.
        -11    1    3    3    0    0  0.24355784367E+02  0.76506592304E+01  0.29672832231E+02  0.39143502547E+02  0.51100000000E-03 0.  1.
         12    1    3    3    0    0 -0.15280479074E+02  0.28056062796E+01 -0.32445590580E+02  0.35973334783E+02  0.00000000000E+00 0. -1.
</event>
<event>
 7    1  0.2285268E-015  0.9000764E+02  0.7816164E-02  0.1186339E+00
        -11   -1    0    0    0    0  0.00000000000E+00  0.00000000000E+00  0.45593999997E+02  0.45594000000E+02  0.51100000000E-03 0.  1.
         11   -1    0    0    0    0 -0.00000000000E+00 -0.00000000000E+00 -0.45593999997E+02  0.45594000000E+02  0.51100000000E-03 0. -1.
    9900012    2    1    2    0    0 -0.33411334442E+00 -0.11316800624E+01 -0.30247109849E-01  0.90007641420E+02  0.89999901486E+02 0.  0.
         12    1    1    2    0    0  0.33411334442E+00  0.11316800624E+01  0.30247109849E-01  0.11803585803E+01  0.00000000000E+00 0. -1.
         11    1    3    3    0    0 -0.95525964617E+01  0.91745658197E+01  0.61757888948E+01  0.14613867588E+02  0.51100000000E-03 0. -1.
        -11    1    3    3    0    0  0.12413538414E+02  0.30499100780E+02 -0.96648728859E+01  0.34317646372E+02  0.51100000000E-03 0.  1.
         12    1    3    3    0    0 -0.31950552967E+01 -0.40805346662E+02  0.34588368813E+01  0.41076127460E+02  0.00000000000E+00 0. -1.
</event>
<event>
 7    1  0.2285268E-015  0.9000776E+02  0.7816164E-02  0.1186339E+00
        -11   -1    0    0    0    0  0.00000000000E+00  0.00000000000E+00  0.45593999997E+02  0.45594000000E+02  0.51100000000E-03 0.  1.
         11   -1    0    0    0    0 -0.00000000000E+00 -0.00000000000E+00 -0.45593999997E+02  0.45594000000E+02  0.51100000000E-03 0. -1.
    9900012    2    1    2    0    0 -0.44521159476E+00  0.59696080537E-01  0.10914206458E+01  0.90007755952E+02  0.90000017531E+02 0.  0.
         12    1    1    2    0    0  0.44521159476E+00 -0.59696080537E-01 -0.10914206458E+01  0.11802440477E+01  0.00000000000E+00 0. -1.
         11    1    3    3    0    0 -0.22687359450E+02 -0.11891775765E+02 -0.59484915520E+01  0.26296675868E+02  0.51100000000E-03 0. -1.
        -11    1    3    3    0    0  0.40795031024E+01 -0.11176184381E+02 -0.20318664635E+02  0.23545648763E+02  0.51100000000E-03 0.  1.
        -12    1    3    3    0    0  0.18162644753E+02  0.23127656226E+02  0.27358576833E+02  0.40165431322E+02  0.00000000000E+00 0.  1.
</event>
<event>
 7    1  0.2285268E-015  0.9000764E+02  0.7816164E-02  0.1186339E+00
        -11   -1    0    0    0    0  0.00000000000E+00  0.00000000000E+00  0.45593999997E+02  0.45594000000E+02  0.51100000000E-03 0.  1.
         11   -1    0    0    0    0 -0.00000000000E+00 -0.00000000000E+00 -0.45593999997E+02  0.45594000000E+02  0.51100000000E-03 0. -1.
    9900012    2    1    2    0    0  0.11341934012E+01  0.30391354030E+00 -0.12034243389E+00  0.90007643947E+02  0.89999904047E+02 0.  0.
         12    1    1    2    0    0 -0.11341934012E+01 -0.30391354030E+00  0.12034243389E+00  0.11803560533E+01  0.00000000000E+00 0. -1.
         11    1    3    3    0    0  0.12962508278E+02 -0.24813796870E+02 -0.23365477017E+02  0.36465005861E+02  0.51100000000E-03 0. -1.
        -11    1    3    3    0    0  0.49826798746E+01 -0.47204865318E+01 -0.55272977130E+01  0.88125542324E+01  0.51100000000E-03 0.  1.
        -12    1    3    3    0    0 -0.16810994751E+02  0.29838196942E+02  0.28772432296E+02  0.44730083853E+02  0.00000000000E+00 0.  1.
</event>
<event>
 7    1  0.2285268E-015  0.9000768E+02  0.7816164E-02  0.1186339E+00
        -11   -1    0    0    0    0  0.00000000000E+00  0.00000000000E+00  0.45593999997E+02  0.45594000000E+02  0.51100000000E-03 0.  1.
         11   -1    0    0    0    0 -0.00000000000E+00 -0.00000000000E+00 -0.45593999997E+02  0.45594000000E+02  0.51100000000E-03 0. -1.
    9900012    2    1    2    0    0  0.63110413762E+00  0.75776073638E+00  0.64857548473E+00  0.90007684819E+02  0.89999945459E+02 0.  0.
         12    1    1    2    0    0 -0.63110413762E+00 -0.75776073638E+00 -0.64857548473E+00  0.11803151806E+01  0.00000000000E+00 0. -1.
         11    1    3    3    0    0 -0.82606473587E+01  0.30167041901E+02 -0.13892295732E+02  0.34224035309E+02  0.51100000000E-03 0. -1.
        -11    1    3    3    0    0 -0.30115990331E+00  0.87120265122E+01 -0.68756235303E+01  0.11102445786E+02  0.51100000000E-03 0.  1.
        -12    1    3    3    0    0  0.91929113997E+01 -0.38121307677E+02  0.21416494747E+02  0.44681203725E+02  0.00000000000E+00 0.  1.
</event>
<event>
 7    1  0.2285268E-015  0.9000760E+02  0.7816164E-02  0.1186339E+00
        -11   -1    0    0    0    0  0.00000000000E+00  0.00000000000E+00  0.45593999997E+02  0.45594000000E+02  0.51100000000E-03 0. -1.
         11   -1    0    0    0    0 -0.00000000000E+00 -0.00000000000E+00 -0.45593999997E+02  0.45594000000E+02  0.51100000000E-03 0.  1.
    9900012    2    1    2    0    0  0.10112612477E+01  0.48898940397E+00 -0.36274476792E+00  0.90007600189E+02  0.89999859711E+02 0.  0.
         12    1    1    2    0    0 -0.10112612477E+01 -0.48898940397E+00  0.36274476792E+00  0.11803998115E+01  0.00000000000E+00 0. -1.
         11    1    3    3    0    0 -0.13352421691E+02  0.44881524784E+01  0.34008741506E+02  0.36810666617E+02  0.51100000000E-03 0. -1.
        -11    1    3    3    0    0 -0.39723077040E+01 -0.64315878889E+01  0.54299948026E+01  0.93074913422E+01  0.51100000000E-03 0.  1.
        -12    1    3    3    0    0  0.18335990643E+02  0.24324248145E+01 -0.39801481077E+02  0.43889442230E+02  0.00000000000E+00 0.  1.
</event>
<event>
 7    1  0.2285268E-015  0.9000782E+02  0.7816164E-02  0.1186339E+00
        -11   -1    0    0    0    0  0.00000000000E+00  0.00000000000E+00  0.45593999997E+02  0.45594000000E+02  0.51100000000E-03 0. -1.
         11   -1    0    0    0    0 -0.00000000000E+00 -0.00000000000E+00 -0.45593999997E+02  0.45594000000E+02  0.51100000000E-03 0.  1.
    9900012    2    1    2    0    0  0.94588422448E+00 -0.68128783696E+00  0.18429437648E+00  0.90007824377E+02  0.90000086859E+02 0.  0.
         12    1    1    2    0    0 -0.94588422448E+00  0.68128783696E+00 -0.18429437648E+00  0.11801756226E+01  0.00000000000E+00 0. -1.
         11    1    3    3    0    0 -0.59549724577E+01  0.44773424052E+01  0.89454289796E+01  0.11641691968E+02  0.51100000000E-03 0. -1.
        -11    1    3    3    0    0 -0.34037697264E+02 -0.33461019713E+01 -0.14191608227E+02  0.37029217893E+02  0.51100000000E-03 0.  1.
         12    1    3    3    0    0  0.40938553946E+02 -0.18125282708E+01  0.54304736240E+01  0.41336914516E+02  0.00000000000E+00 0. -1.
</event>
<event>
 7    1  0.2285268E-015  0.9000775E+02  0.7816164E-02  0.1186339E+00
        -11   -1    0    0    0    0  0.00000000000E+00  0.00000000000E+00  0.45593999997E+02  0.45594000000E+02  0.51100000000E-03 0. -1.
         11   -1    0    0    0    0 -0.00000000000E+00 -0.00000000000E+00 -0.45593999997E+02  0.45594000000E+02  0.51100000000E-03 0.  1.
    9900012    2    1    2    0    0  0.11713336839E+01 -0.11671810892E+00 -0.85688650936E-01  0.90007750763E+02  0.90000012273E+02 0.  0.
         12    1    1    2    0    0 -0.11713336839E+01  0.11671810892E+00  0.85688650936E-01  0.11802492367E+01  0.00000000000E+00 0. -1.
         11    1    3    3    0    0 -0.17801021240E+02  0.18529552705E+02  0.17472659473E+02  0.31072729361E+02  0.51100000000E-03 0. -1.
        -11    1    3    3    0    0 -0.76727934714E+01  0.10703217487E+02  0.40626050075E+01  0.13781704682E+02  0.51100000000E-03 0.  1.
        -12    1    3    3    0    0  0.26645148395E+02 -0.29349488301E+02 -0.21620953132E+02  0.45153316720E+02  0.00000000000E+00 0.  1.
</event>
<event>
 7    1  0.2285268E-015  0.9000775E+02  0.7816164E-02  0.1186339E+00
        -11   -1    0    0    0    0  0.00000000000E+00  0.00000000000E+00  0.45593999997E+02  0.45594000000E+02  0.51100000000E-03 0. -1.
         11   -1    0    0    0    0 -0.00000000000E+00 -0.00000000000E+00 -0.45593999997E+02  0.45594000000E+02  0.51100000000E-03 0.  1.
    9900012    2    1    2    0    0  0.47103791535E+00 -0.92254447929E+00 -0.56570796195E+00  0.90007749801E+02  0.90000011298E+02 0.  0.
         12    1    1    2    0    0 -0.47103791535E+00  0.92254447929E+00  0.56570796195E+00  0.11802501990E+01  0.00000000000E+00 0. -1.
         11    1    3    3    0    0  0.21059978211E+02 -0.16338589674E+02  0.23755652180E+02  0.35704386363E+02  0.51100000000E-03 0. -1.
        -11    1    3    3    0    0  0.12876892653E+01 -0.11674882179E+02  0.14444237486E+00  0.11746568920E+02  0.51100000000E-03 0.  1.
        -12    1    3    3    0    0 -0.21876629561E+02  0.27090927374E+02 -0.24465802517E+02  0.42556794518E+02  0.00000000000E+00 0.  1.
</event>
<event>
 7    1  0.2924784E-015  0.9000761E+02  0.7816164E-02  0.1186339E+00
        -11   -1    0    0    0    0  0.00000000000E+00  0.00000000000E+00  0.45593999997E+02  0.45594000000E+02  0.51100000000E-03 0. -1.
         11   -1    0    0    0    0 -0.00000000000E+00 -0.00000000000E+00 -0.45593999997E+02  0.45594000000E+02  0.51100000000E-03 0.  1.
    9900012    2    1    2    0    0  0.69206269855E-01 -0.26547917617E+00 -0.11480682509E+01  0.90007606248E+02  0.89999865851E+02 0.  0.
         12    1    1    2    0    0 -0.69206269855E-01  0.26547917617E+00  0.11480682509E+01  0.11803937518E+01  0.00000000000E+00 0. -1.
         11    1    3    3    0    0 -0.20683693615E+01  0.21749810623E+01  0.88648539944E+01  0.93591843149E+01  0.51100000000E-03 0. -1.
        -11    1    3    3    0    0 -0.31927802752E+01  0.33312246599E+02 -0.24738725842E+02  0.41616152824E+02  0.51100000000E-03 0.  1.
         12    1    3    3    0    0  0.53303559065E+01 -0.35752706837E+02  0.14725803597E+02  0.39032269109E+02  0.00000000000E+00 0. -1.
</event>
<event>
 7    1  0.2285268E-015  0.9000773E+02  0.7816164E-02  0.1186339E+00
        -11   -1    0    0    0    0  0.00000000000E+00  0.00000000000E+00  0.45593999997E+02  0.45594000000E+02  0.51100000000E-03 0.  1.
         11   -1    0    0    0    0 -0.00000000000E+00 -0.00000000000E+00 -0.45593999997E+02  0.45594000000E+02  0.51100000000E-03 0. -1.
    9900012    2    1    2    0    0 -0.76751650429E+00 -0.89973444336E-01  0.89211555770E+00  0.90007725891E+02  0.89999987072E+02 0.  0.
         12    1    1    2    0    0  0.76751650429E+00  0.89973444336E-01 -0.89211555770E+00  0.11802741094E+01  0.00000000000E+00 0. -1.
         11    1    3    3    0    0  0.22434114921E+02 -0.14356341939E+02 -0.11130642742E+02  0.28866681039E+02  0.51100000000E-03 0. -1.
        -11    1    3    3    0    0  0.14971705498E+02  0.61318897348E+01 -0.71115129965E+01  0.17672737609E+02  0.51100000000E-03 0.  1.
        -12    1    3    3    0    0 -0.38173336923E+02  0.81344787594E+01  0.19134271296E+02  0.43468307242E+02  0.00000000000E+00 0.  1.
</event>
<event>
 7    1  0.2285268E-015  0.9000728E+02  0.7816164E-02  0.1186340E+00
        -11   -1    0    0    0    0  0.00000000000E+00  0.00000000000E+00  0.45593999997E+02  0.45594000000E+02  0.51100000000E-03 0. -1.
         11   -1    0    0    0    0 -0.00000000000E+00 -0.00000000000E+00 -0.45593999997E+02  0.45594000000E+02  0.51100000000E-03 0.  1.
    9900012    2    1    2    0    0 -0.83226715053E+00  0.57993406836E+00  0.60423670569E+00  0.90007282367E+02  0.89999537693E+02 0.  0.
         12    1    1    2    0    0  0.83226715053E+00 -0.57993406836E+00 -0.60423670569E+00  0.11807176335E+01  0.00000000000E+00 0. -1.
         11    1    3    3    0    0  0.18853171377E+02  0.23604442237E+02  0.19255082251E+02  0.35824153264E+02  0.51100000000E-03 0. -1.
        -11    1    3    3    0    0  0.14039612334E+01  0.10417571796E+02 -0.10335541473E+00  0.10512259123E+02  0.51100000000E-03 0.  1.
        -12    1    3    3    0    0 -0.21089399761E+02 -0.33442079965E+02 -0.18547490130E+02  0.43670869980E+02  0.00000000000E+00 0.  1.
</event>
<event>
 7    1  0.2285268E-015  0.9000772E+02  0.7816164E-02  0.1186339E+00
        -11   -1    0    0    0    0  0.00000000000E+00  0.00000000000E+00  0.45593999997E+02  0.45594000000E+02  0.51100000000E-03 0. -1.
         11   -1    0    0    0    0 -0.00000000000E+00 -0.00000000000E+00 -0.45593999997E+02  0.45594000000E+02  0.51100000000E-03 0.  1.
    9900012    2    1    2    0    0  0.89502528106E+00 -0.31964435629E+00 -0.69986404581E+00  0.90007723570E+02  0.89999984721E+02 0.  0.
         12    1    1    2    0    0 -0.89502528106E+00  0.31964435629E+00  0.69986404581E+00  0.11802764298E+01  0.00000000000E+00 0. -1.
         11    1    3    3    0    0  0.86981426400E+01 -0.33528641725E+02  0.45779184294E+01  0.34939731520E+02  0.51100000000E-03 0. -1.
        -11    1    3    3    0    0  0.33740758520E+01 -0.97377845040E+01  0.48946895535E+00  0.10317384117E+02  0.51100000000E-03 0.  1.
        -12    1    3    3    0    0 -0.11177193211E+02  0.42946781873E+02 -0.57672514305E+01  0.44750607933E+02  0.00000000000E+00 0.  1.
</event>
<event>
 7    1  0.2285268E-015  0.9000760E+02  0.7816164E-02  0.1186339E+00
        -11   -1    0    0    0    0  0.00000000000E+00  0.00000000000E+00  0.45593999997E+02  0.45594000000E+02  0.51100000000E-03 0.  1.
         11   -1    0    0    0    0 -0.00000000000E+00 -0.00000000000E+00 -0.45593999997E+02  0.45594000000E+02  0.51100000000E-03 0. -1.
    9900012    2    1    2    0    0  0.42911292235E+00 -0.10882150686E+01  0.15808629709E+00  0.90007601248E+02  0.89999860785E+02 0.  0.
         12    1    1    2    0    0 -0.42911292235E+00  0.10882150686E+01 -0.15808629709E+00  0.11803987517E+01  0.00000000000E+00 0. -1.
         11    1    3    3    0    0  0.61050171746E+01 -0.29106352594E+01 -0.11880827544E+02  0.13671031260E+02  0.51100000000E-03 0. -1.
        -11    1    3    3    0    0  0.11138401199E+02 -0.18275195356E+02 -0.23756340457E+02  0.31975153772E+02  0.51100000000E-03 0.  1.
        -12    1    3    3    0    0 -0.16814305451E+02  0.20097615547E+02  0.35795254298E+02  0.44361416217E+02  0.00000000000E+00 0.  1.
</event>
<event>
 7    1  0.2285268E-015  0.9000772E+02  0.7816164E-02  0.1186339E+00
        -11   -1    0    0    0    0  0.00000000000E+00  0.00000000000E+00  0.45593999997E+02  0.45594000000E+02  0.51100000000E-03 0.  1.
         11   -1    0    0    0    0 -0.00000000000E+00 -0.00000000000E+00 -0.45593999997E+02  0.45594000000E+02  0.51100000000E-03 0. -1.
    9900012    2    1    2    0    0  0.30891176919E+00  0.93680843651E-01  0.11352820300E+01  0.90007717038E+02  0.89999978103E+02 0.  0.
         12    1    1    2    0    0 -0.30891176919E+00 -0.93680843651E-01 -0.11352820300E+01  0.11802829615E+01  0.00000000000E+00 0. -1.
         11    1    3    3    0    0  0.39637738555E+01  0.79786380654E+01 -0.85846059292E+01  0.12371969438E+02  0.51100000000E-03 0. -1.
        -11    1    3    3    0    0 -0.12093199525E+02  0.31167579052E+02 -0.72812298806E+01  0.34215197904E+02  0.51100000000E-03 0.  1.
         12    1    3    3    0    0  0.84383374389E+01 -0.39052536274E+02  0.17001117840E+02  0.43420549697E+02  0.00000000000E+00 0. -1.
</event>
<event>
 7    1  0.2285268E-015  0.9000776E+02  0.7816164E-02  0.1186339E+00
        -11   -1    0    0    0    0  0.00000000000E+00  0.00000000000E+00  0.45593999997E+02  0.45594000000E+02  0.51100000000E-03 0. -1.
         11   -1    0    0    0    0 -0.00000000000E+00 -0.00000000000E+00 -0.45593999997E+02  0.45594000000E+02  0.51100000000E-03 0.  1.
    9900012    2    1    2    0    0  0.27505519291E+00  0.39899318141E+00 -0.10761538850E+01  0.90007763540E+02  0.90000025218E+02 0.  0.
         12    1    1    2    0    0 -0.27505519291E+00 -0.39899318141E+00  0.10761538850E+01  0.11802364603E+01  0.00000000000E+00 0. -1.
         11    1    3    3    0    0 -0.32548591643E+01  0.11088644978E+02 -0.21073833485E+01  0.11747051565E+02  0.51100000000E-03 0. -1.
        -11    1    3    3    0    0  0.37972194078E+02  0.36875253880E+00 -0.11978428140E+02  0.39818415871E+02  0.51100000000E-03 0.  1.
         12    1    3    3    0    0 -0.34442279720E+02 -0.11058404336E+02  0.13009657603E+02  0.38442296104E+02  0.00000000000E+00 0. -1.
</event>
<event>
 7    1  0.2285268E-015  0.9000775E+02  0.7816164E-02  0.1186339E+00
        -11   -1    0    0    0    0  0.00000000000E+00  0.00000000000E+00  0.45593999997E+02  0.45594000000E+02  0.51100000000E-03 0.  1.
         11   -1    0    0    0    0 -0.00000000000E+00 -0.00000000000E+00 -0.45593999997E+02  0.45594000000E+02  0.51100000000E-03 0. -1.
    9900012    2    1    2    0    0  0.28282122348E+00  0.56174535159E+00  0.99872715093E+00  0.90007745110E+02  0.90000006545E+02 0.  0.
         12    1    1    2    0    0 -0.28282122348E+00 -0.56174535159E+00 -0.99872715093E+00  0.11802548905E+01  0.00000000000E+00 0. -1.
         11    1    3    3    0    0  0.16504029575E+02 -0.29024775188E+02 -0.15366116317E+02  0.36755109820E+02  0.51100000000E-03 0. -1.
        -11    1    3    3    0    0  0.22668369238E+01 -0.77953081452E+01  0.64953677054E+01  0.10396883216E+02  0.51100000000E-03 0.  1.
        -12    1    3    3    0    0 -0.18488045276E+02  0.37381828685E+02  0.98694757625E+01  0.42855752073E+02  0.00000000000E+00 0.  1.
</event>
<event>
 7    1  0.2285268E-015  0.9000718E+02  0.7816164E-02  0.1186340E+00
        -11   -1    0    0    0    0  0.00000000000E+00  0.00000000000E+00  0.45593999997E+02  0.45594000000E+02  0.51100000000E-03 0.  1.
         11   -1    0    0    0    0 -0.00000000000E+00 -0.00000000000E+00 -0.45593999997E+02  0.45594000000E+02  0.51100000000E-03 0. -1.
    9900012    2    1    2    0    0 -0.20509942723E+00 -0.37398243073E+00  0.11010927793E+01  0.90007180817E+02  0.89999434802E+02 0.  0.
         12    1    1    2    0    0  0.20509942723E+00  0.37398243073E+00 -0.11010927793E+01  0.11808191826E+01  0.00000000000E+00 0. -1.
         11    1    3    3    0    0  0.29070044241E+02 -0.37514831750E+01 -0.28431779204E+02  0.40835121735E+02  0.51100000000E-03 0. -1.
        -11    1    3    3    0    0  0.44955622594E+01  0.16323155816E+01  0.72122348281E+01  0.86539508701E+01  0.51100000000E-03 0.  1.
        -12    1    3    3    0    0 -0.33770705927E+02  0.17451851628E+01  0.22320637155E+02  0.40518108212E+02  0.00000000000E+00 0.  1.
</event>
<event>
 7    1  0.2285268E-015  0.9000778E+02  0.7816164E-02  0.1186339E+00
        -11   -1    0    0    0    0  0.00000000000E+00  0.00000000000E+00  0.45593999997E+02  0.45594000000E+02  0.51100000000E-03 0.  1.
         11   -1    0    0    0    0 -0.00000000000E+00 -0.00000000000E+00 -0.45593999997E+02  0.45594000000E+02  0.51100000000E-03 0. -1.
    9900012    2    1    2    0    0  0.17594830383E+00  0.11642626062E+01  0.80338251675E-01  0.90007779912E+02  0.90000041807E+02 0.  0.
         12    1    1    2    0    0 -0.17594830383E+00 -0.11642626062E+01 -0.80338251675E-01  0.11802200881E+01  0.00000000000E+00 0. -1.
         11    1    3    3    0    0  0.28954064754E+02 -0.41830510298E+01 -0.17542133975E+02  0.34111028221E+02  0.51100000000E-03 0. -1.
        -11    1    3    3    0    0  0.78133900283E+01 -0.21442146978E+01 -0.73724858944E+01  0.10954463425E+02  0.51100000000E-03 0.  1.
        -12    1    3    3    0    0 -0.36591506478E+02  0.74915283337E+01  0.24994958121E+02  0.44942288266E+02  0.00000000000E+00 0.  1.
</event>
<event>
 7    1  0.2285268E-015  0.9000756E+02  0.7816164E-02  0.1186339E+00
        -11   -1    0    0    0    0  0.00000000000E+00  0.00000000000E+00  0.45593999997E+02  0.45594000000E+02  0.51100000000E-03 0.  1.
         11   -1    0    0    0    0 -0.00000000000E+00 -0.00000000000E+00 -0.45593999997E+02  0.45594000000E+02  0.51100000000E-03 0. -1.
    9900012    2    1    2    0    0  0.83055291953E+00 -0.83729658974E+00  0.50579873427E-01  0.90007558534E+02  0.89999817506E+02 0.  0.
         12    1    1    2    0    0 -0.83055291953E+00  0.83729658974E+00 -0.50579873427E-01  0.11804414661E+01  0.00000000000E+00 0. -1.
         11    1    3    3    0    0 -0.32018467429E+02  0.21692996557E+02  0.17974411272E+01  0.38716910401E+02  0.51100000000E-03 0. -1.
        -11    1    3    3    0    0  0.12889328493E+01 -0.10546171539E+01 -0.11718216434E+02  0.11835968988E+02  0.51100000000E-03 0.  1.
        -12    1    3    3    0    0  0.31560087499E+02 -0.21475675993E+02  0.99713551800E+01  0.39454679145E+02  0.00000000000E+00 0.  1.
</event>
<event>
 7    1  0.2285268E-015  0.9000778E+02  0.7816164E-02  0.1186339E+00
        -11   -1    0    0    0    0  0.00000000000E+00  0.00000000000E+00  0.45593999997E+02  0.45594000000E+02  0.51100000000E-03 0. -1.
         11   -1    0    0    0    0 -0.00000000000E+00 -0.00000000000E+00 -0.45593999997E+02  0.45594000000E+02  0.51100000000E-03 0.  1.
    9900012    2    1    2    0    0 -0.94520627104E+00 -0.67929295559E+00 -0.19509116679E+00  0.90007782063E+02  0.90000043987E+02 0.  0.
         12    1    1    2    0    0  0.94520627104E+00  0.67929295559E+00  0.19509116679E+00  0.11802179365E+01  0.00000000000E+00 0. -1.
         11    1    3    3    0    0 -0.25465842573E+02  0.32642825414E+02  0.13222881278E+01  0.41422356707E+02  0.51100000000E-03 0. -1.
        -11    1    3    3    0    0 -0.43803761969E+01 -0.48243273481E+01 -0.44511915482E+01  0.78914470439E+01  0.51100000000E-03 0.  1.
        -12    1    3    3    0    0  0.28901012499E+02 -0.28497791022E+02  0.29338122535E+01  0.40693978313E+02  0.00000000000E+00 0.  1.
</event>
<event>
 7    1  0.2285268E-015  0.9000783E+02  0.7816164E-02  0.1186339E+00
        -11   -1    0    0    0    0  0.00000000000E+00  0.00000000000E+00  0.45593999997E+02  0.45594000000E+02  0.51100000000E-03 0.  1.
         11   -1    0    0    0    0 -0.00000000000E+00 -0.00000000000E+00 -0.45593999997E+02  0.45594000000E+02  0.51100000000E-03 0. -1.
    9900012    2    1    2    0    0  0.54127039507E+00  0.34576036082E-01  0.10481600278E+01  0.90007826883E+02  0.90000089398E+02 0.  0.
         12    1    1    2    0    0 -0.54127039507E+00 -0.34576036082E-01 -0.10481600278E+01  0.11801731173E+01  0.00000000000E+00 0. -1.
         11    1    3    3    0    0 -0.17550424189E+01  0.10348003940E+02  0.22004350790E+01  0.10723957955E+02  0.51100000000E-03 0. -1.
        -11    1    3    3    0    0 -0.15187718176E+02  0.29434347799E+02  0.97233207762E+01  0.34519423242E+02  0.51100000000E-03 0.  1.
         12    1    3    3    0    0  0.17484030990E+02 -0.39747775703E+02 -0.10875595827E+02  0.44764445686E+02  0.00000000000E+00 0. -1.
</event>
<event>
 7    1  0.2285268E-015  0.9000781E+02  0.7816164E-02  0.1186339E+00
        -11   -1    0    0    0    0  0.00000000000E+00  0.00000000000E+00  0.45593999997E+02  0.45594000000E+02  0.51100000000E-03 0.  1.
         11   -1    0    0    0    0 -0.00000000000E+00 -0.00000000000E+00 -0.45593999997E+02  0.45594000000E+02  0.51100000000E-03 0. -1.
    9900012    2    1    2    0    0 -0.11275589082E+01  0.32599412675E+00 -0.12326849434E+00  0.90007806633E+02  0.90000068880E+02 0.  0.
         12    1    1    2    0    0  0.11275589082E+01 -0.32599412675E+00  0.12326849434E+00  0.11801933671E+01  0.00000000000E+00 0. -1.
         11    1    3    3    0    0  0.35156427221E+01 -0.62115323973E+01  0.42658817195E+01  0.83150842196E+01  0.51100000000E-03 0. -1.
        -11    1    3    3    0    0  0.34680840516E+02 -0.13082522965E+01  0.14195272529E+02  0.37496372963E+02  0.51100000000E-03 0.  1.
         12    1    3    3    0    0 -0.39324042146E+02  0.78457788206E+01 -0.18584422743E+02  0.44196349450E+02  0.00000000000E+00 0. -1.
</event>
<event>
 7    1  0.2285268E-015  0.9000721E+02  0.7816164E-02  0.1186340E+00
        -11   -1    0    0    0    0  0.00000000000E+00  0.00000000000E+00  0.45593999997E+02  0.45594000000E+02  0.51100000000E-03 0. -1.
         11   -1    0    0    0    0 -0.00000000000E+00 -0.00000000000E+00 -0.45593999997E+02  0.45594000000E+02  0.51100000000E-03 0.  1.
    9900012    2    1    2    0    0  0.52041083098E+00 -0.77322331027E+00 -0.72496164369E+00  0.90007207425E+02  0.89999461761E+02 0.  0.
         12    1    1    2    0    0 -0.52041083098E+00  0.77322331027E+00  0.72496164369E+00  0.11807925751E+01  0.00000000000E+00 0. -1.
         11    1    3    3    0    0 -0.17820365302E+01 -0.25274762907E+01  0.11525925664E+02  0.11933597667E+02  0.51100000000E-03 0. -1.
        -11    1    3    3    0    0 -0.20509338215E+02  0.31791987634E+02  0.16661658916E+01  0.37870034867E+02  0.51100000000E-03 0.  1.
         12    1    3    3    0    0  0.22811785576E+02 -0.30037734654E+02 -0.13917053199E+02  0.40203574892E+02  0.00000000000E+00 0. -1.
</event>
<event>
 7    1  0.2285268E-015  0.9000769E+02  0.7816164E-02  0.1186339E+00
        -11   -1    0    0    0    0  0.00000000000E+00  0.00000000000E+00  0.45593999997E+02  0.45594000000E+02  0.51100000000E-03 0. -1.
         11   -1    0    0    0    0 -0.00000000000E+00 -0.00000000000E+00 -0.45593999997E+02  0.45594000000E+02  0.51100000000E-03 0.  1.
    9900012    2    1    2    0    0  0.43434909320E+00 -0.10907627470E+01 -0.12123731481E+00  0.90007694535E+02  0.89999955303E+02 0.  0.
         12    1    1    2    0    0 -0.43434909320E+00  0.10907627470E+01  0.12123731481E+00  0.11803054653E+01  0.00000000000E+00 0. -1.
         11    1    3    3    0    0  0.13115781559E+02 -0.18376882767E+02  0.31357398917E+02  0.38639617147E+02  0.51100000000E-03 0. -1.
        -11    1    3    3    0    0 -0.45854844954E+01 -0.88189509011E+01 -0.35376270591E+00  0.99461405262E+01  0.51100000000E-03 0.  1.
        -12    1    3    3    0    0 -0.80959479701E+01  0.26105070921E+02 -0.31124873526E+02  0.41421936862E+02  0.00000000000E+00 0.  1.
</event>
<event>
 7    1  0.2285268E-015  0.9000776E+02  0.7816164E-02  0.1186339E+00
        -11   -1    0    0    0    0  0.00000000000E+00  0.00000000000E+00  0.45593999997E+02  0.45594000000E+02  0.51100000000E-03 0.  1.
         11   -1    0    0    0    0 -0.00000000000E+00 -0.00000000000E+00 -0.45593999997E+02  0.45594000000E+02  0.51100000000E-03 0. -1.
    9900012    2    1    2    0    0  0.10266415624E+01 -0.95618375004E-01  0.57430565861E+00  0.90007761566E+02  0.90000023219E+02 0.  0.
         12    1    1    2    0    0 -0.10266415624E+01  0.95618375004E-01 -0.57430565861E+00  0.11802384339E+01  0.00000000000E+00 0. -1.
         11    1    3    3    0    0 -0.63476839537E+00  0.20140417093E+01 -0.88571952277E+01  0.91054490546E+01  0.51100000000E-03 0. -1.
        -11    1    3    3    0    0  0.13020262365E+02  0.26851042682E+02  0.31014656334E+02  0.43039686720E+02  0.51100000000E-03 0.  1.
         12    1    3    3    0    0 -0.11358852407E+02 -0.28960702766E+02 -0.21583155448E+02  0.37862625791E+02  0.00000000000E+00 0. -1.
</event>
<event>
 7    1  0.2285268E-015  0.9000780E+02  0.7816164E-02  0.1186339E+00
        -11   -1    0    0    0    0  0.00000000000E+00  0.00000000000E+00  0.45593999997E+02  0.45594000000E+02  0.51100000000E-03 0.  1.
         11   -1    0    0    0    0 -0.00000000000E+00 -0.00000000000E+00 -0.45593999997E+02  0.45594000000E+02  0.51100000000E-03 0. -1.
    9900012    2    1    2    0    0 -0.79987729855E+00 -0.86778842330E+00 -0.32736479753E-02  0.90007800374E+02  0.90000062539E+02 0.  0.
         12    1    1    2    0    0  0.79987729855E+00  0.86778842330E+00  0.32736479753E-02  0.11801996260E+01  0.00000000000E+00 0. -1.
         11    1    3    3    0    0 -0.11881089015E+02  0.21065961299E+02 -0.29380737540E+02  0.38054733481E+02  0.51100000000E-03 0. -1.
        -11    1    3    3    0    0  0.30799778949E+01  0.90013539638E+01  0.16682867800E+01  0.96588725044E+01  0.51100000000E-03 0.  1.
        -12    1    3    3    0    0  0.80012338220E+01 -0.30935103686E+02  0.27709177112E+02  0.42294194389E+02  0.00000000000E+00 0.  1.
</event>
<event>
 7    1  0.2285268E-015  0.9000761E+02  0.7816164E-02  0.1186339E+00
        -11   -1    0    0    0    0  0.00000000000E+00  0.00000000000E+00  0.45593999997E+02  0.45594000000E+02  0.51100000000E-03 0. -1.
         11   -1    0    0    0    0 -0.00000000000E+00 -0.00000000000E+00 -0.45593999997E+02  0.45594000000E+02  0.51100000000E-03 0.  1.
    9900012    2    1    2    0    0 -0.26356666238E+00  0.72195184398E+00 -0.89590574630E+00  0.90007606440E+02  0.89999866045E+02 0.  0.
         12    1    1    2    0    0  0.26356666238E+00 -0.72195184398E+00  0.89590574630E+00  0.11803935601E+01  0.00000000000E+00 0. -1.
         11    1    3    3    0    0 -0.17955377426E+02 -0.29166883323E+02 -0.11794784806E+02  0.36224571911E+02  0.51100000000E-03 0. -1.
        -11    1    3    3    0    0 -0.74593308559E+01 -0.53849335248E+01  0.40989365174E+00  0.92090791587E+01  0.51100000000E-03 0.  1.
        -12    1    3    3    0    0  0.25151141619E+02  0.35273768691E+02  0.10488985408E+02  0.44573955370E+02  0.00000000000E+00 0.  1.
</event>
<event>
 7    1  0.2285268E-015  0.9000770E+02  0.7816164E-02  0.1186339E+00
        -11   -1    0    0    0    0  0.00000000000E+00  0.00000000000E+00  0.45593999997E+02  0.45594000000E+02  0.51100000000E-03 0.  1.
         11   -1    0    0    0    0 -0.00000000000E+00 -0.00000000000E+00 -0.45593999997E+02  0.45594000000E+02  0.51100000000E-03 0. -1.
    9900012    2    1    2    0    0  0.50991550860E+00  0.20233632897E+00  0.10450611806E+01  0.90007700594E+02  0.89999961442E+02 0.  0.
         12    1    1    2    0    0 -0.50991550860E+00 -0.20233632897E+00 -0.10450611806E+01  0.11802994057E+01  0.00000000000E+00 0. -1.
         11    1    3    3    0    0 -0.66519178948E+01 -0.29909080317E+01 -0.65574559211E+01  0.98078423189E+01  0.51100000000E-03 0. -1.
        -11    1    3    3    0    0 -0.29756957555E+02 -0.59565062632E+01 -0.17112612369E+02  0.34839603789E+02  0.51100000000E-03 0.  1.
         12    1    3    3    0    0  0.36918790959E+02  0.91497506238E+01  0.24715129470E+02  0.45360254487E+02  0.00000000000E+00 0. -1.
</event>
<event>
 7    1  0.2285268E-015  0.9000779E+02  0.7816164E-02  0.1186339E+00
        -11   -1    0    0    0    0  0.00000000000E+00  0.00000000000E+00  0.45593999997E+02  0.45594000000E+02  0.51100000000E-03 0. -1.
         11   -1    0    0    0    0 -0.00000000000E+00 -0.00000000000E+00 -0.45593999997E+02  0.45594000000E+02  0.51100000000E-03 0.  1.
    9900012    2    1    2    0    0 -0.54409348027E+00  0.10470852347E+01  0.21818479419E-01  0.90007787625E+02  0.90000049622E+02 0.  0.
         12    1    1    2    0    0  0.54409348027E+00 -0.10470852347E+01 -0.21818479419E-01  0.11802123749E+01  0.00000000000E+00 0. -1.
         11    1    3    3    0    0  0.51775320314E+01 -0.65809187834E+01 -0.97004879754E+00  0.84294913785E+01  0.51100000000E-03 0. -1.
        -11    1    3    3    0    0  0.27389297729E+02  0.20428533629E+02 -0.20725480341E+02  0.39963034819E+02  0.51100000000E-03 0.  1.
         12    1    3    3    0    0 -0.33110923240E+02 -0.12800529611E+02  0.21717347618E+02  0.41615261428E+02  0.00000000000E+00 0. -1.
</event>
<event>
 7    1  0.2285268E-015  0.9000775E+02  0.7816164E-02  0.1186339E+00
        -11   -1    0    0    0    0  0.00000000000E+00  0.00000000000E+00  0.45593999997E+02  0.45594000000E+02  0.51100000000E-03 0.  1.
         11   -1    0    0    0    0 -0.00000000000E+00 -0.00000000000E+00 -0.45593999997E+02  0.45594000000E+02  0.51100000000E-03 0. -1.
    9900012    2    1    2    0    0  0.19938344539E+00  0.51113921907E+00  0.10449722988E+01  0.90007752499E+02  0.90000014031E+02 0.  0.
         12    1    1    2    0    0 -0.19938344539E+00 -0.51113921907E+00 -0.10449722988E+01  0.11802475015E+01  0.00000000000E+00 0. -1.
         11    1    3    3    0    0  0.58478073228E+01 -0.39388153560E+01 -0.58997433445E+01  0.91933719975E+01  0.51100000000E-03 0. -1.
        -11    1    3    3    0    0 -0.14151377390E+02 -0.35363640725E+02 -0.49269052170E+01  0.38407329543E+02  0.51100000000E-03 0.  1.
         12    1    3    3    0    0  0.85029535128E+01  0.39813595300E+02  0.11871620860E+02  0.42407050958E+02  0.00000000000E+00 0. -1.
</event>
<event>
 7    1  0.2285268E-015  0.9000774E+02  0.7816164E-02  0.1186339E+00
        -11   -1    0    0    0    0  0.00000000000E+00  0.00000000000E+00  0.45593999997E+02  0.45594000000E+02  0.51100000000E-03 0. -1.
         11   -1    0    0    0    0 -0.00000000000E+00 -0.00000000000E+00 -0.45593999997E+02  0.45594000000E+02  0.51100000000E-03 0.  1.
    9900012    2    1    2    0    0  0.30338250675E+00  0.22767904292E+00 -0.11176497967E+01  0.90007737419E+02  0.89999998753E+02 0.  0.
         12    1    1    2    0    0 -0.30338250675E+00 -0.22767904292E+00  0.11176497967E+01  0.11802625810E+01  0.00000000000E+00 0. -1.
         11    1    3    3    0    0  0.11292772867E+02  0.22796708995E+02  0.28562085409E+02  0.38249305656E+02  0.51100000000E-03 0. -1.
        -11    1    3    3    0    0  0.12903915743E+01 -0.40846616003E+01  0.73970536705E+01  0.85478637137E+01  0.51100000000E-03 0.  1.
        -12    1    3    3    0    0 -0.12279781935E+02 -0.18484368352E+02 -0.37076788876E+02  0.43210568049E+02  0.00000000000E+00 0.  1.
</event>
<event>
 7    1  0.2285268E-015  0.9000748E+02  0.7816164E-02  0.1186340E+00
        -11   -1    0    0    0    0  0.00000000000E+00  0.00000000000E+00  0.45593999997E+02  0.45594000000E+02  0.51100000000E-03 0.  1.
         11   -1    0    0    0    0 -0.00000000000E+00 -0.00000000000E+00 -0.45593999997E+02  0.45594000000E+02  0.51100000000E-03 0. -1.
    9900012    2    1    2    0    0  0.81368614749E+00  0.19274954897E+00  0.83330506419E+00  0.90007476868E+02  0.89999734762E+02 0.  0.
         12    1    1    2    0    0 -0.81368614749E+00 -0.19274954897E+00 -0.83330506419E+00  0.11805231320E+01  0.00000000000E+00 0. -1.
         11    1    3    3    0    0  0.46175254139E+01  0.42761133794E+01  0.73613987469E+01  0.96848788507E+01  0.51100000000E-03 0. -1.
        -11    1    3    3    0    0 -0.30127887840E+02  0.18201005353E+02  0.16476777757E+02  0.38864513725E+02  0.51100000000E-03 0.  1.
         12    1    3    3    0    0  0.26324048574E+02 -0.22284369184E+02 -0.23004871440E+02  0.41458084292E+02  0.00000000000E+00 0. -1.
</event>
<event>
 7    1  0.2285268E-015  0.9000769E+02  0.7816164E-02  0.1186339E+00
        -11   -1    0    0    0    0  0.00000000000E+00  0.00000000000E+00  0.45593999997E+02  0.45594000000E+02  0.51100000000E-03 0. -1.
         11   -1    0    0    0    0 -0.00000000000E+00 -0.00000000000E+00 -0.45593999997E+02  0.45594000000E+02  0.51100000000E-03 0.  1.
    9900012    2    1    2    0    0 -0.97111734938E+00 -0.61486032497E+00 -0.26834621872E+00  0.90007689948E+02  0.89999950655E+02 0.  0.
         12    1    1    2    0    0  0.97111734938E+00  0.61486032497E+00  0.26834621872E+00  0.11803100519E+01  0.00000000000E+00 0. -1.
         11    1    3    3    0    0  0.33135910524E+02 -0.23148709625E+01 -0.23808772776E+02  0.40868139855E+02  0.51100000000E-03 0. -1.
        -11    1    3    3    0    0  0.15903395546E+01  0.24828561217E+01  0.10853118214E+02  0.11246507442E+02  0.51100000000E-03 0.  1.
        -12    1    3    3    0    0 -0.35697367428E+02 -0.78284548419E+00  0.12687308344E+02  0.37893042651E+02  0.00000000000E+00 0.  1.
</event>
<event>
 7    1  0.2285268E-015  0.9000779E+02  0.7816164E-02  0.1186339E+00
        -11   -1    0    0    0    0  0.00000000000E+00  0.00000000000E+00  0.45593999997E+02  0.45594000000E+02  0.51100000000E-03 0.  1.
         11   -1    0    0    0    0 -0.00000000000E+00 -0.00000000000E+00 -0.45593999997E+02  0.45594000000E+02  0.51100000000E-03 0. -1.
    9900012    2    1    2    0    0  0.45716319919E+00  0.92761713828E+00  0.56870969409E+00  0.90007787112E+02  0.90000049101E+02 0.  0.
         12    1    1    2    0    0 -0.45716319919E+00 -0.92761713828E+00 -0.56870969409E+00  0.11802128885E+01  0.00000000000E+00 0. -1.
         11    1    3    3    0    0 -0.27530187282E+01 -0.13448489818E+02  0.22036845655E+01  0.13903136928E+02  0.51100000000E-03 0. -1.
        -11    1    3    3    0    0  0.25250430522E+02 -0.68139496791E+01  0.24534324656E+02  0.35860106502E+02  0.51100000000E-03 0.  1.
         12    1    3    3    0    0 -0.22040248594E+02  0.21190056636E+02 -0.26169299528E+02  0.40244543681E+02  0.00000000000E+00 0. -1.
</event>
<event>
 7    1  0.2285268E-015  0.9000772E+02  0.7816164E-02  0.1186339E+00
        -11   -1    0    0    0    0  0.00000000000E+00  0.00000000000E+00  0.45593999997E+02  0.45594000000E+02  0.51100000000E-03 0. -1.
         11   -1    0    0    0    0 -0.00000000000E+00 -0.00000000000E+00 -0.45593999997E+02  0.45594000000E+02  0.51100000000E-03 0.  1.
    9900012    2    1    2    0    0  0.54993018070E+00 -0.29651906232E-01 -0.10439156402E+01  0.90007719396E+02  0.89999980493E+02 0.  0.
         12    1    1    2    0    0 -0.54993018070E+00  0.29651906232E-01  0.10439156402E+01  0.11802806035E+01  0.00000000000E+00 0. -1.
         11    1    3    3    0    0  0.43143206340E+01 -0.92972453849E+00 -0.34815132788E+01  0.56212707835E+01  0.51100000000E-03 0. -1.
        -11    1    3    3    0    0  0.15898129761E+02 -0.12405648918E+02 -0.34802207880E+02  0.40222435636E+02  0.51100000000E-03 0.  1.
         12    1    3    3    0    0 -0.19662520214E+02  0.13305721550E+02  0.37239805518E+02  0.44164012976E+02  0.00000000000E+00 0. -1.
</event>
<event>
 7    1  0.2285268E-015  0.9000766E+02  0.7816164E-02  0.1186339E+00
        -11   -1    0    0    0    0  0.00000000000E+00  0.00000000000E+00  0.45593999997E+02  0.45594000000E+02  0.51100000000E-03 0.  1.
         11   -1    0    0    0    0 -0.00000000000E+00 -0.00000000000E+00 -0.45593999997E+02  0.45594000000E+02  0.51100000000E-03 0. -1.
    9900012    2    1    2    0    0 -0.10305856709E+01 -0.31781808045E+00  0.47968442558E+00  0.90007655853E+02  0.89999916110E+02 0.  0.
         12    1    1    2    0    0  0.10305856709E+01  0.31781808045E+00 -0.47968442558E+00  0.11803441470E+01  0.00000000000E+00 0. -1.
         11    1    3    3    0    0 -0.19347697548E+02 -0.67285717736E+01  0.14888685987E+01  0.20538349703E+02  0.51100000000E-03 0. -1.
        -11    1    3    3    0    0 -0.70368012726E+01 -0.18584191990E+02 -0.20774082655E+02  0.28748065578E+02  0.51100000000E-03 0.  1.
        -12    1    3    3    0    0  0.25353913150E+02  0.24994945683E+02  0.19764898482E+02  0.40721240572E+02  0.00000000000E+00 0.  1.
</event>
<event>
 7    1  0.2285268E-015  0.9000771E+02  0.7816164E-02  0.1186339E+00
        -11   -1    0    0    0    0  0.00000000000E+00  0.00000000000E+00  0.45593999997E+02  0.45594000000E+02  0.51100000000E-03 0. -1.
         11   -1    0    0    0    0 -0.00000000000E+00 -0.00000000000E+00 -0.45593999997E+02  0.45594000000E+02  0.51100000000E-03 0.  1.
    9900012    2    1    2    0    0  0.99250896270E+00 -0.44141168687E+00 -0.46168731032E+00  0.90007714657E+02  0.89999975690E+02 0.  0.
         12    1    1    2    0    0 -0.99250896270E+00  0.44141168687E+00  0.46168731032E+00  0.11802853430E+01  0.00000000000E+00 0. -1.
         11    1    3    3    0    0  0.20085913774E+01  0.39666258551E+01 -0.86854953945E+01  0.97573762100E+01  0.51100000000E-03 0. -1.
        -11    1    3    3    0    0 -0.20144589070E+02 -0.35801476654E+02 -0.45528097360E+01  0.41331323184E+02  0.51100000000E-03 0.  1.
         12    1    3    3    0    0  0.19128506655E+02  0.31393439112E+02  0.12776617820E+02  0.38919015263E+02  0.00000000000E+00 0. -1.
</event>
<event>
 7    1  0.2285268E-015  0.9000765E+02  0.7816164E-02  0.1186339E+00
        -11   -1    0    0    0    0  0.00000000000E+00  0.00000000000E+00  0.45593999997E+02  0.45594000000E+02  0.51100000000E-03 0.  1.
         11   -1    0    0    0    0 -0.00000000000E+00 -0.00000000000E+00 -0.45593999997E+02  0.45594000000E+02  0.51100000000E-03 0. -1.
    9900012    2    1    2    0    0 -0.72697670552E+00  0.61303515034E+00 -0.69923082052E+00  0.90007647948E+02  0.89999908101E+02 0.  0.
         12    1    1    2    0    0  0.72697670552E+00 -0.61303515034E+00  0.69923082052E+00  0.11803520518E+01  0.00000000000E+00 0. -1.
         11    1    3    3    0    0  0.13561389699E+02 -0.32879870832E+02  0.10958214649E+02  0.37216658435E+02  0.51100000000E-03 0. -1.
        -11    1    3    3    0    0  0.23445160532E+00 -0.66675540001E+01 -0.72592803962E+01  0.98594318310E+01  0.51100000000E-03 0.  1.
        -12    1    3    3    0    0 -0.14522818010E+02  0.40160459983E+02 -0.43981650733E+01  0.42931557682E+02  0.00000000000E+00 0.  1.
</event>
<event>
 7    1  0.2285268E-015  0.9000774E+02  0.7816164E-02  0.1186339E+00
        -11   -1    0    0    0    0  0.00000000000E+00  0.00000000000E+00  0.45593999997E+02  0.45594000000E+02  0.51100000000E-03 0.  1.
         11   -1    0    0    0    0 -0.00000000000E+00 -0.00000000000E+00 -0.45593999997E+02  0.45594000000E+02  0.51100000000E-03 0. -1.
    9900012    2    1    2    0    0 -0.25756428808E+00 -0.10675232316E+01 -0.43250985988E+00  0.90007741557E+02  0.90000002946E+02 0.  0.
         12    1    1    2    0    0  0.25756428808E+00  0.10675232316E+01  0.43250985988E+00  0.11802584426E+01  0.00000000000E+00 0. -1.
         11    1    3    3    0    0  0.86920461285E+01 -0.28823188707E+01  0.37796892261E+01  0.99068400047E+01  0.51100000000E-03 0. -1.
        -11    1    3    3    0    0 -0.41519474968E+02  0.79034821132E+00  0.12649462263E+02  0.43410832148E+02  0.51100000000E-03 0.  1.
         12    1    3    3    0    0  0.32569864552E+02  0.10244474278E+01 -0.16861661349E+02  0.36690069405E+02  0.00000000000E+00 0. -1.
</event>
<event>
 7    1  0.2285268E-015  0.9000776E+02  0.7816164E-02  0.1186339E+00
        -11   -1    0    0    0    0  0.00000000000E+00  0.00000000000E+00  0.45593999997E+02  0.45594000000E+02  0.51100000000E-03 0. -1.
         11   -1    0    0    0    0 -0.00000000000E+00 -0.00000000000E+00 -0.45593999997E+02  0.45594000000E+02  0.51100000000E-03 0.  1.
    9900012    2    1    2    0    0 -0.10020596579E+01 -0.52908310149E+00 -0.33001354291E+00  0.90007762132E+02  0.90000023792E+02 0.  0.
         12    1    1    2    0    0  0.10020596579E+01  0.52908310149E+00  0.33001354291E+00  0.11802378678E+01  0.00000000000E+00 0. -1.
         11    1    3    3    0    0 -0.53965011243E+01 -0.68551036540E+01 -0.15985181421E+01  0.88696071505E+01  0.51100000000E-03 0. -1.
        -11    1    3    3    0    0 -0.27186998826E+02 -0.12330503987E+01 -0.26814663138E+02  0.38205751896E+02  0.51100000000E-03 0.  1.
         12    1    3    3    0    0  0.31581440292E+02  0.75590709512E+01  0.28083167737E+02  0.42932403086E+02  0.00000000000E+00 0. -1.
</event>
<event>
 7    1  0.2285268E-015  0.9000763E+02  0.7816164E-02  0.1186339E+00
        -11   -1    0    0    0    0  0.00000000000E+00  0.00000000000E+00  0.45593999997E+02  0.45594000000E+02  0.51100000000E-03 0.  1.
         11   -1    0    0    0    0 -0.00000000000E+00 -0.00000000000E+00 -0.45593999997E+02  0.45594000000E+02  0.51100000000E-03 0. -1.
    9900012    2    1    2    0    0 -0.76992555406E+00 -0.89230795920E+00 -0.65441415334E-01  0.90007626571E+02  0.89999886442E+02 0.  0.
         12    1    1    2    0    0  0.76992555406E+00  0.89230795920E+00  0.65441415334E-01  0.11803734289E+01  0.00000000000E+00 0. -1.
         11    1    3    3    0    0 -0.20265223285E+02 -0.73892525668E+00 -0.37495107227E+02  0.42627553900E+02  0.51100000000E-03 0. -1.
        -11    1    3    3    0    0 -0.38702557834E+01  0.37106082268E+01  0.65644925662E+01  0.84758513528E+01  0.51100000000E-03 0.  1.
        -12    1    3    3    0    0  0.23365553514E+02 -0.38639909293E+01  0.30865173245E+02  0.38904221318E+02  0.00000000000E+00 0.  1.
</event>
<event>
 7    1  0.2285268E-015  0.9000774E+02  0.7816164E-02  0.1186339E+00
        -11   -1    0    0    0    0  0.00000000000E+00  0.00000000000E+00  0.45593999997E+02  0.45594000000E+02  0.51100000000E-03 0.  1.
         11   -1    0    0    0    0 -0.00000000000E+00 -0.00000000000E+00 -0.45593999997E+02  0.45594000000E+02  0.51100000000E-03 0. -1.
    9900012    2    1    2    0    0 -0.39918306035E+00 -0.78666781949E+00  0.78410715737E+00  0.90007738415E+02  0.89999999762E+02 0.  0.
         12    1    1    2    0    0  0.39918306035E+00  0.78666781949E+00 -0.78410715737E+00  0.11802615846E+01  0.00000000000E+00 0. -1.
         11    1    3    3    0    0  0.33327455345E+02 -0.11091081578E+02  0.11527067568E+02  0.36967616332E+02  0.51100000000E-03 0. -1.
        -11    1    3    3    0    0  0.79177678201E+01 -0.13355981447E+01  0.13455570613E+01  0.81415842269E+01  0.51100000000E-03 0.  1.
        -12    1    3    3    0    0 -0.41644406225E+02  0.11640011903E+02 -0.12088517472E+02  0.44898537856E+02  0.00000000000E+00 0.  1.
</event>
<event>
 7    1  0.2285268E-015  0.9000771E+02  0.7816164E-02  0.1186339E+00
        -11   -1    0    0    0    0  0.00000000000E+00  0.00000000000E+00  0.45593999997E+02  0.45594000000E+02  0.51100000000E-03 0.  1.
         11   -1    0    0    0    0 -0.00000000000E+00 -0.00000000000E+00 -0.45593999997E+02  0.45594000000E+02  0.51100000000E-03 0. -1.
    9900012    2    1    2    0    0  0.10736127710E+01  0.45402379589E+00  0.18521750975E+00  0.90007708716E+02  0.89999969671E+02 0.  0.
         12    1    1    2    0    0 -0.10736127710E+01 -0.45402379589E+00 -0.18521750975E+00  0.11802912840E+01  0.00000000000E+00 0. -1.
         11    1    3    3    0    0  0.57192071226E+01 -0.35317421928E+02  0.53565042261E+01  0.36176259612E+02  0.51100000000E-03 0. -1.
        -11    1    3    3    0    0  0.32901091843E+01 -0.82330934982E+01 -0.10270959889E+01  0.89254452789E+01  0.51100000000E-03 0.  1.
        -12    1    3    3    0    0 -0.79357035359E+01  0.44004539222E+02 -0.41441907274E+01  0.44906003825E+02  0.00000000000E+00 0.  1.
</event>
<event>
 7    1  0.2285268E-015  0.9000775E+02  0.7816164E-02  0.1186339E+00
        -11   -1    0    0    0    0  0.00000000000E+00  0.00000000000E+00  0.45593999997E+02  0.45594000000E+02  0.51100000000E-03 0.  1.
         11   -1    0    0    0    0 -0.00000000000E+00 -0.00000000000E+00 -0.45593999997E+02  0.45594000000E+02  0.51100000000E-03 0. -1.
    9900012    2    1    2    0    0 -0.60062006285E+00 -0.96445226030E+00  0.31948889435E+00  0.90007751816E+02  0.90000013340E+02 0.  0.
         12    1    1    2    0    0  0.60062006285E+00  0.96445226030E+00 -0.31948889435E+00  0.11802481840E+01  0.00000000000E+00 0. -1.
         11    1    3    3    0    0 -0.15449366064E+01 -0.59208830127E+01  0.19914598483E+01  0.64350289320E+01  0.51100000000E-03 0. -1.
        -11    1    3    3    0    0 -0.25340911888E+02 -0.30275200651E+02 -0.30119201169E+01  0.39595722659E+02  0.51100000000E-03 0.  1.
         12    1    3    3    0    0  0.26285228432E+02  0.35231631403E+02  0.13399491629E+01  0.43977000225E+02  0.00000000000E+00 0. -1.
</event>
<event>
 7    1  0.2285268E-015  0.9000776E+02  0.7816164E-02  0.1186339E+00
        -11   -1    0    0    0    0  0.00000000000E+00  0.00000000000E+00  0.45593999997E+02  0.45594000000E+02  0.51100000000E-03 0.  1.
         11   -1    0    0    0    0 -0.00000000000E+00 -0.00000000000E+00 -0.45593999997E+02  0.45594000000E+02  0.51100000000E-03 0. -1.
    9900012    2    1    2    0    0  0.19832862036E+00  0.25696375993E+00  0.11347285103E+01  0.90007757056E+02  0.90000018649E+02 0.  0.
         12    1    1    2    0    0 -0.19832862036E+00 -0.25696375993E+00 -0.11347285103E+01  0.11802429444E+01  0.00000000000E+00 0. -1.
         11    1    3    3    0    0 -0.59374917750E+01 -0.38626469113E+02  0.67059214294E+01  0.39651321632E+02  0.51100000000E-03 0. -1.
        -11    1    3    3    0    0 -0.62274147911E+01 -0.11407058777E+01 -0.56210558092E+01  0.84662963302E+01  0.51100000000E-03 0.  1.
        -12    1    3    3    0    0  0.12363235186E+02  0.40024138750E+02  0.49862890158E-01  0.41890139094E+02  0.00000000000E+00 0.  1.
</event>
<event>
 7    1  0.2285268E-015  0.9000770E+02  0.7816164E-02  0.1186339E+00
        -11   -1    0    0    0    0  0.00000000000E+00  0.00000000000E+00  0.45593999997E+02  0.45594000000E+02  0.51100000000E-03 0. -1.
         11   -1    0    0    0    0 -0.00000000000E+00 -0.00000000000E+00 -0.45593999997E+02  0.45594000000E+02  0.51100000000E-03 0.  1.
    9900012    2    1    2    0    0  0.97534069273E+00 -0.29412675674E-01 -0.66404586043E+00  0.90007698565E+02  0.89999959386E+02 0.  0.
         12    1    1    2    0    0 -0.97534069273E+00  0.29412675674E-01  0.66404586043E+00  0.11803014349E+01  0.00000000000E+00 0. -1.
         11    1    3    3    0    0  0.10566018094E+01 -0.98143984616E+01 -0.11291046091E+02  0.14997551355E+02  0.51100000000E-03 0. -1.
        -11    1    3    3    0    0 -0.32199143540E+02 -0.10046089620E+02 -0.51087371862E+01  0.34114629666E+02  0.51100000000E-03 0.  1.
         12    1    3    3    0    0  0.32117882424E+02  0.19831075405E+02  0.15735737417E+02  0.40895517544E+02  0.00000000000E+00 0. -1.
</event>
<event>
 7    1  0.2285268E-015  0.9000811E+02  0.7816164E-02  0.1186338E+00
        -11   -1    0    0    0    0  0.00000000000E+00  0.00000000000E+00  0.45593999997E+02  0.45594000000E+02  0.51100000000E-03 0. -1.
         11   -1    0    0    0    0 -0.00000000000E+00 -0.00000000000E+00 -0.45593999997E+02  0.45594000000E+02  0.51100000000E-03 0.  1.
    9900012    2    1    2    0    0 -0.13239841926E+00 -0.70373907433E+00 -0.93773952805E+00  0.90008112951E+02  0.90000379241E+02 0.  0.
         12    1    1    2    0    0  0.13239841926E+00  0.70373907433E+00  0.93773952805E+00  0.11798870491E+01  0.00000000000E+00 0. -1.
         11    1    3    3    0    0  0.24296517492E+02  0.28843139229E+02  0.70511797508E+01  0.38366216636E+02  0.51100000000E-03 0. -1.
        -11    1    3    3    0    0  0.54447787179E+01  0.25001071447E+01  0.26592433183E+01  0.65549772165E+01  0.51100000000E-03 0.  1.
        -12    1    3    3    0    0 -0.29873694629E+02 -0.32046985448E+02 -0.10648162597E+02  0.45086919098E+02  0.00000000000E+00 0.  1.
</event>
<event>
 7    1  0.2285268E-015  0.9000774E+02  0.7816164E-02  0.1186339E+00
        -11   -1    0    0    0    0  0.00000000000E+00  0.00000000000E+00  0.45593999997E+02  0.45594000000E+02  0.51100000000E-03 0.  1.
         11   -1    0    0    0    0 -0.00000000000E+00 -0.00000000000E+00 -0.45593999997E+02  0.45594000000E+02  0.51100000000E-03 0. -1.
    9900012    2    1    2    0    0 -0.79322570910E+00 -0.70108713101E+00  0.52180276992E+00  0.90007742265E+02  0.90000003663E+02 0.  0.
         12    1    1    2    0    0  0.79322570910E+00  0.70108713101E+00 -0.52180276992E+00  0.11802577352E+01  0.00000000000E+00 0. -1.
         11    1    3    3    0    0 -0.10143828019E+02 -0.25644416153E+02 -0.20853365890E+02  0.34574502107E+02  0.51100000000E-03 0. -1.
        -11    1    3    3    0    0 -0.61033239230E+01 -0.73694299200E+01 -0.51465207885E+01  0.10864885491E+02  0.51100000000E-03 0.  1.
        -12    1    3    3    0    0  0.15453926233E+02  0.32312758942E+02  0.26521689449E+02  0.44568354667E+02  0.00000000000E+00 0.  1.
</event>
<event>
 7    1  0.2285268E-015  0.9000778E+02  0.7816164E-02  0.1186339E+00
        -11   -1    0    0    0    0  0.00000000000E+00  0.00000000000E+00  0.45593999997E+02  0.45594000000E+02  0.51100000000E-03 0.  1.
         11   -1    0    0    0    0 -0.00000000000E+00 -0.00000000000E+00 -0.45593999997E+02  0.45594000000E+02  0.51100000000E-03 0. -1.
    9900012    2    1    2    0    0  0.46987133463E+00  0.10731288433E+01 -0.14331646878E+00  0.90007777904E+02  0.90000039772E+02 0.  0.
         12    1    1    2    0    0 -0.46987133463E+00 -0.10731288433E+01  0.14331646878E+00  0.11802220959E+01  0.00000000000E+00 0. -1.
         11    1    3    3    0    0 -0.43355728825E+01  0.58836130236E+00 -0.13213544202E+02  0.13919091633E+02  0.51100000000E-03 0. -1.
        -11    1    3    3    0    0  0.33135503311E+02  0.11501883738E+02 -0.11596808475E+02  0.36942399438E+02  0.51100000000E-03 0.  1.
         12    1    3    3    0    0 -0.28330059094E+02 -0.11017116197E+02  0.24667036208E+02  0.39146286833E+02  0.00000000000E+00 0. -1.
</event>
<event>
 7    1  0.2666619E-015  0.9000767E+02  0.7816164E-02  0.1186339E+00
        -11   -1    0    0    0    0  0.00000000000E+00  0.00000000000E+00  0.45593999997E+02  0.45594000000E+02  0.51100000000E-03 0.  1.
         11   -1    0    0    0    0 -0.00000000000E+00 -0.00000000000E+00 -0.45593999997E+02  0.45594000000E+02  0.51100000000E-03 0. -1.
    9900012    2    1    2    0    0  0.10994140692E+00  0.76166358840E+00  0.89496466779E+00  0.90007669414E+02  0.89999929851E+02 0.  0.
         12    1    1    2    0    0 -0.10994140692E+00 -0.76166358840E+00 -0.89496466779E+00  0.11803305857E+01  0.00000000000E+00 0. -1.
         11    1    3    3    0    0 -0.59993756630E+01  0.76602231044E+01 -0.96139717255E+00  0.97773110383E+01  0.51100000000E-03 0. -1.
        -11    1    3    3    0    0  0.18723262078E+02  0.31994469029E+02  0.10311896962E+02  0.38477809325E+02  0.51100000000E-03 0.  1.
         12    1    3    3    0    0 -0.12613945008E+02 -0.38893028545E+02 -0.84555351214E+01  0.41752549051E+02  0.00000000000E+00 0. -1.
</event>
<event>
 7    1  0.2285268E-015  0.9000774E+02  0.7816164E-02  0.1186339E+00
        -11   -1    0    0    0    0  0.00000000000E+00  0.00000000000E+00  0.45593999997E+02  0.45594000000E+02  0.51100000000E-03 0.  1.
         11   -1    0    0    0    0 -0.00000000000E+00 -0.00000000000E+00 -0.45593999997E+02  0.45594000000E+02  0.51100000000E-03 0. -1.
    9900012    2    1    2    0    0 -0.43772084073E+00  0.14628536336E+00  0.10862861961E+01  0.90007738740E+02  0.90000000091E+02 0.  0.
         12    1    1    2    0    0  0.43772084073E+00 -0.14628536336E+00 -0.10862861961E+01  0.11802612599E+01  0.00000000000E+00 0. -1.
         11    1    3    3    0    0  0.15550381249E+02 -0.35839189786E+02  0.80759347799E+01  0.39893390484E+02  0.51100000000E-03 0. -1.
        -11    1    3    3    0    0  0.20120438196E+01  0.18302540914E+00 -0.97400484994E+01  0.99473797386E+01  0.51100000000E-03 0.  1.
        -12    1    3    3    0    0 -0.18000145909E+02  0.35802449740E+02  0.27503999155E+01  0.40166968517E+02  0.00000000000E+00 0.  1.
</event>
<event>
 7    1  0.2285268E-015  0.9000772E+02  0.7816164E-02  0.1186339E+00
        -11   -1    0    0    0    0  0.00000000000E+00  0.00000000000E+00  0.45593999997E+02  0.45594000000E+02  0.51100000000E-03 0.  1.
         11   -1    0    0    0    0 -0.00000000000E+00 -0.00000000000E+00 -0.45593999997E+02  0.45594000000E+02  0.51100000000E-03 0. -1.
    9900012    2    1    2    0    0 -0.50793005717E+00 -0.49902826794E+00 -0.94129999553E+00  0.90007717052E+02  0.89999978117E+02 0.  0.
         12    1    1    2    0    0  0.50793005717E+00  0.49902826794E+00  0.94129999553E+00  0.11802829477E+01  0.00000000000E+00 0. -1.
         11    1    3    3    0    0 -0.11715680720E+02  0.99405928805E+01 -0.34742927459E+02  0.37988729516E+02  0.51100000000E-03 0. -1.
        -11    1    3    3    0    0 -0.18130546086E+01 -0.94752599926E+00 -0.74532834894E+01  0.77289331455E+01  0.51100000000E-03 0.  1.
        -12    1    3    3    0    0  0.13020805271E+02 -0.94920951491E+01  0.41254910953E+02  0.44290054391E+02  0.00000000000E+00 0.  1.
</event>
<event>
 7    1  0.2285268E-015  0.9000791E+02  0.7816164E-02  0.1186339E+00
        -11   -1    0    0    0    0  0.00000000000E+00  0.00000000000E+00  0.45593999997E+02  0.45594000000E+02  0.51100000000E-03 0. -1.
         11   -1    0    0    0    0 -0.00000000000E+00 -0.00000000000E+00 -0.45593999997E+02  0.45594000000E+02  0.51100000000E-03 0.  1.
    9900012    2    1    2    0    0  0.36113597608E-01  0.66179932407E+00 -0.97638781122E+00  0.90007908607E+02  0.90000172201E+02 0.  0.
         12    1    1    2    0    0 -0.36113597608E-01 -0.66179932407E+00  0.97638781122E+00  0.11800913927E+01  0.00000000000E+00 0. -1.
         11    1    3    3    0    0 -0.19554983538E+02  0.14117021991E+01  0.16804742936E+01  0.19677761010E+02  0.51100000000E-03 0. -1.
        -11    1    3    3    0    0 -0.33562966425E+01  0.26431142518E+02 -0.17401911950E+02  0.31822893673E+02  0.51100000000E-03 0.  1.
        -12    1    3    3    0    0  0.22947393778E+02 -0.27181045393E+02  0.14745049845E+02  0.38507253924E+02  0.00000000000E+00 0.  1.
</event>
<event>
 7    1  0.2285268E-015  0.9000776E+02  0.7816164E-02  0.1186339E+00
        -11   -1    0    0    0    0  0.00000000000E+00  0.00000000000E+00  0.45593999997E+02  0.45594000000E+02  0.51100000000E-03 0. -1.
         11   -1    0    0    0    0 -0.00000000000E+00 -0.00000000000E+00 -0.45593999997E+02  0.45594000000E+02  0.51100000000E-03 0.  1.
    9900012    2    1    2    0    0 -0.49377185374E+00 -0.66586290876E+00  0.84010998828E+00  0.90007758987E+02  0.90000020605E+02 0.  0.
         12    1    1    2    0    0  0.49377185374E+00  0.66586290876E+00 -0.84010998828E+00  0.11802410132E+01  0.00000000000E+00 0. -1.
         11    1    3    3    0    0  0.73207847348E+01 -0.49793681037E+01 -0.30630036063E+01  0.93685637747E+01  0.51100000000E-03 0. -1.
        -11    1    3    3    0    0 -0.39774351240E+02 -0.98807770834E+01 -0.11292077005E+02  0.42510466661E+02  0.51100000000E-03 0.  1.
         12    1    3    3    0    0  0.31959794652E+02  0.14194282278E+02  0.15195190600E+02  0.38128728551E+02  0.00000000000E+00 0. -1.
</event>
<event>
 7    1  0.2285268E-015  0.9000836E+02  0.7816164E-02  0.1186338E+00
        -11   -1    0    0    0    0  0.00000000000E+00  0.00000000000E+00  0.45593999997E+02  0.45594000000E+02  0.51100000000E-03 0. -1.
         11   -1    0    0    0    0 -0.00000000000E+00 -0.00000000000E+00 -0.45593999997E+02  0.45594000000E+02  0.51100000000E-03 0.  1.
    9900012    2    1    2    0    0 -0.29113212679E+00  0.28076028624E+00 -0.11081332981E+01  0.90008362912E+02  0.90000632500E+02 0.  0.
         12    1    1    2    0    0  0.29113212679E+00 -0.28076028624E+00  0.11081332981E+01  0.11796370882E+01  0.00000000000E+00 0. -1.
         11    1    3    3    0    0  0.20676413910E+02  0.13450193297E+01  0.30012717266E+02  0.36470349150E+02  0.51100000000E-03 0. -1.
        -11    1    3    3    0    0  0.84504616044E+01 -0.45657148881E+01  0.12163662950E+01  0.96817147754E+01  0.51100000000E-03 0.  1.
        -12    1    3    3    0    0 -0.29418007641E+02  0.35014558447E+01 -0.32337216859E+02  0.43856298986E+02  0.00000000000E+00 0.  1.
</event>
<event>
 7    1  0.2285268E-015  0.9000773E+02  0.7816164E-02  0.1186339E+00
        -11   -1    0    0    0    0  0.00000000000E+00  0.00000000000E+00  0.45593999997E+02  0.45594000000E+02  0.51100000000E-03 0. -1.
         11   -1    0    0    0    0 -0.00000000000E+00 -0.00000000000E+00 -0.45593999997E+02  0.45594000000E+02  0.51100000000E-03 0.  1.
    9900012    2    1    2    0    0 -0.83993167913E+00 -0.82353061242E+00  0.96728047870E-01  0.90007727061E+02  0.89999988258E+02 0.  0.
         12    1    1    2    0    0  0.83993167913E+00  0.82353061242E+00 -0.96728047870E-01  0.11802729390E+01  0.00000000000E+00 0. -1.
         11    1    3    3    0    0  0.35139187194E+02  0.15322421900E+02 -0.51435930194E+01  0.38678102835E+02  0.51100000000E-03 0. -1.
        -11    1    3    3    0    0 -0.47344804294E+01  0.66253638356E+01 -0.70396223404E+01  0.10764155046E+02  0.51100000000E-03 0.  1.
        -12    1    3    3    0    0 -0.31244638444E+02 -0.22771316348E+02  0.12279943408E+02  0.40565469180E+02  0.00000000000E+00 0.  1.
</event>
<event>
 7    1  0.2285268E-015  0.9000784E+02  0.7816164E-02  0.1186339E+00
        -11   -1    0    0    0    0  0.00000000000E+00  0.00000000000E+00  0.45593999997E+02  0.45594000000E+02  0.51100000000E-03 0.  1.
         11   -1    0    0    0    0 -0.00000000000E+00 -0.00000000000E+00 -0.45593999997E+02  0.45594000000E+02  0.51100000000E-03 0. -1.
    9900012    2    1    2    0    0 -0.67206302026E+00 -0.31096254671E+00  0.91892070763E+00  0.90007838284E+02  0.90000100949E+02 0.  0.
         12    1    1    2    0    0  0.67206302026E+00  0.31096254671E+00 -0.91892070763E+00  0.11801617159E+01  0.00000000000E+00 0. -1.
         11    1    3    3    0    0 -0.93619638582E+01  0.10648122921E+01 -0.46395294091E+01  0.10502638997E+02  0.51100000000E-03 0. -1.
        -11    1    3    3    0    0  0.54801140382E+01  0.63204401954E+01  0.41640321311E+02  0.42472296538E+02  0.51100000000E-03 0.  1.
         12    1    3    3    0    0  0.32097867997E+01 -0.76962150343E+01 -0.36081871194E+02  0.37032902749E+02  0.00000000000E+00 0. -1.
</event>
<event>
 7    1  0.2285268E-015  0.9000782E+02  0.7816164E-02  0.1186339E+00
        -11   -1    0    0    0    0  0.00000000000E+00  0.00000000000E+00  0.45593999997E+02  0.45594000000E+02  0.51100000000E-03 0. -1.
         11   -1    0    0    0    0 -0.00000000000E+00 -0.00000000000E+00 -0.45593999997E+02  0.45594000000E+02  0.51100000000E-03 0.  1.
    9900012    2    1    2    0    0  0.91329106289E+00  0.25394458003E+00  0.70302275621E+00  0.90007818060E+02  0.90000080459E+02 0.  0.
         12    1    1    2    0    0 -0.91329106289E+00 -0.25394458003E+00 -0.70302275621E+00  0.11801819398E+01  0.00000000000E+00 0. -1.
         11    1    3    3    0    0 -0.28092676026E+02  0.23854774477E+02  0.19278563457E+02  0.41592207453E+02  0.51100000000E-03 0. -1.
        -11    1    3    3    0    0  0.11110897310E+02  0.38838241394E+01 -0.66430601369E+01  0.13515412581E+02  0.51100000000E-03 0.  1.
        -12    1    3    3    0    0  0.17895069779E+02 -0.27484654036E+02 -0.11932480564E+02  0.34900198026E+02  0.00000000000E+00 0.  1.
</event>
<event>
 7    1  0.2285268E-015  0.9000777E+02  0.7816164E-02  0.1186339E+00
        -11   -1    0    0    0    0  0.00000000000E+00  0.00000000000E+00  0.45593999997E+02  0.45594000000E+02  0.51100000000E-03 0.  1.
         11   -1    0    0    0    0 -0.00000000000E+00 -0.00000000000E+00 -0.45593999997E+02  0.45594000000E+02  0.51100000000E-03 0. -1.
    9900012    2    1    2    0    0  0.52865061341E+00  0.98739136036E+00  0.37220715684E+00  0.90007766406E+02  0.90000028122E+02 0.  0.
         12    1    1    2    0    0 -0.52865061341E+00 -0.98739136036E+00 -0.37220715684E+00  0.11802335943E+01  0.00000000000E+00 0. -1.
         11    1    3    3    0    0  0.27416236375E+02  0.18739462288E+02 -0.25430612785E+02  0.41827425581E+02  0.51100000000E-03 0. -1.
        -11    1    3    3    0    0 -0.25395125980E+01  0.57983675740E+01  0.69997140700E+01  0.94374884414E+01  0.51100000000E-03 0.  1.
        -12    1    3    3    0    0 -0.24348073164E+02 -0.23550438502E+02  0.18803105871E+02  0.38742852384E+02  0.00000000000E+00 0.  1.
</event>
<event>
 7    1  0.2285268E-015  0.9000769E+02  0.7816164E-02  0.1186339E+00
        -11   -1    0    0    0    0  0.00000000000E+00  0.00000000000E+00  0.45593999997E+02  0.45594000000E+02  0.51100000000E-03 0. -1.
         11   -1    0    0    0    0 -0.00000000000E+00 -0.00000000000E+00 -0.45593999997E+02  0.45594000000E+02  0.51100000000E-03 0.  1.
    9900012    2    1    2    0    0  0.47726170228E+00 -0.63508898068E+00 -0.87292918858E+00  0.90007694059E+02  0.89999954821E+02 0.  0.
         12    1    1    2    0    0 -0.47726170228E+00  0.63508898068E+00  0.87292918858E+00  0.11803059409E+01  0.00000000000E+00 0. -1.
         11    1    3    3    0    0 -0.27936502559E+02 -0.17008176661E+02  0.20889604626E+02  0.38808527803E+02  0.51100000000E-03 0. -1.
        -11    1    3    3    0    0  0.28065563035E+01 -0.22112019414E+01  0.73695748423E+01  0.81900430968E+01  0.51100000000E-03 0.  1.
        -12    1    3    3    0    0  0.25607207957E+02  0.18584289622E+02 -0.29132108657E+02  0.43009123159E+02  0.00000000000E+00 0.  1.
</event>
<event>
 7    1  0.2285268E-015  0.9000761E+02  0.7816164E-02  0.1186339E+00
        -11   -1    0    0    0    0  0.00000000000E+00  0.00000000000E+00  0.45593999997E+02  0.45594000000E+02  0.51100000000E-03 0. -1.
         11   -1    0    0    0    0 -0.00000000000E+00 -0.00000000000E+00 -0.45593999997E+02  0.45594000000E+02  0.51100000000E-03 0.  1.
    9900012    2    1    2    0    0  0.10830079297E+01 -0.43296750948E+00  0.18152085594E+00  0.90007611563E+02  0.89999871236E+02 0.  0.
         12    1    1    2    0    0 -0.10830079297E+01  0.43296750948E+00 -0.18152085594E+00  0.11803884366E+01  0.00000000000E+00 0. -1.
         11    1    3    3    0    0 -0.84343497895E+00 -0.94639930248E+01  0.22079855223E+01  0.97546782041E+01  0.51100000000E-03 0. -1.
        -11    1    3    3    0    0 -0.30823010243E+02  0.19320415489E+02 -0.19990847478E+02  0.41508678590E+02  0.51100000000E-03 0.  1.
         12    1    3    3    0    0  0.32749453152E+02 -0.10289389974E+02  0.17964382812E+02  0.38744254769E+02  0.00000000000E+00 0. -1.
</event>
<event>
 7    1  0.2285268E-015  0.9000765E+02  0.7816164E-02  0.1186339E+00
        -11   -1    0    0    0    0  0.00000000000E+00  0.00000000000E+00  0.45593999997E+02  0.45594000000E+02  0.51100000000E-03 0.  1.
         11   -1    0    0    0    0 -0.00000000000E+00 -0.00000000000E+00 -0.45593999997E+02  0.45594000000E+02  0.51100000000E-03 0. -1.
    9900012    2    1    2    0    0  0.99394107298E+00  0.63185214129E+00  0.77871766871E-01  0.90007652595E+02  0.89999912809E+02 0.  0.
         12    1    1    2    0    0 -0.99394107298E+00 -0.63185214129E+00 -0.77871766871E-01  0.11803474053E+01  0.00000000000E+00 0. -1.
         11    1    3    3    0    0 -0.65651484972E+01  0.95604557994E+01 -0.80723145252E+00  0.11625623113E+02  0.51100000000E-03 0. -1.
        -11    1    3    3    0    0 -0.19455568977E+02  0.24109969154E+02  0.13624139200E+02  0.33844156749E+02  0.51100000000E-03 0.  1.
         12    1    3    3    0    0  0.27014658547E+02 -0.33038572812E+02 -0.12739035981E+02  0.44537872733E+02  0.00000000000E+00 0. -1.
</event>
<event>
 7    1  0.2435243E-015  0.9000773E+02  0.7816164E-02  0.1186339E+00
        -11   -1    0    0    0    0  0.00000000000E+00  0.00000000000E+00  0.45593999997E+02  0.45594000000E+02  0.51100000000E-03 0.  1.
         11   -1    0    0    0    0 -0.00000000000E+00 -0.00000000000E+00 -0.45593999997E+02  0.45594000000E+02  0.51100000000E-03 0. -1.
    9900012    2    1    2    0    0  0.67115034681E+00 -0.96616005904E+00  0.95600574656E-01  0.90007725660E+02  0.89999986839E+02 0.  0.
         12    1    1    2    0    0 -0.67115034681E+00  0.96616005904E+00 -0.95600574656E-01  0.11802743400E+01  0.00000000000E+00 0. -1.
         11    1    3    3    0    0  0.18874307130E+01  0.74289981865E+01  0.59305836509E+01  0.96914514626E+01  0.51100000000E-03 0. -1.
        -11    1    3    3    0    0 -0.25507535336E+02  0.18247014058E+02  0.18878263439E+02  0.36605692340E+02  0.51100000000E-03 0.  1.
         12    1    3    3    0    0  0.24291254970E+02 -0.26642172303E+02 -0.24713246515E+02  0.43710581858E+02  0.00000000000E+00 0. -1.
</event>
<event>
 7    1  0.2285268E-015  0.9000759E+02  0.7816164E-02  0.1186339E+00
        -11   -1    0    0    0    0  0.00000000000E+00  0.00000000000E+00  0.45593999997E+02  0.45594000000E+02  0.51100000000E-03 0.  1.
         11   -1    0    0    0    0 -0.00000000000E+00 -0.00000000000E+00 -0.45593999997E+02  0.45594000000E+02  0.51100000000E-03 0. -1.
    9900012    2    1    2    0    0  0.88634870038E+00  0.23402078831E-01 -0.77923063057E+00  0.90007592421E+02  0.89999851841E+02 0.  0.
         12    1    1    2    0    0 -0.88634870038E+00 -0.23402078831E-01  0.77923063057E+00  0.11804075786E+01  0.00000000000E+00 0. -1.
         11    1    3    3    0    0  0.24530532889E+02 -0.44369731622E+01 -0.12147564478E+01  0.24958153140E+02  0.51100000000E-03 0. -1.
        -11    1    3    3    0    0  0.19796934157E+02 -0.50803212774E+01 -0.17950597928E+01  0.20517078404E+02  0.51100000000E-03 0.  1.
        -12    1    3    3    0    0 -0.43441118346E+02  0.95406965184E+01  0.22305856100E+01  0.44532360878E+02  0.00000000000E+00 0.  1.
</event>
<event>
 7    1  0.2285268E-015  0.9000747E+02  0.7816164E-02  0.1186340E+00
        -11   -1    0    0    0    0  0.00000000000E+00  0.00000000000E+00  0.45593999997E+02  0.45594000000E+02  0.51100000000E-03 0.  1.
         11   -1    0    0    0    0 -0.00000000000E+00 -0.00000000000E+00 -0.45593999997E+02  0.45594000000E+02  0.51100000000E-03 0. -1.
    9900012    2    1    2    0    0 -0.50920854218E+00 -0.10373349184E+01 -0.24142101407E+00  0.90007474194E+02  0.89999732053E+02 0.  0.
         12    1    1    2    0    0  0.50920854218E+00  0.10373349184E+01  0.24142101407E+00  0.11805258059E+01  0.00000000000E+00 0. -1.
         11    1    3    3    0    0  0.18378116995E+01 -0.88924894801E+00 -0.10283740503E+02  0.10484447269E+02  0.51100000000E-03 0. -1.
        -11    1    3    3    0    0 -0.24116261144E+02  0.15918053241E+02 -0.22917439104E+02  0.36880719704E+02  0.51100000000E-03 0.  1.
         12    1    3    3    0    0  0.21769240902E+02 -0.16066139211E+02  0.32959758593E+02  0.42642307221E+02  0.00000000000E+00 0. -1.
</event>
<event>
 7    1  0.2285268E-015  0.9000774E+02  0.7816164E-02  0.1186339E+00
        -11   -1    0    0    0    0  0.00000000000E+00  0.00000000000E+00  0.45593999997E+02  0.45594000000E+02  0.51100000000E-03 0. -1.
         11   -1    0    0    0    0 -0.00000000000E+00 -0.00000000000E+00 -0.45593999997E+02  0.45594000000E+02  0.51100000000E-03 0.  1.
    9900012    2    1    2    0    0 -0.50771186231E+00  0.69624092944E+00 -0.80653459115E+00  0.90007736973E+02  0.89999998301E+02 0.  0.
         12    1    1    2    0    0  0.50771186231E+00 -0.69624092944E+00  0.80653459115E+00  0.11802630273E+01  0.00000000000E+00 0. -1.
         11    1    3    3    0    0  0.14358234634E+02 -0.81063616678E+01 -0.81473131829E+01  0.18391593560E+02  0.51100000000E-03 0. -1.
        -11    1    3    3    0    0 -0.96764087350E+01 -0.13038489948E+02  0.33450178489E+02  0.37182651160E+02  0.51100000000E-03 0.  1.
        -12    1    3    3    0    0 -0.51895377617E+01  0.21841092545E+02 -0.26109399897E+02  0.34433492253E+02  0.00000000000E+00 0.  1.
</event>
<event>
 7    1  0.2285268E-015  0.9000764E+02  0.7816164E-02  0.1186339E+00
        -11   -1    0    0    0    0  0.00000000000E+00  0.00000000000E+00  0.45593999997E+02  0.45594000000E+02  0.51100000000E-03 0. -1.
         11   -1    0    0    0    0 -0.00000000000E+00 -0.00000000000E+00 -0.45593999997E+02  0.45594000000E+02  0.51100000000E-03 0.  1.
    9900012    2    1    2    0    0  0.92614126597E+00 -0.96989383126E-01 -0.72532415164E+00  0.90007644244E+02  0.89999904348E+02 0.  0.
         12    1    1    2    0    0 -0.92614126597E+00  0.96989383126E-01  0.72532415164E+00  0.11803557557E+01  0.00000000000E+00 0. -1.
         11    1    3    3    0    0 -0.56990894024E+01  0.50836719547E+01 -0.26973522592E+01  0.80993240478E+01  0.51100000000E-03 0. -1.
        -11    1    3    3    0    0  0.15621752016E+02  0.35038777086E+02 -0.86958993024E+01  0.39336671195E+02  0.51100000000E-03 0.  1.
         12    1    3    3    0    0 -0.89965213472E+01 -0.40219438424E+02  0.10667927410E+02  0.42571649002E+02  0.00000000000E+00 0. -1.
</event>
<event>
 7    1  0.2285268E-015  0.9000804E+02  0.7816164E-02  0.1186338E+00
        -11   -1    0    0    0    0  0.00000000000E+00  0.00000000000E+00  0.45593999997E+02  0.45594000000E+02  0.51100000000E-03 0.  1.
         11   -1    0    0    0    0 -0.00000000000E+00 -0.00000000000E+00 -0.45593999997E+02  0.45594000000E+02  0.51100000000E-03 0. -1.
    9900012    2    1    2    0    0  0.68663701266E+00  0.31116046374E+00  0.90775851910E+00  0.90008035276E+02  0.90000300541E+02 0.  0.
         12    1    1    2    0    0 -0.68663701266E+00 -0.31116046374E+00 -0.90775851910E+00  0.11799647242E+01  0.00000000000E+00 0. -1.
         11    1    3    3    0    0  0.17700808249E+02  0.14394161065E+02 -0.21298983197E+02  0.31211491008E+02  0.51100000000E-03 0. -1.
        -11    1    3    3    0    0  0.98739987932E+01 -0.20762050641E+02 -0.46824426048E+00  0.22995170187E+02  0.51100000000E-03 0.  1.
         12    1    3    3    0    0 -0.26888170030E+02  0.66790500400E+01  0.22674985977E+02  0.35801374080E+02  0.00000000000E+00 0. -1.
</event>
<event>
 7    1  0.2285268E-015  0.9000742E+02  0.7816164E-02  0.1186340E+00
        -11   -1    0    0    0    0  0.00000000000E+00  0.00000000000E+00  0.45593999997E+02  0.45594000000E+02  0.51100000000E-03 0.  1.
         11   -1    0    0    0    0 -0.00000000000E+00 -0.00000000000E+00 -0.45593999997E+02  0.45594000000E+02  0.51100000000E-03 0. -1.
    9900012    2    1    2    0    0  0.10667847241E+01  0.21947096445E+00  0.45559248497E+00  0.90007423165E+02  0.89999680350E+02 0.  0.
         12    1    1    2    0    0 -0.10667847241E+01 -0.21947096445E+00 -0.45559248497E+00  0.11805768353E+01  0.00000000000E+00 0. -1.
         11    1    3    3    0    0  0.12964152775E+02  0.69434708569E+01 -0.20107203441E+02  0.24911456705E+02  0.51100000000E-03 0. -1.
        -11    1    3    3    0    0  0.15545452352E+02  0.25158951299E+01 -0.13248763091E+02  0.20579614691E+02  0.51100000000E-03 0.  1.
        -12    1    3    3    0    0 -0.27442820402E+02 -0.92398950224E+01  0.33811559016E+02  0.44516351769E+02  0.00000000000E+00 0.  1.
</event>
<event>
 7    1  0.2285268E-015  0.9000771E+02  0.7816164E-02  0.1186339E+00
        -11   -1    0    0    0    0  0.00000000000E+00  0.00000000000E+00  0.45593999997E+02  0.45594000000E+02  0.51100000000E-03 0. -1.
         11   -1    0    0    0    0 -0.00000000000E+00 -0.00000000000E+00 -0.45593999997E+02  0.45594000000E+02  0.51100000000E-03 0.  1.
    9900012    2    1    2    0    0  0.94329024375E-01  0.11681598413E+01  0.13998678672E+00  0.90007706952E+02  0.89999967883E+02 0.  0.
         12    1    1    2    0    0 -0.94329024375E-01 -0.11681598413E+01 -0.13998678672E+00  0.11802930484E+01  0.00000000000E+00 0. -1.
         11    1    3    3    0    0 -0.23267174905E+02 -0.67252804402E+00  0.35753418399E+02  0.42662872026E+02  0.51100000000E-03 0. -1.
        -11    1    3    3    0    0 -0.29199900368E+01  0.34706749841E+01 -0.30441993768E+01  0.54625156080E+01  0.51100000000E-03 0.  1.
        -12    1    3    3    0    0  0.26281493966E+02 -0.16299870988E+01 -0.32569232236E+02  0.41882319318E+02  0.00000000000E+00 0.  1.
</event>
<event>
 7    1  0.2285268E-015  0.9000771E+02  0.7816164E-02  0.1186339E+00
        -11   -1    0    0    0    0  0.00000000000E+00  0.00000000000E+00  0.45593999997E+02  0.45594000000E+02  0.51100000000E-03 0.  1.
         11   -1    0    0    0    0 -0.00000000000E+00 -0.00000000000E+00 -0.45593999997E+02  0.45594000000E+02  0.51100000000E-03 0. -1.
    9900012    2    1    2    0    0 -0.28689635577E+00  0.80932018323E+00  0.80980216484E+00  0.90007708416E+02  0.89999969367E+02 0.  0.
         12    1    1    2    0    0  0.28689635577E+00 -0.80932018323E+00 -0.80980216484E+00  0.11802915844E+01  0.00000000000E+00 0. -1.
         11    1    3    3    0    0  0.38735992896E+02  0.25790775134E+00 -0.85826763552E+01  0.39676264892E+02  0.51100000000E-03 0. -1.
        -11    1    3    3    0    0  0.24349311637E+01 -0.21526718423E+01  0.81420155514E+01  0.87667156525E+01  0.51100000000E-03 0.  1.
        -12    1    3    3    0    0 -0.41457820416E+02  0.27040842741E+01  0.12504629687E+01  0.41564727871E+02  0.00000000000E+00 0.  1.
</event>
<event>
 7    1  0.2285268E-015  0.9000747E+02  0.7816164E-02  0.1186340E+00
        -11   -1    0    0    0    0  0.00000000000E+00  0.00000000000E+00  0.45593999997E+02  0.45594000000E+02  0.51100000000E-03 0. -1.
         11   -1    0    0    0    0 -0.00000000000E+00 -0.00000000000E+00 -0.45593999997E+02  0.45594000000E+02  0.51100000000E-03 0.  1.
    9900012    2    1    2    0    0  0.92894363184E+00  0.49755607450E+00 -0.53211304515E+00  0.90007473587E+02  0.89999731438E+02 0.  0.
         12    1    1    2    0    0 -0.92894363184E+00 -0.49755607450E+00  0.53211304515E+00  0.11805264128E+01  0.00000000000E+00 0. -1.
         11    1    3    3    0    0 -0.10913542027E+02  0.24941638660E+02  0.17700462361E+02  0.32473021212E+02  0.51100000000E-03 0. -1.
        -11    1    3    3    0    0 -0.16128795476E+01  0.83317592677E+01  0.93547232046E+01  0.12630535991E+02  0.51100000000E-03 0.  1.
        -12    1    3    3    0    0  0.13455365206E+02 -0.32775841853E+02 -0.27587298610E+02  0.44903916384E+02  0.00000000000E+00 0.  1.
</event>
<event>
 7    1  0.2285268E-015  0.9000774E+02  0.7816164E-02  0.1186339E+00
        -11   -1    0    0    0    0  0.00000000000E+00  0.00000000000E+00  0.45593999997E+02  0.45594000000E+02  0.51100000000E-03 0. -1.
         11   -1    0    0    0    0 -0.00000000000E+00 -0.00000000000E+00 -0.45593999997E+02  0.45594000000E+02  0.51100000000E-03 0.  1.
    9900012    2    1    2    0    0  0.10557526431E+01  0.52524704950E+00  0.50063904325E-01  0.90007743883E+02  0.90000005303E+02 0.  0.
         12    1    1    2    0    0 -0.10557526431E+01 -0.52524704950E+00 -0.50063904325E-01  0.11802561167E+01  0.00000000000E+00 0. -1.
         11    1    3    3    0    0  0.22610752459E+02 -0.29501405539E+02 -0.29617735968E+01  0.37287412872E+02  0.51100000000E-03 0. -1.
        -11    1    3    3    0    0 -0.47269792488E+01 -0.81333045475E+01 -0.43594830280E+01  0.10368223966E+02  0.51100000000E-03 0.  1.
        -12    1    3    3    0    0 -0.16828020567E+02  0.38159957136E+02  0.73713205292E+01  0.42352107045E+02  0.00000000000E+00 0.  1.
</event>
<event>
 7    1  0.2285268E-015  0.9000820E+02  0.7816164E-02  0.1186338E+00
        -11   -1    0    0    0    0  0.00000000000E+00  0.00000000000E+00  0.45593999997E+02  0.45594000000E+02  0.51100000000E-03 0. -1.
         11   -1    0    0    0    0 -0.00000000000E+00 -0.00000000000E+00 -0.45593999997E+02  0.45594000000E+02  0.51100000000E-03 0.  1.
    9900012    2    1    2    0    0  0.30826237780E+00 -0.77645730108E+00 -0.83307156119E+00  0.90008203467E+02  0.90000470951E+02 0.  0.
         12    1    1    2    0    0 -0.30826237780E+00  0.77645730108E+00  0.83307156119E+00  0.11797965333E+01  0.00000000000E+00 0. -1.
         11    1    3    3    0    0  0.18900074706E+01 -0.52444422906E+01  0.40573790851E+01  0.68948262110E+01  0.51100000000E-03 0. -1.
        -11    1    3    3    0    0  0.28981767174E+01 -0.38965310196E+02 -0.54158047332E+01  0.39446492469E+02  0.51100000000E-03 0.  1.
         12    1    3    3    0    0 -0.44799218103E+01  0.43433295185E+02  0.52535408685E+00  0.43666884787E+02  0.00000000000E+00 0. -1.
</event>
<event>
 7    1  0.2285268E-015  0.9000746E+02  0.7816164E-02  0.1186340E+00
        -11   -1    0    0    0    0  0.00000000000E+00  0.00000000000E+00  0.45593999997E+02  0.45594000000E+02  0.51100000000E-03 0. -1.
         11   -1    0    0    0    0 -0.00000000000E+00 -0.00000000000E+00 -0.45593999997E+02  0.45594000000E+02  0.51100000000E-03 0.  1.
    9900012    2    1    2    0    0 -0.14985204695E+00  0.60008399941E+00 -0.10055435986E+01  0.90007460136E+02  0.89999717809E+02 0.  0.
         12    1    1    2    0    0  0.14985204695E+00 -0.60008399941E+00  0.10055435986E+01  0.11805398642E+01  0.00000000000E+00 0. -1.
         11    1    3    3    0    0 -0.14749224519E+01  0.65514738474E+01 -0.35699611730E+01  0.76053815716E+01  0.51100000000E-03 0. -1.
        -11    1    3    3    0    0 -0.12219591472E+02  0.33164582368E+02 -0.13728013470E+02  0.37916570170E+02  0.51100000000E-03 0.  1.
         12    1    3    3    0    0  0.13544661877E+02 -0.39115972216E+02  0.16292431044E+02  0.44485508394E+02  0.00000000000E+00 0. -1.
</event>
<event>
 7    1  0.2285268E-015  0.9000770E+02  0.7816164E-02  0.1186339E+00
        -11   -1    0    0    0    0  0.00000000000E+00  0.00000000000E+00  0.45593999997E+02  0.45594000000E+02  0.51100000000E-03 0. -1.
         11   -1    0    0    0    0 -0.00000000000E+00 -0.00000000000E+00 -0.45593999997E+02  0.45594000000E+02  0.51100000000E-03 0.  1.
    9900012    2    1    2    0    0 -0.47996537789E+00 -0.10745015578E+01  0.90528487453E-01  0.90007696747E+02  0.89999957544E+02 0.  0.
         12    1    1    2    0    0  0.47996537789E+00  0.10745015578E+01 -0.90528487453E-01  0.11803032529E+01  0.00000000000E+00 0. -1.
         11    1    3    3    0    0  0.80061906440E+01  0.54779140606E+01  0.43629679666E+00  0.97106635324E+01  0.51100000000E-03 0. -1.
        -11    1    3    3    0    0 -0.35472877669E+02  0.93063726284E+01 -0.21506205902E+02  0.42514121350E+02  0.51100000000E-03 0.  1.
         12    1    3    3    0    0  0.26986721647E+02 -0.15858788247E+02  0.21160437593E+02  0.37782911865E+02  0.00000000000E+00 0. -1.
</event>
<event>
 7    1  0.2285268E-015  0.9000774E+02  0.7816164E-02  0.1186339E+00
        -11   -1    0    0    0    0  0.00000000000E+00  0.00000000000E+00  0.45593999997E+02  0.45594000000E+02  0.51100000000E-03 0. -1.
         11   -1    0    0    0    0 -0.00000000000E+00 -0.00000000000E+00 -0.45593999997E+02  0.45594000000E+02  0.51100000000E-03 0.  1.
    9900012    2    1    2    0    0  0.73929047008E+00  0.34652662674E+00 -0.85228630554E+00  0.90007736026E+02  0.89999997341E+02 0.  0.
         12    1    1    2    0    0 -0.73929047008E+00 -0.34652662674E+00  0.85228630554E+00  0.11802639742E+01  0.00000000000E+00 0. -1.
         11    1    3    3    0    0  0.15715731835E+02 -0.37038814875E+02  0.12157286740E+02  0.42031626849E+02  0.51100000000E-03 0. -1.
        -11    1    3    3    0    0 -0.10687541659E+02  0.28055161648E+01 -0.54505987263E+01  0.12320856074E+02  0.51100000000E-03 0.  1.
        -12    1    3    3    0    0 -0.42888997060E+01  0.34579825337E+02 -0.75589743192E+01  0.35655253102E+02  0.00000000000E+00 0.  1.
</event>
<event>
 7    1  0.2285268E-015  0.9000764E+02  0.7816164E-02  0.1186339E+00
        -11   -1    0    0    0    0  0.00000000000E+00  0.00000000000E+00  0.45593999997E+02  0.45594000000E+02  0.51100000000E-03 0.  1.
         11   -1    0    0    0    0 -0.00000000000E+00 -0.00000000000E+00 -0.45593999997E+02  0.45594000000E+02  0.51100000000E-03 0. -1.
    9900012    2    1    2    0    0  0.37012741588E+00  0.11089326335E+01  0.16287309238E+00  0.90007638389E+02  0.89999898415E+02 0.  0.
         12    1    1    2    0    0 -0.37012741588E+00 -0.11089326335E+01 -0.16287309238E+00  0.11803616115E+01  0.00000000000E+00 0. -1.
         11    1    3    3    0    0 -0.29356175359E+01  0.27801606112E+02  0.22859603151E+02  0.36112443966E+02  0.51100000000E-03 0. -1.
        -11    1    3    3    0    0  0.32106647884E+01  0.63005323556E+01  0.66734474825E+01  0.97231670720E+01  0.51100000000E-03 0.  1.
        -12    1    3    3    0    0  0.95080163372E-01 -0.32993205834E+02 -0.29370177541E+02  0.44172027350E+02  0.00000000000E+00 0.  1.
</event>
<event>
 7    1  0.2285268E-015  0.9000771E+02  0.7816164E-02  0.1186339E+00
        -11   -1    0    0    0    0  0.00000000000E+00  0.00000000000E+00  0.45593999997E+02  0.45594000000E+02  0.51100000000E-03 0. -1.
         11   -1    0    0    0    0 -0.00000000000E+00 -0.00000000000E+00 -0.45593999997E+02  0.45594000000E+02  0.51100000000E-03 0.  1.
    9900012    2    1    2    0    0 -0.91764993766E+00 -0.71222400228E+00 -0.20914344290E+00  0.90007709605E+02  0.89999970571E+02 0.  0.
         12    1    1    2    0    0  0.91764993766E+00  0.71222400228E+00  0.20914344290E+00  0.11802903953E+01  0.00000000000E+00 0. -1.
         11    1    3    3    0    0 -0.25062771364E+02 -0.27682410992E+02  0.14518572746E+02  0.40065538080E+02  0.51100000000E-03 0. -1.
        -11    1    3    3    0    0  0.62014280111E+01 -0.17886775650E+01  0.71230497539E+01  0.96122273624E+01  0.51100000000E-03 0.  1.
        -12    1    3    3    0    0  0.17943693415E+02  0.28758864555E+02 -0.21850765943E+02  0.40329944163E+02  0.00000000000E+00 0.  1.
</event>
<event>
 7    1  0.2285268E-015  0.9000790E+02  0.7816164E-02  0.1186339E+00
        -11   -1    0    0    0    0  0.00000000000E+00  0.00000000000E+00  0.45593999997E+02  0.45594000000E+02  0.51100000000E-03 0.  1.
         11   -1    0    0    0    0 -0.00000000000E+00 -0.00000000000E+00 -0.45593999997E+02  0.45594000000E+02  0.51100000000E-03 0. -1.
    9900012    2    1    2    0    0 -0.66066969331E+00  0.41966852802E+00  0.88319162023E+00  0.90007901040E+02  0.90000164534E+02 0.  0.
         12    1    1    2    0    0  0.66066969331E+00 -0.41966852802E+00 -0.88319162023E+00  0.11800989599E+01  0.00000000000E+00 0. -1.
         11    1    3    3    0    0  0.58780669573E+01 -0.75206770471E+01  0.34454091045E+01  0.10148058857E+02  0.51100000000E-03 0. -1.
        -11    1    3    3    0    0  0.17374469210E+02 -0.46650872269E+01  0.31560158689E+02  0.36327384105E+02  0.51100000000E-03 0.  1.
         12    1    3    3    0    0 -0.23913205861E+02  0.12605432802E+02 -0.34122376173E+02  0.43532458079E+02  0.00000000000E+00 0. -1.
</event>
<event>
 7    1  0.2285268E-015  0.9000765E+02  0.7816164E-02  0.1186339E+00
        -11   -1    0    0    0    0  0.00000000000E+00  0.00000000000E+00  0.45593999997E+02  0.45594000000E+02  0.51100000000E-03 0.  1.
         11   -1    0    0    0    0 -0.00000000000E+00 -0.00000000000E+00 -0.45593999997E+02  0.45594000000E+02  0.51100000000E-03 0. -1.
    9900012    2    1    2    0    0 -0.30886182211E+00 -0.10719994122E+01  0.38554017646E+00  0.90007652766E+02  0.89999912983E+02 0.  0.
         12    1    1    2    0    0  0.30886182211E+00  0.10719994122E+01 -0.38554017646E+00  0.11803472339E+01  0.00000000000E+00 0. -1.
         11    1    3    3    0    0 -0.18315555926E+01  0.39755512996E+02 -0.13261019404E+02  0.41948898023E+02  0.51100000000E-03 0. -1.
        -11    1    3    3    0    0 -0.70550114744E+00 -0.80740361440E+01 -0.57410997964E+01  0.99321708935E+01  0.51100000000E-03 0.  1.
        -12    1    3    3    0    0  0.22281949179E+01 -0.32753476264E+02  0.19387659377E+02  0.38126583850E+02  0.00000000000E+00 0.  1.
</event>
<event>
 7    1  0.2285268E-015  0.9000774E+02  0.7816164E-02  0.1186339E+00
        -11   -1    0    0    0    0  0.00000000000E+00  0.00000000000E+00  0.45593999997E+02  0.45594000000E+02  0.51100000000E-03 0.  1.
         11   -1    0    0    0    0 -0.00000000000E+00 -0.00000000000E+00 -0.45593999997E+02  0.45594000000E+02  0.51100000000E-03 0. -1.
    9900012    2    1    2    0    0 -0.61152789852E+00 -0.74935641237E+00  0.67639032851E+00  0.90007743553E+02  0.90000004968E+02 0.  0.
         12    1    1    2    0    0  0.61152789852E+00  0.74935641237E+00 -0.67639032851E+00  0.11802564467E+01  0.00000000000E+00 0. -1.
         11    1    3    3    0    0 -0.47986905494E+00 -0.66255675936E+01  0.10327615187E+02  0.12279578819E+02  0.51100000000E-03 0. -1.
        -11    1    3    3    0    0 -0.44237802435E+01 -0.31419078217E+02  0.12541429128E+02  0.34117675074E+02  0.51100000000E-03 0.  1.
         12    1    3    3    0    0  0.42921213999E+01  0.37295289398E+02 -0.22192653987E+02  0.43610489660E+02  0.00000000000E+00 0. -1.
</event>
<event>
 7    1  0.2285268E-015  0.9000660E+02  0.7816164E-02  0.1186341E+00
        -11   -1    0    0    0    0  0.00000000000E+00  0.00000000000E+00  0.45593999997E+02  0.45594000000E+02  0.51100000000E-03 0. -1.
         11   -1    0    0    0    0 -0.00000000000E+00 -0.00000000000E+00 -0.45593999997E+02  0.45594000000E+02  0.51100000000E-03 0.  1.
    9900012    2    1    2    0    0  0.16486382881E+00 -0.11350379112E+01 -0.28323987699E+00  0.90006595764E+02  0.89998842020E+02 0.  0.
         12    1    1    2    0    0 -0.16486382881E+00  0.11350379112E+01  0.28323987699E+00  0.11814042364E+01  0.00000000000E+00 0. -1.
         11    1    3    3    0    0 -0.12554026154E+02  0.21363224233E+02  0.30450398629E+02  0.39258345600E+02  0.51100000000E-03 0. -1.
        -11    1    3    3    0    0  0.25680046517E+01  0.77191210598E+01 -0.36374622644E+01  0.89112630874E+01  0.51100000000E-03 0.  1.
        -12    1    3    3    0    0  0.10150885331E+02 -0.30217383204E+02 -0.27096176242E+02  0.41836987076E+02  0.00000000000E+00 0.  1.
</event>
<event>
 7    1  0.2285268E-015  0.9000747E+02  0.7816164E-02  0.1186340E+00
        -11   -1    0    0    0    0  0.00000000000E+00  0.00000000000E+00  0.45593999997E+02  0.45594000000E+02  0.51100000000E-03 0. -1.
         11   -1    0    0    0    0 -0.00000000000E+00 -0.00000000000E+00 -0.45593999997E+02  0.45594000000E+02  0.51100000000E-03 0.  1.
    9900012    2    1    2    0    0 -0.35438772592E+00 -0.84968963294E+00  0.73898245389E+00  0.90007466985E+02  0.89999724749E+02 0.  0.
         12    1    1    2    0    0  0.35438772592E+00  0.84968963294E+00 -0.73898245389E+00  0.11805330151E+01  0.00000000000E+00 0. -1.
         11    1    3    3    0    0  0.26783508544E+02  0.29308012060E+02 -0.85029840879E+01  0.40603160462E+02  0.51100000000E-03 0. -1.
        -11    1    3    3    0    0  0.32624210498E+01  0.14915906711E+01  0.37297805733E+01  0.51748910348E+01  0.51100000000E-03 0.  1.
        -12    1    3    3    0    0 -0.30400317320E+02 -0.31649292364E+02  0.55121859685E+01  0.44229415488E+02  0.00000000000E+00 0.  1.
</event>
<event>
 7    1  0.4160200E-015  0.9000773E+02  0.7816164E-02  0.1186339E+00
        -11   -1    0    0    0    0  0.00000000000E+00  0.00000000000E+00  0.45593999997E+02  0.45594000000E+02  0.51100000000E-03 0. -1.
         11   -1    0    0    0    0 -0.00000000000E+00 -0.00000000000E+00 -0.45593999997E+02  0.45594000000E+02  0.51100000000E-03 0.  1.
    9900012    2    1    2    0    0  0.19580118990E-01  0.32557820450E+00 -0.11343045090E+01  0.90007732544E+02  0.89999993814E+02 0.  0.
         12    1    1    2    0    0 -0.19580118990E-01 -0.32557820450E+00  0.11343045090E+01  0.11802674559E+01  0.00000000000E+00 0. -1.
         11    1    3    3    0    0  0.78151983380E+01  0.44792713661E+01  0.32615043572E+01  0.95801152377E+01  0.51100000000E-03 0. -1.
        -11    1    3    3    0    0  0.19148692326E+02 -0.27893893555E+02 -0.22077212018E+02  0.40399814433E+02  0.51100000000E-03 0.  1.
         12    1    3    3    0    0 -0.26944310545E+02  0.23740200394E+02  0.17681403151E+02  0.40027802874E+02  0.00000000000E+00 0. -1.
</event>
<event>
 7    1  0.2285268E-015  0.9000774E+02  0.7816164E-02  0.1186339E+00
        -11   -1    0    0    0    0  0.00000000000E+00  0.00000000000E+00  0.45593999997E+02  0.45594000000E+02  0.51100000000E-03 0. -1.
         11   -1    0    0    0    0 -0.00000000000E+00 -0.00000000000E+00 -0.45593999997E+02  0.45594000000E+02  0.51100000000E-03 0.  1.
    9900012    2    1    2    0    0  0.85754411800E+00  0.38400613561E+00 -0.71425815650E+00  0.90007742680E+02  0.90000004084E+02 0.  0.
         12    1    1    2    0    0 -0.85754411800E+00 -0.38400613561E+00  0.71425815650E+00  0.11802573197E+01  0.00000000000E+00 0. -1.
         11    1    3    3    0    0  0.58962486608E+01 -0.30056538732E+02  0.16424405129E+02  0.34755177354E+02  0.51100000000E-03 0. -1.
        -11    1    3    3    0    0  0.59161934155E+01 -0.88636501337E+01  0.78801633980E+00  0.10685813410E+02  0.51100000000E-03 0.  1.
        -12    1    3    3    0    0 -0.10954897958E+02  0.39304195001E+02 -0.17926679625E+02  0.44566751916E+02  0.00000000000E+00 0.  1.
</event>
<event>
 7    1  0.2285268E-015  0.9000761E+02  0.7816164E-02  0.1186339E+00
        -11   -1    0    0    0    0  0.00000000000E+00  0.00000000000E+00  0.45593999997E+02  0.45594000000E+02  0.51100000000E-03 0. -1.
         11   -1    0    0    0    0 -0.00000000000E+00 -0.00000000000E+00 -0.45593999997E+02  0.45594000000E+02  0.51100000000E-03 0.  1.
    9900012    2    1    2    0    0  0.79424853916E+00 -0.79224083463E+00  0.36721696645E+00  0.90007608293E+02  0.89999867922E+02 0.  0.
         12    1    1    2    0    0 -0.79424853916E+00  0.79224083463E+00 -0.36721696645E+00  0.11803917072E+01  0.00000000000E+00 0. -1.
         11    1    3    3    0    0  0.44382033548E+01 -0.15284674388E+01 -0.15808190753E+02  0.16490383770E+02  0.51100000000E-03 0. -1.
        -11    1    3    3    0    0 -0.33144069348E+01 -0.43735118853E+01 -0.28259961278E+02  0.28787815326E+02  0.51100000000E-03 0.  1.
         12    1    3    3    0    0 -0.32954788087E+00  0.51097384894E+01  0.44435368997E+02  0.44729409197E+02  0.00000000000E+00 0. -1.
</event>
<event>
 7    1  0.2285268E-015  0.9000777E+02  0.7816164E-02  0.1186339E+00
        -11   -1    0    0    0    0  0.00000000000E+00  0.00000000000E+00  0.45593999997E+02  0.45594000000E+02  0.51100000000E-03 0. -1.
         11   -1    0    0    0    0 -0.00000000000E+00 -0.00000000000E+00 -0.45593999997E+02  0.45594000000E+02  0.51100000000E-03 0.  1.
    9900012    2    1    2    0    0  0.10686054261E+01 -0.18050723016E+00 -0.46736777368E+00  0.90007774152E+02  0.90000035971E+02 0.  0.
         12    1    1    2    0    0 -0.10686054261E+01  0.18050723016E+00  0.46736777368E+00  0.11802258482E+01  0.00000000000E+00 0. -1.
         11    1    3    3    0    0 -0.56602469700E+01 -0.27218247962E+01 -0.80470428892E+01  0.10207919744E+02  0.51100000000E-03 0. -1.
        -11    1    3    3    0    0 -0.27933823067E+01 -0.28467711965E+02 -0.21854742542E+02  0.35997824671E+02  0.51100000000E-03 0.  1.
         12    1    3    3    0    0  0.95222347028E+01  0.31009029531E+02  0.29434417658E+02  0.43802029736E+02  0.00000000000E+00 0. -1.
</event>
<event>
 7    1  0.2285268E-015  0.9000773E+02  0.7816164E-02  0.1186339E+00
        -11   -1    0    0    0    0  0.00000000000E+00  0.00000000000E+00  0.45593999997E+02  0.45594000000E+02  0.51100000000E-03 0.  1.
         11   -1    0    0    0    0 -0.00000000000E+00 -0.00000000000E+00 -0.45593999997E+02  0.45594000000E+02  0.51100000000E-03 0. -1.
    9900012    2    1    2    0    0  0.12488116224E-01  0.59583078762E-02  0.11801846746E+01  0.90007734216E+02  0.89999995508E+02 0.  0.
         12    1    1    2    0    0 -0.12488116224E-01 -0.59583078762E-02 -0.11801846746E+01  0.11802657839E+01  0.00000000000E+00 0. -1.
         11    1    3    3    0    0 -0.66745291157E+01 -0.65246989852E+01  0.15436910399E+00  0.93351414475E+01  0.51100000000E-03 0. -1.
        -11    1    3    3    0    0  0.38883131909E+02  0.68253346512E+01 -0.17876638702E+02  0.43336559067E+02  0.51100000000E-03 0.  1.
         12    1    3    3    0    0 -0.32196114677E+02 -0.29467735818E+00  0.18902454273E+02  0.37336033702E+02  0.00000000000E+00 0. -1.
</event>
<event>
 7    1  0.2285268E-015  0.9000771E+02  0.7816164E-02  0.1186339E+00
        -11   -1    0    0    0    0  0.00000000000E+00  0.00000000000E+00  0.45593999997E+02  0.45594000000E+02  0.51100000000E-03 0.  1.
         11   -1    0    0    0    0 -0.00000000000E+00 -0.00000000000E+00 -0.45593999997E+02  0.45594000000E+02  0.51100000000E-03 0. -1.
    9900012    2    1    2    0    0  0.78144805102E+00 -0.86038439679E+00 -0.20530853911E+00  0.90007714457E+02  0.89999975488E+02 0.  0.
         12    1    1    2    0    0 -0.78144805102E+00  0.86038439679E+00  0.20530853911E+00  0.11802855430E+01  0.00000000000E+00 0. -1.
         11    1    3    3    0    0  0.98967710306E+01 -0.10316302373E+02 -0.40123482587E+02  0.42594201796E+02  0.51100000000E-03 0. -1.
        -11    1    3    3    0    0  0.29825713349E+01  0.92639728057E+01  0.60754515857E+01  0.11472926224E+02  0.51100000000E-03 0.  1.
        -12    1    3    3    0    0 -0.12097894314E+02  0.19194517012E+00  0.33842722462E+02  0.35940586437E+02  0.00000000000E+00 0.  1.
</event>
<event>
 7    1  0.2285268E-015  0.9000777E+02  0.7816164E-02  0.1186339E+00
        -11   -1    0    0    0    0  0.00000000000E+00  0.00000000000E+00  0.45593999997E+02  0.45594000000E+02  0.51100000000E-03 0.  1.
         11   -1    0    0    0    0 -0.00000000000E+00 -0.00000000000E+00 -0.45593999997E+02  0.45594000000E+02  0.51100000000E-03 0. -1.
    9900012    2    1    2    0    0  0.75500252282E+00  0.81040433306E-01  0.90352214323E+00  0.90007767555E+02  0.90000029287E+02 0.  0.
         12    1    1    2    0    0 -0.75500252282E+00 -0.81040433306E-01 -0.90352214323E+00  0.11802324452E+01  0.00000000000E+00 0. -1.
         11    1    3    3    0    0  0.15679287697E+02  0.26741159233E+02 -0.53546866881E+01  0.31457945413E+02  0.51100000000E-03 0. -1.
        -11    1    3    3    0    0  0.93595421373E+01  0.98673181800E+01  0.55281987012E+01  0.14680803051E+02  0.51100000000E-03 0.  1.
        -12    1    3    3    0    0 -0.24283827312E+02 -0.36527436979E+02  0.73001013011E+00  0.43869019091E+02  0.00000000000E+00 0.  1.
</event>
<event>
 7    1  0.2285268E-015  0.9000774E+02  0.7816164E-02  0.1186339E+00
        -11   -1    0    0    0    0  0.00000000000E+00  0.00000000000E+00  0.45593999997E+02  0.45594000000E+02  0.51100000000E-03 0.  1.
         11   -1    0    0    0    0 -0.00000000000E+00 -0.00000000000E+00 -0.45593999997E+02  0.45594000000E+02  0.51100000000E-03 0. -1.
    9900012    2    1    2    0    0 -0.46744280015E+00 -0.72191965015E+00  0.80829318755E+00  0.90007742134E+02  0.90000003530E+02 0.  0.
         12    1    1    2    0    0  0.46744280015E+00  0.72191965015E+00 -0.80829318755E+00  0.11802578658E+01  0.00000000000E+00 0. -1.
         11    1    3    3    0    0  0.71955160492E+01 -0.25028690001E+01  0.85637185301E+01  0.11461984111E+02  0.51100000000E-03 0. -1.
        -11    1    3    3    0    0  0.22944244403E+02 -0.11275656346E+01  0.24774426515E+02  0.33785824911E+02  0.51100000000E-03 0.  1.
         12    1    3    3    0    0 -0.30607203253E+02  0.29085149846E+01 -0.32529851857E+02  0.44759933112E+02  0.00000000000E+00 0. -1.
</event>
<event>
 7    1  0.2285268E-015  0.9000770E+02  0.7816164E-02  0.1186339E+00
        -11   -1    0    0    0    0  0.00000000000E+00  0.00000000000E+00  0.45593999997E+02  0.45594000000E+02  0.51100000000E-03 0. -1.
         11   -1    0    0    0    0 -0.00000000000E+00 -0.00000000000E+00 -0.45593999997E+02  0.45594000000E+02  0.51100000000E-03 0.  1.
    9900012    2    1    2    0    0  0.74445418852E+00  0.25307598699E+00 -0.88025744466E+00  0.90007698063E+02  0.89999958877E+02 0.  0.
         12    1    1    2    0    0 -0.74445418852E+00 -0.25307598699E+00  0.88025744466E+00  0.11803019372E+01  0.00000000000E+00 0. -1.
         11    1    3    3    0    0  0.24142856334E+02 -0.25747961107E+02  0.17471252755E+02  0.39383749012E+02  0.51100000000E-03 0. -1.
        -11    1    3    3    0    0 -0.60852346416E+01 -0.60101171114E+01 -0.10232358117E+02  0.13336144167E+02  0.51100000000E-03 0.  1.
        -12    1    3    3    0    0 -0.17313167504E+02  0.32011154205E+02 -0.81191520830E+01  0.37287804884E+02  0.00000000000E+00 0.  1.
</event>
<event>
 7    1  0.2285268E-015  0.9000777E+02  0.7816164E-02  0.1186339E+00
        -11   -1    0    0    0    0  0.00000000000E+00  0.00000000000E+00  0.45593999997E+02  0.45594000000E+02  0.51100000000E-03 0. -1.
         11   -1    0    0    0    0 -0.00000000000E+00 -0.00000000000E+00 -0.45593999997E+02  0.45594000000E+02  0.51100000000E-03 0.  1.
    9900012    2    1    2    0    0  0.11257947851E+01  0.12157166981E+00  0.33277687477E+00  0.90007773743E+02  0.90000035556E+02 0.  0.
         12    1    1    2    0    0 -0.11257947851E+01 -0.12157166981E+00 -0.33277687477E+00  0.11802262569E+01  0.00000000000E+00 0. -1.
         11    1    3    3    0    0  0.35828760091E+02 -0.92888720432E+01  0.10742753256E+02  0.38540756885E+02  0.51100000000E-03 0. -1.
        -11    1    3    3    0    0  0.18092540202E+01 -0.90820345579E+01 -0.37940984900E+01  0.10007593888E+02  0.51100000000E-03 0.  1.
        -12    1    3    3    0    0 -0.36512219326E+02  0.18492478271E+02 -0.66158778914E+01  0.41459422970E+02  0.00000000000E+00 0.  1.
</event>
<event>
 7    1  0.2285268E-015  0.9000764E+02  0.7816164E-02  0.1186339E+00
        -11   -1    0    0    0    0  0.00000000000E+00  0.00000000000E+00  0.45593999997E+02  0.45594000000E+02  0.51100000000E-03 0.  1.
         11   -1    0    0    0    0 -0.00000000000E+00 -0.00000000000E+00 -0.45593999997E+02  0.45594000000E+02  0.51100000000E-03 0. -1.
    9900012    2    1    2    0    0 -0.70003457729E+00 -0.84885619226E+00  0.42737955172E+00  0.90007636274E+02  0.89999896273E+02 0.  0.
         12    1    1    2    0    0  0.70003457729E+00  0.84885619226E+00 -0.42737955172E+00  0.11803637260E+01  0.00000000000E+00 0. -1.
         11    1    3    3    0    0  0.44556308799E+01  0.66636264697E+01 -0.40088113866E+01  0.89625405584E+01  0.51100000000E-03 0. -1.
        -11    1    3    3    0    0  0.88416514226E+01  0.13465939001E+00  0.40583243533E+02  0.41535437748E+02  0.51100000000E-03 0.  1.
         12    1    3    3    0    0 -0.13997316880E+02 -0.76471420520E+01 -0.36147052595E+02  0.39509657967E+02  0.00000000000E+00 0. -1.
</event>
<event>
 7    1  0.2285268E-015  0.9000785E+02  0.7816164E-02  0.1186339E+00
        -11   -1    0    0    0    0  0.00000000000E+00  0.00000000000E+00  0.45593999997E+02  0.45594000000E+02  0.51100000000E-03 0.  1.
         11   -1    0    0    0    0 -0.00000000000E+00 -0.00000000000E+00 -0.45593999997E+02  0.45594000000E+02  0.51100000000E-03 0. -1.
    9900012    2    1    2    0    0 -0.23760670987E+00 -0.80267438847E-01  0.11531925287E+01  0.90007850510E+02  0.90000113337E+02 0.  0.
         12    1    1    2    0    0  0.23760670987E+00  0.80267438847E-01 -0.11531925287E+01  0.11801494899E+01  0.00000000000E+00 0. -1.
         11    1    3    3    0    0  0.48815279517E+01 -0.68550314110E+01  0.59742120316E+01  0.10320464159E+02  0.51100000000E-03 0. -1.
        -11    1    3    3    0    0  0.25338539077E+02 -0.23403677370E+02 -0.11358627399E+02  0.36315177180E+02  0.51100000000E-03 0.  1.
         12    1    3    3    0    0 -0.30457673738E+02  0.30178441342E+02  0.65376078958E+01  0.43372209171E+02  0.00000000000E+00 0. -1.
</event>
<event>
 7    1  0.2285268E-015  0.9000783E+02  0.7816164E-02  0.1186339E+00
        -11   -1    0    0    0    0  0.00000000000E+00  0.00000000000E+00  0.45593999997E+02  0.45594000000E+02  0.51100000000E-03 0.  1.
         11   -1    0    0    0    0 -0.00000000000E+00 -0.00000000000E+00 -0.45593999997E+02  0.45594000000E+02  0.51100000000E-03 0. -1.
    9900012    2    1    2    0    0 -0.11573877494E+01  0.19956631501E+00  0.11589863239E+00  0.90007828144E+02  0.90000090676E+02 0.  0.
         12    1    1    2    0    0  0.11573877494E+01 -0.19956631501E+00 -0.11589863239E+00  0.11801718559E+01  0.00000000000E+00 0. -1.
         11    1    3    3    0    0 -0.14927972482E+01  0.31676736277E+01 -0.90136045797E+01  0.96699362778E+01  0.51100000000E-03 0. -1.
        -11    1    3    3    0    0 -0.75113616088E+01  0.33293905711E+02 -0.13697491027E+02  0.36776704195E+02  0.51100000000E-03 0.  1.
         12    1    3    3    0    0  0.78467711077E+01 -0.36262013024E+02  0.22826994239E+02  0.43561187672E+02  0.00000000000E+00 0. -1.
</event>
<event>
 7    1  0.2285268E-015  0.9000773E+02  0.7816164E-02  0.1186339E+00
        -11   -1    0    0    0    0  0.00000000000E+00  0.00000000000E+00  0.45593999997E+02  0.45594000000E+02  0.51100000000E-03 0.  1.
         11   -1    0    0    0    0 -0.00000000000E+00 -0.00000000000E+00 -0.45593999997E+02  0.45594000000E+02  0.51100000000E-03 0. -1.
    9900012    2    1    2    0    0  0.43438466899E+00  0.10636364401E+01 -0.27023068881E+00  0.90007730055E+02  0.89999991292E+02 0.  0.
         12    1    1    2    0    0 -0.43438466899E+00 -0.10636364401E+01  0.27023068881E+00  0.11802699448E+01  0.00000000000E+00 0. -1.
         11    1    3    3    0    0 -0.26627217678E+02 -0.20571924713E+02  0.11085452681E+02  0.35427391508E+02  0.51100000000E-03 0. -1.
        -11    1    3    3    0    0 -0.60643392689E+01 -0.29230827259E+01  0.67596786317E+01  0.95401194361E+01  0.51100000000E-03 0.  1.
        -12    1    3    3    0    0  0.33125941616E+02  0.24558643879E+02 -0.18115362002E+02  0.45040219111E+02  0.00000000000E+00 0.  1.
</event>
<event>
 7    1  0.2421348E-015  0.9000778E+02  0.7816164E-02  0.1186339E+00
        -11   -1    0    0    0    0  0.00000000000E+00  0.00000000000E+00  0.45593999997E+02  0.45594000000E+02  0.51100000000E-03 0.  1.
         11   -1    0    0    0    0 -0.00000000000E+00 -0.00000000000E+00 -0.45593999997E+02  0.45594000000E+02  0.51100000000E-03 0. -1.
    9900012    2    1    2    0    0  0.31054417477E-01  0.79186457972E+00  0.87458969801E+00  0.90007779246E+02  0.90000041132E+02 0.  0.
         12    1    1    2    0    0 -0.31054417477E-01 -0.79186457972E+00 -0.87458969801E+00  0.11802207545E+01  0.00000000000E+00 0. -1.
         11    1    3    3    0    0 -0.71341597482E+01  0.58374974753E+01  0.13666168395E+01  0.93188118306E+01  0.51100000000E-03 0. -1.
        -11    1    3    3    0    0 -0.34073604205E+01 -0.14729949261E+02  0.37311287894E+02  0.40258088813E+02  0.51100000000E-03 0.  1.
         12    1    3    3    0    0  0.10572574586E+02  0.96843163656E+01 -0.37803315036E+02  0.40430878602E+02  0.00000000000E+00 0. -1.
</event>
<event>
 7    1  0.2285268E-015  0.9000774E+02  0.7816164E-02  0.1186339E+00
        -11   -1    0    0    0    0  0.00000000000E+00  0.00000000000E+00  0.45593999997E+02  0.45594000000E+02  0.51100000000E-03 0.  1.
         11   -1    0    0    0    0 -0.00000000000E+00 -0.00000000000E+00 -0.45593999997E+02  0.45594000000E+02  0.51100000000E-03 0. -1.
    9900012    2    1    2    0    0 -0.10745078221E+01  0.48025438342E+00  0.88342494794E-01  0.90007739127E+02  0.90000000483E+02 0.  0.
         12    1    1    2    0    0  0.10745078221E+01 -0.48025438342E+00 -0.88342494794E-01  0.11802608733E+01  0.00000000000E+00 0. -1.
         11    1    3    3    0    0  0.28892810536E+01  0.50631431002E+01 -0.10258968837E+02  0.11799567997E+02  0.51100000000E-03 0. -1.
        -11    1    3    3    0    0  0.21664453462E+02 -0.15012333647E+02  0.33151623696E+02  0.42352672398E+02  0.51100000000E-03 0.  1.
         12    1    3    3    0    0 -0.25628242338E+02  0.10429444930E+02 -0.22804312364E+02  0.35855498731E+02  0.00000000000E+00 0. -1.
</event>
<event>
 7    1  0.2285268E-015  0.9000781E+02  0.7816164E-02  0.1186339E+00
        -11   -1    0    0    0    0  0.00000000000E+00  0.00000000000E+00  0.45593999997E+02  0.45594000000E+02  0.51100000000E-03 0. -1.
         11   -1    0    0    0    0 -0.00000000000E+00 -0.00000000000E+00 -0.45593999997E+02  0.45594000000E+02  0.51100000000E-03 0.  1.
    9900012    2    1    2    0    0  0.91091315073E-01  0.85618510370E+00 -0.80715793375E+00  0.90007807435E+02  0.90000069694E+02 0.  0.
         12    1    1    2    0    0 -0.91091315073E-01 -0.85618510370E+00  0.80715793375E+00  0.11801925646E+01  0.00000000000E+00 0. -1.
         11    1    3    3    0    0  0.15061013116E+02 -0.52306874040E+01 -0.12564436594E+02  0.20299243188E+02  0.51100000000E-03 0. -1.
        -11    1    3    3    0    0 -0.20485462661E+02  0.10176555447E+02 -0.24084121034E+02  0.33215378177E+02  0.51100000000E-03 0.  1.
         12    1    3    3    0    0  0.55155408599E+01 -0.40896829396E+01  0.35841399695E+02  0.36493186071E+02  0.00000000000E+00 0. -1.
</event>
<event>
 7    1  0.2285268E-015  0.9000771E+02  0.7816164E-02  0.1186339E+00
        -11   -1    0    0    0    0  0.00000000000E+00  0.00000000000E+00  0.45593999997E+02  0.45594000000E+02  0.51100000000E-03 0.  1.
         11   -1    0    0    0    0 -0.00000000000E+00 -0.00000000000E+00 -0.45593999997E+02  0.45594000000E+02  0.51100000000E-03 0. -1.
    9900012    2    1    2    0    0  0.45624313541E-01 -0.11675620211E+01 -0.16671319831E+00  0.90007713619E+02  0.89999974639E+02 0.  0.
         12    1    1    2    0    0 -0.45624313541E-01  0.11675620211E+01  0.16671319831E+00  0.11802863812E+01  0.00000000000E+00 0. -1.
         11    1    3    3    0    0 -0.46317623601E+01 -0.13211386042E+02 -0.37511039445E+02  0.40038381888E+02  0.51100000000E-03 0. -1.
        -11    1    3    3    0    0 -0.11782027514E+01 -0.80528743118E+01  0.12354234242E+01  0.82318416957E+01  0.51100000000E-03 0.  1.
        -12    1    3    3    0    0  0.58555894250E+01  0.20096698332E+02  0.36108902823E+02  0.41737490035E+02  0.00000000000E+00 0.  1.
</event>
<event>
 7    1  0.2285268E-015  0.9000776E+02  0.7816164E-02  0.1186339E+00
        -11   -1    0    0    0    0  0.00000000000E+00  0.00000000000E+00  0.45593999997E+02  0.45594000000E+02  0.51100000000E-03 0.  1.
         11   -1    0    0    0    0 -0.00000000000E+00 -0.00000000000E+00 -0.45593999997E+02  0.45594000000E+02  0.51100000000E-03 0. -1.
    9900012    2    1    2    0    0 -0.27616925509E+00 -0.31161482016E+00  0.11043535808E+01  0.90007758463E+02  0.90000020075E+02 0.  0.
         12    1    1    2    0    0  0.27616925509E+00  0.31161482016E+00 -0.11043535808E+01  0.11802415367E+01  0.00000000000E+00 0. -1.
         11    1    3    3    0    0  0.17180161057E+02  0.28836003091E+01 -0.35093611022E+02  0.39179517857E+02  0.51100000000E-03 0. -1.
        -11    1    3    3    0    0 -0.45603199192E+01  0.87581659521E+01 -0.75690326320E+00  0.99032768022E+01  0.51100000000E-03 0.  1.
        -12    1    3    3    0    0 -0.12896010393E+02 -0.11953381081E+02  0.36954867866E+02  0.40924963804E+02  0.00000000000E+00 0.  1.
</event>
<event>
 7    1  0.2285268E-015  0.9000773E+02  0.7816164E-02  0.1186339E+00
        -11   -1    0    0    0    0  0.00000000000E+00  0.00000000000E+00  0.45593999997E+02  0.45594000000E+02  0.51100000000E-03 0. -1.
         11   -1    0    0    0    0 -0.00000000000E+00 -0.00000000000E+00 -0.45593999997E+02  0.45594000000E+02  0.51100000000E-03 0.  1.
    9900012    2    1    2    0    0 -0.10178803857E+01 -0.57949355067E+00 -0.14537783042E+00  0.90007733942E+02  0.89999995230E+02 0.  0.
         12    1    1    2    0    0  0.10178803857E+01  0.57949355067E+00  0.14537783042E+00  0.11802660583E+01  0.00000000000E+00 0. -1.
         11    1    3    3    0    0 -0.88984570893E+01  0.64133372542E+01 -0.59930452990E+01  0.12499200995E+02  0.51100000000E-03 0. -1.
        -11    1    3    3    0    0 -0.29905705931E+02 -0.38846300505E+01 -0.15595463317E+02  0.33950847916E+02  0.51100000000E-03 0.  1.
         12    1    3    3    0    0  0.37786282635E+02 -0.31082007544E+01  0.21443130786E+02  0.43557685030E+02  0.00000000000E+00 0. -1.
</event>
<event>
 7    1  0.2285268E-015  0.9000814E+02  0.7816164E-02  0.1186338E+00
        -11   -1    0    0    0    0  0.00000000000E+00  0.00000000000E+00  0.45593999997E+02  0.45594000000E+02  0.51100000000E-03 0. -1.
         11   -1    0    0    0    0 -0.00000000000E+00 -0.00000000000E+00 -0.45593999997E+02  0.45594000000E+02  0.51100000000E-03 0.  1.
    9900012    2    1    2    0    0  0.57569824802E+00  0.64016280791E+00 -0.80674753980E+00  0.90008136242E+02  0.90000402840E+02 0.  0.
         12    1    1    2    0    0 -0.57569824802E+00 -0.64016280791E+00  0.80674753980E+00  0.11798637575E+01  0.00000000000E+00 0. -1.
         11    1    3    3    0    0 -0.13490250748E+02 -0.21456296871E+02 -0.18775786413E+02  0.31541872112E+02  0.51100000000E-03 0. -1.
        -11    1    3    3    0    0 -0.90334884444E+00 -0.11792911869E+02 -0.70427382205E+01  0.13765499315E+02  0.51100000000E-03 0.  1.
        -12    1    3    3    0    0  0.14969297840E+02  0.33889371548E+02  0.25011777093E+02  0.44700764816E+02  0.00000000000E+00 0.  1.
</event>
<event>
 7    1  0.2285268E-015  0.9000780E+02  0.7816164E-02  0.1186339E+00
        -11   -1    0    0    0    0  0.00000000000E+00  0.00000000000E+00  0.45593999997E+02  0.45594000000E+02  0.51100000000E-03 0. -1.
         11   -1    0    0    0    0 -0.00000000000E+00 -0.00000000000E+00 -0.45593999997E+02  0.45594000000E+02  0.51100000000E-03 0.  1.
    9900012    2    1    2    0    0  0.33045414804E+00 -0.10512912788E+01 -0.42245210487E+00  0.90007797018E+02  0.90000059139E+02 0.  0.
         12    1    1    2    0    0 -0.33045414804E+00  0.10512912788E+01  0.42245210487E+00  0.11802029816E+01  0.00000000000E+00 0. -1.
         11    1    3    3    0    0 -0.50181979350E+01 -0.99571565502E+01 -0.23369995553E+01  0.11392490696E+02  0.51100000000E-03 0. -1.
        -11    1    3    3    0    0 -0.22134753957E+02 -0.26011655173E+02  0.63544642931E+00  0.34160757163E+02  0.51100000000E-03 0.  1.
         12    1    3    3    0    0  0.27483406040E+02  0.34917520444E+02  0.12791010211E+01  0.44454549159E+02  0.00000000000E+00 0. -1.
</event>
<event>
 7    1  0.2988578E-015  0.9000775E+02  0.7816164E-02  0.1186339E+00
        -11   -1    0    0    0    0  0.00000000000E+00  0.00000000000E+00  0.45593999997E+02  0.45594000000E+02  0.51100000000E-03 0. -1.
         11   -1    0    0    0    0 -0.00000000000E+00 -0.00000000000E+00 -0.45593999997E+02  0.45594000000E+02  0.51100000000E-03 0.  1.
    9900012    2    1    2    0    0 -0.50237373801E+00 -0.82343751932E+00 -0.68011966971E+00  0.90007749397E+02  0.90000010889E+02 0.  0.
         12    1    1    2    0    0  0.50237373801E+00  0.82343751932E+00  0.68011966971E+00  0.11802506030E+01  0.00000000000E+00 0. -1.
         11    1    3    3    0    0  0.61285810463E+01  0.65983614934E+01 -0.45593838973E+01  0.10093852675E+02  0.51100000000E-03 0. -1.
        -11    1    3    3    0    0  0.11650257318E+02 -0.56535621827E+01 -0.34780565953E+02  0.37113057395E+02  0.51100000000E-03 0.  1.
         12    1    3    3    0    0 -0.18281212103E+02 -0.17682368300E+01  0.38659830181E+02  0.42800839327E+02  0.00000000000E+00 0. -1.
</event>
<event>
 7    1  0.2285268E-015  0.9000765E+02  0.7816164E-02  0.1186339E+00
        -11   -1    0    0    0    0  0.00000000000E+00  0.00000000000E+00  0.45593999997E+02  0.45594000000E+02  0.51100000000E-03 0. -1.
         11   -1    0    0    0    0 -0.00000000000E+00 -0.00000000000E+00 -0.45593999997E+02  0.45594000000E+02  0.51100000000E-03 0.  1.
    9900012    2    1    2    0    0  0.24710136031E+00  0.11540708404E+01 -0.16621808143E-01  0.90007654766E+02  0.89999915009E+02 0.  0.
         12    1    1    2    0    0 -0.24710136031E+00 -0.11540708404E+01  0.16621808143E-01  0.11803452340E+01  0.00000000000E+00 0. -1.
         11    1    3    3    0    0  0.12955753649E+02  0.10489513922E+02 -0.11823548175E+02  0.20437165817E+02  0.51100000000E-03 0. -1.
        -11    1    3    3    0    0 -0.55007699085E+01 -0.35103869633E+02 -0.78247696629E+01  0.36383611054E+02  0.51100000000E-03 0.  1.
         12    1    3    3    0    0 -0.72078823805E+01  0.25768426552E+02  0.19631696030E+02  0.33186877894E+02  0.00000000000E+00 0. -1.
</event>
<event>
 7    1  0.2285268E-015  0.9000699E+02  0.7816164E-02  0.1186341E+00
        -11   -1    0    0    0    0  0.00000000000E+00  0.00000000000E+00  0.45593999997E+02  0.45594000000E+02  0.51100000000E-03 0.  1.
         11   -1    0    0    0    0 -0.00000000000E+00 -0.00000000000E+00 -0.45593999997E+02  0.45594000000E+02  0.51100000000E-03 0. -1.
    9900012    2    1    2    0    0 -0.16576333245E-01 -0.28867512817E+00  0.11450658740E+01  0.90006990279E+02  0.89999241748E+02 0.  0.
         12    1    1    2    0    0  0.16576333245E-01  0.28867512817E+00 -0.11450658740E+01  0.11810097207E+01  0.00000000000E+00 0. -1.
         11    1    3    3    0    0  0.34595723574E+02 -0.36641161215E+01 -0.14459757928E+02  0.37674586078E+02  0.51100000000E-03 0. -1.
        -11    1    3    3    0    0  0.71150757496E+01  0.27908016345E+01 -0.36025717831E+00  0.76513176761E+01  0.51100000000E-03 0.  1.
        -12    1    3    3    0    0 -0.41727375656E+02  0.58463935882E+00  0.15965080981E+02  0.44681086525E+02  0.00000000000E+00 0.  1.
</event>
<event>
 7    1  0.2285268E-015  0.9000769E+02  0.7816164E-02  0.1186339E+00
        -11   -1    0    0    0    0  0.00000000000E+00  0.00000000000E+00  0.45593999997E+02  0.45594000000E+02  0.51100000000E-03 0.  1.
         11   -1    0    0    0    0 -0.00000000000E+00 -0.00000000000E+00 -0.45593999997E+02  0.45594000000E+02  0.51100000000E-03 0. -1.
    9900012    2    1    2    0    0 -0.11620531865E+00  0.39930406643E+00  0.11046191265E+01  0.90007690368E+02  0.89999951081E+02 0.  0.
         12    1    1    2    0    0  0.11620531865E+00 -0.39930406643E+00 -0.11046191265E+01  0.11803096323E+01  0.00000000000E+00 0. -1.
         11    1    3    3    0    0  0.24833574075E+02 -0.10076675884E+02 -0.25141400540E+02  0.36746915783E+02  0.51100000000E-03 0. -1.
        -11    1    3    3    0    0  0.26976849090E+01 -0.88420917635E+01 -0.17729464824E+01  0.94129395044E+01  0.51100000000E-03 0.  1.
        -12    1    3    3    0    0 -0.27647464303E+02  0.19318071714E+02  0.28018966149E+02  0.43847835080E+02  0.00000000000E+00 0.  1.
</event>
<event>
 7    1  0.2285268E-015  0.9000759E+02  0.7816164E-02  0.1186339E+00
        -11   -1    0    0    0    0  0.00000000000E+00  0.00000000000E+00  0.45593999997E+02  0.45594000000E+02  0.51100000000E-03 0. -1.
         11   -1    0    0    0    0 -0.00000000000E+00 -0.00000000000E+00 -0.45593999997E+02  0.45594000000E+02  0.51100000000E-03 0.  1.
    9900012    2    1    2    0    0  0.48046739052E+00  0.10699992285E+01  0.13272252105E+00  0.90007592219E+02  0.89999851636E+02 0.  0.
         12    1    1    2    0    0 -0.48046739052E+00 -0.10699992285E+01 -0.13272252105E+00  0.11804077812E+01  0.00000000000E+00 0. -1.
         11    1    3    3    0    0  0.55027740823E+01 -0.23083594216E+02  0.28844446254E+02  0.37351504983E+02  0.51100000000E-03 0. -1.
        -11    1    3    3    0    0  0.80536827771E+01 -0.53015932119E+01 -0.22680930846E+00  0.96446948931E+01  0.51100000000E-03 0.  1.
        -12    1    3    3    0    0 -0.13075989469E+02  0.29455186656E+02 -0.28484914424E+02  0.43011392343E+02  0.00000000000E+00 0.  1.
</event>
<event>
 7    1  0.2285268E-015  0.9000768E+02  0.7816164E-02  0.1186339E+00
        -11   -1    0    0    0    0  0.00000000000E+00  0.00000000000E+00  0.45593999997E+02  0.45594000000E+02  0.51100000000E-03 0. -1.
         11   -1    0    0    0    0 -0.00000000000E+00 -0.00000000000E+00 -0.45593999997E+02  0.45594000000E+02  0.51100000000E-03 0.  1.
    9900012    2    1    2    0    0  0.25198484720E+00 -0.19970233869E+00 -0.11356805467E+01  0.90007683224E+02  0.89999943843E+02 0.  0.
         12    1    1    2    0    0 -0.25198484720E+00  0.19970233869E+00  0.11356805467E+01  0.11803167759E+01  0.00000000000E+00 0. -1.
         11    1    3    3    0    0 -0.10884662607E+02  0.29262730621E+02 -0.24530343823E+02  0.39705428493E+02  0.51100000000E-03 0. -1.
        -11    1    3    3    0    0 -0.93663375745E+01 -0.10226043870E+01  0.40050710891E+01  0.10237899881E+02  0.51100000000E-03 0.  1.
        -12    1    3    3    0    0  0.20502985029E+02 -0.28439828573E+02  0.19389592187E+02  0.40064354850E+02  0.00000000000E+00 0.  1.
</event>
<event>
 7    1  0.2285268E-015  0.9000787E+02  0.7816164E-02  0.1186339E+00
        -11   -1    0    0    0    0  0.00000000000E+00  0.00000000000E+00  0.45593999997E+02  0.45594000000E+02  0.51100000000E-03 0.  1.
         11   -1    0    0    0    0 -0.00000000000E+00 -0.00000000000E+00 -0.45593999997E+02  0.45594000000E+02  0.51100000000E-03 0. -1.
    9900012    2    1    2    0    0  0.14631612977E+00 -0.11525660767E+01  0.20709125891E+00  0.90007871295E+02  0.90000134396E+02 0.  0.
         12    1    1    2    0    0 -0.14631612977E+00  0.11525660767E+01 -0.20709125891E+00  0.11801287050E+01  0.00000000000E+00 0. -1.
         11    1    3    3    0    0 -0.26471927199E+02  0.17924207861E+02 -0.15819172378E+02  0.35669123511E+02  0.51100000000E-03 0. -1.
        -11    1    3    3    0    0 -0.51673177395E+01  0.72046580045E+01 -0.23714437198E+01  0.91778001264E+01  0.51100000000E-03 0.  1.
        -12    1    3    3    0    0  0.31785561068E+02 -0.26281431942E+02  0.18397707357E+02  0.45160947657E+02  0.00000000000E+00 0.  1.
</event>
<event>
 7    1  0.2285268E-015  0.9000768E+02  0.7816164E-02  0.1186339E+00
        -11   -1    0    0    0    0  0.00000000000E+00  0.00000000000E+00  0.45593999997E+02  0.45594000000E+02  0.51100000000E-03 0. -1.
         11   -1    0    0    0    0 -0.00000000000E+00 -0.00000000000E+00 -0.45593999997E+02  0.45594000000E+02  0.51100000000E-03 0.  1.
    9900012    2    1    2    0    0  0.26093014457E+00  0.49935101192E-01 -0.11500335567E+01  0.90007680028E+02  0.89999940604E+02 0.  0.
         12    1    1    2    0    0 -0.26093014457E+00 -0.49935101192E-01  0.11500335567E+01  0.11803199720E+01  0.00000000000E+00 0. -1.
         11    1    3    3    0    0  0.43674388621E+01 -0.32766997369E+01  0.92646609522E+01  0.10753847042E+02  0.51100000000E-03 0. -1.
        -11    1    3    3    0    0  0.26104194648E+02  0.67509402344E+01  0.22008791066E+02  0.34805043553E+02  0.51100000000E-03 0.  1.
         12    1    3    3    0    0 -0.30210703365E+02 -0.34243053963E+01 -0.32423485575E+02  0.44448789433E+02  0.00000000000E+00 0. -1.
</event>
<event>
 7    1  0.2285268E-015  0.9000731E+02  0.7816164E-02  0.1186340E+00
        -11   -1    0    0    0    0  0.00000000000E+00  0.00000000000E+00  0.45593999997E+02  0.45594000000E+02  0.51100000000E-03 0.  1.
         11   -1    0    0    0    0 -0.00000000000E+00 -0.00000000000E+00 -0.45593999997E+02  0.45594000000E+02  0.51100000000E-03 0. -1.
    9900012    2    1    2    0    0  0.98569417336E+00 -0.41562975504E+00  0.49968846066E+00  0.90007309670E+02  0.89999565357E+02 0.  0.
         12    1    1    2    0    0 -0.98569417336E+00  0.41562975504E+00 -0.49968846066E+00  0.11806903296E+01  0.00000000000E+00 0. -1.
         11    1    3    3    0    0 -0.23703140566E+02 -0.98417448172E+01  0.17764016359E+02  0.31213123701E+02  0.51100000000E-03 0. -1.
        -11    1    3    3    0    0 -0.10175297291E+02 -0.39256529875E+01  0.81641746669E+01  0.13623552202E+02  0.51100000000E-03 0.  1.
        -12    1    3    3    0    0  0.34864132030E+02  0.13351768050E+02 -0.25428502565E+02  0.45170633768E+02  0.00000000000E+00 0.  1.
</event>
<event>
 7    1  0.2285268E-015  0.9000775E+02  0.7816164E-02  0.1186339E+00
        -11   -1    0    0    0    0  0.00000000000E+00  0.00000000000E+00  0.45593999997E+02  0.45594000000E+02  0.51100000000E-03 0. -1.
         11   -1    0    0    0    0 -0.00000000000E+00 -0.00000000000E+00 -0.45593999997E+02  0.45594000000E+02  0.51100000000E-03 0.  1.
    9900012    2    1    2    0    0  0.58027735442E+00  0.94725086105E+00  0.39872966354E+00  0.90007749456E+02  0.90000010949E+02 0.  0.
         12    1    1    2    0    0 -0.58027735442E+00 -0.94725086105E+00 -0.39872966354E+00  0.11802505439E+01  0.00000000000E+00 0. -1.
         11    1    3    3    0    0  0.59248714926E+01  0.15452111905E+02  0.58526570782E+01  0.17553502775E+02  0.51100000000E-03 0. -1.
        -11    1    3    3    0    0  0.14865482125E+02  0.16249970505E+02 -0.22861285700E+02  0.31744014937E+02  0.51100000000E-03 0.  1.
         12    1    3    3    0    0 -0.20210076263E+02 -0.30754831549E+02  0.17407358286E+02  0.40710231744E+02  0.00000000000E+00 0. -1.
</event>
<event>
 7    1  0.2285268E-015  0.9000773E+02  0.7816164E-02  0.1186339E+00
        -11   -1    0    0    0    0  0.00000000000E+00  0.00000000000E+00  0.45593999997E+02  0.45594000000E+02  0.51100000000E-03 0.  1.
         11   -1    0    0    0    0 -0.00000000000E+00 -0.00000000000E+00 -0.45593999997E+02  0.45594000000E+02  0.51100000000E-03 0. -1.
    9900012    2    1    2    0    0  0.29293996991E+00 -0.10206662524E+01  0.51522107978E+00  0.90007734697E+02  0.89999995995E+02 0.  0.
         12    1    1    2    0    0 -0.29293996991E+00  0.10206662524E+01 -0.51522107978E+00  0.11802653032E+01  0.00000000000E+00 0. -1.
         11    1    3    3    0    0  0.21071919182E+02  0.25411309493E+01 -0.30174047164E+02  0.36891140495E+02  0.51100000000E-03 0. -1.
        -11    1    3    3    0    0 -0.15906713113E+01 -0.28324366575E+01 -0.87051049392E+01  0.92914899184E+01  0.51100000000E-03 0.  1.
        -12    1    3    3    0    0 -0.19188307901E+02 -0.72936054415E+00  0.39394373183E+02  0.43825104283E+02  0.00000000000E+00 0.  1.
</event>
<event>
 7    1  0.2285268E-015  0.9000855E+02  0.7816164E-02  0.1186337E+00
        -11   -1    0    0    0    0  0.00000000000E+00  0.00000000000E+00  0.45593999997E+02  0.45594000000E+02  0.51100000000E-03 0.  1.
         11   -1    0    0    0    0 -0.00000000000E+00 -0.00000000000E+00 -0.45593999997E+02  0.45594000000E+02  0.51100000000E-03 0. -1.
    9900012    2    1    2    0    0 -0.10050428151E+01 -0.39724919105E+00  0.47242291509E+00  0.90008550387E+02  0.90000822448E+02 0.  0.
         12    1    1    2    0    0  0.10050428151E+01  0.39724919105E+00 -0.47242291509E+00  0.11794496135E+01  0.00000000000E+00 0. -1.
         11    1    3    3    0    0  0.27692154629E+02  0.61139403416E+01  0.26760964964E+02  0.38992113826E+02  0.51100000000E-03 0. -1.
        -11    1    3    3    0    0  0.25610554224E+01  0.11740321704E+00  0.54228497096E+01  0.59983404060E+01  0.51100000000E-03 0.  1.
        -12    1    3    3    0    0 -0.31258252867E+02 -0.66285927497E+01 -0.31711391759E+02  0.45018096155E+02  0.00000000000E+00 0.  1.
</event>
<event>
 7    1  0.2285268E-015  0.9000777E+02  0.7816164E-02  0.1186339E+00
        -11   -1    0    0    0    0  0.00000000000E+00  0.00000000000E+00  0.45593999997E+02  0.45594000000E+02  0.51100000000E-03 0.  1.
         11   -1    0    0    0    0 -0.00000000000E+00 -0.00000000000E+00 -0.45593999997E+02  0.45594000000E+02  0.51100000000E-03 0. -1.
    9900012    2    1    2    0    0 -0.21071530954E+00 -0.99616460855E+00 -0.59681499296E+00  0.90007774172E+02  0.90000035991E+02 0.  0.
         12    1    1    2    0    0  0.21071530954E+00  0.99616460855E+00  0.59681499296E+00  0.11802258279E+01  0.00000000000E+00 0. -1.
         11    1    3    3    0    0  0.34441211785E+02  0.10155765405E+02  0.10240361513E+02  0.37339009686E+02  0.51100000000E-03 0. -1.
        -11    1    3    3    0    0 -0.52481769794E+01 -0.14029432753E+02 -0.16822084443E+02  0.22524450498E+02  0.51100000000E-03 0.  1.
        -12    1    3    3    0    0 -0.29403750115E+02  0.28775027393E+01  0.59849079365E+01  0.30144313988E+02  0.00000000000E+00 0.  1.
</event>
<event>
 7    1  0.2624251E-015  0.9000771E+02  0.7816164E-02  0.1186339E+00
        -11   -1    0    0    0    0  0.00000000000E+00  0.00000000000E+00  0.45593999997E+02  0.45594000000E+02  0.51100000000E-03 0.  1.
         11   -1    0    0    0    0 -0.00000000000E+00 -0.00000000000E+00 -0.45593999997E+02  0.45594000000E+02  0.51100000000E-03 0. -1.
    9900012    2    1    2    0    0 -0.95787346640E+00 -0.68631745724E+00 -0.67307533970E-01  0.90007710403E+02  0.89999971380E+02 0.  0.
         12    1    1    2    0    0  0.95787346640E+00  0.68631745724E+00  0.67307533970E-01  0.11802895975E+01  0.00000000000E+00 0. -1.
         11    1    3    3    0    0 -0.34663493002E+01  0.82013390901E+01  0.20657137643E+01  0.91402797527E+01  0.51100000000E-03 0. -1.
        -11    1    3    3    0    0 -0.36203146339E+02  0.73721822693E+01  0.77084691117E+01  0.37741719258E+02  0.51100000000E-03 0.  1.
         12    1    3    3    0    0  0.38711622173E+02 -0.16259838817E+02 -0.98414904099E+01  0.43125711392E+02  0.00000000000E+00 0. -1.
</event>
<event>
 7    1  0.2285268E-015  0.9000767E+02  0.7816164E-02  0.1186339E+00
        -11   -1    0    0    0    0  0.00000000000E+00  0.00000000000E+00  0.45593999997E+02  0.45594000000E+02  0.51100000000E-03 0. -1.
         11   -1    0    0    0    0 -0.00000000000E+00 -0.00000000000E+00 -0.45593999997E+02  0.45594000000E+02  0.51100000000E-03 0.  1.
    9900012    2    1    2    0    0  0.78271627366E+00  0.88347543010E+00  0.28111651403E-02  0.90007668901E+02  0.89999929330E+02 0.  0.
         12    1    1    2    0    0 -0.78271627366E+00 -0.88347543010E+00 -0.28111651403E-02  0.11803310990E+01  0.00000000000E+00 0. -1.
         11    1    3    3    0    0  0.19845415124E+02  0.54327695317E+01  0.40223819882E+02  0.45180871753E+02  0.51100000000E-03 0. -1.
        -11    1    3    3    0    0 -0.33034752641E+01 -0.52698283006E+00 -0.94015610788E+01  0.99789784399E+01  0.51100000000E-03 0.  1.
        -12    1    3    3    0    0 -0.15759223587E+02 -0.40223112716E+01 -0.30819447638E+02  0.34847818708E+02  0.00000000000E+00 0.  1.
</event>
<event>
 7    1  0.2285268E-015  0.9000852E+02  0.7816164E-02  0.1186337E+00
        -11   -1    0    0    0    0  0.00000000000E+00  0.00000000000E+00  0.45593999997E+02  0.45594000000E+02  0.51100000000E-03 0.  1.
         11   -1    0    0    0    0 -0.00000000000E+00 -0.00000000000E+00 -0.45593999997E+02  0.45594000000E+02  0.51100000000E-03 0. -1.
    9900012    2    1    2    0    0 -0.88003818100E+00  0.64914506895E+00  0.44194400812E+00  0.90008520866E+02  0.90000792538E+02 0.  0.
         12    1    1    2    0    0  0.88003818100E+00 -0.64914506895E+00 -0.44194400812E+00  0.11794791337E+01  0.00000000000E+00 0. -1.
         11    1    3    3    0    0 -0.61218518157E+01  0.16849918717E+01 -0.17796423318E+01  0.65941939880E+01  0.51100000000E-03 0. -1.
        -11    1    3    3    0    0 -0.35602468019E+02 -0.14681107380E+02 -0.75802206763E+01  0.39249590937E+02  0.51100000000E-03 0.  1.
         12    1    3    3    0    0  0.40844281653E+02  0.13645260577E+02  0.98018070163E+01  0.44164735942E+02  0.00000000000E+00 0. -1.
</event>
<event>
 7    1  0.2285268E-015  0.9000775E+02  0.7816164E-02  0.1186339E+00
        -11   -1    0    0    0    0  0.00000000000E+00  0.00000000000E+00  0.45593999997E+02  0.45594000000E+02  0.51100000000E-03 0. -1.
         11   -1    0    0    0    0 -0.00000000000E+00 -0.00000000000E+00 -0.45593999997E+02  0.45594000000E+02  0.51100000000E-03 0.  1.
    9900012    2    1    2    0    0  0.40018393665E+00  0.12453603972E+00  0.11033236730E+01  0.90007754460E+02  0.90000016018E+02 0.  0.
         12    1    1    2    0    0 -0.40018393665E+00 -0.12453603972E+00 -0.11033236730E+01  0.11802455404E+01  0.00000000000E+00 0. -1.
         11    1    3    3    0    0 -0.41058217181E+01 -0.30270119260E+01 -0.73684191517E+01  0.89618175744E+01  0.51100000000E-03 0. -1.
        -11    1    3    3    0    0  0.18796822302E+02 -0.12423629310E+02 -0.29779444154E+02  0.37342768889E+02  0.51100000000E-03 0.  1.
         12    1    3    3    0    0 -0.14290816647E+02  0.15575177276E+02  0.38251186979E+02  0.43703167996E+02  0.00000000000E+00 0. -1.
</event>
<event>
 7    1  0.2285268E-015  0.9000772E+02  0.7816164E-02  0.1186339E+00
        -11   -1    0    0    0    0  0.00000000000E+00  0.00000000000E+00  0.45593999997E+02  0.45594000000E+02  0.51100000000E-03 0.  1.
         11   -1    0    0    0    0 -0.00000000000E+00 -0.00000000000E+00 -0.45593999997E+02  0.45594000000E+02  0.51100000000E-03 0. -1.
    9900012    2    1    2    0    0 -0.23718075504E+00  0.31832746533E-01  0.11557666236E+01  0.90007718456E+02  0.89999979540E+02 0.  0.
         12    1    1    2    0    0  0.23718075504E+00 -0.31832746533E-01 -0.11557666236E+01  0.11802815438E+01  0.00000000000E+00 0. -1.
         11    1    3    3    0    0  0.14324911173E+02  0.29578086890E+01 -0.34335522908E+02  0.37321305523E+02  0.51100000000E-03 0. -1.
        -11    1    3    3    0    0  0.95924025035E+01 -0.34913920207E+01  0.57297983790E+00  0.10224104371E+02  0.51100000000E-03 0.  1.
        -12    1    3    3    0    0 -0.24154494431E+02  0.56541607815E+00  0.34918309693E+02  0.42462308562E+02  0.00000000000E+00 0.  1.
</event>
<event>
 7    1  0.2679396E-015  0.9000774E+02  0.7816164E-02  0.1186339E+00
        -11   -1    0    0    0    0  0.00000000000E+00  0.00000000000E+00  0.45593999997E+02  0.45594000000E+02  0.51100000000E-03 0. -1.
         11   -1    0    0    0    0 -0.00000000000E+00 -0.00000000000E+00 -0.45593999997E+02  0.45594000000E+02  0.51100000000E-03 0.  1.
    9900012    2    1    2    0    0 -0.98144474829E-01  0.72248556920E+00 -0.92811949952E+00  0.90007735817E+02  0.89999997130E+02 0.  0.
         12    1    1    2    0    0  0.98144474829E-01 -0.72248556920E+00  0.92811949952E+00  0.11802641827E+01  0.00000000000E+00 0. -1.
         11    1    3    3    0    0  0.40155589636E+01 -0.84976533628E+01 -0.10219359749E+01  0.94540562650E+01  0.51100000000E-03 0. -1.
        -11    1    3    3    0    0 -0.29703756736E+02 -0.20096867687E+02 -0.14920024914E+02  0.38843331458E+02  0.51100000000E-03 0.  1.
         12    1    3    3    0    0  0.25590053297E+02  0.29317006619E+02  0.15013841390E+02  0.41710348094E+02  0.00000000000E+00 0. -1.
</event>
<event>
 7    1  0.2285268E-015  0.9000783E+02  0.7816164E-02  0.1186339E+00
        -11   -1    0    0    0    0  0.00000000000E+00  0.00000000000E+00  0.45593999997E+02  0.45594000000E+02  0.51100000000E-03 0.  1.
         11   -1    0    0    0    0 -0.00000000000E+00 -0.00000000000E+00 -0.45593999997E+02  0.45594000000E+02  0.51100000000E-03 0. -1.
    9900012    2    1    2    0    0 -0.46559372988E-01  0.59391308362E+00  0.10187783829E+01  0.90007826318E+02  0.90000088825E+02 0.  0.
         12    1    1    2    0    0  0.46559372988E-01 -0.59391308362E+00 -0.10187783829E+01  0.11801736820E+01  0.00000000000E+00 0. -1.
         11    1    3    3    0    0 -0.11689036791E+02  0.10509055358E+02 -0.31376334344E+02  0.35093420790E+02  0.51100000000E-03 0. -1.
        -11    1    3    3    0    0  0.19112622321E+01  0.17804873947E+01 -0.97569550055E+01  0.10100555922E+02  0.51100000000E-03 0.  1.
        -12    1    3    3    0    0  0.97312151860E+01 -0.11695629669E+02  0.42152067733E+02  0.44813849606E+02  0.00000000000E+00 0.  1.
</event>
<event>
 7    1  0.2285268E-015  0.9000781E+02  0.7816164E-02  0.1186339E+00
        -11   -1    0    0    0    0  0.00000000000E+00  0.00000000000E+00  0.45593999997E+02  0.45594000000E+02  0.51100000000E-03 0.  1.
         11   -1    0    0    0    0 -0.00000000000E+00 -0.00000000000E+00 -0.45593999997E+02  0.45594000000E+02  0.51100000000E-03 0. -1.
    9900012    2    1    2    0    0 -0.79286396092E+00  0.43068108082E-01  0.87313651749E+00  0.90007807007E+02  0.90000069260E+02 0.  0.
         12    1    1    2    0    0  0.79286396092E+00 -0.43068108082E-01 -0.87313651749E+00  0.11801929930E+01  0.00000000000E+00 0. -1.
         11    1    3    3    0    0 -0.21050113888E+02  0.25675978118E+02 -0.27174090690E+01  0.33312872277E+02  0.51100000000E-03 0. -1.
        -11    1    3    3    0    0 -0.62318806571E+01  0.10182483512E+02 -0.58786734670E+00  0.11952610396E+02  0.51100000000E-03 0.  1.
        -12    1    3    3    0    0  0.26489130585E+02 -0.35815393522E+02  0.41784129332E+01  0.44742324335E+02  0.00000000000E+00 0.  1.
</event>
<event>
 7    1  0.2285268E-015  0.9000770E+02  0.7816164E-02  0.1186339E+00
        -11   -1    0    0    0    0  0.00000000000E+00  0.00000000000E+00  0.45593999997E+02  0.45594000000E+02  0.51100000000E-03 0.  1.
         11   -1    0    0    0    0 -0.00000000000E+00 -0.00000000000E+00 -0.45593999997E+02  0.45594000000E+02  0.51100000000E-03 0. -1.
    9900012    2    1    2    0    0 -0.94434472262E+00  0.49589201038E+00  0.50539164811E+00  0.90007696412E+02  0.89999957205E+02 0.  0.
         12    1    1    2    0    0  0.94434472262E+00 -0.49589201038E+00 -0.50539164811E+00  0.11803035877E+01  0.00000000000E+00 0. -1.
         11    1    3    3    0    0 -0.15105752273E+02 -0.27384879820E+00 -0.55272482369E+01  0.16087548547E+02  0.51100000000E-03 0. -1.
        -11    1    3    3    0    0  0.30978965778E+02  0.75624264634E+01  0.30054733236E+02  0.43819785541E+02  0.51100000000E-03 0.  1.
         12    1    3    3    0    0 -0.16817558227E+02 -0.67926856548E+01 -0.24022093351E+02  0.30100362325E+02  0.00000000000E+00 0. -1.
</event>
<event>
 7    1  0.2285268E-015  0.9000776E+02  0.7816164E-02  0.1186339E+00
        -11   -1    0    0    0    0  0.00000000000E+00  0.00000000000E+00  0.45593999997E+02  0.45594000000E+02  0.51100000000E-03 0.  1.
         11   -1    0    0    0    0 -0.00000000000E+00 -0.00000000000E+00 -0.45593999997E+02  0.45594000000E+02  0.51100000000E-03 0. -1.
    9900012    2    1    2    0    0 -0.35062743504E+00  0.91836930526E+00  0.65317045950E+00  0.90007757047E+02  0.90000018640E+02 0.  0.
         12    1    1    2    0    0  0.35062743504E+00 -0.91836930526E+00 -0.65317045950E+00  0.11802429530E+01  0.00000000000E+00 0. -1.
         11    1    3    3    0    0  0.65842263512E+01  0.23435898290E+02  0.77476127304E+01  0.25546406178E+02  0.51100000000E-03 0. -1.
        -11    1    3    3    0    0  0.11477856042E+01  0.47657628775E+01  0.22722566881E+02  0.23245321110E+02  0.51100000000E-03 0.  1.
         12    1    3    3    0    0 -0.80826393904E+01 -0.27283291862E+02 -0.29817009152E+02  0.41216029759E+02  0.00000000000E+00 0. -1.
</event>
<event>
 7    1  0.2285268E-015  0.9000765E+02  0.7816164E-02  0.1186339E+00
        -11   -1    0    0    0    0  0.00000000000E+00  0.00000000000E+00  0.45593999997E+02  0.45594000000E+02  0.51100000000E-03 0. -1.
         11   -1    0    0    0    0 -0.00000000000E+00 -0.00000000000E+00 -0.45593999997E+02  0.45594000000E+02  0.51100000000E-03 0.  1.
    9900012    2    1    2    0    0  0.40265382840E+00 -0.11083268312E+01 -0.52056460812E-01  0.90007649058E+02  0.89999909226E+02 0.  0.
         12    1    1    2    0    0 -0.40265382840E+00  0.11083268312E+01  0.52056460812E-01  0.11803509417E+01  0.00000000000E+00 0. -1.
         11    1    3    3    0    0  0.52651830523E+01 -0.38166472442E+01  0.98998737376E+01  0.11844680200E+02  0.51100000000E-03 0. -1.
        -11    1    3    3    0    0  0.15645971552E+02  0.52360665137E+01 -0.39097119917E+02  0.42435805688E+02  0.51100000000E-03 0.  1.
         12    1    3    3    0    0 -0.20508500775E+02 -0.25277461007E+01  0.29145189719E+02  0.35727163170E+02  0.00000000000E+00 0. -1.
</event>
<event>
 7    1  0.2285268E-015  0.9000774E+02  0.7816164E-02  0.1186339E+00
        -11   -1    0    0    0    0  0.00000000000E+00  0.00000000000E+00  0.45593999997E+02  0.45594000000E+02  0.51100000000E-03 0.  1.
         11   -1    0    0    0    0 -0.00000000000E+00 -0.00000000000E+00 -0.45593999997E+02  0.45594000000E+02  0.51100000000E-03 0. -1.
    9900012    2    1    2    0    0 -0.10750744377E+01  0.32935171861E+00  0.35883286366E+00  0.90007737900E+02  0.89999999240E+02 0.  0.
         12    1    1    2    0    0  0.10750744377E+01 -0.32935171861E+00 -0.35883286366E+00  0.11802621002E+01  0.00000000000E+00 0. -1.
         11    1    3    3    0    0  0.22651479903E+02 -0.30107929806E+02 -0.18498260463E+02  0.41973356065E+02  0.51100000000E-03 0. -1.
        -11    1    3    3    0    0 -0.36960474644E+01  0.75706541598E+00  0.10650590112E+02  0.11299070090E+02  0.51100000000E-03 0.  1.
        -12    1    3    3    0    0 -0.20030506876E+02  0.29680216108E+02  0.82065032148E+01  0.36735311745E+02  0.00000000000E+00 0.  1.
</event>
<event>
 7    1  0.2285268E-015  0.9000741E+02  0.7816164E-02  0.1186340E+00
        -11   -1    0    0    0    0  0.00000000000E+00  0.00000000000E+00  0.45593999997E+02  0.45594000000E+02  0.51100000000E-03 0. -1.
         11   -1    0    0    0    0 -0.00000000000E+00 -0.00000000000E+00 -0.45593999997E+02  0.45594000000E+02  0.51100000000E-03 0.  1.
    9900012    2    1    2    0    0  0.75988436251E+00  0.18980425887E+00 -0.88336455038E+00  0.90007414201E+02  0.89999671267E+02 0.  0.
         12    1    1    2    0    0 -0.75988436251E+00 -0.18980425887E+00  0.88336455038E+00  0.11805857995E+01  0.00000000000E+00 0. -1.
         11    1    3    3    0    0  0.10250973742E+01  0.15917217242E+01 -0.84178642455E+01  0.86281424067E+01  0.51100000000E-03 0. -1.
        -11    1    3    3    0    0 -0.16183123697E+02 -0.11317610189E+02 -0.32010996723E+02  0.37612307885E+02  0.51100000000E-03 0.  1.
         12    1    3    3    0    0  0.15917910685E+02  0.99156927238E+01  0.39545496418E+02  0.43766963908E+02  0.00000000000E+00 0. -1.
</event>
<event>
 7    1  0.2285268E-015  0.9000766E+02  0.7816164E-02  0.1186339E+00
        -11   -1    0    0    0    0  0.00000000000E+00  0.00000000000E+00  0.45593999997E+02  0.45594000000E+02  0.51100000000E-03 0.  1.
         11   -1    0    0    0    0 -0.00000000000E+00 -0.00000000000E+00 -0.45593999997E+02  0.45594000000E+02  0.51100000000E-03 0. -1.
    9900012    2    1    2    0    0  0.72339073477E-01  0.79018610536E+00  0.87382262782E+00  0.90007664028E+02  0.89999924393E+02 0.  0.
         12    1    1    2    0    0 -0.72339073477E-01 -0.79018610536E+00 -0.87382262782E+00  0.11803359723E+01  0.00000000000E+00 0. -1.
         11    1    3    3    0    0 -0.22783393827E+02  0.27498190660E+02 -0.17817171264E+02  0.39908459203E+02  0.51100000000E-03 0.  1.
        -11    1    3    3    0    0  0.14074685015E+02 -0.10481599786E+02 -0.66385620234E+01  0.18762494459E+02  0.51100000000E-03 0. -1.
        -12    1    3    3    0    0  0.87810478853E+01 -0.16226404769E+02  0.25329555915E+02  0.31336710366E+02  0.00000000000E+00 0.  1.
</event>
<event>
 7    1  0.2285268E-015  0.9000781E+02  0.7816164E-02  0.1186339E+00
        -11   -1    0    0    0    0  0.00000000000E+00  0.00000000000E+00  0.45593999997E+02  0.45594000000E+02  0.51100000000E-03 0.  1.
         11   -1    0    0    0    0 -0.00000000000E+00 -0.00000000000E+00 -0.45593999997E+02  0.45594000000E+02  0.51100000000E-03 0. -1.
    9900012    2    1    2    0    0  0.93025077691E+00  0.67848897032E+00  0.25908899045E+00  0.90007813195E+02  0.90000075529E+02 0.  0.
         12    1    1    2    0    0 -0.93025077691E+00 -0.67848897032E+00 -0.25908899045E+00  0.11801868055E+01  0.00000000000E+00 0. -1.
         11    1    3    3    0    0 -0.10340643354E+02  0.82845601014E+00 -0.37238617821E+02  0.38656563502E+02  0.51100000000E-03 0. -1.
        -11    1    3    3    0    0  0.15884832377E+01  0.84594047374E+01 -0.27767074836E+01  0.90440539704E+01  0.51100000000E-03 0.  1.
        -12    1    3    3    0    0  0.96824108933E+01 -0.86093717772E+01  0.40274414295E+02  0.42307195722E+02  0.00000000000E+00 0.  1.
</event>
<event>
 7    1  0.2285268E-015  0.9000769E+02  0.7816164E-02  0.1186339E+00
        -11   -1    0    0    0    0  0.00000000000E+00  0.00000000000E+00  0.45593999997E+02  0.45594000000E+02  0.51100000000E-03 0.  1.
         11   -1    0    0    0    0 -0.00000000000E+00 -0.00000000000E+00 -0.45593999997E+02  0.45594000000E+02  0.51100000000E-03 0. -1.
    9900012    2    1    2    0    0  0.11721135681E+01  0.44794548474E-02  0.13878331652E+00  0.90007690256E+02  0.89999950968E+02 0.  0.
         12    1    1    2    0    0 -0.11721135681E+01 -0.44794548474E-02 -0.13878331652E+00  0.11803097437E+01  0.00000000000E+00 0. -1.
         11    1    3    3    0    0  0.35108387753E+02  0.42798988528E+01 -0.12633748430E+02  0.37556997011E+02  0.51100000000E-03 0. -1.
        -11    1    3    3    0    0  0.57595014385E+01 -0.77826713127E+01 -0.21147226756E+01  0.99102917130E+01  0.51100000000E-03 0.  1.
        -12    1    3    3    0    0 -0.39695775623E+02  0.35072519148E+01  0.14887254422E+02  0.42540401533E+02  0.00000000000E+00 0.  1.
</event>
<event>
 7    1  0.2285268E-015  0.9000772E+02  0.7816164E-02  0.1186339E+00
        -11   -1    0    0    0    0  0.00000000000E+00  0.00000000000E+00  0.45593999997E+02  0.45594000000E+02  0.51100000000E-03 0.  1.
         11   -1    0    0    0    0 -0.00000000000E+00 -0.00000000000E+00 -0.45593999997E+02  0.45594000000E+02  0.51100000000E-03 0. -1.
    9900012    2    1    2    0    0 -0.75841395841E+00 -0.86327932548E+00 -0.26946742228E+00  0.90007722229E+02  0.89999983362E+02 0.  0.
         12    1    1    2    0    0  0.75841395841E+00  0.86327932548E+00  0.26946742228E+00  0.11802777715E+01  0.00000000000E+00 0. -1.
         11    1    3    3    0    0 -0.19726002360E+02  0.11844690762E+02 -0.33025379321E+02  0.40250311153E+02  0.51100000000E-03 0. -1.
        -11    1    3    3    0    0 -0.53606941634E+01 -0.87293871850E+01  0.21654132502E+01  0.10470351348E+02  0.51100000000E-03 0.  1.
        -12    1    3    3    0    0  0.24328282565E+02 -0.39785829024E+01  0.30590498649E+02  0.39287059728E+02  0.00000000000E+00 0.  1.
</event>
<event>
 7    1  0.2285268E-015  0.9000754E+02  0.7816164E-02  0.1186339E+00
        -11   -1    0    0    0    0  0.00000000000E+00  0.00000000000E+00  0.45593999997E+02  0.45594000000E+02  0.51100000000E-03 0. -1.
         11   -1    0    0    0    0 -0.00000000000E+00 -0.00000000000E+00 -0.45593999997E+02  0.45594000000E+02  0.51100000000E-03 0.  1.
    9900012    2    1    2    0    0  0.16585523611E+00  0.81494834722E+00 -0.83776004672E+00  0.90007537945E+02  0.89999796645E+02 0.  0.
         12    1    1    2    0    0 -0.16585523611E+00 -0.81494834722E+00  0.83776004672E+00  0.11804620552E+01  0.00000000000E+00 0. -1.
         11    1    3    3    0    0 -0.26702113999E+02 -0.81915899599E+01  0.60513511981E+01  0.28578381509E+02  0.51100000000E-03 0. -1.
        -11    1    3    3    0    0 -0.11563683497E+02 -0.67582951719E+01  0.98687592293E+01  0.16636878873E+02  0.51100000000E-03 0.  1.
        -12    1    3    3    0    0  0.38431652733E+02  0.15764833479E+02 -0.16757870474E+02  0.44792277562E+02  0.00000000000E+00 0.  1.
</event>
<event>
 7    1  0.2285268E-015  0.9000772E+02  0.7816164E-02  0.1186339E+00
        -11   -1    0    0    0    0  0.00000000000E+00  0.00000000000E+00  0.45593999997E+02  0.45594000000E+02  0.51100000000E-03 0. -1.
         11   -1    0    0    0    0 -0.00000000000E+00 -0.00000000000E+00 -0.45593999997E+02  0.45594000000E+02  0.51100000000E-03 0.  1.
    9900012    2    1    2    0    0  0.60133855257E+00  0.97362893946E+00 -0.28895009153E+00  0.90007723116E+02  0.89999984262E+02 0.  0.
         12    1    1    2    0    0 -0.60133855257E+00 -0.97362893946E+00  0.28895009153E+00  0.11802768836E+01  0.00000000000E+00 0. -1.
         11    1    3    3    0    0  0.36978282129E+01 -0.66158406520E+01  0.68204003028E+01  0.10196133658E+02  0.51100000000E-03 0. -1.
        -11    1    3    3    0    0 -0.15670438074E+02 -0.20319689653E+02 -0.31530657556E+02  0.40652611025E+02  0.51100000000E-03 0.  1.
         12    1    3    3    0    0  0.12573948414E+02  0.27909159244E+02  0.24421307162E+02  0.39158978433E+02  0.00000000000E+00 0. -1.
</event>
<event>
 7    1  0.2285268E-015  0.9000772E+02  0.7816164E-02  0.1186339E+00
        -11   -1    0    0    0    0  0.00000000000E+00  0.00000000000E+00  0.45593999997E+02  0.45594000000E+02  0.51100000000E-03 0.  1.
         11   -1    0    0    0    0 -0.00000000000E+00 -0.00000000000E+00 -0.45593999997E+02  0.45594000000E+02  0.51100000000E-03 0. -1.
    9900012    2    1    2    0    0  0.63762060501E+00 -0.99147396298E+00 -0.58988395309E-01  0.90007720251E+02  0.89999981358E+02 0.  0.
         12    1    1    2    0    0 -0.63762060501E+00  0.99147396298E+00  0.58988395309E-01  0.11802797490E+01  0.00000000000E+00 0. -1.
         11    1    3    3    0    0  0.15990034465E+02 -0.12471505183E+01 -0.35240546218E+02  0.38718634850E+02  0.51100000000E-03 0. -1.
        -11    1    3    3    0    0  0.59826893226E+01  0.71132248310E+01 -0.32672014899E+00  0.93003916769E+01  0.51100000000E-03 0.  1.
        -12    1    3    3    0    0 -0.21335103182E+02 -0.68575482757E+01  0.35508277972E+02  0.41988693724E+02  0.00000000000E+00 0.  1.
</event>
<event>
 7    1  0.2285268E-015  0.9000766E+02  0.7816164E-02  0.1186339E+00
        -11   -1    0    0    0    0  0.00000000000E+00  0.00000000000E+00  0.45593999997E+02  0.45594000000E+02  0.51100000000E-03 0. -1.
         11   -1    0    0    0    0 -0.00000000000E+00 -0.00000000000E+00 -0.45593999997E+02  0.45594000000E+02  0.51100000000E-03 0.  1.
    9900012    2    1    2    0    0 -0.15801865865E+00  0.11162230381E+01  0.34966845728E+00  0.90007664540E+02  0.89999924912E+02 0.  0.
         12    1    1    2    0    0  0.15801865865E+00 -0.11162230381E+01 -0.34966845728E+00  0.11803354597E+01  0.00000000000E+00 0. -1.
         11    1    3    3    0    0 -0.36009933720E+02  0.14406421433E+02  0.12365696790E+02  0.40708362315E+02  0.51100000000E-03 0. -1.
        -11    1    3    3    0    0  0.66021857475E+01  0.88582545865E+01 -0.16238527822E+01  0.11166665979E+02  0.51100000000E-03 0.  1.
        -12    1    3    3    0    0  0.29249729314E+02 -0.22148452981E+02 -0.10392175551E+02  0.38132636246E+02  0.00000000000E+00 0.  1.
</event>
<event>
 7    1  0.2285268E-015  0.9000766E+02  0.7816164E-02  0.1186339E+00
        -11   -1    0    0    0    0  0.00000000000E+00  0.00000000000E+00  0.45593999997E+02  0.45594000000E+02  0.51100000000E-03 0.  1.
         11   -1    0    0    0    0 -0.00000000000E+00 -0.00000000000E+00 -0.45593999997E+02  0.45594000000E+02  0.51100000000E-03 0. -1.
    9900012    2    1    2    0    0 -0.11543745437E+01 -0.20563896318E-01  0.24534183320E+00  0.90007662728E+02  0.89999923076E+02 0.  0.
         12    1    1    2    0    0  0.11543745437E+01  0.20563896318E-01 -0.24534183320E+00  0.11803372721E+01  0.00000000000E+00 0. -1.
         11    1    3    3    0    0  0.10976649299E+01  0.29332870155E+02  0.12322959824E+02  0.31835161047E+02  0.51100000000E-03 0. -1.
        -11    1    3    3    0    0  0.13910423880E+01  0.13022916783E+02 -0.82254600996E+01  0.15465754252E+02  0.51100000000E-03 0.  1.
        -12    1    3    3    0    0 -0.36430818616E+01 -0.42376350835E+02 -0.38521578913E+01  0.42706747429E+02  0.00000000000E+00 0.  1.
</event>
<event>
 7    1  0.2285268E-015  0.9000773E+02  0.7816164E-02  0.1186339E+00
        -11   -1    0    0    0    0  0.00000000000E+00  0.00000000000E+00  0.45593999997E+02  0.45594000000E+02  0.51100000000E-03 0.  1.
         11   -1    0    0    0    0 -0.00000000000E+00 -0.00000000000E+00 -0.45593999997E+02  0.45594000000E+02  0.51100000000E-03 0. -1.
    9900012    2    1    2    0    0 -0.10676669669E+01 -0.32076198741E+00  0.38761594753E+00  0.90007725825E+02  0.89999987006E+02 0.  0.
         12    1    1    2    0    0  0.10676669669E+01  0.32076198741E+00 -0.38761594753E+00  0.11802741747E+01  0.00000000000E+00 0. -1.
         11    1    3    3    0    0  0.73175057372E+01  0.17217374723E+01 -0.15793234588E+01  0.76814408144E+01  0.51100000000E-03 0. -1.
        -11    1    3    3    0    0  0.59201017709E+01  0.32071460240E+02  0.22873789455E+02  0.39835115303E+02  0.51100000000E-03 0.  1.
         12    1    3    3    0    0 -0.14305274475E+02 -0.34113959699E+02 -0.20906850049E+02  0.42491169708E+02  0.00000000000E+00 0. -1.
</event>
<event>
 7    1  0.2285268E-015  0.9000751E+02  0.7816164E-02  0.1186340E+00
        -11   -1    0    0    0    0  0.00000000000E+00  0.00000000000E+00  0.45593999997E+02  0.45594000000E+02  0.51100000000E-03 0.  1.
         11   -1    0    0    0    0 -0.00000000000E+00 -0.00000000000E+00 -0.45593999997E+02  0.45594000000E+02  0.51100000000E-03 0. -1.
    9900012    2    1    2    0    0 -0.46399060021E+00  0.90237409396E+00 -0.60331348264E+00  0.90007511355E+02  0.89999769705E+02 0.  0.
         12    1    1    2    0    0  0.46399060021E+00 -0.90237409396E+00  0.60331348264E+00  0.11804886449E+01  0.00000000000E+00 0. -1.
         11    1    3    3    0    0 -0.44863549992E+01 -0.92666229684E+01 -0.34394303163E+01  0.10854831347E+02  0.51100000000E-03 0. -1.
        -11    1    3    3    0    0 -0.35143311598E+02 -0.49294156660E+00  0.12716457255E+02  0.37376511700E+02  0.51100000000E-03 0.  1.
         12    1    3    3    0    0  0.39165675997E+02  0.10661938629E+02 -0.98803404218E+01  0.41776168308E+02  0.00000000000E+00 0. -1.
</event>
<event>
 7    1  0.2285268E-015  0.9000757E+02  0.7816164E-02  0.1186339E+00
        -11   -1    0    0    0    0  0.00000000000E+00  0.00000000000E+00  0.45593999997E+02  0.45594000000E+02  0.51100000000E-03 0.  1.
         11   -1    0    0    0    0 -0.00000000000E+00 -0.00000000000E+00 -0.45593999997E+02  0.45594000000E+02  0.51100000000E-03 0. -1.
    9900012    2    1    2    0    0 -0.79036332497E+00 -0.49553242193E+00  0.72332449456E+00  0.90007565804E+02  0.89999824872E+02 0.  0.
         12    1    1    2    0    0  0.79036332497E+00  0.49553242193E+00 -0.72332449456E+00  0.11804341960E+01  0.00000000000E+00 0. -1.
         11    1    3    3    0    0  0.69238660331E+00  0.37260698236E+01  0.90770964059E+01  0.98364970880E+01  0.51100000000E-03 0. -1.
        -11    1    3    3    0    0  0.23319258633E+02 -0.17176770826E+02  0.23842976435E+02  0.37514221367E+02  0.51100000000E-03 0.  1.
         12    1    3    3    0    0 -0.24802008562E+02  0.12955168581E+02 -0.32196748347E+02  0.42656847349E+02  0.00000000000E+00 0. -1.
</event>
<event>
 7    1  0.2285268E-015  0.9000777E+02  0.7816164E-02  0.1186339E+00
        -11   -1    0    0    0    0  0.00000000000E+00  0.00000000000E+00  0.45593999997E+02  0.45594000000E+02  0.51100000000E-03 0.  1.
         11   -1    0    0    0    0 -0.00000000000E+00 -0.00000000000E+00 -0.45593999997E+02  0.45594000000E+02  0.51100000000E-03 0. -1.
    9900012    2    1    2    0    0 -0.10328610707E+01 -0.28641572424E+00  0.49408107156E+00  0.90007766098E+02  0.90000027810E+02 0.  0.
         12    1    1    2    0    0  0.10328610707E+01  0.28641572424E+00 -0.49408107156E+00  0.11802339021E+01  0.00000000000E+00 0. -1.
         11    1    3    3    0    0 -0.28427881414E+01  0.87615692069E+01  0.22757785669E+01  0.94881878001E+01  0.51100000000E-03 0. -1.
        -11    1    3    3    0    0  0.12499719828E+02 -0.77602578923E+01  0.37239295619E+02  0.40040351357E+02  0.51100000000E-03 0.  1.
         12    1    3    3    0    0 -0.10689792757E+02 -0.12877270388E+01 -0.39020993114E+02  0.40479226941E+02  0.00000000000E+00 0. -1.
</event>
<event>
 7    1  0.2285268E-015  0.9000757E+02  0.7816164E-02  0.1186339E+00
        -11   -1    0    0    0    0  0.00000000000E+00  0.00000000000E+00  0.45593999997E+02  0.45594000000E+02  0.51100000000E-03 0. -1.
         11   -1    0    0    0    0 -0.00000000000E+00 -0.00000000000E+00 -0.45593999997E+02  0.45594000000E+02  0.51100000000E-03 0.  1.
    9900012    2    1    2    0    0 -0.13794628118E+00  0.92466126642E+00 -0.72068142119E+00  0.90007572389E+02  0.89999831544E+02 0.  0.
         12    1    1    2    0    0  0.13794628118E+00 -0.92466126642E+00  0.72068142119E+00  0.11804276111E+01  0.00000000000E+00 0. -1.
         11    1    3    3    0    0 -0.17312298374E+01 -0.25356555508E+01  0.77322732164E+01  0.83195405628E+01  0.51100000000E-03 0. -1.
        -11    1    3    3    0    0 -0.27693475032E+02 -0.21743396133E+02  0.12952622773E+02  0.37516320071E+02  0.51100000000E-03 0.  1.
         12    1    3    3    0    0  0.29286758588E+02  0.25203712950E+02 -0.21405577410E+02  0.44171711755E+02  0.00000000000E+00 0. -1.
</event>
<event>
 7    1  0.2285268E-015  0.9000777E+02  0.7816164E-02  0.1186339E+00
        -11   -1    0    0    0    0  0.00000000000E+00  0.00000000000E+00  0.45593999997E+02  0.45594000000E+02  0.51100000000E-03 0.  1.
         11   -1    0    0    0    0 -0.00000000000E+00 -0.00000000000E+00 -0.45593999997E+02  0.45594000000E+02  0.51100000000E-03 0. -1.
    9900012    2    1    2    0    0 -0.38340738789E+00 -0.10711625153E+01 -0.31392750654E+00  0.90007770853E+02  0.90000032629E+02 0.  0.
         12    1    1    2    0    0  0.38340738789E+00  0.10711625153E+01  0.31392750654E+00  0.11802291466E+01  0.00000000000E+00 0. -1.
         11    1    3    3    0    0  0.32954991243E+02  0.19890165941E+02 -0.47059381168E+01  0.38778808682E+02  0.51100000000E-03 0. -1.
        -11    1    3    3    0    0 -0.58200921267E+01 -0.24067556300E+01  0.15095313044E+02  0.16356479486E+02  0.51100000000E-03 0.  1.
        -12    1    3    3    0    0 -0.27518306504E+02 -0.18554572826E+02 -0.10703302434E+02  0.34872482685E+02  0.00000000000E+00 0.  1.
</event>
<event>
 7    1  0.2285268E-015  0.9000773E+02  0.7816164E-02  0.1186339E+00
        -11   -1    0    0    0    0  0.00000000000E+00  0.00000000000E+00  0.45593999997E+02  0.45594000000E+02  0.51100000000E-03 0. -1.
         11   -1    0    0    0    0 -0.00000000000E+00 -0.00000000000E+00 -0.45593999997E+02  0.45594000000E+02  0.51100000000E-03 0.  1.
    9900012    2    1    2    0    0 -0.23418321941E+00 -0.82197290112E+00 -0.81396889729E+00  0.90007734523E+02  0.89999995819E+02 0.  0.
         12    1    1    2    0    0  0.23418321941E+00  0.82197290112E+00  0.81396889729E+00  0.11802654770E+01  0.00000000000E+00 0. -1.
         11    1    3    3    0    0  0.19011807979E+02 -0.32948982890E+02  0.86314562898E+01  0.39007516636E+02  0.51100000000E-03 0. -1.
        -11    1    3    3    0    0  0.95810709631E+01  0.69017028161E+01 -0.19424741461E+01  0.11966771855E+02  0.51100000000E-03 0.  1.
        -12    1    3    3    0    0 -0.28827062162E+02  0.25225307173E+02 -0.75029510410E+01  0.39033446032E+02  0.00000000000E+00 0.  1.
</event>
<event>
 7    1  0.2285268E-015  0.9000797E+02  0.7816164E-02  0.1186339E+00
        -11   -1    0    0    0    0  0.00000000000E+00  0.00000000000E+00  0.45593999997E+02  0.45594000000E+02  0.51100000000E-03 0.  1.
         11   -1    0    0    0    0 -0.00000000000E+00 -0.00000000000E+00 -0.45593999997E+02  0.45594000000E+02  0.51100000000E-03 0. -1.
    9900012    2    1    2    0    0  0.45624066626E+00  0.55035310391E+00  0.93884697435E+00  0.90007967066E+02  0.90000231431E+02 0.  0.
         12    1    1    2    0    0 -0.45624066626E+00 -0.55035310391E+00 -0.93884697435E+00  0.11800329342E+01  0.00000000000E+00 0. -1.
         11    1    3    3    0    0 -0.51322779764E+01  0.13609508957E+01  0.91305036435E+01  0.10562128650E+02  0.51100000000E-03 0. -1.
        -11    1    3    3    0    0 -0.25401686048E+02  0.26290398648E+02  0.32931537758E+01  0.36705252719E+02  0.51100000000E-03 0.  1.
         12    1    3    3    0    0  0.30990204691E+02 -0.27100996439E+02 -0.11484810445E+02  0.42740585697E+02  0.00000000000E+00 0. -1.
</event>
<event>
 7    1  0.2285268E-015  0.9000771E+02  0.7816164E-02  0.1186339E+00
        -11   -1    0    0    0    0  0.00000000000E+00  0.00000000000E+00  0.45593999997E+02  0.45594000000E+02  0.51100000000E-03 0.  1.
         11   -1    0    0    0    0 -0.00000000000E+00 -0.00000000000E+00 -0.45593999997E+02  0.45594000000E+02  0.51100000000E-03 0. -1.
    9900012    2    1    2    0    0  0.16387860132E+00  0.56443029736E+00  0.10235426205E+01  0.90007713064E+02  0.89999974076E+02 0.  0.
         12    1    1    2    0    0 -0.16387860132E+00 -0.56443029736E+00 -0.10235426205E+01  0.11802869365E+01  0.00000000000E+00 0. -1.
         11    1    3    3    0    0  0.14252625940E+02 -0.39402415257E+02  0.95485084922E+01  0.42975128726E+02  0.51100000000E-03 0. -1.
        -11    1    3    3    0    0  0.10974861756E+01  0.12614647130E+02 -0.93439047022E+01  0.15736656362E+02  0.51100000000E-03 0.  1.
        -12    1    3    3    0    0 -0.15186233515E+02  0.27352198425E+02  0.81893883048E+00  0.31295927975E+02  0.00000000000E+00 0.  1.
</event>
<event>
 7    1  0.2285268E-015  0.9000772E+02  0.7816164E-02  0.1186339E+00
        -11   -1    0    0    0    0  0.00000000000E+00  0.00000000000E+00  0.45593999997E+02  0.45594000000E+02  0.51100000000E-03 0.  1.
         11   -1    0    0    0    0 -0.00000000000E+00 -0.00000000000E+00 -0.45593999997E+02  0.45594000000E+02  0.51100000000E-03 0. -1.
    9900012    2    1    2    0    0  0.27633141983E+00  0.88996188411E+00  0.72433967379E+00  0.90007720723E+02  0.89999981837E+02 0.  0.
         12    1    1    2    0    0 -0.27633141983E+00 -0.88996188411E+00 -0.72433967379E+00  0.11802792770E+01  0.00000000000E+00 0. -1.
         11    1    3    3    0    0  0.66000092556E+01 -0.10484401658E+02 -0.35927101500E+02  0.38003150169E+02  0.51100000000E-03 0. -1.
        -11    1    3    3    0    0 -0.87583703037E+01 -0.40974730641E+01 -0.23713485944E+01  0.99559846477E+01  0.51100000000E-03 0.  1.
        -12    1    3    3    0    0  0.24346924680E+01  0.15471836606E+02  0.39022789769E+02  0.42048585906E+02  0.00000000000E+00 0.  1.
</event>
<event>
 7    1  0.2285268E-015  0.9000767E+02  0.7816164E-02  0.1186339E+00
        -11   -1    0    0    0    0  0.00000000000E+00  0.00000000000E+00  0.45593999997E+02  0.45594000000E+02  0.51100000000E-03 0. -1.
         11   -1    0    0    0    0 -0.00000000000E+00 -0.00000000000E+00 -0.45593999997E+02  0.45594000000E+02  0.51100000000E-03 0.  1.
    9900012    2    1    2    0    0 -0.27123587036E+00  0.65264755026E-01 -0.11468863089E+01  0.90007670982E+02  0.89999931439E+02 0.  0.
         12    1    1    2    0    0  0.27123587036E+00 -0.65264755026E-01  0.11468863089E+01  0.11803290181E+01  0.00000000000E+00 0. -1.
         11    1    3    3    0    0 -0.62789629006E+01  0.14795017618E+02  0.24153720098E+02  0.29012413141E+02  0.51100000000E-03 0. -1.
        -11    1    3    3    0    0  0.10702171303E+02  0.20321476010E+01  0.14160326230E+02  0.17865635552E+02  0.51100000000E-03 0.  1.
        -12    1    3    3    0    0 -0.46944442729E+01 -0.16761900464E+02 -0.39460932637E+02  0.43129622289E+02  0.00000000000E+00 0.  1.
</event>
<event>
 7    1  0.2285268E-015  0.9000775E+02  0.7816164E-02  0.1186339E+00
        -11   -1    0    0    0    0  0.00000000000E+00  0.00000000000E+00  0.45593999997E+02  0.45594000000E+02  0.51100000000E-03 0. -1.
         11   -1    0    0    0    0 -0.00000000000E+00 -0.00000000000E+00 -0.45593999997E+02  0.45594000000E+02  0.51100000000E-03 0.  1.
    9900012    2    1    2    0    0 -0.92677351377E+00 -0.69692275047E+00  0.21996670183E+00  0.90007747563E+02  0.90000009030E+02 0.  0.
         12    1    1    2    0    0  0.92677351377E+00  0.69692275047E+00 -0.21996670183E+00  0.11802524374E+01  0.00000000000E+00 0. -1.
         11    1    3    3    0    0 -0.22030649848E+00  0.24917277801E+02  0.32141799181E+02  0.40669577362E+02  0.51100000000E-03 0. -1.
        -11    1    3    3    0    0 -0.59583033931E+01  0.40126466350E+01 -0.36786448858E+01  0.80706344731E+01  0.51100000000E-03 0.  1.
        -12    1    3    3    0    0  0.52518363778E+01 -0.29626847186E+02 -0.28243187594E+02  0.41267535727E+02  0.00000000000E+00 0.  1.
</event>
<event>
 7    1  0.2285268E-015  0.9000825E+02  0.7816164E-02  0.1186338E+00
        -11   -1    0    0    0    0  0.00000000000E+00  0.00000000000E+00  0.45593999997E+02  0.45594000000E+02  0.51100000000E-03 0. -1.
         11   -1    0    0    0    0 -0.00000000000E+00 -0.00000000000E+00 -0.45593999997E+02  0.45594000000E+02  0.51100000000E-03 0.  1.
    9900012    2    1    2    0    0 -0.54332877759E+00 -0.51260592971E+00 -0.91314261281E+00  0.90008254082E+02  0.90000522234E+02 0.  0.
         12    1    1    2    0    0  0.54332877759E+00  0.51260592971E+00  0.91314261281E+00  0.11797459180E+01  0.00000000000E+00 0. -1.
         11    1    3    3    0    0  0.39641780324E+02  0.13051557169E+02  0.25021828586E+01  0.41809984586E+02  0.51100000000E-03 0. -1.
        -11    1    3    3    0    0 -0.48146896026E+01  0.44872587305E+01 -0.52894134782E+01  0.84436142787E+01  0.51100000000E-03 0.  1.
        -12    1    3    3    0    0 -0.35370419499E+02 -0.18051421829E+02  0.18740880068E+01  0.39754655217E+02  0.00000000000E+00 0.  1.
</event>
<event>
 7    1  0.2285268E-015  0.9000771E+02  0.7816164E-02  0.1186339E+00
        -11   -1    0    0    0    0  0.00000000000E+00  0.00000000000E+00  0.45593999997E+02  0.45594000000E+02  0.51100000000E-03 0.  1.
         11   -1    0    0    0    0 -0.00000000000E+00 -0.00000000000E+00 -0.45593999997E+02  0.45594000000E+02  0.51100000000E-03 0. -1.
    9900012    2    1    2    0    0  0.59884171541E+00 -0.67714206591E+00 -0.75892066338E+00  0.90007706244E+02  0.89999967166E+02 0.  0.
         12    1    1    2    0    0 -0.59884171541E+00  0.67714206591E+00  0.75892066338E+00  0.11802937562E+01  0.00000000000E+00 0. -1.
         11    1    3    3    0    0  0.77967916474E+01  0.18533350723E+02 -0.25884923321E+02  0.32776581649E+02  0.51100000000E-03 0. -1.
        -11    1    3    3    0    0 -0.78407368495E+01 -0.17369741913E+02 -0.10360167895E+02  0.21691430740E+02  0.51100000000E-03 0.  1.
        -12    1    3    3    0    0  0.64278691747E+00 -0.18407508766E+01  0.35486170553E+02  0.35539693855E+02  0.00000000000E+00 0.  1.
</event>
<event>
 7    1  0.2285268E-015  0.9000774E+02  0.7816164E-02  0.1186339E+00
        -11   -1    0    0    0    0  0.00000000000E+00  0.00000000000E+00  0.45593999997E+02  0.45594000000E+02  0.51100000000E-03 0.  1.
         11   -1    0    0    0    0 -0.00000000000E+00 -0.00000000000E+00 -0.45593999997E+02  0.45594000000E+02  0.51100000000E-03 0. -1.
    9900012    2    1    2    0    0  0.10855191714E+01  0.38206346599E+00  0.26207479801E+00  0.90007742586E+02  0.90000003988E+02 0.  0.
         12    1    1    2    0    0 -0.10855191714E+01 -0.38206346599E+00 -0.26207479801E+00  0.11802574140E+01  0.00000000000E+00 0. -1.
         11    1    3    3    0    0 -0.15811348405E+01 -0.54253518992E+01  0.79804678879E+01  0.97786654807E+01  0.51100000000E-03 0. -1.
        -11    1    3    3    0    0  0.34444930574E+02  0.10915059603E+02 -0.24767177506E+02  0.43806447588E+02  0.51100000000E-03 0.  1.
         12    1    3    3    0    0 -0.31778276562E+02 -0.51076442380E+01  0.17048784416E+02  0.36422629518E+02  0.00000000000E+00 0. -1.
</event>
<event>
 7    1  0.2285268E-015  0.9000771E+02  0.7816164E-02  0.1186339E+00
        -11   -1    0    0    0    0  0.00000000000E+00  0.00000000000E+00  0.45593999997E+02  0.45594000000E+02  0.51100000000E-03 0. -1.
         11   -1    0    0    0    0 -0.00000000000E+00 -0.00000000000E+00 -0.45593999997E+02  0.45594000000E+02  0.51100000000E-03 0.  1.
    9900012    2    1    2    0    0 -0.65836350926E+00  0.44591834842E+00 -0.87223285450E+00  0.90007713663E+02  0.89999974684E+02 0.  0.
         12    1    1    2    0    0  0.65836350926E+00 -0.44591834842E+00  0.87223285450E+00  0.11802863366E+01  0.00000000000E+00 0. -1.
         11    1    3    3    0    0  0.10468689944E+02  0.56367013638E+01  0.11732166287E+02  0.16703580378E+02  0.51100000000E-03 0. -1.
        -11    1    3    3    0    0  0.53700475740E+01 -0.26831731977E+02 -0.30313452616E+02  0.40837294984E+02  0.51100000000E-03 0.  1.
         12    1    3    3    0    0 -0.16497101027E+02  0.21640948962E+02  0.17709053475E+02  0.32466838301E+02  0.00000000000E+00 0. -1.
</event>
<event>
 7    1  0.2285268E-015  0.9000761E+02  0.7816164E-02  0.1186339E+00
        -11   -1    0    0    0    0  0.00000000000E+00  0.00000000000E+00  0.45593999997E+02  0.45594000000E+02  0.51100000000E-03 0.  1.
         11   -1    0    0    0    0 -0.00000000000E+00 -0.00000000000E+00 -0.45593999997E+02  0.45594000000E+02  0.51100000000E-03 0. -1.
    9900012    2    1    2    0    0 -0.10452364513E+01  0.44928799368E+00  0.31455746949E+00  0.90007607971E+02  0.89999867596E+02 0.  0.
         12    1    1    2    0    0  0.10452364513E+01 -0.44928799368E+00 -0.31455746949E+00  0.11803920289E+01  0.00000000000E+00 0. -1.
         11    1    3    3    0    0 -0.24599064837E+02 -0.25569837846E+02  0.14639153470E+01  0.35511598764E+02  0.51100000000E-03 0. -1.
        -11    1    3    3    0    0 -0.28900958507E+01  0.55797764709E+01  0.15812963234E+02  0.17015768158E+02  0.51100000000E-03 0.  1.
        -12    1    3    3    0    0  0.26443924237E+02  0.20439349369E+02 -0.16962321112E+02  0.37480241050E+02  0.00000000000E+00 0.  1.
</event>
<event>
 7    1  0.2285268E-015  0.9000774E+02  0.7816164E-02  0.1186339E+00
        -11   -1    0    0    0    0  0.00000000000E+00  0.00000000000E+00  0.45593999997E+02  0.45594000000E+02  0.51100000000E-03 0. -1.
         11   -1    0    0    0    0 -0.00000000000E+00 -0.00000000000E+00 -0.45593999997E+02  0.45594000000E+02  0.51100000000E-03 0.  1.
    9900012    2    1    2    0    0  0.85937067983E+00 -0.80760797012E+00 -0.47579522641E-01  0.90007740533E+02  0.90000001908E+02 0.  0.
         12    1    1    2    0    0 -0.85937067983E+00  0.80760797012E+00  0.47579522641E-01  0.11802594671E+01  0.00000000000E+00 0. -1.
         11    1    3    3    0    0  0.64003723587E+01 -0.78088702073E+01 -0.10553844377E+01  0.10151702164E+02  0.51100000000E-03 0. -1.
        -11    1    3    3    0    0  0.29512357487E+02 -0.14620367997E+02 -0.14316209475E+02  0.35912229934E+02  0.51100000000E-03 0.  1.
         12    1    3    3    0    0 -0.35053359166E+02  0.21621630234E+02  0.15324014390E+02  0.43943808436E+02  0.00000000000E+00 0. -1.
</event>
<event>
 7    1  0.2285268E-015  0.9000757E+02  0.7816164E-02  0.1186339E+00
        -11   -1    0    0    0    0  0.00000000000E+00  0.00000000000E+00  0.45593999997E+02  0.45594000000E+02  0.51100000000E-03 0. -1.
         11   -1    0    0    0    0 -0.00000000000E+00 -0.00000000000E+00 -0.45593999997E+02  0.45594000000E+02  0.51100000000E-03 0.  1.
    9900012    2    1    2    0    0  0.10782128380E+01  0.35407687433E+00 -0.32480091382E+00  0.90007572539E+02  0.89999831696E+02 0.  0.
         12    1    1    2    0    0 -0.10782128380E+01 -0.35407687433E+00  0.32480091382E+00  0.11804274609E+01  0.00000000000E+00 0. -1.
         11    1    3    3    0    0 -0.22840234074E+02 -0.34665743811E+02  0.47470807800E-01  0.41513760854E+02  0.51100000000E-03 0. -1.
        -11    1    3    3    0    0  0.65072641643E+01 -0.72550127401E+00 -0.53073619620E+01  0.84284595425E+01  0.51100000000E-03 0.  1.
        -12    1    3    3    0    0  0.17411182748E+02  0.35745321959E+02  0.49350902404E+01  0.40065352143E+02  0.00000000000E+00 0.  1.
</event>
<event>
 7    1  0.2962929E-015  0.9000772E+02  0.7816164E-02  0.1186339E+00
        -11   -1    0    0    0    0  0.00000000000E+00  0.00000000000E+00  0.45593999997E+02  0.45594000000E+02  0.51100000000E-03 0. -1.
         11   -1    0    0    0    0 -0.00000000000E+00 -0.00000000000E+00 -0.45593999997E+02  0.45594000000E+02  0.51100000000E-03 0.  1.
    9900012    2    1    2    0    0  0.52207852475E+00  0.70789811277E+00 -0.78700600819E+00  0.90007718601E+02  0.89999979686E+02 0.  0.
         12    1    1    2    0    0 -0.52207852475E+00 -0.70789811277E+00  0.78700600819E+00  0.11802813991E+01  0.00000000000E+00 0. -1.
         11    1    3    3    0    0 -0.53445162824E+01  0.80932920676E+01  0.10284098982E+01  0.97530947890E+01  0.51100000000E-03 0. -1.
        -11    1    3    3    0    0 -0.21758389073E+02 -0.86726436145E+01 -0.31779670471E+02  0.39478977923E+02  0.51100000000E-03 0.  1.
         12    1    3    3    0    0  0.27624983880E+02  0.12872496597E+01  0.29964254565E+02  0.40775645889E+02  0.00000000000E+00 0. -1.
</event>
<event>
 7    1  0.2285268E-015  0.9000773E+02  0.7816164E-02  0.1186339E+00
        -11   -1    0    0    0    0  0.00000000000E+00  0.00000000000E+00  0.45593999997E+02  0.45594000000E+02  0.51100000000E-03 0.  1.
         11   -1    0    0    0    0 -0.00000000000E+00 -0.00000000000E+00 -0.45593999997E+02  0.45594000000E+02  0.51100000000E-03 0. -1.
    9900012    2    1    2    0    0  0.83882862270E+00 -0.56430397587E+00 -0.60906573930E+00  0.90007731594E+02  0.89999992851E+02 0.  0.
         12    1    1    2    0    0 -0.83882862270E+00  0.56430397587E+00  0.60906573930E+00  0.11802684060E+01  0.00000000000E+00 0. -1.
         11    1    3    3    0    0 -0.92326262637E+01 -0.16912160824E+01 -0.24406569927E+01  0.96983713261E+01  0.51100000000E-03 0. -1.
        -11    1    3    3    0    0 -0.10798636705E+02  0.26443681276E+02  0.26731281256E+02  0.39120841401E+02  0.51100000000E-03 0.  1.
         12    1    3    3    0    0  0.20870091592E+02 -0.25316769169E+02 -0.24899690003E+02  0.41188518867E+02  0.00000000000E+00 0. -1.
</event>
<event>
 7    1  0.2285268E-015  0.9000770E+02  0.7816164E-02  0.1186339E+00
        -11   -1    0    0    0    0  0.00000000000E+00  0.00000000000E+00  0.45593999997E+02  0.45594000000E+02  0.51100000000E-03 0. -1.
         11   -1    0    0    0    0 -0.00000000000E+00 -0.00000000000E+00 -0.45593999997E+02  0.45594000000E+02  0.51100000000E-03 0.  1.
    9900012    2    1    2    0    0  0.31691759832E+00 -0.50458785957E+00 -0.10188522166E+01  0.90007701092E+02  0.89999961947E+02 0.  0.
         12    1    1    2    0    0 -0.31691759832E+00  0.50458785957E+00  0.10188522166E+01  0.11802989076E+01  0.00000000000E+00 0. -1.
         11    1    3    3    0    0  0.12440834387E+02  0.34957959003E+02  0.61573902043E+01  0.37613118885E+02  0.51100000000E-03 0. -1.
        -11    1    3    3    0    0  0.86750219750E+01  0.21347425250E+01 -0.12771701094E+01  0.90246493375E+01  0.51100000000E-03 0.  1.
        -12    1    3    3    0    0 -0.20798938764E+02 -0.37597289387E+02 -0.58990723114E+01  0.43369932870E+02  0.00000000000E+00 0.  1.
</event>
<event>
 7    1  0.2285268E-015  0.9000767E+02  0.7816164E-02  0.1186339E+00
        -11   -1    0    0    0    0  0.00000000000E+00  0.00000000000E+00  0.45593999997E+02  0.45594000000E+02  0.51100000000E-03 0. -1.
         11   -1    0    0    0    0 -0.00000000000E+00 -0.00000000000E+00 -0.45593999997E+02  0.45594000000E+02  0.51100000000E-03 0.  1.
    9900012    2    1    2    0    0  0.99770016337E+00  0.28690325482E+00 -0.56166406408E+00  0.90007667159E+02  0.89999927566E+02 0.  0.
         12    1    1    2    0    0 -0.99770016337E+00 -0.28690325482E+00  0.56166406408E+00  0.11803328406E+01  0.00000000000E+00 0. -1.
         11    1    3    3    0    0 -0.98442395856E+01  0.66378443359E+01  0.37164277015E+02  0.39014785874E+02  0.51100000000E-03 0. -1.
        -11    1    3    3    0    0  0.68503277704E+01 -0.31574190724E+00  0.44668794037E+01  0.81841123760E+01  0.51100000000E-03 0.  1.
        -12    1    3    3    0    0  0.39916119786E+01 -0.60351991738E+01 -0.42192820483E+02  0.42808768910E+02  0.00000000000E+00 0.  1.
</event>
<event>
 7    1  0.2285268E-015  0.9000772E+02  0.7816164E-02  0.1186339E+00
        -11   -1    0    0    0    0  0.00000000000E+00  0.00000000000E+00  0.45593999997E+02  0.45594000000E+02  0.51100000000E-03 0.  1.
         11   -1    0    0    0    0 -0.00000000000E+00 -0.00000000000E+00 -0.45593999997E+02  0.45594000000E+02  0.51100000000E-03 0. -1.
    9900012    2    1    2    0    0 -0.28993468241E-01  0.11774830838E+01 -0.75885088831E-01  0.90007718008E+02  0.89999979086E+02 0.  0.
         12    1    1    2    0    0  0.28993468241E-01 -0.11774830838E+01  0.75885088831E-01  0.11802819920E+01  0.00000000000E+00 0. -1.
         11    1    3    3    0    0 -0.40994242484E+02 -0.19299414261E+01 -0.57828657586E+01  0.41445073620E+02  0.51100000000E-03 0. -1.
        -11    1    3    3    0    0  0.55908704094E+01 -0.44313737290E+01 -0.72229963301E+01  0.10152171261E+02  0.51100000000E-03 0.  1.
        -12    1    3    3    0    0  0.35374378606E+02  0.75387982389E+01  0.12929977000E+02  0.38410473127E+02  0.00000000000E+00 0.  1.
</event>
<event>
 7    1  0.2285268E-015  0.9000780E+02  0.7816164E-02  0.1186339E+00
        -11   -1    0    0    0    0  0.00000000000E+00  0.00000000000E+00  0.45593999997E+02  0.45594000000E+02  0.51100000000E-03 0. -1.
         11   -1    0    0    0    0 -0.00000000000E+00 -0.00000000000E+00 -0.45593999997E+02  0.45594000000E+02  0.51100000000E-03 0.  1.
    9900012    2    1    2    0    0 -0.79751732604E+00  0.86521712057E+00 -0.90809183354E-01  0.90007796264E+02  0.90000058375E+02 0.  0.
         12    1    1    2    0    0  0.79751732604E+00 -0.86521712057E+00  0.90809183354E-01  0.11802037362E+01  0.00000000000E+00 0. -1.
         11    1    3    3    0    0 -0.95500948045E+01 -0.11385012195E+01 -0.35452623005E+01  0.10250335645E+02  0.51100000000E-03 0. -1.
        -11    1    3    3    0    0 -0.20171252613E+02 -0.25855975722E+02 -0.14390683622E+02  0.35812046687E+02  0.51100000000E-03 0.  1.
         12    1    3    3    0    0  0.28923830092E+02  0.27859694062E+02  0.17845136739E+02  0.43945413932E+02  0.00000000000E+00 0. -1.
</event>
<event>
 7    1  0.2285268E-015  0.9000771E+02  0.7816164E-02  0.1186339E+00
        -11   -1    0    0    0    0  0.00000000000E+00  0.00000000000E+00  0.45593999997E+02  0.45594000000E+02  0.51100000000E-03 0. -1.
         11   -1    0    0    0    0 -0.00000000000E+00 -0.00000000000E+00 -0.45593999997E+02  0.45594000000E+02  0.51100000000E-03 0.  1.
    9900012    2    1    2    0    0  0.76539597558E+00  0.31375161057E+00 -0.84191196842E+00  0.90007709004E+02  0.89999969963E+02 0.  0.
         12    1    1    2    0    0 -0.76539597558E+00 -0.31375161057E+00  0.84191196842E+00  0.11802909960E+01  0.00000000000E+00 0. -1.
         11    1    3    3    0    0 -0.60641537081E+00 -0.29554850186E+01 -0.93304013752E+01  0.98060706392E+01  0.51100000000E-03 0. -1.
        -11    1    3    3    0    0 -0.10735217959E+02 -0.35728216925E+02 -0.39522718129E+01  0.37514941584E+02  0.51100000000E-03 0.  1.
         12    1    3    3    0    0  0.12107029306E+02  0.38997453555E+02  0.12440761220E+02  0.42686696781E+02  0.00000000000E+00 0. -1.
</event>
<event>
 7    1  0.2285268E-015  0.9000710E+02  0.7816164E-02  0.1186340E+00
        -11   -1    0    0    0    0  0.00000000000E+00  0.00000000000E+00  0.45593999997E+02  0.45594000000E+02  0.51100000000E-03 0. -1.
         11   -1    0    0    0    0 -0.00000000000E+00 -0.00000000000E+00 -0.45593999997E+02  0.45594000000E+02  0.51100000000E-03 0.  1.
    9900012    2    1    2    0    0  0.37255177830E+00 -0.11205526713E+01  0.96340142734E-02  0.90007099525E+02  0.89999352437E+02 0.  0.
         12    1    1    2    0    0 -0.37255177830E+00  0.11205526713E+01 -0.96340142734E-02  0.11809004746E+01  0.00000000000E+00 0. -1.
         11    1    3    3    0    0  0.71308363682E+01  0.35901706744E+01 -0.76217249506E+01  0.11037610442E+02  0.51100000000E-03 0. -1.
        -11    1    3    3    0    0 -0.11891216534E+02  0.72699256284E+01 -0.33254105679E+02  0.36056738539E+02  0.51100000000E-03 0.  1.
         12    1    3    3    0    0  0.51329319439E+01 -0.11980648974E+02  0.40885464644E+02  0.42912750545E+02  0.00000000000E+00 0. -1.
</event>
<event>
 7    1  0.2285268E-015  0.9000794E+02  0.7816164E-02  0.1186339E+00
        -11   -1    0    0    0    0  0.00000000000E+00  0.00000000000E+00  0.45593999997E+02  0.45594000000E+02  0.51100000000E-03 0. -1.
         11   -1    0    0    0    0 -0.00000000000E+00 -0.00000000000E+00 -0.45593999997E+02  0.45594000000E+02  0.51100000000E-03 0.  1.
    9900012    2    1    2    0    0 -0.96792757458E+00 -0.40393714464E+00 -0.54081708622E+00  0.90007944015E+02  0.90000208076E+02 0.  0.
         12    1    1    2    0    0  0.96792757458E+00  0.40393714464E+00  0.54081708622E+00  0.11800559848E+01  0.00000000000E+00 0. -1.
         11    1    3    3    0    0  0.89002751379E+01  0.26647000832E+01  0.31367226295E+01  0.98058428082E+01  0.51100000000E-03 0. -1.
        -11    1    3    3    0    0  0.33449740732E+02  0.91056673290E+01 -0.58331964418E+01  0.35154295804E+02  0.51100000000E-03 0.  1.
         12    1    3    3    0    0 -0.43317943444E+02 -0.12174304557E+02  0.21556567262E+01  0.45047805403E+02  0.00000000000E+00 0. -1.
</event>
<event>
 7    1  0.2285268E-015  0.9000783E+02  0.7816164E-02  0.1186339E+00
        -11   -1    0    0    0    0  0.00000000000E+00  0.00000000000E+00  0.45593999997E+02  0.45594000000E+02  0.51100000000E-03 0.  1.
         11   -1    0    0    0    0 -0.00000000000E+00 -0.00000000000E+00 -0.45593999997E+02  0.45594000000E+02  0.51100000000E-03 0. -1.
    9900012    2    1    2    0    0 -0.18282958641E+00  0.58926394855E+00  0.10060583029E+01  0.90007825450E+02  0.90000087946E+02 0.  0.
         12    1    1    2    0    0  0.18282958641E+00 -0.58926394855E+00 -0.10060583029E+01  0.11801745496E+01  0.00000000000E+00 0. -1.
         11    1    3    3    0    0  0.11706095848E+01  0.30763116032E+01  0.70201758314E+01  0.77535081637E+01  0.51100000000E-03 0. -1.
        -11    1    3    3    0    0  0.27078000968E+01  0.17345809338E+02  0.33519534867E+02  0.37838716957E+02  0.51100000000E-03 0.  1.
         12    1    3    3    0    0 -0.40612392679E+01 -0.19832856993E+02 -0.39533652396E+02  0.44415600330E+02  0.00000000000E+00 0. -1.
</event>
<event>
 7    1  0.2285268E-015  0.9000770E+02  0.7816164E-02  0.1186339E+00
        -11   -1    0    0    0    0  0.00000000000E+00  0.00000000000E+00  0.45593999997E+02  0.45594000000E+02  0.51100000000E-03 0.  1.
         11   -1    0    0    0    0 -0.00000000000E+00 -0.00000000000E+00 -0.45593999997E+02  0.45594000000E+02  0.51100000000E-03 0. -1.
    9900012    2    1    2    0    0 -0.27637921330E+00  0.10715330410E+01  0.41054770539E+00  0.90007695825E+02  0.89999956610E+02 0.  0.
         12    1    1    2    0    0  0.27637921330E+00 -0.10715330410E+01 -0.41054770539E+00  0.11803041752E+01  0.00000000000E+00 0. -1.
         11    1    3    3    0    0  0.43456079913E+01  0.10355059357E+02 -0.26771410259E+01  0.11544637172E+02  0.51100000000E-03 0. -1.
        -11    1    3    3    0    0 -0.27443087248E+02  0.24157038252E+02 -0.57881421331E+01  0.37016052254E+02  0.51100000000E-03 0.  1.
         12    1    3    3    0    0  0.22821100044E+02 -0.33440564569E+02  0.88758308644E+01  0.41447006399E+02  0.00000000000E+00 0. -1.
</event>
<event>
 7    1  0.2285268E-015  0.9000773E+02  0.7816164E-02  0.1186339E+00
        -11   -1    0    0    0    0  0.00000000000E+00  0.00000000000E+00  0.45593999997E+02  0.45594000000E+02  0.51100000000E-03 0. -1.
         11   -1    0    0    0    0 -0.00000000000E+00 -0.00000000000E+00 -0.45593999997E+02  0.45594000000E+02  0.51100000000E-03 0.  1.
    9900012    2    1    2    0    0  0.34426219328E+00  0.90785695722E+00 -0.67105937657E+00  0.90007728252E+02  0.89999989465E+02 0.  0.
         12    1    1    2    0    0 -0.34426219328E+00 -0.90785695722E+00  0.67105937657E+00  0.11802717481E+01  0.00000000000E+00 0. -1.
         11    1    3    3    0    0  0.12808593845E+02 -0.95719891054E+01  0.32812483390E+02  0.36501261872E+02  0.51100000000E-03 0. -1.
        -11    1    3    3    0    0 -0.40710081923E+01  0.37139523566E+01  0.85170694314E+01  0.10144309822E+02  0.51100000000E-03 0.  1.
        -12    1    3    3    0    0 -0.83933234599E+01  0.67658937061E+01 -0.42000612198E+02  0.43362156558E+02  0.00000000000E+00 0.  1.
</event>
<event>
 7    1  0.2285268E-015  0.9000741E+02  0.7816164E-02  0.1186340E+00
        -11   -1    0    0    0    0  0.00000000000E+00  0.00000000000E+00  0.45593999997E+02  0.45594000000E+02  0.51100000000E-03 0. -1.
         11   -1    0    0    0    0 -0.00000000000E+00 -0.00000000000E+00 -0.45593999997E+02  0.45594000000E+02  0.51100000000E-03 0.  1.
    9900012    2    1    2    0    0  0.52312041076E+00 -0.78628827706E+00 -0.70844065673E+00  0.90007410155E+02  0.89999667168E+02 0.  0.
         12    1    1    2    0    0 -0.52312041076E+00  0.78628827706E+00  0.70844065673E+00  0.11805898453E+01  0.00000000000E+00 0. -1.
         11    1    3    3    0    0  0.14658025084E+02 -0.34029302118E+02  0.14400598375E+02  0.39752085931E+02  0.51100000000E-03 0. -1.
        -11    1    3    3    0    0  0.93372550669E+01  0.79014060763E+01  0.73332513915E+00  0.12253747026E+02  0.51100000000E-03 0.  1.
        -12    1    3    3    0    0 -0.23472159740E+02  0.25341607764E+02 -0.15842364171E+02  0.38001577198E+02  0.00000000000E+00 0.  1.
</event>
<event>
 7    1  0.2285268E-015  0.9000759E+02  0.7816164E-02  0.1186339E+00
        -11   -1    0    0    0    0  0.00000000000E+00  0.00000000000E+00  0.45593999997E+02  0.45594000000E+02  0.51100000000E-03 0. -1.
         11   -1    0    0    0    0 -0.00000000000E+00 -0.00000000000E+00 -0.45593999997E+02  0.45594000000E+02  0.51100000000E-03 0.  1.
    9900012    2    1    2    0    0  0.19593191399E+00 -0.11325552130E+01 -0.26889664318E+00  0.90007586500E+02  0.89999845842E+02 0.  0.
         12    1    1    2    0    0 -0.19593191399E+00  0.11325552130E+01  0.26889664318E+00  0.11804134997E+01  0.00000000000E+00 0. -1.
         11    1    3    3    0    0 -0.28509207599E+02  0.21309059328E+02 -0.59978810250E+01  0.36094674184E+02  0.51100000000E-03 0. -1.
        -11    1    3    3    0    0 -0.54780047782E+01 -0.16531987985E+02 -0.40300219240E+01  0.17876136050E+02  0.51100000000E-03 0.  1.
        -12    1    3    3    0    0  0.34183144291E+02 -0.59096265561E+01  0.97590063059E+01  0.36036776267E+02  0.00000000000E+00 0.  1.
</event>
<event>
 7    1  0.2285268E-015  0.9000773E+02  0.7816164E-02  0.1186339E+00
        -11   -1    0    0    0    0  0.00000000000E+00  0.00000000000E+00  0.45593999997E+02  0.45594000000E+02  0.51100000000E-03 0.  1.
         11   -1    0    0    0    0 -0.00000000000E+00 -0.00000000000E+00 -0.45593999997E+02  0.45594000000E+02  0.51100000000E-03 0. -1.
    9900012    2    1    2    0    0  0.49157305285E+00 -0.99529601683E+00  0.40096684217E+00  0.90007731964E+02  0.89999993226E+02 0.  0.
         12    1    1    2    0    0 -0.49157305285E+00  0.99529601683E+00 -0.40096684217E+00  0.11802680356E+01  0.00000000000E+00 0. -1.
         11    1    3    3    0    0 -0.21125589609E+01 -0.12964197200E+01  0.12869394263E+02  0.13105911582E+02  0.51100000000E-03 0. -1.
        -11    1    3    3    0    0  0.33184495035E+02 -0.10521676594E+01  0.14383660432E+02  0.36182971896E+02  0.51100000000E-03 0.  1.
         12    1    3    3    0    0 -0.30580363021E+02  0.13532913625E+01 -0.26852087853E+02  0.40718848487E+02  0.00000000000E+00 0. -1.
</event>
<event>
 7    1  0.2285268E-015  0.9000781E+02  0.7816164E-02  0.1186339E+00
        -11   -1    0    0    0    0  0.00000000000E+00  0.00000000000E+00  0.45593999997E+02  0.45594000000E+02  0.51100000000E-03 0.  1.
         11   -1    0    0    0    0 -0.00000000000E+00 -0.00000000000E+00 -0.45593999997E+02  0.45594000000E+02  0.51100000000E-03 0. -1.
    9900012    2    1    2    0    0  0.89222459143E-01 -0.11379745022E+01  0.29984018547E+00  0.90007809019E+02  0.90000071298E+02 0.  0.
         12    1    1    2    0    0 -0.89222459143E-01  0.11379745022E+01 -0.29984018547E+00  0.11801909810E+01  0.00000000000E+00 0. -1.
         11    1    3    3    0    0 -0.17648718334E+02 -0.31905215134E+02 -0.83408578934E+00  0.36470751445E+02  0.51100000000E-03 0. -1.
        -11    1    3    3    0    0 -0.10898754879E+02  0.20286336748E+01 -0.55859952735E+01  0.12413764778E+02  0.51100000000E-03 0.  1.
        -12    1    3    3    0    0  0.28636695673E+02  0.28738606957E+02  0.67199212483E+01  0.41123292797E+02  0.00000000000E+00 0.  1.
</event>
<event>
 7    1  0.2285268E-015  0.9000782E+02  0.7816164E-02  0.1186339E+00
        -11   -1    0    0    0    0  0.00000000000E+00  0.00000000000E+00  0.45593999997E+02  0.45594000000E+02  0.51100000000E-03 0.  1.
         11   -1    0    0    0    0 -0.00000000000E+00 -0.00000000000E+00 -0.45593999997E+02  0.45594000000E+02  0.51100000000E-03 0. -1.
    9900012    2    1    2    0    0 -0.43738300566E+00 -0.91452398269E+00  0.60428908582E+00  0.90007820646E+02  0.90000083078E+02 0.  0.
         12    1    1    2    0    0  0.43738300566E+00  0.91452398269E+00 -0.60428908582E+00  0.11801793541E+01  0.00000000000E+00 0. -1.
         11    1    3    3    0    0  0.12342465043E+01 -0.17759019593E+02 -0.22431287323E+02  0.28636843271E+02  0.51100000000E-03 0. -1.
        -11    1    3    3    0    0  0.22080479505E+02 -0.60450141887E+01  0.38601485067E+01  0.23216169332E+02  0.51100000000E-03 0.  1.
        -12    1    3    3    0    0 -0.23752109015E+02  0.22889509799E+02  0.19175427902E+02  0.38154808042E+02  0.00000000000E+00 0.  1.
</event>
<event>
 7    1  0.2285268E-015  0.9000765E+02  0.7816164E-02  0.1186339E+00
        -11   -1    0    0    0    0  0.00000000000E+00  0.00000000000E+00  0.45593999997E+02  0.45594000000E+02  0.51100000000E-03 0. -1.
         11   -1    0    0    0    0 -0.00000000000E+00 -0.00000000000E+00 -0.45593999997E+02  0.45594000000E+02  0.51100000000E-03 0.  1.
    9900012    2    1    2    0    0 -0.50883701526E+00  0.73860866040E+00 -0.76731672040E+00  0.90007647167E+02  0.89999907309E+02 0.  0.
         12    1    1    2    0    0  0.50883701526E+00 -0.73860866040E+00  0.76731672040E+00  0.11803528331E+01  0.00000000000E+00 0. -1.
         11    1    3    3    0    0 -0.11560085690E+01  0.33845908684E+02  0.16957351437E+02  0.37873917918E+02  0.51100000000E-03 0. -1.
        -11    1    3    3    0    0 -0.64412444445E+01  0.62836674898E+01 -0.35692334678E+01  0.96805751340E+01  0.51100000000E-03 0.  1.
        -12    1    3    3    0    0  0.70884159982E+01 -0.39390967514E+02 -0.14155434689E+02  0.42453154115E+02  0.00000000000E+00 0.  1.
</event>
<event>
 7    1  0.2285268E-015  0.9000776E+02  0.7816164E-02  0.1186339E+00
        -11   -1    0    0    0    0  0.00000000000E+00  0.00000000000E+00  0.45593999997E+02  0.45594000000E+02  0.51100000000E-03 0.  1.
         11   -1    0    0    0    0 -0.00000000000E+00 -0.00000000000E+00 -0.45593999997E+02  0.45594000000E+02  0.51100000000E-03 0. -1.
    9900012    2    1    2    0    0 -0.72373153295E+00 -0.90229501448E+00  0.23459319915E+00  0.90007763755E+02  0.90000025437E+02 0.  0.
         12    1    1    2    0    0  0.72373153295E+00  0.90229501448E+00 -0.23459319915E+00  0.11802362450E+01  0.00000000000E+00 0. -1.
         11    1    3    3    0    0 -0.16529148146E+01  0.39594593666E+02 -0.93656666202E+01  0.40720752528E+02  0.51100000000E-03 0. -1.
        -11    1    3    3    0    0 -0.84488379656E+01 -0.59818412132E+01 -0.38931936937E+01  0.11059938728E+02  0.51100000000E-03 0.  1.
        -12    1    3    3    0    0  0.93780212473E+01 -0.34515047467E+02  0.13493453513E+02  0.38227072499E+02  0.00000000000E+00 0.  1.
</event>
<event>
 7    1  0.2285268E-015  0.9000774E+02  0.7816164E-02  0.1186339E+00
        -11   -1    0    0    0    0  0.00000000000E+00  0.00000000000E+00  0.45593999997E+02  0.45594000000E+02  0.51100000000E-03 0.  1.
         11   -1    0    0    0    0 -0.00000000000E+00 -0.00000000000E+00 -0.45593999997E+02  0.45594000000E+02  0.51100000000E-03 0. -1.
    9900012    2    1    2    0    0 -0.10279680548E-01 -0.89105572852E+00 -0.77389713664E+00  0.90007744620E+02  0.90000006049E+02 0.  0.
         12    1    1    2    0    0  0.10279680548E-01  0.89105572852E+00  0.77389713664E+00  0.11802553797E+01  0.00000000000E+00 0. -1.
         11    1    3    3    0    0  0.12840870579E+02  0.39186187964E+01 -0.37908358821E+02  0.40215509437E+02  0.51100000000E-03 0. -1.
        -11    1    3    3    0    0 -0.67258986143E+01 -0.80035086903E+01 -0.14854541005E+01  0.10559376765E+02  0.51100000000E-03 0.  1.
        -12    1    3    3    0    0 -0.61252516447E+01  0.31938341653E+01  0.38619915785E+02  0.39232858418E+02  0.00000000000E+00 0.  1.
</event>
<event>
 7    1  0.2285268E-015  0.9000775E+02  0.7816164E-02  0.1186339E+00
        -11   -1    0    0    0    0  0.00000000000E+00  0.00000000000E+00  0.45593999997E+02  0.45594000000E+02  0.51100000000E-03 0. -1.
         11   -1    0    0    0    0 -0.00000000000E+00 -0.00000000000E+00 -0.45593999997E+02  0.45594000000E+02  0.51100000000E-03 0.  1.
    9900012    2    1    2    0    0  0.76311611132E+00  0.89815192383E+00  0.62913426347E-01  0.90007753764E+02  0.90000015314E+02 0.  0.
         12    1    1    2    0    0 -0.76311611132E+00 -0.89815192383E+00 -0.62913426347E-01  0.11802462357E+01  0.00000000000E+00 0. -1.
         11    1    3    3    0    0 -0.68398174175E+00 -0.83097578479E+01 -0.53164222637E+01  0.98885920364E+01  0.51100000000E-03 0. -1.
        -11    1    3    3    0    0  0.11130171084E+02 -0.21083450112E+02 -0.26115695948E+02  0.35361308688E+02  0.51100000000E-03 0.  1.
         12    1    3    3    0    0 -0.96830732312E+01  0.30291359884E+02  0.31495031638E+02  0.44757853040E+02  0.00000000000E+00 0. -1.
</event>
<event>
 7    1  0.2285268E-015  0.9000762E+02  0.7816164E-02  0.1186339E+00
        -11   -1    0    0    0    0  0.00000000000E+00  0.00000000000E+00  0.45593999997E+02  0.45594000000E+02  0.51100000000E-03 0.  1.
         11   -1    0    0    0    0 -0.00000000000E+00 -0.00000000000E+00 -0.45593999997E+02  0.45594000000E+02  0.51100000000E-03 0. -1.
    9900012    2    1    2    0    0  0.89554593421E+00  0.50885457795E+00 -0.57651313277E+00  0.90007617480E+02  0.89999877230E+02 0.  0.
         12    1    1    2    0    0 -0.89554593421E+00 -0.50885457795E+00  0.57651313277E+00  0.11803825202E+01  0.00000000000E+00 0. -1.
         11    1    3    3    0    0  0.10206728131E+02  0.22514383625E+02 -0.33414153862E+02  0.41564172645E+02  0.51100000000E-03 0. -1.
        -11    1    3    3    0    0 -0.91379793569E+01  0.16082946529E+01  0.18127130904E+01  0.94538461711E+01  0.51100000000E-03 0.  1.
        -12    1    3    3    0    0 -0.17320283973E+00 -0.23613823700E+02  0.31024927638E+02  0.38989598663E+02  0.00000000000E+00 0.  1.
</event>
<event>
 7    1  0.2285268E-015  0.9000763E+02  0.7816164E-02  0.1186339E+00
        -11   -1    0    0    0    0  0.00000000000E+00  0.00000000000E+00  0.45593999997E+02  0.45594000000E+02  0.51100000000E-03 0. -1.
         11   -1    0    0    0    0 -0.00000000000E+00 -0.00000000000E+00 -0.45593999997E+02  0.45594000000E+02  0.51100000000E-03 0.  1.
    9900012    2    1    2    0    0  0.43231740267E+00 -0.84229010602E+00 -0.70492033421E+00  0.90007634109E+02  0.89999894079E+02 0.  0.
         12    1    1    2    0    0 -0.43231740267E+00  0.84229010602E+00  0.70492033421E+00  0.11803658911E+01  0.00000000000E+00 0. -1.
         11    1    3    3    0    0 -0.30037022386E+02  0.24293262028E+02 -0.57281661695E+01  0.39053772950E+02  0.51100000000E-03 0. -1.
        -11    1    3    3    0    0 -0.53062708755E+01  0.55812707465E+00 -0.30915256918E+01  0.61664858550E+01  0.51100000000E-03 0.  1.
        -12    1    3    3    0    0  0.35775610664E+02 -0.25693679208E+02  0.81147715271E+01  0.44787375303E+02  0.00000000000E+00 0.  1.
</event>
<event>
 7    1  0.2285268E-015  0.9000766E+02  0.7816164E-02  0.1186339E+00
        -11   -1    0    0    0    0  0.00000000000E+00  0.00000000000E+00  0.45593999997E+02  0.45594000000E+02  0.51100000000E-03 0. -1.
         11   -1    0    0    0    0 -0.00000000000E+00 -0.00000000000E+00 -0.45593999997E+02  0.45594000000E+02  0.51100000000E-03 0.  1.
    9900012    2    1    2    0    0  0.11659491113E+00 -0.11101675730E+01 -0.38359241306E+00  0.90007657019E+02  0.89999917292E+02 0.  0.
         12    1    1    2    0    0 -0.11659491113E+00  0.11101675730E+01  0.38359241306E+00  0.11803429810E+01  0.00000000000E+00 0. -1.
         11    1    3    3    0    0 -0.39505754412E+01  0.28648914216E+01 -0.96476908771E+01  0.10811687597E+02  0.51100000000E-03 0. -1.
        -11    1    3    3    0    0  0.32313974329E+02 -0.26652231302E+02  0.33602835284E+00  0.41888510186E+02  0.51100000000E-03 0.  1.
         12    1    3    3    0    0 -0.28246803976E+02  0.22677172307E+02  0.89280701112E+01  0.37307459236E+02  0.00000000000E+00 0. -1.
</event>
<event>
 7    1  0.2285268E-015  0.9000742E+02  0.7816164E-02  0.1186340E+00
        -11   -1    0    0    0    0  0.00000000000E+00  0.00000000000E+00  0.45593999997E+02  0.45594000000E+02  0.51100000000E-03 0.  1.
         11   -1    0    0    0    0 -0.00000000000E+00 -0.00000000000E+00 -0.45593999997E+02  0.45594000000E+02  0.51100000000E-03 0. -1.
    9900012    2    1    2    0    0 -0.94809380262E+00 -0.69249497850E+00 -0.12383097496E+00  0.90007421640E+02  0.89999678805E+02 0.  0.
         12    1    1    2    0    0  0.94809380262E+00  0.69249497850E+00  0.12383097496E+00  0.11805783600E+01  0.00000000000E+00 0. -1.
         11    1    3    3    0    0  0.16964983214E+02  0.13891432658E+02 -0.27423571242E+02  0.35111747559E+02  0.51100000000E-03 0. -1.
        -11    1    3    3    0    0  0.40772653030E+01  0.42818386872E+01 -0.75403715161E+01  0.95820372446E+01  0.51100000000E-03 0.  1.
        -12    1    3    3    0    0 -0.21990342319E+02 -0.18865766323E+02  0.34840111783E+02  0.45313636836E+02  0.00000000000E+00 0.  1.
</event>
<event>
 7    1  0.2285268E-015  0.9000773E+02  0.7816164E-02  0.1186339E+00
        -11   -1    0    0    0    0  0.00000000000E+00  0.00000000000E+00  0.45593999997E+02  0.45594000000E+02  0.51100000000E-03 0.  1.
         11   -1    0    0    0    0 -0.00000000000E+00 -0.00000000000E+00 -0.45593999997E+02  0.45594000000E+02  0.51100000000E-03 0. -1.
    9900012    2    1    2    0    0  0.11760093079E+01  0.74857169303E-02  0.99944793281E-01  0.90007727620E+02  0.89999988825E+02 0.  0.
         12    1    1    2    0    0 -0.11760093079E+01 -0.74857169303E-02 -0.99944793281E-01  0.11802723796E+01  0.00000000000E+00 0. -1.
         11    1    3    3    0    0  0.17703670378E+02 -0.30034515247E+02 -0.12848012577E+02  0.37155934633E+02  0.51100000000E-03 0. -1.
        -11    1    3    3    0    0 -0.57073802429E+01 -0.80293977453E+01 -0.28207873814E+01  0.10247060998E+02  0.51100000000E-03 0.  1.
        -12    1    3    3    0    0 -0.10820280827E+02  0.38071398709E+02  0.15768744752E+02  0.42604731990E+02  0.00000000000E+00 0.  1.
</event>
<event>
 7    1  0.2285268E-015  0.9000780E+02  0.7816164E-02  0.1186339E+00
        -11   -1    0    0    0    0  0.00000000000E+00  0.00000000000E+00  0.45593999997E+02  0.45594000000E+02  0.51100000000E-03 0. -1.
         11   -1    0    0    0    0 -0.00000000000E+00 -0.00000000000E+00 -0.45593999997E+02  0.45594000000E+02  0.51100000000E-03 0.  1.
    9900012    2    1    2    0    0 -0.66530604822E-01  0.10759095702E+00 -0.11734025518E+01  0.90007798456E+02  0.90000060596E+02 0.  0.
         12    1    1    2    0    0  0.66530604822E-01 -0.10759095702E+00  0.11734025518E+01  0.11802015438E+01  0.00000000000E+00 0. -1.
         11    1    3    3    0    0 -0.20784792707E+02 -0.23186463104E+02  0.18012592780E+02  0.35973228630E+02  0.51100000000E-03 0. -1.
        -11    1    3    3    0    0 -0.89061829646E+01 -0.11813878759E+01  0.32299450084E+01  0.95471627895E+01  0.51100000000E-03 0.  1.
        -12    1    3    3    0    0  0.29624445067E+02  0.24475441936E+02 -0.22415940341E+02  0.44487407037E+02  0.00000000000E+00 0.  1.
</event>
<event>
 7    1  0.2285268E-015  0.9000772E+02  0.7816164E-02  0.1186339E+00
        -11   -1    0    0    0    0  0.00000000000E+00  0.00000000000E+00  0.45593999997E+02  0.45594000000E+02  0.51100000000E-03 0. -1.
         11   -1    0    0    0    0 -0.00000000000E+00 -0.00000000000E+00 -0.45593999997E+02  0.45594000000E+02  0.51100000000E-03 0.  1.
    9900012    2    1    2    0    0  0.51922762347E+00  0.14811972333E+00 -0.10495343157E+01  0.90007720771E+02  0.89999981886E+02 0.  0.
         12    1    1    2    0    0 -0.51922762347E+00 -0.14811972333E+00  0.10495343157E+01  0.11802792285E+01  0.00000000000E+00 0. -1.
         11    1    3    3    0    0 -0.35799622014E+02  0.11319458357E+02  0.94024221757E+01  0.38705924829E+02  0.51100000000E-03 0. -1.
        -11    1    3    3    0    0 -0.29260657722E+01  0.58561281981E+01 -0.48706180930E+01  0.81595967574E+01  0.51100000000E-03 0.  1.
        -12    1    3    3    0    0  0.39244915410E+02 -0.17027466831E+02 -0.55813383985E+01  0.43142199185E+02  0.00000000000E+00 0.  1.
</event>
<event>
 7    1  0.2285268E-015  0.9000780E+02  0.7816164E-02  0.1186339E+00
        -11   -1    0    0    0    0  0.00000000000E+00  0.00000000000E+00  0.45593999997E+02  0.45594000000E+02  0.51100000000E-03 0.  1.
         11   -1    0    0    0    0 -0.00000000000E+00 -0.00000000000E+00 -0.45593999997E+02  0.45594000000E+02  0.51100000000E-03 0. -1.
    9900012    2    1    2    0    0 -0.86660213703E+00  0.31107634901E+00  0.73831486294E+00  0.90007798070E+02  0.90000060204E+02 0.  0.
         12    1    1    2    0    0  0.86660213703E+00 -0.31107634901E+00 -0.73831486294E+00  0.11802019300E+01  0.00000000000E+00 0. -1.
         11    1    3    3    0    0  0.13088105801E+02  0.22462709827E+01  0.12068640288E+02  0.17944256058E+02  0.51100000000E-03 0. -1.
        -11    1    3    3    0    0 -0.15373897630E+02  0.31342704926E+02  0.44746601760E+01  0.35195801800E+02  0.51100000000E-03 0.  1.
         12    1    3    3    0    0  0.14191896916E+01 -0.33277899560E+02 -0.15804985601E+02  0.36867740212E+02  0.00000000000E+00 0. -1.
</event>
<event>
 7    1  0.2285268E-015  0.9000788E+02  0.7816164E-02  0.1186339E+00
        -11   -1    0    0    0    0  0.00000000000E+00  0.00000000000E+00  0.45593999997E+02  0.45594000000E+02  0.51100000000E-03 0. -1.
         11   -1    0    0    0    0 -0.00000000000E+00 -0.00000000000E+00 -0.45593999997E+02  0.45594000000E+02  0.51100000000E-03 0.  1.
    9900012    2    1    2    0    0 -0.22099695613E+00  0.31210112918E+00 -0.11164351566E+01  0.90007883807E+02  0.90000147073E+02 0.  0.
         12    1    1    2    0    0  0.22099695613E+00 -0.31210112918E+00  0.11164351566E+01  0.11801161927E+01  0.00000000000E+00 0. -1.
         11    1    3    3    0    0  0.39107874687E+02  0.30152519040E+01 -0.40914570943E+01  0.39436754786E+02  0.51100000000E-03 0. -1.
        -11    1    3    3    0    0 -0.43469679735E-01  0.62393675857E+01 -0.66792775101E+01  0.91402596134E+01  0.51100000000E-03 0.  1.
        -12    1    3    3    0    0 -0.39285401964E+02 -0.89425183605E+01  0.96542994479E+01  0.41430869408E+02  0.00000000000E+00 0.  1.
</event>
<event>
 7    1  0.2285268E-015  0.9000774E+02  0.7816164E-02  0.1186339E+00
        -11   -1    0    0    0    0  0.00000000000E+00  0.00000000000E+00  0.45593999997E+02  0.45594000000E+02  0.51100000000E-03 0. -1.
         11   -1    0    0    0    0 -0.00000000000E+00 -0.00000000000E+00 -0.45593999997E+02  0.45594000000E+02  0.51100000000E-03 0.  1.
    9900012    2    1    2    0    0  0.83291640429E+00 -0.47373224916E+00 -0.68908472068E+00  0.90007741667E+02  0.90000003057E+02 0.  0.
         12    1    1    2    0    0 -0.83291640429E+00  0.47373224916E+00  0.68908472068E+00  0.11802583330E+01  0.00000000000E+00 0. -1.
         11    1    3    3    0    0 -0.23900540335E+02 -0.26808544549E+02 -0.12571970816E+02  0.38052441967E+02  0.51100000000E-03 0. -1.
        -11    1    3    3    0    0 -0.34575819904E+01 -0.61655787279E+01  0.42849129231E+01  0.82661788808E+01  0.51100000000E-03 0.  1.
        -12    1    3    3    0    0  0.28191038730E+02  0.32500391028E+02  0.75979731727E+01  0.43689120819E+02  0.00000000000E+00 0.  1.
</event>
<event>
 7    1  0.2285268E-015  0.9000767E+02  0.7816164E-02  0.1186339E+00
        -11   -1    0    0    0    0  0.00000000000E+00  0.00000000000E+00  0.45593999997E+02  0.45594000000E+02  0.51100000000E-03 0. -1.
         11   -1    0    0    0    0 -0.00000000000E+00 -0.00000000000E+00 -0.45593999997E+02  0.45594000000E+02  0.51100000000E-03 0.  1.
    9900012    2    1    2    0    0 -0.47263584248E+00  0.10470901383E+01 -0.27092964341E+00  0.90007667306E+02  0.89999927714E+02 0.  0.
         12    1    1    2    0    0  0.47263584248E+00 -0.10470901383E+01  0.27092964341E+00  0.11803326942E+01  0.00000000000E+00 0. -1.
         11    1    3    3    0    0  0.20542240094E+02  0.21623184727E+02 -0.24989637466E+02  0.38910509207E+02  0.51100000000E-03 0. -1.
        -11    1    3    3    0    0  0.23805181964E+01  0.76772144931E+01  0.44925879899E+01  0.92081396799E+01  0.51100000000E-03 0.  1.
        -12    1    3    3    0    0 -0.23395394132E+02 -0.28253309081E+02  0.20226119832E+02  0.41889018419E+02  0.00000000000E+00 0.  1.
</event>
<event>
 7    1  0.2285268E-015  0.9000742E+02  0.7816164E-02  0.1186340E+00
        -11   -1    0    0    0    0  0.00000000000E+00  0.00000000000E+00  0.45593999997E+02  0.45594000000E+02  0.51100000000E-03 0.  1.
         11   -1    0    0    0    0 -0.00000000000E+00 -0.00000000000E+00 -0.45593999997E+02  0.45594000000E+02  0.51100000000E-03 0. -1.
    9900012    2    1    2    0    0  0.67714859667E+00  0.96684214943E+00 -0.21534829609E-01  0.90007416368E+02  0.89999673463E+02 0.  0.
         12    1    1    2    0    0 -0.67714859667E+00 -0.96684214943E+00  0.21534829609E-01  0.11805836323E+01  0.00000000000E+00 0. -1.
         11    1    3    3    0    0 -0.12446603487E+02  0.16293765832E+02 -0.10512956612E+02  0.23041853231E+02  0.51100000000E-03 0. -1.
        -11    1    3    3    0    0  0.17212663998E+02  0.18241117183E+02  0.19729447037E+02  0.31910268546E+02  0.51100000000E-03 0.  1.
         12    1    3    3    0    0 -0.40889119150E+01 -0.33568040866E+02 -0.92380252552E+01  0.35055294591E+02  0.00000000000E+00 0. -1.
</event>
<event>
 7    1  0.2285268E-015  0.9000743E+02  0.7816164E-02  0.1186340E+00
        -11   -1    0    0    0    0  0.00000000000E+00  0.00000000000E+00  0.45593999997E+02  0.45594000000E+02  0.51100000000E-03 0. -1.
         11   -1    0    0    0    0 -0.00000000000E+00 -0.00000000000E+00 -0.45593999997E+02  0.45594000000E+02  0.51100000000E-03 0.  1.
    9900012    2    1    2    0    0 -0.11311999955E+01  0.33342077451E+00  0.54440213840E-01  0.90007429553E+02  0.89999686823E+02 0.  0.
         12    1    1    2    0    0  0.11311999955E+01 -0.33342077451E+00 -0.54440213840E-01  0.11805704466E+01  0.00000000000E+00 0. -1.
         11    1    3    3    0    0 -0.99198909401E+01 -0.33694658661E+01 -0.31211003361E+01  0.10931550853E+02  0.51100000000E-03 0. -1.
        -11    1    3    3    0    0  0.71383119747E+01 -0.15952015412E+02 -0.33300925055E+02  0.37608162722E+02  0.51100000000E-03 0.  1.
         12    1    3    3    0    0  0.16503789700E+01  0.19654902052E+02  0.36476465605E+02  0.41467715978E+02  0.00000000000E+00 0. -1.
</event>
<event>
 7    1  0.2285268E-015  0.9000770E+02  0.7816164E-02  0.1186339E+00
        -11   -1    0    0    0    0  0.00000000000E+00  0.00000000000E+00  0.45593999997E+02  0.45594000000E+02  0.51100000000E-03 0.  1.
         11   -1    0    0    0    0 -0.00000000000E+00 -0.00000000000E+00 -0.45593999997E+02  0.45594000000E+02  0.51100000000E-03 0. -1.
    9900012    2    1    2    0    0  0.36978925799E+00 -0.63757471917E+00  0.92187537811E+00  0.90007703499E+02  0.89999964385E+02 0.  0.
         12    1    1    2    0    0 -0.36978925799E+00  0.63757471917E+00 -0.92187537811E+00  0.11802965011E+01  0.00000000000E+00 0. -1.
         11    1    3    3    0    0  0.36712534632E+02  0.20067751687E+02  0.11045236732E+02  0.43272648539E+02  0.51100000000E-03 0. -1.
        -11    1    3    3    0    0 -0.76942179347E+01 -0.20623588350E+01  0.49500778159E+01  0.93785704793E+01  0.51100000000E-03 0.  1.
        -12    1    3    3    0    0 -0.28648527439E+02 -0.18642967572E+02 -0.15073439170E+02  0.37356484480E+02  0.00000000000E+00 0.  1.
</event>
<event>
 7    1  0.2285268E-015  0.9000774E+02  0.7816164E-02  0.1186339E+00
        -11   -1    0    0    0    0  0.00000000000E+00  0.00000000000E+00  0.45593999997E+02  0.45594000000E+02  0.51100000000E-03 0.  1.
         11   -1    0    0    0    0 -0.00000000000E+00 -0.00000000000E+00 -0.45593999997E+02  0.45594000000E+02  0.51100000000E-03 0. -1.
    9900012    2    1    2    0    0 -0.93127321777E+00 -0.61341260562E+00  0.38660289537E+00  0.90007742982E+02  0.90000004389E+02 0.  0.
         12    1    1    2    0    0  0.93127321777E+00  0.61341260562E+00 -0.38660289537E+00  0.11802570184E+01  0.00000000000E+00 0. -1.
         11    1    3    3    0    0 -0.24007845152E+02 -0.18380656093E+02  0.22547088160E+01  0.30320106520E+02  0.51100000000E-03 0. -1.
        -11    1    3    3    0    0 -0.92955793470E+01 -0.25871100184E+00 -0.17228050018E+02  0.19577549245E+02  0.51100000000E-03 0.  1.
        -12    1    3    3    0    0  0.32372151282E+02  0.18025954489E+02  0.15359944097E+02  0.40110087216E+02  0.00000000000E+00 0.  1.
</event>
<event>
 7    1  0.2285268E-015  0.9000777E+02  0.7816164E-02  0.1186339E+00
        -11   -1    0    0    0    0  0.00000000000E+00  0.00000000000E+00  0.45593999997E+02  0.45594000000E+02  0.51100000000E-03 0.  1.
         11   -1    0    0    0    0 -0.00000000000E+00 -0.00000000000E+00 -0.45593999997E+02  0.45594000000E+02  0.51100000000E-03 0. -1.
    9900012    2    1    2    0    0 -0.66894455249E+00 -0.19641251168E+00  0.95230429811E+00  0.90007767749E+02  0.90000029484E+02 0.  0.
         12    1    1    2    0    0  0.66894455249E+00  0.19641251168E+00 -0.95230429811E+00  0.11802322506E+01  0.00000000000E+00 0. -1.
         11    1    3    3    0    0  0.10662082098E+01 -0.93992302456E+01  0.22612946253E+01  0.97260363355E+01  0.51100000000E-03 0. -1.
        -11    1    3    3    0    0 -0.37787826238E+02 -0.84831199946E+01 -0.80681959160E+01  0.39559814486E+02  0.51100000000E-03 0.  1.
         12    1    3    3    0    0  0.36052673475E+02  0.17685937728E+02  0.67592055887E+01  0.40721916927E+02  0.00000000000E+00 0. -1.
</event>
<event>
 7    1  0.2285268E-015  0.9000718E+02  0.7816164E-02  0.1186340E+00
        -11   -1    0    0    0    0  0.00000000000E+00  0.00000000000E+00  0.45593999997E+02  0.45594000000E+02  0.51100000000E-03 0.  1.
         11   -1    0    0    0    0 -0.00000000000E+00 -0.00000000000E+00 -0.45593999997E+02  0.45594000000E+02  0.51100000000E-03 0. -1.
    9900012    2    1    2    0    0  0.62066936185E+00 -0.41188902293E+00  0.91621772617E+00  0.90007179122E+02  0.89999433085E+02 0.  0.
         12    1    1    2    0    0 -0.62066936185E+00  0.41188902293E+00 -0.91621772617E+00  0.11808208779E+01  0.00000000000E+00 0. -1.
         11    1    3    3    0    0 -0.16995304333E+01 -0.10651036652E+01  0.83510513287E+01  0.85885335225E+01  0.51100000000E-03 0. -1.
        -11    1    3    3    0    0  0.39663496120E+02  0.15689806688E+01  0.88493602877E+01  0.40668978381E+02  0.51100000000E-03 0.  1.
         12    1    3    3    0    0 -0.37343296324E+02 -0.91576602651E+00 -0.16284193890E+02  0.40749667219E+02  0.00000000000E+00 0. -1.
</event>
<event>
 7    1  0.2285268E-015  0.9000712E+02  0.7816164E-02  0.1186340E+00
        -11   -1    0    0    0    0  0.00000000000E+00  0.00000000000E+00  0.45593999997E+02  0.45594000000E+02  0.51100000000E-03 0.  1.
         11   -1    0    0    0    0 -0.00000000000E+00 -0.00000000000E+00 -0.45593999997E+02  0.45594000000E+02  0.51100000000E-03 0. -1.
    9900012    2    1    2    0    0  0.72281572413E+00 -0.75339876519E+00 -0.55173575873E+00  0.90007117018E+02  0.89999370160E+02 0.  0.
         12    1    1    2    0    0 -0.72281572413E+00  0.75339876519E+00  0.55173575873E+00  0.11808829823E+01  0.00000000000E+00 0. -1.
         11    1    3    3    0    0  0.19069980944E+02 -0.60790417584E+01  0.96461309010E+01  0.22218612997E+02  0.51100000000E-03 0. -1.
        -11    1    3    3    0    0  0.41658438207E+01  0.24400092763E+02  0.15036833266E+02  0.28962478079E+02  0.51100000000E-03 0.  1.
        -12    1    3    3    0    0 -0.22513009040E+02 -0.19074449769E+02 -0.25234699926E+02  0.38826025941E+02  0.00000000000E+00 0.  1.
</event>
<event>
 7    1  0.2285268E-015  0.9000788E+02  0.7816164E-02  0.1186339E+00
        -11   -1    0    0    0    0  0.00000000000E+00  0.00000000000E+00  0.45593999997E+02  0.45594000000E+02  0.51100000000E-03 0. -1.
         11   -1    0    0    0    0 -0.00000000000E+00 -0.00000000000E+00 -0.45593999997E+02  0.45594000000E+02  0.51100000000E-03 0.  1.
    9900012    2    1    2    0    0  0.54611176472E-01  0.53735990969E-01 -0.11776293907E+01  0.90007880972E+02  0.90000144201E+02 0.  0.
         12    1    1    2    0    0 -0.54611176472E-01 -0.53735990969E-01  0.11776293907E+01  0.11801190276E+01  0.00000000000E+00 0. -1.
         11    1    3    3    0    0 -0.22975877947E+02  0.30819553518E+02  0.70495479716E+01  0.39082374203E+02  0.51100000000E-03 0. -1.
        -11    1    3    3    0    0  0.40315801303E+01  0.48883789397E+01 -0.84037493159E+01  0.10524870062E+02  0.51100000000E-03 0.  1.
        -12    1    3    3    0    0  0.18998908993E+02 -0.35654196467E+02  0.17657195354E+00  0.40400636707E+02  0.00000000000E+00 0.  1.
</event>
<event>
 7    1  0.2285268E-015  0.9000770E+02  0.7816164E-02  0.1186339E+00
        -11   -1    0    0    0    0  0.00000000000E+00  0.00000000000E+00  0.45593999997E+02  0.45594000000E+02  0.51100000000E-03 0.  1.
         11   -1    0    0    0    0 -0.00000000000E+00 -0.00000000000E+00 -0.45593999997E+02  0.45594000000E+02  0.51100000000E-03 0. -1.
    9900012    2    1    2    0    0  0.34524476488E+00  0.49307855395E+00  0.10152791331E+01  0.90007698290E+02  0.89999959108E+02 0.  0.
         12    1    1    2    0    0 -0.34524476488E+00 -0.49307855395E+00 -0.10152791331E+01  0.11803017098E+01  0.00000000000E+00 0. -1.
         11    1    3    3    0    0  0.12756253252E+01  0.82749619157E+01  0.45870790905E+01  0.95469109937E+01  0.51100000000E-03 0. -1.
        -11    1    3    3    0    0 -0.39368094729E+02 -0.83174084279E+01  0.64100770995E+01  0.40744511952E+02  0.51100000000E-03 0.  1.
         12    1    3    3    0    0  0.38437714169E+02  0.53552506612E+00 -0.99818770569E+01  0.39716275344E+02  0.00000000000E+00 0. -1.
</event>
<event>
 7    1  0.2285268E-015  0.9000781E+02  0.7816164E-02  0.1186339E+00
        -11   -1    0    0    0    0  0.00000000000E+00  0.00000000000E+00  0.45593999997E+02  0.45594000000E+02  0.51100000000E-03 0.  1.
         11   -1    0    0    0    0 -0.00000000000E+00 -0.00000000000E+00 -0.45593999997E+02  0.45594000000E+02  0.51100000000E-03 0. -1.
    9900012    2    1    2    0    0  0.75819036549E+00 -0.86811799957E+00  0.25371919646E+00  0.90007807252E+02  0.90000069508E+02 0.  0.
         12    1    1    2    0    0 -0.75819036549E+00  0.86811799957E+00 -0.25371919646E+00  0.11801927479E+01  0.00000000000E+00 0. -1.
         11    1    3    3    0    0 -0.25238256414E+02 -0.14373753891E+02  0.18643843265E+02  0.34513291349E+02  0.51100000000E-03 0. -1.
        -11    1    3    3    0    0 -0.60782812026E+01 -0.75225202618E+01  0.46728947151E+01  0.10741031549E+02  0.51100000000E-03 0.  1.
        -12    1    3    3    0    0  0.32074727982E+02  0.21028156154E+02 -0.23063018784E+02  0.44753484354E+02  0.00000000000E+00 0.  1.
</event>
<event>
 7    1  0.2285268E-015  0.9000765E+02  0.7816164E-02  0.1186339E+00
        -11   -1    0    0    0    0  0.00000000000E+00  0.00000000000E+00  0.45593999997E+02  0.45594000000E+02  0.51100000000E-03 0.  1.
         11   -1    0    0    0    0 -0.00000000000E+00 -0.00000000000E+00 -0.45593999997E+02  0.45594000000E+02  0.51100000000E-03 0. -1.
    9900012    2    1    2    0    0 -0.53208174403E-01  0.74922329473E+00  0.91052131931E+00  0.90007654403E+02  0.89999914641E+02 0.  0.
         12    1    1    2    0    0  0.53208174403E-01 -0.74922329473E+00 -0.91052131931E+00  0.11803455969E+01  0.00000000000E+00 0. -1.
         11    1    3    3    0    0  0.34531659142E+02  0.31781552869E+01 -0.11203699741E+02  0.36442544399E+02  0.51100000000E-03 0. -1.
        -11    1    3    3    0    0  0.34090062050E+01  0.94148896381E+01 -0.37919299408E+01  0.10707016538E+02  0.51100000000E-03 0.  1.
        -12    1    3    3    0    0 -0.37993873521E+02 -0.11843821630E+02  0.15906151001E+02  0.42858093467E+02  0.00000000000E+00 0.  1.
</event>
<event>
 7    1  0.2285268E-015  0.9000776E+02  0.7816164E-02  0.1186339E+00
        -11   -1    0    0    0    0  0.00000000000E+00  0.00000000000E+00  0.45593999997E+02  0.45594000000E+02  0.51100000000E-03 0.  1.
         11   -1    0    0    0    0 -0.00000000000E+00 -0.00000000000E+00 -0.45593999997E+02  0.45594000000E+02  0.51100000000E-03 0. -1.
    9900012    2    1    2    0    0  0.11468727202E+01  0.62376189911E-01  0.27160640735E+00  0.90007755167E+02  0.90000016735E+02 0.  0.
         12    1    1    2    0    0 -0.11468727202E+01 -0.62376189911E-01 -0.27160640735E+00  0.11802448330E+01  0.00000000000E+00 0. -1.
         11    1    3    3    0    0 -0.96776612287E+01  0.27025462335E+01 -0.13673883444E+01  0.10140544075E+02  0.51100000000E-03 0. -1.
        -11    1    3    3    0    0  0.42178279719E+01  0.19852256205E+02  0.34185987242E+02  0.39756557612E+02  0.51100000000E-03 0.  1.
         12    1    3    3    0    0  0.66067059770E+01 -0.22492426248E+02 -0.32546992490E+02  0.40110653479E+02  0.00000000000E+00 0. -1.
</event>
<event>
 7    1  0.2285268E-015  0.9000786E+02  0.7816164E-02  0.1186339E+00
        -11   -1    0    0    0    0  0.00000000000E+00  0.00000000000E+00  0.45593999997E+02  0.45594000000E+02  0.51100000000E-03 0.  1.
         11   -1    0    0    0    0 -0.00000000000E+00 -0.00000000000E+00 -0.45593999997E+02  0.45594000000E+02  0.51100000000E-03 0. -1.
    9900012    2    1    2    0    0 -0.22923153278E+00  0.99715797508E+00 -0.58809481859E+00  0.90007861602E+02  0.90000124575E+02 0.  0.
         12    1    1    2    0    0  0.22923153278E+00 -0.99715797508E+00  0.58809481859E+00  0.11801383980E+01  0.00000000000E+00 0. -1.
         11    1    3    3    0    0 -0.42758506018E+01 -0.41715402892E+01  0.81888757042E+01  0.10136189240E+02  0.51100000000E-03 0. -1.
        -11    1    3    3    0    0  0.13785494904E+02 -0.30175548134E+02  0.14754117010E+02  0.36308229700E+02  0.51100000000E-03 0.  1.
         12    1    3    3    0    0 -0.97388758347E+01  0.35344246399E+02 -0.23531087533E+02  0.43563442661E+02  0.00000000000E+00 0. -1.
</event>
<event>
 7    1  0.2285268E-015  0.9000813E+02  0.7816164E-02  0.1186338E+00
        -11   -1    0    0    0    0  0.00000000000E+00  0.00000000000E+00  0.45593999997E+02  0.45594000000E+02  0.51100000000E-03 0. -1.
         11   -1    0    0    0    0 -0.00000000000E+00 -0.00000000000E+00 -0.45593999997E+02  0.45594000000E+02  0.51100000000E-03 0.  1.
    9900012    2    1    2    0    0 -0.81262710476E+00  0.35027157680E-01 -0.85469747750E+00  0.90008128189E+02  0.90000394680E+02 0.  0.
         12    1    1    2    0    0  0.81262710476E+00 -0.35027157680E-01  0.85469747750E+00  0.11798718113E+01  0.00000000000E+00 0. -1.
         11    1    3    3    0    0  0.86487186130E+01 -0.61641393332E+00  0.40370325816E+01  0.95644096582E+01  0.51100000000E-03 0. -1.
        -11    1    3    3    0    0 -0.11733621017E+02 -0.38857095123E+02 -0.18050045736E+00  0.40590445726E+02  0.51100000000E-03 0.  1.
         12    1    3    3    0    0  0.22722752992E+01  0.39508536214E+02 -0.47112296017E+01  0.39853272804E+02  0.00000000000E+00 0. -1.
</event>
<event>
 7    1  0.2285268E-015  0.9000772E+02  0.7816164E-02  0.1186339E+00
        -11   -1    0    0    0    0  0.00000000000E+00  0.00000000000E+00  0.45593999997E+02  0.45594000000E+02  0.51100000000E-03 0. -1.
         11   -1    0    0    0    0 -0.00000000000E+00 -0.00000000000E+00 -0.45593999997E+02  0.45594000000E+02  0.51100000000E-03 0.  1.
    9900012    2    1    2    0    0 -0.11210668414E+01  0.25469418665E+00 -0.26722722554E+00  0.90007715974E+02  0.89999977025E+02 0.  0.
         12    1    1    2    0    0  0.11210668414E+01 -0.25469418665E+00  0.26722722554E+00  0.11802840259E+01  0.00000000000E+00 0. -1.
         11    1    3    3    0    0  0.13773785544E+02  0.12596660440E+02  0.32494773266E+02  0.37474035175E+02  0.51100000000E-03 0. -1.
        -11    1    3    3    0    0  0.73843503682E+01 -0.15442240738E+01  0.37457326921E+01  0.84228125951E+01  0.51100000000E-03 0.  1.
        -12    1    3    3    0    0 -0.22279202754E+02 -0.10797742179E+02 -0.36507733183E+02  0.44110868204E+02  0.00000000000E+00 0.  1.
</event>
<event>
 7    1  0.2285268E-015  0.9000766E+02  0.7816164E-02  0.1186339E+00
        -11   -1    0    0    0    0  0.00000000000E+00  0.00000000000E+00  0.45593999997E+02  0.45594000000E+02  0.51100000000E-03 0.  1.
         11   -1    0    0    0    0 -0.00000000000E+00 -0.00000000000E+00 -0.45593999997E+02  0.45594000000E+02  0.51100000000E-03 0. -1.
    9900012    2    1    2    0    0 -0.95902136895E-01 -0.10297535230E+01  0.56886005545E+00  0.90007664751E+02  0.89999925125E+02 0.  0.
         12    1    1    2    0    0  0.95902136895E-01  0.10297535230E+01 -0.56886005545E+00  0.11803352492E+01  0.00000000000E+00 0. -1.
         11    1    3    3    0    0  0.33552718019E+02  0.12379009012E+02  0.60612521781E+01  0.36273454878E+02  0.51100000000E-03 0. -1.
        -11    1    3    3    0    0  0.76735789198E+01  0.28507582482E+01  0.26162467625E+01  0.85939154878E+01  0.51100000000E-03 0.  1.
        -12    1    3    3    0    0 -0.41322199076E+02 -0.16259520783E+02 -0.81086388852E+01  0.45140294385E+02  0.00000000000E+00 0.  1.
</event>
<event>
 7    1  0.2285268E-015  0.9000784E+02  0.7816164E-02  0.1186339E+00
        -11   -1    0    0    0    0  0.00000000000E+00  0.00000000000E+00  0.45593999997E+02  0.45594000000E+02  0.51100000000E-03 0.  1.
         11   -1    0    0    0    0 -0.00000000000E+00 -0.00000000000E+00 -0.45593999997E+02  0.45594000000E+02  0.51100000000E-03 0. -1.
    9900012    2    1    2    0    0 -0.30711212283E+00  0.97899076618E+00  0.58312050634E+00  0.90007843103E+02  0.90000105832E+02 0.  0.
         12    1    1    2    0    0  0.30711212283E+00 -0.97899076618E+00 -0.58312050634E+00  0.11801568968E+01  0.00000000000E+00 0. -1.
         11    1    3    3    0    0  0.19939734858E+02  0.16799285103E+02 -0.27082319934E+02  0.37593364567E+02  0.51100000000E-03 0. -1.
        -11    1    3    3    0    0 -0.22188370884E+01  0.88253082001E+01 -0.25561736373E+01  0.94521599000E+01  0.51100000000E-03 0.  1.
        -12    1    3    3    0    0 -0.18028009892E+02 -0.24645602537E+02  0.30221614078E+02  0.42962318636E+02  0.00000000000E+00 0.  1.
</event>
<event>
 7    1  0.2285268E-015  0.9000772E+02  0.7816164E-02  0.1186339E+00
        -11   -1    0    0    0    0  0.00000000000E+00  0.00000000000E+00  0.45593999997E+02  0.45594000000E+02  0.51100000000E-03 0. -1.
         11   -1    0    0    0    0 -0.00000000000E+00 -0.00000000000E+00 -0.45593999997E+02  0.45594000000E+02  0.51100000000E-03 0.  1.
    9900012    2    1    2    0    0 -0.24790973052E+00  0.68510588840E+00 -0.92855912301E+00  0.90007724033E+02  0.89999985190E+02 0.  0.
         12    1    1    2    0    0  0.24790973052E+00 -0.68510588840E+00  0.92855912301E+00  0.11802759668E+01  0.00000000000E+00 0. -1.
         11    1    3    3    0    0  0.58917049350E+01  0.56623178582E+01 -0.44148988358E+01  0.92879148661E+01  0.51100000000E-03 0. -1.
        -11    1    3    3    0    0  0.34043990133E+02  0.10124081171E+02 -0.77348253311E+01  0.36349935446E+02  0.51100000000E-03 0.  1.
         12    1    3    3    0    0 -0.40183604799E+02 -0.15101293141E+02  0.11221165044E+02  0.44369873722E+02  0.00000000000E+00 0. -1.
</event>
<event>
 7    1  0.2285268E-015  0.9000783E+02  0.7816164E-02  0.1186339E+00
        -11   -1    0    0    0    0  0.00000000000E+00  0.00000000000E+00  0.45593999997E+02  0.45594000000E+02  0.51100000000E-03 0. -1.
         11   -1    0    0    0    0 -0.00000000000E+00 -0.00000000000E+00 -0.45593999997E+02  0.45594000000E+02  0.51100000000E-03 0.  1.
    9900012    2    1    2    0    0  0.55720083795E+00  0.67614116923E+00 -0.79066778074E+00  0.90007832557E+02  0.90000095146E+02 0.  0.
         12    1    1    2    0    0 -0.55720083795E+00 -0.67614116923E+00  0.79066778074E+00  0.11801674432E+01  0.00000000000E+00 0. -1.
         11    1    3    3    0    0 -0.18031233685E+02  0.63472930327E+01  0.32720416157E+02  0.37895107214E+02  0.51100000000E-03 0. -1.
        -11    1    3    3    0    0 -0.45623213277E+01 -0.50147282432E+01  0.41145340940E+01  0.79304266166E+01  0.51100000000E-03 0.  1.
        -12    1    3    3    0    0  0.23150755851E+02 -0.65642362029E+00 -0.37625618032E+02  0.44182298726E+02  0.00000000000E+00 0.  1.
</event>
<event>
 7    1  0.2285268E-015  0.9000772E+02  0.7816164E-02  0.1186339E+00
        -11   -1    0    0    0    0  0.00000000000E+00  0.00000000000E+00  0.45593999997E+02  0.45594000000E+02  0.51100000000E-03 0.  1.
         11   -1    0    0    0    0 -0.00000000000E+00 -0.00000000000E+00 -0.45593999997E+02  0.45594000000E+02  0.51100000000E-03 0. -1.
    9900012    2    1    2    0    0  0.91380558373E-02  0.23129251767E+00  0.11573598414E+01  0.90007719722E+02  0.89999980822E+02 0.  0.
         12    1    1    2    0    0 -0.91380558373E-02 -0.23129251767E+00 -0.11573598414E+01  0.11802802783E+01  0.00000000000E+00 0. -1.
         11    1    3    3    0    0  0.32567003984E+02  0.20758179244E+02  0.60064875694E+00  0.38624765802E+02  0.51100000000E-03 0. -1.
        -11    1    3    3    0    0  0.81266384923E+00  0.48568456310E+01 -0.72207685919E+01  0.87400727305E+01  0.51100000000E-03 0.  1.
        -12    1    3    3    0    0 -0.33370529778E+02 -0.25383732357E+02  0.77774796764E+01  0.42642881190E+02  0.00000000000E+00 0.  1.
</event>
<event>
 7    1  0.2285268E-015  0.9000772E+02  0.7816164E-02  0.1186339E+00
        -11   -1    0    0    0    0  0.00000000000E+00  0.00000000000E+00  0.45593999997E+02  0.45594000000E+02  0.51100000000E-03 0.  1.
         11   -1    0    0    0    0 -0.00000000000E+00 -0.00000000000E+00 -0.45593999997E+02  0.45594000000E+02  0.51100000000E-03 0. -1.
    9900012    2    1    2    0    0  0.11208792614E+01  0.36970037294E+00 -0.27448119919E-02  0.90007721974E+02  0.89999983104E+02 0.  0.
         12    1    1    2    0    0 -0.11208792614E+01 -0.36970037294E+00  0.27448119919E-02  0.11802780258E+01  0.00000000000E+00 0. -1.
         11    1    3    3    0    0 -0.14237934237E+01 -0.86190448260E+01 -0.40543256192E+01  0.96308191715E+01  0.51100000000E-03 0. -1.
        -11    1    3    3    0    0  0.37247930741E+02  0.20371803963E+02  0.93494710331E+01  0.43472190537E+02  0.51100000000E-03 0.  1.
         12    1    3    3    0    0 -0.34703258056E+02 -0.11383058764E+02 -0.52978902259E+01  0.36904712266E+02  0.00000000000E+00 0. -1.
</event>
<event>
 7    1  0.2285268E-015  0.9000791E+02  0.7816164E-02  0.1186339E+00
        -11   -1    0    0    0    0  0.00000000000E+00  0.00000000000E+00  0.45593999997E+02  0.45594000000E+02  0.51100000000E-03 0. -1.
         11   -1    0    0    0    0 -0.00000000000E+00 -0.00000000000E+00 -0.45593999997E+02  0.45594000000E+02  0.51100000000E-03 0.  1.
    9900012    2    1    2    0    0  0.83651270645E+00  0.80125508196E+00 -0.22548906814E+00  0.90007911641E+02  0.90000175275E+02 0.  0.
         12    1    1    2    0    0 -0.83651270645E+00 -0.80125508196E+00  0.22548906814E+00  0.11800883587E+01  0.00000000000E+00 0. -1.
         11    1    3    3    0    0  0.14949340164E+02 -0.12668456731E+01  0.36237577344E+02  0.39220526276E+02  0.51100000000E-03 0. -1.
        -11    1    3    3    0    0 -0.70162773911E+01 -0.29979436390E+01  0.45326224987E+01  0.88747102189E+01  0.51100000000E-03 0.  1.
        -12    1    3    3    0    0 -0.70965500665E+01  0.50660443941E+01 -0.40995688911E+02  0.41912675147E+02  0.00000000000E+00 0.  1.
</event>
<event>
 7    1  0.2285268E-015  0.9000767E+02  0.7816164E-02  0.1186339E+00
        -11   -1    0    0    0    0  0.00000000000E+00  0.00000000000E+00  0.45593999997E+02  0.45594000000E+02  0.51100000000E-03 0.  1.
         11   -1    0    0    0    0 -0.00000000000E+00 -0.00000000000E+00 -0.45593999997E+02  0.45594000000E+02  0.51100000000E-03 0. -1.
    9900012    2    1    2    0    0 -0.81442276433E+00 -0.35263667341E+00  0.77816149474E+00  0.90007672768E+02  0.89999933249E+02 0.  0.
         12    1    1    2    0    0  0.81442276433E+00  0.35263667341E+00 -0.77816149474E+00  0.11803272319E+01  0.00000000000E+00 0. -1.
         11    1    3    3    0    0 -0.86395807751E+00 -0.10904051661E+02 -0.69669997087E+01  0.12968571679E+02  0.51100000000E-03 0. -1.
        -11    1    3    3    0    0  0.89746249470E+01 -0.15738520829E+02  0.34191854143E+02  0.38695320399E+02  0.51100000000E-03 0.  1.
         12    1    3    3    0    0 -0.89250896338E+01  0.26289935816E+02 -0.26446692939E+02  0.38343780690E+02  0.00000000000E+00 0. -1.
</event>
<event>
 7    1  0.2285268E-015  0.9000765E+02  0.7816164E-02  0.1186339E+00
        -11   -1    0    0    0    0  0.00000000000E+00  0.00000000000E+00  0.45593999997E+02  0.45594000000E+02  0.51100000000E-03 0.  1.
         11   -1    0    0    0    0 -0.00000000000E+00 -0.00000000000E+00 -0.45593999997E+02  0.45594000000E+02  0.51100000000E-03 0. -1.
    9900012    2    1    2    0    0  0.11801272304E+01 -0.20435292684E-02  0.23044570889E-01  0.90007646024E+02  0.89999906152E+02 0.  0.
         12    1    1    2    0    0 -0.11801272304E+01  0.20435292684E-02 -0.23044570889E-01  0.11803539758E+01  0.00000000000E+00 0. -1.
         11    1    3    3    0    0 -0.22058427038E+01 -0.21249204167E+02 -0.31435947790E+02  0.38008068005E+02  0.51100000000E-03 0. -1.
        -11    1    3    3    0    0  0.57877309003E+01 -0.81726034518E+01  0.18371238092E+01  0.10181566692E+02  0.51100000000E-03 0.  1.
        -12    1    3    3    0    0 -0.24017609661E+01  0.29419764090E+02  0.29621868552E+02  0.41818011327E+02  0.00000000000E+00 0.  1.
</event>
<event>
 7    1  0.2285268E-015  0.9000730E+02  0.7816164E-02  0.1186340E+00
        -11   -1    0    0    0    0  0.00000000000E+00  0.00000000000E+00  0.45593999997E+02  0.45594000000E+02  0.51100000000E-03 0.  1.
         11   -1    0    0    0    0 -0.00000000000E+00 -0.00000000000E+00 -0.45593999997E+02  0.45594000000E+02  0.51100000000E-03 0. -1.
    9900012    2    1    2    0    0  0.67519469787E+00  0.87020316062E+00 -0.42534574091E+00  0.90007296642E+02  0.89999552156E+02 0.  0.
         12    1    1    2    0    0 -0.67519469787E+00 -0.87020316062E+00  0.42534574091E+00  0.11807033582E+01  0.00000000000E+00 0. -1.
         11    1    3    3    0    0  0.29390453910E+01  0.38102633473E+02 -0.12301760435E+02  0.40147004564E+02  0.51100000000E-03 0. -1.
        -11    1    3    3    0    0 -0.12122998571E+02 -0.25991184628E+01  0.36276295952E+01  0.12918289666E+02  0.51100000000E-03 0.  1.
        -12    1    3    3    0    0  0.98591478782E+01 -0.34633311850E+02  0.82487850989E+01  0.36942002412E+02  0.00000000000E+00 0.  1.
</event>
<event>
 7    1  0.2285268E-015  0.9000775E+02  0.7816164E-02  0.1186339E+00
        -11   -1    0    0    0    0  0.00000000000E+00  0.00000000000E+00  0.45593999997E+02  0.45594000000E+02  0.51100000000E-03 0. -1.
         11   -1    0    0    0    0 -0.00000000000E+00 -0.00000000000E+00 -0.45593999997E+02  0.45594000000E+02  0.51100000000E-03 0.  1.
    9900012    2    1    2    0    0  0.44812202971E-01  0.28938911502E+00 -0.11433436184E+01  0.90007750525E+02  0.90000012032E+02 0.  0.
         12    1    1    2    0    0 -0.44812202971E-01 -0.28938911502E+00  0.11433436184E+01  0.11802494750E+01  0.00000000000E+00 0. -1.
         11    1    3    3    0    0 -0.75108776252E+01 -0.30027703879E+01  0.31563192469E+01  0.86828718839E+01  0.51100000000E-03 0. -1.
        -11    1    3    3    0    0  0.43983760123E+02  0.14557317147E+01  0.30650556094E+01  0.44114452003E+02  0.51100000000E-03 0.  1.
         12    1    3    3    0    0 -0.36428070294E+02  0.18364277882E+01 -0.73647184747E+01  0.37210426638E+02  0.00000000000E+00 0. -1.
</event>
<event>
 7    1  0.2285268E-015  0.9000777E+02  0.7816164E-02  0.1186339E+00
        -11   -1    0    0    0    0  0.00000000000E+00  0.00000000000E+00  0.45593999997E+02  0.45594000000E+02  0.51100000000E-03 0. -1.
         11   -1    0    0    0    0 -0.00000000000E+00 -0.00000000000E+00 -0.45593999997E+02  0.45594000000E+02  0.51100000000E-03 0.  1.
    9900012    2    1    2    0    0  0.69408177738E+00 -0.75492503054E+00 -0.58419795757E+00  0.90007767578E+02  0.90000029310E+02 0.  0.
         12    1    1    2    0    0 -0.69408177738E+00  0.75492503054E+00  0.58419795757E+00  0.11802324216E+01  0.00000000000E+00 0. -1.
         11    1    3    3    0    0  0.39139508757E+01  0.35034695426E+01  0.84639281370E+01  0.99614953728E+01  0.51100000000E-03 0. -1.
        -11    1    3    3    0    0 -0.39595002988E+02 -0.13791404770E+02 -0.45201728421E+01  0.42171069110E+02  0.51100000000E-03 0.  1.
         12    1    3    3    0    0  0.36375133889E+02  0.95330101967E+01 -0.45279532525E+01  0.37875203095E+02  0.00000000000E+00 0. -1.
</event>
<event>
 7    1  0.2285268E-015  0.9000817E+02  0.7816164E-02  0.1186338E+00
        -11   -1    0    0    0    0  0.00000000000E+00  0.00000000000E+00  0.45593999997E+02  0.45594000000E+02  0.51100000000E-03 0.  1.
         11   -1    0    0    0    0 -0.00000000000E+00 -0.00000000000E+00 -0.45593999997E+02  0.45594000000E+02  0.51100000000E-03 0. -1.
    9900012    2    1    2    0    0 -0.10945229134E+01 -0.38822360682E+00  0.20806562132E+00  0.90008174047E+02  0.90000441143E+02 0.  0.
         12    1    1    2    0    0  0.10945229134E+01  0.38822360682E+00 -0.20806562132E+00  0.11798259531E+01  0.00000000000E+00 0. -1.
         11    1    3    3    0    0 -0.19192230583E+02 -0.33057945336E+02  0.37144128591E+01  0.38405290362E+02  0.51100000000E-03 0. -1.
        -11    1    3    3    0    0  0.14883191645E+00 -0.38481677523E+01  0.83709830060E+01  0.92143313777E+01  0.51100000000E-03 0.  1.
        -12    1    3    3    0    0  0.17948875754E+02  0.36517889482E+02 -0.11877330244E+02  0.42388552308E+02  0.00000000000E+00 0.  1.
</event>
<event>
 7    1  0.2285268E-015  0.9000772E+02  0.7816164E-02  0.1186339E+00
        -11   -1    0    0    0    0  0.00000000000E+00  0.00000000000E+00  0.45593999997E+02  0.45594000000E+02  0.51100000000E-03 0. -1.
         11   -1    0    0    0    0 -0.00000000000E+00 -0.00000000000E+00 -0.45593999997E+02  0.45594000000E+02  0.51100000000E-03 0.  1.
    9900012    2    1    2    0    0  0.53413141142E+00 -0.40894772798E+00 -0.96980965187E+00  0.90007718097E+02  0.89999979176E+02 0.  0.
         12    1    1    2    0    0 -0.53413141142E+00  0.40894772798E+00  0.96980965187E+00  0.11802819027E+01  0.00000000000E+00 0. -1.
         11    1    3    3    0    0 -0.24747705108E+02  0.58275362754E+01  0.21883402603E+02  0.33545378175E+02  0.51100000000E-03 0. -1.
        -11    1    3    3    0    0 -0.19796495521E+01  0.12820279809E+02  0.41494279220E+01  0.13619704074E+02  0.51100000000E-03 0.  1.
        -12    1    3    3    0    0  0.27261486071E+02 -0.19056763813E+02 -0.27002640177E+02  0.42842635848E+02  0.00000000000E+00 0.  1.
</event>
<event>
 7    1  0.2285268E-015  0.9000776E+02  0.7816164E-02  0.1186339E+00
        -11   -1    0    0    0    0  0.00000000000E+00  0.00000000000E+00  0.45593999997E+02  0.45594000000E+02  0.51100000000E-03 0.  1.
         11   -1    0    0    0    0 -0.00000000000E+00 -0.00000000000E+00 -0.45593999997E+02  0.45594000000E+02  0.51100000000E-03 0. -1.
    9900012    2    1    2    0    0 -0.84048466645E+00  0.63632520845E+00  0.53069435232E+00  0.90007762422E+02  0.90000024086E+02 0.  0.
         12    1    1    2    0    0  0.84048466645E+00 -0.63632520845E+00 -0.53069435232E+00  0.11802375782E+01  0.00000000000E+00 0. -1.
         11    1    3    3    0    0  0.66631202827E+00  0.10713384368E+02  0.40331711356E+01  0.11466780106E+02  0.51100000000E-03 0. -1.
        -11    1    3    3    0    0 -0.14309828747E+02  0.31200359495E+02 -0.75126974329E+01  0.35137931845E+02  0.51100000000E-03 0.  1.
         12    1    3    3    0    0  0.12803032052E+02 -0.41277418654E+02  0.40102206496E+01  0.43403050471E+02  0.00000000000E+00 0. -1.
</event>
<event>
 7    1  0.2285268E-015  0.9000775E+02  0.7816164E-02  0.1186339E+00
        -11   -1    0    0    0    0  0.00000000000E+00  0.00000000000E+00  0.45593999997E+02  0.45594000000E+02  0.51100000000E-03 0. -1.
         11   -1    0    0    0    0 -0.00000000000E+00 -0.00000000000E+00 -0.45593999997E+02  0.45594000000E+02  0.51100000000E-03 0.  1.
    9900012    2    1    2    0    0 -0.38083102457E+00 -0.10127720221E+01 -0.47144566194E+00  0.90007745599E+02  0.90000007041E+02 0.  0.
         12    1    1    2    0    0  0.38083102457E+00  0.10127720221E+01  0.47144566194E+00  0.11802544006E+01  0.00000000000E+00 0. -1.
         11    1    3    3    0    0  0.82763935890E-01  0.59527240231E+01  0.36196481511E+02  0.36682789523E+02  0.51100000000E-03 0. -1.
        -11    1    3    3    0    0 -0.40650447488E+01 -0.45513639790E+00  0.74956180913E+01  0.85390882875E+01  0.51100000000E-03 0.  1.
        -12    1    3    3    0    0  0.36014497884E+01 -0.65103596473E+01 -0.44163545264E+02  0.44785867789E+02  0.00000000000E+00 0.  1.
</event>
<event>
 7    1  0.2285268E-015  0.9000784E+02  0.7816164E-02  0.1186339E+00
        -11   -1    0    0    0    0  0.00000000000E+00  0.00000000000E+00  0.45593999997E+02  0.45594000000E+02  0.51100000000E-03 0. -1.
         11   -1    0    0    0    0 -0.00000000000E+00 -0.00000000000E+00 -0.45593999997E+02  0.45594000000E+02  0.51100000000E-03 0.  1.
    9900012    2    1    2    0    0  0.10818447073E+01 -0.10701946811E-01 -0.47146396132E+00  0.90007838668E+02  0.90000101338E+02 0.  0.
         12    1    1    2    0    0 -0.10818447073E+01  0.10701946811E-01  0.47146396132E+00  0.11801613319E+01  0.00000000000E+00 0. -1.
         11    1    3    3    0    0  0.43449747061E+01  0.77674896733E+01 -0.34197829302E+01  0.95345485773E+01  0.51100000000E-03 0. -1.
        -11    1    3    3    0    0 -0.31214149422E+02 -0.21067291245E+02  0.22497616731E+02  0.43866805712E+02  0.51100000000E-03 0.  1.
         12    1    3    3    0    0  0.27951019423E+02  0.13289099625E+02 -0.19549297762E+02  0.36606484379E+02  0.00000000000E+00 0. -1.
</event>
<event>
 7    1  0.2285268E-015  0.9000777E+02  0.7816164E-02  0.1186339E+00
        -11   -1    0    0    0    0  0.00000000000E+00  0.00000000000E+00  0.45593999997E+02  0.45594000000E+02  0.51100000000E-03 0.  1.
         11   -1    0    0    0    0 -0.00000000000E+00 -0.00000000000E+00 -0.45593999997E+02  0.45594000000E+02  0.51100000000E-03 0. -1.
    9900012    2    1    2    0    0  0.10310613469E+01 -0.57194505036E+00  0.52395071384E-01  0.90007765326E+02  0.90000027028E+02 0.  0.
         12    1    1    2    0    0 -0.10310613469E+01  0.57194505036E+00 -0.52395071384E-01  0.11802346738E+01  0.00000000000E+00 0. -1.
         11    1    3    3    0    0  0.24578545551E+02 -0.10762876864E+02 -0.25868707393E+02  0.37271093923E+02  0.51100000000E-03 0. -1.
        -11    1    3    3    0    0  0.10218860752E+02  0.55995286026E+01  0.45299906272E+01  0.12502025875E+02  0.51100000000E-03 0.  1.
        -12    1    3    3    0    0 -0.33766344956E+02  0.45914032109E+01  0.21391111837E+02  0.40234645528E+02  0.00000000000E+00 0.  1.
</event>
<event>
 7    1  0.2285268E-015  0.9000770E+02  0.7816164E-02  0.1186339E+00
        -11   -1    0    0    0    0  0.00000000000E+00  0.00000000000E+00  0.45593999997E+02  0.45594000000E+02  0.51100000000E-03 0. -1.
         11   -1    0    0    0    0 -0.00000000000E+00 -0.00000000000E+00 -0.45593999997E+02  0.45594000000E+02  0.51100000000E-03 0.  1.
    9900012    2    1    2    0    0 -0.64227051098E+00 -0.31495651050E+00 -0.93883219509E+00  0.90007697114E+02  0.89999957916E+02 0.  0.
         12    1    1    2    0    0  0.64227051098E+00  0.31495651050E+00  0.93883219509E+00  0.11803028863E+01  0.00000000000E+00 0. -1.
         11    1    3    3    0    0 -0.21067255927E+02  0.61144314962E+01  0.44485576204E+01  0.22383145668E+02  0.51100000000E-03 0. -1.
        -11    1    3    3    0    0  0.99106460458E+01  0.25348066510E+02 -0.17123134806E+02  0.32155048230E+02  0.51100000000E-03 0.  1.
         12    1    3    3    0    0  0.10514339370E+02 -0.31777454516E+02  0.11735744990E+02  0.35469503216E+02  0.00000000000E+00 0. -1.
</event>
<event>
 7    1  0.2285268E-015  0.9000780E+02  0.7816164E-02  0.1186339E+00
        -11   -1    0    0    0    0  0.00000000000E+00  0.00000000000E+00  0.45593999997E+02  0.45594000000E+02  0.51100000000E-03 0.  1.
         11   -1    0    0    0    0 -0.00000000000E+00 -0.00000000000E+00 -0.45593999997E+02  0.45594000000E+02  0.51100000000E-03 0. -1.
    9900012    2    1    2    0    0 -0.17651495083E+00  0.17689126963E+00  0.11534395348E+01  0.90007800521E+02  0.90000062688E+02 0.  0.
         12    1    1    2    0    0  0.17651495083E+00 -0.17689126963E+00 -0.11534395348E+01  0.11801994787E+01  0.00000000000E+00 0. -1.
         11    1    3    3    0    0  0.27077399902E+02 -0.23268588870E+02 -0.81582482607E+01  0.36621985588E+02  0.51100000000E-03 0. -1.
        -11    1    3    3    0    0  0.94497522472E+01  0.18367019898E+01 -0.63515364516E+00  0.96475236277E+01  0.51100000000E-03 0.  1.
        -12    1    3    3    0    0 -0.36703667100E+02  0.21608778150E+02  0.99468414406E+01  0.43738291306E+02  0.00000000000E+00 0.  1.
</event>
<event>
 8    1  0.2285268E-015  0.9000779E+02  0.7816164E-02  0.1186339E+00
        -11   -1    0    0    0    0  0.00000000000E+00  0.00000000000E+00  0.45593999997E+02  0.45594000000E+02  0.51100000000E-03 0.  1.
         11   -1    0    0    0    0 -0.00000000000E+00 -0.00000000000E+00 -0.45593999997E+02  0.45594000000E+02  0.51100000000E-03 0. -1.
    9900012    2    1    2    0    0  0.90612134276E-01  0.90860351863E+00  0.74774596835E+00  0.90007790296E+02  0.90000052328E+02 0.  0.
         23    2    3    3    0    0 -0.15284922804E+02 -0.13714065334E+02 -0.51748348068E+01  0.67978117533E+02  0.64595209535E+02 0.  0.
         12    1    1    2    0    0 -0.90612134276E-01 -0.90860351863E+00 -0.74774596835E+00  0.11802097043E+01  0.00000000000E+00 0. -1.
         11    1    4    4    0    0  0.82055121123E+01 -0.45687252494E+01  0.26141140930E+02  0.27777021597E+02  0.51100000000E-03 0. -1.
        -11    1    4    4    0    0 -0.23490434916E+02 -0.91453400847E+01 -0.31315975737E+02  0.40201095936E+02  0.51100000000E-03 0.  1.
         12    1    3    3    0    0  0.15375534938E+02  0.14622668853E+02  0.59225807752E+01  0.22029672763E+02  0.00000000000E+00 0. -1.
</event>
<event>
 7    1  0.2285268E-015  0.9000674E+02  0.7816164E-02  0.1186341E+00
        -11   -1    0    0    0    0  0.00000000000E+00  0.00000000000E+00  0.45593999997E+02  0.45594000000E+02  0.51100000000E-03 0.  1.
         11   -1    0    0    0    0 -0.00000000000E+00 -0.00000000000E+00 -0.45593999997E+02  0.45594000000E+02  0.51100000000E-03 0. -1.
    9900012    2    1    2    0    0 -0.11062082762E+01 -0.41363761664E+00  0.23991540884E-01  0.90006742864E+02  0.89998991064E+02 0.  0.
         12    1    1    2    0    0  0.11062082762E+01  0.41363761664E+00 -0.23991540884E-01  0.11812571364E+01  0.00000000000E+00 0. -1.
         11    1    3    3    0    0  0.23810396021E+01  0.41301109899E+01 -0.73201748152E+01  0.87356811962E+01  0.51100000000E-03 0. -1.
        -11    1    3    3    0    0 -0.40711596766E+02 -0.13042933687E+02  0.33704801636E+01  0.42882541520E+02  0.51100000000E-03 0.  1.
         12    1    3    3    0    0  0.37224348888E+02  0.84991850801E+01  0.39736861924E+01  0.38388520147E+02  0.00000000000E+00 0. -1.
</event>
<event>
 7    1  0.2285268E-015  0.9000775E+02  0.7816164E-02  0.1186339E+00
        -11   -1    0    0    0    0  0.00000000000E+00  0.00000000000E+00  0.45593999997E+02  0.45594000000E+02  0.51100000000E-03 0.  1.
         11   -1    0    0    0    0 -0.00000000000E+00 -0.00000000000E+00 -0.45593999997E+02  0.45594000000E+02  0.51100000000E-03 0. -1.
    9900012    2    1    2    0    0 -0.38896748925E+00  0.10112869120E+01  0.46796684105E+00  0.90007750073E+02  0.90000011574E+02 0.  0.
         12    1    1    2    0    0  0.38896748925E+00 -0.10112869120E+01 -0.46796684105E+00  0.11802499271E+01  0.00000000000E+00 0. -1.
         11    1    3    3    0    0 -0.34551073471E+01 -0.75435051709E+01  0.15870208838E+01  0.84475364806E+01  0.51100000000E-03 0. -1.
        -11    1    3    3    0    0 -0.14166605621E+02  0.65229606853E+01  0.36740419082E+02  0.39913658383E+02  0.51100000000E-03 0.  1.
         12    1    3    3    0    0  0.17232745479E+02  0.20318313976E+01 -0.37859473125E+02  0.41646555210E+02  0.00000000000E+00 0. -1.
</event>
<event>
 7    1  0.2285268E-015  0.9000787E+02  0.7816164E-02  0.1186339E+00
        -11   -1    0    0    0    0  0.00000000000E+00  0.00000000000E+00  0.45593999997E+02  0.45594000000E+02  0.51100000000E-03 0. -1.
         11   -1    0    0    0    0 -0.00000000000E+00 -0.00000000000E+00 -0.45593999997E+02  0.45594000000E+02  0.51100000000E-03 0.  1.
    9900012    2    1    2    0    0  0.42554603306E+00 -0.10731832162E+01  0.24474819976E+00  0.90007867243E+02  0.90000130291E+02 0.  0.
         12    1    1    2    0    0 -0.42554603306E+00  0.10731832162E+01 -0.24474819976E+00  0.11801327565E+01  0.00000000000E+00 0. -1.
         11    1    3    3    0    0 -0.47535711176E+01 -0.54657521392E+01 -0.54604820598E+01  0.90712595268E+01  0.51100000000E-03 0. -1.
        -11    1    3    3    0    0  0.97662436296E+01  0.30453310352E+02 -0.24861171051E+02  0.40507548091E+02  0.51100000000E-03 0.  1.
         12    1    3    3    0    0 -0.45871264789E+01 -0.26060741429E+02  0.30566401311E+02  0.40429059626E+02  0.00000000000E+00 0. -1.
</event>
<event>
 7    1  0.2285268E-015  0.9000775E+02  0.7816164E-02  0.1186339E+00
        -11   -1    0    0    0    0  0.00000000000E+00  0.00000000000E+00  0.45593999997E+02  0.45594000000E+02  0.51100000000E-03 0. -1.
         11   -1    0    0    0    0 -0.00000000000E+00 -0.00000000000E+00 -0.45593999997E+02  0.45594000000E+02  0.51100000000E-03 0.  1.
    9900012    2    1    2    0    0  0.38545233894E+00 -0.10930814706E+01 -0.22266706266E+00  0.90007753743E+02  0.90000015292E+02 0.  0.
         12    1    1    2    0    0 -0.38545233894E+00  0.10930814706E+01  0.22266706266E+00  0.11802462572E+01  0.00000000000E+00 0. -1.
         11    1    3    3    0    0  0.57016127142E+01 -0.64978121013E+01 -0.60823790756E+01  0.10570018218E+02  0.51100000000E-03 0. -1.
        -11    1    3    3    0    0 -0.22630914069E+02  0.34845450534E+02 -0.84606886176E+01  0.42402204502E+02  0.51100000000E-03 0.  1.
         12    1    3    3    0    0  0.17314753693E+02 -0.29440719903E+02  0.14320400631E+02  0.37035531022E+02  0.00000000000E+00 0. -1.
</event>
<event>
 7    1  0.2285268E-015  0.9000763E+02  0.7816164E-02  0.1186339E+00
        -11   -1    0    0    0    0  0.00000000000E+00  0.00000000000E+00  0.45593999997E+02  0.45594000000E+02  0.51100000000E-03 0.  1.
         11   -1    0    0    0    0 -0.00000000000E+00 -0.00000000000E+00 -0.45593999997E+02  0.45594000000E+02  0.51100000000E-03 0. -1.
    9900012    2    1    2    0    0 -0.43237439416E+00 -0.56171068814E+00  0.94382944793E+00  0.90007626949E+02  0.89999886824E+02 0.  0.
         12    1    1    2    0    0  0.43237439416E+00  0.56171068814E+00 -0.94382944793E+00  0.11803730515E+01  0.00000000000E+00 0. -1.
         11    1    3    3    0    0 -0.35003062095E+02 -0.64620120881E+01  0.89418143947E+01  0.36700517724E+02  0.51100000000E-03 0. -1.
        -11    1    3    3    0    0 -0.66034467782E+01 -0.42248295445E+01  0.45811236871E+01  0.90797240338E+01  0.51100000000E-03 0.  1.
        -12    1    3    3    0    0  0.41174134479E+02  0.10125130944E+02 -0.12579108634E+02  0.44227385191E+02  0.00000000000E+00 0.  1.
</event>
<event>
 7    1  0.2285268E-015  0.9000791E+02  0.7816164E-02  0.1186339E+00
        -11   -1    0    0    0    0  0.00000000000E+00  0.00000000000E+00  0.45593999997E+02  0.45594000000E+02  0.51100000000E-03 0. -1.
         11   -1    0    0    0    0 -0.00000000000E+00 -0.00000000000E+00 -0.45593999997E+02  0.45594000000E+02  0.51100000000E-03 0.  1.
    9900012    2    1    2    0    0  0.32660285899E+00  0.10625185720E+01  0.39623626807E+00  0.90007907494E+02  0.90000171072E+02 0.  0.
         12    1    1    2    0    0 -0.32660285899E+00 -0.10625185720E+01 -0.39623626807E+00  0.11800925064E+01  0.00000000000E+00 0. -1.
         11    1    3    3    0    0 -0.19704616064E+02 -0.64546142059E+01 -0.22689085917E+01  0.20858616570E+02  0.51100000000E-03 0. -1.
        -11    1    3    3    0    0 -0.16222817125E+02  0.26473550127E+01 -0.20175868932E+02  0.26024103663E+02  0.51100000000E-03 0.  1.
         12    1    3    3    0    0  0.36254036048E+02  0.48697777653E+01  0.22841013792E+02  0.43125187261E+02  0.00000000000E+00 0. -1.
</event>
<event>
 7    1  0.2285268E-015  0.9000783E+02  0.7816164E-02  0.1186339E+00
        -11   -1    0    0    0    0  0.00000000000E+00  0.00000000000E+00  0.45593999997E+02  0.45594000000E+02  0.51100000000E-03 0.  1.
         11   -1    0    0    0    0 -0.00000000000E+00 -0.00000000000E+00 -0.45593999997E+02  0.45594000000E+02  0.51100000000E-03 0. -1.
    9900012    2    1    2    0    0  0.86059370744E-01  0.22715976411E+00  0.11548957064E+01  0.90007833967E+02  0.90000096575E+02 0.  0.
         12    1    1    2    0    0 -0.86059370744E-01 -0.22715976411E+00 -0.11548957064E+01  0.11801660334E+01  0.00000000000E+00 0. -1.
         11    1    3    3    0    0  0.91250571177E+01 -0.57653588604E+01 -0.35994413728E+02  0.37577970276E+02  0.51100000000E-03 0. -1.
        -11    1    3    3    0    0  0.21945686421E+01 -0.10428135479E+02  0.42791102317E+00  0.10665141780E+02  0.51100000000E-03 0.  1.
        -12    1    3    3    0    0 -0.11233566389E+02  0.16420654103E+02  0.36721398411E+02  0.41764721910E+02  0.00000000000E+00 0.  1.
</event>
<event>
 7    1  0.2285268E-015  0.9000774E+02  0.7816164E-02  0.1186339E+00
        -11   -1    0    0    0    0  0.00000000000E+00  0.00000000000E+00  0.45593999997E+02  0.45594000000E+02  0.51100000000E-03 0.  1.
         11   -1    0    0    0    0 -0.00000000000E+00 -0.00000000000E+00 -0.45593999997E+02  0.45594000000E+02  0.51100000000E-03 0. -1.
    9900012    2    1    2    0    0 -0.22952030047E+00 -0.22800239419E+00  0.11350532712E+01  0.90007741304E+02  0.90000002690E+02 0.  0.
         12    1    1    2    0    0  0.22952030047E+00  0.22800239419E+00 -0.11350532712E+01  0.11802586956E+01  0.00000000000E+00 0. -1.
         11    1    3    3    0    0 -0.29881099421E+02 -0.15420414060E+02 -0.11043860023E+02  0.35392599747E+02  0.51100000000E-03 0. -1.
        -11    1    3    3    0    0 -0.99984856770E+01 -0.91840131413E+00 -0.26658697725E+00  0.10044114978E+02  0.51100000000E-03 0.  1.
        -12    1    3    3    0    0  0.39650064798E+02  0.16110812980E+02  0.12445500272E+02  0.44571026579E+02  0.00000000000E+00 0.  1.
</event>
<event>
 7    1  0.2285268E-015  0.9000769E+02  0.7816164E-02  0.1186339E+00
        -11   -1    0    0    0    0  0.00000000000E+00  0.00000000000E+00  0.45593999997E+02  0.45594000000E+02  0.51100000000E-03 0.  1.
         11   -1    0    0    0    0 -0.00000000000E+00 -0.00000000000E+00 -0.45593999997E+02  0.45594000000E+02  0.51100000000E-03 0. -1.
    9900012    2    1    2    0    0 -0.26127857410E+00 -0.76116548994E+00  0.86342013316E+00  0.90007689141E+02  0.89999949838E+02 0.  0.
         12    1    1    2    0    0  0.26127857410E+00  0.76116548994E+00 -0.86342013316E+00  0.11803108585E+01  0.00000000000E+00 0. -1.
         11    1    3    3    0    0  0.30534058949E+01  0.25131982228E+01  0.10125410721E+02  0.10870298773E+02  0.51100000000E-03 0. -1.
        -11    1    3    3    0    0  0.12071825914E+02 -0.70847359003E+01  0.32004334029E+02  0.34931359272E+02  0.51100000000E-03 0.  1.
         12    1    3    3    0    0 -0.15386510383E+02  0.38103721876E+01 -0.41266324617E+02  0.44206031097E+02  0.00000000000E+00 0. -1.
</event>
<event>
 7    1  0.2285268E-015  0.9000777E+02  0.7816164E-02  0.1186339E+00
        -11   -1    0    0    0    0  0.00000000000E+00  0.00000000000E+00  0.45593999997E+02  0.45594000000E+02  0.51100000000E-03 0. -1.
         11   -1    0    0    0    0 -0.00000000000E+00 -0.00000000000E+00 -0.45593999997E+02  0.45594000000E+02  0.51100000000E-03 0.  1.
    9900012    2    1    2    0    0  0.11448324690E+01  0.15777875812E+00 -0.23961101776E+00  0.90007767413E+02  0.90000029143E+02 0.  0.
         12    1    1    2    0    0 -0.11448324690E+01 -0.15777875812E+00  0.23961101776E+00  0.11802325866E+01  0.00000000000E+00 0. -1.
         11    1    3    3    0    0 -0.13697156491E+01  0.70417036328E+01  0.56974855675E+01  0.91609526287E+01  0.51100000000E-03 0. -1.
        -11    1    3    3    0    0 -0.32718736960E+02 -0.24583808628E+02 -0.63521343723E+01  0.41415323327E+02  0.51100000000E-03 0.  1.
         12    1    3    3    0    0  0.35233285078E+02  0.17699883753E+02  0.41503778708E+00  0.39431491458E+02  0.00000000000E+00 0. -1.
</event>
<event>
 7    1  0.2285268E-015  0.9000771E+02  0.7816164E-02  0.1186339E+00
        -11   -1    0    0    0    0  0.00000000000E+00  0.00000000000E+00  0.45593999997E+02  0.45594000000E+02  0.51100000000E-03 0.  1.
         11   -1    0    0    0    0 -0.00000000000E+00 -0.00000000000E+00 -0.45593999997E+02  0.45594000000E+02  0.51100000000E-03 0. -1.
    9900012    2    1    2    0    0  0.34919000533E+00  0.10048116817E+01 -0.51137125378E+00  0.90007711588E+02  0.89999972581E+02 0.  0.
         12    1    1    2    0    0 -0.34919000533E+00 -0.10048116817E+01  0.51137125378E+00  0.11802884116E+01  0.00000000000E+00 0. -1.
         11    1    3    3    0    0 -0.50454533780E+00  0.50640392306E+01 -0.61242924554E+01  0.79627895656E+01  0.51100000000E-03 0. -1.
        -11    1    3    3    0    0  0.27685396433E+02  0.59138713328E+01 -0.26673341801E+02  0.38896300761E+02  0.51100000000E-03 0.  1.
         12    1    3    3    0    0 -0.26831661090E+02 -0.99730988817E+01  0.32286263002E+02  0.43148621262E+02  0.00000000000E+00 0. -1.
</event>
<event>
 7    1  0.2285268E-015  0.9000774E+02  0.7816164E-02  0.1186339E+00
        -11   -1    0    0    0    0  0.00000000000E+00  0.00000000000E+00  0.45593999997E+02  0.45594000000E+02  0.51100000000E-03 0. -1.
         11   -1    0    0    0    0 -0.00000000000E+00 -0.00000000000E+00 -0.45593999997E+02  0.45594000000E+02  0.51100000000E-03 0.  1.
    9900012    2    1    2    0    0 -0.16059389991E+00 -0.76495803109E+00 -0.88433650630E+00  0.90007744838E+02  0.90000006270E+02 0.  0.
         12    1    1    2    0    0  0.16059389991E+00  0.76495803109E+00  0.88433650630E+00  0.11802551616E+01  0.00000000000E+00 0. -1.
         11    1    3    3    0    0  0.76864175831E+01  0.16100807729E+02  0.27304376170E+02  0.32616651930E+02  0.51100000000E-03 0. -1.
        -11    1    3    3    0    0  0.53711012981E+01 -0.68363767422E+01  0.11475096136E+02  0.14396617926E+02  0.51100000000E-03 0.  1.
        -12    1    3    3    0    0 -0.13218112781E+02 -0.10029389018E+02 -0.39663808812E+02  0.42994474983E+02  0.00000000000E+00 0.  1.
</event>
<event>
 7    1  0.2285268E-015  0.9000768E+02  0.7816164E-02  0.1186339E+00
        -11   -1    0    0    0    0  0.00000000000E+00  0.00000000000E+00  0.45593999997E+02  0.45594000000E+02  0.51100000000E-03 0. -1.
         11   -1    0    0    0    0 -0.00000000000E+00 -0.00000000000E+00 -0.45593999997E+02  0.45594000000E+02  0.51100000000E-03 0.  1.
    9900012    2    1    2    0    0  0.99177453880E-01  0.24648303258E+00 -0.11500310043E+01  0.90007677432E+02  0.89999937975E+02 0.  0.
         12    1    1    2    0    0 -0.99177453880E-01 -0.24648303258E+00  0.11500310043E+01  0.11803225676E+01  0.00000000000E+00 0. -1.
         11    1    3    3    0    0  0.32475310252E+01  0.91351614789E+00 -0.28796229776E+01  0.44354479217E+01  0.51100000000E-03 0. -1.
        -11    1    3    3    0    0  0.25369058161E+02  0.15838900404E+02 -0.28165076168E+02  0.41082008152E+02  0.51100000000E-03 0.  1.
         12    1    3    3    0    0 -0.28517411733E+02 -0.16505933519E+02  0.29894668141E+02  0.44490221359E+02  0.00000000000E+00 0. -1.
</event>
<event>
 7    1  0.2285268E-015  0.9000777E+02  0.7816164E-02  0.1186339E+00
        -11   -1    0    0    0    0  0.00000000000E+00  0.00000000000E+00  0.45593999997E+02  0.45594000000E+02  0.51100000000E-03 0.  1.
         11   -1    0    0    0    0 -0.00000000000E+00 -0.00000000000E+00 -0.45593999997E+02  0.45594000000E+02  0.51100000000E-03 0. -1.
    9900012    2    1    2    0    0 -0.10936892421E+01 -0.89633565075E-01 -0.43446152039E+00  0.90007768181E+02  0.90000029921E+02 0.  0.
         12    1    1    2    0    0  0.10936892421E+01  0.89633565075E-01  0.43446152039E+00  0.11802318192E+01  0.00000000000E+00 0. -1.
         11    1    3    3    0    0 -0.22588667723E+01 -0.32335601224E+02 -0.18565876341E+02  0.37354857116E+02  0.51100000000E-03 0. -1.
        -11    1    3    3    0    0 -0.54576410728E+01 -0.74099427004E+01  0.27364599138E+01  0.96011098330E+01  0.51100000000E-03 0.  1.
        -12    1    3    3    0    0  0.66228186030E+01  0.39655910360E+02  0.15394954906E+02  0.43051801231E+02  0.00000000000E+00 0.  1.
</event>
<event>
 7    1  0.2285268E-015  0.9000771E+02  0.7816164E-02  0.1186339E+00
        -11   -1    0    0    0    0  0.00000000000E+00  0.00000000000E+00  0.45593999997E+02  0.45594000000E+02  0.51100000000E-03 0. -1.
         11   -1    0    0    0    0 -0.00000000000E+00 -0.00000000000E+00 -0.45593999997E+02  0.45594000000E+02  0.51100000000E-03 0.  1.
    9900012    2    1    2    0    0 -0.59156586091E+00  0.36628587479E+00 -0.95339524582E+00  0.90007712745E+02  0.89999973753E+02 0.  0.
         12    1    1    2    0    0  0.59156586091E+00 -0.36628587479E+00  0.95339524582E+00  0.11802872551E+01  0.00000000000E+00 0. -1.
         11    1    3    3    0    0  0.43279849609E+00 -0.48189980403E+01 -0.10993016091E+02  0.12010681067E+02  0.51100000000E-03 0. -1.
        -11    1    3    3    0    0  0.96292518927E+01 -0.33363961305E+02 -0.53666875610E+01  0.35137981468E+02  0.51100000000E-03 0.  1.
         12    1    3    3    0    0 -0.10653616250E+02  0.38549245220E+02  0.15406308406E+02  0.42859050211E+02  0.00000000000E+00 0. -1.
</event>
<event>
 7    1  0.2285268E-015  0.9000774E+02  0.7816164E-02  0.1186339E+00
        -11   -1    0    0    0    0  0.00000000000E+00  0.00000000000E+00  0.45593999997E+02  0.45594000000E+02  0.51100000000E-03 0.  1.
         11   -1    0    0    0    0 -0.00000000000E+00 -0.00000000000E+00 -0.45593999997E+02  0.45594000000E+02  0.51100000000E-03 0. -1.
    9900012    2    1    2    0    0 -0.11307146717E+01 -0.33835685562E+00  0.35511587303E-02  0.90007740011E+02  0.90000001379E+02 0.  0.
         12    1    1    2    0    0  0.11307146717E+01  0.33835685562E+00 -0.35511587303E-02  0.11802599888E+01  0.00000000000E+00 0. -1.
         11    1    3    3    0    0 -0.87318604371E+01  0.18840333357E+01  0.23202136392E+01  0.92292123117E+01  0.51100000000E-03 0. -1.
        -11    1    3    3    0    0 -0.65507057926E+01 -0.10995296708E+02  0.36426183707E+02  0.38609262565E+02  0.51100000000E-03 0.  1.
         12    1    3    3    0    0  0.14151851558E+02  0.87729065163E+01 -0.38742846188E+02  0.42169265135E+02  0.00000000000E+00 0. -1.
</event>
<event>
 7    1  0.2285268E-015  0.9000795E+02  0.7816164E-02  0.1186339E+00
        -11   -1    0    0    0    0  0.00000000000E+00  0.00000000000E+00  0.45593999997E+02  0.45594000000E+02  0.51100000000E-03 0. -1.
         11   -1    0    0    0    0 -0.00000000000E+00 -0.00000000000E+00 -0.45593999997E+02  0.45594000000E+02  0.51100000000E-03 0.  1.
    9900012    2    1    2    0    0 -0.11049077330E+01 -0.36289460590E+00  0.20003289889E+00  0.90007946292E+02  0.90000210383E+02 0.  0.
         12    1    1    2    0    0  0.11049077330E+01  0.36289460590E+00 -0.20003289889E+00  0.11800537081E+01  0.00000000000E+00 0. -1.
         11    1    3    3    0    0  0.21799535961E+02  0.34205079647E+02 -0.47822286736E+01  0.40842097805E+02  0.51100000000E-03 0. -1.
        -11    1    3    3    0    0  0.58067465416E+01 -0.67880903678E+01  0.15692513833E+01  0.90696762018E+01  0.51100000000E-03 0.  1.
        -12    1    3    3    0    0 -0.28711190235E+02 -0.27779883885E+02  0.34130101892E+01  0.40096172285E+02  0.00000000000E+00 0.  1.
</event>
<event>
 7    1  0.2285268E-015  0.9000765E+02  0.7816164E-02  0.1186339E+00
        -11   -1    0    0    0    0  0.00000000000E+00  0.00000000000E+00  0.45593999997E+02  0.45594000000E+02  0.51100000000E-03 0. -1.
         11   -1    0    0    0    0 -0.00000000000E+00 -0.00000000000E+00 -0.45593999997E+02  0.45594000000E+02  0.51100000000E-03 0.  1.
    9900012    2    1    2    0    0  0.19881503907E+00  0.10841947295E+01 -0.42215498966E+00  0.90007652396E+02  0.89999912607E+02 0.  0.
         12    1    1    2    0    0 -0.19881503907E+00 -0.10841947295E+01  0.42215498966E+00  0.11803476041E+01  0.00000000000E+00 0. -1.
         11    1    3    3    0    0  0.10096275497E+02  0.61903514614E+00 -0.17309973612E+01  0.10262277308E+02  0.51100000000E-03 0. -1.
        -11    1    3    3    0    0  0.28877814770E+02 -0.16152050330E+02  0.13647470373E+02  0.35792043300E+02  0.51100000000E-03 0.  1.
         12    1    3    3    0    0 -0.38775275228E+02  0.16617209914E+02 -0.12338628001E+02  0.43953331788E+02  0.00000000000E+00 0. -1.
</event>
<event>
 7    1  0.2285268E-015  0.9000794E+02  0.7816164E-02  0.1186339E+00
        -11   -1    0    0    0    0  0.00000000000E+00  0.00000000000E+00  0.45593999997E+02  0.45594000000E+02  0.51100000000E-03 0. -1.
         11   -1    0    0    0    0 -0.00000000000E+00 -0.00000000000E+00 -0.45593999997E+02  0.45594000000E+02  0.51100000000E-03 0.  1.
    9900012    2    1    2    0    0 -0.35475201689E-01  0.42515934412E+00 -0.11002425553E+01  0.90007935324E+02  0.90000199271E+02 0.  0.
         12    1    1    2    0    0  0.35475201689E-01 -0.42515934412E+00  0.11002425553E+01  0.11800646755E+01  0.00000000000E+00 0. -1.
         11    1    3    3    0    0 -0.40617265816E+02 -0.73799131436E+01 -0.11496788388E+02  0.42853255930E+02  0.51100000000E-03 0. -1.
        -11    1    3    3    0    0  0.66811503681E+01 -0.31942724731E+01 -0.43448156922E+01  0.85859519294E+01  0.51100000000E-03 0.  1.
        -12    1    3    3    0    0  0.33900640246E+02  0.10999344961E+02  0.14741361525E+02  0.38568727465E+02  0.00000000000E+00 0.  1.
</event>
<event>
 7    1  0.2285268E-015  0.9000770E+02  0.7816164E-02  0.1186339E+00
        -11   -1    0    0    0    0  0.00000000000E+00  0.00000000000E+00  0.45593999997E+02  0.45594000000E+02  0.51100000000E-03 0.  1.
         11   -1    0    0    0    0 -0.00000000000E+00 -0.00000000000E+00 -0.45593999997E+02  0.45594000000E+02  0.51100000000E-03 0. -1.
    9900012    2    1    2    0    0  0.80306297129E+00  0.71124735641E+00  0.49225973004E+00  0.90007702334E+02  0.89999963205E+02 0.  0.
         12    1    1    2    0    0 -0.80306297129E+00 -0.71124735641E+00 -0.49225973004E+00  0.11802976657E+01  0.00000000000E+00 0. -1.
         11    1    3    3    0    0 -0.15837448142E+01 -0.56839517726E+01  0.73951135458E+01  0.94606162593E+01  0.51100000000E-03 0. -1.
        -11    1    3    3    0    0 -0.35049274834E+02  0.11518448198E+02  0.11328662282E+02  0.38593586315E+02  0.51100000000E-03 0.  1.
         12    1    3    3    0    0  0.37436082619E+02 -0.51232490692E+01 -0.18231516098E+02  0.41953499760E+02  0.00000000000E+00 0. -1.
</event>
<event>
 7    1  0.2285268E-015  0.9000775E+02  0.7816164E-02  0.1186339E+00
        -11   -1    0    0    0    0  0.00000000000E+00  0.00000000000E+00  0.45593999997E+02  0.45594000000E+02  0.51100000000E-03 0.  1.
         11   -1    0    0    0    0 -0.00000000000E+00 -0.00000000000E+00 -0.45593999997E+02  0.45594000000E+02  0.51100000000E-03 0. -1.
    9900012    2    1    2    0    0  0.12017036882E+00  0.10953563690E+01 -0.42278489951E+00  0.90007748517E+02  0.90000009997E+02 0.  0.
         12    1    1    2    0    0 -0.12017036882E+00 -0.10953563690E+01  0.42278489951E+00  0.11802514833E+01  0.00000000000E+00 0. -1.
         11    1    3    3    0    0  0.27406182181E+02  0.10894713851E+02  0.14832091250E+02  0.33011884872E+02  0.51100000000E-03 0. -1.
        -11    1    3    3    0    0  0.92724842057E+01  0.85089122264E+01  0.17652925416E+01  0.12708139464E+02  0.51100000000E-03 0.  1.
        -12    1    3    3    0    0 -0.36558496018E+02 -0.18308269709E+02 -0.17020168691E+02  0.44287724181E+02  0.00000000000E+00 0.  1.
</event>
<event>
 7    1  0.2285268E-015  0.9000779E+02  0.7816164E-02  0.1186339E+00
        -11   -1    0    0    0    0  0.00000000000E+00  0.00000000000E+00  0.45593999997E+02  0.45594000000E+02  0.51100000000E-03 0. -1.
         11   -1    0    0    0    0 -0.00000000000E+00 -0.00000000000E+00 -0.45593999997E+02  0.45594000000E+02  0.51100000000E-03 0.  1.
    9900012    2    1    2    0    0  0.19495312736E-02 -0.11420779487E+01 -0.29759137996E+00  0.90007785413E+02  0.90000047381E+02 0.  0.
         12    1    1    2    0    0 -0.19495312736E-02  0.11420779487E+01  0.29759137996E+00  0.11802145868E+01  0.00000000000E+00 0. -1.
         11    1    3    3    0    0  0.42019789674E+01 -0.16217842770E+02  0.31974681828E+02  0.36097857688E+02  0.51100000000E-03 0. -1.
        -11    1    3    3    0    0  0.11398025584E+01  0.67208712805E+00  0.94019518585E+01  0.94946063631E+01  0.51100000000E-03 0.  1.
        -12    1    3    3    0    0 -0.53398319945E+01  0.14403677693E+02 -0.41674225067E+02  0.44415321362E+02  0.00000000000E+00 0.  1.
</event>
<event>
 7    1  0.2285268E-015  0.9000757E+02  0.7816164E-02  0.1186339E+00
        -11   -1    0    0    0    0  0.00000000000E+00  0.00000000000E+00  0.45593999997E+02  0.45594000000E+02  0.51100000000E-03 0. -1.
         11   -1    0    0    0    0 -0.00000000000E+00 -0.00000000000E+00 -0.45593999997E+02  0.45594000000E+02  0.51100000000E-03 0.  1.
    9900012    2    1    2    0    0  0.11688007600E+01  0.12799093109E+00  0.10457700706E+00  0.90007570737E+02  0.89999829870E+02 0.  0.
         12    1    1    2    0    0 -0.11688007600E+01 -0.12799093109E+00 -0.10457700706E+00  0.11804292632E+01  0.00000000000E+00 0. -1.
         11    1    3    3    0    0 -0.70206231441E+00 -0.20873801910E+01 -0.79571995604E+01  0.82563353046E+01  0.51100000000E-03 0. -1.
        -11    1    3    3    0    0 -0.21016155420E+02 -0.10609415930E+02 -0.28363851127E+02  0.36861179390E+02  0.51100000000E-03 0.  1.
         12    1    3    3    0    0  0.22887018495E+02  0.12824787052E+02  0.36425627695E+02  0.44890056042E+02  0.00000000000E+00 0. -1.
</event>
<event>
 7    1  0.2285268E-015  0.9000771E+02  0.7816164E-02  0.1186339E+00
        -11   -1    0    0    0    0  0.00000000000E+00  0.00000000000E+00  0.45593999997E+02  0.45594000000E+02  0.51100000000E-03 0.  1.
         11   -1    0    0    0    0 -0.00000000000E+00 -0.00000000000E+00 -0.45593999997E+02  0.45594000000E+02  0.51100000000E-03 0. -1.
    9900012    2    1    2    0    0 -0.49121191756E+00 -0.10479714876E+01 -0.23139998870E+00  0.90007712179E+02  0.89999973179E+02 0.  0.
         12    1    1    2    0    0  0.49121191756E+00  0.10479714876E+01  0.23139998870E+00  0.11802878215E+01  0.00000000000E+00 0. -1.
         11    1    3    3    0    0 -0.35665784917E+02  0.71003260582E+01 -0.87073269878E+01  0.37393587517E+02  0.51100000000E-03 0. -1.
        -11    1    3    3    0    0 -0.25089149133E+01 -0.62836678502E+01 -0.88140304071E+01  0.11111537606E+02  0.51100000000E-03 0.  1.
        -12    1    3    3    0    0  0.37683487913E+02 -0.18646296956E+01  0.17289957406E+02  0.41502587055E+02  0.00000000000E+00 0.  1.
</event>
<event>
 7    1  0.2285268E-015  0.9000771E+02  0.7816164E-02  0.1186339E+00
        -11   -1    0    0    0    0  0.00000000000E+00  0.00000000000E+00  0.45593999997E+02  0.45594000000E+02  0.51100000000E-03 0. -1.
         11   -1    0    0    0    0 -0.00000000000E+00 -0.00000000000E+00 -0.45593999997E+02  0.45594000000E+02  0.51100000000E-03 0.  1.
    9900012    2    1    2    0    0 -0.64938419103E+00 -0.25505778045E-01 -0.98525975884E+00  0.90007708864E+02  0.89999969821E+02 0.  0.
         12    1    1    2    0    0  0.64938419103E+00  0.25505778045E-01  0.98525975884E+00  0.11802911356E+01  0.00000000000E+00 0. -1.
         11    1    3    3    0    0  0.16169171402E+02  0.27337855819E+01 -0.17578489594E+01  0.16492595935E+02  0.51100000000E-03 0. -1.
        -11    1    3    3    0    0 -0.35889077109E+02 -0.23209428544E+02 -0.93971837316E+01  0.43760832847E+02  0.51100000000E-03 0.  1.
         12    1    3    3    0    0  0.19070521516E+02  0.20450137184E+02  0.10169772932E+02  0.29754280083E+02  0.00000000000E+00 0. -1.
</event>
<event>
 7    1  0.2285268E-015  0.9000777E+02  0.7816164E-02  0.1186339E+00
        -11   -1    0    0    0    0  0.00000000000E+00  0.00000000000E+00  0.45593999997E+02  0.45594000000E+02  0.51100000000E-03 0. -1.
         11   -1    0    0    0    0 -0.00000000000E+00 -0.00000000000E+00 -0.45593999997E+02  0.45594000000E+02  0.51100000000E-03 0.  1.
    9900012    2    1    2    0    0 -0.11631544898E+01  0.19974917548E+00 -0.11239297229E-01  0.90007765099E+02  0.90000026798E+02 0.  0.
         12    1    1    2    0    0  0.11631544898E+01 -0.19974917548E+00  0.11239297229E-01  0.11802349012E+01  0.00000000000E+00 0. -1.
         11    1    3    3    0    0 -0.19534387835E+02 -0.27552515537E+02 -0.10717489033E+02  0.35434418183E+02  0.51100000000E-03 0. -1.
        -11    1    3    3    0    0 -0.99870648501E+01 -0.16425262083E+01 -0.43850625641E+01  0.11030327766E+02  0.51100000000E-03 0.  1.
        -12    1    3    3    0    0  0.28358298196E+02  0.29394790921E+02  0.15091312300E+02  0.43543019151E+02  0.00000000000E+00 0.  1.
</event>
<event>
 7    1  0.2285268E-015  0.9000766E+02  0.7816164E-02  0.1186339E+00
        -11   -1    0    0    0    0  0.00000000000E+00  0.00000000000E+00  0.45593999997E+02  0.45594000000E+02  0.51100000000E-03 0.  1.
         11   -1    0    0    0    0 -0.00000000000E+00 -0.00000000000E+00 -0.45593999997E+02  0.45594000000E+02  0.51100000000E-03 0. -1.
    9900012    2    1    2    0    0  0.23659250809E-01 -0.10665573815E+01  0.50508264273E+00  0.90007655608E+02  0.89999915862E+02 0.  0.
         12    1    1    2    0    0 -0.23659250809E-01  0.10665573815E+01 -0.50508264273E+00  0.11803443922E+01  0.00000000000E+00 0. -1.
         11    1    3    3    0    0  0.12341041156E+02 -0.34023806801E+01  0.40256685979E+01  0.13419519329E+02  0.51100000000E-03 0. -1.
        -11    1    3    3    0    0  0.84805995573E+01  0.27032624159E+02  0.21643299138E+02  0.35652710074E+02  0.51100000000E-03 0.  1.
         12    1    3    3    0    0 -0.20797981462E+02 -0.24696800860E+02 -0.25163885093E+02  0.40935426205E+02  0.00000000000E+00 0. -1.
</event>
<event>
 7    1  0.2285268E-015  0.9000775E+02  0.7816164E-02  0.1186339E+00
        -11   -1    0    0    0    0  0.00000000000E+00  0.00000000000E+00  0.45593999997E+02  0.45594000000E+02  0.51100000000E-03 0.  1.
         11   -1    0    0    0    0 -0.00000000000E+00 -0.00000000000E+00 -0.45593999997E+02  0.45594000000E+02  0.51100000000E-03 0. -1.
    9900012    2    1    2    0    0 -0.58425177615E+00 -0.10044102042E+00  0.10205602907E+01  0.90007753482E+02  0.90000015028E+02 0.  0.
         12    1    1    2    0    0  0.58425177615E+00  0.10044102042E+00 -0.10205602907E+01  0.11802465181E+01  0.00000000000E+00 0. -1.
         11    1    3    3    0    0  0.14842991062E+02  0.18023271414E+02  0.27045821819E+02  0.35729947863E+02  0.51100000000E-03 0. -1.
        -11    1    3    3    0    0  0.93839843920E+00  0.81496734579E+01  0.56723170740E+01  0.99736127031E+01  0.51100000000E-03 0.  1.
        -12    1    3    3    0    0 -0.16365641278E+02 -0.26273385893E+02 -0.31697578602E+02  0.44304192916E+02  0.00000000000E+00 0.  1.
</event>
<event>
 7    1  0.2285268E-015  0.9000772E+02  0.7816164E-02  0.1186339E+00
        -11   -1    0    0    0    0  0.00000000000E+00  0.00000000000E+00  0.45593999997E+02  0.45594000000E+02  0.51100000000E-03 0. -1.
         11   -1    0    0    0    0 -0.00000000000E+00 -0.00000000000E+00 -0.45593999997E+02  0.45594000000E+02  0.51100000000E-03 0.  1.
    9900012    2    1    2    0    0  0.11561346278E+00  0.10950349295E+01  0.42496125235E+00  0.90007720357E+02  0.89999981466E+02 0.  0.
         12    1    1    2    0    0 -0.11561346278E+00 -0.10950349295E+01 -0.42496125235E+00  0.11802796429E+01  0.00000000000E+00 0. -1.
         11    1    3    3    0    0 -0.16524147471E+02 -0.91670252220E+01  0.31032743681E+02  0.36333359075E+02  0.51100000000E-03 0. -1.
        -11    1    3    3    0    0 -0.33917721784E+01 -0.53371484121E+01  0.62678904082E+01  0.89036914880E+01  0.51100000000E-03 0.  1.
        -12    1    3    3    0    0  0.20031533112E+02  0.15599208564E+02 -0.36875672837E+02  0.44770669794E+02  0.00000000000E+00 0.  1.
</event>
<event>
 7    1  0.2285268E-015  0.9000777E+02  0.7816164E-02  0.1186339E+00
        -11   -1    0    0    0    0  0.00000000000E+00  0.00000000000E+00  0.45593999997E+02  0.45594000000E+02  0.51100000000E-03 0. -1.
         11   -1    0    0    0    0 -0.00000000000E+00 -0.00000000000E+00 -0.45593999997E+02  0.45594000000E+02  0.51100000000E-03 0.  1.
    9900012    2    1    2    0    0 -0.79560605966E+00 -0.66065392816E+00 -0.56876039599E+00  0.90007770784E+02  0.90000032558E+02 0.  0.
         12    1    1    2    0    0  0.79560605966E+00  0.66065392816E+00  0.56876039599E+00  0.11802292163E+01  0.00000000000E+00 0. -1.
         11    1    3    3    0    0 -0.11517102321E+02 -0.10846338292E+02  0.36766715146E+02  0.40025967110E+02  0.51100000000E-03 0. -1.
        -11    1    3    3    0    0 -0.24477980353E+00  0.91570977627E+01  0.17916496692E+01  0.93339362214E+01  0.51100000000E-03 0.  1.
        -12    1    3    3    0    0  0.10966276065E+02  0.10285866011E+01 -0.39127125211E+02  0.40647867452E+02  0.00000000000E+00 0.  1.
</event>
<event>
 7    1  0.2285268E-015  0.9000770E+02  0.7816164E-02  0.1186339E+00
        -11   -1    0    0    0    0  0.00000000000E+00  0.00000000000E+00  0.45593999997E+02  0.45594000000E+02  0.51100000000E-03 0. -1.
         11   -1    0    0    0    0 -0.00000000000E+00 -0.00000000000E+00 -0.45593999997E+02  0.45594000000E+02  0.51100000000E-03 0.  1.
    9900012    2    1    2    0    0 -0.57184449877E+00  0.65745946060E+00 -0.79615074675E+00  0.90007697037E+02  0.89999957838E+02 0.  0.
         12    1    1    2    0    0  0.57184449877E+00 -0.65745946060E+00  0.79615074675E+00  0.11803029631E+01  0.00000000000E+00 0. -1.
         11    1    3    3    0    0  0.13530429082E+02  0.24837649876E+01  0.26520419147E+02  0.29875980848E+02  0.51100000000E-03 0. -1.
        -11    1    3    3    0    0 -0.28871653477E+01 -0.84826597324E+01  0.14102220980E+02  0.16708197890E+02  0.51100000000E-03 0.  1.
        -12    1    3    3    0    0 -0.11215108233E+02  0.66563542055E+01 -0.41418790874E+02  0.43423518299E+02  0.00000000000E+00 0.  1.
</event>
<event>
 7    1  0.2285268E-015  0.9000776E+02  0.7816164E-02  0.1186339E+00
        -11   -1    0    0    0    0  0.00000000000E+00  0.00000000000E+00  0.45593999997E+02  0.45594000000E+02  0.51100000000E-03 0. -1.
         11   -1    0    0    0    0 -0.00000000000E+00 -0.00000000000E+00 -0.45593999997E+02  0.45594000000E+02  0.51100000000E-03 0.  1.
    9900012    2    1    2    0    0  0.15820498963E+00 -0.94082695099E+00  0.69481709858E+00  0.90007764866E+02  0.90000026562E+02 0.  0.
         12    1    1    2    0    0 -0.15820498963E+00  0.94082695099E+00 -0.69481709858E+00  0.11802351338E+01  0.00000000000E+00 0. -1.
         11    1    3    3    0    0 -0.41100574868E+01 -0.32826884572E+01  0.69213811754E+01  0.86933384662E+01  0.51100000000E-03 0. -1.
        -11    1    3    3    0    0  0.17065007556E+02  0.19607604787E+02  0.29688880150E+02  0.39460134987E+02  0.51100000000E-03 0.  1.
         12    1    3    3    0    0 -0.12796745079E+02 -0.17265743281E+02 -0.35915444227E+02  0.41854291413E+02  0.00000000000E+00 0. -1.
</event>
<event>
 7    1  0.2285268E-015  0.9000778E+02  0.7816164E-02  0.1186339E+00
        -11   -1    0    0    0    0  0.00000000000E+00  0.00000000000E+00  0.45593999997E+02  0.45594000000E+02  0.51100000000E-03 0.  1.
         11   -1    0    0    0    0 -0.00000000000E+00 -0.00000000000E+00 -0.45593999997E+02  0.45594000000E+02  0.51100000000E-03 0. -1.
    9900012    2    1    2    0    0  0.10491577590E+00  0.55556023178E+00  0.10359839611E+01  0.90007780843E+02  0.90000042750E+02 0.  0.
         12    1    1    2    0    0 -0.10491577590E+00 -0.55556023178E+00 -0.10359839611E+01  0.11802191571E+01  0.00000000000E+00 0. -1.
         11    1    3    3    0    0 -0.19764194937E+02  0.19837303515E+02  0.21437237573E+02  0.35266090899E+02  0.51100000000E-03 0. -1.
        -11    1    3    3    0    0  0.76801553956E+01  0.60250411644E+01  0.95665767451E+01  0.13667673497E+02  0.51100000000E-03 0.  1.
        -12    1    3    3    0    0  0.12188955318E+02 -0.25306784447E+02 -0.29967830357E+02  0.41074016447E+02  0.00000000000E+00 0.  1.
</event>
<event>
 7    1  0.3872061E-015  0.9000773E+02  0.7816164E-02  0.1186339E+00
        -11   -1    0    0    0    0  0.00000000000E+00  0.00000000000E+00  0.45593999997E+02  0.45594000000E+02  0.51100000000E-03 0.  1.
         11   -1    0    0    0    0 -0.00000000000E+00 -0.00000000000E+00 -0.45593999997E+02  0.45594000000E+02  0.51100000000E-03 0. -1.
    9900012    2    1    2    0    0  0.85303219450E+00 -0.75505754763E+00  0.30862939862E+00  0.90007733958E+02  0.89999995246E+02 0.  0.
         12    1    1    2    0    0 -0.85303219450E+00  0.75505754763E+00 -0.30862939862E+00  0.11802660424E+01  0.00000000000E+00 0. -1.
         11    1    3    3    0    0 -0.50025546553E+01  0.59977931257E+01  0.51907777479E+01  0.93778062119E+01  0.51100000000E-03 0. -1.
        -11    1    3    3    0    0 -0.16629055514E+02 -0.12996858809E+02  0.31194785727E+02  0.37663755562E+02  0.51100000000E-03 0.  1.
         12    1    3    3    0    0  0.22484642364E+02  0.62440081356E+01 -0.36076934076E+02  0.42966172184E+02  0.00000000000E+00 0. -1.
</event>
<event>
 7    1  0.2285268E-015  0.9000775E+02  0.7816164E-02  0.1186339E+00
        -11   -1    0    0    0    0  0.00000000000E+00  0.00000000000E+00  0.45593999997E+02  0.45594000000E+02  0.51100000000E-03 0. -1.
         11   -1    0    0    0    0 -0.00000000000E+00 -0.00000000000E+00 -0.45593999997E+02  0.45594000000E+02  0.51100000000E-03 0.  1.
    9900012    2    1    2    0    0  0.11268940380E+01 -0.54988893272E-01 -0.34653102389E+00  0.90007746764E+02  0.90000008221E+02 0.  0.
         12    1    1    2    0    0 -0.11268940380E+01  0.54988893272E-01  0.34653102389E+00  0.11802532363E+01  0.00000000000E+00 0. -1.
         11    1    3    3    0    0 -0.57854408798E+01 -0.73791333468E+00 -0.72600949325E+01  0.93126162249E+01  0.51100000000E-03 0. -1.
        -11    1    3    3    0    0 -0.25403390795E+02 -0.13127254034E+02 -0.21277270180E+02  0.35642380517E+02  0.51100000000E-03 0.  1.
         12    1    3    3    0    0  0.32315725713E+02  0.13810178475E+02  0.28190834089E+02  0.45052750021E+02  0.00000000000E+00 0. -1.
</event>
<event>
 7    1  0.2285268E-015  0.9000775E+02  0.7816164E-02  0.1186339E+00
        -11   -1    0    0    0    0  0.00000000000E+00  0.00000000000E+00  0.45593999997E+02  0.45594000000E+02  0.51100000000E-03 0.  1.
         11   -1    0    0    0    0 -0.00000000000E+00 -0.00000000000E+00 -0.45593999997E+02  0.45594000000E+02  0.51100000000E-03 0. -1.
    9900012    2    1    2    0    0 -0.32500673580E+00  0.71387419662E+00  0.88189688357E+00  0.90007750933E+02  0.90000012445E+02 0.  0.
         12    1    1    2    0    0  0.32500673580E+00 -0.71387419662E+00 -0.88189688357E+00  0.11802490670E+01  0.00000000000E+00 0. -1.
         11    1    3    3    0    0 -0.86816763879E+01 -0.96749743053E-01  0.52060012743E+01  0.10123404316E+02  0.51100000000E-03 0. -1.
        -11    1    3    3    0    0 -0.25458861788E+02  0.15222692259E+02  0.20027889130E+02  0.35791065176E+02  0.51100000000E-03 0.  1.
         12    1    3    3    0    0  0.33815531440E+02 -0.14412068319E+02 -0.24351993521E+02  0.44093281441E+02  0.00000000000E+00 0. -1.
</event>
<event>
 7    1  0.2285268E-015  0.9000777E+02  0.7816164E-02  0.1186339E+00
        -11   -1    0    0    0    0  0.00000000000E+00  0.00000000000E+00  0.45593999997E+02  0.45594000000E+02  0.51100000000E-03 0.  1.
         11   -1    0    0    0    0 -0.00000000000E+00 -0.00000000000E+00 -0.45593999997E+02  0.45594000000E+02  0.51100000000E-03 0. -1.
    9900012    2    1    2    0    0  0.71026521471E+00 -0.28711353521E+00  0.89779709232E+00  0.90007766770E+02  0.90000028492E+02 0.  0.
         12    1    1    2    0    0 -0.71026521471E+00  0.28711353521E+00 -0.89779709232E+00  0.11802332296E+01  0.00000000000E+00 0. -1.
         11    1    3    3    0    0  0.26504496667E+01  0.71485183951E+01 -0.44426967139E+01  0.88240440295E+01  0.51100000000E-03 0. -1.
        -11    1    3    3    0    0 -0.27844134787E+02  0.24350669333E+02  0.13497577587E+02  0.39375570345E+02  0.51100000000E-03 0.  1.
         12    1    3    3    0    0  0.25903950335E+02 -0.31786301264E+02 -0.81570837805E+01  0.41808152396E+02  0.00000000000E+00 0. -1.
</event>
<event>
 7    1  0.2285268E-015  0.9000762E+02  0.7816164E-02  0.1186339E+00
        -11   -1    0    0    0    0  0.00000000000E+00  0.00000000000E+00  0.45593999997E+02  0.45594000000E+02  0.51100000000E-03 0.  1.
         11   -1    0    0    0    0 -0.00000000000E+00 -0.00000000000E+00 -0.45593999997E+02  0.45594000000E+02  0.51100000000E-03 0. -1.
    9900012    2    1    2    0    0  0.45310886234E+00 -0.75735692409E+00  0.78383259616E+00  0.90007622649E+02  0.89999882468E+02 0.  0.
         12    1    1    2    0    0 -0.45310886234E+00  0.75735692409E+00 -0.78383259616E+00  0.11803773509E+01  0.00000000000E+00 0. -1.
         11    1    3    3    0    0  0.78604855061E+01 -0.23744157653E+01  0.25441580000E+01  0.85963842869E+01  0.51100000000E-03 0. -1.
        -11    1    3    3    0    0  0.31695083022E+02  0.77484365730E+01  0.17901214878E+02  0.37216529278E+02  0.51100000000E-03 0.  1.
         12    1    3    3    0    0 -0.39102459666E+02 -0.61313777318E+01 -0.19661540282E+02  0.44194709085E+02  0.00000000000E+00 0. -1.
</event>
<event>
 7    1  0.2285268E-015  0.9000712E+02  0.7816164E-02  0.1186340E+00
        -11   -1    0    0    0    0  0.00000000000E+00  0.00000000000E+00  0.45593999997E+02  0.45594000000E+02  0.51100000000E-03 0. -1.
         11   -1    0    0    0    0 -0.00000000000E+00 -0.00000000000E+00 -0.45593999997E+02  0.45594000000E+02  0.51100000000E-03 0.  1.
    9900012    2    1    2    0    0 -0.16856378138E+00  0.82243143362E+00 -0.83046045985E+00  0.90007122451E+02  0.89999375665E+02 0.  0.
         12    1    1    2    0    0  0.16856378138E+00 -0.82243143362E+00  0.83046045985E+00  0.11808775494E+01  0.00000000000E+00 0. -1.
         11    1    3    3    0    0  0.23977208725E+02 -0.23691206395E+02 -0.20544609081E+02  0.39474811732E+02  0.51100000000E-03 0. -1.
        -11    1    3    3    0    0  0.53131331004E+01 -0.28439963904E+01  0.46034490978E+01  0.75834980496E+01  0.51100000000E-03 0.  1.
        -12    1    3    3    0    0 -0.29458905607E+02  0.27357634219E+02  0.15110699523E+02  0.42948812669E+02  0.00000000000E+00 0.  1.
</event>
<event>
 7    1  0.2285268E-015  0.9000764E+02  0.7816164E-02  0.1186339E+00
        -11   -1    0    0    0    0  0.00000000000E+00  0.00000000000E+00  0.45593999997E+02  0.45594000000E+02  0.51100000000E-03 0. -1.
         11   -1    0    0    0    0 -0.00000000000E+00 -0.00000000000E+00 -0.45593999997E+02  0.45594000000E+02  0.51100000000E-03 0.  1.
    9900012    2    1    2    0    0 -0.22017222472E+00 -0.86346857656E+00 -0.77407763596E+00  0.90007639895E+02  0.89999899941E+02 0.  0.
         12    1    1    2    0    0  0.22017222472E+00  0.86346857656E+00  0.77407763596E+00  0.11803601051E+01  0.00000000000E+00 0. -1.
         11    1    3    3    0    0 -0.12864486189E+01  0.44498190821E+01  0.74291123726E+01  0.87548586978E+01  0.51100000000E-03 0. -1.
        -11    1    3    3    0    0 -0.34610926063E+02  0.17137995049E+02 -0.55179550043E+01  0.39013778399E+02  0.51100000000E-03 0.  1.
         12    1    3    3    0    0  0.35677202457E+02 -0.22451282708E+02 -0.26852350042E+01  0.42239002799E+02  0.00000000000E+00 0. -1.
</event>
<event>
 7    1  0.2285268E-015  0.9000773E+02  0.7816164E-02  0.1186339E+00
        -11   -1    0    0    0    0  0.00000000000E+00  0.00000000000E+00  0.45593999997E+02  0.45594000000E+02  0.51100000000E-03 0. -1.
         11   -1    0    0    0    0 -0.00000000000E+00 -0.00000000000E+00 -0.45593999997E+02  0.45594000000E+02  0.51100000000E-03 0.  1.
    9900012    2    1    2    0    0  0.10906669262E+00 -0.11640485546E+01  0.16164439976E+00  0.90007731601E+02  0.89999992859E+02 0.  0.
         12    1    1    2    0    0 -0.10906669262E+00  0.11640485546E+01 -0.16164439976E+00  0.11802683986E+01  0.00000000000E+00 0. -1.
         11    1    3    3    0    0  0.94791980052E+01 -0.22689003462E+02 -0.34038167565E+02  0.41990986227E+02  0.51100000000E-03 0. -1.
        -11    1    3    3    0    0 -0.44523600972E+01 -0.49940540019E+01  0.58600045997E+01  0.88940283325E+01  0.51100000000E-03 0.  1.
        -12    1    3    3    0    0 -0.49177712153E+01  0.26519008909E+02  0.28339807365E+02  0.39122717042E+02  0.00000000000E+00 0.  1.
</event>
<event>
 7    1  0.2285268E-015  0.9000774E+02  0.7816164E-02  0.1186339E+00
        -11   -1    0    0    0    0  0.00000000000E+00  0.00000000000E+00  0.45593999997E+02  0.45594000000E+02  0.51100000000E-03 0. -1.
         11   -1    0    0    0    0 -0.00000000000E+00 -0.00000000000E+00 -0.45593999997E+02  0.45594000000E+02  0.51100000000E-03 0.  1.
    9900012    2    1    2    0    0 -0.78946364691E+00 -0.84384581336E+00  0.24015369065E+00  0.90007744773E+02  0.90000006204E+02 0.  0.
         12    1    1    2    0    0  0.78946364691E+00  0.84384581336E+00 -0.24015369065E+00  0.11802552273E+01  0.00000000000E+00 0. -1.
         11    1    3    3    0    0 -0.22378691451E+02  0.15275168152E+02 -0.39739285473E+01  0.27384826117E+02  0.51100000000E-03 0. -1.
        -11    1    3    3    0    0 -0.52336937484E+01  0.76166273471E+01  0.21092601209E+02  0.23028295387E+02  0.51100000000E-03 0.  1.
        -12    1    3    3    0    0  0.26822921552E+02 -0.23735641313E+02 -0.16878518971E+02  0.39594623268E+02  0.00000000000E+00 0.  1.
</event>
<event>
 7    1  0.2285268E-015  0.9000767E+02  0.7816164E-02  0.1186339E+00
        -11   -1    0    0    0    0  0.00000000000E+00  0.00000000000E+00  0.45593999997E+02  0.45594000000E+02  0.51100000000E-03 0.  1.
         11   -1    0    0    0    0 -0.00000000000E+00 -0.00000000000E+00 -0.45593999997E+02  0.45594000000E+02  0.51100000000E-03 0. -1.
    9900012    2    1    2    0    0 -0.58006884502E+00  0.44968185898E+00  0.92438930981E+00  0.90007665626E+02  0.89999926012E+02 0.  0.
         12    1    1    2    0    0  0.58006884502E+00 -0.44968185898E+00 -0.92438930981E+00  0.11803343744E+01  0.00000000000E+00 0. -1.
         11    1    3    3    0    0 -0.76156792509E+00 -0.73009917753E+01  0.47010618903E+00  0.73556418277E+01  0.51100000000E-03 0. -1.
        -11    1    3    3    0    0 -0.21889219986E+01 -0.37365410534E+02 -0.11210299958E+01  0.37446254718E+02  0.51100000000E-03 0.  1.
         12    1    3    3    0    0  0.23704210787E+01  0.45116084168E+02  0.15753131166E+01  0.45205769080E+02  0.00000000000E+00 0. -1.
</event>
<event>
 7    1  0.2285268E-015  0.9000774E+02  0.7816164E-02  0.1186339E+00
        -11   -1    0    0    0    0  0.00000000000E+00  0.00000000000E+00  0.45593999997E+02  0.45594000000E+02  0.51100000000E-03 0. -1.
         11   -1    0    0    0    0 -0.00000000000E+00 -0.00000000000E+00 -0.45593999997E+02  0.45594000000E+02  0.51100000000E-03 0.  1.
    9900012    2    1    2    0    0  0.35177255645E+00  0.10186565888E+01 -0.48125917657E+00  0.90007739193E+02  0.90000000550E+02 0.  0.
         12    1    1    2    0    0 -0.35177255645E+00 -0.10186565888E+01  0.48125917657E+00  0.11802608070E+01  0.00000000000E+00 0. -1.
         11    1    3    3    0    0 -0.88881237580E+01 -0.38164436829E+01 -0.48247219604E+01  0.10809344503E+02  0.51100000000E-03 0. -1.
        -11    1    3    3    0    0  0.13417157559E+02  0.38113763448E+02 -0.11633204508E+02  0.42047717280E+02  0.51100000000E-03 0.  1.
         12    1    3    3    0    0 -0.41772612443E+01 -0.33278663176E+02  0.15976667291E+02  0.37150677410E+02  0.00000000000E+00 0. -1.
</event>
<event>
 7    1  0.2285268E-015  0.9000778E+02  0.7816164E-02  0.1186339E+00
        -11   -1    0    0    0    0  0.00000000000E+00  0.00000000000E+00  0.45593999997E+02  0.45594000000E+02  0.51100000000E-03 0. -1.
         11   -1    0    0    0    0 -0.00000000000E+00 -0.00000000000E+00 -0.45593999997E+02  0.45594000000E+02  0.51100000000E-03 0.  1.
    9900012    2    1    2    0    0 -0.88962150470E+00 -0.75320842068E+00 -0.18485560661E+00  0.90007779283E+02  0.90000041169E+02 0.  0.
         12    1    1    2    0    0  0.88962150470E+00  0.75320842068E+00  0.18485560661E+00  0.11802207175E+01  0.00000000000E+00 0. -1.
         11    1    3    3    0    0  0.41139163208E+01  0.30229773833E+02  0.22589500849E+02  0.37961152279E+02  0.51100000000E-03 0. -1.
        -11    1    3    3    0    0 -0.73806016383E+01  0.57880556244E+01 -0.15010262741E+01  0.94988393287E+01  0.51100000000E-03 0.  1.
        -12    1    3    3    0    0  0.23770638129E+01 -0.36771037878E+02 -0.21273330181E+02  0.42547787675E+02  0.00000000000E+00 0.  1.
</event>
<event>
 7    1  0.2306980E-015  0.9000775E+02  0.7816164E-02  0.1186339E+00
        -11   -1    0    0    0    0  0.00000000000E+00  0.00000000000E+00  0.45593999997E+02  0.45594000000E+02  0.51100000000E-03 0.  1.
         11   -1    0    0    0    0 -0.00000000000E+00 -0.00000000000E+00 -0.45593999997E+02  0.45594000000E+02  0.51100000000E-03 0. -1.
    9900012    2    1    2    0    0 -0.31284733470E+00 -0.11377073794E+01 -0.27207620137E-01  0.90007749268E+02  0.90000010758E+02 0.  0.
         12    1    1    2    0    0  0.31284733470E+00  0.11377073794E+01  0.27207620137E-01  0.11802507320E+01  0.00000000000E+00 0. -1.
         11    1    3    3    0    0  0.93045927783E+01 -0.14797909373E+01  0.49591759773E-01  0.94216605539E+01  0.51100000000E-03 0. -1.
        -11    1    3    3    0    0  0.11727086125E+02 -0.15938654837E+01  0.36401825634E+02  0.38277380604E+02  0.51100000000E-03 0.  1.
         12    1    3    3    0    0 -0.21344526238E+02  0.19359490416E+01 -0.36478625014E+02  0.42308708110E+02  0.00000000000E+00 0. -1.
</event>
<event>
 7    1  0.2285268E-015  0.9000775E+02  0.7816164E-02  0.1186339E+00
        -11   -1    0    0    0    0  0.00000000000E+00  0.00000000000E+00  0.45593999997E+02  0.45594000000E+02  0.51100000000E-03 0.  1.
         11   -1    0    0    0    0 -0.00000000000E+00 -0.00000000000E+00 -0.45593999997E+02  0.45594000000E+02  0.51100000000E-03 0. -1.
    9900012    2    1    2    0    0  0.54838864413E+00 -0.83522177619E+00  0.62822148769E+00  0.90007750976E+02  0.90000012489E+02 0.  0.
         12    1    1    2    0    0 -0.54838864413E+00  0.83522177619E+00 -0.62822148769E+00  0.11802490237E+01  0.00000000000E+00 0. -1.
         11    1    3    3    0    0  0.34397235894E+02 -0.23471724355E+02  0.50669061663E+01  0.41949555655E+02  0.51100000000E-03 0. -1.
        -11    1    3    3    0    0 -0.26124155620E+01  0.97887827827E-01 -0.89054113859E+01  0.92811987000E+01  0.51100000000E-03 0.  1.
        -12    1    3    3    0    0 -0.31236431688E+02  0.22538614751E+02  0.44667267073E+01  0.38776996621E+02  0.00000000000E+00 0.  1.
</event>
<event>
 7    1  0.2285268E-015  0.9000776E+02  0.7816164E-02  0.1186339E+00
        -11   -1    0    0    0    0  0.00000000000E+00  0.00000000000E+00  0.45593999997E+02  0.45594000000E+02  0.51100000000E-03 0.  1.
         11   -1    0    0    0    0 -0.00000000000E+00 -0.00000000000E+00 -0.45593999997E+02  0.45594000000E+02  0.51100000000E-03 0. -1.
    9900012    2    1    2    0    0 -0.10733810071E+01  0.11225191952E-01  0.49061368943E+00  0.90007756558E+02  0.90000018144E+02 0.  0.
         12    1    1    2    0    0  0.10733810071E+01 -0.11225191952E-01 -0.49061368943E+00  0.11802434425E+01  0.00000000000E+00 0. -1.
         11    1    3    3    0    0  0.17074485839E+00  0.28454036793E+01 -0.81625036400E+01  0.86459205316E+01  0.51100000000E-03 0. -1.
        -11    1    3    3    0    0 -0.36053964373E+02  0.37389754320E+01  0.23232883072E+02  0.43053863246E+02  0.51100000000E-03 0.  1.
         12    1    3    3    0    0  0.34809838508E+02 -0.65731539194E+01 -0.14579765742E+02  0.38307972780E+02  0.00000000000E+00 0. -1.
</event>
<event>
 7    1  0.2285268E-015  0.9000775E+02  0.7816164E-02  0.1186339E+00
        -11   -1    0    0    0    0  0.00000000000E+00  0.00000000000E+00  0.45593999997E+02  0.45594000000E+02  0.51100000000E-03 0. -1.
         11   -1    0    0    0    0 -0.00000000000E+00 -0.00000000000E+00 -0.45593999997E+02  0.45594000000E+02  0.51100000000E-03 0.  1.
    9900012    2    1    2    0    0  0.94564613570E+00 -0.10631790253E-01 -0.70614237014E+00  0.90007747190E+02  0.90000008653E+02 0.  0.
         12    1    1    2    0    0 -0.94564613570E+00  0.10631790253E-01  0.70614237014E+00  0.11802528101E+01  0.00000000000E+00 0. -1.
         11    1    3    3    0    0  0.18008289523E+01  0.11406071832E+01  0.85938197891E+01  0.88542480477E+01  0.51100000000E-03 0. -1.
        -11    1    3    3    0    0 -0.32744663107E+02  0.23294158278E+02 -0.14389564618E+01  0.40210712103E+02  0.51100000000E-03 0.  1.
         12    1    3    3    0    0  0.31889480290E+02 -0.24445397251E+02 -0.78610056974E+01  0.40942787039E+02  0.00000000000E+00 0. -1.
</event>
<event>
 7    1  0.2285268E-015  0.9000767E+02  0.7816164E-02  0.1186339E+00
        -11   -1    0    0    0    0  0.00000000000E+00  0.00000000000E+00  0.45593999997E+02  0.45594000000E+02  0.51100000000E-03 0.  1.
         11   -1    0    0    0    0 -0.00000000000E+00 -0.00000000000E+00 -0.45593999997E+02  0.45594000000E+02  0.51100000000E-03 0. -1.
    9900012    2    1    2    0    0 -0.88823514082E+00 -0.37649479105E+00  0.68005202906E+00  0.90007669218E+02  0.89999929651E+02 0.  0.
         12    1    1    2    0    0  0.88823514082E+00  0.37649479105E+00 -0.68005202906E+00  0.11803307822E+01  0.00000000000E+00 0. -1.
         11    1    3    3    0    0  0.15998440686E+02  0.37214175047E+02  0.11680493416E+02  0.42157785231E+02  0.51100000000E-03 0. -1.
        -11    1    3    3    0    0 -0.31199384830E+01 -0.45833549137E+01  0.60703961907E+01  0.82213665880E+01  0.51100000000E-03 0.  1.
        -12    1    3    3    0    0 -0.13766737344E+02 -0.33007314925E+02 -0.17070837578E+02  0.39628517399E+02  0.00000000000E+00 0.  1.
</event>
<event>
 7    1  0.2285268E-015  0.9000770E+02  0.7816164E-02  0.1186339E+00
        -11   -1    0    0    0    0  0.00000000000E+00  0.00000000000E+00  0.45593999997E+02  0.45594000000E+02  0.51100000000E-03 0. -1.
         11   -1    0    0    0    0 -0.00000000000E+00 -0.00000000000E+00 -0.45593999997E+02  0.45594000000E+02  0.51100000000E-03 0.  1.
    9900012    2    1    2    0    0 -0.53927913479E+00 -0.51638261012E+00 -0.91413604370E+00  0.90007695933E+02  0.89999956719E+02 0.  0.
         12    1    1    2    0    0  0.53927913479E+00  0.51638261012E+00  0.91413604370E+00  0.11803040675E+01  0.00000000000E+00 0. -1.
         11    1    3    3    0    0 -0.19593810051E+02 -0.11376158928E+02  0.30524773187E+02  0.38014420456E+02  0.51100000000E-03 0. -1.
        -11    1    3    3    0    0 -0.67856166747E+01  0.56554277308E+01  0.23484500234E+01  0.91402228774E+01  0.51100000000E-03 0.  1.
        -12    1    3    3    0    0  0.25840147590E+02  0.52043485873E+01 -0.33787359254E+02  0.42853052599E+02  0.00000000000E+00 0.  1.
</event>
<event>
 7    1  0.2285268E-015  0.9000783E+02  0.7816164E-02  0.1186339E+00
        -11   -1    0    0    0    0  0.00000000000E+00  0.00000000000E+00  0.45593999997E+02  0.45594000000E+02  0.51100000000E-03 0.  1.
         11   -1    0    0    0    0 -0.00000000000E+00 -0.00000000000E+00 -0.45593999997E+02  0.45594000000E+02  0.51100000000E-03 0. -1.
    9900012    2    1    2    0    0 -0.85773642311E+00  0.18864648249E+00  0.78835063845E+00  0.90007832217E+02  0.90000094802E+02 0.  0.
         12    1    1    2    0    0  0.85773642311E+00 -0.18864648249E+00 -0.78835063845E+00  0.11801677830E+01  0.00000000000E+00 0. -1.
         11    1    3    3    0    0  0.13652780745E+02 -0.13038027286E+02  0.15142963351E+02  0.24201196600E+02  0.51100000000E-03 0. -1.
        -11    1    3    3    0    0 -0.22884317058E+02  0.22220370731E+02  0.14052479594E+02  0.34855545120E+02  0.51100000000E-03 0.  1.
         12    1    3    3    0    0  0.83737998901E+01 -0.89936969624E+01 -0.28407092306E+02  0.30951090497E+02  0.00000000000E+00 0. -1.
</event>
<event>
 7    1  0.2285268E-015  0.9000772E+02  0.7816164E-02  0.1186339E+00
        -11   -1    0    0    0    0  0.00000000000E+00  0.00000000000E+00  0.45593999997E+02  0.45594000000E+02  0.51100000000E-03 0.  1.
         11   -1    0    0    0    0 -0.00000000000E+00 -0.00000000000E+00 -0.45593999997E+02  0.45594000000E+02  0.51100000000E-03 0. -1.
    9900012    2    1    2    0    0  0.90751591908E+00 -0.69110151532E-02  0.75460552594E+00  0.90007719353E+02  0.89999980449E+02 0.  0.
         12    1    1    2    0    0 -0.90751591908E+00  0.69110151532E-02 -0.75460552594E+00  0.11802806468E+01  0.00000000000E+00 0. -1.
         11    1    3    3    0    0  0.35077062139E+02 -0.35645996082E+01 -0.19754129606E+02  0.40414506002E+02  0.51100000000E-03 0. -1.
        -11    1    3    3    0    0 -0.14401478571E+01  0.70040810220E+01 -0.43318501062E+01  0.83603888915E+01  0.51100000000E-03 0.  1.
        -12    1    3    3    0    0 -0.32729398363E+02 -0.34463924290E+01  0.24840585238E+02  0.41232824460E+02  0.00000000000E+00 0.  1.
</event>
<event>
 7    1  0.2285268E-015  0.9000768E+02  0.7816164E-02  0.1186339E+00
        -11   -1    0    0    0    0  0.00000000000E+00  0.00000000000E+00  0.45593999997E+02  0.45594000000E+02  0.51100000000E-03 0.  1.
         11   -1    0    0    0    0 -0.00000000000E+00 -0.00000000000E+00 -0.45593999997E+02  0.45594000000E+02  0.51100000000E-03 0. -1.
    9900012    2    1    2    0    0 -0.92121973372E+00 -0.70652837300E+00 -0.21288128927E+00  0.90007683694E+02  0.89999944318E+02 0.  0.
         12    1    1    2    0    0  0.92121973372E+00  0.70652837300E+00  0.21288128927E+00  0.11803163063E+01  0.00000000000E+00 0. -1.
         11    1    3    3    0    0 -0.23404595249E+02  0.10189918195E+02 -0.27032753538E+02  0.37180361425E+02  0.51100000000E-03 0. -1.
        -11    1    3    3    0    0 -0.29692593046E+01  0.79446386480E+01 -0.33215368001E+01  0.91085888611E+01  0.51100000000E-03 0.  1.
        -12    1    3    3    0    0  0.25452634820E+02 -0.18841085216E+02  0.30141409048E+02  0.43718733408E+02  0.00000000000E+00 0.  1.
</event>
<event>
 7    1  0.2285268E-015  0.9000792E+02  0.7816164E-02  0.1186339E+00
        -11   -1    0    0    0    0  0.00000000000E+00  0.00000000000E+00  0.45593999997E+02  0.45594000000E+02  0.51100000000E-03 0.  1.
         11   -1    0    0    0    0 -0.00000000000E+00 -0.00000000000E+00 -0.45593999997E+02  0.45594000000E+02  0.51100000000E-03 0. -1.
    9900012    2    1    2    0    0  0.31711917252E+00  0.11326578238E+01  0.95435215261E-01  0.90007921106E+02  0.90000184865E+02 0.  0.
         12    1    1    2    0    0 -0.31711917252E+00 -0.11326578238E+01 -0.95435215261E-01  0.11800788939E+01  0.00000000000E+00 0. -1.
         11    1    3    3    0    0 -0.10197826453E+02  0.17574443147E+01 -0.13819165592E+01  0.10440017649E+02  0.51100000000E-03 0. -1.
        -11    1    3    3    0    0  0.50326491061E+01 -0.39499210763E+02  0.50918473697E+01  0.40142771675E+02  0.51100000000E-03 0.  1.
         12    1    3    3    0    0  0.54822965192E+01  0.38874424272E+02 -0.36144955952E+01  0.39425131781E+02  0.00000000000E+00 0. -1.
</event>
<event>
 7    1  0.2285268E-015  0.9000783E+02  0.7816164E-02  0.1186339E+00
        -11   -1    0    0    0    0  0.00000000000E+00  0.00000000000E+00  0.45593999997E+02  0.45594000000E+02  0.51100000000E-03 0. -1.
         11   -1    0    0    0    0 -0.00000000000E+00 -0.00000000000E+00 -0.45593999997E+02  0.45594000000E+02  0.51100000000E-03 0.  1.
    9900012    2    1    2    0    0  0.72824774431E+00 -0.48149916595E+00 -0.79410904896E+00  0.90007832467E+02  0.90000095056E+02 0.  0.
         12    1    1    2    0    0 -0.72824774431E+00  0.48149916595E+00  0.79410904896E+00  0.11801675328E+01  0.00000000000E+00 0. -1.
         11    1    3    3    0    0  0.20158540783E+02 -0.29693849182E+02 -0.22206966143E+02  0.42204748445E+02  0.51100000000E-03 0. -1.
        -11    1    3    3    0    0  0.55943860252E+01  0.81522311817E+01  0.33480240607E+01  0.10438644242E+02  0.51100000000E-03 0.  1.
        -12    1    3    3    0    0 -0.25024679064E+02  0.21060118835E+02  0.18064833033E+02  0.37364439780E+02  0.00000000000E+00 0.  1.
</event>
<event>
 7    1  0.2285268E-015  0.9000770E+02  0.7816164E-02  0.1186339E+00
        -11   -1    0    0    0    0  0.00000000000E+00  0.00000000000E+00  0.45593999997E+02  0.45594000000E+02  0.51100000000E-03 0. -1.
         11   -1    0    0    0    0 -0.00000000000E+00 -0.00000000000E+00 -0.45593999997E+02  0.45594000000E+02  0.51100000000E-03 0.  1.
    9900012    2    1    2    0    0 -0.27223009017E+00  0.74354325857E+00 -0.87529924730E+00  0.90007697254E+02  0.89999958058E+02 0.  0.
         12    1    1    2    0    0  0.27223009017E+00 -0.74354325857E+00  0.87529924730E+00  0.11803027458E+01  0.00000000000E+00 0. -1.
         11    1    3    3    0    0 -0.15638238350E+01  0.10294478856E+02  0.79432271048E+00  0.10442834325E+02  0.51100000000E-03 0. -1.
        -11    1    3    3    0    0 -0.16754165643E+02  0.30651888954E+02  0.38920859796E+01  0.35148096625E+02  0.51100000000E-03 0.  1.
         12    1    3    3    0    0  0.18045759388E+02 -0.40202824551E+02 -0.55617079374E+01  0.44416766305E+02  0.00000000000E+00 0. -1.
</event>
<event>
 7    1  0.2285268E-015  0.9000772E+02  0.7816164E-02  0.1186339E+00
        -11   -1    0    0    0    0  0.00000000000E+00  0.00000000000E+00  0.45593999997E+02  0.45594000000E+02  0.51100000000E-03 0. -1.
         11   -1    0    0    0    0 -0.00000000000E+00 -0.00000000000E+00 -0.45593999997E+02  0.45594000000E+02  0.51100000000E-03 0.  1.
    9900012    2    1    2    0    0  0.11431667080E+01 -0.23483008869E+00  0.17634439788E+00  0.90007715018E+02  0.89999976056E+02 0.  0.
         12    1    1    2    0    0 -0.11431667080E+01  0.23483008869E+00 -0.17634439788E+00  0.11802849823E+01  0.00000000000E+00 0. -1.
         11    1    3    3    0    0  0.38749536691E+01  0.33554298278E+01 -0.11074644440E+02  0.12203357120E+02  0.51100000000E-03 0. -1.
        -11    1    3    3    0    0  0.11593948844E+02 -0.49978311074E+01 -0.30837738632E+02  0.33322126130E+02  0.51100000000E-03 0.  1.
         12    1    3    3    0    0 -0.14325735805E+02  0.14075711908E+01  0.42088727470E+02  0.44482231768E+02  0.00000000000E+00 0. -1.
</event>
<event>
 7    1  0.2285268E-015  0.9000743E+02  0.7816164E-02  0.1186340E+00
        -11   -1    0    0    0    0  0.00000000000E+00  0.00000000000E+00  0.45593999997E+02  0.45594000000E+02  0.51100000000E-03 0.  1.
         11   -1    0    0    0    0 -0.00000000000E+00 -0.00000000000E+00 -0.45593999997E+02  0.45594000000E+02  0.51100000000E-03 0. -1.
    9900012    2    1    2    0    0  0.25738945112E+00 -0.11067849758E+01  0.32018472760E+00  0.90007432098E+02  0.89999689401E+02 0.  0.
         12    1    1    2    0    0 -0.25738945112E+00  0.11067849758E+01 -0.32018472760E+00  0.11805679023E+01  0.00000000000E+00 0. -1.
         11    1    3    3    0    0 -0.36546806358E+02  0.94762273667E+01 -0.50367872776E+01  0.38089856477E+02  0.51100000000E-03 0. -1.
        -11    1    3    3    0    0  0.11656835374E+01  0.49667172176E+01 -0.91010825197E+01  0.10433446282E+02  0.51100000000E-03 0.  1.
        -12    1    3    3    0    0  0.35638512272E+02 -0.15549729560E+02  0.14458054525E+02  0.41484129339E+02  0.00000000000E+00 0.  1.
</event>
<event>
 7    1  0.2285268E-015  0.9000772E+02  0.7816164E-02  0.1186339E+00
        -11   -1    0    0    0    0  0.00000000000E+00  0.00000000000E+00  0.45593999997E+02  0.45594000000E+02  0.51100000000E-03 0. -1.
         11   -1    0    0    0    0 -0.00000000000E+00 -0.00000000000E+00 -0.45593999997E+02  0.45594000000E+02  0.51100000000E-03 0.  1.
    9900012    2    1    2    0    0 -0.21170792521E+00  0.11238729687E+01  0.29178755353E+00  0.90007724324E+02  0.89999985485E+02 0.  0.
         12    1    1    2    0    0  0.21170792521E+00 -0.11238729687E+01 -0.29178755353E+00  0.11802756761E+01  0.00000000000E+00 0. -1.
         11    1    3    3    0    0  0.11740806078E+01  0.26708759868E+02  0.31450248710E+02  0.41277772023E+02  0.51100000000E-03 0. -1.
        -11    1    3    3    0    0  0.12109438933E+01 -0.88622282962E+01  0.39329302064E+01  0.97710498799E+01  0.51100000000E-03 0.  1.
        -12    1    3    3    0    0 -0.25967324263E+01 -0.16722658604E+02 -0.35091391363E+02  0.38958902421E+02  0.00000000000E+00 0.  1.
</event>
<event>
 7    1  0.2285268E-015  0.9000776E+02  0.7816164E-02  0.1186339E+00
        -11   -1    0    0    0    0  0.00000000000E+00  0.00000000000E+00  0.45593999997E+02  0.45594000000E+02  0.51100000000E-03 0. -1.
         11   -1    0    0    0    0 -0.00000000000E+00 -0.00000000000E+00 -0.45593999997E+02  0.45594000000E+02  0.51100000000E-03 0.  1.
    9900012    2    1    2    0    0 -0.95991867136E+00 -0.31062166566E+00  0.61239360601E+00  0.90007764598E+02  0.90000026291E+02 0.  0.
         12    1    1    2    0    0  0.95991867136E+00  0.31062166566E+00 -0.61239360601E+00  0.11802354017E+01  0.00000000000E+00 0. -1.
         11    1    3    3    0    0 -0.25420876961E+02  0.24585988992E+02  0.24174034559E+02  0.42837784575E+02  0.51100000000E-03 0. -1.
        -11    1    3    3    0    0  0.17139214187E+01 -0.11469812853E+02  0.26083261841E+00  0.11600093423E+02  0.51100000000E-03 0.  1.
        -12    1    3    3    0    0  0.22747036871E+02 -0.13426797805E+02 -0.23822473571E+02  0.35569886600E+02  0.00000000000E+00 0.  1.
</event>
<event>
 7    1  0.2285268E-015  0.9000779E+02  0.7816164E-02  0.1186339E+00
        -11   -1    0    0    0    0  0.00000000000E+00  0.00000000000E+00  0.45593999997E+02  0.45594000000E+02  0.51100000000E-03 0. -1.
         11   -1    0    0    0    0 -0.00000000000E+00 -0.00000000000E+00 -0.45593999997E+02  0.45594000000E+02  0.51100000000E-03 0.  1.
    9900012    2    1    2    0    0 -0.94094022893E+00 -0.71241093878E+00  0.16662546818E-02  0.90007787885E+02  0.90000049885E+02 0.  0.
         12    1    1    2    0    0  0.94094022893E+00  0.71241093878E+00 -0.16662546818E-02  0.11802121150E+01  0.00000000000E+00 0. -1.
         11    1    3    3    0    0 -0.61172370399E+01  0.50031908077E+01 -0.55781281916E+01  0.96730564789E+01  0.51100000000E-03 0. -1.
        -11    1    3    3    0    0 -0.26164023437E+02  0.99095348883E+01 -0.22135105463E+02  0.35675172014E+02  0.51100000000E-03 0.  1.
         12    1    3    3    0    0  0.31340320248E+02 -0.15625136635E+02  0.27714899909E+02  0.44659559392E+02  0.00000000000E+00 0. -1.
</event>
<event>
 7    1  0.2285268E-015  0.9000783E+02  0.7816164E-02  0.1186339E+00
        -11   -1    0    0    0    0  0.00000000000E+00  0.00000000000E+00  0.45593999997E+02  0.45594000000E+02  0.51100000000E-03 0.  1.
         11   -1    0    0    0    0 -0.00000000000E+00 -0.00000000000E+00 -0.45593999997E+02  0.45594000000E+02  0.51100000000E-03 0. -1.
    9900012    2    1    2    0    0 -0.23994716931E-01  0.11429576510E+01 -0.29302191410E+00  0.90007834850E+02  0.90000097470E+02 0.  0.
         12    1    1    2    0    0  0.23994716931E-01 -0.11429576510E+01  0.29302191410E+00  0.11801651497E+01  0.00000000000E+00 0. -1.
         11    1    3    3    0    0  0.36346816100E+02 -0.25604729468E+01  0.87950819273E+00  0.36447504678E+02  0.51100000000E-03 0. -1.
        -11    1    3    3    0    0  0.80366271997E+01  0.42627622712E+01 -0.97166684407E+00  0.91489155447E+01  0.51100000000E-03 0.  1.
        -12    1    3    3    0    0 -0.44407438017E+02 -0.55933167336E+00 -0.20086326276E+00  0.44411414627E+02  0.00000000000E+00 0.  1.
</event>
<event>
 7    1  0.2285268E-015  0.9000774E+02  0.7816164E-02  0.1186339E+00
        -11   -1    0    0    0    0  0.00000000000E+00  0.00000000000E+00  0.45593999997E+02  0.45594000000E+02  0.51100000000E-03 0.  1.
         11   -1    0    0    0    0 -0.00000000000E+00 -0.00000000000E+00 -0.45593999997E+02  0.45594000000E+02  0.51100000000E-03 0. -1.
    9900012    2    1    2    0    0 -0.95964896304E-02  0.70531441529E+00  0.94628893722E+00  0.90007735932E+02  0.89999997247E+02 0.  0.
         12    1    1    2    0    0  0.95964896304E-02 -0.70531441529E+00 -0.94628893722E+00  0.11802640678E+01  0.00000000000E+00 0. -1.
         11    1    3    3    0    0 -0.10115932251E+02  0.34241156488E+02  0.15618816673E+01  0.35738331768E+02  0.51100000000E-03 0. -1.
        -11    1    3    3    0    0  0.44597778816E+01  0.93589152522E+01  0.31654358247E+01  0.10839690848E+02  0.51100000000E-03 0.  1.
        -12    1    3    3    0    0  0.56465578799E+01 -0.42894757325E+02 -0.37810285548E+01  0.43429713317E+02  0.00000000000E+00 0.  1.
</event>
<event>
 7    1  0.2285268E-015  0.9000791E+02  0.7816164E-02  0.1186339E+00
        -11   -1    0    0    0    0  0.00000000000E+00  0.00000000000E+00  0.45593999997E+02  0.45594000000E+02  0.51100000000E-03 0.  1.
         11   -1    0    0    0    0 -0.00000000000E+00 -0.00000000000E+00 -0.45593999997E+02  0.45594000000E+02  0.51100000000E-03 0. -1.
    9900012    2    1    2    0    0  0.23289798751E+00 -0.81788248588E+00  0.81818989497E+00  0.90007911894E+02  0.90000175531E+02 0.  0.
         12    1    1    2    0    0 -0.23289798751E+00  0.81788248588E+00 -0.81818989497E+00  0.11800881058E+01  0.00000000000E+00 0. -1.
         11    1    3    3    0    0 -0.28946593330E+01  0.74628394727E+01 -0.55135092624E+01  0.97196610176E+01  0.51100000000E-03 0. -1.
        -11    1    3    3    0    0 -0.37428864186E+02 -0.11974169780E+02  0.22981462132E+01  0.39364731581E+02  0.51100000000E-03 0.  1.
         12    1    3    3    0    0  0.40556421506E+02  0.36934478213E+01  0.40335529441E+01  0.40923519296E+02  0.00000000000E+00 0. -1.
</event>
<event>
 7    1  0.2285268E-015  0.9000771E+02  0.7816164E-02  0.1186339E+00
        -11   -1    0    0    0    0  0.00000000000E+00  0.00000000000E+00  0.45593999997E+02  0.45594000000E+02  0.51100000000E-03 0.  1.
         11   -1    0    0    0    0 -0.00000000000E+00 -0.00000000000E+00 -0.45593999997E+02  0.45594000000E+02  0.51100000000E-03 0. -1.
    9900012    2    1    2    0    0  0.88059800020E+00  0.78523418650E+00 -0.32106388062E-01  0.90007713431E+02  0.89999974448E+02 0.  0.
         12    1    1    2    0    0 -0.88059800020E+00 -0.78523418650E+00  0.32106388062E-01  0.11802865693E+01  0.00000000000E+00 0. -1.
         11    1    3    3    0    0 -0.63327319441E+01 -0.10684976536E+01  0.78147735324E+01  0.10115130584E+02  0.51100000000E-03 0. -1.
        -11    1    3    3    0    0 -0.17547212906E+02 -0.70356558689E+01  0.28999937334E+02  0.34617936101E+02  0.51100000000E-03 0.  1.
         12    1    3    3    0    0  0.24760542850E+02  0.88893877089E+01 -0.36846817255E+02  0.45274646745E+02  0.00000000000E+00 0. -1.
</event>
<event>
 7    1  0.2285268E-015  0.9000774E+02  0.7816164E-02  0.1186339E+00
        -11   -1    0    0    0    0  0.00000000000E+00  0.00000000000E+00  0.45593999997E+02  0.45594000000E+02  0.51100000000E-03 0.  1.
         11   -1    0    0    0    0 -0.00000000000E+00 -0.00000000000E+00 -0.45593999997E+02  0.45594000000E+02  0.51100000000E-03 0. -1.
    9900012    2    1    2    0    0 -0.55365747114E+00 -0.10275562695E+01 -0.17491767443E+00  0.90007743810E+02  0.90000005228E+02 0.  0.
         12    1    1    2    0    0  0.55365747114E+00  0.10275562695E+01  0.17491767443E+00  0.11802561904E+01  0.00000000000E+00 0. -1.
         11    1    3    3    0    0  0.27079342571E+01 -0.11417760439E+02 -0.36640498052E+02  0.38473682682E+02  0.51100000000E-03 0. -1.
        -11    1    3    3    0    0 -0.78916939750E+01 -0.76186872783E+01  0.42268969225E+00  0.10977335582E+02  0.51100000000E-03 0.  1.
        -12    1    3    3    0    0  0.46301022468E+01  0.18008891448E+02  0.36042890685E+02  0.40556725545E+02  0.00000000000E+00 0.  1.
</event>
<event>
 7    1  0.2285268E-015  0.9000774E+02  0.7816164E-02  0.1186339E+00
        -11   -1    0    0    0    0  0.00000000000E+00  0.00000000000E+00  0.45593999997E+02  0.45594000000E+02  0.51100000000E-03 0. -1.
         11   -1    0    0    0    0 -0.00000000000E+00 -0.00000000000E+00 -0.45593999997E+02  0.45594000000E+02  0.51100000000E-03 0.  1.
    9900012    2    1    2    0    0  0.35883405741E+00  0.57701072203E+00 -0.96504410751E+00  0.90007740120E+02  0.90000001490E+02 0.  0.
         12    1    1    2    0    0 -0.35883405741E+00 -0.57701072203E+00  0.96504410751E+00  0.11802598797E+01  0.00000000000E+00 0. -1.
         11    1    3    3    0    0 -0.31952261698E+01  0.81758086523E+01 -0.33871679342E+00  0.87845345194E+01  0.51100000000E-03 0. -1.
        -11    1    3    3    0    0 -0.18218505443E+02  0.27476237734E+02 -0.16657239631E+02  0.36936719034E+02  0.51100000000E-03 0.  1.
         12    1    3    3    0    0  0.21772565670E+02 -0.35075035665E+02  0.16030912317E+02  0.44286486567E+02  0.00000000000E+00 0. -1.
</event>
<event>
 7    1  0.2285268E-015  0.9000774E+02  0.7816164E-02  0.1186339E+00
        -11   -1    0    0    0    0  0.00000000000E+00  0.00000000000E+00  0.45593999997E+02  0.45594000000E+02  0.51100000000E-03 0.  1.
         11   -1    0    0    0    0 -0.00000000000E+00 -0.00000000000E+00 -0.45593999997E+02  0.45594000000E+02  0.51100000000E-03 0. -1.
    9900012    2    1    2    0    0 -0.11329658656E+01 -0.14089364348E+00  0.29923636729E+00  0.90007743640E+02  0.90000005056E+02 0.  0.
         12    1    1    2    0    0  0.11329658656E+01  0.14089364348E+00 -0.29923636729E+00  0.11802563598E+01  0.00000000000E+00 0. -1.
         11    1    3    3    0    0  0.62584883722E+01 -0.30987332755E+01  0.76242515949E+01  0.10339247422E+02  0.51100000000E-03 0. -1.
        -11    1    3    3    0    0 -0.26327906734E+02 -0.30727907290E+02 -0.76102899647E+00  0.40471497684E+02  0.51100000000E-03 0.  1.
         12    1    3    3    0    0  0.18936452496E+02  0.33685746922E+02 -0.65639862312E+01  0.39196998534E+02  0.00000000000E+00 0. -1.
</event>
<event>
 7    1  0.2285268E-015  0.9000744E+02  0.7816164E-02  0.1186340E+00
        -11   -1    0    0    0    0  0.00000000000E+00  0.00000000000E+00  0.45593999997E+02  0.45594000000E+02  0.51100000000E-03 0. -1.
         11   -1    0    0    0    0 -0.00000000000E+00 -0.00000000000E+00 -0.45593999997E+02  0.45594000000E+02  0.51100000000E-03 0.  1.
    9900012    2    1    2    0    0  0.48600215452E+00  0.90090865581E+00  0.58812534992E+00  0.90007438300E+02  0.89999695685E+02 0.  0.
         12    1    1    2    0    0 -0.48600215452E+00 -0.90090865581E+00 -0.58812534992E+00  0.11805617000E+01  0.00000000000E+00 0. -1.
         11    1    3    3    0    0  0.39389450119E+01 -0.82488598959E+01 -0.52086510657E+01  0.10520885114E+02  0.51100000000E-03 0. -1.
        -11    1    3    3    0    0 -0.28468925314E+02 -0.22924836839E+02  0.11711793580E+02  0.38382208923E+02  0.51100000000E-03 0.  1.
         12    1    3    3    0    0  0.25015982457E+02  0.32074605391E+02 -0.59150171638E+01  0.41104344264E+02  0.00000000000E+00 0. -1.
</event>
<event>
 7    1  0.2285268E-015  0.9000781E+02  0.7816164E-02  0.1186339E+00
        -11   -1    0    0    0    0  0.00000000000E+00  0.00000000000E+00  0.45593999997E+02  0.45594000000E+02  0.51100000000E-03 0. -1.
         11   -1    0    0    0    0 -0.00000000000E+00 -0.00000000000E+00 -0.45593999997E+02  0.45594000000E+02  0.51100000000E-03 0.  1.
    9900012    2    1    2    0    0  0.14317889713E+00  0.38958259689E+00 -0.11047964872E+01  0.90007809306E+02  0.90000071589E+02 0.  0.
         12    1    1    2    0    0 -0.14317889713E+00 -0.38958259689E+00  0.11047964872E+01  0.11801906941E+01  0.00000000000E+00 0. -1.
         11    1    3    3    0    0  0.83406387842E+01  0.49220337447E+01  0.57435934219E+01  0.11259730777E+02  0.51100000000E-03 0. -1.
        -11    1    3    3    0    0  0.15813498507E+02  0.19477656491E+02 -0.28891669290E+02  0.38264531776E+02  0.51100000000E-03 0.  1.
         12    1    3    3    0    0 -0.24010958394E+02 -0.24010107639E+02  0.22043279380E+02  0.40483546753E+02  0.00000000000E+00 0. -1.
</event>
<event>
 7    1  0.2285268E-015  0.9000773E+02  0.7816164E-02  0.1186339E+00
        -11   -1    0    0    0    0  0.00000000000E+00  0.00000000000E+00  0.45593999997E+02  0.45594000000E+02  0.51100000000E-03 0.  1.
         11   -1    0    0    0    0 -0.00000000000E+00 -0.00000000000E+00 -0.45593999997E+02  0.45594000000E+02  0.51100000000E-03 0. -1.
    9900012    2    1    2    0    0  0.38514812451E+00  0.83414805544E+00  0.74087489922E+00  0.90007729831E+02  0.89999991064E+02 0.  0.
         12    1    1    2    0    0 -0.38514812451E+00 -0.83414805544E+00 -0.74087489922E+00  0.11802701693E+01  0.00000000000E+00 0. -1.
         11    1    3    3    0    0 -0.67048184994E+01 -0.44301400574E+01  0.33210460780E+01  0.86954056462E+01  0.51100000000E-03 0. -1.
        -11    1    3    3    0    0 -0.16868579675E+01 -0.78219684015E+01  0.37448572935E+02  0.38293919812E+02  0.51100000000E-03 0.  1.
         12    1    3    3    0    0  0.87768245914E+01  0.13086256514E+02 -0.40028744113E+02  0.43018404372E+02  0.00000000000E+00 0. -1.
</event>
<event>
 7    1  0.2285268E-015  0.9000775E+02  0.7816164E-02  0.1186339E+00
        -11   -1    0    0    0    0  0.00000000000E+00  0.00000000000E+00  0.45593999997E+02  0.45594000000E+02  0.51100000000E-03 0.  1.
         11   -1    0    0    0    0 -0.00000000000E+00 -0.00000000000E+00 -0.45593999997E+02  0.45594000000E+02  0.51100000000E-03 0. -1.
    9900012    2    1    2    0    0  0.49173131247E+00 -0.91123015585E+00  0.56644131518E+00  0.90007747551E+02  0.90000009018E+02 0.  0.
         12    1    1    2    0    0 -0.49173131247E+00  0.91123015585E+00 -0.56644131518E+00  0.11802524493E+01  0.00000000000E+00 0. -1.
         11    1    3    3    0    0 -0.23481646481E+02  0.57824187617E+01 -0.28471407139E+02  0.37355657040E+02  0.51100000000E-03 0. -1.
        -11    1    3    3    0    0 -0.75715457286E+01 -0.45596403296E+01 -0.11801767341E+01  0.89169188648E+01  0.51100000000E-03 0.  1.
        -12    1    3    3    0    0  0.31544923522E+02 -0.21340085879E+01  0.30218025188E+02  0.43735171646E+02  0.00000000000E+00 0.  1.
</event>
<event>
 7    1  0.2285268E-015  0.9000774E+02  0.7816164E-02  0.1186339E+00
        -11   -1    0    0    0    0  0.00000000000E+00  0.00000000000E+00  0.45593999997E+02  0.45594000000E+02  0.51100000000E-03 0. -1.
         11   -1    0    0    0    0 -0.00000000000E+00 -0.00000000000E+00 -0.45593999997E+02  0.45594000000E+02  0.51100000000E-03 0.  1.
    9900012    2    1    2    0    0  0.25893941690E+00  0.11282502731E+01 -0.23023626110E+00  0.90007742809E+02  0.90000004214E+02 0.  0.
         12    1    1    2    0    0 -0.25893941690E+00 -0.11282502731E+01  0.23023626110E+00  0.11802571907E+01  0.00000000000E+00 0. -1.
         11    1    3    3    0    0 -0.70099356921E+01  0.34971903005E+01  0.13306552780E+02  0.15441304529E+02  0.51100000000E-03 0. -1.
        -11    1    3    3    0    0 -0.21900814837E+02 -0.26282219291E+02 -0.13686422139E+02  0.36847237245E+02  0.51100000000E-03 0.  1.
         12    1    3    3    0    0  0.29169689945E+02  0.23913279264E+02  0.14963309817E+00  0.37719201035E+02  0.00000000000E+00 0. -1.
</event>
<event>
 7    1  0.2285268E-015  0.9000780E+02  0.7816164E-02  0.1186339E+00
        -11   -1    0    0    0    0  0.00000000000E+00  0.00000000000E+00  0.45593999997E+02  0.45594000000E+02  0.51100000000E-03 0. -1.
         11   -1    0    0    0    0 -0.00000000000E+00 -0.00000000000E+00 -0.45593999997E+02  0.45594000000E+02  0.51100000000E-03 0.  1.
    9900012    2    1    2    0    0 -0.10636880710E+01  0.45945553154E+00 -0.22436119356E+00  0.90007801015E+02  0.90000063189E+02 0.  0.
         12    1    1    2    0    0  0.10636880710E+01 -0.45945553154E+00  0.22436119356E+00  0.11801989845E+01  0.00000000000E+00 0. -1.
         11    1    3    3    0    0 -0.53050646005E+01 -0.33844201871E+01  0.50427282222E+01  0.80639393972E+01  0.51100000000E-03 0. -1.
        -11    1    3    3    0    0 -0.35734580904E+02  0.16960422965E+02 -0.10340386597E+00  0.39555365150E+02  0.51100000000E-03 0.  1.
         12    1    3    3    0    0  0.39975957433E+02 -0.13116547247E+02 -0.51636855498E+01  0.42388496468E+02  0.00000000000E+00 0. -1.
</event>
<event>
 7    1  0.2285268E-015  0.9000775E+02  0.7816164E-02  0.1186339E+00
        -11   -1    0    0    0    0  0.00000000000E+00  0.00000000000E+00  0.45593999997E+02  0.45594000000E+02  0.51100000000E-03 0. -1.
         11   -1    0    0    0    0 -0.00000000000E+00 -0.00000000000E+00 -0.45593999997E+02  0.45594000000E+02  0.51100000000E-03 0.  1.
    9900012    2    1    2    0    0 -0.77959375307E+00 -0.34415254216E+00 -0.81657130152E+00  0.90007747450E+02  0.90000008916E+02 0.  0.
         12    1    1    2    0    0  0.77959375307E+00  0.34415254216E+00  0.81657130152E+00  0.11802525503E+01  0.00000000000E+00 0. -1.
         11    1    3    3    0    0  0.30815415309E+01 -0.83307305842E+01 -0.40075004652E+00  0.88914324568E+01  0.51100000000E-03 0. -1.
        -11    1    3    3    0    0 -0.49612428678E+01 -0.27901946456E+02 -0.24845121380E+02  0.37688361645E+02  0.51100000000E-03 0.  1.
         12    1    3    3    0    0  0.11001075838E+01  0.35888524498E+02  0.24429300125E+02  0.43427953348E+02  0.00000000000E+00 0. -1.
</event>
<event>
 7    1  0.2324398E-015  0.9000752E+02  0.7816164E-02  0.1186339E+00
        -11   -1    0    0    0    0  0.00000000000E+00  0.00000000000E+00  0.45593999997E+02  0.45594000000E+02  0.51100000000E-03 0.  1.
         11   -1    0    0    0    0 -0.00000000000E+00 -0.00000000000E+00 -0.45593999997E+02  0.45594000000E+02  0.51100000000E-03 0. -1.
    9900012    2    1    2    0    0  0.38881892279E+00  0.11020577176E+01  0.16682378043E+00  0.90007516395E+02  0.89999774811E+02 0.  0.
         12    1    1    2    0    0 -0.38881892279E+00 -0.11020577176E+01 -0.16682378043E+00  0.11804836049E+01  0.00000000000E+00 0. -1.
         11    1    3    3    0    0  0.81027227807E+01 -0.46767571759E+01 -0.10769783034E+01  0.94173274696E+01  0.51100000000E-03 0. -1.
        -11    1    3    3    0    0  0.83294792381E+01 -0.10414976393E+02  0.36357442723E+02  0.38726161690E+02  0.51100000000E-03 0.  1.
         12    1    3    3    0    0 -0.16043383096E+02  0.16193791286E+02 -0.35113640639E+02  0.41864027235E+02  0.00000000000E+00 0. -1.
</event>
<event>
 7    1  0.2285268E-015  0.9000776E+02  0.7816164E-02  0.1186339E+00
        -11   -1    0    0    0    0  0.00000000000E+00  0.00000000000E+00  0.45593999997E+02  0.45594000000E+02  0.51100000000E-03 0. -1.
         11   -1    0    0    0    0 -0.00000000000E+00 -0.00000000000E+00 -0.45593999997E+02  0.45594000000E+02  0.51100000000E-03 0.  1.
    9900012    2    1    2    0    0 -0.88396477197E+00  0.77711154929E+00 -0.87563069014E-01  0.90007761308E+02  0.90000022958E+02 0.  0.
         12    1    1    2    0    0  0.88396477197E+00 -0.77711154929E+00  0.87563069014E-01  0.11802386916E+01  0.00000000000E+00 0. -1.
         11    1    3    3    0    0 -0.26866624981E+02 -0.13743834657E+02  0.20202346269E+02  0.36315882531E+02  0.51100000000E-03 0. -1.
        -11    1    3    3    0    0 -0.66533417924E+01 -0.77144799737E+01 -0.49524634403E+01  0.11327270309E+02  0.51100000000E-03 0.  1.
        -12    1    3    3    0    0  0.32636002001E+02  0.22235426180E+02 -0.15337445898E+02  0.42364608469E+02  0.00000000000E+00 0.  1.
</event>
<event>
 7    1  0.2285268E-015  0.9000775E+02  0.7816164E-02  0.1186339E+00
        -11   -1    0    0    0    0  0.00000000000E+00  0.00000000000E+00  0.45593999997E+02  0.45594000000E+02  0.51100000000E-03 0.  1.
         11   -1    0    0    0    0 -0.00000000000E+00 -0.00000000000E+00 -0.45593999997E+02  0.45594000000E+02  0.51100000000E-03 0. -1.
    9900012    2    1    2    0    0  0.71836428198E+00  0.93583287762E+00 -0.34075923111E-01  0.90007749355E+02  0.90000010846E+02 0.  0.
         12    1    1    2    0    0 -0.71836428198E+00 -0.93583287762E+00  0.34075923111E-01  0.11802506450E+01  0.00000000000E+00 0. -1.
         11    1    3    3    0    0  0.31386271544E+02 -0.23557898785E+02  0.54157320291E+01  0.39615688689E+02  0.51100000000E-03 0. -1.
        -11    1    3    3    0    0  0.41256383020E+01  0.80703541876E+01  0.52273689605E+01  0.10463120692E+02  0.51100000000E-03 0.  1.
        -12    1    3    3    0    0 -0.34793545564E+02  0.16423377475E+02 -0.10677176913E+02  0.39928939974E+02  0.00000000000E+00 0.  1.
</event>
<event>
 7    1  0.2285268E-015  0.9000778E+02  0.7816164E-02  0.1186339E+00
        -11   -1    0    0    0    0  0.00000000000E+00  0.00000000000E+00  0.45593999997E+02  0.45594000000E+02  0.51100000000E-03 0.  1.
         11   -1    0    0    0    0 -0.00000000000E+00 -0.00000000000E+00 -0.45593999997E+02  0.45594000000E+02  0.51100000000E-03 0. -1.
    9900012    2    1    2    0    0 -0.19968780612E+00 -0.73783993060E+00  0.89923823306E+00  0.90007782909E+02  0.90000044843E+02 0.  0.
         12    1    1    2    0    0  0.19968780612E+00  0.73783993060E+00 -0.89923823306E+00  0.11802170914E+01  0.00000000000E+00 0. -1.
         11    1    3    3    0    0  0.46923825479E+01 -0.11080969309E+02  0.11207478264E-01  0.12033555613E+02  0.51100000000E-03 0. -1.
        -11    1    3    3    0    0  0.20247439869E+01 -0.33304223005E+02  0.43439208061E+01  0.33647295677E+02  0.51100000000E-03 0.  1.
         12    1    3    3    0    0 -0.69168143409E+01  0.43647352383E+02 -0.34558900513E+01  0.44326931619E+02  0.00000000000E+00 0. -1.
</event>
<event>
 7    1  0.2285268E-015  0.9000778E+02  0.7816164E-02  0.1186339E+00
        -11   -1    0    0    0    0  0.00000000000E+00  0.00000000000E+00  0.45593999997E+02  0.45594000000E+02  0.51100000000E-03 0. -1.
         11   -1    0    0    0    0 -0.00000000000E+00 -0.00000000000E+00 -0.45593999997E+02  0.45594000000E+02  0.51100000000E-03 0.  1.
    9900012    2    1    2    0    0  0.35896044328E+00  0.91335198190E+00 -0.65563436289E+00  0.90007779317E+02  0.90000041204E+02 0.  0.
         12    1    1    2    0    0 -0.35896044328E+00 -0.91335198190E+00  0.65563436289E+00  0.11802206830E+01  0.00000000000E+00 0. -1.
         11    1    3    3    0    0 -0.15148915553E+02 -0.32882637748E+02  0.43981457287E+01  0.36470552420E+02  0.51100000000E-03 0. -1.
        -11    1    3    3    0    0 -0.24348079701E+01 -0.24833040911E+01  0.98194710894E+01  0.10417154208E+02  0.51100000000E-03 0.  1.
        -12    1    3    3    0    0  0.17942683966E+02  0.36279293821E+02 -0.14873251181E+02  0.43120072689E+02  0.00000000000E+00 0.  1.
</event>
<event>
 7    1  0.2285268E-015  0.9000794E+02  0.7816164E-02  0.1186339E+00
        -11   -1    0    0    0    0  0.00000000000E+00  0.00000000000E+00  0.45593999997E+02  0.45594000000E+02  0.51100000000E-03 0. -1.
         11   -1    0    0    0    0 -0.00000000000E+00 -0.00000000000E+00 -0.45593999997E+02  0.45594000000E+02  0.51100000000E-03 0.  1.
    9900012    2    1    2    0    0  0.68662850094E+00  0.76562691401E+00 -0.57870568185E+00  0.90007939181E+02  0.90000203178E+02 0.  0.
         12    1    1    2    0    0 -0.68662850094E+00 -0.76562691401E+00  0.57870568185E+00  0.11800608188E+01  0.00000000000E+00 0. -1.
         11    1    3    3    0    0 -0.68748065007E+01 -0.27204300548E+02  0.22779914485E+02  0.36142238958E+02  0.51100000000E-03 0. -1.
        -11    1    3    3    0    0 -0.16236315965E+01 -0.45646672781E+01  0.69434099807E+01  0.84665996328E+01  0.51100000000E-03 0.  1.
        -12    1    3    3    0    0  0.91850665982E+01  0.32534594740E+02 -0.30302030147E+02  0.45399100590E+02  0.00000000000E+00 0.  1.
</event>
<event>
 7    1  0.2285268E-015  0.9000775E+02  0.7816164E-02  0.1186339E+00
        -11   -1    0    0    0    0  0.00000000000E+00  0.00000000000E+00  0.45593999997E+02  0.45594000000E+02  0.51100000000E-03 0. -1.
         11   -1    0    0    0    0 -0.00000000000E+00 -0.00000000000E+00 -0.45593999997E+02  0.45594000000E+02  0.51100000000E-03 0.  1.
    9900012    2    1    2    0    0 -0.60464302634E+00 -0.97251817762E+00  0.28567499202E+00  0.90007747910E+02  0.90000009382E+02 0.  0.
         12    1    1    2    0    0  0.60464302634E+00  0.97251817762E+00 -0.28567499202E+00  0.11802520901E+01  0.00000000000E+00 0. -1.
         11    1    3    3    0    0  0.14707807173E+02  0.24872599341E+02  0.22842321677E+02  0.36833917110E+02  0.51100000000E-03 0. -1.
        -11    1    3    3    0    0  0.95845053277E+01  0.30052270951E+01 -0.46760513580E+01  0.11079692633E+02  0.51100000000E-03 0.  1.
        -12    1    3    3    0    0 -0.24896955527E+02 -0.28850344613E+02 -0.17880595327E+02  0.42094138167E+02  0.00000000000E+00 0.  1.
</event>
<event>
 7    1  0.2285268E-015  0.9000786E+02  0.7816164E-02  0.1186339E+00
        -11   -1    0    0    0    0  0.00000000000E+00  0.00000000000E+00  0.45593999997E+02  0.45594000000E+02  0.51100000000E-03 0. -1.
         11   -1    0    0    0    0 -0.00000000000E+00 -0.00000000000E+00 -0.45593999997E+02  0.45594000000E+02  0.51100000000E-03 0.  1.
    9900012    2    1    2    0    0  0.54594561534E+00 -0.72980976821E+00 -0.74969339772E+00  0.90007864794E+02  0.90000127810E+02 0.  0.
         12    1    1    2    0    0 -0.54594561534E+00  0.72980976821E+00  0.74969339772E+00  0.11801352055E+01  0.00000000000E+00 0. -1.
         11    1    3    3    0    0  0.41113141070E+02  0.90754290424E+01  0.11179773400E+02  0.43561922760E+02  0.51100000000E-03 0. -1.
        -11    1    3    3    0    0  0.15216761811E+01 -0.59974292498E+00 -0.12491993549E+01  0.20580790231E+01  0.51100000000E-03 0.  1.
        -12    1    3    3    0    0 -0.42088871636E+02 -0.92054958857E+01 -0.10680267443E+02  0.44387863012E+02  0.00000000000E+00 0.  1.
</event>
<event>
 7    1  0.2285268E-015  0.9000770E+02  0.7816164E-02  0.1186339E+00
        -11   -1    0    0    0    0  0.00000000000E+00  0.00000000000E+00  0.45593999997E+02  0.45594000000E+02  0.51100000000E-03 0.  1.
         11   -1    0    0    0    0 -0.00000000000E+00 -0.00000000000E+00 -0.45593999997E+02  0.45594000000E+02  0.51100000000E-03 0. -1.
    9900012    2    1    2    0    0 -0.16798650379E+00 -0.10553227605E+01  0.50117204647E+00  0.90007703845E+02  0.89999964735E+02 0.  0.
         12    1    1    2    0    0  0.16798650379E+00  0.10553227605E+01 -0.50117204647E+00  0.11802961554E+01  0.00000000000E+00 0. -1.
         11    1    3    3    0    0 -0.27080052643E+02 -0.73835694800E+01  0.21900244075E+02  0.35601503342E+02  0.51100000000E-03 0. -1.
        -11    1    3    3    0    0 -0.71023367213E+01 -0.43055719899E+01  0.53210706564E+01  0.98638192529E+01  0.51100000000E-03 0.  1.
        -12    1    3    3    0    0  0.34014402860E+02  0.10633818709E+02 -0.26720142685E+02  0.44542381250E+02  0.00000000000E+00 0.  1.
</event>
<event>
 7    1  0.2285268E-015  0.9000776E+02  0.7816164E-02  0.1186339E+00
        -11   -1    0    0    0    0  0.00000000000E+00  0.00000000000E+00  0.45593999997E+02  0.45594000000E+02  0.51100000000E-03 0.  1.
         11   -1    0    0    0    0 -0.00000000000E+00 -0.00000000000E+00 -0.45593999997E+02  0.45594000000E+02  0.51100000000E-03 0. -1.
    9900012    2    1    2    0    0 -0.81821168776E+00  0.45913916794E+00  0.71602939741E+00  0.90007755432E+02  0.90000017004E+02 0.  0.
         12    1    1    2    0    0  0.81821168776E+00 -0.45913916794E+00 -0.71602939741E+00  0.11802445677E+01  0.00000000000E+00 0. -1.
         11    1    3    3    0    0  0.23122811449E+02 -0.21831842196E+02 -0.17329166105E+02  0.36215932145E+02  0.51100000000E-03 0. -1.
        -11    1    3    3    0    0  0.42725183195E+01 -0.77591290499E+01  0.64989257728E+01  0.10986106356E+02  0.51100000000E-03 0.  1.
        -12    1    3    3    0    0 -0.28213541456E+02  0.30050110414E+02  0.11546269729E+02  0.42805716932E+02  0.00000000000E+00 0.  1.
</event>
<event>
 7    1  0.2285268E-015  0.9000760E+02  0.7816164E-02  0.1186339E+00
        -11   -1    0    0    0    0  0.00000000000E+00  0.00000000000E+00  0.45593999997E+02  0.45594000000E+02  0.51100000000E-03 0.  1.
         11   -1    0    0    0    0 -0.00000000000E+00 -0.00000000000E+00 -0.45593999997E+02  0.45594000000E+02  0.51100000000E-03 0. -1.
    9900012    2    1    2    0    0 -0.67589814501E+00 -0.86922264259E+00 -0.42540345159E+00  0.90007595662E+02  0.89999855125E+02 0.  0.
         12    1    1    2    0    0  0.67589814501E+00  0.86922264259E+00  0.42540345159E+00  0.11804043381E+01  0.00000000000E+00 0. -1.
         11    1    3    3    0    0 -0.17249697551E+02 -0.18753162790E+02 -0.17381315474E+02  0.30843853652E+02  0.51100000000E-03 0. -1.
        -11    1    3    3    0    0  0.17660639486E+02 -0.15026138031E+02  0.29278368769E+01  0.23372103889E+02  0.51100000000E-03 0.  1.
        -12    1    3    3    0    0 -0.10868400793E+01  0.32910078178E+02  0.14028075145E+02  0.35791638121E+02  0.00000000000E+00 0.  1.
</event>
<event>
 7    1  0.2285268E-015  0.9000773E+02  0.7816164E-02  0.1186339E+00
        -11   -1    0    0    0    0  0.00000000000E+00  0.00000000000E+00  0.45593999997E+02  0.45594000000E+02  0.51100000000E-03 0. -1.
         11   -1    0    0    0    0 -0.00000000000E+00 -0.00000000000E+00 -0.45593999997E+02  0.45594000000E+02  0.51100000000E-03 0.  1.
    9900012    2    1    2    0    0 -0.68506333052E+00  0.48680875998E+00 -0.82869753399E+00  0.90007731328E+02  0.89999992581E+02 0.  0.
         12    1    1    2    0    0  0.68506333052E+00 -0.48680875998E+00  0.82869753399E+00  0.11802686721E+01  0.00000000000E+00 0. -1.
         11    1    3    3    0    0  0.22249754268E+00 -0.73905223879E+01  0.54385698109E+01  0.91786365094E+01  0.51100000000E-03 0. -1.
        -11    1    3    3    0    0  0.22309479817E+02  0.23102559934E+02  0.23747570192E+02  0.39942311595E+02  0.51100000000E-03 0.  1.
         12    1    3    3    0    0 -0.23217040690E+02 -0.15225228786E+02 -0.30014837537E+02  0.40886783224E+02  0.00000000000E+00 0. -1.
</event>
<event>
 7    1  0.2285268E-015  0.9000788E+02  0.7816164E-02  0.1186339E+00
        -11   -1    0    0    0    0  0.00000000000E+00  0.00000000000E+00  0.45593999997E+02  0.45594000000E+02  0.51100000000E-03 0. -1.
         11   -1    0    0    0    0 -0.00000000000E+00 -0.00000000000E+00 -0.45593999997E+02  0.45594000000E+02  0.51100000000E-03 0.  1.
    9900012    2    1    2    0    0  0.11140308764E+01 -0.38886986413E+00  0.20252660521E-01  0.90007875119E+02  0.90000138270E+02 0.  0.
         12    1    1    2    0    0 -0.11140308764E+01  0.38886986413E+00 -0.20252660521E-01  0.11801248811E+01  0.00000000000E+00 0. -1.
         11    1    3    3    0    0 -0.67907490039E+00  0.88692902889E+01 -0.40308567306E+01  0.97659233661E+01  0.51100000000E-03 0. -1.
        -11    1    3    3    0    0  0.34843253329E+02  0.12683714754E+02 -0.95751136411E+01  0.38296366982E+02  0.51100000000E-03 0.  1.
         12    1    3    3    0    0 -0.33050147552E+02 -0.21941874907E+02  0.13626223032E+02  0.41945584771E+02  0.00000000000E+00 0. -1.
</event>
<event>
 7    1  0.2285268E-015  0.9000773E+02  0.7816164E-02  0.1186339E+00
        -11   -1    0    0    0    0  0.00000000000E+00  0.00000000000E+00  0.45593999997E+02  0.45594000000E+02  0.51100000000E-03 0.  1.
         11   -1    0    0    0    0 -0.00000000000E+00 -0.00000000000E+00 -0.45593999997E+02  0.45594000000E+02  0.51100000000E-03 0. -1.
    9900012    2    1    2    0    0 -0.70795496588E+00 -0.70276563602E+00  0.63084411850E+00  0.90007727119E+02  0.89999988316E+02 0.  0.
         12    1    1    2    0    0  0.70795496588E+00  0.70276563602E+00 -0.63084411850E+00  0.11802728815E+01  0.00000000000E+00 0. -1.
         11    1    3    3    0    0 -0.46100999963E+01 -0.33391817974E+01 -0.49724409738E+01  0.75583282908E+01  0.51100000000E-03 0. -1.
        -11    1    3    3    0    0  0.23469339982E+02 -0.19400398175E+02  0.31067699619E+02  0.43501578458E+02  0.51100000000E-03 0.  1.
         12    1    3    3    0    0 -0.19567194951E+02  0.22036814336E+02 -0.25464414526E+02  0.38947820369E+02  0.00000000000E+00 0. -1.
</event>
<event>
 7    1  0.2285268E-015  0.9000772E+02  0.7816164E-02  0.1186339E+00
        -11   -1    0    0    0    0  0.00000000000E+00  0.00000000000E+00  0.45593999997E+02  0.45594000000E+02  0.51100000000E-03 0.  1.
         11   -1    0    0    0    0 -0.00000000000E+00 -0.00000000000E+00 -0.45593999997E+02  0.45594000000E+02  0.51100000000E-03 0. -1.
    9900012    2    1    2    0    0  0.47662631890E+00  0.73333297973E+00  0.79253644856E+00  0.90007718708E+02  0.89999979794E+02 0.  0.
         12    1    1    2    0    0 -0.47662631890E+00 -0.73333297973E+00 -0.79253644856E+00  0.11802812925E+01  0.00000000000E+00 0. -1.
         11    1    3    3    0    0 -0.42608120740E+01 -0.72099735120E+01  0.15019291363E+01  0.85084680739E+01  0.51100000000E-03 0. -1.
        -11    1    3    3    0    0 -0.20277201679E+02 -0.28917138029E+02  0.77447403012E+01  0.36157250757E+02  0.51100000000E-03 0.  1.
         12    1    3    3    0    0  0.25014640072E+02  0.36860444521E+02 -0.84541329889E+01  0.45341999876E+02  0.00000000000E+00 0. -1.
</event>
<event>
 7    1  0.2668159E-015  0.9000776E+02  0.7816164E-02  0.1186339E+00
        -11   -1    0    0    0    0  0.00000000000E+00  0.00000000000E+00  0.45593999997E+02  0.45594000000E+02  0.51100000000E-03 0. -1.
         11   -1    0    0    0    0 -0.00000000000E+00 -0.00000000000E+00 -0.45593999997E+02  0.45594000000E+02  0.51100000000E-03 0.  1.
    9900012    2    1    2    0    0 -0.72871241565E+00  0.42297743813E+00  0.82646624109E+00  0.90007755048E+02  0.90000016615E+02 0.  0.
         12    1    1    2    0    0  0.72871241565E+00 -0.42297743813E+00 -0.82646624109E+00  0.11802449515E+01  0.00000000000E+00 0. -1.
         11    1    3    3    0    0 -0.20806464404E+01 -0.58934738050E+01  0.70886841415E+01  0.94504796820E+01  0.51100000000E-03 0. -1.
        -11    1    3    3    0    0  0.27724597181E+02 -0.19332020045E+02  0.16171485780E+02  0.37468616741E+02  0.51100000000E-03 0.  1.
         12    1    3    3    0    0 -0.26372663156E+02  0.25648471288E+02 -0.22433703680E+02  0.43088658626E+02  0.00000000000E+00 0. -1.
</event>
<event>
 7    1  0.2285268E-015  0.9000781E+02  0.7816164E-02  0.1186339E+00
        -11   -1    0    0    0    0  0.00000000000E+00  0.00000000000E+00  0.45593999997E+02  0.45594000000E+02  0.51100000000E-03 0.  1.
         11   -1    0    0    0    0 -0.00000000000E+00 -0.00000000000E+00 -0.45593999997E+02  0.45594000000E+02  0.51100000000E-03 0. -1.
    9900012    2    1    2    0    0 -0.44468807412E-01 -0.11729577241E+01  0.12264287412E+00  0.90007809942E+02  0.90000072234E+02 0.  0.
         12    1    1    2    0    0  0.44468807412E-01  0.11729577241E+01 -0.12264287412E+00  0.11801900576E+01  0.00000000000E+00 0. -1.
         11    1    3    3    0    0  0.28771619354E+02  0.22482978319E+02 -0.22906846047E+02  0.43104686410E+02  0.51100000000E-03 0. -1.
        -11    1    3    3    0    0 -0.85208799699E+01  0.71100142387E-01  0.76582048005E+00  0.85555205547E+01  0.51100000000E-03 0.  1.
        -12    1    3    3    0    0 -0.20295208192E+02 -0.23727036186E+02  0.22263668441E+02  0.38347602978E+02  0.00000000000E+00 0.  1.
</event>
<event>
 7    1  0.2285268E-015  0.9000767E+02  0.7816164E-02  0.1186339E+00
        -11   -1    0    0    0    0  0.00000000000E+00  0.00000000000E+00  0.45593999997E+02  0.45594000000E+02  0.51100000000E-03 0. -1.
         11   -1    0    0    0    0 -0.00000000000E+00 -0.00000000000E+00 -0.45593999997E+02  0.45594000000E+02  0.51100000000E-03 0.  1.
    9900012    2    1    2    0    0  0.21106973606E+00  0.11006559591E+01 -0.37039453762E+00  0.90007666959E+02  0.89999927363E+02 0.  0.
         12    1    1    2    0    0 -0.21106973606E+00 -0.11006559591E+01  0.37039453762E+00  0.11803330408E+01  0.00000000000E+00 0. -1.
         11    1    3    3    0    0  0.13462630933E+01  0.43477871405E+01  0.10122350310E+02  0.11098542850E+02  0.51100000000E-03 0. -1.
        -11    1    3    3    0    0  0.32020808605E+02  0.19940552916E+02 -0.40353839025E+01  0.37937345160E+02  0.51100000000E-03 0.  1.
         12    1    3    3    0    0 -0.33156001962E+02 -0.23187684097E+02 -0.64573609450E+01  0.40971778949E+02  0.00000000000E+00 0. -1.
</event>
<event>
 7    1  0.2285268E-015  0.9000771E+02  0.7816164E-02  0.1186339E+00
        -11   -1    0    0    0    0  0.00000000000E+00  0.00000000000E+00  0.45593999997E+02  0.45594000000E+02  0.51100000000E-03 0.  1.
         11   -1    0    0    0    0 -0.00000000000E+00 -0.00000000000E+00 -0.45593999997E+02  0.45594000000E+02  0.51100000000E-03 0. -1.
    9900012    2    1    2    0    0  0.10863126748E+01 -0.41660599505E+00  0.19859507959E+00  0.90007713684E+02  0.89999974704E+02 0.  0.
         12    1    1    2    0    0 -0.10863126748E+01  0.41660599505E+00 -0.19859507959E+00  0.11802863162E+01  0.00000000000E+00 0. -1.
         11    1    3    3    0    0 -0.68537977659E+01 -0.42398202231E+01 -0.50729241700E+01  0.95228766261E+01  0.51100000000E-03 0. -1.
        -11    1    3    3    0    0 -0.17625651339E+02  0.20733477265E+02  0.30434924557E+02  0.40826771825E+02  0.51100000000E-03 0.  1.
         12    1    3    3    0    0  0.25565761780E+02 -0.16910263037E+02 -0.25163405307E+02  0.39658065233E+02  0.00000000000E+00 0. -1.
</event>
<event>
 7    1  0.2285268E-015  0.9000771E+02  0.7816164E-02  0.1186339E+00
        -11   -1    0    0    0    0  0.00000000000E+00  0.00000000000E+00  0.45593999997E+02  0.45594000000E+02  0.51100000000E-03 0.  1.
         11   -1    0    0    0    0 -0.00000000000E+00 -0.00000000000E+00 -0.45593999997E+02  0.45594000000E+02  0.51100000000E-03 0. -1.
    9900012    2    1    2    0    0  0.47694981111E-01  0.29751373084E+00  0.11411839116E+01  0.90007707684E+02  0.89999968625E+02 0.  0.
         12    1    1    2    0    0 -0.47694981111E-01 -0.29751373084E+00 -0.11411839116E+01  0.11802923161E+01  0.00000000000E+00 0. -1.
         11    1    3    3    0    0  0.96789180894E+00  0.10245551762E+02 -0.26979335896E+01  0.10638937511E+02  0.51100000000E-03 0. -1.
        -11    1    3    3    0    0 -0.29996323271E+02  0.19996427660E+02  0.94149539112E+01  0.37259601264E+02  0.51100000000E-03 0.  1.
         12    1    3    3    0    0  0.29076126444E+02 -0.29944465691E+02 -0.55758364099E+01  0.42109168908E+02  0.00000000000E+00 0. -1.
</event>
<event>
 7    1  0.2285268E-015  0.9000771E+02  0.7816164E-02  0.1186339E+00
        -11   -1    0    0    0    0  0.00000000000E+00  0.00000000000E+00  0.45593999997E+02  0.45594000000E+02  0.51100000000E-03 0. -1.
         11   -1    0    0    0    0 -0.00000000000E+00 -0.00000000000E+00 -0.45593999997E+02  0.45594000000E+02  0.51100000000E-03 0.  1.
    9900012    2    1    2    0    0  0.53112575283E+00  0.10494872158E+00 -0.10487981365E+01  0.90007709218E+02  0.89999970179E+02 0.  0.
         12    1    1    2    0    0 -0.53112575283E+00 -0.10494872158E+00  0.10487981365E+01  0.11802907822E+01  0.00000000000E+00 0. -1.
         11    1    3    3    0    0 -0.51338733553E+01 -0.29155923348E+02  0.24424744323E+02  0.38379586468E+02  0.51100000000E-03 0. -1.
        -11    1    3    3    0    0 -0.18498562874E+01 -0.72739987488E+01 -0.55990779585E+01  0.93639041178E+01  0.51100000000E-03 0.  1.
        -12    1    3    3    0    0  0.75148553955E+01  0.36534870819E+02 -0.19874464501E+02  0.42264218632E+02  0.00000000000E+00 0.  1.
</event>
<event>
 7    1  0.2285268E-015  0.9000776E+02  0.7816164E-02  0.1186339E+00
        -11   -1    0    0    0    0  0.00000000000E+00  0.00000000000E+00  0.45593999997E+02  0.45594000000E+02  0.51100000000E-03 0.  1.
         11   -1    0    0    0    0 -0.00000000000E+00 -0.00000000000E+00 -0.45593999997E+02  0.45594000000E+02  0.51100000000E-03 0. -1.
    9900012    2    1    2    0    0 -0.10570219036E+00 -0.45331649230E+00  0.10845688789E+01  0.90007763393E+02  0.90000025070E+02 0.  0.
         12    1    1    2    0    0  0.10570219036E+00  0.45331649230E+00 -0.10845688789E+01  0.11802366069E+01  0.00000000000E+00 0. -1.
         11    1    3    3    0    0 -0.38694918500E+01 -0.14313660769E+01  0.11662147427E+02  0.12370426787E+02  0.51100000000E-03 0. -1.
        -11    1    3    3    0    0  0.28895172066E+02 -0.49570888269E+00  0.22104260442E+02  0.36383719243E+02  0.51100000000E-03 0.  1.
         12    1    3    3    0    0 -0.25131382406E+02  0.14737584673E+01 -0.32681838991E+02  0.41253617362E+02  0.00000000000E+00 0. -1.
</event>
<event>
 7    1  0.2285268E-015  0.9000755E+02  0.7816164E-02  0.1186339E+00
        -11   -1    0    0    0    0  0.00000000000E+00  0.00000000000E+00  0.45593999997E+02  0.45594000000E+02  0.51100000000E-03 0. -1.
         11   -1    0    0    0    0 -0.00000000000E+00 -0.00000000000E+00 -0.45593999997E+02  0.45594000000E+02  0.51100000000E-03 0.  1.
    9900012    2    1    2    0    0 -0.60523382277E+00 -0.83436401079E+00  0.57531959310E+00  0.90007549274E+02  0.89999808124E+02 0.  0.
         12    1    1    2    0    0  0.60523382277E+00  0.83436401079E+00 -0.57531959310E+00  0.11804507262E+01  0.00000000000E+00 0. -1.
         11    1    3    3    0    0  0.27225559462E+01  0.36139021448E+02  0.10926680652E+01  0.36257897152E+02  0.51100000000E-03 0. -1.
        -11    1    3    3    0    0 -0.22285905287E+01  0.78583690115E+01 -0.33193949041E+01  0.88169701177E+01  0.51100000000E-03 0.  1.
        -12    1    3    3    0    0 -0.10991992402E+01 -0.44831754471E+02  0.28020464320E+01  0.44932682004E+02  0.00000000000E+00 0.  1.
</event>
<event>
 7    1  0.2285268E-015  0.9000776E+02  0.7816164E-02  0.1186339E+00
        -11   -1    0    0    0    0  0.00000000000E+00  0.00000000000E+00  0.45593999997E+02  0.45594000000E+02  0.51100000000E-03 0.  1.
         11   -1    0    0    0    0 -0.00000000000E+00 -0.00000000000E+00 -0.45593999997E+02  0.45594000000E+02  0.51100000000E-03 0. -1.
    9900012    2    1    2    0    0  0.56445067305E+00 -0.52831844214E+00  0.89176851715E+00  0.90007755946E+02  0.90000017525E+02 0.  0.
         12    1    1    2    0    0 -0.56445067305E+00  0.52831844214E+00 -0.89176851715E+00  0.11802440539E+01  0.00000000000E+00 0. -1.
         11    1    3    3    0    0  0.25427181613E+02  0.44702758840E+01  0.63681154724E+01  0.26590935038E+02  0.51100000000E-03 0. -1.
        -11    1    3    3    0    0  0.12096230797E+02 -0.15027659368E+02 -0.14427056151E+02  0.24089194570E+02  0.51100000000E-03 0.  1.
        -12    1    3    3    0    0 -0.36958961737E+02  0.10029065042E+02  0.89507091961E+01  0.39327626338E+02  0.00000000000E+00 0.  1.
</event>
<event>
 7    1  0.2285268E-015  0.9000778E+02  0.7816164E-02  0.1186339E+00
        -11   -1    0    0    0    0  0.00000000000E+00  0.00000000000E+00  0.45593999997E+02  0.45594000000E+02  0.51100000000E-03 0. -1.
         11   -1    0    0    0    0 -0.00000000000E+00 -0.00000000000E+00 -0.45593999997E+02  0.45594000000E+02  0.51100000000E-03 0.  1.
    9900012    2    1    2    0    0  0.16973591027E+00 -0.36530840591E+00 -0.11093482025E+01  0.90007782247E+02  0.90000044172E+02 0.  0.
         12    1    1    2    0    0 -0.16973591027E+00  0.36530840591E+00  0.11093482025E+01  0.11802177532E+01  0.00000000000E+00 0. -1.
         11    1    3    3    0    0 -0.68099136838E+01 -0.80185432448E+01 -0.20337795019E+01  0.10714859751E+02  0.51100000000E-03 0. -1.
        -11    1    3    3    0    0  0.21011291724E+02 -0.28898367248E+01 -0.34076679154E+02  0.40137832510E+02  0.51100000000E-03 0.  1.
         12    1    3    3    0    0 -0.14031642130E+02  0.10543071564E+02  0.35001110453E+02  0.39155089986E+02  0.00000000000E+00 0. -1.
</event>
<event>
 7    1  0.2285268E-015  0.9000779E+02  0.7816164E-02  0.1186339E+00
        -11   -1    0    0    0    0  0.00000000000E+00  0.00000000000E+00  0.45593999997E+02  0.45594000000E+02  0.51100000000E-03 0.  1.
         11   -1    0    0    0    0 -0.00000000000E+00 -0.00000000000E+00 -0.45593999997E+02  0.45594000000E+02  0.51100000000E-03 0. -1.
    9900012    2    1    2    0    0 -0.75517661567E+00 -0.84861871921E+00  0.32008948327E+00  0.90007786999E+02  0.90000048987E+02 0.  0.
         12    1    1    2    0    0  0.75517661567E+00  0.84861871921E+00 -0.32008948327E+00  0.11802130014E+01  0.00000000000E+00 0. -1.
         11    1    3    3    0    0 -0.38714334946E+02  0.10620851107E+02 -0.84123932120E+01  0.41016710843E+02  0.51100000000E-03 0. -1.
        -11    1    3    3    0    0  0.36112182435E+01 -0.11409584508E+02  0.84358087312E+01  0.14641802657E+02  0.51100000000E-03 0.  1.
        -12    1    3    3    0    0  0.34347940087E+02 -0.59885318895E-01  0.29667396409E+00  0.34349273499E+02  0.00000000000E+00 0.  1.
</event>
<event>
 7    1  0.2285268E-015  0.9000774E+02  0.7816164E-02  0.1186339E+00
        -11   -1    0    0    0    0  0.00000000000E+00  0.00000000000E+00  0.45593999997E+02  0.45594000000E+02  0.51100000000E-03 0.  1.
         11   -1    0    0    0    0 -0.00000000000E+00 -0.00000000000E+00 -0.45593999997E+02  0.45594000000E+02  0.51100000000E-03 0. -1.
    9900012    2    1    2    0    0  0.15799116202E+00 -0.34990829263E+00  0.11160737163E+01  0.90007738351E+02  0.89999999697E+02 0.  0.
         12    1    1    2    0    0 -0.15799116202E+00  0.34990829263E+00 -0.11160737163E+01  0.11802616493E+01  0.00000000000E+00 0. -1.
         11    1    3    3    0    0  0.52277499483E+00  0.78117310492E-01 -0.84154726054E+01  0.84320564184E+01  0.51100000000E-03 0. -1.
        -11    1    3    3    0    0 -0.37576637685E+02 -0.10775859125E+02 -0.67333854596E+01  0.39666879378E+02  0.51100000000E-03 0.  1.
         12    1    3    3    0    0  0.37211853852E+02  0.10347833522E+02  0.16264931781E+02  0.41908802554E+02  0.00000000000E+00 0. -1.
</event>
<event>
 7    1  0.2285268E-015  0.9000778E+02  0.7816164E-02  0.1186339E+00
        -11   -1    0    0    0    0  0.00000000000E+00  0.00000000000E+00  0.45593999997E+02  0.45594000000E+02  0.51100000000E-03 0.  1.
         11   -1    0    0    0    0 -0.00000000000E+00 -0.00000000000E+00 -0.45593999997E+02  0.45594000000E+02  0.51100000000E-03 0. -1.
    9900012    2    1    2    0    0  0.34283198364E+00 -0.79909811991E+00  0.79801000409E+00  0.90007783265E+02  0.90000045204E+02 0.  0.
         12    1    1    2    0    0 -0.34283198364E+00  0.79909811991E+00 -0.79801000409E+00  0.11802167347E+01  0.00000000000E+00 0. -1.
         11    1    3    3    0    0 -0.33401617570E+02  0.64767670507E+01 -0.54047440404E+01  0.34450367576E+02  0.51100000000E-03 0. -1.
        -11    1    3    3    0    0 -0.31999807935E+01 -0.44474361834E+01 -0.12794763501E+02  0.13918532214E+02  0.51100000000E-03 0.  1.
        -12    1    3    3    0    0  0.36944430347E+02 -0.28284289872E+01  0.18997517546E+02  0.41638883475E+02  0.00000000000E+00 0.  1.
</event>
<event>
 7    1  0.2285268E-015  0.9000781E+02  0.7816164E-02  0.1186339E+00
        -11   -1    0    0    0    0  0.00000000000E+00  0.00000000000E+00  0.45593999997E+02  0.45594000000E+02  0.51100000000E-03 0. -1.
         11   -1    0    0    0    0 -0.00000000000E+00 -0.00000000000E+00 -0.45593999997E+02  0.45594000000E+02  0.51100000000E-03 0.  1.
    9900012    2    1    2    0    0 -0.38213538969E+00 -0.11156993685E+01  0.45198857745E-01  0.90007807018E+02  0.90000069271E+02 0.  0.
         12    1    1    2    0    0  0.38213538969E+00  0.11156993685E+01 -0.45198857745E-01  0.11801929816E+01  0.00000000000E+00 0. -1.
         11    1    3    3    0    0 -0.19845829829E+01  0.87971043275E+01  0.99381293360E+01  0.13419911666E+02  0.51100000000E-03 0. -1.
        -11    1    3    3    0    0 -0.20593273278E+02  0.71964099570E+01 -0.33479041609E+02  0.39958947032E+02  0.51100000000E-03 0.  1.
         12    1    3    3    0    0  0.22195720871E+02 -0.17109213653E+02  0.23586111130E+02  0.36628948321E+02  0.00000000000E+00 0. -1.
</event>
<event>
 7    1  0.2285268E-015  0.9000777E+02  0.7816164E-02  0.1186339E+00
        -11   -1    0    0    0    0  0.00000000000E+00  0.00000000000E+00  0.45593999997E+02  0.45594000000E+02  0.51100000000E-03 0. -1.
         11   -1    0    0    0    0 -0.00000000000E+00 -0.00000000000E+00 -0.45593999997E+02  0.45594000000E+02  0.51100000000E-03 0.  1.
    9900012    2    1    2    0    0  0.73416656343E+00 -0.47730721993E+00 -0.79127109394E+00  0.90007774314E+02  0.90000036135E+02 0.  0.
         12    1    1    2    0    0 -0.73416656343E+00  0.47730721993E+00  0.79127109394E+00  0.11802256857E+01  0.00000000000E+00 0. -1.
         11    1    3    3    0    0  0.63398900347E+01  0.61102894156E+01  0.26422685441E+01  0.91930096114E+01  0.51100000000E-03 0. -1.
        -11    1    3    3    0    0  0.85427329787E+01  0.21158623234E+02 -0.31495218582E+02  0.38892343946E+02  0.51100000000E-03 0.  1.
         12    1    3    3    0    0 -0.14148456450E+02 -0.27746219869E+02  0.28061678944E+02  0.41922420756E+02  0.00000000000E+00 0. -1.
</event>
<event>
 7    1  0.2285268E-015  0.9000777E+02  0.7816164E-02  0.1186339E+00
        -11   -1    0    0    0    0  0.00000000000E+00  0.00000000000E+00  0.45593999997E+02  0.45594000000E+02  0.51100000000E-03 0. -1.
         11   -1    0    0    0    0 -0.00000000000E+00 -0.00000000000E+00 -0.45593999997E+02  0.45594000000E+02  0.51100000000E-03 0.  1.
    9900012    2    1    2    0    0  0.45748674274E+00  0.94557720381E+00 -0.53808655000E+00  0.90007768030E+02  0.90000029768E+02 0.  0.
         12    1    1    2    0    0 -0.45748674274E+00 -0.94557720381E+00  0.53808655000E+00  0.11802319702E+01  0.00000000000E+00 0. -1.
         11    1    3    3    0    0  0.64554650797E+01 -0.31523462406E+01  0.35645883891E+02  0.36362609296E+02  0.51100000000E-03 0. -1.
        -11    1    3    3    0    0  0.91339521654E+01 -0.14761004346E+01  0.41995992340E+01  0.10160934437E+02  0.51100000000E-03 0.  1.
        -12    1    3    3    0    0 -0.15131930502E+02  0.55740238790E+01 -0.40383569675E+02  0.43484224296E+02  0.00000000000E+00 0.  1.
</event>
<event>
 7    1  0.2285268E-015  0.9000772E+02  0.7816164E-02  0.1186339E+00
        -11   -1    0    0    0    0  0.00000000000E+00  0.00000000000E+00  0.45593999997E+02  0.45594000000E+02  0.51100000000E-03 0.  1.
         11   -1    0    0    0    0 -0.00000000000E+00 -0.00000000000E+00 -0.45593999997E+02  0.45594000000E+02  0.51100000000E-03 0. -1.
    9900012    2    1    2    0    0 -0.11692288390E+01  0.10520846492E+00  0.12202983708E+00  0.90007721990E+02  0.89999983121E+02 0.  0.
         12    1    1    2    0    0  0.11692288390E+01 -0.10520846492E+00 -0.12202983708E+00  0.11802780097E+01  0.00000000000E+00 0. -1.
         11    1    3    3    0    0  0.82444483017E+00 -0.22418115984E+01 -0.10469069964E+02  0.10738102937E+02  0.51100000000E-03 0. -1.
        -11    1    3    3    0    0 -0.12903086713E+02 -0.35506819025E+02  0.12598626424E+02  0.39823978105E+02  0.51100000000E-03 0.  1.
         12    1    3    3    0    0  0.10909413044E+02  0.37853839089E+02 -0.20075266236E+01  0.39445640949E+02  0.00000000000E+00 0. -1.
</event>
<event>
 7    1  0.2285268E-015  0.9000745E+02  0.7816164E-02  0.1186340E+00
        -11   -1    0    0    0    0  0.00000000000E+00  0.00000000000E+00  0.45593999997E+02  0.45594000000E+02  0.51100000000E-03 0. -1.
         11   -1    0    0    0    0 -0.00000000000E+00 -0.00000000000E+00 -0.45593999997E+02  0.45594000000E+02  0.51100000000E-03 0.  1.
    9900012    2    1    2    0    0 -0.90001339303E-01 -0.11563564008E+01 -0.22008149791E+00  0.90007450877E+02  0.89999708428E+02 0.  0.
         12    1    1    2    0    0  0.90001339303E-01  0.11563564008E+01  0.22008149791E+00  0.11805491233E+01  0.00000000000E+00 0. -1.
         11    1    3    3    0    0  0.34474148042E+01 -0.16904944844E+01  0.16531890643E+02  0.16971913531E+02  0.51100000000E-03 0. -1.
        -11    1    3    3    0    0 -0.18763026087E+02  0.74783891401E+01  0.22577482742E+02  0.30293896733E+02  0.51100000000E-03 0.  1.
         12    1    3    3    0    0  0.15225609944E+02 -0.69442510565E+01 -0.39329454882E+02  0.42741640612E+02  0.00000000000E+00 0. -1.
</event>
<event>
 7    1  0.2285268E-015  0.9000771E+02  0.7816164E-02  0.1186339E+00
        -11   -1    0    0    0    0  0.00000000000E+00  0.00000000000E+00  0.45593999997E+02  0.45594000000E+02  0.51100000000E-03 0.  1.
         11   -1    0    0    0    0 -0.00000000000E+00 -0.00000000000E+00 -0.45593999997E+02  0.45594000000E+02  0.51100000000E-03 0. -1.
    9900012    2    1    2    0    0 -0.61921099919E+00  0.40350751558E+00  0.92023818602E+00  0.90007712367E+02  0.89999973371E+02 0.  0.
         12    1    1    2    0    0  0.61921099919E+00 -0.40350751558E+00 -0.92023818602E+00  0.11802876326E+01  0.00000000000E+00 0. -1.
         11    1    3    3    0    0  0.79976378505E+01 -0.35933125440E+01  0.63214265729E+01  0.10809002748E+02  0.51100000000E-03 0. -1.
        -11    1    3    3    0    0 -0.24652662248E+02 -0.85900358050E+00  0.30709740911E+02  0.39390098123E+02  0.51100000000E-03 0.  1.
         12    1    3    3    0    0  0.16035813398E+02  0.48558236401E+01 -0.36110929297E+02  0.39808611497E+02  0.00000000000E+00 0. -1.
</event>
<event>
 7    1  0.2285268E-015  0.9000772E+02  0.7816164E-02  0.1186339E+00
        -11   -1    0    0    0    0  0.00000000000E+00  0.00000000000E+00  0.45593999997E+02  0.45594000000E+02  0.51100000000E-03 0.  1.
         11   -1    0    0    0    0 -0.00000000000E+00 -0.00000000000E+00 -0.45593999997E+02  0.45594000000E+02  0.51100000000E-03 0. -1.
    9900012    2    1    2    0    0  0.11539002083E+01 -0.17725967092E+00  0.17365456987E+00  0.90007719274E+02  0.89999980369E+02 0.  0.
         12    1    1    2    0    0 -0.11539002083E+01  0.17725967092E+00 -0.17365456987E+00  0.11802807257E+01  0.00000000000E+00 0. -1.
         11    1    3    3    0    0  0.58923615991E+01 -0.60014544939E+01 -0.70912534951E+01  0.11001057115E+02  0.51100000000E-03 0. -1.
        -11    1    3    3    0    0  0.18514894371E+01  0.33244730416E+02 -0.20768566646E+02  0.39242495771E+02  0.51100000000E-03 0.  1.
         12    1    3    3    0    0 -0.65899508279E+01 -0.27420535593E+02  0.28033474712E+02  0.39764166388E+02  0.00000000000E+00 0. -1.
</event>
<event>
 7    1  0.2285268E-015  0.9000766E+02  0.7816164E-02  0.1186339E+00
        -11   -1    0    0    0    0  0.00000000000E+00  0.00000000000E+00  0.45593999997E+02  0.45594000000E+02  0.51100000000E-03 0. -1.
         11   -1    0    0    0    0 -0.00000000000E+00 -0.00000000000E+00 -0.45593999997E+02  0.45594000000E+02  0.51100000000E-03 0.  1.
    9900012    2    1    2    0    0 -0.13824492381E+00  0.11593616477E+01 -0.17311662981E+00  0.90007660872E+02  0.89999921196E+02 0.  0.
         12    1    1    2    0    0  0.13824492381E+00 -0.11593616477E+01  0.17311662981E+00  0.11803391278E+01  0.00000000000E+00 0. -1.
         11    1    3    3    0    0 -0.96461494296E+00 -0.11049259749E+02 -0.70219780763E+01  0.13127254068E+02  0.51100000000E-03 0. -1.
        -11    1    3    3    0    0 -0.24518953432E+02 -0.13871035629E+02 -0.17455092526E+02  0.33140080901E+02  0.51100000000E-03 0.  1.
         12    1    3    3    0    0  0.25345323451E+02  0.26079657026E+02  0.24303953972E+02  0.43740325903E+02  0.00000000000E+00 0. -1.
</event>
<event>
 7    1  0.2285268E-015  0.9000780E+02  0.7816164E-02  0.1186339E+00
        -11   -1    0    0    0    0  0.00000000000E+00  0.00000000000E+00  0.45593999997E+02  0.45594000000E+02  0.51100000000E-03 0.  1.
         11   -1    0    0    0    0 -0.00000000000E+00 -0.00000000000E+00 -0.45593999997E+02  0.45594000000E+02  0.51100000000E-03 0. -1.
    9900012    2    1    2    0    0 -0.94682289815E+00  0.44451348091E+00 -0.54663103386E+00  0.90007800304E+02  0.90000062468E+02 0.  0.
         12    1    1    2    0    0  0.94682289815E+00 -0.44451348091E+00  0.54663103386E+00  0.11801996960E+01  0.00000000000E+00 0. -1.
         11    1    3    3    0    0  0.29758442486E+02  0.23326505623E+02 -0.42250839627E+01  0.38046578014E+02  0.51100000000E-03 0. -1.
        -11    1    3    3    0    0  0.53183654226E+00  0.69550486845E+01  0.52579351749E+01  0.87350692543E+01  0.51100000000E-03 0.  1.
        -12    1    3    3    0    0 -0.31237101927E+02 -0.29837040827E+02 -0.15794822461E+01  0.43226153036E+02  0.00000000000E+00 0.  1.
</event>
<event>
 7    1  0.2285268E-015  0.9000771E+02  0.7816164E-02  0.1186339E+00
        -11   -1    0    0    0    0  0.00000000000E+00  0.00000000000E+00  0.45593999997E+02  0.45594000000E+02  0.51100000000E-03 0.  1.
         11   -1    0    0    0    0 -0.00000000000E+00 -0.00000000000E+00 -0.45593999997E+02  0.45594000000E+02  0.51100000000E-03 0. -1.
    9900012    2    1    2    0    0 -0.37928855889E+00  0.10232321790E+01  0.44968047100E+00  0.90007713412E+02  0.89999974429E+02 0.  0.
         12    1    1    2    0    0  0.37928855889E+00 -0.10232321790E+01 -0.44968047100E+00  0.11802865877E+01  0.00000000000E+00 0. -1.
         11    1    3    3    0    0 -0.48376822039E+01 -0.24103168149E+01 -0.10648358096E+02  0.11941537868E+02  0.51100000000E-03 0. -1.
        -11    1    3    3    0    0 -0.39692566708E+01 -0.18972064476E+02 -0.26900389229E+02  0.33156072897E+02  0.51100000000E-03 0.  1.
         12    1    3    3    0    0  0.84276503158E+01  0.22405613470E+02  0.37998427796E+02  0.44910102647E+02  0.00000000000E+00 0. -1.
</event>
<event>
 7    1  0.2285268E-015  0.9000759E+02  0.7816164E-02  0.1186339E+00
        -11   -1    0    0    0    0  0.00000000000E+00  0.00000000000E+00  0.45593999997E+02  0.45594000000E+02  0.51100000000E-03 0.  1.
         11   -1    0    0    0    0 -0.00000000000E+00 -0.00000000000E+00 -0.45593999997E+02  0.45594000000E+02  0.51100000000E-03 0. -1.
    9900012    2    1    2    0    0 -0.10686501141E+01  0.19683396843E+00 -0.46110153757E+00  0.90007588502E+02  0.89999847870E+02 0.  0.
         12    1    1    2    0    0  0.10686501141E+01 -0.19683396843E+00  0.46110153757E+00  0.11804114983E+01  0.00000000000E+00 0. -1.
         11    1    3    3    0    0 -0.93488672012E+01 -0.12693690399E+02 -0.32861787423E+02  0.36447608519E+02  0.51100000000E-03 0. -1.
        -11    1    3    3    0    0  0.89590189366E+00 -0.28155687059E+01 -0.85699580075E+01  0.90650012604E+01  0.51100000000E-03 0.  1.
        -12    1    3    3    0    0  0.73843151934E+01  0.15706093074E+02  0.40970643892E+02  0.44494978722E+02  0.00000000000E+00 0.  1.
</event>
<event>
 7    1  0.2285268E-015  0.9000780E+02  0.7816164E-02  0.1186339E+00
        -11   -1    0    0    0    0  0.00000000000E+00  0.00000000000E+00  0.45593999997E+02  0.45594000000E+02  0.51100000000E-03 0.  1.
         11   -1    0    0    0    0 -0.00000000000E+00 -0.00000000000E+00 -0.45593999997E+02  0.45594000000E+02  0.51100000000E-03 0. -1.
    9900012    2    1    2    0    0  0.42844099264E+00  0.81126988109E+00  0.74239323797E+00  0.90007801617E+02  0.90000063798E+02 0.  0.
         12    1    1    2    0    0 -0.42844099264E+00 -0.81126988109E+00 -0.74239323797E+00  0.11801983833E+01  0.00000000000E+00 0. -1.
         11    1    3    3    0    0 -0.91338461172E+00  0.34806925577E+02 -0.16578924257E+01  0.34858355485E+02  0.51100000000E-03 0. -1.
        -11    1    3    3    0    0  0.68943231730E+01  0.90078334066E+01 -0.21689254880E+01  0.11548895736E+02  0.51100000000E-03 0.  1.
        -12    1    3    3    0    0 -0.55524975686E+01 -0.43003489102E+02  0.45692111516E+01  0.43600550395E+02  0.00000000000E+00 0.  1.
</event>
<event>
 7    1  0.2285268E-015  0.9000765E+02  0.7816164E-02  0.1186339E+00
        -11   -1    0    0    0    0  0.00000000000E+00  0.00000000000E+00  0.45593999997E+02  0.45594000000E+02  0.51100000000E-03 0. -1.
         11   -1    0    0    0    0 -0.00000000000E+00 -0.00000000000E+00 -0.45593999997E+02  0.45594000000E+02  0.51100000000E-03 0.  1.
    9900012    2    1    2    0    0  0.12305219776E+00  0.91218495127E-02 -0.11738842913E+01  0.90007648620E+02  0.89999908781E+02 0.  0.
         12    1    1    2    0    0 -0.12305219776E+00 -0.91218495127E-02  0.11738842913E+01  0.11803513803E+01  0.00000000000E+00 0. -1.
         11    1    3    3    0    0  0.58911250382E+01 -0.13000976532E+01 -0.66900647514E+01  0.90084723879E+01  0.51100000000E-03 0. -1.
        -11    1    3    3    0    0 -0.34791845084E+02 -0.21548018588E+02 -0.79285360288E+01  0.41685144515E+02  0.51100000000E-03 0.  1.
         12    1    3    3    0    0  0.29023772243E+02  0.22857238091E+02  0.13444716489E+02  0.39314031717E+02  0.00000000000E+00 0. -1.
</event>
<event>
 7    1  0.2285268E-015  0.9000776E+02  0.7816164E-02  0.1186339E+00
        -11   -1    0    0    0    0  0.00000000000E+00  0.00000000000E+00  0.45593999997E+02  0.45594000000E+02  0.51100000000E-03 0. -1.
         11   -1    0    0    0    0 -0.00000000000E+00 -0.00000000000E+00 -0.45593999997E+02  0.45594000000E+02  0.51100000000E-03 0.  1.
    9900012    2    1    2    0    0 -0.28688294956E+00 -0.37408589037E+00 -0.10819987398E+01  0.90007761315E+02  0.90000022965E+02 0.  0.
         12    1    1    2    0    0  0.28688294956E+00  0.37408589037E+00  0.10819987398E+01  0.11802386848E+01  0.00000000000E+00 0. -1.
         11    1    3    3    0    0  0.38187917911E+01 -0.82411833780E+01  0.17183565486E+01  0.92440804682E+01  0.51100000000E-03 0. -1.
        -11    1    3    3    0    0  0.42969770457E+01 -0.35837011613E+02 -0.34150251259E+01  0.36254900496E+02  0.51100000000E-03 0.  1.
         12    1    3    3    0    0 -0.84026517864E+01  0.43704109101E+02  0.61466983755E+00  0.44508780351E+02  0.00000000000E+00 0. -1.
</event>
<event>
 7    1  0.2285268E-015  0.9000773E+02  0.7816164E-02  0.1186339E+00
        -11   -1    0    0    0    0  0.00000000000E+00  0.00000000000E+00  0.45593999997E+02  0.45594000000E+02  0.51100000000E-03 0.  1.
         11   -1    0    0    0    0 -0.00000000000E+00 -0.00000000000E+00 -0.45593999997E+02  0.45594000000E+02  0.51100000000E-03 0. -1.
    9900012    2    1    2    0    0  0.23625353337E+00 -0.10158091735E+01  0.55258916520E+00  0.90007729355E+02  0.89999990583E+02 0.  0.
         12    1    1    2    0    0 -0.23625353337E+00  0.10158091735E+01 -0.55258916520E+00  0.11802706446E+01  0.00000000000E+00 0. -1.
         11    1    3    3    0    0  0.13127752958E+02  0.33220822893E+02  0.19978214481E+01  0.35776420478E+02  0.51100000000E-03 0. -1.
        -11    1    3    3    0    0  0.53264820279E+01  0.52120006867E+01  0.67012068125E+01  0.10022102322E+02  0.51100000000E-03 0.  1.
        -12    1    3    3    0    0 -0.18217981453E+02 -0.39448632753E+02 -0.81464390953E+01  0.44209206555E+02  0.00000000000E+00 0.  1.
</event>
<event>
 7    1  0.2285268E-015  0.9000757E+02  0.7816164E-02  0.1186339E+00
        -11   -1    0    0    0    0  0.00000000000E+00  0.00000000000E+00  0.45593999997E+02  0.45594000000E+02  0.51100000000E-03 0.  1.
         11   -1    0    0    0    0 -0.00000000000E+00 -0.00000000000E+00 -0.45593999997E+02  0.45594000000E+02  0.51100000000E-03 0. -1.
    9900012    2    1    2    0    0  0.94691833774E+00  0.44999332395E+00  0.54246856792E+00  0.90007567674E+02  0.89999826767E+02 0.  0.
         12    1    1    2    0    0 -0.94691833774E+00 -0.44999332395E+00 -0.54246856792E+00  0.11804323264E+01  0.00000000000E+00 0. -1.
         11    1    3    3    0    0  0.90320783757E+01  0.40822462694E+01 -0.17896076111E+01  0.10072034057E+02  0.51100000000E-03 0. -1.
        -11    1    3    3    0    0  0.31834575287E+02 -0.16668205299E+02  0.98813001480E+01  0.37268074064E+02  0.51100000000E-03 0.  1.
         12    1    3    3    0    0 -0.39919735325E+02  0.13035952353E+02 -0.75492239689E+01  0.42667459553E+02  0.00000000000E+00 0. -1.
</event>
<event>
 7    1  0.2285268E-015  0.9000756E+02  0.7816164E-02  0.1186339E+00
        -11   -1    0    0    0    0  0.00000000000E+00  0.00000000000E+00  0.45593999997E+02  0.45594000000E+02  0.51100000000E-03 0.  1.
         11   -1    0    0    0    0 -0.00000000000E+00 -0.00000000000E+00 -0.45593999997E+02  0.45594000000E+02  0.51100000000E-03 0. -1.
    9900012    2    1    2    0    0 -0.10562021023E+01 -0.52706289017E+00  0.94154043841E-02  0.90007556515E+02  0.89999815461E+02 0.  0.
         12    1    1    2    0    0  0.10562021023E+01  0.52706289017E+00 -0.94154043841E-02  0.11804434848E+01  0.00000000000E+00 0. -1.
         11    1    3    3    0    0  0.76528692294E+01 -0.23482748611E+01 -0.37598148082E+01  0.88440381002E+01  0.51100000000E-03 0. -1.
        -11    1    3    3    0    0  0.17596510395E+02 -0.32975547362E+02 -0.35846527721E-01  0.37376800119E+02  0.51100000000E-03 0.  1.
         12    1    3    3    0    0 -0.26305581727E+02  0.34796759333E+02  0.38050767403E+01  0.43786718295E+02  0.00000000000E+00 0. -1.
</event>
<event>
 7    1  0.2285268E-015  0.9000771E+02  0.7816164E-02  0.1186339E+00
        -11   -1    0    0    0    0  0.00000000000E+00  0.00000000000E+00  0.45593999997E+02  0.45594000000E+02  0.51100000000E-03 0.  1.
         11   -1    0    0    0    0 -0.00000000000E+00 -0.00000000000E+00 -0.45593999997E+02  0.45594000000E+02  0.51100000000E-03 0. -1.
    9900012    2    1    2    0    0  0.97522440475E+00  0.48943208596E+00  0.44997280863E+00  0.90007711080E+02  0.89999972066E+02 0.  0.
         12    1    1    2    0    0 -0.97522440475E+00 -0.48943208596E+00 -0.44997280863E+00  0.11802889201E+01  0.00000000000E+00 0. -1.
         11    1    3    3    0    0 -0.14111595627E+02 -0.24233359489E+02 -0.26848052955E+02  0.38822812766E+02  0.51100000000E-03 0. -1.
        -11    1    3    3    0    0  0.52641613422E+01 -0.59728702678E+01 -0.13364192340E+01  0.80729542612E+01  0.51100000000E-03 0.  1.
        -12    1    3    3    0    0  0.98226586900E+01  0.30695661843E+02  0.28634444998E+02  0.43111944053E+02  0.00000000000E+00 0.  1.
</event>
<event>
 7    1  0.2285268E-015  0.9000770E+02  0.7816164E-02  0.1186339E+00
        -11   -1    0    0    0    0  0.00000000000E+00  0.00000000000E+00  0.45593999997E+02  0.45594000000E+02  0.51100000000E-03 0.  1.
         11   -1    0    0    0    0 -0.00000000000E+00 -0.00000000000E+00 -0.45593999997E+02  0.45594000000E+02  0.51100000000E-03 0. -1.
    9900012    2    1    2    0    0  0.11431372816E+01 -0.28903723409E+00  0.52957393088E-01  0.90007699253E+02  0.89999960083E+02 0.  0.
         12    1    1    2    0    0 -0.11431372816E+01  0.28903723409E+00 -0.52957393088E-01  0.11803007467E+01  0.00000000000E+00 0. -1.
         11    1    3    3    0    0  0.58887711680E+01 -0.72963873710E+01 -0.76017952840E+00  0.94070594616E+01  0.51100000000E-03 0. -1.
        -11    1    3    3    0    0 -0.30397621455E+02 -0.20901083576E+02  0.15412072806E+02  0.39980028429E+02  0.51100000000E-03 0.  1.
         12    1    3    3    0    0  0.25651987568E+02  0.27908433713E+02 -0.14598935884E+02  0.40620611363E+02  0.00000000000E+00 0. -1.
</event>
<event>
 7    1  0.2285268E-015  0.9000762E+02  0.7816164E-02  0.1186339E+00
        -11   -1    0    0    0    0  0.00000000000E+00  0.00000000000E+00  0.45593999997E+02  0.45594000000E+02  0.51100000000E-03 0. -1.
         11   -1    0    0    0    0 -0.00000000000E+00 -0.00000000000E+00 -0.45593999997E+02  0.45594000000E+02  0.51100000000E-03 0.  1.
    9900012    2    1    2    0    0 -0.53917631549E+00  0.51642193822E+00  0.91427541272E+00  0.90007617754E+02  0.89999877508E+02 0.  0.
         12    1    1    2    0    0  0.53917631549E+00 -0.51642193822E+00 -0.91427541272E+00  0.11803822465E+01  0.00000000000E+00 0. -1.
         11    1    3    3    0    0  0.59392322130E+01 -0.17711536195E+02  0.25153063538E+01  0.18849396807E+02  0.51100000000E-03 0. -1.
        -11    1    3    3    0    0  0.13406598010E+02  0.78913104375E+01 -0.30707594606E+02  0.34423335361E+02  0.51100000000E-03 0.  1.
        -12    1    3    3    0    0 -0.19885006539E+02  0.10336647696E+02  0.29106563665E+02  0.36734885586E+02  0.00000000000E+00 0.  1.
</event>
<event>
 7    1  0.2285268E-015  0.9000762E+02  0.7816164E-02  0.1186339E+00
        -11   -1    0    0    0    0  0.00000000000E+00  0.00000000000E+00  0.45593999997E+02  0.45594000000E+02  0.51100000000E-03 0.  1.
         11   -1    0    0    0    0 -0.00000000000E+00 -0.00000000000E+00 -0.45593999997E+02  0.45594000000E+02  0.51100000000E-03 0. -1.
    9900012    2    1    2    0    0  0.98219808528E-01 -0.11159763787E+01  0.37182362015E+00  0.90007617345E+02  0.89999877094E+02 0.  0.
         12    1    1    2    0    0 -0.98219808528E-01  0.11159763787E+01 -0.37182362015E+00  0.11803826553E+01  0.00000000000E+00 0. -1.
         11    1    3    3    0    0  0.39046669988E+01 -0.60513123518E+01  0.61965304906E+01  0.95006208183E+01  0.51100000000E-03 0. -1.
        -11    1    3    3    0    0 -0.30356441401E+02 -0.56852925827E+01  0.24056460010E+02  0.39147788632E+02  0.51100000000E-03 0.  1.
         12    1    3    3    0    0  0.26549994211E+02  0.10620628556E+02 -0.29881166881E+02  0.41359207895E+02  0.00000000000E+00 0. -1.
</event>
<event>
 7    1  0.2664011E-015  0.9000768E+02  0.7816164E-02  0.1186339E+00
        -11   -1    0    0    0    0  0.00000000000E+00  0.00000000000E+00  0.45593999997E+02  0.45594000000E+02  0.51100000000E-03 0. -1.
         11   -1    0    0    0    0 -0.00000000000E+00 -0.00000000000E+00 -0.45593999997E+02  0.45594000000E+02  0.51100000000E-03 0.  1.
    9900012    2    1    2    0    0 -0.29367000432E+00  0.10050890333E+01 -0.54471378373E+00  0.90007678373E+02  0.89999938928E+02 0.  0.
         12    1    1    2    0    0  0.29367000432E+00 -0.10050890333E+01  0.54471378373E+00  0.11803216267E+01  0.00000000000E+00 0. -1.
         11    1    3    3    0    0  0.15734287366E+01  0.88186970842E+01 -0.25972651705E+01  0.93268903113E+01  0.51100000000E-03 0. -1.
        -11    1    3    3    0    0  0.25820297439E+02  0.81497024776E+01 -0.26454835640E+02  0.37854507517E+02  0.51100000000E-03 0.  1.
         12    1    3    3    0    0 -0.27687396180E+02 -0.15963310528E+02  0.28507387027E+02  0.42826280545E+02  0.00000000000E+00 0. -1.
</event>
<event>
 7    1  0.2285268E-015  0.9000775E+02  0.7816164E-02  0.1186339E+00
        -11   -1    0    0    0    0  0.00000000000E+00  0.00000000000E+00  0.45593999997E+02  0.45594000000E+02  0.51100000000E-03 0.  1.
         11   -1    0    0    0    0 -0.00000000000E+00 -0.00000000000E+00 -0.45593999997E+02  0.45594000000E+02  0.51100000000E-03 0. -1.
    9900012    2    1    2    0    0 -0.88158701127E+00 -0.65073362681E+00  0.43857163092E+00  0.90007747914E+02  0.90000009386E+02 0.  0.
         12    1    1    2    0    0  0.88158701127E+00  0.65073362681E+00 -0.43857163092E+00  0.11802520862E+01  0.00000000000E+00 0. -1.
         11    1    3    3    0    0 -0.89954008729E+01 -0.27013161781E+02  0.20293140840E+02  0.34963405321E+02  0.51100000000E-03 0. -1.
        -11    1    3    3    0    0  0.20349151894E+01 -0.12142693597E+02 -0.37924568729E+01  0.12882880773E+02  0.51100000000E-03 0.  1.
        -12    1    3    3    0    0  0.60788986723E+01  0.38505121751E+02 -0.16062112336E+02  0.42161461820E+02  0.00000000000E+00 0.  1.
</event>
<event>
 7    1  0.2285268E-015  0.9000774E+02  0.7816164E-02  0.1186339E+00
        -11   -1    0    0    0    0  0.00000000000E+00  0.00000000000E+00  0.45593999997E+02  0.45594000000E+02  0.51100000000E-03 0. -1.
         11   -1    0    0    0    0 -0.00000000000E+00 -0.00000000000E+00 -0.45593999997E+02  0.45594000000E+02  0.51100000000E-03 0.  1.
    9900012    2    1    2    0    0 -0.63826149786E+00  0.68305001510E+00 -0.72046644942E+00  0.90007742838E+02  0.90000004244E+02 0.  0.
         12    1    1    2    0    0  0.63826149786E+00 -0.68305001510E+00  0.72046644942E+00  0.11802571616E+01  0.00000000000E+00 0. -1.
         11    1    3    3    0    0  0.89351195750E+01  0.11026687788E+02  0.35132092931E+02  0.37890475840E+02  0.51100000000E-03 0. -1.
        -11    1    3    3    0    0 -0.51050867128E+01 -0.53566232479E+01  0.61269926685E+01  0.96070475374E+01  0.51100000000E-03 0.  1.
        -12    1    3    3    0    0 -0.44682943601E+01 -0.49870145247E+01 -0.41979552049E+02  0.42510219461E+02  0.00000000000E+00 0.  1.
</event>
<event>
 7    1  0.2285268E-015  0.9000762E+02  0.7816164E-02  0.1186339E+00
        -11   -1    0    0    0    0  0.00000000000E+00  0.00000000000E+00  0.45593999997E+02  0.45594000000E+02  0.51100000000E-03 0.  1.
         11   -1    0    0    0    0 -0.00000000000E+00 -0.00000000000E+00 -0.45593999997E+02  0.45594000000E+02  0.51100000000E-03 0. -1.
    9900012    2    1    2    0    0  0.21300149147E+00 -0.11607015041E+01  0.26276948481E-01  0.90007623749E+02  0.89999883582E+02 0.  0.
         12    1    1    2    0    0 -0.21300149147E+00  0.11607015041E+01 -0.26276948481E-01  0.11803762514E+01  0.00000000000E+00 0. -1.
         11    1    3    3    0    0 -0.25762337306E+02  0.24072208427E+02 -0.90821588721E+01  0.36409543421E+02  0.51100000000E-03 0. -1.
        -11    1    3    3    0    0 -0.92910754450E+01  0.27207126671E+00  0.14959916488E+01  0.94146745548E+01  0.51100000000E-03 0.  1.
        -12    1    3    3    0    0  0.35266414243E+02 -0.25504981198E+02  0.76124441718E+01  0.44183405773E+02  0.00000000000E+00 0.  1.
</event>
<event>
 7    1  0.2285268E-015  0.9000770E+02  0.7816164E-02  0.1186339E+00
        -11   -1    0    0    0    0  0.00000000000E+00  0.00000000000E+00  0.45593999997E+02  0.45594000000E+02  0.51100000000E-03 0.  1.
         11   -1    0    0    0    0 -0.00000000000E+00 -0.00000000000E+00 -0.45593999997E+02  0.45594000000E+02  0.51100000000E-03 0. -1.
    9900012    2    1    2    0    0  0.57926180556E+00  0.99440118841E+00 -0.26216789928E+00  0.90007699203E+02  0.89999960033E+02 0.  0.
         12    1    1    2    0    0 -0.57926180556E+00 -0.99440118841E+00  0.26216789928E+00  0.11803007965E+01  0.00000000000E+00 0. -1.
         11    1    3    3    0    0  0.47918026668E+01  0.91096445542E+00 -0.95825788843E+01  0.10752536788E+02  0.51100000000E-03 0. -1.
        -11    1    3    3    0    0  0.31306881048E+02  0.11443191796E+02 -0.13018184139E+02  0.35784641370E+02  0.51100000000E-03 0.  1.
         12    1    3    3    0    0 -0.35519421910E+02 -0.11359755063E+02  0.22338595123E+02  0.43470521046E+02  0.00000000000E+00 0. -1.
</event>
<event>
 7    1  0.2285268E-015  0.9000754E+02  0.7816164E-02  0.1186339E+00
        -11   -1    0    0    0    0  0.00000000000E+00  0.00000000000E+00  0.45593999997E+02  0.45594000000E+02  0.51100000000E-03 0. -1.
         11   -1    0    0    0    0 -0.00000000000E+00 -0.00000000000E+00 -0.45593999997E+02  0.45594000000E+02  0.51100000000E-03 0.  1.
    9900012    2    1    2    0    0 -0.34860339674E-01 -0.97100657006E+00 -0.67037767524E+00  0.90007544482E+02  0.89999803269E+02 0.  0.
         12    1    1    2    0    0  0.34860339674E-01  0.97100657006E+00  0.67037767524E+00  0.11804555179E+01  0.00000000000E+00 0. -1.
         11    1    3    3    0    0 -0.20387354427E+01  0.94622775154E+01  0.52235457748E+01  0.10998934890E+02  0.51100000000E-03 0. -1.
        -11    1    3    3    0    0 -0.22879124732E+02  0.16471156760E+02 -0.25000333683E+02  0.37679835960E+02  0.51100000000E-03 0.  1.
         12    1    3    3    0    0  0.24882999835E+02 -0.26904440845E+02  0.19106410233E+02  0.41328773632E+02  0.00000000000E+00 0. -1.
</event>
<event>
 7    1  0.2285268E-015  0.9000765E+02  0.7816164E-02  0.1186339E+00
        -11   -1    0    0    0    0  0.00000000000E+00  0.00000000000E+00  0.45593999997E+02  0.45594000000E+02  0.51100000000E-03 0. -1.
         11   -1    0    0    0    0 -0.00000000000E+00 -0.00000000000E+00 -0.45593999997E+02  0.45594000000E+02  0.51100000000E-03 0.  1.
    9900012    2    1    2    0    0  0.38558137298E+00 -0.38949490449E+00 -0.10453980713E+01  0.90007645645E+02  0.89999905768E+02 0.  0.
         12    1    1    2    0    0 -0.38558137298E+00  0.38949490449E+00  0.10453980713E+01  0.11803543549E+01  0.00000000000E+00 0. -1.
         11    1    3    3    0    0 -0.13779280362E+01 -0.84418446580E+01  0.43455575428E+01  0.95941282836E+01  0.51100000000E-03 0. -1.
        -11    1    3    3    0    0  0.35115291358E+02 -0.77777447004E+01 -0.19474746474E+02  0.40900400368E+02  0.51100000000E-03 0.  1.
         12    1    3    3    0    0 -0.33351781949E+02  0.15830094454E+02  0.14083790860E+02  0.39513116994E+02  0.00000000000E+00 0. -1.
</event>
<event>
 7    1  0.2285268E-015  0.9000774E+02  0.7816164E-02  0.1186339E+00
        -11   -1    0    0    0    0  0.00000000000E+00  0.00000000000E+00  0.45593999997E+02  0.45594000000E+02  0.51100000000E-03 0. -1.
         11   -1    0    0    0    0 -0.00000000000E+00 -0.00000000000E+00 -0.45593999997E+02  0.45594000000E+02  0.51100000000E-03 0.  1.
    9900012    2    1    2    0    0  0.97530909246E+00  0.37784386127E+00 -0.54682111953E+00  0.90007742763E+02  0.90000004167E+02 0.  0.
         12    1    1    2    0    0 -0.97530909246E+00 -0.37784386127E+00  0.54682111953E+00  0.11802572373E+01  0.00000000000E+00 0. -1.
         11    1    3    3    0    0 -0.83305923942E+01  0.56976513699E+01 -0.22570647867E+01  0.10341969952E+02  0.51100000000E-03 0. -1.
        -11    1    3    3    0    0 -0.34522323903E+02  0.41544691582E+01 -0.43182229504E+00  0.34774084207E+02  0.51100000000E-03 0.  1.
         12    1    3    3    0    0  0.43828225390E+02 -0.94742766668E+01  0.21420659622E+01  0.44891688604E+02  0.00000000000E+00 0. -1.
</event>
<event>
 7    1  0.2285268E-015  0.9000774E+02  0.7816164E-02  0.1186339E+00
        -11   -1    0    0    0    0  0.00000000000E+00  0.00000000000E+00  0.45593999997E+02  0.45594000000E+02  0.51100000000E-03 0.  1.
         11   -1    0    0    0    0 -0.00000000000E+00 -0.00000000000E+00 -0.45593999997E+02  0.45594000000E+02  0.51100000000E-03 0. -1.
    9900012    2    1    2    0    0 -0.89513250801E+00  0.25852664804E+00  0.72451388798E+00  0.90007737907E+02  0.89999999247E+02 0.  0.
         12    1    1    2    0    0  0.89513250801E+00 -0.25852664804E+00 -0.72451388798E+00  0.11802620931E+01  0.00000000000E+00 0. -1.
         11    1    3    3    0    0 -0.21322256308E+02 -0.30542038561E+02 -0.10326433226E+02  0.38653459831E+02  0.51100000000E-03 0. -1.
        -11    1    3    3    0    0  0.21065203717E+01 -0.66943348453E+01  0.61586670649E+01  0.93370620312E+01  0.51100000000E-03 0.  1.
        -12    1    3    3    0    0  0.18320603428E+02  0.37494900054E+02  0.48922800490E+01  0.42017216044E+02  0.00000000000E+00 0.  1.
</event>
<event>
 7    1  0.2285268E-015  0.9000755E+02  0.7816164E-02  0.1186339E+00
        -11   -1    0    0    0    0  0.00000000000E+00  0.00000000000E+00  0.45593999997E+02  0.45594000000E+02  0.51100000000E-03 0. -1.
         11   -1    0    0    0    0 -0.00000000000E+00 -0.00000000000E+00 -0.45593999997E+02  0.45594000000E+02  0.51100000000E-03 0.  1.
    9900012    2    1    2    0    0  0.94302186346E+00 -0.21902321563E+00 -0.67543366177E+00  0.90007545835E+02  0.89999804640E+02 0.  0.
         12    1    1    2    0    0 -0.94302186346E+00  0.21902321563E+00  0.67543366177E+00  0.11804541649E+01  0.00000000000E+00 0. -1.
         11    1    3    3    0    0  0.86701693901E+01  0.29033326569E+00 -0.60534460606E+01  0.10578295710E+02  0.51100000000E-03 0. -1.
        -11    1    3    3    0    0  0.35204228220E+02  0.10756360920E+01 -0.40302597003E+01  0.35450496063E+02  0.51100000000E-03 0.  1.
         12    1    3    3    0    0 -0.42931375747E+02 -0.15849925733E+01  0.94082720991E+01  0.43978754062E+02  0.00000000000E+00 0. -1.
</event>
<event>
 7    1  0.3422492E-015  0.9000767E+02  0.7816164E-02  0.1186339E+00
        -11   -1    0    0    0    0  0.00000000000E+00  0.00000000000E+00  0.45593999997E+02  0.45594000000E+02  0.51100000000E-03 0. -1.
         11   -1    0    0    0    0 -0.00000000000E+00 -0.00000000000E+00 -0.45593999997E+02  0.45594000000E+02  0.51100000000E-03 0.  1.
    9900012    2    1    2    0    0  0.61667240410E+00 -0.83834123802E+00 -0.55684318391E+00  0.90007671564E+02  0.89999932029E+02 0.  0.
         12    1    1    2    0    0 -0.61667240410E+00  0.83834123802E+00  0.55684318391E+00  0.11803284360E+01  0.00000000000E+00 0. -1.
         11    1    3    3    0    0  0.87133194521E+01  0.14121950225E+01  0.27616754806E+01  0.92489503392E+01  0.51100000000E-03 0. -1.
        -11    1    3    3    0    0 -0.12098936347E+02  0.33061654194E+02 -0.21074507462E+02  0.41031598846E+02  0.51100000000E-03 0.  1.
         12    1    3    3    0    0  0.40022892991E+01 -0.35312190455E+02  0.17755988798E+02  0.39727122379E+02  0.00000000000E+00 0. -1.
</event>
<event>
 7    1  0.2285268E-015  0.9000715E+02  0.7816164E-02  0.1186340E+00
        -11   -1    0    0    0    0  0.00000000000E+00  0.00000000000E+00  0.45593999997E+02  0.45594000000E+02  0.51100000000E-03 0.  1.
         11   -1    0    0    0    0 -0.00000000000E+00 -0.00000000000E+00 -0.45593999997E+02  0.45594000000E+02  0.51100000000E-03 0. -1.
    9900012    2    1    2    0    0  0.62014650091E-01  0.96980284177E+00  0.67085628561E+00  0.90007147967E+02  0.89999401518E+02 0.  0.
         12    1    1    2    0    0 -0.62014650091E-01 -0.96980284177E+00 -0.67085628561E+00  0.11808520334E+01  0.00000000000E+00 0. -1.
         11    1    3    3    0    0  0.10309634695E+02 -0.23585581107E+01 -0.37849956978E+02  0.39299753274E+02  0.51100000000E-03 0. -1.
        -11    1    3    3    0    0  0.11073616637E+02 -0.53430778370E+00  0.15894986090E+02  0.19379397651E+02  0.51100000000E-03 0.  1.
        -12    1    3    3    0    0 -0.21321236682E+02  0.38626687362E+01  0.22625827173E+02  0.31327997042E+02  0.00000000000E+00 0.  1.
</event>
<event>
 7    1  0.2285268E-015  0.9000772E+02  0.7816164E-02  0.1186339E+00
        -11   -1    0    0    0    0  0.00000000000E+00  0.00000000000E+00  0.45593999997E+02  0.45594000000E+02  0.51100000000E-03 0.  1.
         11   -1    0    0    0    0 -0.00000000000E+00 -0.00000000000E+00 -0.45593999997E+02  0.45594000000E+02  0.51100000000E-03 0. -1.
    9900012    2    1    2    0    0 -0.51473567788E+00 -0.91783108497E+00  0.53449323077E+00  0.90007724722E+02  0.89999985888E+02 0.  0.
         12    1    1    2    0    0  0.51473567788E+00  0.91783108497E+00 -0.53449323077E+00  0.11802752782E+01  0.00000000000E+00 0. -1.
         11    1    3    3    0    0  0.21027679692E+02  0.12559820790E+02 -0.25096612019E+02  0.35067824948E+02  0.51100000000E-03 0. -1.
        -11    1    3    3    0    0  0.87612121361E+01 -0.15899786460E+02  0.85031664346E+01  0.20046592908E+02  0.51100000000E-03 0.  1.
        -12    1    3    3    0    0 -0.30303627506E+02  0.24221345846E+01  0.17127938815E+02  0.34893306866E+02  0.00000000000E+00 0.  1.
</event>
<event>
 7    1  0.2285268E-015  0.9000813E+02  0.7816164E-02  0.1186338E+00
        -11   -1    0    0    0    0  0.00000000000E+00  0.00000000000E+00  0.45593999997E+02  0.45594000000E+02  0.51100000000E-03 0.  1.
         11   -1    0    0    0    0 -0.00000000000E+00 -0.00000000000E+00 -0.45593999997E+02  0.45594000000E+02  0.51100000000E-03 0. -1.
    9900012    2    1    2    0    0  0.24774232458E+00 -0.11209253797E+01 -0.27245605385E+00  0.90008134640E+02  0.90000401216E+02 0.  0.
         12    1    1    2    0    0 -0.24774232458E+00  0.11209253797E+01  0.27245605385E+00  0.11798653599E+01  0.00000000000E+00 0. -1.
         11    1    3    3    0    0  0.83621679292E+01 -0.33567315548E+02 -0.23409678990E+02  0.41769649224E+02  0.51100000000E-03 0. -1.
        -11    1    3    3    0    0 -0.83427557048E+01  0.46067815040E+01 -0.30609814627E+01  0.10009676136E+02  0.51100000000E-03 0.  1.
        -12    1    3    3    0    0  0.22833010023E+00  0.27839608665E+02  0.26198204399E+02  0.38228809280E+02  0.00000000000E+00 0.  1.
</event>
<event>
 7    1  0.2285268E-015  0.9000772E+02  0.7816164E-02  0.1186339E+00
        -11   -1    0    0    0    0  0.00000000000E+00  0.00000000000E+00  0.45593999997E+02  0.45594000000E+02  0.51100000000E-03 0.  1.
         11   -1    0    0    0    0 -0.00000000000E+00 -0.00000000000E+00 -0.45593999997E+02  0.45594000000E+02  0.51100000000E-03 0. -1.
    9900012    2    1    2    0    0 -0.68534129412E+00  0.35417051050E+00  0.89327103270E+00  0.90007719280E+02  0.89999980375E+02 0.  0.
         12    1    1    2    0    0  0.68534129412E+00 -0.35417051050E+00 -0.89327103270E+00  0.11802807199E+01  0.00000000000E+00 0. -1.
         11    1    3    3    0    0  0.85230678517E+01  0.13741970054E+02 -0.32589636006E+02  0.36380885116E+02  0.51100000000E-03 0. -1.
        -11    1    3    3    0    0 -0.63631505005E+01  0.46699429223E+01 -0.61336639912E+01  0.99959934677E+01  0.51100000000E-03 0.  1.
        -12    1    3    3    0    0 -0.28452586454E+01 -0.18057742466E+02  0.39616571030E+02  0.43630840696E+02  0.00000000000E+00 0.  1.
</event>
<event>
 7    1  0.2285268E-015  0.9000777E+02  0.7816164E-02  0.1186339E+00
        -11   -1    0    0    0    0  0.00000000000E+00  0.00000000000E+00  0.45593999997E+02  0.45594000000E+02  0.51100000000E-03 0.  1.
         11   -1    0    0    0    0 -0.00000000000E+00 -0.00000000000E+00 -0.45593999997E+02  0.45594000000E+02  0.51100000000E-03 0. -1.
    9900012    2    1    2    0    0  0.45824868908E+00 -0.91581886082E+00  0.58671483613E+00  0.90007766826E+02  0.90000028548E+02 0.  0.
         12    1    1    2    0    0 -0.45824868908E+00  0.91581886082E+00 -0.58671483613E+00  0.11802331743E+01  0.00000000000E+00 0. -1.
         11    1    3    3    0    0 -0.32803459509E+02  0.23251138675E+02  0.80150320584E+01  0.40999062728E+02  0.51100000000E-03 0. -1.
        -11    1    3    3    0    0  0.33108120845E+01 -0.16441172799E+01  0.77426723208E+01  0.85798352675E+01  0.51100000000E-03 0.  1.
        -12    1    3    3    0    0  0.29950896113E+02 -0.22522840256E+02 -0.15170989543E+02  0.40428868830E+02  0.00000000000E+00 0.  1.
</event>
<event>
 7    1  0.2285268E-015  0.9000761E+02  0.7816164E-02  0.1186339E+00
        -11   -1    0    0    0    0  0.00000000000E+00  0.00000000000E+00  0.45593999997E+02  0.45594000000E+02  0.51100000000E-03 0.  1.
         11   -1    0    0    0    0 -0.00000000000E+00 -0.00000000000E+00 -0.45593999997E+02  0.45594000000E+02  0.51100000000E-03 0. -1.
    9900012    2    1    2    0    0  0.19590613964E-01 -0.11802089281E+01  0.61272173687E-02  0.90007612585E+02  0.89999872271E+02 0.  0.
         12    1    1    2    0    0 -0.19590613964E-01  0.11802089281E+01 -0.61272173687E-02  0.11803874148E+01  0.00000000000E+00 0. -1.
         11    1    3    3    0    0  0.81197770738E+01  0.80206318060E+01  0.15929533119E+01  0.11523836809E+02  0.51100000000E-03 0. -1.
        -11    1    3    3    0    0 -0.26699768363E+02  0.11728006694E+02  0.26078844024E+02  0.39121987138E+02  0.51100000000E-03 0.  1.
         12    1    3    3    0    0  0.18599581904E+02 -0.20928847428E+02 -0.27665670119E+02  0.39361788638E+02  0.00000000000E+00 0. -1.
</event>
<event>
 7    1  0.2285268E-015  0.9000774E+02  0.7816164E-02  0.1186339E+00
        -11   -1    0    0    0    0  0.00000000000E+00  0.00000000000E+00  0.45593999997E+02  0.45594000000E+02  0.51100000000E-03 0. -1.
         11   -1    0    0    0    0 -0.00000000000E+00 -0.00000000000E+00 -0.45593999997E+02  0.45594000000E+02  0.51100000000E-03 0.  1.
    9900012    2    1    2    0    0 -0.54274179367E+00 -0.71295725410E+00 -0.76820314801E+00  0.90007740377E+02  0.90000001750E+02 0.  0.
         12    1    1    2    0    0  0.54274179367E+00  0.71295725410E+00  0.76820314801E+00  0.11802596229E+01  0.00000000000E+00 0. -1.
         11    1    3    3    0    0 -0.81765939452E+01  0.33516572140E+02 -0.15424638349E+02  0.37790696805E+02  0.51100000000E-03 0. -1.
        -11    1    3    3    0    0 -0.60546244311E+01 -0.49392032229E+00 -0.74587582371E+01  0.96195378780E+01  0.51100000000E-03 0.  1.
        -12    1    3    3    0    0  0.13688476583E+02 -0.33735609072E+02  0.22115193438E+02  0.42597505694E+02  0.00000000000E+00 0.  1.
</event>
<event>
 7    1  0.2285268E-015  0.9000811E+02  0.7816164E-02  0.1186338E+00
        -11   -1    0    0    0    0  0.00000000000E+00  0.00000000000E+00  0.45593999997E+02  0.45594000000E+02  0.51100000000E-03 0.  1.
         11   -1    0    0    0    0 -0.00000000000E+00 -0.00000000000E+00 -0.45593999997E+02  0.45594000000E+02  0.51100000000E-03 0. -1.
    9900012    2    1    2    0    0 -0.41768473189E+00  0.21864890881E+00  0.10816114182E+01  0.90008105454E+02  0.90000371645E+02 0.  0.
         12    1    1    2    0    0  0.41768473189E+00 -0.21864890881E+00 -0.10816114182E+01  0.11798945464E+01  0.00000000000E+00 0. -1.
         11    1    3    3    0    0 -0.19783881453E+02  0.63641538040E+01 -0.28985910293E+02  0.35666334473E+02  0.51100000000E-03 0. -1.
        -11    1    3    3    0    0  0.23423324868E+00  0.85910125917E+01 -0.63213148221E+01  0.10668616776E+02  0.51100000000E-03 0.  1.
        -12    1    3    3    0    0  0.19131963473E+02 -0.14736517487E+02  0.36388836533E+02  0.43673154205E+02  0.00000000000E+00 0.  1.
</event>
<event>
 7    1  0.2285268E-015  0.9000770E+02  0.7816164E-02  0.1186339E+00
        -11   -1    0    0    0    0  0.00000000000E+00  0.00000000000E+00  0.45593999997E+02  0.45594000000E+02  0.51100000000E-03 0.  1.
         11   -1    0    0    0    0 -0.00000000000E+00 -0.00000000000E+00 -0.45593999997E+02  0.45594000000E+02  0.51100000000E-03 0. -1.
    9900012    2    1    2    0    0  0.11208364311E+01  0.35189239846E+00  0.11409015970E+00  0.90007695323E+02  0.89999956102E+02 0.  0.
         12    1    1    2    0    0 -0.11208364311E+01 -0.35189239846E+00 -0.11409015970E+00  0.11803046767E+01  0.00000000000E+00 0. -1.
         11    1    3    3    0    0 -0.64022407959E+01 -0.22540475231E+01 -0.12271101823E+02  0.14023172168E+02  0.51100000000E-03 0. -1.
        -11    1    3    3    0    0 -0.88459246378E+01  0.36375803123E+02  0.65993793060E+01  0.38013171967E+02  0.51100000000E-03 0.  1.
         12    1    3    3    0    0  0.16369001865E+02 -0.33769863202E+02  0.57858126766E+01  0.37971351188E+02  0.00000000000E+00 0. -1.
</event>
<event>
 7    1  0.2285268E-015  0.9000775E+02  0.7816164E-02  0.1186339E+00
        -11   -1    0    0    0    0  0.00000000000E+00  0.00000000000E+00  0.45593999997E+02  0.45594000000E+02  0.51100000000E-03 0.  1.
         11   -1    0    0    0    0 -0.00000000000E+00 -0.00000000000E+00 -0.45593999997E+02  0.45594000000E+02  0.51100000000E-03 0. -1.
    9900012    2    1    2    0    0  0.47938606882E+00 -0.92158247496E+00  0.56023824402E+00  0.90007749115E+02  0.90000010603E+02 0.  0.
         12    1    1    2    0    0 -0.47938606882E+00  0.92158247496E+00 -0.56023824402E+00  0.11802508849E+01  0.00000000000E+00 0. -1.
         11    1    3    3    0    0 -0.20431540329E+02 -0.20243153747E+02  0.27325595405E+02  0.39672676722E+02  0.51100000000E-03 0. -1.
        -11    1    3    3    0    0 -0.76872983657E+00 -0.77061282718E+01 -0.70364682231E+01  0.10463615237E+02  0.51100000000E-03 0.  1.
        -12    1    3    3    0    0  0.21679656234E+02  0.27027699544E+02 -0.19728888937E+02  0.39871457156E+02  0.00000000000E+00 0.  1.
</event>
<event>
 7    1  0.2285268E-015  0.9000758E+02  0.7816164E-02  0.1186339E+00
        -11   -1    0    0    0    0  0.00000000000E+00  0.00000000000E+00  0.45593999997E+02  0.45594000000E+02  0.51100000000E-03 0.  1.
         11   -1    0    0    0    0 -0.00000000000E+00 -0.00000000000E+00 -0.45593999997E+02  0.45594000000E+02  0.51100000000E-03 0. -1.
    9900012    2    1    2    0    0  0.11467429543E+00  0.58818291215E+00 -0.10169951511E+01  0.90007581231E+02  0.89999840503E+02 0.  0.
         12    1    1    2    0    0 -0.11467429543E+00 -0.58818291215E+00  0.10169951511E+01  0.11804187687E+01  0.00000000000E+00 0. -1.
         11    1    3    3    0    0  0.13622182729E+02  0.80451077129E+01 -0.34628894255E+02  0.38071615910E+02  0.51100000000E-03 0. -1.
        -11    1    3    3    0    0  0.85169713626E+01 -0.35883594613E+01 -0.23977623397E+01  0.95480044676E+01  0.51100000000E-03 0.  1.
        -12    1    3    3    0    0 -0.22024479796E+02 -0.38685653395E+01  0.36009661443E+02  0.42387960854E+02  0.00000000000E+00 0.  1.
</event>
<event>
 7    1  0.2285268E-015  0.9000776E+02  0.7816164E-02  0.1186339E+00
        -11   -1    0    0    0    0  0.00000000000E+00  0.00000000000E+00  0.45593999997E+02  0.45594000000E+02  0.51100000000E-03 0.  1.
         11   -1    0    0    0    0 -0.00000000000E+00 -0.00000000000E+00 -0.45593999997E+02  0.45594000000E+02  0.51100000000E-03 0. -1.
    9900012    2    1    2    0    0 -0.91201734962E+00  0.49653771088E+00  0.56092677721E+00  0.90007760959E+02  0.90000022604E+02 0.  0.
         12    1    1    2    0    0  0.91201734962E+00 -0.49653771088E+00 -0.56092677721E+00  0.11802390409E+01  0.00000000000E+00 0. -1.
         11    1    3    3    0    0  0.27685356081E+02 -0.92013766920E+01 -0.22602510277E+02  0.36905524592E+02  0.51100000000E-03 0. -1.
        -11    1    3    3    0    0  0.62074251825E+01 -0.63394460464E+01  0.78061694159E+01  0.11817655638E+02  0.51100000000E-03 0.  1.
        -12    1    3    3    0    0 -0.34804798613E+02  0.16037360449E+02  0.15357267638E+02  0.41284580729E+02  0.00000000000E+00 0.  1.
</event>
<event>
 7    1  0.2285268E-015  0.9000778E+02  0.7816164E-02  0.1186339E+00
        -11   -1    0    0    0    0  0.00000000000E+00  0.00000000000E+00  0.45593999997E+02  0.45594000000E+02  0.51100000000E-03 0.  1.
         11   -1    0    0    0    0 -0.00000000000E+00 -0.00000000000E+00 -0.45593999997E+02  0.45594000000E+02  0.51100000000E-03 0. -1.
    9900012    2    1    2    0    0 -0.10595166544E+01 -0.51837679243E+00 -0.40368453976E-01  0.90007779829E+02  0.90000041723E+02 0.  0.
         12    1    1    2    0    0  0.10595166544E+01  0.51837679243E+00  0.40368453976E-01  0.11802201710E+01  0.00000000000E+00 0. -1.
         11    1    3    3    0    0  0.20226989895E+02 -0.16733447817E+02  0.21897737300E+02  0.34185527569E+02  0.51100000000E-03 0. -1.
        -11    1    3    3    0    0  0.11121335935E+02  0.75570143319E+01  0.32986082903E+01  0.13844616120E+02  0.51100000000E-03 0.  1.
        -12    1    3    3    0    0 -0.32407842485E+02  0.86580566927E+01 -0.25236714044E+02  0.41977636140E+02  0.00000000000E+00 0.  1.
</event>
<event>
 7    1  0.2285268E-015  0.9000784E+02  0.7816164E-02  0.1186339E+00
        -11   -1    0    0    0    0  0.00000000000E+00  0.00000000000E+00  0.45593999997E+02  0.45594000000E+02  0.51100000000E-03 0.  1.
         11   -1    0    0    0    0 -0.00000000000E+00 -0.00000000000E+00 -0.45593999997E+02  0.45594000000E+02  0.51100000000E-03 0. -1.
    9900012    2    1    2    0    0  0.28549981749E+00 -0.92000222055E+00  0.68180649057E+00  0.90007841400E+02  0.90000104106E+02 0.  0.
         12    1    1    2    0    0 -0.28549981749E+00  0.92000222055E+00 -0.68180649057E+00  0.11801586004E+01  0.00000000000E+00 0. -1.
         11    1    3    3    0    0  0.46353088281E+01 -0.79340929543E+01 -0.23399852259E+01  0.94821648403E+01  0.51100000000E-03 0. -1.
        -11    1    3    3    0    0 -0.87944464201E+01 -0.10189272106E+02  0.38533633443E+02  0.40816717904E+02  0.51100000000E-03 0.  1.
         12    1    3    3    0    0  0.44446374095E+01  0.17203362840E+02 -0.35511841726E+02  0.39708958655E+02  0.00000000000E+00 0. -1.
</event>
<event>
 7    1  0.3647963E-015  0.9000795E+02  0.7816164E-02  0.1186339E+00
        -11   -1    0    0    0    0  0.00000000000E+00  0.00000000000E+00  0.45593999997E+02  0.45594000000E+02  0.51100000000E-03 0. -1.
         11   -1    0    0    0    0 -0.00000000000E+00 -0.00000000000E+00 -0.45593999997E+02  0.45594000000E+02  0.51100000000E-03 0.  1.
    9900012    2    1    2    0    0 -0.30292167512E+00  0.14921905750E+00 -0.11307062932E+01  0.90007947209E+02  0.90000211312E+02 0.  0.
         12    1    1    2    0    0  0.30292167512E+00 -0.14921905750E+00  0.11307062932E+01  0.11800527911E+01  0.00000000000E+00 0. -1.
         11    1    3    3    0    0 -0.73293937718E+01  0.65569086863E+01 -0.60372445034E+00  0.98527939213E+01  0.51100000000E-03 0. -1.
        -11    1    3    3    0    0  0.28383431834E+02  0.16055349547E+02 -0.24650648820E+02  0.40878453240E+02  0.51100000000E-03 0.  1.
         12    1    3    3    0    0 -0.21356959737E+02 -0.22463039176E+02  0.24123666977E+02  0.39276700048E+02  0.00000000000E+00 0. -1.
</event>
<event>
 7    1  0.2285268E-015  0.9000780E+02  0.7816164E-02  0.1186339E+00
        -11   -1    0    0    0    0  0.00000000000E+00  0.00000000000E+00  0.45593999997E+02  0.45594000000E+02  0.51100000000E-03 0. -1.
         11   -1    0    0    0    0 -0.00000000000E+00 -0.00000000000E+00 -0.45593999997E+02  0.45594000000E+02  0.51100000000E-03 0.  1.
    9900012    2    1    2    0    0  0.71643176226E+00 -0.66839789044E+00 -0.65791153938E+00  0.90007797558E+02  0.90000059686E+02 0.  0.
         12    1    1    2    0    0 -0.71643176226E+00  0.66839789044E+00  0.65791153938E+00  0.11802024418E+01  0.00000000000E+00 0. -1.
         11    1    3    3    0    0  0.19586801928E+01 -0.93692259928E+01 -0.20000180052E+01  0.97784915035E+01  0.51100000000E-03 0. -1.
        -11    1    3    3    0    0  0.16434096074E+02  0.20540346393E+02  0.32928688447E+02  0.42145982807E+02  0.51100000000E-03 0.  1.
         12    1    3    3    0    0 -0.17676344504E+02 -0.11839518290E+02 -0.31586581981E+02  0.38083323248E+02  0.00000000000E+00 0. -1.
</event>
<event>
 7    1  0.2285268E-015  0.9000791E+02  0.7816164E-02  0.1186339E+00
        -11   -1    0    0    0    0  0.00000000000E+00  0.00000000000E+00  0.45593999997E+02  0.45594000000E+02  0.51100000000E-03 0.  1.
         11   -1    0    0    0    0 -0.00000000000E+00 -0.00000000000E+00 -0.45593999997E+02  0.45594000000E+02  0.51100000000E-03 0. -1.
    9900012    2    1    2    0    0  0.94519510680E+00  0.36628709032E+00  0.60420061441E+00  0.90007907459E+02  0.90000171037E+02 0.  0.
         12    1    1    2    0    0 -0.94519510680E+00 -0.36628709032E+00 -0.60420061441E+00  0.11800925408E+01  0.00000000000E+00 0. -1.
         11    1    3    3    0    0  0.45955583256E+00 -0.58717260646E+01 -0.26903676352E+01  0.64750626881E+01  0.51100000000E-03 0. -1.
        -11    1    3    3    0    0  0.16568147295E+02 -0.30332753686E+02  0.20333453492E+02  0.40100234190E+02  0.51100000000E-03 0.  1.
         12    1    3    3    0    0 -0.16082508021E+02  0.36570766841E+02 -0.17038885242E+02  0.43432610581E+02  0.00000000000E+00 0. -1.
</event>
<event>
 7    1  0.2285268E-015  0.9000775E+02  0.7816164E-02  0.1186339E+00
        -11   -1    0    0    0    0  0.00000000000E+00  0.00000000000E+00  0.45593999997E+02  0.45594000000E+02  0.51100000000E-03 0.  1.
         11   -1    0    0    0    0 -0.00000000000E+00 -0.00000000000E+00 -0.45593999997E+02  0.45594000000E+02  0.51100000000E-03 0. -1.
    9900012    2    1    2    0    0 -0.10977502913E+01 -0.72361960315E-01  0.42743230820E+00  0.90007749885E+02  0.90000011384E+02 0.  0.
         12    1    1    2    0    0  0.10977502913E+01  0.72361960315E-01 -0.42743230820E+00  0.11802501148E+01  0.00000000000E+00 0. -1.
         11    1    3    3    0    0 -0.58142157877E+01  0.37608552089E+02 -0.11014033394E+02  0.39617133002E+02  0.51100000000E-03 0. -1.
        -11    1    3    3    0    0  0.21468936980E+01  0.32036791975E+01  0.84832256851E+01  0.93186818401E+01  0.51100000000E-03 0.  1.
        -12    1    3    3    0    0  0.25695717984E+01 -0.40884593247E+02  0.29582400172E+01  0.41071935043E+02  0.00000000000E+00 0.  1.
</event>
<event>
 7    1  0.2285268E-015  0.9000777E+02  0.7816164E-02  0.1186339E+00
        -11   -1    0    0    0    0  0.00000000000E+00  0.00000000000E+00  0.45593999997E+02  0.45594000000E+02  0.51100000000E-03 0.  1.
         11   -1    0    0    0    0 -0.00000000000E+00 -0.00000000000E+00 -0.45593999997E+02  0.45594000000E+02  0.51100000000E-03 0. -1.
    9900012    2    1    2    0    0 -0.40348142902E+00 -0.59170047834E+00  0.93810269930E+00  0.90007769771E+02  0.90000031532E+02 0.  0.
         12    1    1    2    0    0  0.40348142902E+00  0.59170047834E+00 -0.93810269930E+00  0.11802302293E+01  0.00000000000E+00 0. -1.
         11    1    3    3    0    0  0.71840700151E+01  0.58058206590E+01 -0.10337271152E+01  0.92944611203E+01  0.51100000000E-03 0. -1.
        -11    1    3    3    0    0  0.28748572355E+02 -0.20473027753E+02 -0.14824484728E+02  0.38280420916E+02  0.51100000000E-03 0.  1.
         12    1    3    3    0    0 -0.36336123799E+02  0.14075506615E+02  0.16796314543E+02  0.42432887734E+02  0.00000000000E+00 0. -1.
</event>
<event>
 7    1  0.2285268E-015  0.9000774E+02  0.7816164E-02  0.1186339E+00
        -11   -1    0    0    0    0  0.00000000000E+00  0.00000000000E+00  0.45593999997E+02  0.45594000000E+02  0.51100000000E-03 0. -1.
         11   -1    0    0    0    0 -0.00000000000E+00 -0.00000000000E+00 -0.45593999997E+02  0.45594000000E+02  0.51100000000E-03 0.  1.
    9900012    2    1    2    0    0  0.91890938354E+00  0.53495243376E+00 -0.51228585316E+00  0.90007743521E+02  0.90000004935E+02 0.  0.
         12    1    1    2    0    0 -0.91890938354E+00 -0.53495243376E+00  0.51228585316E+00  0.11802564793E+01  0.00000000000E+00 0. -1.
         11    1    3    3    0    0  0.17984659915E+02 -0.26615214578E+02 -0.17522776277E+02  0.36590508715E+02  0.51100000000E-03 0. -1.
        -11    1    3    3    0    0  0.27235927091E+01 -0.89059021300E+01  0.13665197283E+01  0.94127799519E+01  0.51100000000E-03 0.  1.
        -12    1    3    3    0    0 -0.19789343241E+02  0.36056069142E+02  0.15643970696E+02  0.44004454854E+02  0.00000000000E+00 0.  1.
</event>
<event>
 7    1  0.2285268E-015  0.9000731E+02  0.7816164E-02  0.1186340E+00
        -11   -1    0    0    0    0  0.00000000000E+00  0.00000000000E+00  0.45593999997E+02  0.45594000000E+02  0.51100000000E-03 0.  1.
         11   -1    0    0    0    0 -0.00000000000E+00 -0.00000000000E+00 -0.45593999997E+02  0.45594000000E+02  0.51100000000E-03 0. -1.
    9900012    2    1    2    0    0 -0.11191228344E+01  0.37474537928E+00 -0.34001244959E-01  0.90007311175E+02  0.89999566881E+02 0.  0.
         12    1    1    2    0    0  0.11191228344E+01 -0.37474537928E+00  0.34001244959E-01  0.11806888254E+01  0.00000000000E+00 0. -1.
         11    1    3    3    0    0  0.97255738597E+01 -0.17886135927E+02 -0.30809327750E+02  0.36928516379E+02  0.51100000000E-03 0. -1.
        -11    1    3    3    0    0  0.15890529458E+01  0.34814123160E+01 -0.84942875381E+01  0.93165574125E+01  0.51100000000E-03 0.  1.
        -12    1    3    3    0    0 -0.12433749640E+02  0.14779468990E+02  0.39269614043E+02  0.43762237383E+02  0.00000000000E+00 0.  1.
</event>
<event>
 7    1  0.2285268E-015  0.9000770E+02  0.7816164E-02  0.1186339E+00
        -11   -1    0    0    0    0  0.00000000000E+00  0.00000000000E+00  0.45593999997E+02  0.45594000000E+02  0.51100000000E-03 0. -1.
         11   -1    0    0    0    0 -0.00000000000E+00 -0.00000000000E+00 -0.45593999997E+02  0.45594000000E+02  0.51100000000E-03 0.  1.
    9900012    2    1    2    0    0 -0.10890454723E+01 -0.32066793128E+00 -0.32288804605E+00  0.90007701456E+02  0.89999962315E+02 0.  0.
         12    1    1    2    0    0  0.10890454723E+01  0.32066793128E+00  0.32288804605E+00  0.11802985441E+01  0.00000000000E+00 0. -1.
         11    1    3    3    0    0  0.80037775321E+00 -0.77485113672E+01  0.48293442314E+01  0.91652931716E+01  0.51100000000E-03 0. -1.
        -11    1    3    3    0    0  0.39135163689E+02  0.48271253458E+01 -0.14824974698E+00  0.39432019404E+02  0.51100000000E-03 0.  1.
         12    1    3    3    0    0 -0.41024586914E+02  0.26007180901E+01 -0.50039825305E+01  0.41410388880E+02  0.00000000000E+00 0. -1.
</event>
<event>
 7    1  0.2285268E-015  0.9000801E+02  0.7816164E-02  0.1186339E+00
        -11   -1    0    0    0    0  0.00000000000E+00  0.00000000000E+00  0.45593999997E+02  0.45594000000E+02  0.51100000000E-03 0.  1.
         11   -1    0    0    0    0 -0.00000000000E+00 -0.00000000000E+00 -0.45593999997E+02  0.45594000000E+02  0.51100000000E-03 0. -1.
    9900012    2    1    2    0    0  0.11323169951E+01  0.17712945777E+00 -0.28081628793E+00  0.90008010843E+02  0.90000275786E+02 0.  0.
         12    1    1    2    0    0 -0.11323169951E+01 -0.17712945777E+00  0.28081628793E+00  0.11799891566E+01  0.00000000000E+00 0. -1.
         11    1    3    3    0    0  0.47617047826E+01  0.74288158995E+01  0.56332257124E+01  0.10468732984E+02  0.51100000000E-03 0. -1.
        -11    1    3    3    0    0  0.12193373495E+02  0.30130831989E+02  0.12679814379E+02  0.34890157444E+02  0.51100000000E-03 0.  1.
         12    1    3    3    0    0 -0.15822761282E+02 -0.37382518430E+02 -0.18593856380E+02  0.44649120415E+02  0.00000000000E+00 0. -1.
</event>
<event>
 7    1  0.2285268E-015  0.9000842E+02  0.7816164E-02  0.1186338E+00
        -11   -1    0    0    0    0  0.00000000000E+00  0.00000000000E+00  0.45593999997E+02  0.45594000000E+02  0.51100000000E-03 0.  1.
         11   -1    0    0    0    0 -0.00000000000E+00 -0.00000000000E+00 -0.45593999997E+02  0.45594000000E+02  0.51100000000E-03 0. -1.
    9900012    2    1    2    0    0  0.86397894681E+00 -0.74503499965E+00 -0.29980622528E+00  0.90008415097E+02  0.90000685373E+02 0.  0.
         12    1    1    2    0    0 -0.86397894681E+00  0.74503499965E+00  0.29980622528E+00  0.11795849032E+01  0.00000000000E+00 0. -1.
         11    1    3    3    0    0  0.77874232890E+01 -0.14112366340E+02 -0.35530105278E+02  0.39015269146E+02  0.51100000000E-03 0. -1.
        -11    1    3    3    0    0  0.43345097666E+01  0.12367398268E+02 -0.90045275481E+00  0.13135879501E+02  0.51100000000E-03 0.  1.
        -12    1    3    3    0    0 -0.11257954109E+02  0.99993307215E+00  0.36130751808E+02  0.37857266450E+02  0.00000000000E+00 0.  1.
</event>
<event>
 7    1  0.2285268E-015  0.9000770E+02  0.7816164E-02  0.1186339E+00
        -11   -1    0    0    0    0  0.00000000000E+00  0.00000000000E+00  0.45593999997E+02  0.45594000000E+02  0.51100000000E-03 0. -1.
         11   -1    0    0    0    0 -0.00000000000E+00 -0.00000000000E+00 -0.45593999997E+02  0.45594000000E+02  0.51100000000E-03 0.  1.
    9900012    2    1    2    0    0  0.10728577948E+01  0.20077821030E+00  0.44920253470E+00  0.90007695525E+02  0.89999956306E+02 0.  0.
         12    1    1    2    0    0 -0.10728577948E+01 -0.20077821030E+00 -0.44920253470E+00  0.11803044754E+01  0.00000000000E+00 0. -1.
         11    1    3    3    0    0 -0.57364742839E+01 -0.91690707311E+01 -0.31210235128E+01  0.11256988199E+02  0.51100000000E-03 0. -1.
        -11    1    3    3    0    0  0.26044861709E+02 -0.80822242849E+01 -0.27178273898E+02  0.38500853798E+02  0.51100000000E-03 0.  1.
         12    1    3    3    0    0 -0.19235529630E+02  0.17452073226E+02  0.30748499946E+02  0.40249853527E+02  0.00000000000E+00 0. -1.
</event>
<event>
 7    1  0.2285268E-015  0.9000776E+02  0.7816164E-02  0.1186339E+00
        -11   -1    0    0    0    0  0.00000000000E+00  0.00000000000E+00  0.45593999997E+02  0.45594000000E+02  0.51100000000E-03 0.  1.
         11   -1    0    0    0    0 -0.00000000000E+00 -0.00000000000E+00 -0.45593999997E+02  0.45594000000E+02  0.51100000000E-03 0. -1.
    9900012    2    1    2    0    0  0.43224505372E+00  0.97400448321E+00  0.50739284886E+00  0.90007759337E+02  0.90000020960E+02 0.  0.
         12    1    1    2    0    0 -0.43224505372E+00 -0.97400448321E+00 -0.50739284886E+00  0.11802406631E+01  0.00000000000E+00 0. -1.
         11    1    3    3    0    0 -0.28950136847E+02 -0.43761845477E+01  0.18200714395E+02  0.34475026025E+02  0.51100000000E-03 0. -1.
        -11    1    3    3    0    0 -0.61907225451E+01 -0.42584554198E+01  0.77184649653E+01  0.10771916722E+02  0.51100000000E-03 0.  1.
        -12    1    3    3    0    0  0.35573104446E+02  0.96086444507E+01 -0.25411786511E+02  0.44760816590E+02  0.00000000000E+00 0.  1.
</event>
<event>
 7    1  0.2285268E-015  0.9000778E+02  0.7816164E-02  0.1186339E+00
        -11   -1    0    0    0    0  0.00000000000E+00  0.00000000000E+00  0.45593999997E+02  0.45594000000E+02  0.51100000000E-03 0.  1.
         11   -1    0    0    0    0 -0.00000000000E+00 -0.00000000000E+00 -0.45593999997E+02  0.45594000000E+02  0.51100000000E-03 0. -1.
    9900012    2    1    2    0    0  0.49979470665E+00 -0.10681206847E+01  0.47466069035E-01  0.90007775626E+02  0.90000037464E+02 0.  0.
         12    1    1    2    0    0 -0.49979470665E+00  0.10681206847E+01 -0.47466069035E-01  0.11802243743E+01  0.00000000000E+00 0. -1.
         11    1    3    3    0    0 -0.49911656955E+01 -0.86301541244E+01 -0.15888583678E+01  0.10095333892E+02  0.51100000000E-03 0. -1.
        -11    1    3    3    0    0 -0.14114642595E+02 -0.32386165884E+02 -0.90746454280E+00  0.35339925982E+02  0.51100000000E-03 0.  1.
         12    1    3    3    0    0  0.19605602997E+02  0.39948199324E+02  0.25437889796E+01  0.44572515752E+02  0.00000000000E+00 0. -1.
</event>
<event>
 7    1  0.2285268E-015  0.9000768E+02  0.7816164E-02  0.1186339E+00
        -11   -1    0    0    0    0  0.00000000000E+00  0.00000000000E+00  0.45593999997E+02  0.45594000000E+02  0.51100000000E-03 0.  1.
         11   -1    0    0    0    0 -0.00000000000E+00 -0.00000000000E+00 -0.45593999997E+02  0.45594000000E+02  0.51100000000E-03 0. -1.
    9900012    2    1    2    0    0 -0.64538861381E-01 -0.11051606417E+01  0.40939141224E+00  0.90007683671E+02  0.89999944295E+02 0.  0.
         12    1    1    2    0    0  0.64538861381E-01  0.11051606417E+01 -0.40939141224E+00  0.11803163292E+01  0.00000000000E+00 0. -1.
         11    1    3    3    0    0 -0.35417220660E+01 -0.35338182514E+01 -0.10154082434E+02  0.11319763998E+02  0.51100000000E-03 0. -1.
        -11    1    3    3    0    0  0.24412359232E+02 -0.17821612824E+02 -0.20176179102E+02  0.36340767333E+02  0.51100000000E-03 0.  1.
         12    1    3    3    0    0 -0.20935176027E+02  0.20250270434E+02  0.30739652948E+02  0.42347152340E+02  0.00000000000E+00 0. -1.
</event>
<event>
 7    1  0.2381528E-015  0.9000781E+02  0.7816164E-02  0.1186339E+00
        -11   -1    0    0    0    0  0.00000000000E+00  0.00000000000E+00  0.45593999997E+02  0.45594000000E+02  0.51100000000E-03 0.  1.
         11   -1    0    0    0    0 -0.00000000000E+00 -0.00000000000E+00 -0.45593999997E+02  0.45594000000E+02  0.51100000000E-03 0. -1.
    9900012    2    1    2    0    0 -0.69178156095E+00 -0.92678742617E+00  0.23529090683E+00  0.90007805748E+02  0.90000067984E+02 0.  0.
         12    1    1    2    0    0  0.69178156095E+00  0.92678742617E+00 -0.23529090683E+00  0.11801942519E+01  0.00000000000E+00 0. -1.
         11    1    3    3    0    0  0.73242085917E+01 -0.53428250880E+01 -0.28597935313E+01  0.95062206327E+01  0.51100000000E-03 0. -1.
        -11    1    3    3    0    0  0.34838053114E+02 -0.69501514605E+01 -0.34236746192E+01  0.35689159394E+02  0.51100000000E-03 0.  1.
         12    1    3    3    0    0 -0.42854043266E+02  0.11366189122E+02  0.65187590574E+01  0.44812425722E+02  0.00000000000E+00 0. -1.
</event>
<event>
 7    1  0.2285268E-015  0.9000775E+02  0.7816164E-02  0.1186339E+00
        -11   -1    0    0    0    0  0.00000000000E+00  0.00000000000E+00  0.45593999997E+02  0.45594000000E+02  0.51100000000E-03 0. -1.
         11   -1    0    0    0    0 -0.00000000000E+00 -0.00000000000E+00 -0.45593999997E+02  0.45594000000E+02  0.51100000000E-03 0.  1.
    9900012    2    1    2    0    0 -0.94603837572E-01 -0.11743879461E+01  0.69743530421E-01  0.90007745327E+02  0.90000006765E+02 0.  0.
         12    1    1    2    0    0  0.94603837572E-01  0.11743879461E+01 -0.69743530421E-01  0.11802546733E+01  0.00000000000E+00 0. -1.
         11    1    3    3    0    0 -0.38266162861E+00 -0.48683059528E+01  0.42916528428E+02  0.43193462993E+02  0.51100000000E-03 0. -1.
        -11    1    3    3    0    0  0.16437432641E+01 -0.60559634725E+01 -0.60243939973E+01  0.86988452564E+01  0.51100000000E-03 0.  1.
        -12    1    3    3    0    0 -0.13556854731E+01  0.97498814792E+01 -0.36822390900E+02  0.38115437077E+02  0.00000000000E+00 0.  1.
</event>
<event>
 7    1  0.2285268E-015  0.9000771E+02  0.7816164E-02  0.1186339E+00
        -11   -1    0    0    0    0  0.00000000000E+00  0.00000000000E+00  0.45593999997E+02  0.45594000000E+02  0.51100000000E-03 0.  1.
         11   -1    0    0    0    0 -0.00000000000E+00 -0.00000000000E+00 -0.45593999997E+02  0.45594000000E+02  0.51100000000E-03 0. -1.
    9900012    2    1    2    0    0 -0.23841850008E+00  0.10500131139E+01 -0.48342835803E+00  0.90007714485E+02  0.89999975516E+02 0.  0.
         12    1    1    2    0    0  0.23841850008E+00 -0.10500131139E+01  0.48342835803E+00  0.11802855154E+01  0.00000000000E+00 0. -1.
         11    1    3    3    0    0 -0.32343891354E+02  0.19769646127E+02 -0.68682695411E+01  0.38524529103E+02  0.51100000000E-03 0. -1.
        -11    1    3    3    0    0  0.48560794334E+00  0.71951345610E+01 -0.53159507067E+01  0.89590796739E+01  0.51100000000E-03 0.  1.
        -12    1    3    3    0    0  0.31619864910E+02 -0.25914767574E+02  0.11700791890E+02  0.42524105707E+02  0.00000000000E+00 0.  1.
</event>
<event>
 7    1  0.2285268E-015  0.9000707E+02  0.7816164E-02  0.1186340E+00
        -11   -1    0    0    0    0  0.00000000000E+00  0.00000000000E+00  0.45593999997E+02  0.45594000000E+02  0.51100000000E-03 0.  1.
         11   -1    0    0    0    0 -0.00000000000E+00 -0.00000000000E+00 -0.45593999997E+02  0.45594000000E+02  0.51100000000E-03 0. -1.
    9900012    2    1    2    0    0 -0.73053736221E+00 -0.55300540121E-01  0.92620517991E+00  0.90007068578E+02  0.89999321081E+02 0.  0.
         12    1    1    2    0    0  0.73053736221E+00  0.55300540121E-01 -0.92620517991E+00  0.11809314216E+01  0.00000000000E+00 0. -1.
         11    1    3    3    0    0 -0.24167908298E+02  0.11763754125E+02 -0.25817993306E+02  0.37269860226E+02  0.51100000000E-03 0. -1.
        -11    1    3    3    0    0  0.57061139957E+01  0.47013311015E+01 -0.76653961011E+01  0.10649908389E+02  0.51100000000E-03 0.  1.
        -12    1    3    3    0    0  0.17731256941E+02 -0.16520385767E+02  0.34409594587E+02  0.42087299963E+02  0.00000000000E+00 0.  1.
</event>
<event>
 7    1  0.2285268E-015  0.9000782E+02  0.7816164E-02  0.1186339E+00
        -11   -1    0    0    0    0  0.00000000000E+00  0.00000000000E+00  0.45593999997E+02  0.45594000000E+02  0.51100000000E-03 0. -1.
         11   -1    0    0    0    0 -0.00000000000E+00 -0.00000000000E+00 -0.45593999997E+02  0.45594000000E+02  0.51100000000E-03 0.  1.
    9900012    2    1    2    0    0  0.16395432168E+00  0.98756356738E+00  0.62503719419E+00  0.90007815983E+02  0.90000078354E+02 0.  0.
         12    1    1    2    0    0 -0.16395432168E+00 -0.98756356738E+00 -0.62503719419E+00  0.11801840167E+01  0.00000000000E+00 0. -1.
         11    1    3    3    0    0  0.94248960955E+01 -0.50692455997E+01 -0.96824351844E+00  0.10745390320E+02  0.51100000000E-03 0. -1.
        -11    1    3    3    0    0  0.27525965181E+02  0.25588710251E+02  0.14753796579E+01  0.37611668360E+02  0.51100000000E-03 0.  1.
         12    1    3    3    0    0 -0.36786906955E+02 -0.19531901084E+02  0.11790105475E+00  0.41650757303E+02  0.00000000000E+00 0. -1.
</event>
<event>
 7    1  0.2285268E-015  0.9000776E+02  0.7816164E-02  0.1186339E+00
        -11   -1    0    0    0    0  0.00000000000E+00  0.00000000000E+00  0.45593999997E+02  0.45594000000E+02  0.51100000000E-03 0.  1.
         11   -1    0    0    0    0 -0.00000000000E+00 -0.00000000000E+00 -0.45593999997E+02  0.45594000000E+02  0.51100000000E-03 0. -1.
    9900012    2    1    2    0    0 -0.40807169819E+00 -0.89968630247E+00  0.64576341387E+00  0.90007759202E+02  0.90000020824E+02 0.  0.
         12    1    1    2    0    0  0.40807169819E+00  0.89968630247E+00 -0.64576341387E+00  0.11802407976E+01  0.00000000000E+00 0. -1.
         11    1    3    3    0    0 -0.26242841755E+02 -0.26744501138E+02 -0.16433904294E+02  0.40914890873E+02  0.51100000000E-03 0. -1.
        -11    1    3    3    0    0 -0.24765276311E+01  0.12527874870E+01  0.10699210531E+02  0.11053314971E+02  0.51100000000E-03 0.  1.
        -12    1    3    3    0    0  0.28311297688E+02  0.24592027349E+02  0.63804571767E+01  0.38039553358E+02  0.00000000000E+00 0.  1.
</event>
<event>
 7    1  0.2285268E-015  0.9000777E+02  0.7816164E-02  0.1186339E+00
        -11   -1    0    0    0    0  0.00000000000E+00  0.00000000000E+00  0.45593999997E+02  0.45594000000E+02  0.51100000000E-03 0.  1.
         11   -1    0    0    0    0 -0.00000000000E+00 -0.00000000000E+00 -0.45593999997E+02  0.45594000000E+02  0.51100000000E-03 0. -1.
    9900012    2    1    2    0    0  0.96027727292E+00  0.53847087739E+00  0.42528449603E+00  0.90007766875E+02  0.90000028598E+02 0.  0.
         12    1    1    2    0    0 -0.96027727292E+00 -0.53847087739E+00 -0.42528449603E+00  0.11802331250E+01  0.00000000000E+00 0. -1.
         11    1    3    3    0    0 -0.21148315837E+01  0.93774742764E+01  0.56018625628E+01  0.11126113466E+02  0.51100000000E-03 0. -1.
        -11    1    3    3    0    0  0.32787330375E+01  0.30665647669E+02  0.15253499296E+02  0.34406413332E+02  0.51100000000E-03 0.  1.
         12    1    3    3    0    0 -0.20362418089E+00 -0.39504651069E+02 -0.20430077363E+02  0.44475240077E+02  0.00000000000E+00 0. -1.
</event>
<event>
 7    1  0.2285268E-015  0.9000773E+02  0.7816164E-02  0.1186339E+00
        -11   -1    0    0    0    0  0.00000000000E+00  0.00000000000E+00  0.45593999997E+02  0.45594000000E+02  0.51100000000E-03 0.  1.
         11   -1    0    0    0    0 -0.00000000000E+00 -0.00000000000E+00 -0.45593999997E+02  0.45594000000E+02  0.51100000000E-03 0. -1.
    9900012    2    1    2    0    0 -0.98953538535E+00 -0.41385292084E+00 -0.49252590761E+00  0.90007730417E+02  0.89999991658E+02 0.  0.
         12    1    1    2    0    0  0.98953538535E+00  0.41385292084E+00  0.49252590761E+00  0.11802695830E+01  0.00000000000E+00 0. -1.
         11    1    3    3    0    0  0.81706863149E+01  0.71030016618E+01  0.53797220001E+00  0.10839841411E+02  0.51100000000E-03 0. -1.
        -11    1    3    3    0    0  0.21560015066E+02 -0.10549894236E+02  0.27939151939E+02  0.36833825885E+02  0.51100000000E-03 0.  1.
         12    1    3    3    0    0 -0.30720236766E+02  0.30330396537E+01 -0.28969650046E+02  0.42334063121E+02  0.00000000000E+00 0. -1.
</event>
<event>
 7    1  0.2285268E-015  0.9000772E+02  0.7816164E-02  0.1186339E+00
        -11   -1    0    0    0    0  0.00000000000E+00  0.00000000000E+00  0.45593999997E+02  0.45594000000E+02  0.51100000000E-03 0. -1.
         11   -1    0    0    0    0 -0.00000000000E+00 -0.00000000000E+00 -0.45593999997E+02  0.45594000000E+02  0.51100000000E-03 0.  1.
    9900012    2    1    2    0    0  0.26971567813E+00 -0.32511232044E+00 -0.11020966018E+01  0.90007719742E+02  0.89999980842E+02 0.  0.
         12    1    1    2    0    0 -0.26971567813E+00  0.32511232044E+00  0.11020966018E+01  0.11802802581E+01  0.00000000000E+00 0. -1.
         11    1    3    3    0    0  0.16014556880E+01 -0.20557791459E+02  0.32309548278E+02  0.38328766745E+02  0.51100000000E-03 0. -1.
        -11    1    3    3    0    0  0.84130431174E+01 -0.40416730639E+01 -0.11187374929E+00  0.93341808236E+01  0.51100000000E-03 0.  1.
        -12    1    3    3    0    0 -0.97447831273E+01  0.24274352202E+02 -0.33299771131E+02  0.42344772173E+02  0.00000000000E+00 0.  1.
</event>
<event>
 7    1  0.2285268E-015  0.9000775E+02  0.7816164E-02  0.1186339E+00
        -11   -1    0    0    0    0  0.00000000000E+00  0.00000000000E+00  0.45593999997E+02  0.45594000000E+02  0.51100000000E-03 0. -1.
         11   -1    0    0    0    0 -0.00000000000E+00 -0.00000000000E+00 -0.45593999997E+02  0.45594000000E+02  0.51100000000E-03 0.  1.
    9900012    2    1    2    0    0  0.19985153882E+00  0.78614026741E+00 -0.85733702014E+00  0.90007752601E+02  0.90000014135E+02 0.  0.
         12    1    1    2    0    0 -0.19985153882E+00 -0.78614026741E+00  0.85733702014E+00  0.11802473994E+01  0.00000000000E+00 0. -1.
         11    1    3    3    0    0 -0.27347022126E+02  0.20233510424E+02  0.20009976577E+02  0.39467122090E+02  0.51100000000E-03 0. -1.
        -11    1    3    3    0    0  0.16034184116E+01  0.80152459547E+01 -0.48643875482E+01  0.95119600923E+01  0.51100000000E-03 0.  1.
        -12    1    3    3    0    0  0.25943455253E+02 -0.27462616111E+02 -0.16002926049E+02  0.41028670418E+02  0.00000000000E+00 0.  1.
</event>
<event>
 7    1  0.2285268E-015  0.9000838E+02  0.7816164E-02  0.1186338E+00
        -11   -1    0    0    0    0  0.00000000000E+00  0.00000000000E+00  0.45593999997E+02  0.45594000000E+02  0.51100000000E-03 0.  1.
         11   -1    0    0    0    0 -0.00000000000E+00 -0.00000000000E+00 -0.45593999997E+02  0.45594000000E+02  0.51100000000E-03 0. -1.
    9900012    2    1    2    0    0 -0.13200835892E+00  0.89313121918E+00 -0.75921116262E+00  0.90008376683E+02  0.90000646452E+02 0.  0.
         12    1    1    2    0    0  0.13200835892E+00 -0.89313121918E+00  0.75921116262E+00  0.11796233174E+01  0.00000000000E+00 0. -1.
         11    1    3    3    0    0  0.11910684260E+01  0.40058470197E+02 -0.90783949083E+01  0.41091567662E+02  0.51100000000E-03 0. -1.
        -11    1    3    3    0    0  0.88188706232E+01 -0.16259396154E+01  0.39082110129E+01  0.97821404756E+01  0.51100000000E-03 0.  1.
        -12    1    3    3    0    0 -0.10141947408E+02 -0.37539399362E+02  0.44109727328E+01  0.39134668545E+02  0.00000000000E+00 0.  1.
</event>
<event>
 7    1  0.2285268E-015  0.9000765E+02  0.7816164E-02  0.1186339E+00
        -11   -1    0    0    0    0  0.00000000000E+00  0.00000000000E+00  0.45593999997E+02  0.45594000000E+02  0.51100000000E-03 0. -1.
         11   -1    0    0    0    0 -0.00000000000E+00 -0.00000000000E+00 -0.45593999997E+02  0.45594000000E+02  0.51100000000E-03 0.  1.
    9900012    2    1    2    0    0  0.69327734635E+00 -0.92897859674E+00 -0.22269791505E+00  0.90007648750E+02  0.89999908913E+02 0.  0.
         12    1    1    2    0    0 -0.69327734635E+00  0.92897859674E+00  0.22269791505E+00  0.11803512501E+01  0.00000000000E+00 0. -1.
         11    1    3    3    0    0 -0.26256723843E+02 -0.26011357596E+02  0.63723303733E+01  0.37504837896E+02  0.51100000000E-03 0. -1.
        -11    1    3    3    0    0 -0.86625684282E+01  0.46120044464E+01 -0.58384290750E+01  0.11419191351E+02  0.51100000000E-03 0.  1.
        -12    1    3    3    0    0  0.35612569618E+02  0.20470374553E+02 -0.75659921333E+00  0.41083619503E+02  0.00000000000E+00 0.  1.
</event>
<event>
 7    1  0.2285268E-015  0.9000736E+02  0.7816164E-02  0.1186340E+00
        -11   -1    0    0    0    0  0.00000000000E+00  0.00000000000E+00  0.45593999997E+02  0.45594000000E+02  0.51100000000E-03 0.  1.
         11   -1    0    0    0    0 -0.00000000000E+00 -0.00000000000E+00 -0.45593999997E+02  0.45594000000E+02  0.51100000000E-03 0. -1.
    9900012    2    1    2    0    0  0.11355226675E+01  0.19068607918E+00 -0.26100994160E+00  0.90007364959E+02  0.89999621376E+02 0.  0.
         12    1    1    2    0    0 -0.11355226675E+01 -0.19068607918E+00  0.26100994160E+00  0.11806350405E+01  0.00000000000E+00 0. -1.
         11    1    3    3    0    0  0.62859665634E+01  0.34562838540E+01 -0.37481565334E+01  0.80936982508E+01  0.51100000000E-03 0. -1.
        -11    1    3    3    0    0  0.29999406340E+02  0.13112156240E+02  0.21487635519E+02  0.39161352154E+02  0.51100000000E-03 0.  1.
         12    1    3    3    0    0 -0.35149850236E+02 -0.16377754015E+02 -0.18000488927E+02  0.42752314555E+02  0.00000000000E+00 0. -1.
</event>
<event>
 7    1  0.2285268E-015  0.9000769E+02  0.7816164E-02  0.1186339E+00
        -11   -1    0    0    0    0  0.00000000000E+00  0.00000000000E+00  0.45593999997E+02  0.45594000000E+02  0.51100000000E-03 0.  1.
         11   -1    0    0    0    0 -0.00000000000E+00 -0.00000000000E+00 -0.45593999997E+02  0.45594000000E+02  0.51100000000E-03 0. -1.
    9900012    2    1    2    0    0  0.16426625782E-01 -0.11783014987E+01 -0.66779074583E-01  0.90007693387E+02  0.89999954140E+02 0.  0.
         12    1    1    2    0    0 -0.16426625782E-01  0.11783014987E+01  0.66779074583E-01  0.11803066130E+01  0.00000000000E+00 0. -1.
         11    1    3    3    0    0  0.73780772158E+01  0.43642316416E+01 -0.27907306076E+01  0.90150273882E+01  0.51100000000E-03 0. -1.
        -11    1    3    3    0    0 -0.38720885733E+02  0.12091304250E+02  0.14590506159E+02  0.43109041983E+02  0.51100000000E-03 0.  1.
         12    1    3    3    0    0  0.31359235143E+02 -0.17633837391E+02 -0.11866554626E+02  0.37883624016E+02  0.00000000000E+00 0. -1.
</event>
<event>
 7    1  0.2285268E-015  0.9000775E+02  0.7816164E-02  0.1186339E+00
        -11   -1    0    0    0    0  0.00000000000E+00  0.00000000000E+00  0.45593999997E+02  0.45594000000E+02  0.51100000000E-03 0.  1.
         11   -1    0    0    0    0 -0.00000000000E+00 -0.00000000000E+00 -0.45593999997E+02  0.45594000000E+02  0.51100000000E-03 0. -1.
    9900012    2    1    2    0    0  0.25165589066E+00 -0.10848809521E+01  0.39075975543E+00  0.90007749792E+02  0.90000011289E+02 0.  0.
         12    1    1    2    0    0 -0.25165589066E+00  0.10848809521E+01 -0.39075975543E+00  0.11802502082E+01  0.00000000000E+00 0. -1.
         11    1    3    3    0    0 -0.22013667867E+01  0.24745395439E+02 -0.32307107374E+02  0.40754506478E+02  0.51100000000E-03 0. -1.
        -11    1    3    3    0    0 -0.50078851376E+01  0.36447943341E+01  0.77660149220E+01  0.99335002552E+01  0.51100000000E-03 0.  1.
        -12    1    3    3    0    0  0.74609078150E+01 -0.29475070725E+02  0.24931852208E+02  0.39319743058E+02  0.00000000000E+00 0.  1.
</event>
<event>
 7    1  0.2285268E-015  0.9000771E+02  0.7816164E-02  0.1186339E+00
        -11   -1    0    0    0    0  0.00000000000E+00  0.00000000000E+00  0.45593999997E+02  0.45594000000E+02  0.51100000000E-03 0.  1.
         11   -1    0    0    0    0 -0.00000000000E+00 -0.00000000000E+00 -0.45593999997E+02  0.45594000000E+02  0.51100000000E-03 0. -1.
    9900012    2    1    2    0    0 -0.73535497098E+00 -0.16557446326E+00 -0.90825637558E+00  0.90007707036E+02  0.89999967969E+02 0.  0.
         12    1    1    2    0    0  0.73535497098E+00  0.16557446326E+00  0.90825637558E+00  0.11802929636E+01  0.00000000000E+00 0. -1.
         11    1    3    3    0    0  0.34753322984E+02  0.31379166866E+01 -0.15489743108E+02  0.38178162886E+02  0.51100000000E-03 0. -1.
        -11    1    3    3    0    0  0.28664283902E+00  0.38072310032E+00 -0.88775688215E+01  0.88903510976E+01  0.51100000000E-03 0.  1.
        -12    1    3    3    0    0 -0.35775320794E+02 -0.36842142502E+01  0.23459055554E+02  0.42939193053E+02  0.00000000000E+00 0.  1.
</event>
<event>
 7    1  0.2285268E-015  0.9000732E+02  0.7816164E-02  0.1186340E+00
        -11   -1    0    0    0    0  0.00000000000E+00  0.00000000000E+00  0.45593999997E+02  0.45594000000E+02  0.51100000000E-03 0.  1.
         11   -1    0    0    0    0 -0.00000000000E+00 -0.00000000000E+00 -0.45593999997E+02  0.45594000000E+02  0.51100000000E-03 0. -1.
    9900012    2    1    2    0    0 -0.73052978757E+00  0.73110359584E+00  0.57081119564E+00  0.90007317291E+02  0.89999573078E+02 0.  0.
         12    1    1    2    0    0  0.73052978757E+00 -0.73110359584E+00 -0.57081119564E+00  0.11806827090E+01  0.00000000000E+00 0. -1.
         11    1    3    3    0    0  0.29460208078E+01 -0.24264115946E+01 -0.90501337273E+01  0.98219872007E+01  0.51100000000E-03 0. -1.
        -11    1    3    3    0    0  0.55966862676E+01  0.38093511699E+02 -0.89777172930E+01  0.39535274614E+02  0.51100000000E-03 0.  1.
         12    1    3    3    0    0 -0.92732368630E+01 -0.34935996509E+02  0.18598662216E+02  0.40650055476E+02  0.00000000000E+00 0. -1.
</event>
<event>
 7    1  0.2285268E-015  0.9000779E+02  0.7816164E-02  0.1186339E+00
        -11   -1    0    0    0    0  0.00000000000E+00  0.00000000000E+00  0.45593999997E+02  0.45594000000E+02  0.51100000000E-03 0.  1.
         11   -1    0    0    0    0 -0.00000000000E+00 -0.00000000000E+00 -0.45593999997E+02  0.45594000000E+02  0.51100000000E-03 0. -1.
    9900012    2    1    2    0    0 -0.60363700982E+00 -0.30159604315E+00  0.96828105534E+00  0.90007785606E+02  0.90000047576E+02 0.  0.
         12    1    1    2    0    0  0.60363700982E+00  0.30159604315E+00 -0.96828105534E+00  0.11802143937E+01  0.00000000000E+00 0. -1.
         11    1    3    3    0    0  0.47928801140E+01 -0.96348217148E+01  0.66342330562E+00  0.10781540707E+02  0.51100000000E-03 0. -1.
        -11    1    3    3    0    0 -0.36381059592E+02 -0.10106630983E+02  0.13853034573E+02  0.40219796792E+02  0.51100000000E-03 0.  1.
         12    1    3    3    0    0  0.30984542468E+02  0.19439856655E+02 -0.13548176823E+02  0.39006448107E+02  0.00000000000E+00 0. -1.
</event>
<event>
 7    1  0.2285268E-015  0.9000773E+02  0.7816164E-02  0.1186339E+00
        -11   -1    0    0    0    0  0.00000000000E+00  0.00000000000E+00  0.45593999997E+02  0.45594000000E+02  0.51100000000E-03 0.  1.
         11   -1    0    0    0    0 -0.00000000000E+00 -0.00000000000E+00 -0.45593999997E+02  0.45594000000E+02  0.51100000000E-03 0. -1.
    9900012    2    1    2    0    0  0.70656220243E+00 -0.77905591161E+00  0.53561841360E+00  0.90007726581E+02  0.89999987772E+02 0.  0.
         12    1    1    2    0    0 -0.70656220243E+00  0.77905591161E+00 -0.53561841360E+00  0.11802734193E+01  0.00000000000E+00 0. -1.
         11    1    3    3    0    0  0.29302613702E+02 -0.76588322667E+01 -0.27636328999E+02  0.41000823922E+02  0.51100000000E-03 0. -1.
        -11    1    3    3    0    0 -0.54202240398E+01 -0.47501534578E+01 -0.35512230835E+01  0.80345486596E+01  0.51100000000E-03 0.  1.
        -12    1    3    3    0    0 -0.23175827460E+02  0.11629929813E+02  0.31723170496E+02  0.40972353999E+02  0.00000000000E+00 0.  1.
</event>
<event>
 7    1  0.2285268E-015  0.9000781E+02  0.7816164E-02  0.1186339E+00
        -11   -1    0    0    0    0  0.00000000000E+00  0.00000000000E+00  0.45593999997E+02  0.45594000000E+02  0.51100000000E-03 0. -1.
         11   -1    0    0    0    0 -0.00000000000E+00 -0.00000000000E+00 -0.45593999997E+02  0.45594000000E+02  0.51100000000E-03 0.  1.
    9900012    2    1    2    0    0  0.24582306481E+00  0.10104990285E+01 -0.55795557238E+00  0.90007808623E+02  0.90000070897E+02 0.  0.
         12    1    1    2    0    0 -0.24582306481E+00 -0.10104990285E+01  0.55795557238E+00  0.11801913771E+01  0.00000000000E+00 0. -1.
         11    1    3    3    0    0 -0.61320630925E+01  0.18131039257E+01  0.76963950124E+01  0.10006200081E+02  0.51100000000E-03 0. -1.
        -11    1    3    3    0    0 -0.35643672934E+02 -0.11725236794E+01  0.48300409639E+01  0.35988547178E+02  0.51100000000E-03 0.  1.
         12    1    3    3    0    0  0.42021559092E+02  0.36991878211E+00 -0.13084391549E+02  0.44013061364E+02  0.00000000000E+00 0. -1.
</event>
<event>
 7    1  0.2285268E-015  0.9000763E+02  0.7816164E-02  0.1186339E+00
        -11   -1    0    0    0    0  0.00000000000E+00  0.00000000000E+00  0.45593999997E+02  0.45594000000E+02  0.51100000000E-03 0.  1.
         11   -1    0    0    0    0 -0.00000000000E+00 -0.00000000000E+00 -0.45593999997E+02  0.45594000000E+02  0.51100000000E-03 0. -1.
    9900012    2    1    2    0    0  0.36666173545E+00 -0.99210330152E+00  0.52399725296E+00  0.90007625945E+02  0.89999885807E+02 0.  0.
         12    1    1    2    0    0 -0.36666173545E+00  0.99210330152E+00 -0.52399725296E+00  0.11803740552E+01  0.00000000000E+00 0. -1.
         11    1    3    3    0    0  0.11961952729E+02 -0.24037109189E+02 -0.25821240817E+02  0.37250602798E+02  0.51100000000E-03 0. -1.
        -11    1    3    3    0    0  0.84105846533E+01  0.97785394063E+01 -0.45100532276E+01  0.13663760372E+02  0.51100000000E-03 0.  1.
        -12    1    3    3    0    0 -0.20005875646E+02  0.13266466481E+02  0.30855291298E+02  0.39093262774E+02  0.00000000000E+00 0.  1.
</event>
<event>
 7    1  0.2285268E-015  0.9000758E+02  0.7816164E-02  0.1186339E+00
        -11   -1    0    0    0    0  0.00000000000E+00  0.00000000000E+00  0.45593999997E+02  0.45594000000E+02  0.51100000000E-03 0. -1.
         11   -1    0    0    0    0 -0.00000000000E+00 -0.00000000000E+00 -0.45593999997E+02  0.45594000000E+02  0.51100000000E-03 0.  1.
    9900012    2    1    2    0    0  0.10216283883E+01  0.47803555271E+00  0.34806768065E+00  0.90007579031E+02  0.89999838274E+02 0.  0.
         12    1    1    2    0    0 -0.10216283883E+01 -0.47803555271E+00 -0.34806768065E+00  0.11804209688E+01  0.00000000000E+00 0. -1.
         11    1    3    3    0    0 -0.19169400503E+02  0.27029624472E+01  0.30098248019E+02  0.35786540147E+02  0.51100000000E-03 0. -1.
        -11    1    3    3    0    0 -0.68226604743E+01 -0.80982707072E+00  0.61836358491E+01  0.92434770735E+01  0.51100000000E-03 0.  1.
        -12    1    3    3    0    0  0.27013689366E+02 -0.14150998237E+01 -0.35933816187E+02  0.44977561811E+02  0.00000000000E+00 0.  1.
</event>
<event>
 7    1  0.2285268E-015  0.9000770E+02  0.7816164E-02  0.1186339E+00
        -11   -1    0    0    0    0  0.00000000000E+00  0.00000000000E+00  0.45593999997E+02  0.45594000000E+02  0.51100000000E-03 0.  1.
         11   -1    0    0    0    0 -0.00000000000E+00 -0.00000000000E+00 -0.45593999997E+02  0.45594000000E+02  0.51100000000E-03 0. -1.
    9900012    2    1    2    0    0  0.11601521794E+00 -0.72696588990E-01  0.11723289250E+01  0.90007703667E+02  0.89999964556E+02 0.  0.
         12    1    1    2    0    0 -0.11601521794E+00  0.72696588990E-01 -0.11723289250E+01  0.11802963328E+01  0.00000000000E+00 0. -1.
         11    1    3    3    0    0  0.83590376939E+01  0.33594120383E+02 -0.10053035899E+02  0.36048605611E+02  0.51100000000E-03 0. -1.
        -11    1    3    3    0    0 -0.31072361466E+01  0.86358508370E+01  0.61426202858E+01  0.11043759341E+02  0.51100000000E-03 0.  1.
        -12    1    3    3    0    0 -0.51357863293E+01 -0.42302667809E+02  0.50827445384E+01  0.42915338715E+02  0.00000000000E+00 0.  1.
</event>
<event>
 7    1  0.2285268E-015  0.9000772E+02  0.7816164E-02  0.1186339E+00
        -11   -1    0    0    0    0  0.00000000000E+00  0.00000000000E+00  0.45593999997E+02  0.45594000000E+02  0.51100000000E-03 0. -1.
         11   -1    0    0    0    0 -0.00000000000E+00 -0.00000000000E+00 -0.45593999997E+02  0.45594000000E+02  0.51100000000E-03 0.  1.
    9900012    2    1    2    0    0 -0.11808941898E+00 -0.11113882835E+01  0.37939544877E+00  0.90007716164E+02  0.89999977217E+02 0.  0.
         12    1    1    2    0    0  0.11808941898E+00  0.11113882835E+01 -0.37939544877E+00  0.11802838362E+01  0.00000000000E+00 0. -1.
         11    1    3    3    0    0  0.74016638641E+01  0.27995570170E+00 -0.36511773907E+01  0.82579718909E+01  0.51100000000E-03 0. -1.
        -11    1    3    3    0    0  0.31457460973E+02  0.14956057827E+02 -0.11559224385E+02  0.36699743667E+02  0.51100000000E-03 0.  1.
         12    1    3    3    0    0 -0.38977214256E+02 -0.16347401812E+02  0.15589797224E+02  0.45050000606E+02  0.00000000000E+00 0. -1.
</event>
<event>
 7    1  0.2285268E-015  0.9000765E+02  0.7816164E-02  0.1186339E+00
        -11   -1    0    0    0    0  0.00000000000E+00  0.00000000000E+00  0.45593999997E+02  0.45594000000E+02  0.51100000000E-03 0.  1.
         11   -1    0    0    0    0 -0.00000000000E+00 -0.00000000000E+00 -0.45593999997E+02  0.45594000000E+02  0.51100000000E-03 0. -1.
    9900012    2    1    2    0    0 -0.71546769686E+00 -0.93855577405E+00  0.21003513951E-01  0.90007651698E+02  0.89999911900E+02 0.  0.
         12    1    1    2    0    0  0.71546769686E+00  0.93855577405E+00 -0.21003513951E-01  0.11803483019E+01  0.00000000000E+00 0. -1.
         11    1    3    3    0    0  0.68732663681E+01 -0.24299538026E+01  0.63739712094E+00  0.73179738590E+01  0.51100000000E-03 0. -1.
        -11    1    3    3    0    0  0.16153488204E+02 -0.56066070944E+01  0.35201838917E+02  0.39134878148E+02  0.51100000000E-03 0.  1.
         12    1    3    3    0    0 -0.23742222269E+02  0.70980051230E+01 -0.35818232524E+02  0.43554799691E+02  0.00000000000E+00 0. -1.
</event>
<event>
 7    1  0.2285268E-015  0.9000789E+02  0.7816164E-02  0.1186339E+00
        -11   -1    0    0    0    0  0.00000000000E+00  0.00000000000E+00  0.45593999997E+02  0.45594000000E+02  0.51100000000E-03 0. -1.
         11   -1    0    0    0    0 -0.00000000000E+00 -0.00000000000E+00 -0.45593999997E+02  0.45594000000E+02  0.51100000000E-03 0.  1.
    9900012    2    1    2    0    0 -0.83980576749E+00  0.45530176303E-02 -0.82907294885E+00  0.90007891356E+02  0.90000154722E+02 0.  0.
         12    1    1    2    0    0  0.83980576749E+00 -0.45530176303E-02  0.82907294885E+00  0.11801086440E+01  0.00000000000E+00 0. -1.
         11    1    3    3    0    0 -0.35430662804E+02  0.24752241956E+01  0.76694867815E+01  0.36335652317E+02  0.51100000000E-03 0. -1.
        -11    1    3    3    0    0 -0.72290296317E+01 -0.10798402319E+01  0.59291598585E+01  0.94116874806E+01  0.51100000000E-03 0.  1.
        -12    1    3    3    0    0  0.41819886669E+02 -0.13908309462E+01 -0.14427719589E+02  0.44260551558E+02  0.00000000000E+00 0.  1.
</event>
<event>
 7    1  0.2285268E-015  0.9000772E+02  0.7816164E-02  0.1186339E+00
        -11   -1    0    0    0    0  0.00000000000E+00  0.00000000000E+00  0.45593999997E+02  0.45594000000E+02  0.51100000000E-03 0.  1.
         11   -1    0    0    0    0 -0.00000000000E+00 -0.00000000000E+00 -0.45593999997E+02  0.45594000000E+02  0.51100000000E-03 0. -1.
    9900012    2    1    2    0    0 -0.91441167014E+00 -0.48193599199E+00 -0.56978616949E+00  0.90007717287E+02  0.89999978356E+02 0.  0.
         12    1    1    2    0    0  0.91441167014E+00  0.48193599199E+00  0.56978616949E+00  0.11802827127E+01  0.00000000000E+00 0. -1.
         11    1    3    3    0    0  0.23061136166E+02  0.21416725491E+02 -0.24050645482E+02  0.39609666502E+02  0.51100000000E-03 0. -1.
        -11    1    3    3    0    0  0.70628191167E+01 -0.98980672704E+00  0.45349496783E+01  0.84515619904E+01  0.51100000000E-03 0.  1.
        -12    1    3    3    0    0 -0.31038366953E+02 -0.20908854756E+02  0.18945909635E+02  0.41946488795E+02  0.00000000000E+00 0.  1.
</event>
<event>
 7    1  0.2285268E-015  0.9000777E+02  0.7816164E-02  0.1186339E+00
        -11   -1    0    0    0    0  0.00000000000E+00  0.00000000000E+00  0.45593999997E+02  0.45594000000E+02  0.51100000000E-03 0. -1.
         11   -1    0    0    0    0 -0.00000000000E+00 -0.00000000000E+00 -0.45593999997E+02  0.45594000000E+02  0.51100000000E-03 0.  1.
    9900012    2    1    2    0    0 -0.49019720683E+00 -0.74126978736E-01 -0.10710481410E+01  0.90007774500E+02  0.90000036323E+02 0.  0.
         12    1    1    2    0    0  0.49019720683E+00  0.74126978736E-01  0.10710481410E+01  0.11802255001E+01  0.00000000000E+00 0. -1.
         11    1    3    3    0    0 -0.30695807222E+02 -0.43818302637E+01  0.32102571230E+02  0.44631917921E+02  0.51100000000E-03 0. -1.
        -11    1    3    3    0    0  0.76177464154E+01  0.11874952400E+01 -0.52627105955E+01  0.93346841654E+01  0.51100000000E-03 0.  1.
        -12    1    3    3    0    0  0.22587863600E+02  0.31202080449E+01 -0.27910908775E+02  0.36041172413E+02  0.00000000000E+00 0.  1.
</event>
<event>
 7    1  0.2285268E-015  0.9000777E+02  0.7816164E-02  0.1186339E+00
        -11   -1    0    0    0    0  0.00000000000E+00  0.00000000000E+00  0.45593999997E+02  0.45594000000E+02  0.51100000000E-03 0.  1.
         11   -1    0    0    0    0 -0.00000000000E+00 -0.00000000000E+00 -0.45593999997E+02  0.45594000000E+02  0.51100000000E-03 0. -1.
    9900012    2    1    2    0    0 -0.11445751407E+01  0.18682678889E+00  0.21906589058E+00  0.90007768512E+02  0.90000030256E+02 0.  0.
         12    1    1    2    0    0  0.11445751407E+01 -0.18682678889E+00 -0.21906589058E+00  0.11802314884E+01  0.00000000000E+00 0. -1.
         11    1    3    3    0    0 -0.52173829396E+01 -0.56155514617E+01 -0.37408838185E+01  0.85293443454E+01  0.51100000000E-03 0. -1.
        -11    1    3    3    0    0 -0.30493925350E+01  0.19554876466E+02  0.38686429498E+02  0.43454940064E+02  0.51100000000E-03 0.  1.
         12    1    3    3    0    0  0.71222003339E+01 -0.13752498215E+02 -0.34726479789E+02  0.38023484102E+02  0.00000000000E+00 0. -1.
</event>
<event>
 7    1  0.2285268E-015  0.9000794E+02  0.7816164E-02  0.1186339E+00
        -11   -1    0    0    0    0  0.00000000000E+00  0.00000000000E+00  0.45593999997E+02  0.45594000000E+02  0.51100000000E-03 0.  1.
         11   -1    0    0    0    0 -0.00000000000E+00 -0.00000000000E+00 -0.45593999997E+02  0.45594000000E+02  0.51100000000E-03 0. -1.
    9900012    2    1    2    0    0  0.84765910151E+00 -0.53099716854E+00 -0.62614448615E+00  0.90007940314E+02  0.90000204326E+02 0.  0.
         12    1    1    2    0    0 -0.84765910151E+00  0.53099716854E+00  0.62614448615E+00  0.11800596862E+01  0.00000000000E+00 0. -1.
         11    1    3    3    0    0  0.11935493292E+02 -0.72922735024E+01 -0.70568082095E+01  0.15666262966E+02  0.51100000000E-03 0. -1.
        -11    1    3    3    0    0  0.88865951454E+01 -0.22140202124E+02  0.25039655098E+02  0.34585321323E+02  0.51100000000E-03 0.  1.
         12    1    3    3    0    0 -0.19974429336E+02  0.28901478457E+02 -0.18608991375E+02  0.39756356024E+02  0.00000000000E+00 0. -1.
</event>
<event>
 7    1  0.2285268E-015  0.9000772E+02  0.7816164E-02  0.1186339E+00
        -11   -1    0    0    0    0  0.00000000000E+00  0.00000000000E+00  0.45593999997E+02  0.45594000000E+02  0.51100000000E-03 0.  1.
         11   -1    0    0    0    0 -0.00000000000E+00 -0.00000000000E+00 -0.45593999997E+02  0.45594000000E+02  0.51100000000E-03 0. -1.
    9900012    2    1    2    0    0 -0.92876630372E+00  0.71368681808E+00 -0.14528366791E+00  0.90007719074E+02  0.89999980165E+02 0.  0.
         12    1    1    2    0    0  0.92876630372E+00 -0.71368681808E+00  0.14528366791E+00  0.11802809265E+01  0.00000000000E+00 0. -1.
         11    1    3    3    0    0 -0.47730837329E+01  0.34424658794E+01  0.15788658646E+02  0.16849766816E+02  0.51100000000E-03 0. -1.
        -11    1    3    3    0    0 -0.18669984776E+02  0.26965832476E+02 -0.14513948464E+02  0.35866128212E+02  0.51100000000E-03 0.  1.
         12    1    3    3    0    0  0.22514302206E+02 -0.29694611537E+02 -0.14199938500E+01  0.37291824046E+02  0.00000000000E+00 0. -1.
</event>
<event>
 7    1  0.2285268E-015  0.9000748E+02  0.7816164E-02  0.1186340E+00
        -11   -1    0    0    0    0  0.00000000000E+00  0.00000000000E+00  0.45593999997E+02  0.45594000000E+02  0.51100000000E-03 0. -1.
         11   -1    0    0    0    0 -0.00000000000E+00 -0.00000000000E+00 -0.45593999997E+02  0.45594000000E+02  0.51100000000E-03 0.  1.
    9900012    2    1    2    0    0  0.65511056765E+00 -0.77628275248E+00 -0.60153191793E+00  0.90007480870E+02  0.89999738817E+02 0.  0.
         12    1    1    2    0    0 -0.65511056765E+00  0.77628275248E+00  0.60153191793E+00  0.11805191299E+01  0.00000000000E+00 0. -1.
         11    1    3    3    0    0  0.10803897587E+01  0.46359143263E+01 -0.91305349901E+01  0.10296873950E+02  0.51100000000E-03 0. -1.
        -11    1    3    3    0    0 -0.64761726556E+01 -0.15351756818E+02 -0.32792075439E+02  0.36782298209E+02  0.51100000000E-03 0.  1.
         12    1    3    3    0    0  0.60508934645E+01  0.99395597397E+01  0.41321078511E+02  0.42928308712E+02  0.00000000000E+00 0. -1.
</event>
<event>
 7    1  0.2285268E-015  0.9000686E+02  0.7816164E-02  0.1186341E+00
        -11   -1    0    0    0    0  0.00000000000E+00  0.00000000000E+00  0.45593999997E+02  0.45594000000E+02  0.51100000000E-03 0.  1.
         11   -1    0    0    0    0 -0.00000000000E+00 -0.00000000000E+00 -0.45593999997E+02  0.45594000000E+02  0.51100000000E-03 0. -1.
    9900012    2    1    2    0    0  0.70347825711E-01 -0.11476139590E+01 -0.27043707190E+00  0.90006855290E+02  0.89999104976E+02 0.  0.
         12    1    1    2    0    0 -0.70347825711E-01  0.11476139590E+01  0.27043707190E+00  0.11811447098E+01  0.00000000000E+00 0. -1.
         11    1    3    3    0    0  0.79059493674E+01  0.11428472933E+00 -0.13087673181E+01  0.80143601463E+01  0.51100000000E-03 0. -1.
        -11    1    3    3    0    0  0.98353072715E+01 -0.37982650733E+02  0.95063435470E+01  0.40370603089E+02  0.51100000000E-03 0.  1.
         12    1    3    3    0    0 -0.17670908813E+02  0.36720752045E+02 -0.84680133008E+01  0.41621892055E+02  0.00000000000E+00 0. -1.
</event>
<event>
 7    1  0.2285268E-015  0.9000763E+02  0.7816164E-02  0.1186339E+00
        -11   -1    0    0    0    0  0.00000000000E+00  0.00000000000E+00  0.45593999997E+02  0.45594000000E+02  0.51100000000E-03 0. -1.
         11   -1    0    0    0    0 -0.00000000000E+00 -0.00000000000E+00 -0.45593999997E+02  0.45594000000E+02  0.51100000000E-03 0.  1.
    9900012    2    1    2    0    0  0.68383610016E+00 -0.69070240784E+00 -0.66975395354E+00  0.90007630572E+02  0.89999890496E+02 0.  0.
         12    1    1    2    0    0 -0.68383610016E+00  0.69070240784E+00  0.66975395354E+00  0.11803694279E+01  0.00000000000E+00 0. -1.
         11    1    3    3    0    0  0.15064643330E+01  0.15423367523E+02  0.87230015436E+01  0.17783150922E+02  0.51100000000E-03 0. -1.
        -11    1    3    3    0    0  0.29224894248E+02  0.78291455237E+01  0.59834678776E+01  0.30841398339E+02  0.51100000000E-03 0.  1.
         12    1    3    3    0    0 -0.30047522480E+02 -0.23943215454E+02 -0.15376223375E+02  0.41383081311E+02  0.00000000000E+00 0. -1.
</event>
<event>
 7    1  0.2285268E-015  0.9000775E+02  0.7816164E-02  0.1186339E+00
        -11   -1    0    0    0    0  0.00000000000E+00  0.00000000000E+00  0.45593999997E+02  0.45594000000E+02  0.51100000000E-03 0.  1.
         11   -1    0    0    0    0 -0.00000000000E+00 -0.00000000000E+00 -0.45593999997E+02  0.45594000000E+02  0.51100000000E-03 0. -1.
    9900012    2    1    2    0    0  0.38011960913E+00 -0.10853105409E+01 -0.26572420455E+00  0.90007746112E+02  0.90000007561E+02 0.  0.
         12    1    1    2    0    0 -0.38011960913E+00  0.10853105409E+01  0.26572420455E+00  0.11802538881E+01  0.00000000000E+00 0. -1.
         11    1    3    3    0    0  0.15808835488E+02 -0.69328913883E+01  0.47430799792E+00  0.17268735646E+02  0.51100000000E-03 0. -1.
        -11    1    3    3    0    0 -0.25680085392E+01  0.36781979518E+02  0.87975754524E+01  0.37906543224E+02  0.51100000000E-03 0.  1.
         12    1    3    3    0    0 -0.12860707339E+02 -0.30934398670E+02 -0.95376076549E+01  0.34832467242E+02  0.00000000000E+00 0. -1.
</event>
<event>
 7    1  0.2285268E-015  0.9000776E+02  0.7816164E-02  0.1186339E+00
        -11   -1    0    0    0    0  0.00000000000E+00  0.00000000000E+00  0.45593999997E+02  0.45594000000E+02  0.51100000000E-03 0. -1.
         11   -1    0    0    0    0 -0.00000000000E+00 -0.00000000000E+00 -0.45593999997E+02  0.45594000000E+02  0.51100000000E-03 0.  1.
    9900012    2    1    2    0    0 -0.75391529126E+00  0.56060130739E+00 -0.71435537819E+00  0.90007760322E+02  0.90000021958E+02 0.  0.
         12    1    1    2    0    0  0.75391529126E+00 -0.56060130739E+00  0.71435537819E+00  0.11802396784E+01  0.00000000000E+00 0. -1.
         11    1    3    3    0    0 -0.19298788218E+02  0.15072581452E+02  0.25216049152E+02  0.35149325362E+02  0.51100000000E-03 0. -1.
        -11    1    3    3    0    0  0.95735933089E+01  0.13335609228E+02 -0.10451072947E+01  0.16449450199E+02  0.51100000000E-03 0.  1.
        -12    1    3    3    0    0  0.89712796183E+01 -0.27847589373E+02 -0.24885297235E+02  0.38408984761E+02  0.00000000000E+00 0.  1.
</event>
<event>
 7    1  0.2285268E-015  0.9000774E+02  0.7816164E-02  0.1186339E+00
        -11   -1    0    0    0    0  0.00000000000E+00  0.00000000000E+00  0.45593999997E+02  0.45594000000E+02  0.51100000000E-03 0.  1.
         11   -1    0    0    0    0 -0.00000000000E+00 -0.00000000000E+00 -0.45593999997E+02  0.45594000000E+02  0.51100000000E-03 0. -1.
    9900012    2    1    2    0    0 -0.37957108481E+00 -0.69780525269E+00  0.87293496350E+00  0.90007736542E+02  0.89999997865E+02 0.  0.
         12    1    1    2    0    0  0.37957108481E+00  0.69780525269E+00 -0.87293496350E+00  0.11802634577E+01  0.00000000000E+00 0. -1.
         11    1    3    3    0    0  0.14245663024E+02  0.50525532798E+01 -0.42857948464E+00  0.15121206641E+02  0.51100000000E-03 0. -1.
        -11    1    3    3    0    0  0.11674125667E+02  0.26643305956E+02  0.12536377948E+02  0.31675096443E+02  0.51100000000E-03 0.  1.
         12    1    3    3    0    0 -0.26299359776E+02 -0.32393664489E+02 -0.11234863500E+02  0.43211433458E+02  0.00000000000E+00 0. -1.
</event>
<event>
 7    1  0.2285268E-015  0.9000781E+02  0.7816164E-02  0.1186339E+00
        -11   -1    0    0    0    0  0.00000000000E+00  0.00000000000E+00  0.45593999997E+02  0.45594000000E+02  0.51100000000E-03 0.  1.
         11   -1    0    0    0    0 -0.00000000000E+00 -0.00000000000E+00 -0.45593999997E+02  0.45594000000E+02  0.51100000000E-03 0. -1.
    9900012    2    1    2    0    0 -0.79061307883E+00  0.67581335599E+00 -0.55771879557E+00  0.90007812308E+02  0.90000074631E+02 0.  0.
         12    1    1    2    0    0  0.79061307883E+00 -0.67581335599E+00  0.55771879557E+00  0.11801876916E+01  0.00000000000E+00 0. -1.
         11    1    3    3    0    0 -0.73556031744E+01  0.31966096551E+01 -0.37214451909E+01  0.88415137797E+01  0.51100000000E-03 0. -1.
        -11    1    3    3    0    0 -0.27073050779E+02 -0.27825256785E+02  0.42838612678E+01  0.39058244472E+02  0.51100000000E-03 0.  1.
         12    1    3    3    0    0  0.33638040874E+02  0.25304460485E+02 -0.11201348725E+01  0.42108054057E+02  0.00000000000E+00 0. -1.
</event>
<event>
 7    1  0.2285268E-015  0.9000775E+02  0.7816164E-02  0.1186339E+00
        -11   -1    0    0    0    0  0.00000000000E+00  0.00000000000E+00  0.45593999997E+02  0.45594000000E+02  0.51100000000E-03 0.  1.
         11   -1    0    0    0    0 -0.00000000000E+00 -0.00000000000E+00 -0.45593999997E+02  0.45594000000E+02  0.51100000000E-03 0. -1.
    9900012    2    1    2    0    0 -0.89057397960E+00  0.63019711950E+00 -0.45024474689E+00  0.90007749707E+02  0.90000011203E+02 0.  0.
         12    1    1    2    0    0  0.89057397960E+00 -0.63019711950E+00  0.45024474689E+00  0.11802502932E+01  0.00000000000E+00 0. -1.
         11    1    3    3    0    0 -0.28865045726E+02  0.78336728958E+01 -0.27909937996E+02  0.40908702436E+02  0.51100000000E-03 0. -1.
        -11    1    3    3    0    0 -0.18278304551E+01 -0.96054625834E+01  0.23532623923E+01  0.10057023405E+02  0.51100000000E-03 0.  1.
        -12    1    3    3    0    0  0.29802302202E+02  0.24019868072E+01  0.25106430857E+02  0.39042023866E+02  0.00000000000E+00 0.  1.
</event>
<event>
 7    1  0.2285268E-015  0.9000768E+02  0.7816164E-02  0.1186339E+00
        -11   -1    0    0    0    0  0.00000000000E+00  0.00000000000E+00  0.45593999997E+02  0.45594000000E+02  0.51100000000E-03 0. -1.
         11   -1    0    0    0    0 -0.00000000000E+00 -0.00000000000E+00 -0.45593999997E+02  0.45594000000E+02  0.51100000000E-03 0.  1.
    9900012    2    1    2    0    0  0.44365216454E+00 -0.10448999626E+01 -0.32327044172E+00  0.90007683537E+02  0.89999944159E+02 0.  0.
         12    1    1    2    0    0 -0.44365216454E+00  0.10448999626E+01  0.32327044172E+00  0.11803164632E+01  0.00000000000E+00 0. -1.
         11    1    3    3    0    0 -0.36403242619E+01 -0.10585187058E+02 -0.30896183990E+01  0.11612230100E+02  0.51100000000E-03 0. -1.
        -11    1    3    3    0    0  0.12629811085E+02 -0.31828780086E+02 -0.72032108968E+01  0.34992422284E+02  0.51100000000E-03 0.  1.
         12    1    3    3    0    0 -0.85458346589E+01  0.41369067182E+02  0.99695588541E+01  0.43403031153E+02  0.00000000000E+00 0. -1.
</event>
<event>
 7    1  0.2285268E-015  0.9000773E+02  0.7816164E-02  0.1186339E+00
        -11   -1    0    0    0    0  0.00000000000E+00  0.00000000000E+00  0.45593999997E+02  0.45594000000E+02  0.51100000000E-03 0.  1.
         11   -1    0    0    0    0 -0.00000000000E+00 -0.00000000000E+00 -0.45593999997E+02  0.45594000000E+02  0.51100000000E-03 0. -1.
    9900012    2    1    2    0    0  0.87844395488E+00  0.66966869328E+00  0.41583754856E+00  0.90007728503E+02  0.89999989719E+02 0.  0.
         12    1    1    2    0    0 -0.87844395488E+00 -0.66966869328E+00 -0.41583754856E+00  0.11802714973E+01  0.00000000000E+00 0. -1.
         11    1    3    3    0    0 -0.36422312109E+01  0.24404534492E+02 -0.27392490555E+02  0.36867271272E+02  0.51100000000E-03 0. -1.
        -11    1    3    3    0    0 -0.22654865434E+01  0.10129584120E+02  0.36947492752E+01  0.11017807231E+02  0.51100000000E-03 0.  1.
        -12    1    3    3    0    0  0.67861617092E+01 -0.33864449918E+02  0.24113578829E+02  0.42122649999E+02  0.00000000000E+00 0.  1.
</event>
<event>
 7    1  0.2285268E-015  0.9000775E+02  0.7816164E-02  0.1186339E+00
        -11   -1    0    0    0    0  0.00000000000E+00  0.00000000000E+00  0.45593999997E+02  0.45594000000E+02  0.51100000000E-03 0. -1.
         11   -1    0    0    0    0 -0.00000000000E+00 -0.00000000000E+00 -0.45593999997E+02  0.45594000000E+02  0.51100000000E-03 0.  1.
    9900012    2    1    2    0    0 -0.53580947550E+00 -0.94457291185E+00  0.46226265793E+00  0.90007747254E+02  0.90000008718E+02 0.  0.
         12    1    1    2    0    0  0.53580947550E+00  0.94457291185E+00 -0.46226265793E+00  0.11802527461E+01  0.00000000000E+00 0. -1.
         11    1    3    3    0    0  0.85261715321E+01  0.34146668658E+02  0.51291501686E+01  0.35566821100E+02  0.51100000000E-03 0. -1.
        -11    1    3    3    0    0  0.35468810706E+01  0.65864653609E+01  0.60236970343E+01  0.96045206805E+01  0.51100000000E-03 0.  1.
        -12    1    3    3    0    0 -0.12608862078E+02 -0.41677706931E+02 -0.10690584545E+02  0.44836405474E+02  0.00000000000E+00 0.  1.
</event>
<event>
 7    1  0.2285268E-015  0.9000751E+02  0.7816164E-02  0.1186340E+00
        -11   -1    0    0    0    0  0.00000000000E+00  0.00000000000E+00  0.45593999997E+02  0.45594000000E+02  0.51100000000E-03 0.  1.
         11   -1    0    0    0    0 -0.00000000000E+00 -0.00000000000E+00 -0.45593999997E+02  0.45594000000E+02  0.51100000000E-03 0. -1.
    9900012    2    1    2    0    0 -0.47036073268E+00 -0.10753120777E+01  0.12658601222E+00  0.90007508873E+02  0.89999767190E+02 0.  0.
         12    1    1    2    0    0  0.47036073268E+00  0.10753120777E+01 -0.12658601222E+00  0.11804911273E+01  0.00000000000E+00 0. -1.
         11    1    3    3    0    0 -0.45143210464E+01  0.95530629084E+01 -0.38127778286E+02  0.39564726497E+02  0.51100000000E-03 0. -1.
        -11    1    3    3    0    0 -0.10309126191E+02 -0.33532924792E+01  0.23431521828E+01  0.11091123283E+02  0.51100000000E-03 0.  1.
        -12    1    3    3    0    0  0.14353086505E+02 -0.72750825068E+01  0.35911212116E+02  0.39351659092E+02  0.00000000000E+00 0.  1.
</event>
<event>
 7    1  0.2285268E-015  0.9000791E+02  0.7816164E-02  0.1186339E+00
        -11   -1    0    0    0    0  0.00000000000E+00  0.00000000000E+00  0.45593999997E+02  0.45594000000E+02  0.51100000000E-03 0.  1.
         11   -1    0    0    0    0 -0.00000000000E+00 -0.00000000000E+00 -0.45593999997E+02  0.45594000000E+02  0.51100000000E-03 0. -1.
    9900012    2    1    2    0    0  0.77542364967E+00 -0.35226415600E+00  0.81685343407E+00  0.90007906188E+02  0.90000169750E+02 0.  0.
         12    1    1    2    0    0 -0.77542364967E+00  0.35226415600E+00 -0.81685343407E+00  0.11800938119E+01  0.00000000000E+00 0. -1.
         11    1    3    3    0    0 -0.87181347191E+01 -0.46251508013E+01  0.48784263274E+01  0.11008948025E+02  0.51100000000E-03 0. -1.
        -11    1    3    3    0    0  0.82207300274E+00 -0.36833058533E+02 -0.61780244625E+00  0.36847410833E+02  0.51100000000E-03 0.  1.
         12    1    3    3    0    0  0.86714853661E+01  0.41105945179E+02 -0.34437704471E+01  0.42151547331E+02  0.00000000000E+00 0. -1.
</event>
<event>
 7    1  0.2285268E-015  0.9000780E+02  0.7816164E-02  0.1186339E+00
        -11   -1    0    0    0    0  0.00000000000E+00  0.00000000000E+00  0.45593999997E+02  0.45594000000E+02  0.51100000000E-03 0. -1.
         11   -1    0    0    0    0 -0.00000000000E+00 -0.00000000000E+00 -0.45593999997E+02  0.45594000000E+02  0.51100000000E-03 0.  1.
    9900012    2    1    2    0    0 -0.63007236696E+00  0.71024026296E+00  0.70102030422E+00  0.90007804302E+02  0.90000066519E+02 0.  0.
         12    1    1    2    0    0  0.63007236696E+00 -0.71024026296E+00 -0.70102030422E+00  0.11801956980E+01  0.00000000000E+00 0. -1.
         11    1    3    3    0    0 -0.78831427415E+01  0.27509618955E+01 -0.16203304373E+00  0.83509272420E+01  0.51100000000E-03 0. -1.
        -11    1    3    3    0    0 -0.10576702378E+02 -0.78340436677E+00  0.38530635639E+02  0.39963611431E+02  0.51100000000E-03 0.  1.
         12    1    3    3    0    0  0.17829772753E+02 -0.12573172657E+01 -0.37667582291E+02  0.41693265629E+02  0.00000000000E+00 0. -1.
</event>
<event>
 7    1  0.2285268E-015  0.9000775E+02  0.7816164E-02  0.1186339E+00
        -11   -1    0    0    0    0  0.00000000000E+00  0.00000000000E+00  0.45593999997E+02  0.45594000000E+02  0.51100000000E-03 0.  1.
         11   -1    0    0    0    0 -0.00000000000E+00 -0.00000000000E+00 -0.45593999997E+02  0.45594000000E+02  0.51100000000E-03 0. -1.
    9900012    2    1    2    0    0 -0.22941650874E+00  0.82906478078E+00  0.80808770228E+00  0.90007751687E+02  0.90000013209E+02 0.  0.
         12    1    1    2    0    0  0.22941650874E+00 -0.82906478078E+00 -0.80808770228E+00  0.11802483128E+01  0.00000000000E+00 0. -1.
         11    1    3    3    0    0 -0.73238362972E+01  0.14602412535E+02 -0.36981551230E+02  0.40429001491E+02  0.51100000000E-03 0. -1.
        -11    1    3    3    0    0  0.79540533417E+01  0.44452699697E+01  0.18816620118E+01  0.93041948525E+01  0.51100000000E-03 0.  1.
        -12    1    3    3    0    0 -0.85963355316E+00 -0.18218617724E+02  0.35907976920E+02  0.40274555344E+02  0.00000000000E+00 0.  1.
</event>
<event>
 7    1  0.2285268E-015  0.9000796E+02  0.7816164E-02  0.1186339E+00
        -11   -1    0    0    0    0  0.00000000000E+00  0.00000000000E+00  0.45593999997E+02  0.45594000000E+02  0.51100000000E-03 0.  1.
         11   -1    0    0    0    0 -0.00000000000E+00 -0.00000000000E+00 -0.45593999997E+02  0.45594000000E+02  0.51100000000E-03 0. -1.
    9900012    2    1    2    0    0  0.56752134006E+00  0.90918059492E+00  0.49377183279E+00  0.90007957438E+02  0.90000221676E+02 0.  0.
         12    1    1    2    0    0 -0.56752134006E+00 -0.90918059492E+00 -0.49377183279E+00  0.11800425621E+01  0.00000000000E+00 0. -1.
         11    1    3    3    0    0 -0.15025246214E+02 -0.32968809210E+02 -0.28550130039E+01  0.36343520799E+02  0.51100000000E-03 0. -1.
        -11    1    3    3    0    0  0.43291955480E+00 -0.73114595436E+01  0.63189622798E+01  0.96733729667E+01  0.51100000000E-03 0.  1.
        -12    1    3    3    0    0  0.15159848000E+02  0.41189449348E+02 -0.29701774431E+01  0.43991063673E+02  0.00000000000E+00 0.  1.
</event>
<event>
 7    1  0.2285268E-015  0.9000770E+02  0.7816164E-02  0.1186339E+00
        -11   -1    0    0    0    0  0.00000000000E+00  0.00000000000E+00  0.45593999997E+02  0.45594000000E+02  0.51100000000E-03 0. -1.
         11   -1    0    0    0    0 -0.00000000000E+00 -0.00000000000E+00 -0.45593999997E+02  0.45594000000E+02  0.51100000000E-03 0.  1.
    9900012    2    1    2    0    0 -0.68493585344E+00 -0.37228802514E+00 -0.88621397436E+00  0.90007698892E+02  0.89999959717E+02 0.  0.
         12    1    1    2    0    0  0.68493585344E+00  0.37228802514E+00  0.88621397436E+00  0.11803011079E+01  0.00000000000E+00 0. -1.
         11    1    3    3    0    0  0.60518785996E+01  0.37525376868E+02  0.51588444879E+01  0.38358738514E+02  0.51100000000E-03 0. -1.
        -11    1    3    3    0    0  0.45017441139E+01  0.39335830462E+01 -0.58061214562E+01  0.83336559968E+01  0.51100000000E-03 0.  1.
        -12    1    3    3    0    0 -0.11238558567E+02 -0.41831247939E+02 -0.23893700602E+00  0.43315304382E+02  0.00000000000E+00 0.  1.
</event>
<event>
 7    1  0.2285268E-015  0.9000729E+02  0.7816164E-02  0.1186340E+00
        -11   -1    0    0    0    0  0.00000000000E+00  0.00000000000E+00  0.45593999997E+02  0.45594000000E+02  0.51100000000E-03 0.  1.
         11   -1    0    0    0    0 -0.00000000000E+00 -0.00000000000E+00 -0.45593999997E+02  0.45594000000E+02  0.51100000000E-03 0. -1.
    9900012    2    1    2    0    0  0.78473229845E+00 -0.76913337636E+00  0.43210250270E+00  0.90007286866E+02  0.89999542252E+02 0.  0.
         12    1    1    2    0    0 -0.78473229845E+00  0.76913337636E+00 -0.43210250270E+00  0.11807131335E+01  0.00000000000E+00 0. -1.
         11    1    3    3    0    0  0.33200490549E+02  0.11520640351E+02 -0.75391400968E+01  0.35942125152E+02  0.51100000000E-03 0. -1.
        -11    1    3    3    0    0  0.65592703045E+01 -0.62694204882E+01 -0.74297717370E+01  0.11727368354E+02  0.51100000000E-03 0.  1.
        -12    1    3    3    0    0 -0.38975028555E+02 -0.60203532396E+01  0.15401014336E+02  0.42337793360E+02  0.00000000000E+00 0.  1.
</event>
<event>
 7    1  0.2285268E-015  0.9000769E+02  0.7816164E-02  0.1186339E+00
        -11   -1    0    0    0    0  0.00000000000E+00  0.00000000000E+00  0.45593999997E+02  0.45594000000E+02  0.51100000000E-03 0.  1.
         11   -1    0    0    0    0 -0.00000000000E+00 -0.00000000000E+00 -0.45593999997E+02  0.45594000000E+02  0.51100000000E-03 0. -1.
    9900012    2    1    2    0    0  0.98335149141E+00 -0.63276014086E+00  0.16055156490E+00  0.90007685484E+02  0.89999946132E+02 0.  0.
         12    1    1    2    0    0 -0.98335149141E+00  0.63276014086E+00 -0.16055156490E+00  0.11803145159E+01  0.00000000000E+00 0. -1.
         11    1    3    3    0    0  0.39739539579E+01  0.25214235848E+01 -0.63608745303E+01  0.79126867754E+01  0.51100000000E-03 0. -1.
        -11    1    3    3    0    0  0.38321119613E+02  0.16994251505E+00  0.12303999705E+02  0.40248298074E+02  0.51100000000E-03 0.  1.
         12    1    3    3    0    0 -0.41311722080E+02 -0.33241262407E+01 -0.57825736097E+01  0.41846700635E+02  0.00000000000E+00 0. -1.
</event>
<event>
 7    1  0.2285268E-015  0.9000777E+02  0.7816164E-02  0.1186339E+00
        -11   -1    0    0    0    0  0.00000000000E+00  0.00000000000E+00  0.45593999997E+02  0.45594000000E+02  0.51100000000E-03 0.  1.
         11   -1    0    0    0    0 -0.00000000000E+00 -0.00000000000E+00 -0.45593999997E+02  0.45594000000E+02  0.51100000000E-03 0. -1.
    9900012    2    1    2    0    0 -0.10466807535E+01  0.34589668865E+00 -0.42162531169E+00  0.90007765692E+02  0.90000027399E+02 0.  0.
         12    1    1    2    0    0  0.10466807535E+01 -0.34589668865E+00  0.42162531169E+00  0.11802343083E+01  0.00000000000E+00 0. -1.
         11    1    3    3    0    0 -0.27265509506E+01 -0.50693030608E+01 -0.59487881343E+01  0.82776804805E+01  0.51100000000E-03 0. -1.
        -11    1    3    3    0    0  0.41122011312E+02 -0.14091944095E+01  0.66823576806E+01  0.41685243764E+02  0.51100000000E-03 0.  1.
         12    1    3    3    0    0 -0.39442141115E+02  0.68243941589E+01 -0.11551948580E+01  0.40044841447E+02  0.00000000000E+00 0. -1.
</event>
<event>
 7    1  0.2285268E-015  0.9000777E+02  0.7816164E-02  0.1186339E+00
        -11   -1    0    0    0    0  0.00000000000E+00  0.00000000000E+00  0.45593999997E+02  0.45594000000E+02  0.51100000000E-03 0.  1.
         11   -1    0    0    0    0 -0.00000000000E+00 -0.00000000000E+00 -0.45593999997E+02  0.45594000000E+02  0.51100000000E-03 0. -1.
    9900012    2    1    2    0    0 -0.59200527644E+00 -0.95774615675E+00  0.35383755430E+00  0.90007767412E+02  0.90000029141E+02 0.  0.
         12    1    1    2    0    0  0.59200527644E+00  0.95774615675E+00 -0.35383755430E+00  0.11802325885E+01  0.00000000000E+00 0. -1.
         11    1    3    3    0    0  0.33964954390E+01  0.93123303860E+01  0.73130746001E-01  0.99126700163E+01  0.51100000000E-03 0. -1.
        -11    1    3    3    0    0 -0.35912620634E+02  0.11814242124E+02 -0.11520805124E+02  0.39522418812E+02  0.51100000000E-03 0.  1.
         12    1    3    3    0    0  0.31924119919E+02 -0.22084318666E+02  0.11801511933E+02  0.40572678583E+02  0.00000000000E+00 0. -1.
</event>
<event>
 7    1  0.2285268E-015  0.9000779E+02  0.7816164E-02  0.1186339E+00
        -11   -1    0    0    0    0  0.00000000000E+00  0.00000000000E+00  0.45593999997E+02  0.45594000000E+02  0.51100000000E-03 0. -1.
         11   -1    0    0    0    0 -0.00000000000E+00 -0.00000000000E+00 -0.45593999997E+02  0.45594000000E+02  0.51100000000E-03 0.  1.
    9900012    2    1    2    0    0 -0.98336597866E+00  0.62204741863E+00 -0.19735617121E+00  0.90007787690E+02  0.90000049687E+02 0.  0.
         12    1    1    2    0    0  0.98336597866E+00 -0.62204741863E+00  0.19735617121E+00  0.11802123103E+01  0.00000000000E+00 0. -1.
         11    1    3    3    0    0  0.32445716046E-01  0.43608069246E+01 -0.79678970573E+01  0.90832303469E+01  0.51100000000E-03 0. -1.
        -11    1    3    3    0    0 -0.20618949226E+02 -0.35204342996E+02 -0.62803975900E+01  0.41278689746E+02  0.51100000000E-03 0.  1.
         12    1    3    3    0    0  0.19603137531E+02  0.31465583490E+02  0.14050938476E+02  0.39645867597E+02  0.00000000000E+00 0. -1.
</event>
<event>
 7    1  0.2285268E-015  0.9000796E+02  0.7816164E-02  0.1186339E+00
        -11   -1    0    0    0    0  0.00000000000E+00  0.00000000000E+00  0.45593999997E+02  0.45594000000E+02  0.51100000000E-03 0.  1.
         11   -1    0    0    0    0 -0.00000000000E+00 -0.00000000000E+00 -0.45593999997E+02  0.45594000000E+02  0.51100000000E-03 0. -1.
    9900012    2    1    2    0    0  0.40085394703E+00  0.43655836084E+00  0.10204026208E+01  0.90007962459E+02  0.90000226763E+02 0.  0.
         12    1    1    2    0    0 -0.40085394703E+00 -0.43655836084E+00 -0.10204026208E+01  0.11800375408E+01  0.00000000000E+00 0. -1.
         11    1    3    3    0    0  0.23797861725E+01  0.63886974798E+01 -0.47568395431E+01  0.83130235423E+01  0.51100000000E-03 0. -1.
        -11    1    3    3    0    0  0.15905511810E+02  0.16554548255E+02  0.34251003096E+02  0.41233112752E+02  0.51100000000E-03 0.  1.
         12    1    3    3    0    0 -0.17884444035E+02 -0.22506687374E+02 -0.28473760932E+02  0.40461826165E+02  0.00000000000E+00 0. -1.
</event>
<event>
 7    1  0.2285268E-015  0.9000796E+02  0.7816164E-02  0.1186339E+00
        -11   -1    0    0    0    0  0.00000000000E+00  0.00000000000E+00  0.45593999997E+02  0.45594000000E+02  0.51100000000E-03 0. -1.
         11   -1    0    0    0    0 -0.00000000000E+00 -0.00000000000E+00 -0.45593999997E+02  0.45594000000E+02  0.51100000000E-03 0.  1.
    9900012    2    1    2    0    0 -0.83703382019E+00  0.54618048601E+00 -0.62734042472E+00  0.90007959853E+02  0.90000224123E+02 0.  0.
         12    1    1    2    0    0  0.83703382019E+00 -0.54618048601E+00  0.62734042472E+00  0.11800401467E+01  0.00000000000E+00 0. -1.
         11    1    3    3    0    0  0.29755957029E+02  0.30399174992E+02  0.32243630055E+01  0.42660559490E+02  0.51100000000E-03 0. -1.
        -11    1    3    3    0    0 -0.27771713685E+01 -0.83496185991E+01  0.62188770575E+01  0.10775121516E+02  0.51100000000E-03 0.  1.
        -12    1    3    3    0    0 -0.27815819480E+02 -0.21503375907E+02 -0.10070580488E+02  0.36572278848E+02  0.00000000000E+00 0.  1.
</event>
<event>
 7    1  0.2285268E-015  0.9000764E+02  0.7816164E-02  0.1186339E+00
        -11   -1    0    0    0    0  0.00000000000E+00  0.00000000000E+00  0.45593999997E+02  0.45594000000E+02  0.51100000000E-03 0. -1.
         11   -1    0    0    0    0 -0.00000000000E+00 -0.00000000000E+00 -0.45593999997E+02  0.45594000000E+02  0.51100000000E-03 0.  1.
    9900012    2    1    2    0    0 -0.82671978071E+00 -0.83705519559E+00 -0.95514597861E-01  0.90007639871E+02  0.89999899917E+02 0.  0.
         12    1    1    2    0    0  0.82671978071E+00  0.83705519559E+00  0.95514597861E-01  0.11803601292E+01  0.00000000000E+00 0. -1.
         11    1    3    3    0    0 -0.80837623373E+01  0.26359173974E+01 -0.58352870751E+01  0.10312412403E+02  0.51100000000E-03 0. -1.
        -11    1    3    3    0    0 -0.76563288996E+01  0.35663911399E+02 -0.40013603916E+01  0.36695297161E+02  0.51100000000E-03 0.  1.
         12    1    3    3    0    0  0.14913371456E+02 -0.39136883992E+02  0.97411328689E+01  0.42999930307E+02  0.00000000000E+00 0. -1.
</event>
<event>
 7    1  0.2285268E-015  0.9000774E+02  0.7816164E-02  0.1186339E+00
        -11   -1    0    0    0    0  0.00000000000E+00  0.00000000000E+00  0.45593999997E+02  0.45594000000E+02  0.51100000000E-03 0. -1.
         11   -1    0    0    0    0 -0.00000000000E+00 -0.00000000000E+00 -0.45593999997E+02  0.45594000000E+02  0.51100000000E-03 0.  1.
    9900012    2    1    2    0    0 -0.86435210887E+00 -0.76170799192E+00  0.25632433790E+00  0.90007743333E+02  0.90000004745E+02 0.  0.
         12    1    1    2    0    0  0.86435210887E+00  0.76170799192E+00 -0.25632433790E+00  0.11802566667E+01  0.00000000000E+00 0. -1.
         11    1    3    3    0    0  0.11806044775E+02 -0.36643743241E+02 -0.52106153705E+01  0.38849673419E+02  0.51100000000E-03 0. -1.
        -11    1    3    3    0    0  0.73561844296E+01  0.22765966511E+01 -0.66814486675E+01  0.10195003592E+02  0.51100000000E-03 0.  1.
        -12    1    3    3    0    0 -0.20026581314E+02  0.33605438598E+02  0.12148388376E+02  0.40963066323E+02  0.00000000000E+00 0.  1.
</event>
<event>
 7    1  0.2285268E-015  0.9000769E+02  0.7816164E-02  0.1186339E+00
        -11   -1    0    0    0    0  0.00000000000E+00  0.00000000000E+00  0.45593999997E+02  0.45594000000E+02  0.51100000000E-03 0.  1.
         11   -1    0    0    0    0 -0.00000000000E+00 -0.00000000000E+00 -0.45593999997E+02  0.45594000000E+02  0.51100000000E-03 0. -1.
    9900012    2    1    2    0    0  0.44048540449E+00 -0.10718012385E+01  0.22438513518E+00  0.90007689034E+02  0.89999949730E+02 0.  0.
         12    1    1    2    0    0 -0.44048540449E+00  0.10718012385E+01 -0.22438513518E+00  0.11803109655E+01  0.00000000000E+00 0. -1.
         11    1    3    3    0    0  0.15080070945E+01 -0.75699639697E+01 -0.40295065681E+02  0.41027682830E+02  0.51100000000E-03 0. -1.
        -11    1    3    3    0    0  0.74174687419E+00  0.96700354483E+01  0.15281589401E+01  0.98180977793E+01  0.51100000000E-03 0.  1.
        -12    1    3    3    0    0 -0.18092685642E+01 -0.31718727172E+01  0.38991291877E+02  0.39161908425E+02  0.00000000000E+00 0.  1.
</event>
<event>
 7    1  0.2285268E-015  0.9000694E+02  0.7816164E-02  0.1186341E+00
        -11   -1    0    0    0    0  0.00000000000E+00  0.00000000000E+00  0.45593999997E+02  0.45594000000E+02  0.51100000000E-03 0.  1.
         11   -1    0    0    0    0 -0.00000000000E+00 -0.00000000000E+00 -0.45593999997E+02  0.45594000000E+02  0.51100000000E-03 0. -1.
    9900012    2    1    2    0    0 -0.60356314577E+00 -0.97856642754E+00  0.27022346746E+00  0.90006940541E+02  0.89999191352E+02 0.  0.
         12    1    1    2    0    0  0.60356314577E+00  0.97856642754E+00 -0.27022346746E+00  0.11810594593E+01  0.00000000000E+00 0. -1.
         11    1    3    3    0    0  0.33182827008E+02 -0.15831126589E+02  0.21183601163E+02  0.42431940043E+02  0.51100000000E-03 0. -1.
        -11    1    3    3    0    0 -0.65500212347E+00  0.90673950594E+01 -0.48327713258E+01  0.10295744747E+02  0.51100000000E-03 0.  1.
        -12    1    3    3    0    0 -0.33131388030E+02  0.57851651025E+01 -0.16080606370E+02  0.37279255750E+02  0.00000000000E+00 0.  1.
</event>
<event>
 7    1  0.2285268E-015  0.9000784E+02  0.7816164E-02  0.1186339E+00
        -11   -1    0    0    0    0  0.00000000000E+00  0.00000000000E+00  0.45593999997E+02  0.45594000000E+02  0.51100000000E-03 0.  1.
         11   -1    0    0    0    0 -0.00000000000E+00 -0.00000000000E+00 -0.45593999997E+02  0.45594000000E+02  0.51100000000E-03 0. -1.
    9900012    2    1    2    0    0 -0.62440350045E+00  0.70175231285E+00  0.71444492534E+00  0.90007844251E+02  0.90000106995E+02 0.  0.
         12    1    1    2    0    0  0.62440350045E+00 -0.70175231285E+00 -0.71444492534E+00  0.11801557487E+01  0.00000000000E+00 0. -1.
         11    1    3    3    0    0  0.20395029286E+02 -0.43578165262E+01  0.58923396629E+01  0.21671812370E+02  0.51100000000E-03 0. -1.
        -11    1    3    3    0    0 -0.78777204017E+01  0.15492566480E+02  0.26962692370E+02  0.32079041054E+02  0.51100000000E-03 0.  1.
         12    1    3    3    0    0 -0.13141712385E+02 -0.10432997641E+02 -0.32140587108E+02  0.36256990827E+02  0.00000000000E+00 0. -1.
</event>
<event>
 7    1  0.2285268E-015  0.9000771E+02  0.7816164E-02  0.1186339E+00
        -11   -1    0    0    0    0  0.00000000000E+00  0.00000000000E+00  0.45593999997E+02  0.45594000000E+02  0.51100000000E-03 0. -1.
         11   -1    0    0    0    0 -0.00000000000E+00 -0.00000000000E+00 -0.45593999997E+02  0.45594000000E+02  0.51100000000E-03 0.  1.
    9900012    2    1    2    0    0 -0.96969369454E+00 -0.27360532046E+00 -0.61474157387E+00  0.90007714892E+02  0.89999975929E+02 0.  0.
         12    1    1    2    0    0  0.96969369454E+00  0.27360532046E+00  0.61474157387E+00  0.11802851076E+01  0.00000000000E+00 0. -1.
         11    1    3    3    0    0  0.32430846438E+02  0.15504963828E+02  0.20831616252E+02  0.41546599620E+02  0.51100000000E-03 0. -1.
        -11    1    3    3    0    0 -0.10162375772E+02  0.31918313523E+01  0.14139966337E+01  0.10745280613E+02  0.51100000000E-03 0.  1.
        -12    1    3    3    0    0 -0.23238164361E+02 -0.18970400501E+02 -0.22860354460E+02  0.37715834659E+02  0.00000000000E+00 0.  1.
</event>
<event>
 7    1  0.2285268E-015  0.9000778E+02  0.7816164E-02  0.1186339E+00
        -11   -1    0    0    0    0  0.00000000000E+00  0.00000000000E+00  0.45593999997E+02  0.45594000000E+02  0.51100000000E-03 0. -1.
         11   -1    0    0    0    0 -0.00000000000E+00 -0.00000000000E+00 -0.45593999997E+02  0.45594000000E+02  0.51100000000E-03 0.  1.
    9900012    2    1    2    0    0 -0.89939853135E+00  0.15080260057E+00 -0.74917076017E+00  0.90007781389E+02  0.90000043303E+02 0.  0.
         12    1    1    2    0    0  0.89939853135E+00 -0.15080260057E+00  0.74917076017E+00  0.11802186113E+01  0.00000000000E+00 0. -1.
         11    1    3    3    0    0  0.48015341362E+00  0.35200532395E+02  0.98460657569E+01  0.36554795025E+02  0.51100000000E-03 0. -1.
        -11    1    3    3    0    0 -0.10171979828E+02  0.50322036955E+01 -0.18936809767E+01  0.11505575846E+02  0.51100000000E-03 0.  1.
        -12    1    3    3    0    0  0.87924278827E+01 -0.40081933489E+02 -0.87015555403E+01  0.41947410518E+02  0.00000000000E+00 0.  1.
</event>
<event>
 7    1  0.2285268E-015  0.9000772E+02  0.7816164E-02  0.1186339E+00
        -11   -1    0    0    0    0  0.00000000000E+00  0.00000000000E+00  0.45593999997E+02  0.45594000000E+02  0.51100000000E-03 0. -1.
         11   -1    0    0    0    0 -0.00000000000E+00 -0.00000000000E+00 -0.45593999997E+02  0.45594000000E+02  0.51100000000E-03 0.  1.
    9900012    2    1    2    0    0 -0.65274174754E-01 -0.11782611777E+01 -0.22501610453E-01  0.90007717643E+02  0.89999978715E+02 0.  0.
         12    1    1    2    0    0  0.65274174754E-01  0.11782611777E+01  0.22501610453E-01  0.11802823574E+01  0.00000000000E+00 0. -1.
         11    1    3    3    0    0  0.33859084055E+02  0.83376427043E+01  0.74211170551E+01  0.35651463329E+02  0.51100000000E-03 0. -1.
        -11    1    3    3    0    0  0.82947793668E+01 -0.98586706531E+00  0.47265403197E+01  0.95976810881E+01  0.51100000000E-03 0.  1.
        -12    1    3    3    0    0 -0.42219137596E+02 -0.85300368167E+01 -0.12170158985E+02  0.44758573226E+02  0.00000000000E+00 0.  1.
</event>
<event>
 7    1  0.2285268E-015  0.9000782E+02  0.7816164E-02  0.1186339E+00
        -11   -1    0    0    0    0  0.00000000000E+00  0.00000000000E+00  0.45593999997E+02  0.45594000000E+02  0.51100000000E-03 0.  1.
         11   -1    0    0    0    0 -0.00000000000E+00 -0.00000000000E+00 -0.45593999997E+02  0.45594000000E+02  0.51100000000E-03 0. -1.
    9900012    2    1    2    0    0  0.10513038146E+01 -0.47793438844E+00  0.24323646423E+00  0.90007819943E+02  0.90000082366E+02 0.  0.
         12    1    1    2    0    0 -0.10513038146E+01  0.47793438844E+00 -0.24323646423E+00  0.11801800574E+01  0.00000000000E+00 0. -1.
         11    1    3    3    0    0  0.74526611678E+01 -0.59606406737E+01 -0.21250918089E+00  0.95454992607E+01  0.51100000000E-03 0. -1.
        -11    1    3    3    0    0  0.27887813907E+02  0.19831843649E+02 -0.18323533914E+02  0.38817316785E+02  0.51100000000E-03 0.  1.
         12    1    3    3    0    0 -0.34289171260E+02 -0.14349137363E+02  0.18779279559E+02  0.41645003897E+02  0.00000000000E+00 0. -1.
</event>
<event>
 7    1  0.2285268E-015  0.9000771E+02  0.7816164E-02  0.1186339E+00
        -11   -1    0    0    0    0  0.00000000000E+00  0.00000000000E+00  0.45593999997E+02  0.45594000000E+02  0.51100000000E-03 0. -1.
         11   -1    0    0    0    0 -0.00000000000E+00 -0.00000000000E+00 -0.45593999997E+02  0.45594000000E+02  0.51100000000E-03 0.  1.
    9900012    2    1    2    0    0  0.50639063153E+00  0.10539921683E+01 -0.16044559400E+00  0.90007714547E+02  0.89999975579E+02 0.  0.
         12    1    1    2    0    0 -0.50639063153E+00 -0.10539921683E+01  0.16044559400E+00  0.11802854533E+01  0.00000000000E+00 0. -1.
         11    1    3    3    0    0  0.91177808456E+01  0.19797691096E+02 -0.78758433101E+01  0.23175664142E+02  0.51100000000E-03 0. -1.
        -11    1    3    3    0    0 -0.13423947411E+02  0.16241400978E+02  0.20380895070E+02  0.29314951031E+02  0.51100000000E-03 0.  1.
         12    1    3    3    0    0  0.48125571968E+01 -0.34985099906E+02 -0.12665497354E+02  0.37517099374E+02  0.00000000000E+00 0. -1.
</event>
<event>
 7    1  0.2285268E-015  0.9000779E+02  0.7816164E-02  0.1186339E+00
        -11   -1    0    0    0    0  0.00000000000E+00  0.00000000000E+00  0.45593999997E+02  0.45594000000E+02  0.51100000000E-03 0.  1.
         11   -1    0    0    0    0 -0.00000000000E+00 -0.00000000000E+00 -0.45593999997E+02  0.45594000000E+02  0.51100000000E-03 0. -1.
    9900012    2    1    2    0    0 -0.10184469524E+01  0.59171205053E+00  0.74412171669E-01  0.90007790478E+02  0.90000052512E+02 0.  0.
         12    1    1    2    0    0  0.10184469524E+01 -0.59171205053E+00 -0.74412171669E-01  0.11802095225E+01  0.00000000000E+00 0. -1.
         11    1    3    3    0    0 -0.24060774447E+01  0.22839769844E+02 -0.25310720719E+02  0.34177139710E+02  0.51100000000E-03 0. -1.
        -11    1    3    3    0    0  0.37034831279E+01 -0.33049803872E+00 -0.11928287896E+02  0.12494361473E+02  0.51100000000E-03 0.  1.
        -12    1    3    3    0    0 -0.23158526356E+01 -0.21917559754E+02  0.37313420787E+02  0.43336289294E+02  0.00000000000E+00 0.  1.
</event>
<event>
 7    1  0.2285268E-015  0.9000783E+02  0.7816164E-02  0.1186339E+00
        -11   -1    0    0    0    0  0.00000000000E+00  0.00000000000E+00  0.45593999997E+02  0.45594000000E+02  0.51100000000E-03 0. -1.
         11   -1    0    0    0    0 -0.00000000000E+00 -0.00000000000E+00 -0.45593999997E+02  0.45594000000E+02  0.51100000000E-03 0.  1.
    9900012    2    1    2    0    0 -0.66345633019E+00  0.53638075296E+00 -0.81542126051E+00  0.90007834568E+02  0.90000097184E+02 0.  0.
         12    1    1    2    0    0  0.66345633019E+00 -0.53638075296E+00  0.81542126051E+00  0.11801654318E+01  0.00000000000E+00 0. -1.
         11    1    3    3    0    0 -0.11123692226E+02 -0.31666363420E+02 -0.14788911955E+02  0.36677063924E+02  0.51100000000E-03 0. -1.
        -11    1    3    3    0    0 -0.38173759057E+01 -0.69540206406E+01  0.79292381536E+01  0.11216219498E+02  0.51100000000E-03 0.  1.
        -12    1    3    3    0    0  0.14277611802E+02  0.39156764814E+02  0.60442525413E+01  0.42114551146E+02  0.00000000000E+00 0.  1.
</event>
<event>
 7    1  0.2285268E-015  0.9000766E+02  0.7816164E-02  0.1186339E+00
        -11   -1    0    0    0    0  0.00000000000E+00  0.00000000000E+00  0.45593999997E+02  0.45594000000E+02  0.51100000000E-03 0. -1.
         11   -1    0    0    0    0 -0.00000000000E+00 -0.00000000000E+00 -0.45593999997E+02  0.45594000000E+02  0.51100000000E-03 0.  1.
    9900012    2    1    2    0    0  0.90478941416E+00 -0.30770936476E+00 -0.69272875414E+00  0.90007660191E+02  0.89999920506E+02 0.  0.
         12    1    1    2    0    0 -0.90478941416E+00  0.30770936476E+00  0.69272875414E+00  0.11803398087E+01  0.00000000000E+00 0. -1.
         11    1    3    3    0    0  0.55813598047E+01 -0.87545516230E+01 -0.11665024968E+01  0.10447702127E+02  0.51100000000E-03 0. -1.
        -11    1    3    3    0    0  0.20535060867E+02 -0.26742276160E+02 -0.97145159088E+01  0.35088600409E+02  0.51100000000E-03 0.  1.
         12    1    3    3    0    0 -0.25211631258E+02  0.35189118418E+02  0.10188289651E+02  0.44471357656E+02  0.00000000000E+00 0. -1.
</event>
<event>
 7    1  0.2285268E-015  0.9000776E+02  0.7816164E-02  0.1186339E+00
        -11   -1    0    0    0    0  0.00000000000E+00  0.00000000000E+00  0.45593999997E+02  0.45594000000E+02  0.51100000000E-03 0.  1.
         11   -1    0    0    0    0 -0.00000000000E+00 -0.00000000000E+00 -0.45593999997E+02  0.45594000000E+02  0.51100000000E-03 0. -1.
    9900012    2    1    2    0    0  0.39557843265E+00  0.10952816335E+01  0.19195410662E+00  0.90007758274E+02  0.90000019883E+02 0.  0.
         12    1    1    2    0    0 -0.39557843265E+00 -0.10952816335E+01 -0.19195410662E+00  0.11802417261E+01  0.00000000000E+00 0. -1.
         11    1    3    3    0    0 -0.77803184389E+01 -0.37193528881E+01  0.98219964034E+00  0.86793811595E+01  0.51100000000E-03 0. -1.
        -11    1    3    3    0    0 -0.16907201884E+02  0.36750464619E+02  0.28725128531E+01  0.40554919006E+02  0.51100000000E-03 0.  1.
         12    1    3    3    0    0  0.25083098755E+02 -0.31935830097E+02 -0.36627583868E+01  0.40773458109E+02  0.00000000000E+00 0. -1.
</event>
<event>
 7    1  0.2285268E-015  0.9000779E+02  0.7816164E-02  0.1186339E+00
        -11   -1    0    0    0    0  0.00000000000E+00  0.00000000000E+00  0.45593999997E+02  0.45594000000E+02  0.51100000000E-03 0. -1.
         11   -1    0    0    0    0 -0.00000000000E+00 -0.00000000000E+00 -0.45593999997E+02  0.45594000000E+02  0.51100000000E-03 0.  1.
    9900012    2    1    2    0    0 -0.84863713094E+00 -0.60726916983E-01  0.81793933780E+00  0.90007789214E+02  0.90000051232E+02 0.  0.
         12    1    1    2    0    0  0.84863713094E+00  0.60726916983E-01 -0.81793933780E+00  0.11802107857E+01  0.00000000000E+00 0. -1.
         11    1    3    3    0    0 -0.86027727129E+01 -0.21647321520E+02  0.32260663688E+02  0.39791514789E+02  0.51100000000E-03 0. -1.
        -11    1    3    3    0    0  0.10744111872E+01  0.79271860583E+01  0.58713804957E+01  0.99230916245E+01  0.51100000000E-03 0.  1.
        -12    1    3    3    0    0  0.66797243947E+01  0.13659408545E+02 -0.37314104846E+02  0.40293182801E+02  0.00000000000E+00 0.  1.
</event>
<event>
 7    1  0.2285268E-015  0.9000773E+02  0.7816164E-02  0.1186339E+00
        -11   -1    0    0    0    0  0.00000000000E+00  0.00000000000E+00  0.45593999997E+02  0.45594000000E+02  0.51100000000E-03 0.  1.
         11   -1    0    0    0    0 -0.00000000000E+00 -0.00000000000E+00 -0.45593999997E+02  0.45594000000E+02  0.51100000000E-03 0. -1.
    9900012    2    1    2    0    0  0.75633128736E+00 -0.15849178739E+00  0.89212556906E+00  0.90007726856E+02  0.89999988051E+02 0.  0.
         12    1    1    2    0    0 -0.75633128736E+00  0.15849178739E+00 -0.89212556906E+00  0.11802731438E+01  0.00000000000E+00 0. -1.
         11    1    3    3    0    0  0.30954083244E+02  0.25599164865E+02 -0.45014144984E+01  0.40419490892E+02  0.51100000000E-03 0. -1.
        -11    1    3    3    0    0  0.47809899564E+01 -0.17100987046E+00  0.39865368414E+01  0.62273257172E+01  0.51100000000E-03 0.  1.
        -12    1    3    3    0    0 -0.34978741913E+02 -0.25586646782E+02  0.14070032260E+01  0.43360910247E+02  0.00000000000E+00 0.  1.
</event>
<event>
 7    1  0.2285268E-015  0.9000889E+02  0.7816164E-02  0.1186337E+00
        -11   -1    0    0    0    0  0.00000000000E+00  0.00000000000E+00  0.45593999997E+02  0.45594000000E+02  0.51100000000E-03 0. -1.
         11   -1    0    0    0    0 -0.00000000000E+00 -0.00000000000E+00 -0.45593999997E+02  0.45594000000E+02  0.51100000000E-03 0.  1.
    9900012    2    1    2    0    0  0.49590943531E+00  0.10355441388E+01  0.26836477527E+00  0.90008891233E+02  0.90001167790E+02 0.  0.
         12    1    1    2    0    0 -0.49590943531E+00 -0.10355441388E+01 -0.26836477527E+00  0.11791087668E+01  0.00000000000E+00 0. -1.
         11    1    3    3    0    0  0.29752854230E+02  0.18886476265E+02 -0.19046012867E+02  0.40058481336E+02  0.51100000000E-03 0. -1.
        -11    1    3    3    0    0 -0.10474243450E+01 -0.44187134365E+01 -0.75064890038E+01  0.87732265226E+01  0.51100000000E-03 0.  1.
        -12    1    3    3    0    0 -0.28209520450E+02 -0.13432218690E+02  0.26820866646E+02  0.41177183374E+02  0.00000000000E+00 0.  1.
</event>
<event>
 7    1  0.2285268E-015  0.9000774E+02  0.7816164E-02  0.1186339E+00
        -11   -1    0    0    0    0  0.00000000000E+00  0.00000000000E+00  0.45593999997E+02  0.45594000000E+02  0.51100000000E-03 0.  1.
         11   -1    0    0    0    0 -0.00000000000E+00 -0.00000000000E+00 -0.45593999997E+02  0.45594000000E+02  0.51100000000E-03 0. -1.
    9900012    2    1    2    0    0  0.46740804248E+00  0.95760939741E+00  0.50748206636E+00  0.90007735587E+02  0.89999996897E+02 0.  0.
         12    1    1    2    0    0 -0.46740804248E+00 -0.95760939741E+00 -0.50748206636E+00  0.11802644127E+01  0.00000000000E+00 0. -1.
         11    1    3    3    0    0  0.36138280806E+02  0.35590607938E+01 -0.12308166855E+02  0.38342316374E+02  0.51100000000E-03 0. -1.
        -11    1    3    3    0    0  0.63709560405E+01  0.33450101471E+01  0.42263780084E+01  0.83450850856E+01  0.51100000000E-03 0.  1.
        -12    1    3    3    0    0 -0.42041828804E+02 -0.59464615435E+01  0.85892709128E+01  0.43320334127E+02  0.00000000000E+00 0.  1.
</event>
<event>
 7    1  0.2285268E-015  0.9000776E+02  0.7816164E-02  0.1186339E+00
        -11   -1    0    0    0    0  0.00000000000E+00  0.00000000000E+00  0.45593999997E+02  0.45594000000E+02  0.51100000000E-03 0. -1.
         11   -1    0    0    0    0 -0.00000000000E+00 -0.00000000000E+00 -0.45593999997E+02  0.45594000000E+02  0.51100000000E-03 0.  1.
    9900012    2    1    2    0    0 -0.78325169528E+00  0.73578379907E+00  0.48797058378E+00  0.90007755827E+02  0.90000017404E+02 0.  0.
         12    1    1    2    0    0  0.78325169528E+00 -0.73578379907E+00 -0.48797058378E+00  0.11802441729E+01  0.00000000000E+00 0. -1.
         11    1    3    3    0    0  0.24836074458E+02  0.20630444681E+02 -0.16048361318E+02  0.36055453728E+02  0.51100000000E-03 0. -1.
        -11    1    3    3    0    0  0.37471235820E+01  0.68819582157E+01 -0.44486749125E+01  0.90107154411E+01  0.51100000000E-03 0.  1.
        -12    1    3    3    0    0 -0.29366449736E+02 -0.26776619097E+02  0.20985006815E+02  0.44941586658E+02  0.00000000000E+00 0.  1.
</event>
<event>
 7    1  0.2285268E-015  0.9000776E+02  0.7816164E-02  0.1186339E+00
        -11   -1    0    0    0    0  0.00000000000E+00  0.00000000000E+00  0.45593999997E+02  0.45594000000E+02  0.51100000000E-03 0. -1.
         11   -1    0    0    0    0 -0.00000000000E+00 -0.00000000000E+00 -0.45593999997E+02  0.45594000000E+02  0.51100000000E-03 0.  1.
    9900012    2    1    2    0    0  0.48821902216E+00 -0.79064981384E+00  0.72765913047E+00  0.90007757333E+02  0.90000018930E+02 0.  0.
         12    1    1    2    0    0 -0.48821902216E+00  0.79064981384E+00 -0.72765913047E+00  0.11802426665E+01  0.00000000000E+00 0. -1.
         11    1    3    3    0    0 -0.37343562392E+02 -0.10502484200E+02  0.68896310177E+00  0.38798434207E+02  0.51100000000E-03 0. -1.
        -11    1    3    3    0    0  0.14449794623E+01 -0.10264654365E+01 -0.11436942366E+02  0.11573471730E+02  0.51100000000E-03 0.  1.
        -12    1    3    3    0    0  0.36386801952E+02  0.10738299823E+02  0.11475638395E+02  0.39635851397E+02  0.00000000000E+00 0.  1.
</event>
<event>
 7    1  0.2285268E-015  0.9000811E+02  0.7816164E-02  0.1186338E+00
        -11   -1    0    0    0    0  0.00000000000E+00  0.00000000000E+00  0.45593999997E+02  0.45594000000E+02  0.51100000000E-03 0. -1.
         11   -1    0    0    0    0 -0.00000000000E+00 -0.00000000000E+00 -0.45593999997E+02  0.45594000000E+02  0.51100000000E-03 0.  1.
    9900012    2    1    2    0    0  0.65377013852E+00  0.52749144800E+00 -0.82853498690E+00  0.90008113206E+02  0.90000379500E+02 0.  0.
         12    1    1    2    0    0 -0.65377013852E+00 -0.52749144800E+00  0.82853498690E+00  0.11798867938E+01  0.00000000000E+00 0. -1.
         11    1    3    3    0    0  0.72363867314E+01  0.20404355700E+01 -0.59024626086E+01  0.95586471505E+01  0.51100000000E-03 0. -1.
        -11    1    3    3    0    0  0.29474430075E+02  0.11360513680E+01 -0.20711890845E+02  0.36041851556E+02  0.51100000000E-03 0.  1.
         12    1    3    3    0    0 -0.36057046668E+02 -0.26489954900E+01  0.25785818467E+02  0.44407614499E+02  0.00000000000E+00 0. -1.
</event>
<event>
 7    1  0.2285268E-015  0.9000770E+02  0.7816164E-02  0.1186339E+00
        -11   -1    0    0    0    0  0.00000000000E+00  0.00000000000E+00  0.45593999997E+02  0.45594000000E+02  0.51100000000E-03 0. -1.
         11   -1    0    0    0    0 -0.00000000000E+00 -0.00000000000E+00 -0.45593999997E+02  0.45594000000E+02  0.51100000000E-03 0.  1.
    9900012    2    1    2    0    0  0.54858989481E+00 -0.89928607267E+00 -0.53239700155E+00  0.90007697971E+02  0.89999958784E+02 0.  0.
         12    1    1    2    0    0 -0.54858989481E+00  0.89928607267E+00  0.53239700155E+00  0.11803020293E+01  0.00000000000E+00 0. -1.
         11    1    3    3    0    0  0.14859522383E+01  0.55732806498E+01  0.81373494209E+01  0.99742652419E+01  0.51100000000E-03 0. -1.
        -11    1    3    3    0    0  0.76211117803E+01  0.35320271928E+02  0.15495116518E+01  0.36166337117E+02  0.51100000000E-03 0.  1.
         12    1    3    3    0    0 -0.85584741237E+01 -0.41792838651E+02 -0.10219258074E+02  0.43867095612E+02  0.00000000000E+00 0. -1.
</event>
<event>
 7    1  0.2285268E-015  0.9000771E+02  0.7816164E-02  0.1186339E+00
        -11   -1    0    0    0    0  0.00000000000E+00  0.00000000000E+00  0.45593999997E+02  0.45594000000E+02  0.51100000000E-03 0.  1.
         11   -1    0    0    0    0 -0.00000000000E+00 -0.00000000000E+00 -0.45593999997E+02  0.45594000000E+02  0.51100000000E-03 0. -1.
    9900012    2    1    2    0    0 -0.83729971232E+00 -0.48717505366E+00 -0.67429832269E+00  0.90007708269E+02  0.89999969219E+02 0.  0.
         12    1    1    2    0    0  0.83729971232E+00  0.48717505366E+00  0.67429832269E+00  0.11802917305E+01  0.00000000000E+00 0. -1.
         11    1    3    3    0    0 -0.28282480458E+02 -0.21053928072E+02 -0.32957230319E+01  0.35412263111E+02  0.51100000000E-03 0. -1.
        -11    1    3    3    0    0 -0.10441108061E+02  0.29551806996E+01 -0.52921047302E+01  0.12072953378E+02  0.51100000000E-03 0.  1.
        -12    1    3    3    0    0  0.37886288807E+02  0.17611572318E+02  0.79135294394E+01  0.42522491781E+02  0.00000000000E+00 0.  1.
</event>
<event>
 7    1  0.2285268E-015  0.9000772E+02  0.7816164E-02  0.1186339E+00
        -11   -1    0    0    0    0  0.00000000000E+00  0.00000000000E+00  0.45593999997E+02  0.45594000000E+02  0.51100000000E-03 0. -1.
         11   -1    0    0    0    0 -0.00000000000E+00 -0.00000000000E+00 -0.45593999997E+02  0.45594000000E+02  0.51100000000E-03 0.  1.
    9900012    2    1    2    0    0  0.15493841151E+00 -0.48352715064E+00 -0.10654835164E+01  0.90007720567E+02  0.89999981678E+02 0.  0.
         12    1    1    2    0    0 -0.15493841151E+00  0.48352715064E+00  0.10654835164E+01  0.11802794332E+01  0.00000000000E+00 0. -1.
         11    1    3    3    0    0  0.14776631226E+01  0.82511150677E+01  0.56101872891E+01  0.10086554905E+02  0.51100000000E-03 0. -1.
        -11    1    3    3    0    0 -0.16723624382E+02  0.31693122328E+02  0.16185905378E+01  0.35871345820E+02  0.51100000000E-03 0.  1.
         12    1    3    3    0    0  0.15400899671E+02 -0.40427764546E+02 -0.82942613433E+01  0.44049819842E+02  0.00000000000E+00 0. -1.
</event>
<event>
 7    1  0.2285268E-015  0.9000770E+02  0.7816164E-02  0.1186339E+00
        -11   -1    0    0    0    0  0.00000000000E+00  0.00000000000E+00  0.45593999997E+02  0.45594000000E+02  0.51100000000E-03 0. -1.
         11   -1    0    0    0    0 -0.00000000000E+00 -0.00000000000E+00 -0.45593999997E+02  0.45594000000E+02  0.51100000000E-03 0.  1.
    9900012    2    1    2    0    0  0.10374848680E+01  0.55727382684E+00 -0.78559724004E-01  0.90007703173E+02  0.89999964055E+02 0.  0.
         12    1    1    2    0    0 -0.10374848680E+01 -0.55727382684E+00  0.78559724004E-01  0.11802968269E+01  0.00000000000E+00 0. -1.
         11    1    3    3    0    0  0.21944284610E+02  0.12531279382E+02 -0.18457316712E+02  0.31293084387E+02  0.51100000000E-03 0. -1.
        -11    1    3    3    0    0 -0.63564822319E+01  0.68996878831E+01 -0.15005701301E+02  0.17696938466E+02  0.51100000000E-03 0.  1.
        -12    1    3    3    0    0 -0.14550317510E+02 -0.18873693439E+02  0.33384458289E+02  0.41017680321E+02  0.00000000000E+00 0.  1.
</event>
<event>
 7    1  0.2285268E-015  0.9000776E+02  0.7816164E-02  0.1186339E+00
        -11   -1    0    0    0    0  0.00000000000E+00  0.00000000000E+00  0.45593999997E+02  0.45594000000E+02  0.51100000000E-03 0. -1.
         11   -1    0    0    0    0 -0.00000000000E+00 -0.00000000000E+00 -0.45593999997E+02  0.45594000000E+02  0.51100000000E-03 0.  1.
    9900012    2    1    2    0    0  0.23187140588E+00 -0.27989478124E+00 -0.11228847858E+01  0.90007756093E+02  0.90000017674E+02 0.  0.
         12    1    1    2    0    0 -0.23187140588E+00  0.27989478124E+00  0.11228847858E+01  0.11802439068E+01  0.00000000000E+00 0. -1.
         11    1    3    3    0    0 -0.36258982882E+02  0.10172217324E+02 -0.17725090137E+02  0.41621709066E+02  0.51100000000E-03 0. -1.
        -11    1    3    3    0    0  0.64439472020E+01  0.65158979313E+01 -0.17082063625E+01  0.93219821192E+01  0.51100000000E-03 0.  1.
        -12    1    3    3    0    0  0.30046907086E+02 -0.16968010037E+02  0.18310411714E+02  0.39064064908E+02  0.00000000000E+00 0.  1.
</event>
<event>
 7    1  0.2285268E-015  0.9000786E+02  0.7816164E-02  0.1186339E+00
        -11   -1    0    0    0    0  0.00000000000E+00  0.00000000000E+00  0.45593999997E+02  0.45594000000E+02  0.51100000000E-03 0.  1.
         11   -1    0    0    0    0 -0.00000000000E+00 -0.00000000000E+00 -0.45593999997E+02  0.45594000000E+02  0.51100000000E-03 0. -1.
    9900012    2    1    2    0    0 -0.50432271043E+00 -0.48116028421E+00  0.95229856841E+00  0.90007860526E+02  0.90000123485E+02 0.  0.
         12    1    1    2    0    0  0.50432271043E+00  0.48116028421E+00 -0.95229856841E+00  0.11801394743E+01  0.00000000000E+00 0. -1.
         11    1    3    3    0    0  0.60518874938E+01 -0.81842689788E+01 -0.23625528117E+01  0.10449366345E+02  0.51100000000E-03 0. -1.
        -11    1    3    3    0    0  0.34692444877E+02  0.14638700374E+02  0.21084368929E+01  0.37713429791E+02  0.51100000000E-03 0.  1.
         12    1    3    3    0    0 -0.41248655081E+02 -0.69355916794E+01  0.12064144872E+01  0.41845064391E+02  0.00000000000E+00 0. -1.
</event>
<event>
 7    1  0.2285268E-015  0.9000769E+02  0.7816164E-02  0.1186339E+00
        -11   -1    0    0    0    0  0.00000000000E+00  0.00000000000E+00  0.45593999997E+02  0.45594000000E+02  0.51100000000E-03 0. -1.
         11   -1    0    0    0    0 -0.00000000000E+00 -0.00000000000E+00 -0.45593999997E+02  0.45594000000E+02  0.51100000000E-03 0.  1.
    9900012    2    1    2    0    0  0.10411337036E+01  0.50645794059E+00 -0.22950957433E+00  0.90007689160E+02  0.89999949857E+02 0.  0.
         12    1    1    2    0    0 -0.10411337036E+01 -0.50645794059E+00  0.22950957433E+00  0.11803108400E+01  0.00000000000E+00 0. -1.
         11    1    3    3    0    0  0.51285446096E+01 -0.17397690033E+01  0.11474916905E+02  0.12688675433E+02  0.51100000000E-03 0. -1.
        -11    1    3    3    0    0  0.29351258960E+02 -0.19074323072E+02  0.27428910964E+01  0.35111958860E+02  0.51100000000E-03 0.  1.
         12    1    3    3    0    0 -0.33438669866E+02  0.21320550016E+02 -0.14447317576E+02  0.42207054867E+02  0.00000000000E+00 0. -1.
</event>
<event>
 7    1  0.2285268E-015  0.9000796E+02  0.7816164E-02  0.1186339E+00
        -11   -1    0    0    0    0  0.00000000000E+00  0.00000000000E+00  0.45593999997E+02  0.45594000000E+02  0.51100000000E-03 0.  1.
         11   -1    0    0    0    0 -0.00000000000E+00 -0.00000000000E+00 -0.45593999997E+02  0.45594000000E+02  0.51100000000E-03 0. -1.
    9900012    2    1    2    0    0 -0.54561734134E-01 -0.48959957684E-01  0.11777646699E+01  0.90007956070E+02  0.90000220289E+02 0.  0.
         12    1    1    2    0    0  0.54561734134E-01  0.48959957684E-01 -0.11777646699E+01  0.11800439305E+01  0.00000000000E+00 0. -1.
         11    1    3    3    0    0  0.33779261681E+02  0.14588665830E+02  0.20020001215E+01  0.36849364922E+02  0.51100000000E-03 0. -1.
        -11    1    3    3    0    0  0.76695206386E+01 -0.14526320676E+01 -0.52192683942E+01  0.93900186145E+01  0.51100000000E-03 0.  1.
        -12    1    3    3    0    0 -0.41503344053E+02 -0.13184993720E+02  0.43950329425E+01  0.43768572533E+02  0.00000000000E+00 0.  1.
</event>
<event>
 7    1  0.2285268E-015  0.9000785E+02  0.7816164E-02  0.1186339E+00
        -11   -1    0    0    0    0  0.00000000000E+00  0.00000000000E+00  0.45593999997E+02  0.45594000000E+02  0.51100000000E-03 0. -1.
         11   -1    0    0    0    0 -0.00000000000E+00 -0.00000000000E+00 -0.45593999997E+02  0.45594000000E+02  0.51100000000E-03 0.  1.
    9900012    2    1    2    0    0  0.52761556731E+00  0.75970744186E+00  0.73294830595E+00  0.90007853059E+02  0.90000115919E+02 0.  0.
         12    1    1    2    0    0 -0.52761556731E+00 -0.75970744186E+00 -0.73294830595E+00  0.11801469414E+01  0.00000000000E+00 0. -1.
         11    1    3    3    0    0  0.14032781800E+00 -0.18995681676E+02  0.12786738918E+02  0.22898827626E+02  0.51100000000E-03 0. -1.
        -11    1    3    3    0    0 -0.18967823445E+02  0.28813007143E+02  0.10480983063E+02  0.36052998670E+02  0.51100000000E-03 0.  1.
         12    1    3    3    0    0  0.19355111195E+02 -0.90576180252E+01 -0.22534773675E+02  0.31056026762E+02  0.00000000000E+00 0. -1.
</event>
<event>
 7    1  0.2285268E-015  0.9000771E+02  0.7816164E-02  0.1186339E+00
        -11   -1    0    0    0    0  0.00000000000E+00  0.00000000000E+00  0.45593999997E+02  0.45594000000E+02  0.51100000000E-03 0. -1.
         11   -1    0    0    0    0 -0.00000000000E+00 -0.00000000000E+00 -0.45593999997E+02  0.45594000000E+02  0.51100000000E-03 0.  1.
    9900012    2    1    2    0    0 -0.65324659803E+00 -0.16062063207E+00 -0.96981673226E+00  0.90007714187E+02  0.89999975215E+02 0.  0.
         12    1    1    2    0    0  0.65324659803E+00  0.16062063207E+00  0.96981673226E+00  0.11802858126E+01  0.00000000000E+00 0. -1.
         11    1    3    3    0    0  0.61151173000E+01  0.11781713639E+01  0.39430120875E+01  0.73708949211E+01  0.51100000000E-03 0. -1.
        -11    1    3    3    0    0  0.10726169442E+02 -0.39018669112E+02  0.20324057691E+01  0.40517131236E+02  0.51100000000E-03 0.  1.
         12    1    3    3    0    0 -0.17494533340E+02  0.37679877116E+02 -0.69452345889E+01  0.42119688030E+02  0.00000000000E+00 0. -1.
</event>
<event>
 7    1  0.2285268E-015  0.9000781E+02  0.7816164E-02  0.1186339E+00
        -11   -1    0    0    0    0  0.00000000000E+00  0.00000000000E+00  0.45593999997E+02  0.45594000000E+02  0.51100000000E-03 0. -1.
         11   -1    0    0    0    0 -0.00000000000E+00 -0.00000000000E+00 -0.45593999997E+02  0.45594000000E+02  0.51100000000E-03 0.  1.
    9900012    2    1    2    0    0 -0.79907075382E+00  0.84952366281E+00  0.18068461802E+00  0.90007808721E+02  0.90000070996E+02 0.  0.
         12    1    1    2    0    0  0.79907075382E+00 -0.84952366281E+00 -0.18068461802E+00  0.11801912788E+01  0.00000000000E+00 0. -1.
         11    1    3    3    0    0  0.12326772996E+02 -0.10407983073E+02  0.31284688110E+02  0.35199533442E+02  0.51100000000E-03 0. -1.
        -11    1    3    3    0    0  0.57539372986E+01 -0.70073589946E+00  0.79340520151E+01  0.98258845341E+01  0.51100000000E-03 0.  1.
        -12    1    3    3    0    0 -0.18879781048E+02  0.11958242636E+02 -0.39038055507E+02  0.44982390745E+02  0.00000000000E+00 0.  1.
</event>
<event>
 7    1  0.2285268E-015  0.9000772E+02  0.7816164E-02  0.1186339E+00
        -11   -1    0    0    0    0  0.00000000000E+00  0.00000000000E+00  0.45593999997E+02  0.45594000000E+02  0.51100000000E-03 0.  1.
         11   -1    0    0    0    0 -0.00000000000E+00 -0.00000000000E+00 -0.45593999997E+02  0.45594000000E+02  0.51100000000E-03 0. -1.
    9900012    2    1    2    0    0  0.40466170479E+00 -0.17770548700E+00  0.10944137361E+01  0.90007715390E+02  0.89999976433E+02 0.  0.
         12    1    1    2    0    0 -0.40466170479E+00  0.17770548700E+00 -0.10944137361E+01  0.11802846102E+01  0.00000000000E+00 0. -1.
         11    1    3    3    0    0  0.71146199359E+01  0.39032460113E+01 -0.20807857574E+01  0.83775184802E+01  0.51100000000E-03 0. -1.
        -11    1    3    3    0    0  0.12377548062E+02 -0.35780656550E+02 -0.14601158906E+02  0.40578971412E+02  0.51100000000E-03 0.  1.
         12    1    3    3    0    0 -0.19087506293E+02  0.31699705052E+02  0.17776358399E+02  0.41051225497E+02  0.00000000000E+00 0. -1.
</event>
<event>
 7    1  0.2285268E-015  0.9000781E+02  0.7816164E-02  0.1186339E+00
        -11   -1    0    0    0    0  0.00000000000E+00  0.00000000000E+00  0.45593999997E+02  0.45594000000E+02  0.51100000000E-03 0.  1.
         11   -1    0    0    0    0 -0.00000000000E+00 -0.00000000000E+00 -0.45593999997E+02  0.45594000000E+02  0.51100000000E-03 0. -1.
    9900012    2    1    2    0    0 -0.67347552436E+00  0.53612726235E+00  0.80737506591E+00  0.90007806702E+02  0.90000068951E+02 0.  0.
         12    1    1    2    0    0  0.67347552436E+00 -0.53612726235E+00 -0.80737506591E+00  0.11801932979E+01  0.00000000000E+00 0. -1.
         11    1    3    3    0    0 -0.12023470456E+01  0.56154012675E+01 -0.97350973872E+01  0.11302676285E+02  0.51100000000E-03 0. -1.
        -11    1    3    3    0    0  0.37764228028E+02 -0.43271107414E+01  0.15662788334E+02  0.41111844334E+02  0.51100000000E-03 0.  1.
         12    1    3    3    0    0 -0.37235356507E+02 -0.75216326369E+00 -0.51203158807E+01  0.37593286082E+02  0.00000000000E+00 0. -1.
</event>
<event>
 7    1  0.2285268E-015  0.9000774E+02  0.7816164E-02  0.1186339E+00
        -11   -1    0    0    0    0  0.00000000000E+00  0.00000000000E+00  0.45593999997E+02  0.45594000000E+02  0.51100000000E-03 0. -1.
         11   -1    0    0    0    0 -0.00000000000E+00 -0.00000000000E+00 -0.45593999997E+02  0.45594000000E+02  0.51100000000E-03 0.  1.
    9900012    2    1    2    0    0 -0.10164270159E-01  0.25123078038E+00 -0.11531626476E+01  0.90007743965E+02  0.90000005385E+02 0.  0.
         12    1    1    2    0    0  0.10164270159E-01 -0.25123078038E+00  0.11531626476E+01  0.11802560355E+01  0.00000000000E+00 0. -1.
         11    1    3    3    0    0  0.24596480360E+02 -0.52109673019E+01  0.26226167800E+02  0.36331156107E+02  0.51100000000E-03 0. -1.
        -11    1    3    3    0    0  0.18766728680E+01  0.50107055943E+01  0.79119040679E+01  0.95512982283E+01  0.51100000000E-03 0.  1.
        -12    1    3    3    0    0 -0.26483317498E+02  0.45149248804E+00 -0.35291234516E+02  0.44125289629E+02  0.00000000000E+00 0.  1.
</event>
<event>
 7    1  0.2285268E-015  0.9000773E+02  0.7816164E-02  0.1186339E+00
        -11   -1    0    0    0    0  0.00000000000E+00  0.00000000000E+00  0.45593999997E+02  0.45594000000E+02  0.51100000000E-03 0. -1.
         11   -1    0    0    0    0 -0.00000000000E+00 -0.00000000000E+00 -0.45593999997E+02  0.45594000000E+02  0.51100000000E-03 0.  1.
    9900012    2    1    2    0    0 -0.10111334893E+01  0.30672571328E-01 -0.60802626792E+00  0.90007734063E+02  0.89999995353E+02 0.  0.
         12    1    1    2    0    0  0.10111334893E+01 -0.30672571328E-01  0.60802626792E+00  0.11802659371E+01  0.00000000000E+00 0. -1.
         11    1    3    3    0    0 -0.36534989822E+01 -0.41847119899E+01  0.80159674286E+01  0.97527228675E+01  0.51100000000E-03 0. -1.
        -11    1    3    3    0    0  0.25010419862E+02  0.16616292046E+02  0.24255293539E+02  0.38599760724E+02  0.51100000000E-03 0.  1.
         12    1    3    3    0    0 -0.22368054369E+02 -0.12400907485E+02 -0.32879287236E+02  0.41655250471E+02  0.00000000000E+00 0. -1.
</event>
<event>
 7    1  0.2285268E-015  0.9000775E+02  0.7816164E-02  0.1186339E+00
        -11   -1    0    0    0    0  0.00000000000E+00  0.00000000000E+00  0.45593999997E+02  0.45594000000E+02  0.51100000000E-03 0.  1.
         11   -1    0    0    0    0 -0.00000000000E+00 -0.00000000000E+00 -0.45593999997E+02  0.45594000000E+02  0.51100000000E-03 0. -1.
    9900012    2    1    2    0    0  0.38500799212E+00  0.43923837484E+00  0.10255873643E+01  0.90007749626E+02  0.90000011121E+02 0.  0.
         12    1    1    2    0    0 -0.38500799212E+00 -0.43923837484E+00 -0.10255873643E+01  0.11802503742E+01  0.00000000000E+00 0. -1.
         11    1    3    3    0    0 -0.38103766998E+02  0.10283822761E+02 -0.19912273088E+00  0.39467628762E+02  0.51100000000E-03 0. -1.
        -11    1    3    3    0    0 -0.54707953794E+01 -0.21680828581E+01 -0.26192386198E+00  0.58905678617E+01  0.51100000000E-03 0.  1.
        -12    1    3    3    0    0  0.43959570369E+02 -0.76765015276E+01  0.14866339572E+01  0.44649553002E+02  0.00000000000E+00 0.  1.
</event>
<event>
 7    1  0.2285268E-015  0.9000778E+02  0.7816164E-02  0.1186339E+00
        -11   -1    0    0    0    0  0.00000000000E+00  0.00000000000E+00  0.45593999997E+02  0.45594000000E+02  0.51100000000E-03 0. -1.
         11   -1    0    0    0    0 -0.00000000000E+00 -0.00000000000E+00 -0.45593999997E+02  0.45594000000E+02  0.51100000000E-03 0.  1.
    9900012    2    1    2    0    0  0.73438038189E+00 -0.60549807693E+00 -0.69783805856E+00  0.90007779503E+02  0.90000041392E+02 0.  0.
         12    1    1    2    0    0 -0.73438038189E+00  0.60549807693E+00  0.69783805856E+00  0.11802204974E+01  0.00000000000E+00 0. -1.
         11    1    3    3    0    0  0.80955220706E+01  0.65417011085E-01  0.12839355705E+01  0.81969657674E+01  0.51100000000E-03 0. -1.
        -11    1    3    3    0    0  0.60914494110E+01  0.29936250995E+02 -0.26427161752E+02  0.40394055975E+02  0.51100000000E-03 0.  1.
         12    1    3    3    0    0 -0.13452591100E+02 -0.30607166083E+02  0.24445388122E+02  0.41416757761E+02  0.00000000000E+00 0. -1.
</event>
<event>
 7    1  0.2285268E-015  0.9000785E+02  0.7816164E-02  0.1186339E+00
        -11   -1    0    0    0    0  0.00000000000E+00  0.00000000000E+00  0.45593999997E+02  0.45594000000E+02  0.51100000000E-03 0.  1.
         11   -1    0    0    0    0 -0.00000000000E+00 -0.00000000000E+00 -0.45593999997E+02  0.45594000000E+02  0.51100000000E-03 0. -1.
    9900012    2    1    2    0    0 -0.11759657418E+01  0.85298612566E-01 -0.50786288449E-01  0.90007851481E+02  0.90000114321E+02 0.  0.
         12    1    1    2    0    0  0.11759657418E+01 -0.85298612566E-01  0.50786288449E-01  0.11801485187E+01  0.00000000000E+00 0. -1.
         11    1    3    3    0    0  0.89066001210E+01  0.75796878978E+01 -0.18224362556E+01  0.11836404374E+02  0.51100000000E-03 0. -1.
        -11    1    3    3    0    0  0.29758645066E+02 -0.20520527191E+02  0.26579676341E+01  0.36245465711E+02  0.51100000000E-03 0.  1.
         12    1    3    3    0    0 -0.39841210929E+02  0.13026137906E+02 -0.88631766700E+00  0.41925981396E+02  0.00000000000E+00 0. -1.
</event>
<event>
 7    1  0.2285268E-015  0.9000786E+02  0.7816164E-02  0.1186339E+00
        -11   -1    0    0    0    0  0.00000000000E+00  0.00000000000E+00  0.45593999997E+02  0.45594000000E+02  0.51100000000E-03 0.  1.
         11   -1    0    0    0    0 -0.00000000000E+00 -0.00000000000E+00 -0.45593999997E+02  0.45594000000E+02  0.51100000000E-03 0. -1.
    9900012    2    1    2    0    0  0.63258224030E+00 -0.52162952515E+00  0.84880385985E+00  0.90007862023E+02  0.90000125002E+02 0.  0.
         12    1    1    2    0    0 -0.63258224030E+00  0.52162952515E+00 -0.84880385985E+00  0.11801379770E+01  0.00000000000E+00 0. -1.
         11    1    3    3    0    0  0.20458697723E+01  0.46580336845E+01  0.72369821885E+01  0.88462857962E+01  0.51100000000E-03 0. -1.
        -11    1    3    3    0    0  0.17373976918E+02  0.33595375516E+02 -0.27791524205E+01  0.37923976828E+02  0.51100000000E-03 0.  1.
         12    1    3    3    0    0 -0.18787264450E+02 -0.38775038726E+02 -0.36090259081E+01  0.43237599398E+02  0.00000000000E+00 0. -1.
</event>
<event>
 7    1  0.2285268E-015  0.9000768E+02  0.7816164E-02  0.1186339E+00
        -11   -1    0    0    0    0  0.00000000000E+00  0.00000000000E+00  0.45593999997E+02  0.45594000000E+02  0.51100000000E-03 0. -1.
         11   -1    0    0    0    0 -0.00000000000E+00 -0.00000000000E+00 -0.45593999997E+02  0.45594000000E+02  0.51100000000E-03 0.  1.
    9900012    2    1    2    0    0 -0.10555324720E+01  0.37898779171E+00 -0.36793158356E+00  0.90007680469E+02  0.89999941051E+02 0.  0.
         12    1    1    2    0    0  0.10555324720E+01 -0.37898779171E+00  0.36793158356E+00  0.11803195313E+01  0.00000000000E+00 0. -1.
         11    1    3    3    0    0 -0.26767900279E+00 -0.26633791647E+01 -0.75254739475E+01  0.79873649609E+01  0.51100000000E-03 0. -1.
        -11    1    3    3    0    0  0.11497892908E+02  0.26679451948E+02 -0.26344711809E+02  0.39217834439E+02  0.51100000000E-03 0.  1.
         12    1    3    3    0    0 -0.12285746377E+02 -0.23637084991E+02  0.33502254173E+02  0.42802481068E+02  0.00000000000E+00 0. -1.
</event>
<event>
 7    1  0.2285268E-015  0.9000770E+02  0.7816164E-02  0.1186339E+00
        -11   -1    0    0    0    0  0.00000000000E+00  0.00000000000E+00  0.45593999997E+02  0.45594000000E+02  0.51100000000E-03 0.  1.
         11   -1    0    0    0    0 -0.00000000000E+00 -0.00000000000E+00 -0.45593999997E+02  0.45594000000E+02  0.51100000000E-03 0. -1.
    9900012    2    1    2    0    0 -0.17207373676E+00 -0.95765540405E+00 -0.66813433081E+00  0.90007696341E+02  0.89999957133E+02 0.  0.
         12    1    1    2    0    0  0.17207373676E+00  0.95765540405E+00  0.66813433081E+00  0.11803036591E+01  0.00000000000E+00 0. -1.
         11    1    3    3    0    0 -0.74123547263E+01  0.43717422517E+01 -0.13104043989E+02  0.15677088443E+02  0.51100000000E-03 0. -1.
        -11    1    3    3    0    0  0.31986337645E+02  0.10641139737E+02 -0.12285009458E+02  0.35878699928E+02  0.51100000000E-03 0.  1.
         12    1    3    3    0    0 -0.24746056656E+02 -0.15970537393E+02  0.24720919116E+02  0.38451907971E+02  0.00000000000E+00 0. -1.
</event>
<event>
 7    1  0.2285268E-015  0.9000769E+02  0.7816164E-02  0.1186339E+00
        -11   -1    0    0    0    0  0.00000000000E+00  0.00000000000E+00  0.45593999997E+02  0.45594000000E+02  0.51100000000E-03 0.  1.
         11   -1    0    0    0    0 -0.00000000000E+00 -0.00000000000E+00 -0.45593999997E+02  0.45594000000E+02  0.51100000000E-03 0. -1.
    9900012    2    1    2    0    0 -0.51606991457E+00  0.77547290975E+00  0.72487279856E+00  0.90007692004E+02  0.89999952739E+02 0.  0.
         12    1    1    2    0    0  0.51606991457E+00 -0.77547290975E+00 -0.72487279856E+00  0.11803079956E+01  0.00000000000E+00 0. -1.
         11    1    3    3    0    0  0.39210521551E+02  0.13918800065E+02 -0.77653462840E+01  0.42326098317E+02  0.51100000000E-03 0. -1.
        -11    1    3    3    0    0 -0.70124185905E+01 -0.66803209251E+01 -0.59239560898E+01  0.11353147500E+02  0.51100000000E-03 0.  1.
        -12    1    3    3    0    0 -0.32714172875E+02 -0.64630062304E+01  0.14414175172E+02  0.36328446187E+02  0.00000000000E+00 0.  1.
</event>
<event>
 7    1  0.2285268E-015  0.9000795E+02  0.7816164E-02  0.1186339E+00
        -11   -1    0    0    0    0  0.00000000000E+00  0.00000000000E+00  0.45593999997E+02  0.45594000000E+02  0.51100000000E-03 0.  1.
         11   -1    0    0    0    0 -0.00000000000E+00 -0.00000000000E+00 -0.45593999997E+02  0.45594000000E+02  0.51100000000E-03 0. -1.
    9900012    2    1    2    0    0 -0.93097115877E+00  0.57041224383E+00  0.44769472561E+00  0.90007954241E+02  0.90000218437E+02 0.  0.
         12    1    1    2    0    0  0.93097115877E+00 -0.57041224383E+00 -0.44769472561E+00  0.11800457592E+01  0.00000000000E+00 0. -1.
         11    1    3    3    0    0  0.75506141579E+01  0.54470610940E+01  0.90388369357E+00  0.93541036297E+01  0.51100000000E-03 0. -1.
        -11    1    3    3    0    0  0.29320622360E+02  0.18149497645E+02  0.84503699283E+01  0.35503688717E+02  0.51100000000E-03 0.  1.
         12    1    3    3    0    0 -0.37802207677E+02 -0.23026146495E+02 -0.89065588962E+01  0.45150161894E+02  0.00000000000E+00 0. -1.
</event>
<event>
 7    1  0.2285268E-015  0.9000800E+02  0.7816164E-02  0.1186339E+00
        -11   -1    0    0    0    0  0.00000000000E+00  0.00000000000E+00  0.45593999997E+02  0.45594000000E+02  0.51100000000E-03 0.  1.
         11   -1    0    0    0    0 -0.00000000000E+00 -0.00000000000E+00 -0.45593999997E+02  0.45594000000E+02  0.51100000000E-03 0. -1.
    9900012    2    1    2    0    0  0.66656784650E+00  0.29900748968E-01  0.97324270823E+00  0.90007996560E+02  0.90000261314E+02 0.  0.
         12    1    1    2    0    0 -0.66656784650E+00 -0.29900748968E-01 -0.97324270823E+00  0.11800034398E+01  0.00000000000E+00 0. -1.
         11    1    3    3    0    0 -0.24259398708E+02 -0.26164647190E+02 -0.21516124483E+01  0.35745442012E+02  0.51100000000E-03 0. -1.
        -11    1    3    3    0    0 -0.98591426087E+01  0.14879266595E+01  0.57598378625E+01  0.11514875214E+02  0.51100000000E-03 0.  1.
        -12    1    3    3    0    0  0.34785109164E+02  0.24706621280E+02 -0.26349827059E+01  0.42747679334E+02  0.00000000000E+00 0.  1.
</event>
<event>
 7    1  0.2285268E-015  0.9000776E+02  0.7816164E-02  0.1186339E+00
        -11   -1    0    0    0    0  0.00000000000E+00  0.00000000000E+00  0.45593999997E+02  0.45594000000E+02  0.51100000000E-03 0.  1.
         11   -1    0    0    0    0 -0.00000000000E+00 -0.00000000000E+00 -0.45593999997E+02  0.45594000000E+02  0.51100000000E-03 0. -1.
    9900012    2    1    2    0    0 -0.10306744965E+01 -0.35665346099E+00 -0.45108593617E+00  0.90007758444E+02  0.90000020055E+02 0.  0.
         12    1    1    2    0    0  0.10306744965E+01  0.35665346099E+00  0.45108593617E+00  0.11802415561E+01  0.00000000000E+00 0. -1.
         11    1    3    3    0    0  0.93310979729E+01 -0.34848147248E+00  0.34589903666E+01  0.99576826287E+01  0.51100000000E-03 0. -1.
        -11    1    3    3    0    0  0.32453691641E+02 -0.33650382563E+01  0.11239831422E+02  0.34509410227E+02  0.51100000000E-03 0.  1.
         12    1    3    3    0    0 -0.42815464110E+02  0.33568662678E+01 -0.15149907725E+02  0.45540665588E+02  0.00000000000E+00 0. -1.
</event>
<event>
 7    1  0.2285268E-015  0.9000764E+02  0.7816164E-02  0.1186339E+00
        -11   -1    0    0    0    0  0.00000000000E+00  0.00000000000E+00  0.45593999997E+02  0.45594000000E+02  0.51100000000E-03 0. -1.
         11   -1    0    0    0    0 -0.00000000000E+00 -0.00000000000E+00 -0.45593999997E+02  0.45594000000E+02  0.51100000000E-03 0.  1.
    9900012    2    1    2    0    0 -0.11576016370E+01 -0.22129771329E+00  0.65019192130E-01  0.90007643392E+02  0.89999903484E+02 0.  0.
         12    1    1    2    0    0  0.11576016370E+01  0.22129771329E+00 -0.65019192130E-01  0.11803566085E+01  0.00000000000E+00 0. -1.
         11    1    3    3    0    0  0.44260550921E+01 -0.75895963591E+01  0.36120635480E+01  0.94994178721E+01  0.51100000000E-03 0. -1.
        -11    1    3    3    0    0  0.81518450945E+01 -0.20730772278E+02 -0.31486579787E+02  0.38569705789E+02  0.51100000000E-03 0.  1.
         12    1    3    3    0    0 -0.13735501824E+02  0.28099070924E+02  0.27939535431E+02  0.41938519731E+02  0.00000000000E+00 0. -1.
</event>
<event>
 7    1  0.2285268E-015  0.9000820E+02  0.7816164E-02  0.1186338E+00
        -11   -1    0    0    0    0  0.00000000000E+00  0.00000000000E+00  0.45593999997E+02  0.45594000000E+02  0.51100000000E-03 0.  1.
         11   -1    0    0    0    0 -0.00000000000E+00 -0.00000000000E+00 -0.45593999997E+02  0.45594000000E+02  0.51100000000E-03 0. -1.
    9900012    2    1    2    0    0 -0.56963698658E+00  0.20293700801E+00  0.10130442407E+01  0.90008199865E+02  0.90000467302E+02 0.  0.
         12    1    1    2    0    0  0.56963698658E+00 -0.20293700801E+00 -0.10130442407E+01  0.11798001353E+01  0.00000000000E+00 0. -1.
         11    1    3    3    0    0 -0.28253799554E+02  0.80916221916E+01 -0.27277226887E+02  0.40097364575E+02  0.51100000000E-03 0. -1.
        -11    1    3    3    0    0 -0.30201384957E+00 -0.11057677209E+02  0.17275366062E+01  0.11195884092E+02  0.51100000000E-03 0.  1.
        -12    1    3    3    0    0  0.27986176417E+02  0.31689920255E+01  0.26562734522E+02  0.38714951197E+02  0.00000000000E+00 0.  1.
</event>
<event>
 7    1  0.2285268E-015  0.9000773E+02  0.7816164E-02  0.1186339E+00
        -11   -1    0    0    0    0  0.00000000000E+00  0.00000000000E+00  0.45593999997E+02  0.45594000000E+02  0.51100000000E-03 0. -1.
         11   -1    0    0    0    0 -0.00000000000E+00 -0.00000000000E+00 -0.45593999997E+02  0.45594000000E+02  0.51100000000E-03 0.  1.
    9900012    2    1    2    0    0 -0.78280858336E+00  0.88311995443E+00  0.18738624969E-01  0.90007728307E+02  0.89999989521E+02 0.  0.
         12    1    1    2    0    0  0.78280858336E+00 -0.88311995443E+00 -0.18738624969E-01  0.11802716925E+01  0.00000000000E+00 0. -1.
         11    1    3    3    0    0  0.60701650883E+01  0.46905958509E+01  0.72916605383E+01  0.10583804009E+02  0.51100000000E-03 0. -1.
        -11    1    3    3    0    0  0.13597039917E+02  0.10984618138E+02 -0.36703466788E+02  0.40653238551E+02  0.51100000000E-03 0.  1.
         12    1    3    3    0    0 -0.20450013589E+02 -0.14792094035E+02  0.29430544875E+02  0.38770685748E+02  0.00000000000E+00 0. -1.
</event>
<event>
 7    1  0.2285268E-015  0.9000792E+02  0.7816164E-02  0.1186339E+00
        -11   -1    0    0    0    0  0.00000000000E+00  0.00000000000E+00  0.45593999997E+02  0.45594000000E+02  0.51100000000E-03 0. -1.
         11   -1    0    0    0    0 -0.00000000000E+00 -0.00000000000E+00 -0.45593999997E+02  0.45594000000E+02  0.51100000000E-03 0.  1.
    9900012    2    1    2    0    0  0.39262819588E+00  0.10301831404E+01 -0.42088994054E+00  0.90007922653E+02  0.90000186432E+02 0.  0.
         12    1    1    2    0    0 -0.39262819588E+00 -0.10301831404E+01  0.42088994054E+00  0.11800773471E+01  0.00000000000E+00 0. -1.
         11    1    3    3    0    0 -0.96154380977E+01  0.20144562864E+01 -0.38625062047E+01  0.10556213260E+02  0.51100000000E-03 0. -1.
        -11    1    3    3    0    0  0.96247303000E+01  0.23453532893E+02 -0.29202727385E+02  0.38671732900E+02  0.51100000000E-03 0.  1.
         12    1    3    3    0    0  0.38333599357E+00 -0.24437806039E+02  0.32644343649E+02  0.40779976493E+02  0.00000000000E+00 0. -1.
</event>
<event>
 7    1  0.2285268E-015  0.9000766E+02  0.7816164E-02  0.1186339E+00
        -11   -1    0    0    0    0  0.00000000000E+00  0.00000000000E+00  0.45593999997E+02  0.45594000000E+02  0.51100000000E-03 0. -1.
         11   -1    0    0    0    0 -0.00000000000E+00 -0.00000000000E+00 -0.45593999997E+02  0.45594000000E+02  0.51100000000E-03 0.  1.
    9900012    2    1    2    0    0 -0.54528159877E+00  0.51479519870E+00 -0.91151086472E+00  0.90007661839E+02  0.89999922175E+02 0.  0.
         12    1    1    2    0    0  0.54528159877E+00 -0.51479519870E+00  0.91151086472E+00  0.11803381613E+01  0.00000000000E+00 0. -1.
         11    1    3    3    0    0  0.43212970774E+01  0.33174509715E+01  0.66344111139E+01  0.85845501029E+01  0.51100000000E-03 0. -1.
        -11    1    3    3    0    0 -0.15789195204E+02  0.76680393955E+01 -0.41058522460E+02  0.44653104934E+02  0.51100000000E-03 0.  1.
         12    1    3    3    0    0  0.10922616528E+02 -0.10470695168E+02  0.33512600482E+02  0.36770006802E+02  0.00000000000E+00 0. -1.
</event>
<event>
 7    1  0.2285268E-015  0.9000777E+02  0.7816164E-02  0.1186339E+00
        -11   -1    0    0    0    0  0.00000000000E+00  0.00000000000E+00  0.45593999997E+02  0.45594000000E+02  0.51100000000E-03 0.  1.
         11   -1    0    0    0    0 -0.00000000000E+00 -0.00000000000E+00 -0.45593999997E+02  0.45594000000E+02  0.51100000000E-03 0. -1.
    9900012    2    1    2    0    0 -0.95561614461E+00 -0.68929520628E+00 -0.67962399209E-01  0.90007767402E+02  0.90000029132E+02 0.  0.
         12    1    1    2    0    0  0.95561614461E+00  0.68929520628E+00  0.67962399209E-01  0.11802325978E+01  0.00000000000E+00 0. -1.
         11    1    3    3    0    0 -0.21172275402E+02  0.52643207338E+01 -0.34005197048E+02  0.40402125501E+02  0.51100000000E-03 0. -1.
        -11    1    3    3    0    0 -0.73526926413E+01 -0.37547422903E+01  0.53975857679E+01  0.98637777310E+01  0.51100000000E-03 0.  1.
        -12    1    3    3    0    0  0.27569351899E+02 -0.21988736497E+01  0.28539648881E+02  0.39741864170E+02  0.00000000000E+00 0.  1.
</event>
<event>
 7    1  0.2285268E-015  0.9000781E+02  0.7816164E-02  0.1186339E+00
        -11   -1    0    0    0    0  0.00000000000E+00  0.00000000000E+00  0.45593999997E+02  0.45594000000E+02  0.51100000000E-03 0.  1.
         11   -1    0    0    0    0 -0.00000000000E+00 -0.00000000000E+00 -0.45593999997E+02  0.45594000000E+02  0.51100000000E-03 0. -1.
    9900012    2    1    2    0    0  0.58262311305E+00  0.97514294667E+00  0.32016642757E+00  0.90007805101E+02  0.90000067328E+02 0.  0.
         12    1    1    2    0    0 -0.58262311305E+00 -0.97514294667E+00 -0.32016642757E+00  0.11801948990E+01  0.00000000000E+00 0. -1.
         11    1    3    3    0    0  0.91383002819E+01 -0.14440519775E+01  0.21729076915E+01  0.95034386541E+01  0.51100000000E-03 0. -1.
        -11    1    3    3    0    0  0.25921307386E+02 -0.18267709836E+02  0.17128809224E+02  0.36041913169E+02  0.51100000000E-03 0.  1.
         12    1    3    3    0    0 -0.34476984554E+02  0.20686904760E+02 -0.18981550488E+02  0.44462453277E+02  0.00000000000E+00 0. -1.
</event>
<event>
 7    1  0.2285268E-015  0.9000837E+02  0.7816164E-02  0.1186338E+00
        -11   -1    0    0    0    0  0.00000000000E+00  0.00000000000E+00  0.45593999997E+02  0.45594000000E+02  0.51100000000E-03 0.  1.
         11   -1    0    0    0    0 -0.00000000000E+00 -0.00000000000E+00 -0.45593999997E+02  0.45594000000E+02  0.51100000000E-03 0. -1.
    9900012    2    1    2    0    0 -0.18274522554E-01  0.95355181410E+00 -0.69421135030E+00  0.90008371067E+02  0.90000640763E+02 0.  0.
         12    1    1    2    0    0  0.18274522554E-01 -0.95355181410E+00  0.69421135030E+00  0.11796289329E+01  0.00000000000E+00 0. -1.
         11    1    3    3    0    0 -0.56344265381E+01 -0.83658592770E+01  0.56516214450E+00  0.10102166716E+02  0.51100000000E-03 0. -1.
        -11    1    3    3    0    0  0.40584484900E+02  0.10493823128E+02  0.10102861862E+02  0.43119468417E+02  0.51100000000E-03 0.  1.
         12    1    3    3    0    0 -0.34968332885E+02 -0.11744120368E+01 -0.11362235357E+02  0.36786735934E+02  0.00000000000E+00 0. -1.
</event>
<event>
 7    1  0.2285268E-015  0.9000771E+02  0.7816164E-02  0.1186339E+00
        -11   -1    0    0    0    0  0.00000000000E+00  0.00000000000E+00  0.45593999997E+02  0.45594000000E+02  0.51100000000E-03 0.  1.
         11   -1    0    0    0    0 -0.00000000000E+00 -0.00000000000E+00 -0.45593999997E+02  0.45594000000E+02  0.51100000000E-03 0. -1.
    9900012    2    1    2    0    0 -0.11352047420E+01 -0.24105577785E+00 -0.21512492981E+00  0.90007713412E+02  0.89999974429E+02 0.  0.
         12    1    1    2    0    0  0.11352047420E+01  0.24105577785E+00  0.21512492981E+00  0.11802865879E+01  0.00000000000E+00 0. -1.
         11    1    3    3    0    0 -0.13673701582E+01  0.12920787067E+02 -0.42792187467E+01  0.13679479263E+02  0.51100000000E-03 0. -1.
        -11    1    3    3    0    0 -0.33770030217E+02 -0.23752026825E-01  0.16796324228E+02  0.37716468721E+02  0.51100000000E-03 0.  1.
         12    1    3    3    0    0  0.34002195633E+02 -0.13138090818E+02 -0.12732230411E+02  0.38611765427E+02  0.00000000000E+00 0. -1.
</event>
<event>
 7    1  0.2285268E-015  0.9000807E+02  0.7816164E-02  0.1186338E+00
        -11   -1    0    0    0    0  0.00000000000E+00  0.00000000000E+00  0.45593999997E+02  0.45594000000E+02  0.51100000000E-03 0. -1.
         11   -1    0    0    0    0 -0.00000000000E+00 -0.00000000000E+00 -0.45593999997E+02  0.45594000000E+02  0.51100000000E-03 0.  1.
    9900012    2    1    2    0    0 -0.38311417761E+00  0.92895075896E+00  0.61846712480E+00  0.90008073066E+02  0.90000338830E+02 0.  0.
         12    1    1    2    0    0  0.38311417761E+00 -0.92895075896E+00 -0.61846712480E+00  0.11799269342E+01  0.00000000000E+00 0. -1.
         11    1    3    3    0    0  0.34811072709E+02 -0.17360401174E+02 -0.68875215089E+01  0.39504838499E+02  0.51100000000E-03 0. -1.
        -11    1    3    3    0    0  0.45253781994E+01 -0.35437015575E+00 -0.29287552337E+01  0.54020582684E+01  0.51100000000E-03 0.  1.
        -12    1    3    3    0    0 -0.39719565086E+02  0.18643722089E+02  0.10434743867E+02  0.45101176298E+02  0.00000000000E+00 0.  1.
</event>
<event>
 7    1  0.2285268E-015  0.9000781E+02  0.7816164E-02  0.1186339E+00
        -11   -1    0    0    0    0  0.00000000000E+00  0.00000000000E+00  0.45593999997E+02  0.45594000000E+02  0.51100000000E-03 0.  1.
         11   -1    0    0    0    0 -0.00000000000E+00 -0.00000000000E+00 -0.45593999997E+02  0.45594000000E+02  0.51100000000E-03 0. -1.
    9900012    2    1    2    0    0 -0.93093840153E+00  0.63344936630E+00  0.35347258393E+00  0.90007810492E+02  0.90000072791E+02 0.  0.
         12    1    1    2    0    0  0.93093840153E+00 -0.63344936630E+00 -0.35347258393E+00  0.11801895080E+01  0.00000000000E+00 0. -1.
         11    1    3    3    0    0  0.24966856058E+01 -0.68601860737E+01 -0.68404332682E+01  0.10004355029E+02  0.51100000000E-03 0. -1.
        -11    1    3    3    0    0  0.30597766212E+02  0.26620652229E+02  0.17729502166E+01  0.40595883719E+02  0.51100000000E-03 0.  1.
         12    1    3    3    0    0 -0.34025390219E+02 -0.19127016789E+02  0.54209556355E+01  0.39407571744E+02  0.00000000000E+00 0. -1.
</event>
<event>
 7    1  0.2285268E-015  0.9000758E+02  0.7816164E-02  0.1186339E+00
        -11   -1    0    0    0    0  0.00000000000E+00  0.00000000000E+00  0.45593999997E+02  0.45594000000E+02  0.51100000000E-03 0. -1.
         11   -1    0    0    0    0 -0.00000000000E+00 -0.00000000000E+00 -0.45593999997E+02  0.45594000000E+02  0.51100000000E-03 0.  1.
    9900012    2    1    2    0    0  0.77687405212E+00 -0.64161889080E+00 -0.61497397123E+00  0.90007575890E+02  0.89999835092E+02 0.  0.
         12    1    1    2    0    0 -0.77687405212E+00  0.64161889080E+00  0.61497397123E+00  0.11804241099E+01  0.00000000000E+00 0. -1.
         11    1    3    3    0    0  0.83299501295E+01  0.32276609126E+01 -0.12416756210E+01  0.90192916981E+01  0.51100000000E-03 0. -1.
        -11    1    3    3    0    0  0.75220459343E+01  0.32376054796E+02  0.18294241272E+02  0.37940339524E+02  0.51100000000E-03 0.  1.
         12    1    3    3    0    0 -0.15075122012E+02 -0.36245334599E+02 -0.17667539623E+02  0.43047944668E+02  0.00000000000E+00 0. -1.
</event>
<event>
 7    1  0.2285268E-015  0.9000778E+02  0.7816164E-02  0.1186339E+00
        -11   -1    0    0    0    0  0.00000000000E+00  0.00000000000E+00  0.45593999997E+02  0.45594000000E+02  0.51100000000E-03 0.  1.
         11   -1    0    0    0    0 -0.00000000000E+00 -0.00000000000E+00 -0.45593999997E+02  0.45594000000E+02  0.51100000000E-03 0. -1.
    9900012    2    1    2    0    0 -0.10101714016E+01  0.34270489677E+00  0.50499434881E+00  0.90007782986E+02  0.90000044922E+02 0.  0.
         12    1    1    2    0    0  0.10101714016E+01 -0.34270489677E+00 -0.50499434881E+00  0.11802170136E+01  0.00000000000E+00 0. -1.
         11    1    3    3    0    0  0.24083742642E+02 -0.24713783701E+02  0.47136881352E+01  0.34828388142E+02  0.51100000000E-03 0. -1.
        -11    1    3    3    0    0 -0.99521989011E+01 -0.10903248995E+02  0.40276651093E+01  0.15301934129E+02  0.51100000000E-03 0.  1.
        -12    1    3    3    0    0 -0.15141715143E+02  0.35959737593E+02 -0.82363588957E+01  0.39877460715E+02  0.00000000000E+00 0.  1.
</event>
<event>
 7    1  0.2285268E-015  0.9000769E+02  0.7816164E-02  0.1186339E+00
        -11   -1    0    0    0    0  0.00000000000E+00  0.00000000000E+00  0.45593999997E+02  0.45594000000E+02  0.51100000000E-03 0.  1.
         11   -1    0    0    0    0 -0.00000000000E+00 -0.00000000000E+00 -0.45593999997E+02  0.45594000000E+02  0.51100000000E-03 0. -1.
    9900012    2    1    2    0    0 -0.41896632866E-01  0.66099753430E+00 -0.97695825237E+00  0.90007694745E+02  0.89999955516E+02 0.  0.
         12    1    1    2    0    0  0.41896632866E-01 -0.66099753430E+00  0.97695825237E+00  0.11803052550E+01  0.00000000000E+00 0. -1.
         11    1    3    3    0    0  0.20503475026E+02  0.26886068065E+02 -0.12559123246E+02  0.36069165795E+02  0.51100000000E-03 0. -1.
        -11    1    3    3    0    0  0.85467094818E+01  0.42090421879E+01 -0.19316899617E+01  0.97207872868E+01  0.51100000000E-03 0.  1.
        -12    1    3    3    0    0 -0.29092081141E+02 -0.30434112719E+02  0.13513854955E+02  0.44217741664E+02  0.00000000000E+00 0.  1.
</event>
<event>
 7    1  0.2285268E-015  0.9000771E+02  0.7816164E-02  0.1186339E+00
        -11   -1    0    0    0    0  0.00000000000E+00  0.00000000000E+00  0.45593999997E+02  0.45594000000E+02  0.51100000000E-03 0. -1.
         11   -1    0    0    0    0 -0.00000000000E+00 -0.00000000000E+00 -0.45593999997E+02  0.45594000000E+02  0.51100000000E-03 0.  1.
    9900012    2    1    2    0    0 -0.46298611706E+00  0.32536150076E+00 -0.10357927311E+01  0.90007710700E+02  0.89999971681E+02 0.  0.
         12    1    1    2    0    0  0.46298611706E+00 -0.32536150076E+00  0.10357927311E+01  0.11802893004E+01  0.00000000000E+00 0. -1.
         11    1    3    3    0    0  0.28596515200E+02 -0.20395645148E+02  0.70857996892E+01  0.35832270094E+02  0.51100000000E-03 0. -1.
        -11    1    3    3    0    0  0.44710157541E+01 -0.81611274074E+01 -0.16280998533E+01  0.94469408714E+01  0.51100000000E-03 0.  1.
        -12    1    3    3    0    0 -0.33530517072E+02  0.28882134056E+02 -0.64934925671E+01  0.44728499734E+02  0.00000000000E+00 0.  1.
</event>
<event>
 7    1  0.2285268E-015  0.9000778E+02  0.7816164E-02  0.1186339E+00
        -11   -1    0    0    0    0  0.00000000000E+00  0.00000000000E+00  0.45593999997E+02  0.45594000000E+02  0.51100000000E-03 0.  1.
         11   -1    0    0    0    0 -0.00000000000E+00 -0.00000000000E+00 -0.45593999997E+02  0.45594000000E+02  0.51100000000E-03 0. -1.
    9900012    2    1    2    0    0  0.68011691078E+00  0.44583998366E+00  0.85533011962E+00  0.90007778869E+02  0.90000040751E+02 0.  0.
         12    1    1    2    0    0 -0.68011691078E+00 -0.44583998366E+00 -0.85533011962E+00  0.11802211305E+01  0.00000000000E+00 0. -1.
         11    1    3    3    0    0  0.24797971960E+01 -0.23436216883E+01 -0.99783776894E+01  0.10545614175E+02  0.51100000000E-03 0. -1.
        -11    1    3    3    0    0  0.31915185487E+02 -0.20289311301E+02  0.65409626394E+01  0.38379934995E+02  0.51100000000E-03 0.  1.
         12    1    3    3    0    0 -0.33714865772E+02  0.23078772973E+02  0.42927451696E+01  0.41082229699E+02  0.00000000000E+00 0. -1.
</event>
<event>
 7    1  0.2285268E-015  0.9000751E+02  0.7816164E-02  0.1186340E+00
        -11   -1    0    0    0    0  0.00000000000E+00  0.00000000000E+00  0.45593999997E+02  0.45594000000E+02  0.51100000000E-03 0.  1.
         11   -1    0    0    0    0 -0.00000000000E+00 -0.00000000000E+00 -0.45593999997E+02  0.45594000000E+02  0.51100000000E-03 0. -1.
    9900012    2    1    2    0    0  0.11681775901E+01 -0.75790603955E-01 -0.15224957527E+00  0.90007507293E+02  0.89999765589E+02 0.  0.
         12    1    1    2    0    0 -0.11681775901E+01  0.75790603955E-01  0.15224957527E+00  0.11804927068E+01  0.00000000000E+00 0. -1.
         11    1    3    3    0    0 -0.37918731434E+01  0.76576207117E+01  0.81687085789E+00  0.85839813117E+01  0.51100000000E-03 0. -1.
        -11    1    3    3    0    0  0.30340773464E+02 -0.16791893358E+02  0.25966168804E+02  0.43321728261E+02  0.51100000000E-03 0.  1.
         12    1    3    3    0    0 -0.25380722730E+02  0.90584820425E+01 -0.26935289237E+02  0.38101797720E+02  0.00000000000E+00 0. -1.
</event>
<event>
 7    1  0.2285268E-015  0.9000756E+02  0.7816164E-02  0.1186339E+00
        -11   -1    0    0    0    0  0.00000000000E+00  0.00000000000E+00  0.45593999997E+02  0.45594000000E+02  0.51100000000E-03 0. -1.
         11   -1    0    0    0    0 -0.00000000000E+00 -0.00000000000E+00 -0.45593999997E+02  0.45594000000E+02  0.51100000000E-03 0.  1.
    9900012    2    1    2    0    0 -0.11231501173E+01 -0.33774534994E+00  0.13377186811E+00  0.90007562361E+02  0.89999821384E+02 0.  0.
         12    1    1    2    0    0  0.11231501173E+01  0.33774534994E+00 -0.13377186811E+00  0.11804376393E+01  0.00000000000E+00 0. -1.
         11    1    3    3    0    0  0.27787268464E+02 -0.57997548715E+01  0.22881290508E+02  0.36459880702E+02  0.51100000000E-03 0. -1.
        -11    1    3    3    0    0  0.46269296941E+01  0.42669320966E+01  0.64887897614E+01  0.90398883146E+01  0.51100000000E-03 0.  1.
        -12    1    3    3    0    0 -0.33537348275E+02  0.11950774250E+01 -0.29236308402E+02  0.44507793344E+02  0.00000000000E+00 0.  1.
</event>
<event>
 7    1  0.2285268E-015  0.9000785E+02  0.7816164E-02  0.1186339E+00
        -11   -1    0    0    0    0  0.00000000000E+00  0.00000000000E+00  0.45593999997E+02  0.45594000000E+02  0.51100000000E-03 0.  1.
         11   -1    0    0    0    0 -0.00000000000E+00 -0.00000000000E+00 -0.45593999997E+02  0.45594000000E+02  0.51100000000E-03 0. -1.
    9900012    2    1    2    0    0 -0.51977469334E+00  0.87361362488E+00  0.59949534622E+00  0.90007846973E+02  0.90000109753E+02 0.  0.
         12    1    1    2    0    0  0.51977469334E+00 -0.87361362488E+00 -0.59949534622E+00  0.11801530272E+01  0.00000000000E+00 0. -1.
         11    1    3    3    0    0  0.71949749313E+01 -0.51867091996E+01 -0.86011469007E+01  0.12355134352E+02  0.51100000000E-03 0. -1.
        -11    1    3    3    0    0  0.70417065044E+01 -0.33661997639E+02  0.50148331342E+00  0.34394290243E+02  0.51100000000E-03 0.  1.
         12    1    3    3    0    0 -0.14756456129E+02  0.39722320463E+02  0.86991589335E+01  0.43258422378E+02  0.00000000000E+00 0. -1.
</event>
<event>
 7    1  0.2285268E-015  0.9000773E+02  0.7816164E-02  0.1186339E+00
        -11   -1    0    0    0    0  0.00000000000E+00  0.00000000000E+00  0.45593999997E+02  0.45594000000E+02  0.51100000000E-03 0.  1.
         11   -1    0    0    0    0 -0.00000000000E+00 -0.00000000000E+00 -0.45593999997E+02  0.45594000000E+02  0.51100000000E-03 0. -1.
    9900012    2    1    2    0    0 -0.88200956903E-01  0.11218080430E+01  0.35609278502E+00  0.90007731062E+02  0.89999992312E+02 0.  0.
         12    1    1    2    0    0  0.88200956903E-01 -0.11218080430E+01 -0.35609278502E+00  0.11802689379E+01  0.00000000000E+00 0. -1.
         11    1    3    3    0    0 -0.13545229303E+02 -0.38271784293E+02 -0.10136437612E+02  0.41844355385E+02  0.51100000000E-03 0. -1.
        -11    1    3    3    0    0  0.10275178445E+02  0.52297530874E+01 -0.18946432238E+01  0.11684146637E+02  0.51100000000E-03 0.  1.
        -12    1    3    3    0    0  0.31818499008E+01  0.34163839249E+02  0.12387173621E+02  0.36479229040E+02  0.00000000000E+00 0.  1.
</event>
<event>
 7    1  0.2285268E-015  0.9000666E+02  0.7816164E-02  0.1186341E+00
        -11   -1    0    0    0    0  0.00000000000E+00  0.00000000000E+00  0.45593999997E+02  0.45594000000E+02  0.51100000000E-03 0.  1.
         11   -1    0    0    0    0 -0.00000000000E+00 -0.00000000000E+00 -0.45593999997E+02  0.45594000000E+02  0.51100000000E-03 0. -1.
    9900012    2    1    2    0    0 -0.10065384189E+00 -0.11711206362E+01 -0.11798784579E+00  0.90006655058E+02  0.89998902098E+02 0.  0.
         12    1    1    2    0    0  0.10065384189E+00  0.11711206362E+01  0.11798784579E+00  0.11813449421E+01  0.00000000000E+00 0. -1.
         11    1    3    3    0    0  0.35176690612E+02  0.61021175637E+01  0.97770965615E+01  0.37016577619E+02  0.51100000000E-03 0. -1.
        -11    1    3    3    0    0  0.50615601792E+01 -0.29511786563E+01  0.69255538193E+01  0.90715016879E+01  0.51100000000E-03 0.  1.
        -12    1    3    3    0    0 -0.40338904633E+02 -0.43220595435E+01 -0.16820638227E+02  0.43918575751E+02  0.00000000000E+00 0.  1.
</event>
<event>
 7    1  0.2285268E-015  0.9000770E+02  0.7816164E-02  0.1186339E+00
        -11   -1    0    0    0    0  0.00000000000E+00  0.00000000000E+00  0.45593999997E+02  0.45594000000E+02  0.51100000000E-03 0. -1.
         11   -1    0    0    0    0 -0.00000000000E+00 -0.00000000000E+00 -0.45593999997E+02  0.45594000000E+02  0.51100000000E-03 0.  1.
    9900012    2    1    2    0    0  0.65089226645E-01  0.11652129044E+01  0.17648780934E+00  0.90007701026E+02  0.89999961880E+02 0.  0.
         12    1    1    2    0    0 -0.65089226645E-01 -0.11652129044E+01 -0.17648780934E+00  0.11802989735E+01  0.00000000000E+00 0. -1.
         11    1    3    3    0    0  0.24728023813E+02 -0.14708327941E+01  0.24840224772E+02  0.35080981711E+02  0.51100000000E-03 0. -1.
        -11    1    3    3    0    0  0.12206413969E+01  0.22776637783E+01  0.10752556307E+02  0.11058715346E+02  0.51100000000E-03 0.  1.
        -12    1    3    3    0    0 -0.25883575983E+02  0.35838192022E+00 -0.35416293270E+02  0.43868003969E+02  0.00000000000E+00 0.  1.
</event>
<event>
 7    1  0.2285268E-015  0.9000772E+02  0.7816164E-02  0.1186339E+00
        -11   -1    0    0    0    0  0.00000000000E+00  0.00000000000E+00  0.45593999997E+02  0.45594000000E+02  0.51100000000E-03 0.  1.
         11   -1    0    0    0    0 -0.00000000000E+00 -0.00000000000E+00 -0.45593999997E+02  0.45594000000E+02  0.51100000000E-03 0. -1.
    9900012    2    1    2    0    0 -0.60047345328E+00 -0.96452880330E+00  0.31965867672E+00  0.90007717894E+02  0.89999978970E+02 0.  0.
         12    1    1    2    0    0  0.60047345328E+00  0.96452880330E+00 -0.31965867672E+00  0.11802821062E+01  0.00000000000E+00 0. -1.
         11    1    3    3    0    0  0.22668410914E+02  0.28383849570E+02  0.95338863199E+00  0.36337428636E+02  0.51100000000E-03 0. -1.
        -11    1    3    3    0    0  0.46121818986E+01  0.66085525446E+01 -0.13132771638E+01  0.81651629360E+01  0.51100000000E-03 0.  1.
        -12    1    3    3    0    0 -0.27881066266E+02 -0.35956930918E+02  0.67954720853E+00  0.45505126322E+02  0.00000000000E+00 0.  1.
</event>
<event>
 7    1  0.2890950E-015  0.9000769E+02  0.7816164E-02  0.1186339E+00
        -11   -1    0    0    0    0  0.00000000000E+00  0.00000000000E+00  0.45593999997E+02  0.45594000000E+02  0.51100000000E-03 0.  1.
         11   -1    0    0    0    0 -0.00000000000E+00 -0.00000000000E+00 -0.45593999997E+02  0.45594000000E+02  0.51100000000E-03 0. -1.
    9900012    2    1    2    0    0  0.81981238502E+00  0.30760443250E+00 -0.79147322962E+00  0.90007685336E+02  0.89999945982E+02 0.  0.
         12    1    1    2    0    0 -0.81981238502E+00 -0.30760443250E+00  0.79147322962E+00  0.11803146643E+01  0.00000000000E+00 0. -1.
         11    1    3    3    0    0 -0.47417124475E+01  0.62550482546E+01  0.52830171341E+01  0.94614869815E+01  0.51100000000E-03 0. -1.
        -11    1    3    3    0    0  0.95817064732E+01  0.33510388269E+02 -0.17869694272E+02  0.39167348576E+02  0.51100000000E-03 0.  1.
         12    1    3    3    0    0 -0.40201816407E+01 -0.39457832091E+02  0.11795203908E+02  0.41378849778E+02  0.00000000000E+00 0. -1.
</event>
<event>
 7    1  0.2285268E-015  0.9000782E+02  0.7816164E-02  0.1186339E+00
        -11   -1    0    0    0    0  0.00000000000E+00  0.00000000000E+00  0.45593999997E+02  0.45594000000E+02  0.51100000000E-03 0.  1.
         11   -1    0    0    0    0 -0.00000000000E+00 -0.00000000000E+00 -0.45593999997E+02  0.45594000000E+02  0.51100000000E-03 0. -1.
    9900012    2    1    2    0    0  0.55340370481E+00 -0.10417662601E+01 -0.35937296509E-01  0.90007820314E+02  0.90000082742E+02 0.  0.
         12    1    1    2    0    0 -0.55340370481E+00  0.10417662601E+01  0.35937296509E-01  0.11801796857E+01  0.00000000000E+00 0. -1.
         11    1    3    3    0    0 -0.27319761323E+02  0.17658985343E+02 -0.15487291254E+02  0.36028673480E+02  0.51100000000E-03 0. -1.
        -11    1    3    3    0    0  0.70333490719E+01  0.87294416086E+01 -0.66650542579E+01  0.13042012823E+02  0.51100000000E-03 0.  1.
        -12    1    3    3    0    0  0.20839815956E+02 -0.27430193212E+02  0.22116408215E+02  0.40937134011E+02  0.00000000000E+00 0.  1.
</event>
<event>
 7    1  0.3061966E-015  0.9000769E+02  0.7816164E-02  0.1186339E+00
        -11   -1    0    0    0    0  0.00000000000E+00  0.00000000000E+00  0.45593999997E+02  0.45594000000E+02  0.51100000000E-03 0. -1.
         11   -1    0    0    0    0 -0.00000000000E+00 -0.00000000000E+00 -0.45593999997E+02  0.45594000000E+02  0.51100000000E-03 0.  1.
    9900012    2    1    2    0    0 -0.84725161001E+00  0.11233839086E+00  0.81404419988E+00  0.90007693614E+02  0.89999954370E+02 0.  0.
         12    1    1    2    0    0  0.84725161001E+00 -0.11233839086E+00 -0.81404419988E+00  0.11803063857E+01  0.00000000000E+00 0. -1.
         11    1    3    3    0    0 -0.25415406248E+00 -0.71415734357E+01  0.68138673118E+01  0.98739786018E+01  0.51100000000E-03 0. -1.
        -11    1    3    3    0    0 -0.33994393180E+02  0.12200621119E+01  0.18075297260E+02  0.38520432118E+02  0.51100000000E-03 0.  1.
         12    1    3    3    0    0  0.33401295633E+02  0.60338497147E+01 -0.24075120372E+02  0.41613282895E+02  0.00000000000E+00 0. -1.
</event>
<event>
 7    1  0.2285268E-015  0.9000760E+02  0.7816164E-02  0.1186339E+00
        -11   -1    0    0    0    0  0.00000000000E+00  0.00000000000E+00  0.45593999997E+02  0.45594000000E+02  0.51100000000E-03 0.  1.
         11   -1    0    0    0    0 -0.00000000000E+00 -0.00000000000E+00 -0.45593999997E+02  0.45594000000E+02  0.51100000000E-03 0. -1.
    9900012    2    1    2    0    0  0.74217733564E+00  0.84845223260E+00 -0.35020930490E+00  0.90007599667E+02  0.89999859183E+02 0.  0.
         12    1    1    2    0    0 -0.74217733564E+00 -0.84845223260E+00  0.35020930490E+00  0.11804003328E+01  0.00000000000E+00 0. -1.
         11    1    3    3    0    0 -0.58878041958E+01 -0.15496528823E+01  0.57296647076E+01  0.83604258400E+01  0.51100000000E-03 0. -1.
        -11    1    3    3    0    0  0.17377480699E+01 -0.96749016456E+01  0.36145424235E+02  0.37458179128E+02  0.51100000000E-03 0.  1.
         12    1    3    3    0    0  0.48922334616E+01  0.12073006760E+02 -0.42225298247E+02  0.44188994699E+02  0.00000000000E+00 0. -1.
</event>
<event>
 7    1  0.2526754E-015  0.9000781E+02  0.7816164E-02  0.1186339E+00
        -11   -1    0    0    0    0  0.00000000000E+00  0.00000000000E+00  0.45593999997E+02  0.45594000000E+02  0.51100000000E-03 0. -1.
         11   -1    0    0    0    0 -0.00000000000E+00 -0.00000000000E+00 -0.45593999997E+02  0.45594000000E+02  0.51100000000E-03 0.  1.
    9900012    2    1    2    0    0 -0.67336765836E+00  0.93729764066E+00 -0.24675195241E+00  0.90007814677E+02  0.90000077031E+02 0.  0.
         12    1    1    2    0    0  0.67336765836E+00 -0.93729764066E+00  0.24675195241E+00  0.11801853230E+01  0.00000000000E+00 0. -1.
         11    1    3    3    0    0  0.97331915960E-01  0.39551796045E+01  0.83920057795E+01  0.92778596923E+01  0.51100000000E-03 0. -1.
        -11    1    3    3    0    0  0.23462156592E+02  0.30591169232E+02 -0.80035850926E+00  0.38560770233E+02  0.51100000000E-03 0.  1.
         12    1    3    3    0    0 -0.24232856166E+02 -0.33609051196E+02 -0.78383992226E+01  0.42169184752E+02  0.00000000000E+00 0. -1.
</event>
<event>
 7    1  0.2285268E-015  0.9000781E+02  0.7816164E-02  0.1186339E+00
        -11   -1    0    0    0    0  0.00000000000E+00  0.00000000000E+00  0.45593999997E+02  0.45594000000E+02  0.51100000000E-03 0. -1.
         11   -1    0    0    0    0 -0.00000000000E+00 -0.00000000000E+00 -0.45593999997E+02  0.45594000000E+02  0.51100000000E-03 0.  1.
    9900012    2    1    2    0    0  0.70895963503E+00  0.14890171852E-01 -0.94339854356E+00  0.90007810908E+02  0.90000073212E+02 0.  0.
         12    1    1    2    0    0 -0.70895963503E+00 -0.14890171852E-01  0.94339854356E+00  0.11801890922E+01  0.00000000000E+00 0. -1.
         11    1    3    3    0    0  0.72932340402E+01 -0.47076753171E+01 -0.25291713588E+01  0.90415804857E+01  0.51100000000E-03 0. -1.
        -11    1    3    3    0    0  0.23317134781E+02 -0.14813477790E+02 -0.24350624812E+02  0.36825002752E+02  0.51100000000E-03 0.  1.
         12    1    3    3    0    0 -0.29901409187E+02  0.19536043279E+02  0.25936397627E+02  0.44141227670E+02  0.00000000000E+00 0. -1.
</event>
<event>
 7    1  0.2285268E-015  0.9000824E+02  0.7816164E-02  0.1186338E+00
        -11   -1    0    0    0    0  0.00000000000E+00  0.00000000000E+00  0.45593999997E+02  0.45594000000E+02  0.51100000000E-03 0. -1.
         11   -1    0    0    0    0 -0.00000000000E+00 -0.00000000000E+00 -0.45593999997E+02  0.45594000000E+02  0.51100000000E-03 0.  1.
    9900012    2    1    2    0    0 -0.59046551616E-01  0.10300306642E+01 -0.57217809944E+00  0.90008238396E+02  0.90000506342E+02 0.  0.
         12    1    1    2    0    0  0.59046551616E-01 -0.10300306642E+01  0.57217809944E+00  0.11797616038E+01  0.00000000000E+00 0. -1.
         11    1    3    3    0    0 -0.64874804005E+01  0.83043741560E+01  0.55155188886E+00  0.10552451934E+02  0.51100000000E-03 0. -1.
        -11    1    3    3    0    0  0.99045811731E+01  0.34744150919E+02 -0.72570182879E+01  0.36849980542E+02  0.51100000000E-03 0.  1.
         12    1    3    3    0    0 -0.34761473243E+01 -0.42018494410E+02  0.61332882996E+01  0.42605805920E+02  0.00000000000E+00 0. -1.
</event>
<event>
 7    1  0.2285268E-015  0.9000756E+02  0.7816164E-02  0.1186339E+00
        -11   -1    0    0    0    0  0.00000000000E+00  0.00000000000E+00  0.45593999997E+02  0.45594000000E+02  0.51100000000E-03 0. -1.
         11   -1    0    0    0    0 -0.00000000000E+00 -0.00000000000E+00 -0.45593999997E+02  0.45594000000E+02  0.51100000000E-03 0.  1.
    9900012    2    1    2    0    0  0.11528519347E+00 -0.44734394518E+00 -0.10862975213E+01  0.90007555344E+02  0.89999814274E+02 0.  0.
         12    1    1    2    0    0 -0.11528519347E+00  0.44734394518E+00  0.10862975213E+01  0.11804446560E+01  0.00000000000E+00 0. -1.
         11    1    3    3    0    0  0.22576651750E+02 -0.93866095653E+01  0.30864767622E+02  0.39375722521E+02  0.51100000000E-03 0. -1.
        -11    1    3    3    0    0  0.61779286145E+01  0.12508450781E+01  0.91076570359E+00  0.63687447588E+01  0.51100000000E-03 0.  1.
        -12    1    3    3    0    0 -0.28639295171E+02  0.76884205420E+01 -0.32861830847E+02  0.44263088064E+02  0.00000000000E+00 0.  1.
</event>
<event>
 8    1  0.2285268E-015  0.9000772E+02  0.7816164E-02  0.1186339E+00
        -11   -1    0    0    0    0  0.00000000000E+00  0.00000000000E+00  0.45593999997E+02  0.45594000000E+02  0.51100000000E-03 0. -1.
         11   -1    0    0    0    0 -0.00000000000E+00 -0.00000000000E+00 -0.45593999997E+02  0.45594000000E+02  0.51100000000E-03 0.  1.
    9900012    2    1    2    0    0  0.69170152091E+00 -0.20336528697E+00 -0.93447805607E+00  0.90007721359E+02  0.89999982481E+02 0.  0.
         23    2    3    3    0    0 -0.88072261615E+01 -0.21291245306E+02 -0.16889386669E+02  0.61909902588E+02  0.54924496330E+02 0.  0.
         12    1    1    2    0    0 -0.69170152091E+00  0.20336528697E+00  0.93447805607E+00  0.11802786414E+01  0.00000000000E+00 0. -1.
         11    1    4    4    0    0  0.18013480637E+02 -0.95456988501E+01  0.95014300436E+01  0.22491843507E+02  0.51100000000E-03 0. -1.
        -11    1    4    4    0    0 -0.26820706799E+02 -0.11745546456E+02 -0.26390816713E+02  0.39418059081E+02  0.51100000000E-03 0.  1.
         12    1    3    3    0    0  0.94989276824E+01  0.21087880019E+02  0.15954908613E+02  0.28097818770E+02  0.00000000000E+00 0. -1.
</event>
<event>
 7    1  0.2285268E-015  0.9000773E+02  0.7816164E-02  0.1186339E+00
        -11   -1    0    0    0    0  0.00000000000E+00  0.00000000000E+00  0.45593999997E+02  0.45594000000E+02  0.51100000000E-03 0.  1.
         11   -1    0    0    0    0 -0.00000000000E+00 -0.00000000000E+00 -0.45593999997E+02  0.45594000000E+02  0.51100000000E-03 0. -1.
    9900012    2    1    2    0    0 -0.65303748458E+00  0.96539318753E+00  0.18599679178E+00  0.90007730213E+02  0.89999991452E+02 0.  0.
         12    1    1    2    0    0  0.65303748458E+00 -0.96539318753E+00 -0.18599679178E+00  0.11802697867E+01  0.00000000000E+00 0. -1.
         11    1    3    3    0    0  0.89047427309E+01 -0.37230468080E+01 -0.13491516554E+01  0.97455492964E+01  0.51100000000E-03 0. -1.
        -11    1    3    3    0    0 -0.24398700148E+02  0.21092357053E+02  0.30111991262E+02  0.44123872371E+02  0.51100000000E-03 0.  1.
         12    1    3    3    0    0  0.14840919933E+02 -0.16403917057E+02 -0.28576842815E+02  0.36138308546E+02  0.00000000000E+00 0. -1.
</event>
<event>
 7    1  0.2285268E-015  0.9000778E+02  0.7816164E-02  0.1186339E+00
        -11   -1    0    0    0    0  0.00000000000E+00  0.00000000000E+00  0.45593999997E+02  0.45594000000E+02  0.51100000000E-03 0.  1.
         11   -1    0    0    0    0 -0.00000000000E+00 -0.00000000000E+00 -0.45593999997E+02  0.45594000000E+02  0.51100000000E-03 0. -1.
    9900012    2    1    2    0    0  0.32284321760E+00 -0.11008634248E+01 -0.27712323708E+00  0.90007777431E+02  0.90000039293E+02 0.  0.
         12    1    1    2    0    0 -0.32284321760E+00  0.11008634248E+01  0.27712323708E+00  0.11802225687E+01  0.00000000000E+00 0. -1.
         11    1    3    3    0    0  0.80703026519E+01  0.32574463293E+01  0.42289061096E+01  0.96759696478E+01  0.51100000000E-03 0. -1.
        -11    1    3    3    0    0 -0.33782454868E+02 -0.79353632115E+01  0.23512685762E+02  0.41917426427E+02  0.51100000000E-03 0.  1.
         12    1    3    3    0    0  0.26034995434E+02  0.35770534574E+01 -0.28018715109E+02  0.38414381357E+02  0.00000000000E+00 0. -1.
</event>
<event>
 7    1  0.2285268E-015  0.9000781E+02  0.7816164E-02  0.1186339E+00
        -11   -1    0    0    0    0  0.00000000000E+00  0.00000000000E+00  0.45593999997E+02  0.45594000000E+02  0.51100000000E-03 0. -1.
         11   -1    0    0    0    0 -0.00000000000E+00 -0.00000000000E+00 -0.45593999997E+02  0.45594000000E+02  0.51100000000E-03 0.  1.
    9900012    2    1    2    0    0  0.45553118984E-01 -0.54319930650E+00 -0.10467611557E+01  0.90007809553E+02  0.90000071839E+02 0.  0.
         12    1    1    2    0    0 -0.45553118984E-01  0.54319930650E+00  0.10467611557E+01  0.11801904467E+01  0.00000000000E+00 0. -1.
         11    1    3    3    0    0  0.42387037969E+02 -0.71995515410E+00  0.40416308502E+00  0.42395078385E+02  0.51100000000E-03 0. -1.
        -11    1    3    3    0    0 -0.49751962210E+01  0.63090635280E+01 -0.51856837930E+01  0.95628540039E+01  0.51100000000E-03 0.  1.
        -12    1    3    3    0    0 -0.37366288628E+02 -0.61323076804E+01  0.37347595522E+01  0.38049877165E+02  0.00000000000E+00 0.  1.
</event>
<event>
 7    1  0.2285268E-015  0.9000777E+02  0.7816164E-02  0.1186339E+00
        -11   -1    0    0    0    0  0.00000000000E+00  0.00000000000E+00  0.45593999997E+02  0.45594000000E+02  0.51100000000E-03 0.  1.
         11   -1    0    0    0    0 -0.00000000000E+00 -0.00000000000E+00 -0.45593999997E+02  0.45594000000E+02  0.51100000000E-03 0. -1.
    9900012    2    1    2    0    0 -0.48984645074E+00 -0.94969419835E+00  0.50106662976E+00  0.90007772741E+02  0.90000034541E+02 0.  0.
         12    1    1    2    0    0  0.48984645074E+00  0.94969419835E+00 -0.50106662976E+00  0.11802272591E+01  0.00000000000E+00 0. -1.
         11    1    3    3    0    0 -0.21908701407E+02 -0.28194795862E+02 -0.21817979392E+02  0.41844497082E+02  0.51100000000E-03 0. -1.
        -11    1    3    3    0    0  0.65495795095E+01  0.26409644944E+01 -0.48826887999E+01  0.85855888202E+01  0.51100000000E-03 0.  1.
        -12    1    3    3    0    0  0.14869275447E+02  0.24604137169E+02  0.27201734822E+02  0.39577686838E+02  0.00000000000E+00 0.  1.
</event>
<event>
 7    1  0.2285268E-015  0.9000809E+02  0.7816164E-02  0.1186338E+00
        -11   -1    0    0    0    0  0.00000000000E+00  0.00000000000E+00  0.45593999997E+02  0.45594000000E+02  0.51100000000E-03 0.  1.
         11   -1    0    0    0    0 -0.00000000000E+00 -0.00000000000E+00 -0.45593999997E+02  0.45594000000E+02  0.51100000000E-03 0. -1.
    9900012    2    1    2    0    0 -0.56258843975E+00 -0.53219317991E+00  0.89019179410E+00  0.90008094596E+02  0.90000360643E+02 0.  0.
         12    1    1    2    0    0  0.56258843975E+00  0.53219317991E+00 -0.89019179410E+00  0.11799054045E+01  0.00000000000E+00 0. -1.
         11    1    3    3    0    0 -0.30715054143E+02  0.13440907255E+02 -0.23012256686E+02  0.40664929569E+02  0.51100000000E-03 0. -1.
        -11    1    3    3    0    0 -0.14668126374E+01 -0.57409444869E+01 -0.33406513656E+01  0.68022007264E+01  0.51100000000E-03 0.  1.
        -12    1    3    3    0    0  0.31619278340E+02 -0.82321559477E+01  0.27243099846E+02  0.42540964300E+02  0.00000000000E+00 0.  1.
</event>
<event>
 7    1  0.2285268E-015  0.9000869E+02  0.7816164E-02  0.1186337E+00
        -11   -1    0    0    0    0  0.00000000000E+00  0.00000000000E+00  0.45593999997E+02  0.45594000000E+02  0.51100000000E-03 0.  1.
         11   -1    0    0    0    0 -0.00000000000E+00 -0.00000000000E+00 -0.45593999997E+02  0.45594000000E+02  0.51100000000E-03 0. -1.
    9900012    2    1    2    0    0  0.62445800176E+00  0.90048602286E+00 -0.43583598189E+00  0.90008688389E+02  0.90000962270E+02 0.  0.
         12    1    1    2    0    0 -0.62445800176E+00 -0.90048602286E+00  0.43583598189E+00  0.11793116113E+01  0.00000000000E+00 0. -1.
         11    1    3    3    0    0  0.22347327507E+01  0.10764709997E+02 -0.39871134479E+02  0.41359163153E+02  0.51100000000E-03 0. -1.
        -11    1    3    3    0    0 -0.91417759278E+01  0.42456029200E+00  0.23717047650E+01  0.94539569657E+01  0.51100000000E-03 0.  1.
        -12    1    3    3    0    0  0.75315011788E+01 -0.10288784266E+02  0.37063593732E+02  0.39195568270E+02  0.00000000000E+00 0.  1.
</event>
<event>
 7    1  0.2285268E-015  0.9000777E+02  0.7816164E-02  0.1186339E+00
        -11   -1    0    0    0    0  0.00000000000E+00  0.00000000000E+00  0.45593999997E+02  0.45594000000E+02  0.51100000000E-03 0. -1.
         11   -1    0    0    0    0 -0.00000000000E+00 -0.00000000000E+00 -0.45593999997E+02  0.45594000000E+02  0.51100000000E-03 0.  1.
    9900012    2    1    2    0    0  0.55432768503E+00  0.36395010038E+00  0.97632110327E+00  0.90007770465E+02  0.90000032235E+02 0.  0.
         12    1    1    2    0    0 -0.55432768503E+00 -0.36395010038E+00 -0.97632110327E+00  0.11802295347E+01  0.00000000000E+00 0. -1.
         11    1    3    3    0    0  0.83959174513E+01 -0.47986993920E+01  0.37595347203E+02  0.38819184397E+02  0.51100000000E-03 0. -1.
        -11    1    3    3    0    0  0.96981522449E+01 -0.19377464990E+01  0.89211011224E-01  0.98902465755E+01  0.51100000000E-03 0.  1.
        -12    1    3    3    0    0 -0.17539742011E+02  0.71003959914E+01 -0.36708237111E+02  0.41298339492E+02  0.00000000000E+00 0.  1.
</event>
<event>
 7    1  0.2285268E-015  0.9000791E+02  0.7816164E-02  0.1186339E+00
        -11   -1    0    0    0    0  0.00000000000E+00  0.00000000000E+00  0.45593999997E+02  0.45594000000E+02  0.51100000000E-03 0.  1.
         11   -1    0    0    0    0 -0.00000000000E+00 -0.00000000000E+00 -0.45593999997E+02  0.45594000000E+02  0.51100000000E-03 0. -1.
    9900012    2    1    2    0    0 -0.10353428936E+01 -0.15950470515E+00  0.54335642715E+00  0.90007909806E+02  0.90000173416E+02 0.  0.
         12    1    1    2    0    0  0.10353428936E+01  0.15950470515E+00 -0.54335642715E+00  0.11800901936E+01  0.00000000000E+00 0. -1.
         11    1    3    3    0    0  0.51005156548E+01  0.56943341146E+01 -0.43908469565E+01  0.88159082465E+01  0.51100000000E-03 0. -1.
        -11    1    3    3    0    0 -0.94066384187E+01 -0.16299546936E+02  0.40135307117E+02  0.44328353842E+02  0.51100000000E-03 0.  1.
         12    1    3    3    0    0  0.32707798703E+01  0.10445708116E+02 -0.35201103734E+02  0.36863647718E+02  0.00000000000E+00 0. -1.
</event>
<event>
 7    1  0.2285268E-015  0.9000781E+02  0.7816164E-02  0.1186339E+00
        -11   -1    0    0    0    0  0.00000000000E+00  0.00000000000E+00  0.45593999997E+02  0.45594000000E+02  0.51100000000E-03 0.  1.
         11   -1    0    0    0    0 -0.00000000000E+00 -0.00000000000E+00 -0.45593999997E+02  0.45594000000E+02  0.51100000000E-03 0. -1.
    9900012    2    1    2    0    0  0.69741551697E+00  0.55841437384E+00  0.77112594076E+00  0.90007809239E+02  0.90000071521E+02 0.  0.
         12    1    1    2    0    0 -0.69741551697E+00 -0.55841437384E+00 -0.77112594076E+00  0.11801907612E+01  0.00000000000E+00 0. -1.
         11    1    3    3    0    0 -0.38493554809E+02 -0.94869466487E+01 -0.34402721082E+01  0.39794363810E+02  0.51100000000E-03 0. -1.
        -11    1    3    3    0    0  0.78929420020E+01  0.21755902914E+01 -0.11661743724E+02  0.14248789194E+02  0.51100000000E-03 0.  1.
        -12    1    3    3    0    0  0.31298028324E+02  0.78697707311E+01  0.15873141773E+02  0.35964656235E+02  0.00000000000E+00 0.  1.
</event>
<event>
 7    1  0.2285268E-015  0.9000763E+02  0.7816164E-02  0.1186339E+00
        -11   -1    0    0    0    0  0.00000000000E+00  0.00000000000E+00  0.45593999997E+02  0.45594000000E+02  0.51100000000E-03 0.  1.
         11   -1    0    0    0    0 -0.00000000000E+00 -0.00000000000E+00 -0.45593999997E+02  0.45594000000E+02  0.51100000000E-03 0. -1.
    9900012    2    1    2    0    0  0.11393180432E+01  0.15494448208E+00  0.26687408159E+00  0.90007629223E+02  0.89999889129E+02 0.  0.
         12    1    1    2    0    0 -0.11393180432E+01 -0.15494448208E+00 -0.26687408159E+00  0.11803707771E+01  0.00000000000E+00 0. -1.
         11    1    3    3    0    0  0.31842589242E+02  0.12159554022E+02 -0.14546102604E+02  0.37059335462E+02  0.51100000000E-03 0. -1.
        -11    1    3    3    0    0 -0.15047925270E+02  0.13308080950E+02  0.93818338562E+00  0.20110327243E+02  0.51100000000E-03 0.  1.
        -12    1    3    3    0    0 -0.15655345929E+02 -0.25312690489E+02  0.13874793299E+02  0.32837966518E+02  0.00000000000E+00 0.  1.
</event>
<event>
 7    1  0.2285268E-015  0.9000776E+02  0.7816164E-02  0.1186339E+00
        -11   -1    0    0    0    0  0.00000000000E+00  0.00000000000E+00  0.45593999997E+02  0.45594000000E+02  0.51100000000E-03 0.  1.
         11   -1    0    0    0    0 -0.00000000000E+00 -0.00000000000E+00 -0.45593999997E+02  0.45594000000E+02  0.51100000000E-03 0. -1.
    9900012    2    1    2    0    0  0.72041862384E+00 -0.43568329867E+00 -0.82712725811E+00  0.90007761706E+02  0.90000023360E+02 0.  0.
         12    1    1    2    0    0 -0.72041862384E+00  0.43568329867E+00  0.82712725811E+00  0.11802382943E+01  0.00000000000E+00 0. -1.
         11    1    3    3    0    0 -0.12043438065E+02 -0.22239406910E+01 -0.36724752232E+02  0.38713017700E+02  0.51100000000E-03 0. -1.
        -11    1    3    3    0    0  0.67513319346E+01  0.96009081187E+00 -0.59251932679E+01  0.90338348878E+01  0.51100000000E-03 0.  1.
        -12    1    3    3    0    0  0.60125247545E+01  0.82816658044E+00  0.41822818242E+02  0.42260909118E+02  0.00000000000E+00 0.  1.
</event>
<event>
 7    1  0.2285268E-015  0.9000778E+02  0.7816164E-02  0.1186339E+00
        -11   -1    0    0    0    0  0.00000000000E+00  0.00000000000E+00  0.45593999997E+02  0.45594000000E+02  0.51100000000E-03 0.  1.
         11   -1    0    0    0    0 -0.00000000000E+00 -0.00000000000E+00 -0.45593999997E+02  0.45594000000E+02  0.51100000000E-03 0. -1.
    9900012    2    1    2    0    0  0.10719613754E+01 -0.47476582435E+00  0.13574139420E+00  0.90007775655E+02  0.90000037494E+02 0.  0.
         12    1    1    2    0    0 -0.10719613754E+01  0.47476582435E+00 -0.13574139420E+00  0.11802243449E+01  0.00000000000E+00 0. -1.
         11    1    3    3    0    0  0.30843080803E+02  0.25972830803E+02  0.54574330815E+01  0.40689890015E+02  0.51100000000E-03 0. -1.
        -11    1    3    3    0    0 -0.35430294402E+01  0.42747789368E+01 -0.69431279772E+01  0.88900966779E+01  0.51100000000E-03 0.  1.
        -12    1    3    3    0    0 -0.26228089988E+02 -0.30722375564E+02  0.16214362899E+01  0.40427788962E+02  0.00000000000E+00 0.  1.
</event>
<event>
 7    1  0.2285268E-015  0.9000777E+02  0.7816164E-02  0.1186339E+00
        -11   -1    0    0    0    0  0.00000000000E+00  0.00000000000E+00  0.45593999997E+02  0.45594000000E+02  0.51100000000E-03 0. -1.
         11   -1    0    0    0    0 -0.00000000000E+00 -0.00000000000E+00 -0.45593999997E+02  0.45594000000E+02  0.51100000000E-03 0.  1.
    9900012    2    1    2    0    0 -0.68998157093E+00 -0.45499087864E+00  0.84253031988E+00  0.90007767562E+02  0.90000029294E+02 0.  0.
         12    1    1    2    0    0  0.68998157093E+00  0.45499087864E+00 -0.84253031988E+00  0.11802324380E+01  0.00000000000E+00 0. -1.
         11    1    3    3    0    0  0.73329398701E+01 -0.57398774078E+01  0.41447820702E+01  0.10193008313E+02  0.51100000000E-03 0. -1.
        -11    1    3    3    0    0  0.28815999581E+02 -0.18814005971E+02  0.56989664695E+01  0.34882758945E+02  0.51100000000E-03 0.  1.
         12    1    3    3    0    0 -0.36838921023E+02  0.24098892500E+02 -0.90012182199E+01  0.44932000304E+02  0.00000000000E+00 0. -1.
</event>
<event>
 7    1  0.2285268E-015  0.9000770E+02  0.7816164E-02  0.1186339E+00
        -11   -1    0    0    0    0  0.00000000000E+00  0.00000000000E+00  0.45593999997E+02  0.45594000000E+02  0.51100000000E-03 0. -1.
         11   -1    0    0    0    0 -0.00000000000E+00 -0.00000000000E+00 -0.45593999997E+02  0.45594000000E+02  0.51100000000E-03 0.  1.
    9900012    2    1    2    0    0 -0.64332195195E-01  0.88457899858E+00 -0.77877319039E+00  0.90007700751E+02  0.89999961600E+02 0.  0.
         12    1    1    2    0    0  0.64332195195E-01 -0.88457899858E+00  0.77877319039E+00  0.11802992494E+01  0.00000000000E+00 0. -1.
         11    1    3    3    0    0 -0.25083532408E+02 -0.31426646824E+02  0.29367774513E+01  0.40316775550E+02  0.51100000000E-03 0. -1.
        -11    1    3    3    0    0 -0.19951736086E+01  0.39680235339E+01  0.77145545224E+01  0.89017009743E+01  0.51100000000E-03 0.  1.
        -12    1    3    3    0    0  0.27014373821E+02  0.28343202289E+02 -0.11430105164E+02  0.40789224227E+02  0.00000000000E+00 0.  1.
</event>
<event>
 7    1  0.2285268E-015  0.9000772E+02  0.7816164E-02  0.1186339E+00
        -11   -1    0    0    0    0  0.00000000000E+00  0.00000000000E+00  0.45593999997E+02  0.45594000000E+02  0.51100000000E-03 0. -1.
         11   -1    0    0    0    0 -0.00000000000E+00 -0.00000000000E+00 -0.45593999997E+02  0.45594000000E+02  0.51100000000E-03 0.  1.
    9900012    2    1    2    0    0 -0.20739767778E+00  0.99687691822E+00 -0.59690441027E+00  0.90007715178E+02  0.89999976218E+02 0.  0.
         12    1    1    2    0    0  0.20739767778E+00 -0.99687691822E+00  0.59690441027E+00  0.11802848223E+01  0.00000000000E+00 0. -1.
         11    1    3    3    0    0 -0.37774922857E+01  0.45710225244E+01  0.44237487468E+01  0.73981922199E+01  0.51100000000E-03 0. -1.
        -11    1    3    3    0    0  0.30989967558E+02  0.25445738290E+02 -0.12476455546E+02  0.41994352354E+02  0.51100000000E-03 0.  1.
         12    1    3    3    0    0 -0.27419872950E+02 -0.29019883896E+02  0.74558023890E+01  0.40615170604E+02  0.00000000000E+00 0. -1.
</event>
<event>
 7    1  0.2285268E-015  0.9000687E+02  0.7816164E-02  0.1186341E+00
        -11   -1    0    0    0    0  0.00000000000E+00  0.00000000000E+00  0.45593999997E+02  0.45594000000E+02  0.51100000000E-03 0. -1.
         11   -1    0    0    0    0 -0.00000000000E+00 -0.00000000000E+00 -0.45593999997E+02  0.45594000000E+02  0.51100000000E-03 0.  1.
    9900012    2    1    2    0    0 -0.81176083696E-01 -0.54832055529E+00 -0.10429911882E+01  0.90006866813E+02  0.89999116650E+02 0.  0.
         12    1    1    2    0    0  0.81176083696E-01  0.54832055529E+00  0.10429911882E+01  0.11811331875E+01  0.00000000000E+00 0. -1.
         11    1    3    3    0    0 -0.73923121078E+01  0.30355366071E+01  0.62889198248E+01  0.10169133376E+02  0.51100000000E-03 0. -1.
        -11    1    3    3    0    0 -0.23794550539E+02  0.24092072223E+02  0.91221251030E+01  0.35068814437E+02  0.51100000000E-03 0.  1.
         12    1    3    3    0    0  0.31105686563E+02 -0.27675929385E+02 -0.16454036116E+02  0.44768919000E+02  0.00000000000E+00 0. -1.
</event>
<event>
 7    1  0.2285268E-015  0.9000779E+02  0.7816164E-02  0.1186339E+00
        -11   -1    0    0    0    0  0.00000000000E+00  0.00000000000E+00  0.45593999997E+02  0.45594000000E+02  0.51100000000E-03 0. -1.
         11   -1    0    0    0    0 -0.00000000000E+00 -0.00000000000E+00 -0.45593999997E+02  0.45594000000E+02  0.51100000000E-03 0.  1.
    9900012    2    1    2    0    0  0.84825539338E+00 -0.79919725800E+00 -0.18613033480E+00  0.90007789014E+02  0.90000051029E+02 0.  0.
         12    1    1    2    0    0 -0.84825539338E+00  0.79919725800E+00  0.18613033480E+00  0.11802109858E+01  0.00000000000E+00 0. -1.
         11    1    3    3    0    0  0.71232770357E+01  0.31396549555E+02  0.21005519233E+02  0.38441074883E+02  0.51100000000E-03 0. -1.
        -11    1    3    3    0    0 -0.23738764017E+01 -0.70094820567E+01  0.92619125809E+01  0.11855427145E+02  0.51100000000E-03 0.  1.
        -12    1    3    3    0    0 -0.39011452406E+01 -0.25186264756E+02 -0.30453562148E+02  0.39711286986E+02  0.00000000000E+00 0.  1.
</event>
<event>
 7    1  0.2285268E-015  0.9000778E+02  0.7816164E-02  0.1186339E+00
        -11   -1    0    0    0    0  0.00000000000E+00  0.00000000000E+00  0.45593999997E+02  0.45594000000E+02  0.51100000000E-03 0.  1.
         11   -1    0    0    0    0 -0.00000000000E+00 -0.00000000000E+00 -0.45593999997E+02  0.45594000000E+02  0.51100000000E-03 0. -1.
    9900012    2    1    2    0    0 -0.84062950198E+00  0.81236788970E+00 -0.16220250125E+00  0.90007784257E+02  0.90000046210E+02 0.  0.
         12    1    1    2    0    0  0.84062950198E+00 -0.81236788970E+00  0.16220250125E+00  0.11802157427E+01  0.00000000000E+00 0. -1.
         11    1    3    3    0    0  0.27600323934E+02  0.10576816254E+02 -0.25279604993E+02  0.38893512983E+02  0.51100000000E-03 0. -1.
        -11    1    3    3    0    0  0.32841087426E+01 -0.60148805249E+01 -0.39614881208E+01  0.79156519854E+01  0.51100000000E-03 0.  1.
        -12    1    3    3    0    0 -0.31725062178E+02 -0.37495678398E+01  0.29078890612E+02  0.43198619289E+02  0.00000000000E+00 0.  1.
</event>
<event>
 7    1  0.2285268E-015  0.9000777E+02  0.7816164E-02  0.1186339E+00
        -11   -1    0    0    0    0  0.00000000000E+00  0.00000000000E+00  0.45593999997E+02  0.45594000000E+02  0.51100000000E-03 0.  1.
         11   -1    0    0    0    0 -0.00000000000E+00 -0.00000000000E+00 -0.45593999997E+02  0.45594000000E+02  0.51100000000E-03 0. -1.
    9900012    2    1    2    0    0 -0.63757761579E+00  0.23312420528E+00  0.96544917664E+00  0.90007769419E+02  0.90000031176E+02 0.  0.
         12    1    1    2    0    0  0.63757761579E+00 -0.23312420528E+00 -0.96544917664E+00  0.11802305808E+01  0.00000000000E+00 0. -1.
         11    1    3    3    0    0  0.54978356267E+01  0.13899174031E+01 -0.95309481058E+01  0.11090403014E+02  0.51100000000E-03 0. -1.
        -11    1    3    3    0    0 -0.11421289045E+02 -0.34391250036E+02 -0.12302344883E+02  0.38269460571E+02  0.51100000000E-03 0.  1.
         12    1    3    3    0    0  0.52858758026E+01  0.33234456839E+02  0.22798742165E+02  0.40647905834E+02  0.00000000000E+00 0. -1.
</event>
<event>
 8    1  0.2285268E-015  0.9000763E+02  0.7816164E-02  0.1186339E+00
        -11   -1    0    0    0    0  0.00000000000E+00  0.00000000000E+00  0.45593999997E+02  0.45594000000E+02  0.51100000000E-03 0.  1.
         11   -1    0    0    0    0 -0.00000000000E+00 -0.00000000000E+00 -0.45593999997E+02  0.45594000000E+02  0.51100000000E-03 0. -1.
    9900012    2    1    2    0    0  0.74119366098E+00  0.89401680599E+00  0.21130094556E+00  0.90007626253E+02  0.89999886120E+02 0.  0.
         23    2    3    3    0    0  0.27100795420E+02 -0.77285238394E+00 -0.17454024410E+01  0.63522993994E+02  0.57420152586E+02 0.  0.
         12    1    1    2    0    0 -0.74119366098E+00 -0.89401680599E+00 -0.21130094556E+00  0.11803737468E+01  0.00000000000E+00 0. -1.
         11    1    4    4    0    0  0.36511136501E+02  0.60717587965E+01 -0.19851490100E+02  0.42000130986E+02  0.51100000000E-03 0. -1.
        -11    1    4    4    0    0 -0.94103410806E+01 -0.68446111805E+01  0.18106087659E+02  0.21522863007E+02  0.51100000000E-03 0.  1.
        -12    1    3    3    0    0 -0.26359601759E+02  0.16668691899E+01  0.19567033865E+01  0.26484632260E+02  0.00000000000E+00 0.  1.
</event>
<event>
 7    1  0.2285268E-015  0.9000773E+02  0.7816164E-02  0.1186339E+00
        -11   -1    0    0    0    0  0.00000000000E+00  0.00000000000E+00  0.45593999997E+02  0.45594000000E+02  0.51100000000E-03 0.  1.
         11   -1    0    0    0    0 -0.00000000000E+00 -0.00000000000E+00 -0.45593999997E+02  0.45594000000E+02  0.51100000000E-03 0. -1.
    9900012    2    1    2    0    0  0.38162519039E+00  0.16436176889E+00  0.11047151689E+01  0.90007725379E+02  0.89999986554E+02 0.  0.
         12    1    1    2    0    0 -0.38162519039E+00 -0.16436176889E+00 -0.11047151689E+01  0.11802746212E+01  0.00000000000E+00 0. -1.
         11    1    3    3    0    0  0.26703147691E+01  0.24368708776E+02  0.20561411522E+02  0.31995877741E+02  0.51100000000E-03 0. -1.
        -11    1    3    3    0    0 -0.70934141843E+01 -0.22509194733E+02  0.11769750984E+02  0.26372474492E+02  0.51100000000E-03 0.  1.
         12    1    3    3    0    0  0.48047246055E+01 -0.16951522741E+01 -0.31226447337E+02  0.31639373146E+02  0.00000000000E+00 0. -1.
</event>
<event>
 7    1  0.2285268E-015  0.9000783E+02  0.7816164E-02  0.1186339E+00
        -11   -1    0    0    0    0  0.00000000000E+00  0.00000000000E+00  0.45593999997E+02  0.45594000000E+02  0.51100000000E-03 0.  1.
         11   -1    0    0    0    0 -0.00000000000E+00 -0.00000000000E+00 -0.45593999997E+02  0.45594000000E+02  0.51100000000E-03 0. -1.
    9900012    2    1    2    0    0  0.11999395870E+00  0.37080733913E+00  0.11139618297E+01  0.90007827305E+02  0.90000089825E+02 0.  0.
         12    1    1    2    0    0 -0.11999395870E+00 -0.37080733913E+00 -0.11139618297E+01  0.11801726953E+01  0.00000000000E+00 0. -1.
         11    1    3    3    0    0 -0.23047855618E+02  0.21424248533E+02 -0.15798037337E+02  0.35210510615E+02  0.51100000000E-03 0. -1.
        -11    1    3    3    0    0 -0.35530568008E+01  0.10318063469E+02  0.36499058281E+01  0.11506887468E+02  0.51100000000E-03 0.  1.
        -12    1    3    3    0    0  0.26720906377E+02 -0.31371504663E+02  0.13262093339E+02  0.43290429222E+02  0.00000000000E+00 0.  1.
</event>
<event>
 7    1  0.2285268E-015  0.9000777E+02  0.7816164E-02  0.1186339E+00
        -11   -1    0    0    0    0  0.00000000000E+00  0.00000000000E+00  0.45593999997E+02  0.45594000000E+02  0.51100000000E-03 0.  1.
         11   -1    0    0    0    0 -0.00000000000E+00 -0.00000000000E+00 -0.45593999997E+02  0.45594000000E+02  0.51100000000E-03 0. -1.
    9900012    2    1    2    0    0 -0.84597036136E+00  0.79563522625E+00  0.21033512987E+00  0.90007770305E+02  0.90000032073E+02 0.  0.
         12    1    1    2    0    0  0.84597036136E+00 -0.79563522625E+00 -0.21033512987E+00  0.11802296948E+01  0.00000000000E+00 0. -1.
         11    1    3    3    0    0  0.23147076916E+02  0.35418999836E+01 -0.22771507826E+02  0.32663034062E+02  0.51100000000E-03 0. -1.
        -11    1    3    3    0    0 -0.49524880280E+01 -0.49319682547E+01 -0.14024653988E+02  0.15669791584E+02  0.51100000000E-03 0.  1.
        -12    1    3    3    0    0 -0.19040559249E+02  0.21857034973E+01  0.37006496944E+02  0.41674944659E+02  0.00000000000E+00 0.  1.
</event>
<event>
 7    1  0.2285268E-015  0.9000775E+02  0.7816164E-02  0.1186339E+00
        -11   -1    0    0    0    0  0.00000000000E+00  0.00000000000E+00  0.45593999997E+02  0.45594000000E+02  0.51100000000E-03 0. -1.
         11   -1    0    0    0    0 -0.00000000000E+00 -0.00000000000E+00 -0.45593999997E+02  0.45594000000E+02  0.51100000000E-03 0.  1.
    9900012    2    1    2    0    0 -0.92856146550E+00  0.53474419855E+00 -0.49477605695E+00  0.90007753797E+02  0.90000015347E+02 0.  0.
         12    1    1    2    0    0  0.92856146550E+00 -0.53474419855E+00  0.49477605695E+00  0.11802462030E+01  0.00000000000E+00 0. -1.
         11    1    3    3    0    0  0.27089694393E+02 -0.41250818807E+01  0.21100325718E+02  0.34584557081E+02  0.51100000000E-03 0. -1.
        -11    1    3    3    0    0  0.87215784736E+01 -0.42819674726E+01  0.31730960401E+01  0.10221042767E+02  0.51100000000E-03 0.  1.
        -12    1    3    3    0    0 -0.36739834332E+02  0.89417935518E+01 -0.24768197815E+02  0.45202153949E+02  0.00000000000E+00 0.  1.
</event>
<event>
 7    1  0.2285268E-015  0.9000768E+02  0.7816164E-02  0.1186339E+00
        -11   -1    0    0    0    0  0.00000000000E+00  0.00000000000E+00  0.45593999997E+02  0.45594000000E+02  0.51100000000E-03 0.  1.
         11   -1    0    0    0    0 -0.00000000000E+00 -0.00000000000E+00 -0.45593999997E+02  0.45594000000E+02  0.51100000000E-03 0. -1.
    9900012    2    1    2    0    0 -0.10687945640E+01  0.30666854613E+00  0.39596453794E+00  0.90007679987E+02  0.89999940563E+02 0.  0.
         12    1    1    2    0    0  0.10687945640E+01 -0.30666854613E+00 -0.39596453794E+00  0.11803200128E+01  0.00000000000E+00 0. -1.
         11    1    3    3    0    0  0.40914274236E+00  0.22244785593E+02 -0.31121761283E+02  0.38256527671E+02  0.51100000000E-03 0. -1.
        -11    1    3    3    0    0 -0.89785455387E+01  0.52958749681E+01  0.14988831063E+01  0.10531249807E+02  0.51100000000E-03 0.  1.
        -12    1    3    3    0    0  0.75006082323E+01 -0.27233992014E+02  0.30018842715E+02  0.41219902509E+02  0.00000000000E+00 0.  1.
</event>
<event>
 7    1  0.2285268E-015  0.9000773E+02  0.7816164E-02  0.1186339E+00
        -11   -1    0    0    0    0  0.00000000000E+00  0.00000000000E+00  0.45593999997E+02  0.45594000000E+02  0.51100000000E-03 0.  1.
         11   -1    0    0    0    0 -0.00000000000E+00 -0.00000000000E+00 -0.45593999997E+02  0.45594000000E+02  0.51100000000E-03 0. -1.
    9900012    2    1    2    0    0  0.76853101176E+00 -0.58471155953E-01  0.89385454533E+00  0.90007731073E+02  0.89999992323E+02 0.  0.
         12    1    1    2    0    0 -0.76853101176E+00  0.58471155953E-01 -0.89385454533E+00  0.11802689271E+01  0.00000000000E+00 0. -1.
         11    1    3    3    0    0 -0.89094697826E+00  0.89051072768E+01  0.63587259277E+01  0.10978529857E+02  0.51100000000E-03 0. -1.
        -11    1    3    3    0    0 -0.26977224013E+02  0.14871388425E+02  0.17336229355E+02  0.35347894670E+02  0.51100000000E-03 0.  1.
         12    1    3    3    0    0  0.28636702003E+02 -0.23834966858E+02 -0.22801100738E+02  0.43681306546E+02  0.00000000000E+00 0. -1.
</event>
<event>
 7    1  0.2285268E-015  0.9000786E+02  0.7816164E-02  0.1186339E+00
        -11   -1    0    0    0    0  0.00000000000E+00  0.00000000000E+00  0.45593999997E+02  0.45594000000E+02  0.51100000000E-03 0.  1.
         11   -1    0    0    0    0 -0.00000000000E+00 -0.00000000000E+00 -0.45593999997E+02  0.45594000000E+02  0.51100000000E-03 0. -1.
    9900012    2    1    2    0    0  0.41956161624E+00 -0.32253065895E+00  0.10548299512E+01  0.90007862634E+02  0.90000125621E+02 0.  0.
         12    1    1    2    0    0 -0.41956161624E+00  0.32253065895E+00 -0.10548299512E+01  0.11801373656E+01  0.00000000000E+00 0. -1.
         11    1    3    3    0    0  0.19884856808E+02 -0.17405912614E+02 -0.30311081795E+02  0.40213617147E+02  0.51100000000E-03 0. -1.
        -11    1    3    3    0    0  0.73591684405E+01  0.14463448718E+01  0.77451562298E+01  0.10781313413E+02  0.51100000000E-03 0.  1.
        -12    1    3    3    0    0 -0.26824463632E+02  0.15637037083E+02  0.23620755516E+02  0.39012932075E+02  0.00000000000E+00 0.  1.
</event>
<event>
 7    1  0.2285268E-015  0.9000775E+02  0.7816164E-02  0.1186339E+00
        -11   -1    0    0    0    0  0.00000000000E+00  0.00000000000E+00  0.45593999997E+02  0.45594000000E+02  0.51100000000E-03 0.  1.
         11   -1    0    0    0    0 -0.00000000000E+00 -0.00000000000E+00 -0.45593999997E+02  0.45594000000E+02  0.51100000000E-03 0. -1.
    9900012    2    1    2    0    0 -0.79807361476E+00 -0.79195156161E+00  0.35899146631E+00  0.90007752719E+02  0.90000014255E+02 0.  0.
         12    1    1    2    0    0  0.79807361476E+00  0.79195156161E+00 -0.35899146631E+00  0.11802472806E+01  0.00000000000E+00 0. -1.
         11    1    3    3    0    0  0.12001971402E+00 -0.83877241403E+01  0.45328737295E+01  0.95349496850E+01  0.51100000000E-03 0. -1.
        -11    1    3    3    0    0  0.12476719868E+02 -0.25293524850E+02  0.22483469710E+02  0.36068509096E+02  0.51100000000E-03 0.  1.
         12    1    3    3    0    0 -0.13394813197E+02  0.32889297429E+02 -0.26657351973E+02  0.44404293938E+02  0.00000000000E+00 0. -1.
</event>
<event>
 7    1  0.2285268E-015  0.9000775E+02  0.7816164E-02  0.1186339E+00
        -11   -1    0    0    0    0  0.00000000000E+00  0.00000000000E+00  0.45593999997E+02  0.45594000000E+02  0.51100000000E-03 0.  1.
         11   -1    0    0    0    0 -0.00000000000E+00 -0.00000000000E+00 -0.45593999997E+02  0.45594000000E+02  0.51100000000E-03 0. -1.
    9900012    2    1    2    0    0 -0.26992233275E+00  0.19047957329E+00  0.11330756136E+01  0.90007745417E+02  0.90000006857E+02 0.  0.
         12    1    1    2    0    0  0.26992233275E+00 -0.19047957329E+00 -0.11330756136E+01  0.11802545826E+01  0.00000000000E+00 0. -1.
         11    1    3    3    0    0  0.18562268626E+00 -0.73706194741E+01 -0.62696219390E+01  0.96782563891E+01  0.51100000000E-03 0. -1.
        -11    1    3    3    0    0  0.37872241887E+02  0.82434139071E+01 -0.69871478458E+01  0.39383763326E+02  0.51100000000E-03 0.  1.
         12    1    3    3    0    0 -0.38327786906E+02 -0.68231485973E+00  0.14389845398E+02  0.40945725703E+02  0.00000000000E+00 0. -1.
</event>
<event>
 7    1  0.2285268E-015  0.9000772E+02  0.7816164E-02  0.1186339E+00
        -11   -1    0    0    0    0  0.00000000000E+00  0.00000000000E+00  0.45593999997E+02  0.45594000000E+02  0.51100000000E-03 0. -1.
         11   -1    0    0    0    0 -0.00000000000E+00 -0.00000000000E+00 -0.45593999997E+02  0.45594000000E+02  0.51100000000E-03 0.  1.
    9900012    2    1    2    0    0 -0.10313412550E+01  0.50864967902E+00  0.26584590262E+00  0.90007718964E+02  0.89999980054E+02 0.  0.
         12    1    1    2    0    0  0.10313412550E+01 -0.50864967902E+00 -0.26584590262E+00  0.11802810361E+01  0.00000000000E+00 0. -1.
         11    1    3    3    0    0 -0.30763890779E+02 -0.12183859924E+02  0.28473195871E+02  0.43653021681E+02  0.51100000000E-03 0. -1.
        -11    1    3    3    0    0  0.83688736098E+01 -0.32417776206E+01 -0.24793857196E+01  0.93109892840E+01  0.51100000000E-03 0.  1.
        -12    1    3    3    0    0  0.21363675914E+02  0.15934287223E+02 -0.25727964249E+02  0.37043707999E+02  0.00000000000E+00 0.  1.
</event>
<event>
 7    1  0.2285268E-015  0.9000774E+02  0.7816164E-02  0.1186339E+00
        -11   -1    0    0    0    0  0.00000000000E+00  0.00000000000E+00  0.45593999997E+02  0.45594000000E+02  0.51100000000E-03 0.  1.
         11   -1    0    0    0    0 -0.00000000000E+00 -0.00000000000E+00 -0.45593999997E+02  0.45594000000E+02  0.51100000000E-03 0. -1.
    9900012    2    1    2    0    0 -0.11027946090E+01 -0.28156973155E+00 -0.31237393933E+00  0.90007739460E+02  0.90000000821E+02 0.  0.
         12    1    1    2    0    0  0.11027946090E+01  0.28156973155E+00  0.31237393933E+00  0.11802605396E+01  0.00000000000E+00 0. -1.
         11    1    3    3    0    0  0.43685271144E+01  0.55853565272E+00 -0.97599709855E+01  0.10707615287E+02  0.51100000000E-03 0. -1.
        -11    1    3    3    0    0  0.19381988154E+00 -0.38863480537E+02  0.12266487777E+02  0.40753826915E+02  0.51100000000E-03 0.  1.
         12    1    3    3    0    0 -0.56651416050E+01  0.38023375153E+02 -0.28188907306E+01  0.38546297259E+02  0.00000000000E+00 0. -1.
</event>
<event>
 7    1  0.2285268E-015  0.9000772E+02  0.7816164E-02  0.1186339E+00
        -11   -1    0    0    0    0  0.00000000000E+00  0.00000000000E+00  0.45593999997E+02  0.45594000000E+02  0.51100000000E-03 0.  1.
         11   -1    0    0    0    0 -0.00000000000E+00 -0.00000000000E+00 -0.45593999997E+02  0.45594000000E+02  0.51100000000E-03 0. -1.
    9900012    2    1    2    0    0 -0.58943935153E+00  0.13922805989E+00 -0.10130300346E+01  0.90007723315E+02  0.89999984463E+02 0.  0.
         12    1    1    2    0    0  0.58943935153E+00 -0.13922805989E+00  0.10130300346E+01  0.11802766849E+01  0.00000000000E+00 0. -1.
         11    1    3    3    0    0 -0.20724778565E+02 -0.43476912342E+01 -0.31780264920E+02  0.38189057390E+02  0.51100000000E-03 0. -1.
        -11    1    3    3    0    0  0.27027955331E+01  0.65876976904E+01 -0.71143126261E+01  0.10065600278E+02  0.51100000000E-03 0.  1.
        -12    1    3    3    0    0  0.17432543681E+02 -0.21007783963E+01  0.37881547512E+02  0.41753065647E+02  0.00000000000E+00 0.  1.
</event>
<event>
 7    1  0.2285268E-015  0.9000777E+02  0.7816164E-02  0.1186339E+00
        -11   -1    0    0    0    0  0.00000000000E+00  0.00000000000E+00  0.45593999997E+02  0.45594000000E+02  0.51100000000E-03 0.  1.
         11   -1    0    0    0    0 -0.00000000000E+00 -0.00000000000E+00 -0.45593999997E+02  0.45594000000E+02  0.51100000000E-03 0. -1.
    9900012    2    1    2    0    0 -0.19083838306E+00 -0.11593911421E+01  0.11104623087E+00  0.90007771897E+02  0.90000033686E+02 0.  0.
         12    1    1    2    0    0  0.19083838306E+00  0.11593911421E+01 -0.11104623087E+00  0.11802281026E+01  0.00000000000E+00 0. -1.
         11    1    3    3    0    0  0.37301952341E+01 -0.74772580500E+01  0.50551633099E+01  0.97661876278E+01  0.51100000000E-03 0. -1.
        -11    1    3    3    0    0  0.32808183958E+02  0.14176349817E+02  0.13740560092E+02  0.38290322807E+02  0.51100000000E-03 0.  1.
         12    1    3    3    0    0 -0.36729217575E+02 -0.78584829090E+01 -0.18684677171E+02  0.41951261463E+02  0.00000000000E+00 0. -1.
</event>
<event>
 7    1  0.2285268E-015  0.9000769E+02  0.7816164E-02  0.1186339E+00
        -11   -1    0    0    0    0  0.00000000000E+00  0.00000000000E+00  0.45593999997E+02  0.45594000000E+02  0.51100000000E-03 0.  1.
         11   -1    0    0    0    0 -0.00000000000E+00 -0.00000000000E+00 -0.45593999997E+02  0.45594000000E+02  0.51100000000E-03 0. -1.
    9900012    2    1    2    0    0  0.84236083918E+00  0.38226710854E+00  0.73309641617E+00  0.90007690599E+02  0.89999951315E+02 0.  0.
         12    1    1    2    0    0 -0.84236083918E+00 -0.38226710854E+00 -0.73309641617E+00  0.11803094006E+01  0.00000000000E+00 0. -1.
         11    1    3    3    0    0 -0.27007971418E+02 -0.16639557343E+02 -0.13658442436E+02  0.34537782771E+02  0.51100000000E-03 0. -1.
        -11    1    3    3    0    0  0.24077748540E+01 -0.13378690035E+02  0.10146029821E+01  0.13631439626E+02  0.51100000000E-03 0.  1.
        -12    1    3    3    0    0  0.25442557403E+02  0.30400514487E+02  0.13376935870E+02  0.41838468203E+02  0.00000000000E+00 0.  1.
</event>
<event>
 7    1  0.2285268E-015  0.9000777E+02  0.7816164E-02  0.1186339E+00
        -11   -1    0    0    0    0  0.00000000000E+00  0.00000000000E+00  0.45593999997E+02  0.45594000000E+02  0.51100000000E-03 0.  1.
         11   -1    0    0    0    0 -0.00000000000E+00 -0.00000000000E+00 -0.45593999997E+02  0.45594000000E+02  0.51100000000E-03 0. -1.
    9900012    2    1    2    0    0 -0.77436468001E+00  0.42407451698E+00  0.78324340725E+00  0.90007766935E+02  0.90000028658E+02 0.  0.
         12    1    1    2    0    0  0.77436468001E+00 -0.42407451698E+00 -0.78324340725E+00  0.11802330654E+01  0.00000000000E+00 0. -1.
         11    1    3    3    0    0  0.27238127611E+02  0.25300552252E+02 -0.18709422657E+02  0.41618217603E+02  0.51100000000E-03 0. -1.
        -11    1    3    3    0    0  0.13855923077E+01 -0.21832277952E+01  0.96203174666E+01  0.99617698261E+01  0.51100000000E-03 0.  1.
        -12    1    3    3    0    0 -0.29398084599E+02 -0.22693249940E+02  0.98723485976E+01  0.38427779506E+02  0.00000000000E+00 0.  1.
</event>
<event>
 7    1  0.2285268E-015  0.9000770E+02  0.7816164E-02  0.1186339E+00
        -11   -1    0    0    0    0  0.00000000000E+00  0.00000000000E+00  0.45593999997E+02  0.45594000000E+02  0.51100000000E-03 0. -1.
         11   -1    0    0    0    0 -0.00000000000E+00 -0.00000000000E+00 -0.45593999997E+02  0.45594000000E+02  0.51100000000E-03 0.  1.
    9900012    2    1    2    0    0  0.76518051010E+00  0.81002078879E+00  0.38919961847E+00  0.90007698668E+02  0.89999959490E+02 0.  0.
         12    1    1    2    0    0 -0.76518051010E+00 -0.81002078879E+00 -0.38919961847E+00  0.11803013320E+01  0.00000000000E+00 0. -1.
         11    1    3    3    0    0 -0.34238732115E+01  0.14978767040E+02  0.71229411127E+01  0.16935839518E+02  0.51100000000E-03 0. -1.
        -11    1    3    3    0    0  0.16285820660E+02  0.23368068103E+02  0.10059550751E+02  0.30207434896E+02  0.51100000000E-03 0.  1.
         12    1    3    3    0    0 -0.12096766938E+02 -0.37536814354E+02 -0.16793292245E+02  0.42864424254E+02  0.00000000000E+00 0. -1.
</event>
<event>
 7    1  0.2285268E-015  0.9000767E+02  0.7816164E-02  0.1186339E+00
        -11   -1    0    0    0    0  0.00000000000E+00  0.00000000000E+00  0.45593999997E+02  0.45594000000E+02  0.51100000000E-03 0.  1.
         11   -1    0    0    0    0 -0.00000000000E+00 -0.00000000000E+00 -0.45593999997E+02  0.45594000000E+02  0.51100000000E-03 0. -1.
    9900012    2    1    2    0    0  0.79336859338E+00  0.15887169918E+00  0.85936954063E+00  0.90007665323E+02  0.89999925705E+02 0.  0.
         12    1    1    2    0    0 -0.79336859338E+00 -0.15887169918E+00 -0.85936954063E+00  0.11803346767E+01  0.00000000000E+00 0. -1.
         11    1    3    3    0    0  0.21369116087E+02 -0.30519924247E+02 -0.17966727916E+02  0.41363126220E+02  0.51100000000E-03 0. -1.
        -11    1    3    3    0    0  0.48266519986E+01  0.50938790192E+01 -0.16128156125E+01  0.72003713404E+01  0.51100000000E-03 0.  1.
        -12    1    3    3    0    0 -0.25402399492E+02  0.25584916927E+02  0.20438913069E+02  0.41444167763E+02  0.00000000000E+00 0.  1.
</event>
<event>
 7    1  0.2285268E-015  0.9000773E+02  0.7816164E-02  0.1186339E+00
        -11   -1    0    0    0    0  0.00000000000E+00  0.00000000000E+00  0.45593999997E+02  0.45594000000E+02  0.51100000000E-03 0. -1.
         11   -1    0    0    0    0 -0.00000000000E+00 -0.00000000000E+00 -0.45593999997E+02  0.45594000000E+02  0.51100000000E-03 0.  1.
    9900012    2    1    2    0    0 -0.84920887371E+00 -0.24829443108E+00 -0.78117807328E+00  0.90007726719E+02  0.89999987912E+02 0.  0.
         12    1    1    2    0    0  0.84920887371E+00  0.24829443108E+00  0.78117807328E+00  0.11802732810E+01  0.00000000000E+00 0. -1.
         11    1    3    3    0    0  0.83478469304E+01 -0.58352446073E+00 -0.31457388554E+01  0.89399509158E+01  0.51100000000E-03 0. -1.
        -11    1    3    3    0    0  0.28084036096E+02  0.21137610123E+02 -0.10137860336E+02  0.36582616878E+02  0.51100000000E-03 0.  1.
         12    1    3    3    0    0 -0.37281091900E+02 -0.20802380093E+02  0.12502421118E+02  0.44485158926E+02  0.00000000000E+00 0. -1.
</event>
<event>
 7    1  0.2285268E-015  0.9000771E+02  0.7816164E-02  0.1186339E+00
        -11   -1    0    0    0    0  0.00000000000E+00  0.00000000000E+00  0.45593999997E+02  0.45594000000E+02  0.51100000000E-03 0.  1.
         11   -1    0    0    0    0 -0.00000000000E+00 -0.00000000000E+00 -0.45593999997E+02  0.45594000000E+02  0.51100000000E-03 0. -1.
    9900012    2    1    2    0    0  0.13923235805E-01 -0.24149094148E+00  0.11552414349E+01  0.90007705755E+02  0.89999966671E+02 0.  0.
         12    1    1    2    0    0 -0.13923235805E-01  0.24149094148E+00 -0.11552414349E+01  0.11802942447E+01  0.00000000000E+00 0. -1.
         11    1    3    3    0    0 -0.14859572123E+01  0.85458149075E+01  0.21614539082E+01  0.89392899343E+01  0.51100000000E-03 0. -1.
        -11    1    3    3    0    0  0.27876708064E+02  0.11900251562E+02  0.24477445266E+02  0.38959878937E+02  0.51100000000E-03 0.  1.
         12    1    3    3    0    0 -0.26376827616E+02 -0.20687557411E+02 -0.25483657740E+02  0.42108536884E+02  0.00000000000E+00 0. -1.
</event>
<event>
 7    1  0.2285268E-015  0.9000776E+02  0.7816164E-02  0.1186339E+00
        -11   -1    0    0    0    0  0.00000000000E+00  0.00000000000E+00  0.45593999997E+02  0.45594000000E+02  0.51100000000E-03 0. -1.
         11   -1    0    0    0    0 -0.00000000000E+00 -0.00000000000E+00 -0.45593999997E+02  0.45594000000E+02  0.51100000000E-03 0.  1.
    9900012    2    1    2    0    0 -0.85154452820E+00 -0.28127234478E+00 -0.76728638049E+00  0.90007758243E+02  0.90000019852E+02 0.  0.
         12    1    1    2    0    0  0.85154452820E+00  0.28127234478E+00  0.76728638049E+00  0.11802417571E+01  0.00000000000E+00 0. -1.
         11    1    3    3    0    0  0.38714447415E+02 -0.73144740000E+01  0.12075299081E+02  0.41208285777E+02  0.51100000000E-03 0. -1.
        -11    1    3    3    0    0 -0.64639390935E+01  0.24321526789E+01  0.70807763598E+01  0.98911712844E+01  0.51100000000E-03 0.  1.
        -12    1    3    3    0    0 -0.33102052850E+02  0.46010489762E+01 -0.19923361822E+02  0.38908301181E+02  0.00000000000E+00 0.  1.
</event>
<event>
 7    1  0.2285268E-015  0.9000766E+02  0.7816164E-02  0.1186339E+00
        -11   -1    0    0    0    0  0.00000000000E+00  0.00000000000E+00  0.45593999997E+02  0.45594000000E+02  0.51100000000E-03 0. -1.
         11   -1    0    0    0    0 -0.00000000000E+00 -0.00000000000E+00 -0.45593999997E+02  0.45594000000E+02  0.51100000000E-03 0.  1.
    9900012    2    1    2    0    0  0.11729750703E+01  0.13058875816E+00 -0.16472060902E-01  0.90007663070E+02  0.89999923423E+02 0.  0.
         12    1    1    2    0    0 -0.11729750703E+01 -0.13058875816E+00  0.16472060902E-01  0.11803369299E+01  0.00000000000E+00 0. -1.
         11    1    3    3    0    0  0.11160679303E+01 -0.83921628505E+00 -0.10478810628E+02  0.10571440963E+02  0.51100000000E-03 0. -1.
        -11    1    3    3    0    0  0.32120493300E+02 -0.29906724327E+01 -0.17507220644E+02  0.36703855198E+02  0.51100000000E-03 0.  1.
         12    1    3    3    0    0 -0.32063586160E+02  0.39604774759E+01  0.27969559211E+02  0.42732366910E+02  0.00000000000E+00 0. -1.
</event>
<event>
 7    1  0.2285268E-015  0.9000794E+02  0.7816164E-02  0.1186339E+00
        -11   -1    0    0    0    0  0.00000000000E+00  0.00000000000E+00  0.45593999997E+02  0.45594000000E+02  0.51100000000E-03 0. -1.
         11   -1    0    0    0    0 -0.00000000000E+00 -0.00000000000E+00 -0.45593999997E+02  0.45594000000E+02  0.51100000000E-03 0.  1.
    9900012    2    1    2    0    0  0.20848075386E+00  0.79865462854E+00 -0.84334344308E+00  0.90007940000E+02  0.90000204008E+02 0.  0.
         12    1    1    2    0    0 -0.20848075386E+00 -0.79865462854E+00  0.84334344308E+00  0.11800599999E+01  0.00000000000E+00 0. -1.
         11    1    3    3    0    0 -0.31728000456E+02  0.31973575561E+01  0.18009261084E+02  0.36622705980E+02  0.51100000000E-03 0. -1.
        -11    1    3    3    0    0 -0.17672355108E+01  0.57910812810E+01  0.76343221656E+01  0.97438503140E+01  0.51100000000E-03 0.  1.
        -12    1    3    3    0    0  0.33703716720E+02 -0.81897842086E+01 -0.26486926693E+02  0.43641383706E+02  0.00000000000E+00 0.  1.
</event>
<event>
 7    1  0.2285268E-015  0.9000855E+02  0.7816164E-02  0.1186337E+00
        -11   -1    0    0    0    0  0.00000000000E+00  0.00000000000E+00  0.45593999997E+02  0.45594000000E+02  0.51100000000E-03 0.  1.
         11   -1    0    0    0    0 -0.00000000000E+00 -0.00000000000E+00 -0.45593999997E+02  0.45594000000E+02  0.51100000000E-03 0. -1.
    9900012    2    1    2    0    0 -0.19895932382E+00  0.29458797426E+00  0.11246046706E+01  0.90008549894E+02  0.90000821949E+02 0.  0.
         12    1    1    2    0    0  0.19895932382E+00 -0.29458797426E+00 -0.11246046706E+01  0.11794501059E+01  0.00000000000E+00 0. -1.
         11    1    3    3    0    0  0.55722941343E+01 -0.34893096965E+02  0.15602828219E+02  0.38626764379E+02  0.51100000000E-03 0. -1.
        -11    1    3    3    0    0 -0.72891956173E+01 -0.74249984709E+00  0.64600971292E+01  0.97681387147E+01  0.51100000000E-03 0.  1.
        -12    1    3    3    0    0  0.15179421592E+01  0.35930184786E+02 -0.20938320678E+02  0.41613646800E+02  0.00000000000E+00 0.  1.
</event>
<event>
 7    1  0.2285268E-015  0.9000769E+02  0.7816164E-02  0.1186339E+00
        -11   -1    0    0    0    0  0.00000000000E+00  0.00000000000E+00  0.45593999997E+02  0.45594000000E+02  0.51100000000E-03 0.  1.
         11   -1    0    0    0    0 -0.00000000000E+00 -0.00000000000E+00 -0.45593999997E+02  0.45594000000E+02  0.51100000000E-03 0. -1.
    9900012    2    1    2    0    0  0.15273591535E+00 -0.83884277678E+00  0.81618473906E+00  0.90007685215E+02  0.89999945860E+02 0.  0.
         12    1    1    2    0    0 -0.15273591535E+00  0.83884277678E+00 -0.81618473906E+00  0.11803147853E+01  0.00000000000E+00 0. -1.
         11    1    3    3    0    0  0.55350896068E+01 -0.58079005178E+01  0.29744923125E+01  0.85566658319E+01  0.51100000000E-03 0. -1.
        -11    1    3    3    0    0  0.35739692884E+02  0.13702626650E+02  0.56547397349E+01  0.38691907504E+02  0.51100000000E-03 0.  1.
         12    1    3    3    0    0 -0.41122046575E+02 -0.87335689094E+01 -0.78130473083E+01  0.42759111879E+02  0.00000000000E+00 0. -1.
</event>
<event>
 7    1  0.2285268E-015  0.9000776E+02  0.7816164E-02  0.1186339E+00
        -11   -1    0    0    0    0  0.00000000000E+00  0.00000000000E+00  0.45593999997E+02  0.45594000000E+02  0.51100000000E-03 0.  1.
         11   -1    0    0    0    0 -0.00000000000E+00 -0.00000000000E+00 -0.45593999997E+02  0.45594000000E+02  0.51100000000E-03 0. -1.
    9900012    2    1    2    0    0  0.10438755378E+01 -0.52125586596E+00 -0.17771436685E+00  0.90007760104E+02  0.90000021737E+02 0.  0.
         12    1    1    2    0    0 -0.10438755378E+01  0.52125586596E+00  0.17771436685E+00  0.11802398961E+01  0.00000000000E+00 0. -1.
         11    1    3    3    0    0  0.18273625477E+01 -0.75282766714E+01  0.14648491801E+02  0.16570833287E+02  0.51100000000E-03 0. -1.
        -11    1    3    3    0    0 -0.23940909613E+02 -0.22069754578E+02 -0.15929481675E+02  0.36248994565E+02  0.51100000000E-03 0.  1.
         12    1    3    3    0    0  0.23157422603E+02  0.29076775384E+02  0.11032755080E+01  0.37187932252E+02  0.00000000000E+00 0. -1.
</event>
<event>
 7    1  0.2285268E-015  0.9000771E+02  0.7816164E-02  0.1186339E+00
        -11   -1    0    0    0    0  0.00000000000E+00  0.00000000000E+00  0.45593999997E+02  0.45594000000E+02  0.51100000000E-03 0. -1.
         11   -1    0    0    0    0 -0.00000000000E+00 -0.00000000000E+00 -0.45593999997E+02  0.45594000000E+02  0.51100000000E-03 0.  1.
    9900012    2    1    2    0    0  0.37070057094E-01  0.70220961787E+00 -0.94795298200E+00  0.90007708768E+02  0.89999969724E+02 0.  0.
         12    1    1    2    0    0 -0.37070057094E-01 -0.70220961787E+00  0.94795298200E+00  0.11802912321E+01  0.00000000000E+00 0. -1.
         11    1    3    3    0    0 -0.81812374197E+01  0.34638843343E+02  0.20489591138E+02  0.41068302365E+02  0.51100000000E-03 0. -1.
        -11    1    3    3    0    0 -0.23403425756E+01 -0.63039397433E+01  0.56854767930E+01  0.88057655137E+01  0.51100000000E-03 0.  1.
        -12    1    3    3    0    0  0.10558650052E+02 -0.27632693982E+02 -0.27123020913E+02  0.40133640890E+02  0.00000000000E+00 0.  1.
</event>
<event>
 7    1  0.2285268E-015  0.9000784E+02  0.7816164E-02  0.1186339E+00
        -11   -1    0    0    0    0  0.00000000000E+00  0.00000000000E+00  0.45593999997E+02  0.45594000000E+02  0.51100000000E-03 0.  1.
         11   -1    0    0    0    0 -0.00000000000E+00 -0.00000000000E+00 -0.45593999997E+02  0.45594000000E+02  0.51100000000E-03 0. -1.
    9900012    2    1    2    0    0  0.99622449192E+00 -0.63068947888E+00  0.50562848056E-01  0.90007835156E+02  0.90000097780E+02 0.  0.
         12    1    1    2    0    0 -0.99622449192E+00  0.63068947888E+00 -0.50562848056E-01  0.11801648439E+01  0.00000000000E+00 0. -1.
         11    1    3    3    0    0  0.14933661012E+02  0.14771924616E+02 -0.29553287616E+02  0.36257699834E+02  0.51100000000E-03 0. -1.
        -11    1    3    3    0    0 -0.12062102405E+02 -0.73420219878E+01 -0.73233364005E+01  0.15906943691E+02  0.51100000000E-03 0.  1.
        -12    1    3    3    0    0 -0.18753341155E+01 -0.80605921072E+01  0.36927186864E+02  0.37843191632E+02  0.00000000000E+00 0.  1.
</event>
<event>
 7    1  0.2285268E-015  0.9000739E+02  0.7816164E-02  0.1186340E+00
        -11   -1    0    0    0    0  0.00000000000E+00  0.00000000000E+00  0.45593999997E+02  0.45594000000E+02  0.51100000000E-03 0.  1.
         11   -1    0    0    0    0 -0.00000000000E+00 -0.00000000000E+00 -0.45593999997E+02  0.45594000000E+02  0.51100000000E-03 0. -1.
    9900012    2    1    2    0    0 -0.68444444886E+00  0.80254505410E+00  0.53037490307E+00  0.90007389859E+02  0.89999646604E+02 0.  0.
         12    1    1    2    0    0  0.68444444886E+00 -0.80254505410E+00 -0.53037490307E+00  0.11806101411E+01  0.00000000000E+00 0. -1.
         11    1    3    3    0    0 -0.87977738241E+01 -0.11385513725E+01  0.59091531946E+00  0.88907988766E+01  0.51100000000E-03 0. -1.
        -11    1    3    3    0    0  0.37871669093E+02 -0.19139400273E+02  0.93551662381E+01  0.43452262292E+02  0.51100000000E-03 0.  1.
         12    1    3    3    0    0 -0.29758339718E+02  0.21080496700E+02 -0.94157066545E+01  0.37664328690E+02  0.00000000000E+00 0. -1.
</event>
<event>
 7    1  0.2285268E-015  0.9000778E+02  0.7816164E-02  0.1186339E+00
        -11   -1    0    0    0    0  0.00000000000E+00  0.00000000000E+00  0.45593999997E+02  0.45594000000E+02  0.51100000000E-03 0.  1.
         11   -1    0    0    0    0 -0.00000000000E+00 -0.00000000000E+00 -0.45593999997E+02  0.45594000000E+02  0.51100000000E-03 0. -1.
    9900012    2    1    2    0    0 -0.99475649006E-01  0.93139274095E+00 -0.71800300360E+00  0.90007781310E+02  0.90000043223E+02 0.  0.
         12    1    1    2    0    0  0.99475649006E-01 -0.93139274095E+00  0.71800300360E+00  0.11802186898E+01  0.00000000000E+00 0. -1.
         11    1    3    3    0    0  0.30093126464E+02 -0.15762420150E+02 -0.16214170072E+02  0.37642389148E+02  0.51100000000E-03 0. -1.
        -11    1    3    3    0    0  0.81093206151E+01  0.26425952811E+01  0.61375535692E+01  0.10507804468E+02  0.51100000000E-03 0.  1.
        -12    1    3    3    0    0 -0.38301922728E+02  0.14051217610E+02  0.93586134992E+01  0.41857587695E+02  0.00000000000E+00 0.  1.
</event>
<event>
 7    1  0.2285268E-015  0.9000779E+02  0.7816164E-02  0.1186339E+00
        -11   -1    0    0    0    0  0.00000000000E+00  0.00000000000E+00  0.45593999997E+02  0.45594000000E+02  0.51100000000E-03 0.  1.
         11   -1    0    0    0    0 -0.00000000000E+00 -0.00000000000E+00 -0.45593999997E+02  0.45594000000E+02  0.51100000000E-03 0. -1.
    9900012    2    1    2    0    0  0.24873489211E+00 -0.94383377789E+00  0.66347541436E+00  0.90007792022E+02  0.90000054076E+02 0.  0.
         12    1    1    2    0    0 -0.24873489211E+00  0.94383377789E+00 -0.66347541436E+00  0.11802079784E+01  0.00000000000E+00 0. -1.
         11    1    3    3    0    0  0.11385204945E+02 -0.65978140733E+01 -0.31833293127E+02  0.34445792105E+02  0.51100000000E-03 0. -1.
        -11    1    3    3    0    0 -0.17147747521E+01 -0.10447757334E+02 -0.64360458080E+01  0.12390269233E+02  0.51100000000E-03 0.  1.
        -12    1    3    3    0    0 -0.94216953007E+01  0.16101737629E+02  0.38932814349E+02  0.43171730683E+02  0.00000000000E+00 0.  1.
</event>
<event>
 7    1  0.2285268E-015  0.9000764E+02  0.7816164E-02  0.1186339E+00
        -11   -1    0    0    0    0  0.00000000000E+00  0.00000000000E+00  0.45593999997E+02  0.45594000000E+02  0.51100000000E-03 0. -1.
         11   -1    0    0    0    0 -0.00000000000E+00 -0.00000000000E+00 -0.45593999997E+02  0.45594000000E+02  0.51100000000E-03 0.  1.
    9900012    2    1    2    0    0 -0.61198828392E+00 -0.58538960435E+00 -0.82221580862E+00  0.90007640104E+02  0.89999900153E+02 0.  0.
         12    1    1    2    0    0  0.61198828392E+00  0.58538960435E+00  0.82221580862E+00  0.11803598962E+01  0.00000000000E+00 0. -1.
         11    1    3    3    0    0  0.13517577690E+02 -0.28042031014E+01  0.58671273138E+00  0.13817839691E+02  0.51100000000E-03 0. -1.
        -11    1    3    3    0    0  0.17788249358E+02 -0.20366958129E+02 -0.19267859806E+02  0.33203692873E+02  0.51100000000E-03 0.  1.
         12    1    3    3    0    0 -0.31917815331E+02  0.22585771626E+02  0.17858931266E+02  0.42986107540E+02  0.00000000000E+00 0. -1.
</event>
<event>
 7    1  0.2285268E-015  0.9000786E+02  0.7816164E-02  0.1186339E+00
        -11   -1    0    0    0    0  0.00000000000E+00  0.00000000000E+00  0.45593999997E+02  0.45594000000E+02  0.51100000000E-03 0.  1.
         11   -1    0    0    0    0 -0.00000000000E+00 -0.00000000000E+00 -0.45593999997E+02  0.45594000000E+02  0.51100000000E-03 0. -1.
    9900012    2    1    2    0    0 -0.30372813213E+00 -0.99012014967E+00 -0.56580460305E+00  0.90007862916E+02  0.90000125906E+02 0.  0.
         12    1    1    2    0    0  0.30372813213E+00  0.99012014967E+00  0.56580460305E+00  0.11801370844E+01  0.00000000000E+00 0. -1.
         11    1    3    3    0    0  0.31415198701E+02  0.21016041817E+02  0.11442359780E+01  0.37813992110E+02  0.51100000000E-03 0. -1.
        -11    1    3    3    0    0  0.55382582043E+01 -0.11811073650E+02  0.26824979527E+01  0.13318016378E+02  0.51100000000E-03 0.  1.
        -12    1    3    3    0    0 -0.37257185037E+02 -0.10195088317E+02 -0.43925385337E+01  0.38875854428E+02  0.00000000000E+00 0.  1.
</event>
<event>
 7    1  0.2285268E-015  0.9000781E+02  0.7816164E-02  0.1186339E+00
        -11   -1    0    0    0    0  0.00000000000E+00  0.00000000000E+00  0.45593999997E+02  0.45594000000E+02  0.51100000000E-03 0.  1.
         11   -1    0    0    0    0 -0.00000000000E+00 -0.00000000000E+00 -0.45593999997E+02  0.45594000000E+02  0.51100000000E-03 0. -1.
    9900012    2    1    2    0    0  0.11185410910E+01 -0.22107714743E+00 -0.30470626070E+00  0.90007807142E+02  0.90000069396E+02 0.  0.
         12    1    1    2    0    0 -0.11185410910E+01  0.22107714743E+00  0.30470626070E+00  0.11801928583E+01  0.00000000000E+00 0. -1.
         11    1    3    3    0    0 -0.55742253562E+00 -0.86269565321E+01 -0.60900640382E+01  0.10574685770E+02  0.51100000000E-03 0. -1.
        -11    1    3    3    0    0  0.24995560802E+02 -0.26475469295E+02  0.84910474160E+01  0.37387516910E+02  0.51100000000E-03 0.  1.
         12    1    3    3    0    0 -0.23319597175E+02  0.34881348679E+02 -0.27056896385E+01  0.42045604462E+02  0.00000000000E+00 0. -1.
</event>
<event>
 7    1  0.2285268E-015  0.9000761E+02  0.7816164E-02  0.1186339E+00
        -11   -1    0    0    0    0  0.00000000000E+00  0.00000000000E+00  0.45593999997E+02  0.45594000000E+02  0.51100000000E-03 0.  1.
         11   -1    0    0    0    0 -0.00000000000E+00 -0.00000000000E+00 -0.45593999997E+02  0.45594000000E+02  0.51100000000E-03 0. -1.
    9900012    2    1    2    0    0  0.17873469306E+00 -0.10975817373E+01 -0.39585234365E+00  0.90007605643E+02  0.89999865237E+02 0.  0.
         12    1    1    2    0    0 -0.17873469306E+00  0.10975817373E+01  0.39585234365E+00  0.11803943572E+01  0.00000000000E+00 0. -1.
         11    1    3    3    0    0  0.13245577064E+02  0.66555999340E+01 -0.33598186875E+02  0.36723023892E+02  0.51100000000E-03 0. -1.
        -11    1    3    3    0    0 -0.61061418060E-01  0.75683508071E+01 -0.57152959510E+01  0.94841062049E+01  0.51100000000E-03 0.  1.
        -12    1    3    3    0    0 -0.13005780953E+02 -0.15321532478E+02  0.38917630482E+02  0.43800475546E+02  0.00000000000E+00 0.  1.
</event>
<event>
 7    1  0.2285268E-015  0.9000774E+02  0.7816164E-02  0.1186339E+00
        -11   -1    0    0    0    0  0.00000000000E+00  0.00000000000E+00  0.45593999997E+02  0.45594000000E+02  0.51100000000E-03 0. -1.
         11   -1    0    0    0    0 -0.00000000000E+00 -0.00000000000E+00 -0.45593999997E+02  0.45594000000E+02  0.51100000000E-03 0.  1.
    9900012    2    1    2    0    0 -0.86573027579E+00  0.75752127304E+00 -0.26400264224E+00  0.90007735290E+02  0.89999996596E+02 0.  0.
         12    1    1    2    0    0  0.86573027579E+00 -0.75752127304E+00  0.26400264224E+00  0.11802647096E+01  0.00000000000E+00 0. -1.
         11    1    3    3    0    0  0.14724385686E+00  0.17323906157E+02  0.30415675155E+02  0.35003609824E+02  0.51100000000E-03 0. -1.
        -11    1    3    3    0    0  0.91883612048E+01  0.23270479167E+01  0.68993011840E+01  0.11723544290E+02  0.51100000000E-03 0.  1.
        -12    1    3    3    0    0 -0.10201335337E+02 -0.18893432801E+02 -0.37578978982E+02  0.43280581176E+02  0.00000000000E+00 0.  1.
</event>
<event>
 7    1  0.2285268E-015  0.9000764E+02  0.7816164E-02  0.1186339E+00
        -11   -1    0    0    0    0  0.00000000000E+00  0.00000000000E+00  0.45593999997E+02  0.45594000000E+02  0.51100000000E-03 0. -1.
         11   -1    0    0    0    0 -0.00000000000E+00 -0.00000000000E+00 -0.45593999997E+02  0.45594000000E+02  0.51100000000E-03 0.  1.
    9900012    2    1    2    0    0  0.13031007223E+00  0.72501531737E+00 -0.92229311072E+00  0.90007638823E+02  0.89999898856E+02 0.  0.
         12    1    1    2    0    0 -0.13031007223E+00 -0.72501531737E+00  0.92229311072E+00  0.11803611767E+01  0.00000000000E+00 0. -1.
         11    1    3    3    0    0 -0.45640391944E+01 -0.61511636534E+01 -0.55332059119E+01  0.94490018512E+01  0.51100000000E-03 0. -1.
        -11    1    3    3    0    0  0.10751944674E+01  0.33644228129E+02 -0.23900618701E+02  0.41283528242E+02  0.51100000000E-03 0.  1.
         12    1    3    3    0    0  0.36191547992E+01 -0.26768049158E+02  0.28511531502E+02  0.39275108730E+02  0.00000000000E+00 0. -1.
</event>
<event>
 7    1  0.2285268E-015  0.9000776E+02  0.7816164E-02  0.1186339E+00
        -11   -1    0    0    0    0  0.00000000000E+00  0.00000000000E+00  0.45593999997E+02  0.45594000000E+02  0.51100000000E-03 0. -1.
         11   -1    0    0    0    0 -0.00000000000E+00 -0.00000000000E+00 -0.45593999997E+02  0.45594000000E+02  0.51100000000E-03 0.  1.
    9900012    2    1    2    0    0 -0.10389094431E+01 -0.25318787943E+00 -0.49952575310E+00  0.90007761502E+02  0.90000023154E+02 0.  0.
         12    1    1    2    0    0  0.10389094431E+01  0.25318787943E+00  0.49952575310E+00  0.11802384976E+01  0.00000000000E+00 0. -1.
         11    1    3    3    0    0 -0.34000193919E+01  0.49799240119E+01  0.63907763495E+01  0.87864553513E+01  0.51100000000E-03 0. -1.
        -11    1    3    3    0    0  0.24897835285E+01 -0.42901337556E+02 -0.70772509375E+01  0.43552396802E+02  0.51100000000E-03 0.  1.
         12    1    3    3    0    0 -0.12867357975E+00  0.37668225665E+02  0.18694883489E+00  0.37668909349E+02  0.00000000000E+00 0. -1.
</event>
<event>
 7    1  0.2285268E-015  0.9000797E+02  0.7816164E-02  0.1186339E+00
        -11   -1    0    0    0    0  0.00000000000E+00  0.00000000000E+00  0.45593999997E+02  0.45594000000E+02  0.51100000000E-03 0. -1.
         11   -1    0    0    0    0 -0.00000000000E+00 -0.00000000000E+00 -0.45593999997E+02  0.45594000000E+02  0.51100000000E-03 0.  1.
    9900012    2    1    2    0    0  0.10569234948E+01 -0.35804677311E+00 -0.38364156743E+00  0.90007972196E+02  0.90000236629E+02 0.  0.
         12    1    1    2    0    0 -0.10569234948E+01  0.35804677311E+00  0.38364156743E+00  0.11800278039E+01  0.00000000000E+00 0. -1.
         11    1    3    3    0    0 -0.26009366808E+02  0.89966349249E+00 -0.28530570300E+02  0.38617224111E+02  0.51100000000E-03 0. -1.
        -11    1    3    3    0    0  0.26836776440E+01  0.91845234644E+01 -0.34181989459E+01  0.10160791370E+02  0.51100000000E-03 0.  1.
        -12    1    3    3    0    0  0.24382612659E+02 -0.10442233730E+02  0.31565127679E+02  0.41229956715E+02  0.00000000000E+00 0.  1.
</event>
<event>
 7    1  0.2285268E-015  0.9000782E+02  0.7816164E-02  0.1186339E+00
        -11   -1    0    0    0    0  0.00000000000E+00  0.00000000000E+00  0.45593999997E+02  0.45594000000E+02  0.51100000000E-03 0. -1.
         11   -1    0    0    0    0 -0.00000000000E+00 -0.00000000000E+00 -0.45593999997E+02  0.45594000000E+02  0.51100000000E-03 0.  1.
    9900012    2    1    2    0    0 -0.46455420305E+00 -0.93914454235E+00  0.54315246911E+00  0.90007823029E+02  0.90000085493E+02 0.  0.
         12    1    1    2    0    0  0.46455420305E+00  0.93914454235E+00 -0.54315246911E+00  0.11801769713E+01  0.00000000000E+00 0. -1.
         11    1    3    3    0    0 -0.36674394912E+02 -0.18778164664E+01  0.42653024933E+01  0.36969314876E+02  0.51100000000E-03 0. -1.
        -11    1    3    3    0    0 -0.51542545797E+01 -0.87574394528E+01  0.13521982444E+01  0.10251220727E+02  0.51100000000E-03 0.  1.
        -12    1    3    3    0    0  0.41364095288E+02  0.96961113769E+01 -0.50743482686E+01  0.42787287425E+02  0.00000000000E+00 0.  1.
</event>
<event>
 7    1  0.2285268E-015  0.9000775E+02  0.7816164E-02  0.1186339E+00
        -11   -1    0    0    0    0  0.00000000000E+00  0.00000000000E+00  0.45593999997E+02  0.45594000000E+02  0.51100000000E-03 0. -1.
         11   -1    0    0    0    0 -0.00000000000E+00 -0.00000000000E+00 -0.45593999997E+02  0.45594000000E+02  0.51100000000E-03 0.  1.
    9900012    2    1    2    0    0  0.17625503596E+00 -0.11669916753E+01 -0.73830736822E-02  0.90007750061E+02  0.90000011562E+02 0.  0.
         12    1    1    2    0    0 -0.17625503596E+00  0.11669916753E+01  0.73830736822E-02  0.11802499386E+01  0.00000000000E+00 0. -1.
         11    1    3    3    0    0 -0.11359320321E+02 -0.65513796799E+01 -0.79201727840E+01  0.15319395258E+02  0.51100000000E-03 0. -1.
        -11    1    3    3    0    0 -0.13500836081E+02 -0.21902973012E+02 -0.16285629930E+02  0.30450526172E+02  0.51100000000E-03 0.  1.
         12    1    3    3    0    0  0.25036411438E+02  0.27287361017E+02  0.24198419640E+02  0.44237828632E+02  0.00000000000E+00 0. -1.
</event>
<event>
 7    1  0.2285268E-015  0.9000801E+02  0.7816164E-02  0.1186339E+00
        -11   -1    0    0    0    0  0.00000000000E+00  0.00000000000E+00  0.45593999997E+02  0.45594000000E+02  0.51100000000E-03 0.  1.
         11   -1    0    0    0    0 -0.00000000000E+00 -0.00000000000E+00 -0.45593999997E+02  0.45594000000E+02  0.51100000000E-03 0. -1.
    9900012    2    1    2    0    0  0.10314066246E+01 -0.68626966715E-01 -0.56910260304E+00  0.90008005484E+02  0.90000270356E+02 0.  0.
         12    1    1    2    0    0 -0.10314066246E+01  0.68626966715E-01  0.56910260304E+00  0.11799945164E+01  0.00000000000E+00 0. -1.
         11    1    3    3    0    0 -0.88929501466E+01  0.24513859072E+01  0.27308672514E+01  0.96203685679E+01  0.51100000000E-03 0. -1.
        -11    1    3    3    0    0 -0.30188376760E+02  0.17560604299E+02 -0.60527204767E+01  0.35445004446E+02  0.51100000000E-03 0.  1.
         12    1    3    3    0    0  0.40112733531E+02 -0.20080617173E+02  0.27527506222E+01  0.44942632470E+02  0.00000000000E+00 0. -1.
</event>
<event>
 7    1  0.2285268E-015  0.9000777E+02  0.7816164E-02  0.1186339E+00
        -11   -1    0    0    0    0  0.00000000000E+00  0.00000000000E+00  0.45593999997E+02  0.45594000000E+02  0.51100000000E-03 0. -1.
         11   -1    0    0    0    0 -0.00000000000E+00 -0.00000000000E+00 -0.45593999997E+02  0.45594000000E+02  0.51100000000E-03 0.  1.
    9900012    2    1    2    0    0  0.19946025403E+00  0.70723766527E+00 -0.92356438761E+00  0.90007770918E+02  0.90000032694E+02 0.  0.
         12    1    1    2    0    0 -0.19946025403E+00 -0.70723766527E+00  0.92356438761E+00  0.11802290821E+01  0.00000000000E+00 0. -1.
         11    1    3    3    0    0  0.39923483254E+01 -0.59769369106E+01  0.72394317162E+01  0.10201568106E+02  0.51100000000E-03 0. -1.
        -11    1    3    3    0    0  0.63255522776E+01 -0.18041667789E+02  0.28575196945E+02  0.34381045198E+02  0.51100000000E-03 0.  1.
         12    1    3    3    0    0 -0.10118440349E+02  0.24725842365E+02 -0.36738193049E+02  0.45425157614E+02  0.00000000000E+00 0. -1.
</event>
<event>
 7    1  0.2285268E-015  0.9000754E+02  0.7816164E-02  0.1186339E+00
        -11   -1    0    0    0    0  0.00000000000E+00  0.00000000000E+00  0.45593999997E+02  0.45594000000E+02  0.51100000000E-03 0.  1.
         11   -1    0    0    0    0 -0.00000000000E+00 -0.00000000000E+00 -0.45593999997E+02  0.45594000000E+02  0.51100000000E-03 0. -1.
    9900012    2    1    2    0    0  0.90270503390E+00 -0.58987220437E+00 -0.48027499381E+00  0.90007538368E+02  0.89999797074E+02 0.  0.
         12    1    1    2    0    0 -0.90270503390E+00  0.58987220437E+00  0.48027499381E+00  0.11804616323E+01  0.00000000000E+00 0. -1.
         11    1    3    3    0    0  0.29783728033E+02  0.27774905255E+02 -0.72905117612E+01  0.41372302081E+02  0.51100000000E-03 0. -1.
        -11    1    3    3    0    0 -0.74677402799E-01 -0.13739145107E+01  0.89947436741E+01  0.90993753534E+01  0.51100000000E-03 0.  1.
        -12    1    3    3    0    0 -0.28806345597E+02 -0.26990862948E+02 -0.21845069068E+01  0.39535860933E+02  0.00000000000E+00 0.  1.
</event>
<event>
 7    1  0.2285268E-015  0.9000881E+02  0.7816164E-02  0.1186337E+00
        -11   -1    0    0    0    0  0.00000000000E+00  0.00000000000E+00  0.45593999997E+02  0.45594000000E+02  0.51100000000E-03 0.  1.
         11   -1    0    0    0    0 -0.00000000000E+00 -0.00000000000E+00 -0.45593999997E+02  0.45594000000E+02  0.51100000000E-03 0. -1.
    9900012    2    1    2    0    0  0.10276659167E+01 -0.54013141107E+00  0.20651066977E+00  0.90008811366E+02  0.90001086870E+02 0.  0.
         12    1    1    2    0    0 -0.10276659167E+01  0.54013141107E+00 -0.20651066977E+00  0.11791886339E+01  0.00000000000E+00 0. -1.
         11    1    3    3    0    0 -0.96472872789E+01 -0.57457167462E+01  0.21871739671E+00  0.11230816993E+02  0.51100000000E-03 0. -1.
        -11    1    3    3    0    0  0.10166534012E+02  0.33755562762E+02 -0.23023364122E+02  0.42105483336E+02  0.51100000000E-03 0.  1.
         12    1    3    3    0    0  0.50841918376E+00 -0.28549977427E+02  0.23011157395E+02  0.36672511037E+02  0.00000000000E+00 0. -1.
</event>
<event>
 7    1  0.2285268E-015  0.9000775E+02  0.7816164E-02  0.1186339E+00
        -11   -1    0    0    0    0  0.00000000000E+00  0.00000000000E+00  0.45593999997E+02  0.45594000000E+02  0.51100000000E-03 0.  1.
         11   -1    0    0    0    0 -0.00000000000E+00 -0.00000000000E+00 -0.45593999997E+02  0.45594000000E+02  0.51100000000E-03 0. -1.
    9900012    2    1    2    0    0  0.52218696813E+00  0.25536952428E+00  0.10271825132E+01  0.90007747172E+02  0.90000008634E+02 0.  0.
         12    1    1    2    0    0 -0.52218696813E+00 -0.25536952428E+00 -0.10271825132E+01  0.11802528284E+01  0.00000000000E+00 0. -1.
         11    1    3    3    0    0  0.10731748388E+02 -0.25041295114E+02 -0.25520516132E+02  0.37330063332E+02  0.51100000000E-03 0. -1.
        -11    1    3    3    0    0  0.28133984331E+01 -0.37275655471E+01 -0.57072274806E+01  0.73744424486E+01  0.51100000000E-03 0.  1.
        -12    1    3    3    0    0 -0.13022959853E+02  0.29024230185E+02  0.32254926126E+02  0.45303241391E+02  0.00000000000E+00 0.  1.
</event>
<event>
 7    1  0.2285268E-015  0.9000768E+02  0.7816164E-02  0.1186339E+00
        -11   -1    0    0    0    0  0.00000000000E+00  0.00000000000E+00  0.45593999997E+02  0.45594000000E+02  0.51100000000E-03 0.  1.
         11   -1    0    0    0    0 -0.00000000000E+00 -0.00000000000E+00 -0.45593999997E+02  0.45594000000E+02  0.51100000000E-03 0. -1.
    9900012    2    1    2    0    0 -0.10152364645E-01 -0.52057159530E+00  0.10592692341E+01  0.90007682599E+02  0.89999943209E+02 0.  0.
         12    1    1    2    0    0  0.10152364645E-01  0.52057159530E+00 -0.10592692341E+01  0.11803174008E+01  0.00000000000E+00 0. -1.
         11    1    3    3    0    0  0.13759395798E+02  0.61700390571E+01 -0.34668890574E+02  0.37806379469E+02  0.51100000000E-03 0. -1.
        -11    1    3    3    0    0  0.78659776698E+01  0.68449325425E+01  0.33036300153E+01  0.10938038113E+02  0.51100000000E-03 0.  1.
        -12    1    3    3    0    0 -0.21635525832E+02 -0.13535543195E+02  0.32424529793E+02  0.41263265017E+02  0.00000000000E+00 0.  1.
</event>
<event>
 7    1  0.2285268E-015  0.9000775E+02  0.7816164E-02  0.1186339E+00
        -11   -1    0    0    0    0  0.00000000000E+00  0.00000000000E+00  0.45593999997E+02  0.45594000000E+02  0.51100000000E-03 0.  1.
         11   -1    0    0    0    0 -0.00000000000E+00 -0.00000000000E+00 -0.45593999997E+02  0.45594000000E+02  0.51100000000E-03 0. -1.
    9900012    2    1    2    0    0  0.79847552057E+00 -0.78192419775E+00  0.37949533556E+00  0.90007752010E+02  0.90000013537E+02 0.  0.
         12    1    1    2    0    0 -0.79847552057E+00  0.78192419775E+00 -0.37949533556E+00  0.11802479899E+01  0.00000000000E+00 0. -1.
         11    1    3    3    0    0  0.29745179401E+02  0.24489782778E+02 -0.67949442734E+01  0.39124115658E+02  0.51100000000E-03 0. -1.
        -11    1    3    3    0    0 -0.26441413773E+00  0.16938152303E+01 -0.83807185720E+01  0.85542602787E+01  0.51100000000E-03 0.  1.
        -12    1    3    3    0    0 -0.28682289743E+02 -0.26965522206E+02  0.15555158181E+02  0.42329376073E+02  0.00000000000E+00 0.  1.
</event>
<event>
 7    1  0.2285268E-015  0.9000768E+02  0.7816164E-02  0.1186339E+00
        -11   -1    0    0    0    0  0.00000000000E+00  0.00000000000E+00  0.45593999997E+02  0.45594000000E+02  0.51100000000E-03 0. -1.
         11   -1    0    0    0    0 -0.00000000000E+00 -0.00000000000E+00 -0.45593999997E+02  0.45594000000E+02  0.51100000000E-03 0.  1.
    9900012    2    1    2    0    0  0.59848754565E+00  0.99464917651E+00  0.21366037090E+00  0.90007675858E+02  0.89999936379E+02 0.  0.
         12    1    1    2    0    0 -0.59848754565E+00 -0.99464917651E+00 -0.21366037090E+00  0.11803241422E+01  0.00000000000E+00 0. -1.
         11    1    3    3    0    0 -0.52486096553E+01  0.40701334590E+01 -0.26128205322E+01  0.71372768675E+01  0.51100000000E-03 0. -1.
        -11    1    3    3    0    0  0.94023916526E+01 -0.40938973498E+02  0.12125587802E+02  0.43719954250E+02  0.51100000000E-03 0.  1.
         12    1    3    3    0    0 -0.35552944516E+01  0.37863489216E+02 -0.92991068984E+01  0.39150444740E+02  0.00000000000E+00 0. -1.
</event>
<event>
 7    1  0.2285268E-015  0.9000784E+02  0.7816164E-02  0.1186339E+00
        -11   -1    0    0    0    0  0.00000000000E+00  0.00000000000E+00  0.45593999997E+02  0.45594000000E+02  0.51100000000E-03 0.  1.
         11   -1    0    0    0    0 -0.00000000000E+00 -0.00000000000E+00 -0.45593999997E+02  0.45594000000E+02  0.51100000000E-03 0. -1.
    9900012    2    1    2    0    0 -0.11245239274E+01  0.13502194300E+00  0.33166297923E+00  0.90007836740E+02  0.90000099385E+02 0.  0.
         12    1    1    2    0    0  0.11245239274E+01 -0.13502194300E+00 -0.33166297923E+00  0.11801632600E+01  0.00000000000E+00 0. -1.
         11    1    3    3    0    0  0.27089569904E+02  0.19857068795E+02  0.25016248778E+02  0.41880313775E+02  0.51100000000E-03 0. -1.
        -11    1    3    3    0    0  0.19126155850E+01 -0.92106037534E+01 -0.56639322873E+01  0.10980594205E+02  0.51100000000E-03 0.  1.
        -12    1    3    3    0    0 -0.30126709416E+02 -0.10511443099E+02 -0.19020653512E+02  0.37146928760E+02  0.00000000000E+00 0.  1.
</event>
<event>
 7    1  0.2285268E-015  0.9000773E+02  0.7816164E-02  0.1186339E+00
        -11   -1    0    0    0    0  0.00000000000E+00  0.00000000000E+00  0.45593999997E+02  0.45594000000E+02  0.51100000000E-03 0. -1.
         11   -1    0    0    0    0 -0.00000000000E+00 -0.00000000000E+00 -0.45593999997E+02  0.45594000000E+02  0.51100000000E-03 0.  1.
    9900012    2    1    2    0    0  0.63872678342E+00  0.56743507841E+00 -0.81429790444E+00  0.90007730730E+02  0.89999991976E+02 0.  0.
         12    1    1    2    0    0 -0.63872678342E+00 -0.56743507841E+00  0.81429790444E+00  0.11802692698E+01  0.00000000000E+00 0. -1.
         11    1    3    3    0    0  0.91852870212E+01  0.28411879534E+02  0.18979887310E+02  0.35381358353E+02  0.51100000000E-03 0. -1.
        -11    1    3    3    0    0  0.87512490358E+01 -0.91154078215E+01  0.94871381106E+01  0.15801291379E+02  0.51100000000E-03 0.  1.
        -12    1    3    3    0    0 -0.17297809274E+02 -0.18729036634E+02 -0.29281323325E+02  0.38825080999E+02  0.00000000000E+00 0.  1.
</event>
<event>
 7    1  0.2599738E-015  0.9000773E+02  0.7816164E-02  0.1186339E+00
        -11   -1    0    0    0    0  0.00000000000E+00  0.00000000000E+00  0.45593999997E+02  0.45594000000E+02  0.51100000000E-03 0. -1.
         11   -1    0    0    0    0 -0.00000000000E+00 -0.00000000000E+00 -0.45593999997E+02  0.45594000000E+02  0.51100000000E-03 0.  1.
    9900012    2    1    2    0    0  0.45902639419E-02 -0.67720616227E+00 -0.96664691223E+00  0.90007730747E+02  0.89999991993E+02 0.  0.
         12    1    1    2    0    0 -0.45902639419E-02  0.67720616227E+00  0.96664691223E+00  0.11802692530E+01  0.00000000000E+00 0. -1.
         11    1    3    3    0    0 -0.61707854567E+01  0.78247289039E+01 -0.70640665714E+00  0.99901945025E+01  0.51100000000E-03 0. -1.
        -11    1    3    3    0    0 -0.16902293658E+02 -0.34396921436E+02 -0.16489773788E+02  0.41722276724E+02  0.51100000000E-03 0.  1.
         12    1    3    3    0    0  0.23077669379E+02  0.25894986370E+02  0.16229533533E+02  0.38295259521E+02  0.00000000000E+00 0. -1.
</event>
<event>
 7    1  0.2285268E-015  0.9000741E+02  0.7816164E-02  0.1186340E+00
        -11   -1    0    0    0    0  0.00000000000E+00  0.00000000000E+00  0.45593999997E+02  0.45594000000E+02  0.51100000000E-03 0.  1.
         11   -1    0    0    0    0 -0.00000000000E+00 -0.00000000000E+00 -0.45593999997E+02  0.45594000000E+02  0.51100000000E-03 0. -1.
    9900012    2    1    2    0    0 -0.11031123326E+01  0.26967609767E+00 -0.32281330865E+00  0.90007410974E+02  0.89999667998E+02 0.  0.
         12    1    1    2    0    0  0.11031123326E+01 -0.26967609767E+00  0.32281330865E+00  0.11805890260E+01  0.00000000000E+00 0. -1.
         11    1    3    3    0    0 -0.77812249672E+01 -0.69627345529E+01 -0.20042819046E+01  0.10632228396E+02  0.51100000000E-03 0. -1.
        -11    1    3    3    0    0 -0.54791192528E+01 -0.20572177402E+02  0.30718543263E+02  0.37374645568E+02  0.51100000000E-03 0.  1.
         12    1    3    3    0    0  0.12157231887E+02  0.27804588052E+02 -0.29037074667E+02  0.42000537010E+02  0.00000000000E+00 0. -1.
</event>
<event>
 7    1  0.2285268E-015  0.9000773E+02  0.7816164E-02  0.1186339E+00
        -11   -1    0    0    0    0  0.00000000000E+00  0.00000000000E+00  0.45593999997E+02  0.45594000000E+02  0.51100000000E-03 0.  1.
         11   -1    0    0    0    0 -0.00000000000E+00 -0.00000000000E+00 -0.45593999997E+02  0.45594000000E+02  0.51100000000E-03 0. -1.
    9900012    2    1    2    0    0  0.58842793834E+00 -0.42719154572E+00  0.92967512371E+00  0.90007730585E+02  0.89999991829E+02 0.  0.
         12    1    1    2    0    0 -0.58842793834E+00  0.42719154572E+00 -0.92967512371E+00  0.11802694146E+01  0.00000000000E+00 0. -1.
         11    1    3    3    0    0  0.51641044874E-01 -0.25840159766E+01 -0.65501407613E+01  0.70416013533E+01  0.51100000000E-03 0. -1.
        -11    1    3    3    0    0 -0.12451957135E+02 -0.36924460533E+02  0.13721195554E+02  0.41312688485E+02  0.51100000000E-03 0.  1.
         12    1    3    3    0    0  0.12988744029E+02  0.39081284964E+02 -0.62413796689E+01  0.41653440747E+02  0.00000000000E+00 0. -1.
</event>
<event>
 7    1  0.2285268E-015  0.9000775E+02  0.7816164E-02  0.1186339E+00
        -11   -1    0    0    0    0  0.00000000000E+00  0.00000000000E+00  0.45593999997E+02  0.45594000000E+02  0.51100000000E-03 0. -1.
         11   -1    0    0    0    0 -0.00000000000E+00 -0.00000000000E+00 -0.45593999997E+02  0.45594000000E+02  0.51100000000E-03 0.  1.
    9900012    2    1    2    0    0 -0.11214660498E+01  0.77723096731E-01  0.35952338362E+00  0.90007752550E+02  0.90000014083E+02 0.  0.
         12    1    1    2    0    0  0.11214660498E+01 -0.77723096731E-01 -0.35952338362E+00  0.11802474503E+01  0.00000000000E+00 0. -1.
         11    1    3    3    0    0 -0.24335948551E+02 -0.32748837229E+02  0.96812123521E+01  0.41933883729E+02  0.51100000000E-03 0. -1.
        -11    1    3    3    0    0 -0.49935263276E+01  0.76275750083E+01 -0.36784170877E+01  0.98308676231E+01  0.51100000000E-03 0.  1.
        -12    1    3    3    0    0  0.28208008829E+02  0.25198985317E+02 -0.56432718808E+01  0.38243001198E+02  0.00000000000E+00 0.  1.
</event>
<event>
 7    1  0.2285268E-015  0.9000773E+02  0.7816164E-02  0.1186339E+00
        -11   -1    0    0    0    0  0.00000000000E+00  0.00000000000E+00  0.45593999997E+02  0.45594000000E+02  0.51100000000E-03 0.  1.
         11   -1    0    0    0    0 -0.00000000000E+00 -0.00000000000E+00 -0.45593999997E+02  0.45594000000E+02  0.51100000000E-03 0. -1.
    9900012    2    1    2    0    0  0.32913373643E+00  0.83126153410E+00  0.77053413300E+00  0.90007725623E+02  0.89999986801E+02 0.  0.
         12    1    1    2    0    0 -0.32913373643E+00 -0.83126153410E+00 -0.77053413300E+00  0.11802743769E+01  0.00000000000E+00 0. -1.
         11    1    3    3    0    0  0.29575079364E+00  0.28012504106E+02  0.23708667610E+02  0.36699983309E+02  0.51100000000E-03 0. -1.
        -11    1    3    3    0    0  0.80797858323E+00  0.70681664297E+01  0.53325805543E+01  0.88909066860E+01  0.51100000000E-03 0.  1.
        -12    1    3    3    0    0 -0.77459564044E+00 -0.34249409002E+02 -0.28270714031E+02  0.44416835628E+02  0.00000000000E+00 0.  1.
</event>
<event>
 7    1  0.2285268E-015  0.9000762E+02  0.7816164E-02  0.1186339E+00
        -11   -1    0    0    0    0  0.00000000000E+00  0.00000000000E+00  0.45593999997E+02  0.45594000000E+02  0.51100000000E-03 0.  1.
         11   -1    0    0    0    0 -0.00000000000E+00 -0.00000000000E+00 -0.45593999997E+02  0.45594000000E+02  0.51100000000E-03 0. -1.
    9900012    2    1    2    0    0  0.37345839887E+00 -0.10364597908E+01  0.42375985087E+00  0.90007621889E+02  0.89999881698E+02 0.  0.
         12    1    1    2    0    0 -0.37345839887E+00  0.10364597908E+01 -0.42375985087E+00  0.11803781109E+01  0.00000000000E+00 0. -1.
         11    1    3    3    0    0  0.34721520280E+02  0.16042286676E+02  0.18815954671E+01  0.38294638451E+02  0.51100000000E-03 0. -1.
        -11    1    3    3    0    0  0.33860920026E+01  0.66223273041E+00  0.82141034881E+01  0.89093023079E+01  0.51100000000E-03 0.  1.
        -12    1    3    3    0    0 -0.37734153884E+02 -0.17740979197E+02 -0.96719391043E+01  0.42803681130E+02  0.00000000000E+00 0.  1.
</event>
<event>
 7    1  0.2285268E-015  0.9000780E+02  0.7816164E-02  0.1186339E+00
        -11   -1    0    0    0    0  0.00000000000E+00  0.00000000000E+00  0.45593999997E+02  0.45594000000E+02  0.51100000000E-03 0. -1.
         11   -1    0    0    0    0 -0.00000000000E+00 -0.00000000000E+00 -0.45593999997E+02  0.45594000000E+02  0.51100000000E-03 0.  1.
    9900012    2    1    2    0    0 -0.88726499779E+00  0.78046458857E-01 -0.77429765297E+00  0.90007802016E+02  0.90000064203E+02 0.  0.
         12    1    1    2    0    0  0.88726499779E+00 -0.78046458857E-01  0.77429765297E+00  0.11801979840E+01  0.00000000000E+00 0. -1.
         11    1    3    3    0    0 -0.24330148787E+02  0.15776709324E+02  0.24900925875E+02  0.38221941432E+02  0.51100000000E-03 0. -1.
        -11    1    3    3    0    0 -0.56128689400E+01 -0.60858066027E+01  0.39662319356E+01  0.91799965017E+01  0.51100000000E-03 0.  1.
        -12    1    3    3    0    0  0.29055752729E+02 -0.96128562629E+01 -0.29641455464E+02  0.42605864082E+02  0.00000000000E+00 0.  1.
</event>
<event>
 7    1  0.2285268E-015  0.9000777E+02  0.7816164E-02  0.1186339E+00
        -11   -1    0    0    0    0  0.00000000000E+00  0.00000000000E+00  0.45593999997E+02  0.45594000000E+02  0.51100000000E-03 0.  1.
         11   -1    0    0    0    0 -0.00000000000E+00 -0.00000000000E+00 -0.45593999997E+02  0.45594000000E+02  0.51100000000E-03 0. -1.
    9900012    2    1    2    0    0  0.86073275785E+00  0.37026498051E+00  0.71761723124E+00  0.90007774798E+02  0.90000036626E+02 0.  0.
         12    1    1    2    0    0 -0.86073275785E+00 -0.37026498051E+00 -0.71761723124E+00  0.11802252017E+01  0.00000000000E+00 0. -1.
         11    1    3    3    0    0 -0.32926669446E+01  0.64748233083E+00  0.62785123156E+01  0.71190312638E+01  0.51100000000E-03 0. -1.
        -11    1    3    3    0    0 -0.10673185736E+02 -0.14252782714E+02  0.34004937181E+02  0.38384820721E+02  0.51100000000E-03 0.  1.
         12    1    3    3    0    0  0.14826585438E+02  0.13975565364E+02 -0.39565832265E+02  0.44503922814E+02  0.00000000000E+00 0. -1.
</event>
<event>
 7    1  0.2285268E-015  0.9000771E+02  0.7816164E-02  0.1186339E+00
        -11   -1    0    0    0    0  0.00000000000E+00  0.00000000000E+00  0.45593999997E+02  0.45594000000E+02  0.51100000000E-03 0. -1.
         11   -1    0    0    0    0 -0.00000000000E+00 -0.00000000000E+00 -0.45593999997E+02  0.45594000000E+02  0.51100000000E-03 0.  1.
    9900012    2    1    2    0    0  0.13915945708E+00 -0.11265670262E+01 -0.32336173446E+00  0.90007711294E+02  0.89999972283E+02 0.  0.
         12    1    1    2    0    0 -0.13915945708E+00  0.11265670262E+01  0.32336173446E+00  0.11802887063E+01  0.00000000000E+00 0. -1.
         11    1    3    3    0    0 -0.17298956854E+01 -0.77180208496E+00 -0.72830311815E+01  0.75253412542E+01  0.51100000000E-03 0. -1.
        -11    1    3    3    0    0 -0.11002039515E+02  0.24071896757E+02 -0.27605503526E+02  0.38243495031E+02  0.51100000000E-03 0.  1.
         12    1    3    3    0    0  0.12871094658E+02 -0.24426661698E+02  0.34565172973E+02  0.44238875009E+02  0.00000000000E+00 0. -1.
</event>
<event>
 7    1  0.2285268E-015  0.9000782E+02  0.7816164E-02  0.1186339E+00
        -11   -1    0    0    0    0  0.00000000000E+00  0.00000000000E+00  0.45593999997E+02  0.45594000000E+02  0.51100000000E-03 0. -1.
         11   -1    0    0    0    0 -0.00000000000E+00 -0.00000000000E+00 -0.45593999997E+02  0.45594000000E+02  0.51100000000E-03 0.  1.
    9900012    2    1    2    0    0  0.61204190123E+00 -0.96249603495E+00 -0.30303911999E+00  0.90007819245E+02  0.90000081659E+02 0.  0.
         12    1    1    2    0    0 -0.61204190123E+00  0.96249603495E+00  0.30303911999E+00  0.11801807550E+01  0.00000000000E+00 0. -1.
         11    1    3    3    0    0 -0.18435774192E+02  0.13975452819E+02  0.34149730333E+02  0.41247971267E+02  0.51100000000E-03 0. -1.
        -11    1    3    3    0    0 -0.59435096779E+01 -0.17277217433E+01 -0.71916038254E+01  0.94883874055E+01  0.51100000000E-03 0.  1.
        -12    1    3    3    0    0  0.24991325771E+02 -0.13210227111E+02 -0.27261165628E+02  0.39271460573E+02  0.00000000000E+00 0.  1.
</event>
<event>
 7    1  0.2285268E-015  0.9000778E+02  0.7816164E-02  0.1186339E+00
        -11   -1    0    0    0    0  0.00000000000E+00  0.00000000000E+00  0.45593999997E+02  0.45594000000E+02  0.51100000000E-03 0.  1.
         11   -1    0    0    0    0 -0.00000000000E+00 -0.00000000000E+00 -0.45593999997E+02  0.45594000000E+02  0.51100000000E-03 0. -1.
    9900012    2    1    2    0    0 -0.26876112500E+00  0.10910940898E+01 -0.36084626151E+00  0.90007775920E+02  0.90000037762E+02 0.  0.
         12    1    1    2    0    0  0.26876112500E+00 -0.10910940898E+01  0.36084626151E+00  0.11802240802E+01  0.00000000000E+00 0. -1.
         11    1    3    3    0    0 -0.12910680850E+01 -0.74362732367E+01 -0.51991267688E+01  0.91649296708E+01  0.51100000000E-03 0. -1.
        -11    1    3    3    0    0 -0.26458005624E+02  0.27623894663E+02 -0.15955058593E+02  0.41444776666E+02  0.51100000000E-03 0.  1.
         12    1    3    3    0    0  0.27480312584E+02 -0.19096527336E+02  0.20793339100E+02  0.39398069583E+02  0.00000000000E+00 0. -1.
</event>
<event>
 7    1  0.2285268E-015  0.9000773E+02  0.7816164E-02  0.1186339E+00
        -11   -1    0    0    0    0  0.00000000000E+00  0.00000000000E+00  0.45593999997E+02  0.45594000000E+02  0.51100000000E-03 0.  1.
         11   -1    0    0    0    0 -0.00000000000E+00 -0.00000000000E+00 -0.45593999997E+02  0.45594000000E+02  0.51100000000E-03 0. -1.
    9900012    2    1    2    0    0 -0.68651181273E+00 -0.33914512763E+00  0.89817174394E+00  0.90007732925E+02  0.89999994200E+02 0.  0.
         12    1    1    2    0    0  0.68651181273E+00  0.33914512763E+00 -0.89817174394E+00  0.11802670750E+01  0.00000000000E+00 0. -1.
         11    1    3    3    0    0  0.55727651596E+00 -0.17407198968E+02  0.32980852123E+02  0.37296886466E+02  0.51100000000E-03 0. -1.
        -11    1    3    3    0    0  0.76719418336E+01  0.39227417289E+01  0.66262318009E+01  0.10869845551E+02  0.51100000000E-03 0.  1.
        -12    1    3    3    0    0 -0.89157301623E+01  0.13145312111E+02 -0.38708912180E+02  0.41841000908E+02  0.00000000000E+00 0.  1.
</event>
<event>
 7    1  0.2285268E-015  0.9000782E+02  0.7816164E-02  0.1186339E+00
        -11   -1    0    0    0    0  0.00000000000E+00  0.00000000000E+00  0.45593999997E+02  0.45594000000E+02  0.51100000000E-03 0.  1.
         11   -1    0    0    0    0 -0.00000000000E+00 -0.00000000000E+00 -0.45593999997E+02  0.45594000000E+02  0.51100000000E-03 0. -1.
    9900012    2    1    2    0    0 -0.51249141787E+00  0.10225751247E+01  0.29070194810E+00  0.90007824182E+02  0.90000086661E+02 0.  0.
         12    1    1    2    0    0  0.51249141787E+00 -0.10225751247E+01 -0.29070194810E+00  0.11801758182E+01  0.00000000000E+00 0. -1.
         11    1    3    3    0    0  0.31684899328E+02  0.19181018256E+01  0.71898423646E+01  0.32546978255E+02  0.51100000000E-03 0. -1.
        -11    1    3    3    0    0  0.82475765784E+01 -0.35051337917E+00 -0.14136066405E+02  0.16369903870E+02  0.51100000000E-03 0.  1.
        -12    1    3    3    0    0 -0.40444967324E+02 -0.54501332170E+00  0.72369259887E+01  0.41090942057E+02  0.00000000000E+00 0.  1.
</event>
<event>
 7    1  0.2285268E-015  0.9000766E+02  0.7816164E-02  0.1186339E+00
        -11   -1    0    0    0    0  0.00000000000E+00  0.00000000000E+00  0.45593999997E+02  0.45594000000E+02  0.51100000000E-03 0. -1.
         11   -1    0    0    0    0 -0.00000000000E+00 -0.00000000000E+00 -0.45593999997E+02  0.45594000000E+02  0.51100000000E-03 0.  1.
    9900012    2    1    2    0    0  0.24896652571E+00  0.11533072511E+01  0.33054706633E-01  0.90007663370E+02  0.89999923727E+02 0.  0.
         12    1    1    2    0    0 -0.24896652571E+00 -0.11533072511E+01 -0.33054706633E-01  0.11803366299E+01  0.00000000000E+00 0. -1.
         11    1    3    3    0    0 -0.15798249557E+01  0.18037300348E+01  0.87281670757E+01  0.90515296879E+01  0.51100000000E-03 0. -1.
        -11    1    3    3    0    0 -0.95826174112E+01 -0.13765256966E+02  0.32317833176E+02  0.36410866472E+02  0.51100000000E-03 0.  1.
         12    1    3    3    0    0  0.11411408893E+02  0.13114834182E+02 -0.41012945545E+02  0.44545267210E+02  0.00000000000E+00 0. -1.
</event>
<event>
 7    1  0.2285268E-015  0.9000760E+02  0.7816164E-02  0.1186339E+00
        -11   -1    0    0    0    0  0.00000000000E+00  0.00000000000E+00  0.45593999997E+02  0.45594000000E+02  0.51100000000E-03 0.  1.
         11   -1    0    0    0    0 -0.00000000000E+00 -0.00000000000E+00 -0.45593999997E+02  0.45594000000E+02  0.51100000000E-03 0. -1.
    9900012    2    1    2    0    0 -0.50301113891E+00  0.90304306062E-01  0.10640364375E+01  0.90007598113E+02  0.89999857608E+02 0.  0.
         12    1    1    2    0    0  0.50301113891E+00 -0.90304306062E-01 -0.10640364375E+01  0.11804018866E+01  0.00000000000E+00 0. -1.
         11    1    3    3    0    0  0.21399957548E+02 -0.77108841314E+00 -0.36953906396E+01  0.21730362921E+02  0.51100000000E-03 0. -1.
        -11    1    3    3    0    0  0.12855624230E+02 -0.22572139392E+02  0.44582356456E+01  0.26356107762E+02  0.51100000000E-03 0.  1.
        -12    1    3    3    0    0 -0.34758592917E+02  0.23433532111E+02  0.30119143155E+00  0.41921127431E+02  0.00000000000E+00 0.  1.
</event>
<event>
 7    1  0.2285268E-015  0.9000775E+02  0.7816164E-02  0.1186339E+00
        -11   -1    0    0    0    0  0.00000000000E+00  0.00000000000E+00  0.45593999997E+02  0.45594000000E+02  0.51100000000E-03 0.  1.
         11   -1    0    0    0    0 -0.00000000000E+00 -0.00000000000E+00 -0.45593999997E+02  0.45594000000E+02  0.51100000000E-03 0. -1.
    9900012    2    1    2    0    0 -0.70263937939E+00  0.88380182758E+00  0.34377991811E+00  0.90007749010E+02  0.90000010497E+02 0.  0.
         12    1    1    2    0    0  0.70263937939E+00 -0.88380182758E+00 -0.34377991811E+00  0.11802509903E+01  0.00000000000E+00 0. -1.
         11    1    3    3    0    0  0.35335535066E+02  0.56510944419E+01  0.21807553469E+02  0.41905898097E+02  0.51100000000E-03 0. -1.
        -11    1    3    3    0    0 -0.72794702360E+01 -0.11160167195E+02 -0.42750296788E+01  0.13993423375E+02  0.51100000000E-03 0.  1.
        -12    1    3    3    0    0 -0.28758704209E+02  0.63928745804E+01 -0.17188743872E+02  0.34108427538E+02  0.00000000000E+00 0.  1.
</event>
<event>
 7    1  0.2285268E-015  0.9000788E+02  0.7816164E-02  0.1186339E+00
        -11   -1    0    0    0    0  0.00000000000E+00  0.00000000000E+00  0.45593999997E+02  0.45594000000E+02  0.51100000000E-03 0.  1.
         11   -1    0    0    0    0 -0.00000000000E+00 -0.00000000000E+00 -0.45593999997E+02  0.45594000000E+02  0.51100000000E-03 0. -1.
    9900012    2    1    2    0    0  0.10647581424E+01  0.26161007071E+00  0.43648794903E+00  0.90007884980E+02  0.90000148262E+02 0.  0.
         12    1    1    2    0    0 -0.10647581424E+01 -0.26161007071E+00 -0.43648794903E+00  0.11801150200E+01  0.00000000000E+00 0. -1.
         11    1    3    3    0    0  0.79527567037E+01 -0.22663967498E+02 -0.37253611918E+02  0.44325312894E+02  0.51100000000E-03 0. -1.
        -11    1    3    3    0    0 -0.17621356864E+01  0.76320404411E+00  0.82918823424E+01  0.85113404134E+01  0.51100000000E-03 0.  1.
        -12    1    3    3    0    0 -0.51258628750E+01  0.22162373524E+02  0.29398217525E+02  0.37171231673E+02  0.00000000000E+00 0.  1.
</event>
<event>
 7    1  0.2285268E-015  0.9000906E+02  0.7816164E-02  0.1186336E+00
        -11   -1    0    0    0    0  0.00000000000E+00  0.00000000000E+00  0.45593999997E+02  0.45594000000E+02  0.51100000000E-03 0.  1.
         11   -1    0    0    0    0 -0.00000000000E+00 -0.00000000000E+00 -0.45593999997E+02  0.45594000000E+02  0.51100000000E-03 0. -1.
    9900012    2    1    2    0    0 -0.55809088770E+00  0.98030424530E+00 -0.34268936553E+00  0.90009060708E+02  0.90001339500E+02 0.  0.
         12    1    1    2    0    0  0.55809088770E+00 -0.98030424530E+00  0.34268936553E+00  0.11789392917E+01  0.00000000000E+00 0. -1.
         11    1    3    3    0    0  0.34950878969E+01 -0.24545584181E+02 -0.34512199562E+02  0.42494626261E+02  0.51100000000E-03 0. -1.
        -11    1    3    3    0    0  0.57952605985E+01  0.28980749264E+01  0.16408856446E+01  0.66840399194E+01  0.51100000000E-03 0.  1.
        -12    1    3    3    0    0 -0.98484393832E+01  0.22627813500E+02  0.32528624552E+02  0.40830394528E+02  0.00000000000E+00 0.  1.
</event>
<event>
 7    1  0.2285268E-015  0.9000771E+02  0.7816164E-02  0.1186339E+00
        -11   -1    0    0    0    0  0.00000000000E+00  0.00000000000E+00  0.45593999997E+02  0.45594000000E+02  0.51100000000E-03 0.  1.
         11   -1    0    0    0    0 -0.00000000000E+00 -0.00000000000E+00 -0.45593999997E+02  0.45594000000E+02  0.51100000000E-03 0. -1.
    9900012    2    1    2    0    0 -0.83849560680E+00  0.31350320795E+00  0.76923342150E+00  0.90007712238E+02  0.89999973240E+02 0.  0.
         12    1    1    2    0    0  0.83849560680E+00 -0.31350320795E+00 -0.76923342150E+00  0.11802877618E+01  0.00000000000E+00 0. -1.
         11    1    3    3    0    0  0.30596855469E+02  0.12798469782E+02 -0.14966031345E+02  0.36386130432E+02  0.51100000000E-03 0. -1.
        -11    1    3    3    0    0  0.63994407635E+01 -0.44728785430E+01 -0.54534753272E+01  0.95236483530E+01  0.51100000000E-03 0.  1.
        -12    1    3    3    0    0 -0.37834791839E+02 -0.80120880307E+01  0.21188740093E+02  0.44097933453E+02  0.00000000000E+00 0.  1.
</event>
<event>
 7    1  0.2285268E-015  0.9000773E+02  0.7816164E-02  0.1186339E+00
        -11   -1    0    0    0    0  0.00000000000E+00  0.00000000000E+00  0.45593999997E+02  0.45594000000E+02  0.51100000000E-03 0.  1.
         11   -1    0    0    0    0 -0.00000000000E+00 -0.00000000000E+00 -0.45593999997E+02  0.45594000000E+02  0.51100000000E-03 0. -1.
    9900012    2    1    2    0    0 -0.11626082442E+01 -0.10493880803E+00 -0.17428788589E+00  0.90007726155E+02  0.89999987340E+02 0.  0.
         12    1    1    2    0    0  0.11626082442E+01  0.10493880803E+00  0.17428788589E+00  0.11802738454E+01  0.00000000000E+00 0. -1.
         11    1    3    3    0    0 -0.32900042867E+02  0.13986670863E+02 -0.15079123344E+02  0.38799738962E+02  0.51100000000E-03 0. -1.
        -11    1    3    3    0    0 -0.22437717350E+00 -0.14380350227E+01 -0.91416469452E+01  0.92567812427E+01  0.51100000000E-03 0.  1.
        -12    1    3    3    0    0  0.31961811796E+02 -0.12653574649E+02  0.24046482403E+02  0.41951205950E+02  0.00000000000E+00 0.  1.
</event>
<event>
 7    1  0.2285268E-015  0.9000771E+02  0.7816164E-02  0.1186339E+00
        -11   -1    0    0    0    0  0.00000000000E+00  0.00000000000E+00  0.45593999997E+02  0.45594000000E+02  0.51100000000E-03 0. -1.
         11   -1    0    0    0    0 -0.00000000000E+00 -0.00000000000E+00 -0.45593999997E+02  0.45594000000E+02  0.51100000000E-03 0.  1.
    9900012    2    1    2    0    0 -0.91809895964E+00  0.43491736033E+00 -0.60085627076E+00  0.90007708905E+02  0.89999969863E+02 0.  0.
         12    1    1    2    0    0  0.91809895964E+00 -0.43491736033E+00  0.60085627076E+00  0.11802910947E+01  0.00000000000E+00 0. -1.
         11    1    3    3    0    0 -0.66320215383E+01 -0.26100699396E+01 -0.17656881975E+01  0.73426037512E+01  0.51100000000E-03 0. -1.
        -11    1    3    3    0    0 -0.35287281105E+02 -0.56743157333E+01 -0.13573866582E+02  0.38231399675E+02  0.51100000000E-03 0.  1.
         12    1    3    3    0    0  0.41001203684E+02  0.87193030332E+01  0.14738698509E+02  0.44433705480E+02  0.00000000000E+00 0. -1.
</event>
<event>
 7    1  0.2285268E-015  0.9000772E+02  0.7816164E-02  0.1186339E+00
        -11   -1    0    0    0    0  0.00000000000E+00  0.00000000000E+00  0.45593999997E+02  0.45594000000E+02  0.51100000000E-03 0.  1.
         11   -1    0    0    0    0 -0.00000000000E+00 -0.00000000000E+00 -0.45593999997E+02  0.45594000000E+02  0.51100000000E-03 0. -1.
    9900012    2    1    2    0    0 -0.45492480679E+00  0.10890492262E+01 -0.87348286114E-02  0.90007719909E+02  0.89999981011E+02 0.  0.
         12    1    1    2    0    0  0.45492480679E+00 -0.10890492262E+01  0.87348286114E-02  0.11802800914E+01  0.00000000000E+00 0. -1.
         11    1    3    3    0    0  0.56413984989E+00  0.17607346816E+02 -0.51072390715E+00  0.17623783784E+02  0.51100000000E-03 0. -1.
        -11    1    3    3    0    0  0.22063702950E+02  0.58796695137E+01  0.23559958602E+02  0.32809284525E+02  0.51100000000E-03 0.  1.
         12    1    3    3    0    0 -0.23082767606E+02 -0.22397967104E+02 -0.23057969523E+02  0.39574651600E+02  0.00000000000E+00 0. -1.
</event>
<event>
 7    1  0.2285268E-015  0.9000749E+02  0.7816164E-02  0.1186340E+00
        -11   -1    0    0    0    0  0.00000000000E+00  0.00000000000E+00  0.45593999997E+02  0.45594000000E+02  0.51100000000E-03 0.  1.
         11   -1    0    0    0    0 -0.00000000000E+00 -0.00000000000E+00 -0.45593999997E+02  0.45594000000E+02  0.51100000000E-03 0. -1.
    9900012    2    1    2    0    0 -0.11073772782E+01 -0.40648140158E+00  0.45639760065E-01  0.90007493942E+02  0.89999752061E+02 0.  0.
         12    1    1    2    0    0  0.11073772782E+01  0.40648140158E+00 -0.45639760065E-01  0.11805060584E+01  0.00000000000E+00 0. -1.
         11    1    3    3    0    0  0.32981125033E+02  0.11301063211E+01 -0.17788637435E+02  0.37489563491E+02  0.51100000000E-03 0. -1.
        -11    1    3    3    0    0  0.14817452317E+00 -0.10863860572E+02 -0.31255723004E+01  0.11305513022E+02  0.51100000000E-03 0.  1.
        -12    1    3    3    0    0 -0.34236676834E+02  0.93272728493E+01  0.20959849495E+02  0.41212417429E+02  0.00000000000E+00 0.  1.
</event>
<event>
 7    1  0.2285268E-015  0.9000779E+02  0.7816164E-02  0.1186339E+00
        -11   -1    0    0    0    0  0.00000000000E+00  0.00000000000E+00  0.45593999997E+02  0.45594000000E+02  0.51100000000E-03 0.  1.
         11   -1    0    0    0    0 -0.00000000000E+00 -0.00000000000E+00 -0.45593999997E+02  0.45594000000E+02  0.51100000000E-03 0. -1.
    9900012    2    1    2    0    0  0.80399340028E+00  0.86139550542E+00 -0.67070422912E-01  0.90007785593E+02  0.90000047563E+02 0.  0.
         12    1    1    2    0    0 -0.80399340028E+00 -0.86139550542E+00  0.67070422912E-01  0.11802144068E+01  0.00000000000E+00 0. -1.
         11    1    3    3    0    0 -0.85048295363E+01 -0.10582743439E+02 -0.84823321548E+00  0.13603164484E+02  0.51100000000E-03 0. -1.
        -11    1    3    3    0    0  0.14032501438E+02 -0.26949661168E+02  0.16586988796E+02  0.34616809952E+02  0.51100000000E-03 0.  1.
         12    1    3    3    0    0 -0.47236785011E+01  0.38393800112E+02 -0.15805826004E+02  0.41787811157E+02  0.00000000000E+00 0. -1.
</event>
<event>
 7    1  0.2285268E-015  0.9000854E+02  0.7816164E-02  0.1186337E+00
        -11   -1    0    0    0    0  0.00000000000E+00  0.00000000000E+00  0.45593999997E+02  0.45594000000E+02  0.51100000000E-03 0. -1.
         11   -1    0    0    0    0 -0.00000000000E+00 -0.00000000000E+00 -0.45593999997E+02  0.45594000000E+02  0.51100000000E-03 0.  1.
    9900012    2    1    2    0    0  0.31644745620E+00 -0.96255464103E+00  0.60371047842E+00  0.90008543866E+02  0.90000815842E+02 0.  0.
         12    1    1    2    0    0 -0.31644745620E+00  0.96255464103E+00 -0.60371047842E+00  0.11794561337E+01  0.00000000000E+00 0. -1.
         11    1    3    3    0    0  0.75049155771E+01 -0.50809764434E+01 -0.11040614360E+00  0.90637888996E+01  0.51100000000E-03 0. -1.
        -11    1    3    3    0    0  0.39770243267E+01 -0.28775169812E+02 -0.24516599137E+02  0.38011718636E+02  0.51100000000E-03 0.  1.
         12    1    3    3    0    0 -0.11165492448E+02  0.32893591614E+02  0.25230715759E+02  0.42933036331E+02  0.00000000000E+00 0. -1.
</event>
<event>
 7    1  0.2285268E-015  0.9000778E+02  0.7816164E-02  0.1186339E+00
        -11   -1    0    0    0    0  0.00000000000E+00  0.00000000000E+00  0.45593999997E+02  0.45594000000E+02  0.51100000000E-03 0. -1.
         11   -1    0    0    0    0 -0.00000000000E+00 -0.00000000000E+00 -0.45593999997E+02  0.45594000000E+02  0.51100000000E-03 0.  1.
    9900012    2    1    2    0    0  0.35754080209E+00 -0.10937820135E+01 -0.26215065017E+00  0.90007780749E+02  0.90000042654E+02 0.  0.
         12    1    1    2    0    0 -0.35754080209E+00  0.10937820135E+01  0.26215065017E+00  0.11802192515E+01  0.00000000000E+00 0. -1.
         11    1    3    3    0    0  0.39802921521E+01 -0.35327044026E+01 -0.64682682076E+01  0.83762294548E+01  0.51100000000E-03 0. -1.
        -11    1    3    3    0    0  0.87727335985E+01 -0.34490419387E+02  0.19363492572E+02  0.40515364112E+02  0.51100000000E-03 0.  1.
         12    1    3    3    0    0 -0.12395484949E+02  0.36929341776E+02 -0.13157375014E+02  0.41116187182E+02  0.00000000000E+00 0. -1.
</event>
<event>
 7    1  0.2285268E-015  0.9000757E+02  0.7816164E-02  0.1186339E+00
        -11   -1    0    0    0    0  0.00000000000E+00  0.00000000000E+00  0.45593999997E+02  0.45594000000E+02  0.51100000000E-03 0. -1.
         11   -1    0    0    0    0 -0.00000000000E+00 -0.00000000000E+00 -0.45593999997E+02  0.45594000000E+02  0.51100000000E-03 0.  1.
    9900012    2    1    2    0    0  0.53134296264E+00  0.42082387825E+00 -0.96643194419E+00  0.90007572627E+02  0.89999831785E+02 0.  0.
         12    1    1    2    0    0 -0.53134296264E+00 -0.42082387825E+00  0.96643194419E+00  0.11804273731E+01  0.00000000000E+00 0. -1.
         11    1    3    3    0    0 -0.26391111351E+02 -0.23859534798E+02  0.20001002576E+02  0.40814314442E+02  0.51100000000E-03 0. -1.
        -11    1    3    3    0    0  0.78982805884E+01 -0.38418973727E+01  0.86717214296E+00  0.88258143795E+01  0.51100000000E-03 0.  1.
        -12    1    3    3    0    0  0.19024173725E+02  0.28122256049E+02 -0.21834606663E+02  0.40367443805E+02  0.00000000000E+00 0.  1.
</event>
<event>
 7    1  0.2285268E-015  0.9000773E+02  0.7816164E-02  0.1186339E+00
        -11   -1    0    0    0    0  0.00000000000E+00  0.00000000000E+00  0.45593999997E+02  0.45594000000E+02  0.51100000000E-03 0. -1.
         11   -1    0    0    0    0 -0.00000000000E+00 -0.00000000000E+00 -0.45593999997E+02  0.45594000000E+02  0.51100000000E-03 0.  1.
    9900012    2    1    2    0    0  0.69595578238E+00 -0.11536616327E+00 -0.94623814991E+00  0.90007732895E+02  0.89999994169E+02 0.  0.
         12    1    1    2    0    0 -0.69595578238E+00  0.11536616327E+00  0.94623814991E+00  0.11802671049E+01  0.00000000000E+00 0. -1.
         11    1    3    3    0    0  0.12787635044E+01 -0.82871473342E+01 -0.19424442977E+01  0.86072723408E+01  0.51100000000E-03 0. -1.
        -11    1    3    3    0    0  0.39940361542E+02  0.65554400920E+01  0.43435738555E+01  0.40707160414E+02  0.51100000000E-03 0.  1.
         12    1    3    3    0    0 -0.40523169264E+02  0.16163410789E+01 -0.33473677077E+01  0.40693300140E+02  0.00000000000E+00 0. -1.
</event>
<event>
 7    1  0.2285268E-015  0.9000823E+02  0.7816164E-02  0.1186338E+00
        -11   -1    0    0    0    0  0.00000000000E+00  0.00000000000E+00  0.45593999997E+02  0.45594000000E+02  0.51100000000E-03 0. -1.
         11   -1    0    0    0    0 -0.00000000000E+00 -0.00000000000E+00 -0.45593999997E+02  0.45594000000E+02  0.51100000000E-03 0.  1.
    9900012    2    1    2    0    0  0.82392599227E+00  0.37563454488E-01 -0.84355564096E+00  0.90008232577E+02  0.90000500445E+02 0.  0.
         12    1    1    2    0    0 -0.82392599227E+00 -0.37563454488E-01  0.84355564096E+00  0.11797674234E+01  0.00000000000E+00 0. -1.
         11    1    3    3    0    0  0.38041042761E+02 -0.23403523968E+01 -0.23048662312E+01  0.38182595411E+02  0.51100000000E-03 0. -1.
        -11    1    3    3    0    0  0.30760328447E+01  0.77941035630E+01 -0.62396523566E+01  0.10447166611E+02  0.51100000000E-03 0.  1.
        -12    1    3    3    0    0 -0.40293149614E+02 -0.54161877117E+01  0.77009629468E+01  0.41378470554E+02  0.00000000000E+00 0.  1.
</event>
<event>
 7    1  0.2285268E-015  0.9000765E+02  0.7816164E-02  0.1186339E+00
        -11   -1    0    0    0    0  0.00000000000E+00  0.00000000000E+00  0.45593999997E+02  0.45594000000E+02  0.51100000000E-03 0. -1.
         11   -1    0    0    0    0 -0.00000000000E+00 -0.00000000000E+00 -0.45593999997E+02  0.45594000000E+02  0.51100000000E-03 0.  1.
    9900012    2    1    2    0    0  0.64829007269E+00  0.95918297807E+00 -0.23003009723E+00  0.90007650116E+02  0.89999910297E+02 0.  0.
         12    1    1    2    0    0 -0.64829007269E+00 -0.95918297807E+00  0.23003009723E+00  0.11803498843E+01  0.00000000000E+00 0. -1.
         11    1    3    3    0    0 -0.53973753315E+00  0.10658474229E+01 -0.92187633760E+01  0.92958563767E+01  0.51100000000E-03 0. -1.
        -11    1    3    3    0    0  0.27523457819E+02  0.23661077400E+02 -0.13482142157E+02  0.38718929110E+02  0.51100000000E-03 0.  1.
         12    1    3    3    0    0 -0.26335430213E+02 -0.23767741844E+02  0.22470875436E+02  0.41992864629E+02  0.00000000000E+00 0. -1.
</event>
<event>
 7    1  0.2285268E-015  0.9000778E+02  0.7816164E-02  0.1186339E+00
        -11   -1    0    0    0    0  0.00000000000E+00  0.00000000000E+00  0.45593999997E+02  0.45594000000E+02  0.51100000000E-03 0.  1.
         11   -1    0    0    0    0 -0.00000000000E+00 -0.00000000000E+00 -0.45593999997E+02  0.45594000000E+02  0.51100000000E-03 0. -1.
    9900012    2    1    2    0    0 -0.61757690689E+00 -0.40003107100E+00  0.92276892110E+00  0.90007776049E+02  0.90000037892E+02 0.  0.
         12    1    1    2    0    0  0.61757690689E+00  0.40003107100E+00 -0.92276892110E+00  0.11802239514E+01  0.00000000000E+00 0. -1.
         11    1    3    3    0    0 -0.25049536492E+02  0.17078493497E+02  0.31498915887E+02  0.43718827991E+02  0.51100000000E-03 0. -1.
        -11    1    3    3    0    0  0.35228110086E+01  0.36128228653E+01 -0.47900427914E+01  0.69575280569E+01  0.51100000000E-03 0.  1.
        -12    1    3    3    0    0  0.20909148577E+02 -0.21091347433E+02 -0.25786104175E+02  0.39331420001E+02  0.00000000000E+00 0.  1.
</event>
<event>
 7    1  0.2285268E-015  0.9000774E+02  0.7816164E-02  0.1186339E+00
        -11   -1    0    0    0    0  0.00000000000E+00  0.00000000000E+00  0.45593999997E+02  0.45594000000E+02  0.51100000000E-03 0.  1.
         11   -1    0    0    0    0 -0.00000000000E+00 -0.00000000000E+00 -0.45593999997E+02  0.45594000000E+02  0.51100000000E-03 0. -1.
    9900012    2    1    2    0    0  0.73769634445E+00  0.74474909267E+00 -0.54238190241E+00  0.90007735099E+02  0.89999996403E+02 0.  0.
         12    1    1    2    0    0 -0.73769634445E+00 -0.74474909267E+00  0.54238190241E+00  0.11802649007E+01  0.00000000000E+00 0. -1.
         11    1    3    3    0    0 -0.40972987341E+02  0.29815468239E+01 -0.13163345557E+01  0.41102409297E+02  0.51100000000E-03 0. -1.
        -11    1    3    3    0    0  0.35035770078E+01 -0.64439600277E+01 -0.64818332688E+01  0.97884541923E+01  0.51100000000E-03 0.  1.
        -12    1    3    3    0    0  0.38207106677E+02  0.42071622964E+01  0.72557859221E+01  0.39116871610E+02  0.00000000000E+00 0.  1.
</event>
<event>
 7    1  0.2285268E-015  0.9000772E+02  0.7816164E-02  0.1186339E+00
        -11   -1    0    0    0    0  0.00000000000E+00  0.00000000000E+00  0.45593999997E+02  0.45594000000E+02  0.51100000000E-03 0. -1.
         11   -1    0    0    0    0 -0.00000000000E+00 -0.00000000000E+00 -0.45593999997E+02  0.45594000000E+02  0.51100000000E-03 0.  1.
    9900012    2    1    2    0    0  0.82157154508E+00 -0.76297215991E+00 -0.36871643169E+00  0.90007721165E+02  0.89999982285E+02 0.  0.
         12    1    1    2    0    0 -0.82157154508E+00  0.76297215991E+00  0.36871643169E+00  0.11802788346E+01  0.00000000000E+00 0. -1.
         11    1    3    3    0    0 -0.32510976991E+02 -0.16872015017E+00 -0.10301523694E+02  0.34104449593E+02  0.51100000000E-03 0. -1.
        -11    1    3    3    0    0 -0.10595440786E+01 -0.35228990944E+01 -0.13625559268E+02  0.14113444559E+02  0.51100000000E-03 0.  1.
        -12    1    3    3    0    0  0.34392092614E+02  0.29286470847E+01  0.23558366531E+02  0.41789827013E+02  0.00000000000E+00 0.  1.
</event>
<event>
 7    1  0.2285268E-015  0.9000776E+02  0.7816164E-02  0.1186339E+00
        -11   -1    0    0    0    0  0.00000000000E+00  0.00000000000E+00  0.45593999997E+02  0.45594000000E+02  0.51100000000E-03 0. -1.
         11   -1    0    0    0    0 -0.00000000000E+00 -0.00000000000E+00 -0.45593999997E+02  0.45594000000E+02  0.51100000000E-03 0.  1.
    9900012    2    1    2    0    0  0.46390913659E+00  0.68183708455E+00 -0.84429969476E+00  0.90007764654E+02  0.90000026348E+02 0.  0.
         12    1    1    2    0    0 -0.46390913659E+00 -0.68183708455E+00  0.84429969476E+00  0.11802353458E+01  0.00000000000E+00 0. -1.
         11    1    3    3    0    0  0.48454915042E+01 -0.76563194244E+01  0.46204493356E+01  0.10170868565E+02  0.51100000000E-03 0. -1.
        -11    1    3    3    0    0 -0.44166181498E+01 -0.16633881126E+02 -0.36290968128E+02  0.40164995769E+02  0.51100000000E-03 0.  1.
         12    1    3    3    0    0  0.35035782130E-01  0.24972037635E+02  0.30826219097E+02  0.39671900320E+02  0.00000000000E+00 0. -1.
</event>
<event>
 7    1  0.2285268E-015  0.9000761E+02  0.7816164E-02  0.1186339E+00
        -11   -1    0    0    0    0  0.00000000000E+00  0.00000000000E+00  0.45593999997E+02  0.45594000000E+02  0.51100000000E-03 0.  1.
         11   -1    0    0    0    0 -0.00000000000E+00 -0.00000000000E+00 -0.45593999997E+02  0.45594000000E+02  0.51100000000E-03 0. -1.
    9900012    2    1    2    0    0 -0.11535408987E+00 -0.36906916172E+00  0.11152614489E+01  0.90007607391E+02  0.89999867008E+02 0.  0.
         12    1    1    2    0    0  0.11535408987E+00  0.36906916172E+00 -0.11152614489E+01  0.11803926091E+01  0.00000000000E+00 0. -1.
         11    1    3    3    0    0 -0.99012482603E+01  0.41321636571E+01 -0.13536236911E+01  0.10813962778E+02  0.51100000000E-03 0. -1.
        -11    1    3    3    0    0 -0.31351290841E+02  0.10077137051E+02 -0.88623620819E+01  0.34102691836E+02  0.51100000000E-03 0.  1.
         12    1    3    3    0    0  0.41137185012E+02 -0.14578369869E+02  0.11331247222E+02  0.45090952777E+02  0.00000000000E+00 0. -1.
</event>
<event>
 7    1  0.2285268E-015  0.9000753E+02  0.7816164E-02  0.1186339E+00
        -11   -1    0    0    0    0  0.00000000000E+00  0.00000000000E+00  0.45593999997E+02  0.45594000000E+02  0.51100000000E-03 0.  1.
         11   -1    0    0    0    0 -0.00000000000E+00 -0.00000000000E+00 -0.45593999997E+02  0.45594000000E+02  0.51100000000E-03 0. -1.
    9900012    2    1    2    0    0 -0.43227241952E+00 -0.70972108591E+00  0.83841260469E+00  0.90007534346E+02  0.89999792999E+02 0.  0.
         12    1    1    2    0    0  0.43227241952E+00  0.70972108591E+00 -0.83841260469E+00  0.11804656540E+01  0.00000000000E+00 0. -1.
         11    1    3    3    0    0  0.11960045649E+02  0.29751690857E+02 -0.29776774728E+02  0.43759137494E+02  0.51100000000E-03 0. -1.
        -11    1    3    3    0    0 -0.12356915235E+00 -0.76757507750E+01  0.25888383666E+01  0.81015124295E+01  0.51100000000E-03 0.  1.
        -12    1    3    3    0    0 -0.12268748916E+02 -0.22785661168E+02  0.28026348966E+02  0.38146884423E+02  0.00000000000E+00 0.  1.
</event>
<event>
 7    1  0.2285268E-015  0.9000776E+02  0.7816164E-02  0.1186339E+00
        -11   -1    0    0    0    0  0.00000000000E+00  0.00000000000E+00  0.45593999997E+02  0.45594000000E+02  0.51100000000E-03 0. -1.
         11   -1    0    0    0    0 -0.00000000000E+00 -0.00000000000E+00 -0.45593999997E+02  0.45594000000E+02  0.51100000000E-03 0.  1.
    9900012    2    1    2    0    0  0.20438173108E+00  0.10841838874E+01 -0.41921637806E+00  0.90007758938E+02  0.90000020556E+02 0.  0.
         12    1    1    2    0    0 -0.20438173108E+00 -0.10841838874E+01  0.41921637806E+00  0.11802410624E+01  0.00000000000E+00 0. -1.
         11    1    3    3    0    0  0.37640838497E+01  0.10171581758E+02  0.35705302389E+02  0.37316189806E+02  0.51100000000E-03 0. -1.
        -11    1    3    3    0    0  0.11543722268E+02 -0.64030450759E+01  0.26242216361E+00  0.13203233532E+02  0.51100000000E-03 0.  1.
        -12    1    3    3    0    0 -0.15103424387E+02 -0.26843527947E+01 -0.36386940931E+02  0.39488335600E+02  0.00000000000E+00 0.  1.
</event>
<event>
 7    1  0.2285268E-015  0.9000738E+02  0.7816164E-02  0.1186340E+00
        -11   -1    0    0    0    0  0.00000000000E+00  0.00000000000E+00  0.45593999997E+02  0.45594000000E+02  0.51100000000E-03 0.  1.
         11   -1    0    0    0    0 -0.00000000000E+00 -0.00000000000E+00 -0.45593999997E+02  0.45594000000E+02  0.51100000000E-03 0. -1.
    9900012    2    1    2    0    0  0.46731910192E+00  0.10604347044E+01  0.22571178242E+00  0.90007383757E+02  0.89999640421E+02 0.  0.
         12    1    1    2    0    0 -0.46731910192E+00 -0.10604347044E+01 -0.22571178242E+00  0.11806162434E+01  0.00000000000E+00 0. -1.
         11    1    3    3    0    0  0.54796097734E+01  0.59605130003E+01  0.12796084607E+01  0.81970260808E+01  0.51100000000E-03 0. -1.
        -11    1    3    3    0    0 -0.36935306308E+01  0.29847649169E+02  0.24390641791E+02  0.38722444870E+02  0.51100000000E-03 0.  1.
         12    1    3    3    0    0 -0.13187600407E+01 -0.34747727465E+02 -0.25444538470E+02  0.43087912806E+02  0.00000000000E+00 0. -1.
</event>
<event>
 7    1  0.2285268E-015  0.9000774E+02  0.7816164E-02  0.1186339E+00
        -11   -1    0    0    0    0  0.00000000000E+00  0.00000000000E+00  0.45593999997E+02  0.45594000000E+02  0.51100000000E-03 0. -1.
         11   -1    0    0    0    0 -0.00000000000E+00 -0.00000000000E+00 -0.45593999997E+02  0.45594000000E+02  0.51100000000E-03 0.  1.
    9900012    2    1    2    0    0 -0.10803198732E+01 -0.46512961507E+00 -0.97891035718E-01  0.90007737638E+02  0.89999998975E+02 0.  0.
         12    1    1    2    0    0  0.10803198732E+01  0.46512961507E+00  0.97891035718E-01  0.11802623616E+01  0.00000000000E+00 0. -1.
         11    1    3    3    0    0  0.76427515003E+01  0.39662290824E+01  0.12494945801E+01  0.87007965496E+01  0.51100000000E-03 0. -1.
        -11    1    3    3    0    0 -0.14008526892E+02  0.19013856847E+02 -0.33609091384E+02  0.41077202946E+02  0.51100000000E-03 0.  1.
         12    1    3    3    0    0  0.52854555182E+01 -0.23445215545E+02  0.32261705769E+02  0.40229738143E+02  0.00000000000E+00 0. -1.
</event>
<event>
 7    1  0.2285268E-015  0.9000764E+02  0.7816164E-02  0.1186339E+00
        -11   -1    0    0    0    0  0.00000000000E+00  0.00000000000E+00  0.45593999997E+02  0.45594000000E+02  0.51100000000E-03 0. -1.
         11   -1    0    0    0    0 -0.00000000000E+00 -0.00000000000E+00 -0.45593999997E+02  0.45594000000E+02  0.51100000000E-03 0.  1.
    9900012    2    1    2    0    0  0.10052009996E+01 -0.57888842164E+00  0.21843782352E+00  0.90007637371E+02  0.89999897384E+02 0.  0.
         12    1    1    2    0    0 -0.10052009996E+01  0.57888842164E+00 -0.21843782352E+00  0.11803626295E+01  0.00000000000E+00 0. -1.
         11    1    3    3    0    0  0.79901568069E+01  0.37668948668E+01 -0.51193952999E+00  0.88484001424E+01  0.51100000000E-03 0. -1.
        -11    1    3    3    0    0 -0.32746461757E+02  0.25663851850E+02  0.20544950336E+00  0.41605363345E+02  0.51100000000E-03 0.  1.
         12    1    3    3    0    0  0.25761505949E+02 -0.30009635138E+02  0.52492785015E+00  0.39553873883E+02  0.00000000000E+00 0. -1.
</event>
<event>
 7    1  0.2285268E-015  0.9000772E+02  0.7816164E-02  0.1186339E+00
        -11   -1    0    0    0    0  0.00000000000E+00  0.00000000000E+00  0.45593999997E+02  0.45594000000E+02  0.51100000000E-03 0. -1.
         11   -1    0    0    0    0 -0.00000000000E+00 -0.00000000000E+00 -0.45593999997E+02  0.45594000000E+02  0.51100000000E-03 0.  1.
    9900012    2    1    2    0    0  0.64387302414E+00  0.17672819127E+00 -0.97327542448E+00  0.90007715976E+02  0.89999977027E+02 0.  0.
         12    1    1    2    0    0 -0.64387302414E+00 -0.17672819127E+00  0.97327542448E+00  0.11802840237E+01  0.00000000000E+00 0. -1.
         11    1    3    3    0    0  0.18662012029E+02 -0.36880546614E+01  0.27015264624E+02  0.33040837809E+02  0.51100000000E-03 0. -1.
        -11    1    3    3    0    0  0.10493725785E+02 -0.25216671168E+01  0.58365433421E+01  0.12269569037E+02  0.51100000000E-03 0.  1.
        -12    1    3    3    0    0 -0.28511864791E+02  0.63864499695E+01 -0.33825083391E+02  0.44697309130E+02  0.00000000000E+00 0.  1.
</event>
<event>
 7    1  0.2285268E-015  0.9000777E+02  0.7816164E-02  0.1186339E+00
        -11   -1    0    0    0    0  0.00000000000E+00  0.00000000000E+00  0.45593999997E+02  0.45594000000E+02  0.51100000000E-03 0. -1.
         11   -1    0    0    0    0 -0.00000000000E+00 -0.00000000000E+00 -0.45593999997E+02  0.45594000000E+02  0.51100000000E-03 0.  1.
    9900012    2    1    2    0    0  0.30013210290E+00 -0.10565837627E+00 -0.11365323540E+01  0.90007767496E+02  0.90000029227E+02 0.  0.
         12    1    1    2    0    0 -0.30013210290E+00  0.10565837627E+00  0.11365323540E+01  0.11802325040E+01  0.00000000000E+00 0. -1.
         11    1    3    3    0    0 -0.43854300867E+00 -0.83950346938E+01 -0.25952381917E+01  0.87979650496E+01  0.51100000000E-03 0. -1.
        -11    1    3    3    0    0 -0.28351775429E+02  0.21635350285E+02 -0.21661365564E+02  0.41726805657E+02  0.51100000000E-03 0.  1.
         12    1    3    3    0    0  0.29090450541E+02 -0.13345973968E+02  0.23120071402E+02  0.39482996789E+02  0.00000000000E+00 0. -1.
</event>
<event>
 7    1  0.2285268E-015  0.9000761E+02  0.7816164E-02  0.1186339E+00
        -11   -1    0    0    0    0  0.00000000000E+00  0.00000000000E+00  0.45593999997E+02  0.45594000000E+02  0.51100000000E-03 0.  1.
         11   -1    0    0    0    0 -0.00000000000E+00 -0.00000000000E+00 -0.45593999997E+02  0.45594000000E+02  0.51100000000E-03 0. -1.
    9900012    2    1    2    0    0 -0.66225281172E+00 -0.20522938923E+00  0.95531324492E+00  0.90007609690E+02  0.89999869337E+02 0.  0.
         12    1    1    2    0    0  0.66225281172E+00  0.20522938923E+00 -0.95531324492E+00  0.11803903103E+01  0.00000000000E+00 0. -1.
         11    1    3    3    0    0 -0.46547737408E+01 -0.18433582839E+02 -0.16666424260E+02  0.25283069290E+02  0.51100000000E-03 0. -1.
        -11    1    3    3    0    0  0.10801213190E+02 -0.20153343658E+02  0.28658998022E+01  0.23044236783E+02  0.51100000000E-03 0.  1.
        -12    1    3    3    0    0 -0.68086922608E+01  0.38381697108E+02  0.14755837703E+02  0.41680303616E+02  0.00000000000E+00 0.  1.
</event>
<event>
 7    1  0.2285268E-015  0.9000743E+02  0.7816164E-02  0.1186340E+00
        -11   -1    0    0    0    0  0.00000000000E+00  0.00000000000E+00  0.45593999997E+02  0.45594000000E+02  0.51100000000E-03 0. -1.
         11   -1    0    0    0    0 -0.00000000000E+00 -0.00000000000E+00 -0.45593999997E+02  0.45594000000E+02  0.51100000000E-03 0.  1.
    9900012    2    1    2    0    0  0.10182939255E+01  0.20949210081E+00 -0.55940447351E+00  0.90007431144E+02  0.89999688434E+02 0.  0.
         12    1    1    2    0    0 -0.10182939255E+01 -0.20949210081E+00  0.55940447351E+00  0.11805688561E+01  0.00000000000E+00 0. -1.
         11    1    3    3    0    0  0.79046763669E+01 -0.23996204947E+01 -0.16219707490E+02  0.18202225093E+02  0.51100000000E-03 0. -1.
        -11    1    3    3    0    0 -0.70018861662E+01  0.34279115040E+02 -0.28832843214E+01  0.35105519032E+02  0.51100000000E-03 0.  1.
         12    1    3    3    0    0  0.11550372487E+00 -0.31670002444E+02  0.18543587338E+02  0.36699687019E+02  0.00000000000E+00 0. -1.
</event>
<event>
 7    1  0.2285268E-015  0.9000733E+02  0.7816164E-02  0.1186340E+00
        -11   -1    0    0    0    0  0.00000000000E+00  0.00000000000E+00  0.45593999997E+02  0.45594000000E+02  0.51100000000E-03 0.  1.
         11   -1    0    0    0    0 -0.00000000000E+00 -0.00000000000E+00 -0.45593999997E+02  0.45594000000E+02  0.51100000000E-03 0. -1.
    9900012    2    1    2    0    0  0.31220572207E+00 -0.53681588878E-01  0.11373797741E+01  0.90007327786E+02  0.89999583712E+02 0.  0.
         12    1    1    2    0    0 -0.31220572207E+00  0.53681588878E-01 -0.11373797741E+01  0.11806722138E+01  0.00000000000E+00 0. -1.
         11    1    3    3    0    0  0.60070697527E+01 -0.38380482156E+02  0.26249712786E+01  0.38936316878E+02  0.51100000000E-03 0. -1.
        -11    1    3    3    0    0 -0.13197665301E+00 -0.60665484266E+01 -0.18001991313E+01  0.63293873971E+01  0.51100000000E-03 0.  1.
        -12    1    3    3    0    0 -0.55628873776E+01  0.44393348994E+02  0.31260762692E+00  0.44741623511E+02  0.00000000000E+00 0.  1.
</event>
<event>
 7    1  0.2285268E-015  0.9000778E+02  0.7816164E-02  0.1186339E+00
        -11   -1    0    0    0    0  0.00000000000E+00  0.00000000000E+00  0.45593999997E+02  0.45594000000E+02  0.51100000000E-03 0.  1.
         11   -1    0    0    0    0 -0.00000000000E+00 -0.00000000000E+00 -0.45593999997E+02  0.45594000000E+02  0.51100000000E-03 0. -1.
    9900012    2    1    2    0    0 -0.86156211182E+00  0.30574185942E-01  0.80603423122E+00  0.90007781700E+02  0.90000043619E+02 0.  0.
         12    1    1    2    0    0  0.86156211182E+00 -0.30574185942E-01 -0.80603423122E+00  0.11802182998E+01  0.00000000000E+00 0. -1.
         11    1    3    3    0    0 -0.50713884708E+01  0.75485993420E+01 -0.24216909611E+01  0.94108937100E+01  0.51100000000E-03 0. -1.
        -11    1    3    3    0    0 -0.19853559943E+02 -0.34193748679E+02  0.15736469911E+02  0.42555995778E+02  0.51100000000E-03 0.  1.
         12    1    3    3    0    0  0.24063386302E+02  0.26675723523E+02 -0.12508744719E+02  0.38040892212E+02  0.00000000000E+00 0. -1.
</event>
<event>
 7    1  0.2285268E-015  0.9000759E+02  0.7816164E-02  0.1186339E+00
        -11   -1    0    0    0    0  0.00000000000E+00  0.00000000000E+00  0.45593999997E+02  0.45594000000E+02  0.51100000000E-03 0.  1.
         11   -1    0    0    0    0 -0.00000000000E+00 -0.00000000000E+00 -0.45593999997E+02  0.45594000000E+02  0.51100000000E-03 0. -1.
    9900012    2    1    2    0    0 -0.22994950561E+00  0.10108563935E+01  0.56449223987E+00  0.90007593751E+02  0.89999853189E+02 0.  0.
         12    1    1    2    0    0  0.22994950561E+00 -0.10108563935E+01 -0.56449223987E+00  0.11804062488E+01  0.00000000000E+00 0. -1.
         11    1    3    3    0    0  0.12237789241E+02  0.31013994027E+02 -0.12777763651E+02  0.35705777616E+02  0.51100000000E-03 0. -1.
        -11    1    3    3    0    0  0.19198675372E+01  0.85863990960E+01 -0.39374308803E+01  0.96392687998E+01  0.51100000000E-03 0.  1.
        -12    1    3    3    0    0 -0.14387606283E+02 -0.38589536730E+02  0.17279686771E+02  0.44662547335E+02  0.00000000000E+00 0.  1.
</event>
<event>
 7    1  0.2285268E-015  0.9000773E+02  0.7816164E-02  0.1186339E+00
        -11   -1    0    0    0    0  0.00000000000E+00  0.00000000000E+00  0.45593999997E+02  0.45594000000E+02  0.51100000000E-03 0. -1.
         11   -1    0    0    0    0 -0.00000000000E+00 -0.00000000000E+00 -0.45593999997E+02  0.45594000000E+02  0.51100000000E-03 0.  1.
    9900012    2    1    2    0    0 -0.10669264369E+01 -0.81199200063E-02 -0.50461475330E+00  0.90007731385E+02  0.89999992639E+02 0.  0.
         12    1    1    2    0    0  0.10669264369E+01  0.81199200063E-02  0.50461475330E+00  0.11802686152E+01  0.00000000000E+00 0. -1.
         11    1    3    3    0    0 -0.46739771209E+01 -0.67802379771E+01 -0.33895089415E+00  0.82421221250E+01  0.51100000000E-03 0. -1.
        -11    1    3    3    0    0  0.32277601299E+02 -0.22740279499E+02  0.67082098985E+01  0.40049518569E+02  0.51100000000E-03 0.  1.
         12    1    3    3    0    0 -0.28670550615E+02  0.29512397557E+02 -0.68738737576E+01  0.41716090691E+02  0.00000000000E+00 0. -1.
</event>
<event>
 7    1  0.2285268E-015  0.9000777E+02  0.7816164E-02  0.1186339E+00
        -11   -1    0    0    0    0  0.00000000000E+00  0.00000000000E+00  0.45593999997E+02  0.45594000000E+02  0.51100000000E-03 0.  1.
         11   -1    0    0    0    0 -0.00000000000E+00 -0.00000000000E+00 -0.45593999997E+02  0.45594000000E+02  0.51100000000E-03 0. -1.
    9900012    2    1    2    0    0 -0.49504029767E+00  0.63994574694E+00  0.85927810546E+00  0.90007765143E+02  0.90000026843E+02 0.  0.
         12    1    1    2    0    0  0.49504029767E+00 -0.63994574694E+00 -0.85927810546E+00  0.11802348571E+01  0.00000000000E+00 0. -1.
         11    1    3    3    0    0 -0.35158220650E+02 -0.21853808508E+01  0.10197930723E+02  0.36672525956E+02  0.51100000000E-03 0. -1.
        -11    1    3    3    0    0 -0.56224004829E+01  0.19843162489E+01  0.75707781564E+01  0.96366789051E+01  0.51100000000E-03 0.  1.
        -12    1    3    3    0    0  0.40285580835E+02  0.84101034890E+00 -0.16909430774E+02  0.43698560282E+02  0.00000000000E+00 0.  1.
</event>
<event>
 7    1  0.2285268E-015  0.9000775E+02  0.7816164E-02  0.1186339E+00
        -11   -1    0    0    0    0  0.00000000000E+00  0.00000000000E+00  0.45593999997E+02  0.45594000000E+02  0.51100000000E-03 0. -1.
         11   -1    0    0    0    0 -0.00000000000E+00 -0.00000000000E+00 -0.45593999997E+02  0.45594000000E+02  0.51100000000E-03 0.  1.
    9900012    2    1    2    0    0  0.10283073243E+01 -0.40754655937E+00 -0.41167179277E+00  0.90007752646E+02  0.90000014181E+02 0.  0.
         12    1    1    2    0    0 -0.10283073243E+01  0.40754655937E+00  0.41167179277E+00  0.11802473538E+01  0.00000000000E+00 0. -1.
         11    1    3    3    0    0  0.92383935926E+00  0.87717707330E+01 -0.34955836418E+01  0.94877050024E+01  0.51100000000E-03 0. -1.
        -11    1    3    3    0    0 -0.37171299138E+01  0.33148187887E+02 -0.11961523482E+02  0.35435821696E+02  0.51100000000E-03 0.  1.
         12    1    3    3    0    0  0.38215978789E+01 -0.42327505179E+02  0.15045435331E+02  0.45084225948E+02  0.00000000000E+00 0. -1.
</event>
<event>
 7    1  0.2285268E-015  0.9000768E+02  0.7816164E-02  0.1186339E+00
        -11   -1    0    0    0    0  0.00000000000E+00  0.00000000000E+00  0.45593999997E+02  0.45594000000E+02  0.51100000000E-03 0. -1.
         11   -1    0    0    0    0 -0.00000000000E+00 -0.00000000000E+00 -0.45593999997E+02  0.45594000000E+02  0.51100000000E-03 0.  1.
    9900012    2    1    2    0    0  0.97241298083E+00 -0.48706101465E+00 -0.45861656811E+00  0.90007684536E+02  0.89999945172E+02 0.  0.
         12    1    1    2    0    0 -0.97241298083E+00  0.48706101465E+00  0.45861656811E+00  0.11803154637E+01  0.00000000000E+00 0. -1.
         11    1    3    3    0    0 -0.54895572925E+01  0.24227278021E+01  0.87596364156E+00  0.60640054282E+01  0.51100000000E-03 0. -1.
        -11    1    3    3    0    0 -0.27581179386E+02  0.26189505887E+02 -0.74066952355E+01  0.38748816879E+02  0.51100000000E-03 0.  1.
         12    1    3    3    0    0  0.34043149659E+02 -0.29099294704E+02  0.60721150258E+01  0.45194862229E+02  0.00000000000E+00 0. -1.
</event>
<event>
 7    1  0.2285268E-015  0.9000782E+02  0.7816164E-02  0.1186339E+00
        -11   -1    0    0    0    0  0.00000000000E+00  0.00000000000E+00  0.45593999997E+02  0.45594000000E+02  0.51100000000E-03 0.  1.
         11   -1    0    0    0    0 -0.00000000000E+00 -0.00000000000E+00 -0.45593999997E+02  0.45594000000E+02  0.51100000000E-03 0. -1.
    9900012    2    1    2    0    0  0.99132114048E+00  0.48150064804E+00 -0.42221422829E+00  0.90007819788E+02  0.90000082209E+02 0.  0.
         12    1    1    2    0    0 -0.99132114048E+00 -0.48150064804E+00  0.42221422829E+00  0.11801802117E+01  0.00000000000E+00 0. -1.
         11    1    3    3    0    0  0.90024178714E+01 -0.11599346992E+01  0.20075429914E+01  0.92961930467E+01  0.51100000000E-03 0. -1.
        -11    1    3    3    0    0 -0.64155973667E+00 -0.13259591106E+02  0.36253540715E+02  0.38607610258E+02  0.51100000000E-03 0.  1.
         12    1    3    3    0    0 -0.73695369943E+01  0.14901026454E+02 -0.38683297935E+02  0.42104016483E+02  0.00000000000E+00 0. -1.
</event>
<event>
 7    1  0.2285268E-015  0.9000780E+02  0.7816164E-02  0.1186339E+00
        -11   -1    0    0    0    0  0.00000000000E+00  0.00000000000E+00  0.45593999997E+02  0.45594000000E+02  0.51100000000E-03 0.  1.
         11   -1    0    0    0    0 -0.00000000000E+00 -0.00000000000E+00 -0.45593999997E+02  0.45594000000E+02  0.51100000000E-03 0. -1.
    9900012    2    1    2    0    0  0.87315686276E+00  0.35391065344E+00 -0.71077984468E+00  0.90007803557E+02  0.90000065763E+02 0.  0.
         12    1    1    2    0    0 -0.87315686276E+00 -0.35391065344E+00  0.71077984468E+00  0.11801964435E+01  0.00000000000E+00 0. -1.
         11    1    3    3    0    0 -0.29632622889E+02 -0.22869371172E+02  0.46057780589E+00  0.37434110237E+02  0.51100000000E-03 0. -1.
        -11    1    3    3    0    0 -0.11530923971E+01 -0.54395855889E+01  0.71565132615E+01  0.90628028655E+01  0.51100000000E-03 0.  1.
        -12    1    3    3    0    0  0.31658872149E+02  0.28662867414E+02 -0.83278709121E+01  0.43510890454E+02  0.00000000000E+00 0.  1.
</event>
<event>
 7    1  0.2285268E-015  0.9000769E+02  0.7816164E-02  0.1186339E+00
        -11   -1    0    0    0    0  0.00000000000E+00  0.00000000000E+00  0.45593999997E+02  0.45594000000E+02  0.51100000000E-03 0.  1.
         11   -1    0    0    0    0 -0.00000000000E+00 -0.00000000000E+00 -0.45593999997E+02  0.45594000000E+02  0.51100000000E-03 0. -1.
    9900012    2    1    2    0    0  0.10421235312E+01 -0.52944857222E+00 -0.16370289074E+00  0.90007688227E+02  0.89999948912E+02 0.  0.
         12    1    1    2    0    0 -0.10421235312E+01  0.52944857222E+00  0.16370289074E+00  0.11803117730E+01  0.00000000000E+00 0. -1.
         11    1    3    3    0    0  0.30626759541E+02 -0.14241208076E+02 -0.10790703884E+02  0.35457717045E+02  0.51100000000E-03 0. -1.
        -11    1    3    3    0    0  0.97949718201E+01 -0.28937880716E+01 -0.99089124238E+00  0.10261449609E+02  0.51100000000E-03 0.  1.
        -12    1    3    3    0    0 -0.39379607830E+02  0.16605547576E+02  0.11617892236E+02  0.44288521573E+02  0.00000000000E+00 0.  1.
</event>
<event>
 7    1  0.2285268E-015  0.9000772E+02  0.7816164E-02  0.1186339E+00
        -11   -1    0    0    0    0  0.00000000000E+00  0.00000000000E+00  0.45593999997E+02  0.45594000000E+02  0.51100000000E-03 0.  1.
         11   -1    0    0    0    0 -0.00000000000E+00 -0.00000000000E+00 -0.45593999997E+02  0.45594000000E+02  0.51100000000E-03 0. -1.
    9900012    2    1    2    0    0 -0.28654875832E-01 -0.11316679593E+01 -0.33401898396E+00  0.90007719460E+02  0.89999980557E+02 0.  0.
         12    1    1    2    0    0  0.28654875832E-01  0.11316679593E+01  0.33401898396E+00  0.11802805402E+01  0.00000000000E+00 0. -1.
         11    1    3    3    0    0  0.81048414649E+00  0.19950717650E+02 -0.32097464962E+02  0.37801260251E+02  0.51100000000E-03 0. -1.
        -11    1    3    3    0    0 -0.25176667545E+01  0.49388254798E+01 -0.47759791760E+01  0.73171456427E+01  0.51100000000E-03 0.  1.
        -12    1    3    3    0    0  0.16785277322E+01 -0.26021211089E+02  0.36539425154E+02  0.44889313566E+02  0.00000000000E+00 0.  1.
</event>
<event>
 7    1  0.2285268E-015  0.9000775E+02  0.7816164E-02  0.1186339E+00
        -11   -1    0    0    0    0  0.00000000000E+00  0.00000000000E+00  0.45593999997E+02  0.45594000000E+02  0.51100000000E-03 0. -1.
         11   -1    0    0    0    0 -0.00000000000E+00 -0.00000000000E+00 -0.45593999997E+02  0.45594000000E+02  0.51100000000E-03 0.  1.
    9900012    2    1    2    0    0  0.75485539749E-01  0.32702831148E+00 -0.11315179510E+01  0.90007754917E+02  0.90000016482E+02 0.  0.
         12    1    1    2    0    0 -0.75485539749E-01 -0.32702831148E+00  0.11315179510E+01  0.11802450833E+01  0.00000000000E+00 0. -1.
         11    1    3    3    0    0  0.29287031806E+02  0.17549157728E+02 -0.13264385748E+02  0.36628501177E+02  0.51100000000E-03 0. -1.
        -11    1    3    3    0    0  0.66337281707E+01  0.58337825968E+01 -0.72050832121E+00  0.88633233796E+01  0.51100000000E-03 0.  1.
        -12    1    3    3    0    0 -0.35845274437E+02 -0.23055912013E+02  0.12853376118E+02  0.44515930360E+02  0.00000000000E+00 0.  1.
</event>
<event>
 7    1  0.2285268E-015  0.9000789E+02  0.7816164E-02  0.1186339E+00
        -11   -1    0    0    0    0  0.00000000000E+00  0.00000000000E+00  0.45593999997E+02  0.45594000000E+02  0.51100000000E-03 0.  1.
         11   -1    0    0    0    0 -0.00000000000E+00 -0.00000000000E+00 -0.45593999997E+02  0.45594000000E+02  0.51100000000E-03 0. -1.
    9900012    2    1    2    0    0 -0.10713466723E+01 -0.32943045759E+00 -0.36926824318E+00  0.90007886805E+02  0.90000150110E+02 0.  0.
         12    1    1    2    0    0  0.10713466723E+01  0.32943045759E+00  0.36926824318E+00  0.11801131955E+01  0.00000000000E+00 0. -1.
         11    1    3    3    0    0 -0.63406281803E+01 -0.13809142466E+02  0.24026990956E+01  0.15384048380E+02  0.51100000000E-03 0. -1.
        -11    1    3    3    0    0  0.33479485603E+02  0.38606656238E+01  0.18083757591E+02  0.38246607486E+02  0.51100000000E-03 0.  1.
         12    1    3    3    0    0 -0.28210204095E+02  0.96190463842E+01 -0.20855724929E+02  0.36377230939E+02  0.00000000000E+00 0. -1.
</event>
<event>
 7    1  0.2285268E-015  0.9000725E+02  0.7816164E-02  0.1186340E+00
        -11   -1    0    0    0    0  0.00000000000E+00  0.00000000000E+00  0.45593999997E+02  0.45594000000E+02  0.51100000000E-03 0.  1.
         11   -1    0    0    0    0 -0.00000000000E+00 -0.00000000000E+00 -0.45593999997E+02  0.45594000000E+02  0.51100000000E-03 0. -1.
    9900012    2    1    2    0    0  0.63241934109E+00  0.51655809026E+00  0.85286829604E+00  0.90007249894E+02  0.89999504791E+02 0.  0.
         12    1    1    2    0    0 -0.63241934109E+00 -0.51655809026E+00 -0.85286829604E+00  0.11807501065E+01  0.00000000000E+00 0. -1.
         11    1    3    3    0    0  0.92962328023E+01 -0.10531937579E+02 -0.32557325150E+02  0.35458723534E+02  0.51100000000E-03 0. -1.
        -11    1    3    3    0    0 -0.22320436058E+00 -0.60545487914E+01 -0.73628873811E+01  0.95351713200E+01  0.51100000000E-03 0.  1.
        -12    1    3    3    0    0 -0.84406091007E+01  0.17103044460E+02  0.40773080827E+02  0.45013355040E+02  0.00000000000E+00 0.  1.
</event>
<event>
 7    1  0.2285268E-015  0.9000762E+02  0.7816164E-02  0.1186339E+00
        -11   -1    0    0    0    0  0.00000000000E+00  0.00000000000E+00  0.45593999997E+02  0.45594000000E+02  0.51100000000E-03 0.  1.
         11   -1    0    0    0    0 -0.00000000000E+00 -0.00000000000E+00 -0.45593999997E+02  0.45594000000E+02  0.51100000000E-03 0. -1.
    9900012    2    1    2    0    0  0.39559716725E+00  0.66420379226E+00 -0.89198515945E+00  0.90007618146E+02  0.89999877906E+02 0.  0.
         12    1    1    2    0    0 -0.39559716725E+00 -0.66420379226E+00  0.89198515945E+00  0.11803818539E+01  0.00000000000E+00 0. -1.
         11    1    3    3    0    0 -0.12456651562E+01 -0.32093626310E+01  0.83621355868E+01  0.90430637514E+01  0.51100000000E-03 0. -1.
        -11    1    3    3    0    0 -0.17119846552E+02 -0.22622186094E+02  0.21999461566E+02  0.35900261268E+02  0.51100000000E-03 0.  1.
         12    1    3    3    0    0  0.18761108875E+02  0.26495752517E+02 -0.31253582312E+02  0.45064293127E+02  0.00000000000E+00 0. -1.
</event>
<event>
 7    1  0.2285268E-015  0.9000780E+02  0.7816164E-02  0.1186339E+00
        -11   -1    0    0    0    0  0.00000000000E+00  0.00000000000E+00  0.45593999997E+02  0.45594000000E+02  0.51100000000E-03 0. -1.
         11   -1    0    0    0    0 -0.00000000000E+00 -0.00000000000E+00 -0.45593999997E+02  0.45594000000E+02  0.51100000000E-03 0.  1.
    9900012    2    1    2    0    0 -0.18150056595E+00  0.11602321191E+01 -0.11746576819E+00  0.90007796953E+02  0.90000059073E+02 0.  0.
         12    1    1    2    0    0  0.18150056595E+00 -0.11602321191E+01  0.11746576819E+00  0.11802030471E+01  0.00000000000E+00 0. -1.
         11    1    3    3    0    0  0.32260195034E+02  0.84266560376E+01  0.80884319444E+01  0.34309640732E+02  0.51100000000E-03 0. -1.
        -11    1    3    3    0    0  0.98722615613E+01 -0.35693487082E+01 -0.80397261893E+01  0.13222669776E+02  0.51100000000E-03 0.  1.
        -12    1    3    3    0    0 -0.42313957161E+02 -0.36970752102E+01 -0.16617152331E+00  0.42475486445E+02  0.00000000000E+00 0.  1.
</event>
<event>
 7    1  0.2285268E-015  0.9000758E+02  0.7816164E-02  0.1186339E+00
        -11   -1    0    0    0    0  0.00000000000E+00  0.00000000000E+00  0.45593999997E+02  0.45594000000E+02  0.51100000000E-03 0. -1.
         11   -1    0    0    0    0 -0.00000000000E+00 -0.00000000000E+00 -0.45593999997E+02  0.45594000000E+02  0.51100000000E-03 0.  1.
    9900012    2    1    2    0    0 -0.10286306836E+01  0.36693777972E+00 -0.44794966033E+00  0.90007583414E+02  0.89999842715E+02 0.  0.
         12    1    1    2    0    0  0.10286306836E+01 -0.36693777972E+00  0.44794966033E+00  0.11804165856E+01  0.00000000000E+00 0. -1.
         11    1    3    3    0    0 -0.18971404849E+02 -0.24809828686E+02 -0.16365515975E+02  0.35260061185E+02  0.51100000000E-03 0. -1.
        -11    1    3    3    0    0  0.15973568466E+02 -0.88112202398E+01  0.39921180976E+01  0.18674300491E+02  0.51100000000E-03 0.  1.
        -12    1    3    3    0    0  0.19692056994E+01  0.33987986706E+02  0.11925448217E+02  0.36073221738E+02  0.00000000000E+00 0.  1.
</event>
<event>
 7    1  0.2285268E-015  0.9000724E+02  0.7816164E-02  0.1186340E+00
        -11   -1    0    0    0    0  0.00000000000E+00  0.00000000000E+00  0.45593999997E+02  0.45594000000E+02  0.51100000000E-03 0.  1.
         11   -1    0    0    0    0 -0.00000000000E+00 -0.00000000000E+00 -0.45593999997E+02  0.45594000000E+02  0.51100000000E-03 0. -1.
    9900012    2    1    2    0    0 -0.55529307326E+00  0.21485074364E+00  0.10196464406E+01  0.90007241725E+02  0.89999496515E+02 0.  0.
         12    1    1    2    0    0  0.55529307326E+00 -0.21485074364E+00 -0.10196464406E+01  0.11807582746E+01  0.00000000000E+00 0. -1.
         11    1    3    3    0    0  0.81937302318E+00 -0.31705833220E+00 -0.84129848035E+01  0.84587358217E+01  0.51100000000E-03 0. -1.
        -11    1    3    3    0    0 -0.18262765096E+02 -0.24473609888E+02  0.31724303534E+02  0.44033142119E+02  0.51100000000E-03 0.  1.
         12    1    3    3    0    0  0.16888098999E+02  0.25005518963E+02 -0.22291672290E+02  0.37515363785E+02  0.00000000000E+00 0. -1.
</event>
<event>
 7    1  0.2285268E-015  0.9000779E+02  0.7816164E-02  0.1186339E+00
        -11   -1    0    0    0    0  0.00000000000E+00  0.00000000000E+00  0.45593999997E+02  0.45594000000E+02  0.51100000000E-03 0.  1.
         11   -1    0    0    0    0 -0.00000000000E+00 -0.00000000000E+00 -0.45593999997E+02  0.45594000000E+02  0.51100000000E-03 0. -1.
    9900012    2    1    2    0    0  0.86461858492E+00  0.58106205744E+00 -0.55471029418E+00  0.90007787340E+02  0.90000049333E+02 0.  0.
         12    1    1    2    0    0 -0.86461858492E+00 -0.58106205744E+00  0.55471029418E+00  0.11802126598E+01  0.00000000000E+00 0. -1.
         11    1    3    3    0    0 -0.23083713914E+02  0.19139015718E+02 -0.20635139751E+02  0.36400120378E+02  0.51100000000E-03 0. -1.
        -11    1    3    3    0    0 -0.27677292167E+01  0.44222478726E+01 -0.73060312045E+01  0.89774547332E+01  0.51100000000E-03 0.  1.
        -12    1    3    3    0    0  0.26716061715E+02 -0.22980201533E+02  0.27386460661E+02  0.44630212229E+02  0.00000000000E+00 0.  1.
</event>
<event>
 7    1  0.2285268E-015  0.9000773E+02  0.7816164E-02  0.1186339E+00
        -11   -1    0    0    0    0  0.00000000000E+00  0.00000000000E+00  0.45593999997E+02  0.45594000000E+02  0.51100000000E-03 0. -1.
         11   -1    0    0    0    0 -0.00000000000E+00 -0.00000000000E+00 -0.45593999997E+02  0.45594000000E+02  0.51100000000E-03 0.  1.
    9900012    2    1    2    0    0  0.89528961703E+00  0.71734396761E+00 -0.27732729613E+00  0.90007730414E+02  0.89999991656E+02 0.  0.
         12    1    1    2    0    0 -0.89528961703E+00 -0.71734396761E+00  0.27732729613E+00  0.11802695859E+01  0.00000000000E+00 0. -1.
         11    1    3    3    0    0 -0.27258556280E+00 -0.95751271626E+01  0.10809668097E-01  0.95790124845E+01  0.51100000000E-03 0. -1.
        -11    1    3    3    0    0  0.14194660381E+02 -0.18206306919E+02 -0.29588372560E+02  0.37529052559E+02  0.51100000000E-03 0.  1.
         12    1    3    3    0    0 -0.13026785201E+02  0.28498778049E+02  0.29300235595E+02  0.42899665371E+02  0.00000000000E+00 0. -1.
</event>
<event>
 7    1  0.2285268E-015  0.9000774E+02  0.7816164E-02  0.1186339E+00
        -11   -1    0    0    0    0  0.00000000000E+00  0.00000000000E+00  0.45593999997E+02  0.45594000000E+02  0.51100000000E-03 0.  1.
         11   -1    0    0    0    0 -0.00000000000E+00 -0.00000000000E+00 -0.45593999997E+02  0.45594000000E+02  0.51100000000E-03 0. -1.
    9900012    2    1    2    0    0 -0.96716313536E+00  0.67427603546E+00  0.54487678951E-01  0.90007736636E+02  0.89999997959E+02 0.  0.
         12    1    1    2    0    0  0.96716313536E+00 -0.67427603546E+00 -0.54487678951E-01  0.11802633645E+01  0.00000000000E+00 0. -1.
         11    1    3    3    0    0 -0.12860605388E+02 -0.32682567962E+02 -0.17518624965E+02  0.39248536794E+02  0.51100000000E-03 0. -1.
        -11    1    3    3    0    0 -0.61742073656E+01 -0.24411683803E+01  0.61862748405E+01  0.90746975883E+01  0.51100000000E-03 0.  1.
        -12    1    3    3    0    0  0.18067649618E+02  0.35798012378E+02  0.11386837804E+02  0.41684502253E+02  0.00000000000E+00 0.  1.
</event>
<event>
 7    1  0.2285268E-015  0.9000782E+02  0.7816164E-02  0.1186339E+00
        -11   -1    0    0    0    0  0.00000000000E+00  0.00000000000E+00  0.45593999997E+02  0.45594000000E+02  0.51100000000E-03 0.  1.
         11   -1    0    0    0    0 -0.00000000000E+00 -0.00000000000E+00 -0.45593999997E+02  0.45594000000E+02  0.51100000000E-03 0. -1.
    9900012    2    1    2    0    0 -0.61468142770E+00 -0.98134177494E+00  0.22796962920E+00  0.90007815655E+02  0.90000078021E+02 0.  0.
         12    1    1    2    0    0  0.61468142770E+00  0.98134177494E+00 -0.22796962920E+00  0.11801843452E+01  0.00000000000E+00 0. -1.
         11    1    3    3    0    0  0.53251240612E+01 -0.94132555484E+01 -0.66309831571E+00  0.10835406126E+02  0.51100000000E-03 0. -1.
        -11    1    3    3    0    0  0.96754149267E+01  0.33291905722E+02  0.23699909052E+02  0.41995837054E+02  0.51100000000E-03 0.  1.
         12    1    3    3    0    0 -0.15615220416E+02 -0.24859991948E+02 -0.22808841107E+02  0.37176572474E+02  0.00000000000E+00 0. -1.
</event>
<event>
 7    1  0.2285268E-015  0.9000772E+02  0.7816164E-02  0.1186339E+00
        -11   -1    0    0    0    0  0.00000000000E+00  0.00000000000E+00  0.45593999997E+02  0.45594000000E+02  0.51100000000E-03 0.  1.
         11   -1    0    0    0    0 -0.00000000000E+00 -0.00000000000E+00 -0.45593999997E+02  0.45594000000E+02  0.51100000000E-03 0. -1.
    9900012    2    1    2    0    0 -0.74564921423E+00  0.41466753979E+00  0.81555057188E+00  0.90007718400E+02  0.89999979483E+02 0.  0.
         12    1    1    2    0    0  0.74564921423E+00 -0.41466753979E+00 -0.81555057188E+00  0.11802815997E+01  0.00000000000E+00 0. -1.
         11    1    3    3    0    0  0.96703432886E+01 -0.32162802597E+01  0.15962948657E+01  0.10315432884E+02  0.51100000000E-03 0. -1.
        -11    1    3    3    0    0 -0.42726030917E+02  0.64920654890E+01  0.11963881698E+02  0.44841889989E+02  0.51100000000E-03 0.  1.
         12    1    3    3    0    0  0.32310038414E+02 -0.28611176896E+01 -0.12744625992E+02  0.34850395527E+02  0.00000000000E+00 0. -1.
</event>
<event>
 7    1  0.2285268E-015  0.9000748E+02  0.7816164E-02  0.1186340E+00
        -11   -1    0    0    0    0  0.00000000000E+00  0.00000000000E+00  0.45593999997E+02  0.45594000000E+02  0.51100000000E-03 0.  1.
         11   -1    0    0    0    0 -0.00000000000E+00 -0.00000000000E+00 -0.45593999997E+02  0.45594000000E+02  0.51100000000E-03 0. -1.
    9900012    2    1    2    0    0  0.53519811892E+00 -0.10227593322E+01  0.24728914091E+00  0.90007480793E+02  0.89999738739E+02 0.  0.
         12    1    1    2    0    0 -0.53519811892E+00  0.10227593322E+01 -0.24728914091E+00  0.11805192067E+01  0.00000000000E+00 0. -1.
         11    1    3    3    0    0 -0.64172292774E+01  0.67707786288E+01  0.13609384206E+01  0.94274295799E+01  0.51100000000E-03 0. -1.
        -11    1    3    3    0    0 -0.32040270150E+02 -0.63435933288E+01 -0.18857893569E+02  0.37715252057E+02  0.51100000000E-03 0.  1.
         12    1    3    3    0    0  0.38992697546E+02 -0.14499446321E+01  0.17744244289E+02  0.42864799157E+02  0.00000000000E+00 0. -1.
</event>
<event>
 7    1  0.2285268E-015  0.9000775E+02  0.7816164E-02  0.1186339E+00
        -11   -1    0    0    0    0  0.00000000000E+00  0.00000000000E+00  0.45593999997E+02  0.45594000000E+02  0.51100000000E-03 0.  1.
         11   -1    0    0    0    0 -0.00000000000E+00 -0.00000000000E+00 -0.45593999997E+02  0.45594000000E+02  0.51100000000E-03 0. -1.
    9900012    2    1    2    0    0 -0.16614679920E-01  0.11383296991E+01  0.31131248957E+00  0.90007751714E+02  0.90000013236E+02 0.  0.
         12    1    1    2    0    0  0.16614679920E-01 -0.11383296991E+01 -0.31131248957E+00  0.11802482864E+01  0.00000000000E+00 0. -1.
         11    1    3    3    0    0 -0.80221534035E+01 -0.18487390457E+02 -0.34010140947E+02  0.39532622460E+02  0.51100000000E-03 0. -1.
        -11    1    3    3    0    0 -0.65045382800E+01  0.47872539675E+01 -0.22862763938E+01  0.83936808847E+01  0.51100000000E-03 0.  1.
        -12    1    3    3    0    0  0.14510077004E+02  0.14838466188E+02  0.36607729830E+02  0.42081448368E+02  0.00000000000E+00 0.  1.
</event>
<event>
 7    1  0.2285268E-015  0.9000775E+02  0.7816164E-02  0.1186339E+00
        -11   -1    0    0    0    0  0.00000000000E+00  0.00000000000E+00  0.45593999997E+02  0.45594000000E+02  0.51100000000E-03 0.  1.
         11   -1    0    0    0    0 -0.00000000000E+00 -0.00000000000E+00 -0.45593999997E+02  0.45594000000E+02  0.51100000000E-03 0. -1.
    9900012    2    1    2    0    0  0.95794296519E+00 -0.65247188643E-01  0.68634347273E+00  0.90007754567E+02  0.90000016127E+02 0.  0.
         12    1    1    2    0    0 -0.95794296519E+00  0.65247188643E-01 -0.68634347273E+00  0.11802454333E+01  0.00000000000E+00 0. -1.
         11    1    3    3    0    0 -0.24615177138E+02 -0.16959225968E+02 -0.12201026167E+02  0.32286023768E+02  0.51100000000E-03 0. -1.
        -11    1    3    3    0    0 -0.54237729407E+01 -0.12387551807E+02  0.16341816898E+01  0.13621281245E+02  0.51100000000E-03 0.  1.
        -12    1    3    3    0    0  0.30996893044E+02  0.29281530586E+02  0.11253187949E+02  0.44100449554E+02  0.00000000000E+00 0.  1.
</event>
<event>
 7    1  0.2285268E-015  0.9000733E+02  0.7816164E-02  0.1186340E+00
        -11   -1    0    0    0    0  0.00000000000E+00  0.00000000000E+00  0.45593999997E+02  0.45594000000E+02  0.51100000000E-03 0. -1.
         11   -1    0    0    0    0 -0.00000000000E+00 -0.00000000000E+00 -0.45593999997E+02  0.45594000000E+02  0.51100000000E-03 0.  1.
    9900012    2    1    2    0    0  0.75381773648E+00 -0.62836395534E+00 -0.65643263821E+00  0.90007328052E+02  0.89999583981E+02 0.  0.
         12    1    1    2    0    0 -0.75381773648E+00  0.62836395534E+00  0.65643263821E+00  0.11806719480E+01  0.00000000000E+00 0. -1.
         11    1    3    3    0    0 -0.36163678262E+02  0.81877413263E+00  0.20325246951E+02  0.41492139984E+02  0.51100000000E-03 0. -1.
        -11    1    3    3    0    0  0.54773266977E+01  0.74405144207E+01  0.75959215462E+00  0.92703475178E+01  0.51100000000E-03 0.  1.
        -12    1    3    3    0    0  0.31440169301E+02 -0.88876525087E+01 -0.21741271744E+02  0.39244840551E+02  0.00000000000E+00 0.  1.
</event>
<event>
 7    1  0.2285268E-015  0.9000776E+02  0.7816164E-02  0.1186339E+00
        -11   -1    0    0    0    0  0.00000000000E+00  0.00000000000E+00  0.45593999997E+02  0.45594000000E+02  0.51100000000E-03 0. -1.
         11   -1    0    0    0    0 -0.00000000000E+00 -0.00000000000E+00 -0.45593999997E+02  0.45594000000E+02  0.51100000000E-03 0.  1.
    9900012    2    1    2    0    0  0.42846746359E+00 -0.80334389324E+00 -0.75101860026E+00  0.90007756501E+02  0.90000018087E+02 0.  0.
         12    1    1    2    0    0 -0.42846746359E+00  0.80334389324E+00  0.75101860026E+00  0.11802434987E+01  0.00000000000E+00 0. -1.
         11    1    3    3    0    0  0.38831379584E+02 -0.91380402111E+01 -0.10364195903E+02  0.41216457590E+02  0.51100000000E-03 0. -1.
        -11    1    3    3    0    0  0.26417495168E+01  0.30179476178E+01 -0.35547982795E+01  0.53594252866E+01  0.51100000000E-03 0.  1.
        -12    1    3    3    0    0 -0.41044661637E+02  0.53167487001E+01  0.13167975582E+02  0.43431873625E+02  0.00000000000E+00 0.  1.
</event>
<event>
 7    1  0.2285268E-015  0.9000776E+02  0.7816164E-02  0.1186339E+00
        -11   -1    0    0    0    0  0.00000000000E+00  0.00000000000E+00  0.45593999997E+02  0.45594000000E+02  0.51100000000E-03 0.  1.
         11   -1    0    0    0    0 -0.00000000000E+00 -0.00000000000E+00 -0.45593999997E+02  0.45594000000E+02  0.51100000000E-03 0. -1.
    9900012    2    1    2    0    0 -0.33921890658E+00  0.11249040159E+01  0.11175447794E+00  0.90007759527E+02  0.90000021152E+02 0.  0.
         12    1    1    2    0    0  0.33921890658E+00 -0.11249040159E+01 -0.11175447794E+00  0.11802404733E+01  0.00000000000E+00 0. -1.
         11    1    3    3    0    0  0.36833015873E+02  0.82971385409E+01  0.11780488324E+02  0.39551150068E+02  0.51100000000E-03 0. -1.
        -11    1    3    3    0    0  0.46417302163E+01 -0.35116660709E+01 -0.55439521746E+01  0.80382127348E+01  0.51100000000E-03 0.  1.
        -12    1    3    3    0    0 -0.41813964996E+02 -0.36605684541E+01 -0.61247816715E+01  0.42418396724E+02  0.00000000000E+00 0.  1.
</event>
<event>
 7    1  0.2285268E-015  0.9000775E+02  0.7816164E-02  0.1186339E+00
        -11   -1    0    0    0    0  0.00000000000E+00  0.00000000000E+00  0.45593999997E+02  0.45594000000E+02  0.51100000000E-03 0. -1.
         11   -1    0    0    0    0 -0.00000000000E+00 -0.00000000000E+00 -0.45593999997E+02  0.45594000000E+02  0.51100000000E-03 0.  1.
    9900012    2    1    2    0    0 -0.10036971712E+01 -0.25097967712E+00 -0.56797659434E+00  0.90007747391E+02  0.90000008856E+02 0.  0.
         12    1    1    2    0    0  0.10036971712E+01  0.25097967712E+00  0.56797659434E+00  0.11802526092E+01  0.00000000000E+00 0. -1.
         11    1    3    3    0    0 -0.30165915637E+02 -0.11473464998E+02 -0.27341442147E+02  0.42298668114E+02  0.51100000000E-03 0. -1.
        -11    1    3    3    0    0 -0.37211693370E+01  0.30135773882E+01  0.69658990666E+01  0.84529580607E+01  0.51100000000E-03 0.  1.
        -12    1    3    3    0    0  0.32883387803E+02  0.82089079329E+01  0.19807566486E+02  0.39256121216E+02  0.00000000000E+00 0.  1.
</event>
<event>
 7    1  0.2285268E-015  0.9000769E+02  0.7816164E-02  0.1186339E+00
        -11   -1    0    0    0    0  0.00000000000E+00  0.00000000000E+00  0.45593999997E+02  0.45594000000E+02  0.51100000000E-03 0.  1.
         11   -1    0    0    0    0 -0.00000000000E+00 -0.00000000000E+00 -0.45593999997E+02  0.45594000000E+02  0.51100000000E-03 0. -1.
    9900012    2    1    2    0    0  0.39344565104E+00 -0.11083933189E+01  0.98961735772E-01  0.90007691288E+02  0.89999952013E+02 0.  0.
         12    1    1    2    0    0 -0.39344565104E+00  0.11083933189E+01 -0.98961735772E-01  0.11803087117E+01  0.00000000000E+00 0. -1.
         11    1    3    3    0    0 -0.77593707751E+01  0.48941698161E+01  0.68078845335E+00  0.91991416009E+01  0.51100000000E-03 0. -1.
        -11    1    3    3    0    0 -0.34929556845E+02 -0.10567644697E+02  0.60153006068E+01  0.36985576885E+02  0.51100000000E-03 0.  1.
         12    1    3    3    0    0  0.43082373271E+02  0.45650815618E+01 -0.65971273244E+01  0.43822972803E+02  0.00000000000E+00 0. -1.
</event>
<event>
 7    1  0.2285268E-015  0.9000776E+02  0.7816164E-02  0.1186339E+00
        -11   -1    0    0    0    0  0.00000000000E+00  0.00000000000E+00  0.45593999997E+02  0.45594000000E+02  0.51100000000E-03 0. -1.
         11   -1    0    0    0    0 -0.00000000000E+00 -0.00000000000E+00 -0.45593999997E+02  0.45594000000E+02  0.51100000000E-03 0.  1.
    9900012    2    1    2    0    0  0.58238150979E+00  0.63896436099E+00 -0.80344415534E+00  0.90007760114E+02  0.90000021748E+02 0.  0.
         12    1    1    2    0    0 -0.58238150979E+00 -0.63896436099E+00  0.80344415534E+00  0.11802398859E+01  0.00000000000E+00 0. -1.
         11    1    3    3    0    0  0.13725582867E+02  0.22693125893E+02  0.28554381764E+02  0.38970787855E+02  0.51100000000E-03 0. -1.
        -11    1    3    3    0    0 -0.72883828790E+00  0.85318820848E+01 -0.80145236393E+01  0.11728461390E+02  0.51100000000E-03 0.  1.
        -12    1    3    3    0    0 -0.12414363069E+02 -0.30586043616E+02 -0.21343302280E+02  0.39308510869E+02  0.00000000000E+00 0.  1.
</event>
<event>
 7    1  0.2285268E-015  0.9000782E+02  0.7816164E-02  0.1186339E+00
        -11   -1    0    0    0    0  0.00000000000E+00  0.00000000000E+00  0.45593999997E+02  0.45594000000E+02  0.51100000000E-03 0. -1.
         11   -1    0    0    0    0 -0.00000000000E+00 -0.00000000000E+00 -0.45593999997E+02  0.45594000000E+02  0.51100000000E-03 0.  1.
    9900012    2    1    2    0    0  0.10546118508E+01 -0.23406812808E+00 -0.47522622112E+00  0.90007816114E+02  0.90000078486E+02 0.  0.
         12    1    1    2    0    0 -0.10546118508E+01  0.23406812808E+00  0.47522622112E+00  0.11801838864E+01  0.00000000000E+00 0. -1.
         11    1    3    3    0    0  0.85235843266E+01 -0.74037265128E+01  0.35894469289E+02  0.37628175373E+02  0.51100000000E-03 0. -1.
        -11    1    3    3    0    0 -0.41836362807E+01  0.72911896524E+01  0.57161646867E+01  0.10165569244E+02  0.51100000000E-03 0.  1.
        -12    1    3    3    0    0 -0.32853361951E+01 -0.12153126771E+00 -0.42085860197E+02  0.42214071496E+02  0.00000000000E+00 0.  1.
</event>
<event>
 7    1  0.2285268E-015  0.9000771E+02  0.7816164E-02  0.1186339E+00
        -11   -1    0    0    0    0  0.00000000000E+00  0.00000000000E+00  0.45593999997E+02  0.45594000000E+02  0.51100000000E-03 0.  1.
         11   -1    0    0    0    0 -0.00000000000E+00 -0.00000000000E+00 -0.45593999997E+02  0.45594000000E+02  0.51100000000E-03 0. -1.
    9900012    2    1    2    0    0 -0.64409566104E+00 -0.70262803521E+00  0.69609021579E+00  0.90007708949E+02  0.89999969907E+02 0.  0.
         12    1    1    2    0    0  0.64409566104E+00  0.70262803521E+00 -0.69609021579E+00  0.11802910509E+01  0.00000000000E+00 0. -1.
         11    1    3    3    0    0  0.10499822945E+02 -0.33787310711E+01  0.16565635492E+01  0.11153757599E+02  0.51100000000E-03 0. -1.
        -11    1    3    3    0    0  0.38632177047E+01  0.11581690089E+02  0.35982190285E+02  0.37997079024E+02  0.51100000000E-03 0.  1.
         12    1    3    3    0    0 -0.15007136311E+02 -0.89055870535E+01 -0.36942663618E+02  0.40856872326E+02  0.00000000000E+00 0. -1.
</event>
<event>
 7    1  0.2285268E-015  0.9000758E+02  0.7816164E-02  0.1186339E+00
        -11   -1    0    0    0    0  0.00000000000E+00  0.00000000000E+00  0.45593999997E+02  0.45594000000E+02  0.51100000000E-03 0.  1.
         11   -1    0    0    0    0 -0.00000000000E+00 -0.00000000000E+00 -0.45593999997E+02  0.45594000000E+02  0.51100000000E-03 0. -1.
    9900012    2    1    2    0    0  0.64309337324E+00 -0.98972312371E+00  0.16255378216E-01  0.90007582622E+02  0.89999841913E+02 0.  0.
         12    1    1    2    0    0 -0.64309337324E+00  0.98972312371E+00 -0.16255378216E-01  0.11804173777E+01  0.00000000000E+00 0. -1.
         11    1    3    3    0    0 -0.23697159292E+02  0.14966255885E+02 -0.23095638862E+02  0.36317388513E+02  0.51100000000E-03 0. -1.
        -11    1    3    3    0    0 -0.66969642272E+01  0.52543448651E+01 -0.16563320283E+01  0.86718455862E+01  0.51100000000E-03 0.  1.
        -12    1    3    3    0    0  0.31037216892E+02 -0.21210323874E+02  0.24768226268E+02  0.45018348523E+02  0.00000000000E+00 0.  1.
</event>
<event>
 7    1  0.2285268E-015  0.9000833E+02  0.7816164E-02  0.1186338E+00
        -11   -1    0    0    0    0  0.00000000000E+00  0.00000000000E+00  0.45593999997E+02  0.45594000000E+02  0.51100000000E-03 0.  1.
         11   -1    0    0    0    0 -0.00000000000E+00 -0.00000000000E+00 -0.45593999997E+02  0.45594000000E+02  0.51100000000E-03 0. -1.
    9900012    2    1    2    0    0  0.86836198062E+00  0.25665562045E+00  0.75610073733E+00  0.90008333538E+02  0.90000602739E+02 0.  0.
         12    1    1    2    0    0 -0.86836198062E+00 -0.25665562045E+00 -0.75610073733E+00  0.11796664621E+01  0.00000000000E+00 0. -1.
         11    1    3    3    0    0  0.90255304997E+01  0.32584963066E+01 -0.52884635682E+01  0.10956543531E+02  0.51100000000E-03 0. -1.
        -11    1    3    3    0    0  0.13417290225E+02  0.30648758918E+02 -0.11527492963E+02  0.35387189694E+02  0.51100000000E-03 0.  1.
         12    1    3    3    0    0 -0.21574458744E+02 -0.33650599604E+02  0.17572057268E+02  0.43664600312E+02  0.00000000000E+00 0. -1.
</event>
<event>
 7    1  0.2285268E-015  0.9000773E+02  0.7816164E-02  0.1186339E+00
        -11   -1    0    0    0    0  0.00000000000E+00  0.00000000000E+00  0.45593999997E+02  0.45594000000E+02  0.51100000000E-03 0. -1.
         11   -1    0    0    0    0 -0.00000000000E+00 -0.00000000000E+00 -0.45593999997E+02  0.45594000000E+02  0.51100000000E-03 0.  1.
    9900012    2    1    2    0    0  0.80571666288E+00  0.86247363507E+00 -0.26107247042E-02  0.90007725910E+02  0.89999987092E+02 0.  0.
         12    1    1    2    0    0 -0.80571666288E+00 -0.86247363507E+00  0.26107247042E-02  0.11802740902E+01  0.00000000000E+00 0. -1.
         11    1    3    3    0    0 -0.27542100583E+01  0.61605674062E+00 -0.91111400119E+01  0.95382425808E+01  0.51100000000E-03 0. -1.
        -11    1    3    3    0    0  0.17339635205E+02  0.26151746722E+02 -0.21524282121E+02  0.38050907043E+02  0.51100000000E-03 0.  1.
         12    1    3    3    0    0 -0.13779708484E+02 -0.25905329828E+02  0.30632811408E+02  0.42418576286E+02  0.00000000000E+00 0. -1.
</event>
<event>
 7    1  0.2285268E-015  0.9000710E+02  0.7816164E-02  0.1186340E+00
        -11   -1    0    0    0    0  0.00000000000E+00  0.00000000000E+00  0.45593999997E+02  0.45594000000E+02  0.51100000000E-03 0.  1.
         11   -1    0    0    0    0 -0.00000000000E+00 -0.00000000000E+00 -0.45593999997E+02  0.45594000000E+02  0.51100000000E-03 0. -1.
    9900012    2    1    2    0    0  0.73226797243E+00 -0.36872670172E+00  0.84991327406E+00  0.90007098506E+02  0.89999351404E+02 0.  0.
         12    1    1    2    0    0 -0.73226797243E+00  0.36872670172E+00 -0.84991327406E+00  0.11809014935E+01  0.00000000000E+00 0. -1.
         11    1    3    3    0    0 -0.15416493277E+02  0.27705375833E+02  0.17134465060E+02  0.36039506214E+02  0.51100000000E-03 0. -1.
        -11    1    3    3    0    0 -0.70899505194E+01  0.42934897158E+01  0.40586339890E+01  0.92289740722E+01  0.51100000000E-03 0.  1.
        -12    1    3    3    0    0  0.23238711769E+02 -0.32367592251E+02 -0.20343185775E+02  0.44738618220E+02  0.00000000000E+00 0.  1.
</event>
<event>
 7    1  0.3333505E-015  0.9000820E+02  0.7816164E-02  0.1186338E+00
        -11   -1    0    0    0    0  0.00000000000E+00  0.00000000000E+00  0.45593999997E+02  0.45594000000E+02  0.51100000000E-03 0.  1.
         11   -1    0    0    0    0 -0.00000000000E+00 -0.00000000000E+00 -0.45593999997E+02  0.45594000000E+02  0.51100000000E-03 0. -1.
    9900012    2    1    2    0    0 -0.61347970583E+00  0.12042769617E+00  0.10005317894E+01  0.90008201695E+02  0.90000469156E+02 0.  0.
         12    1    1    2    0    0  0.61347970583E+00 -0.12042769617E+00 -0.10005317894E+01  0.11797983052E+01  0.00000000000E+00 0. -1.
         11    1    3    3    0    0  0.85386351203E+00  0.74514952678E+01 -0.56675801930E+01  0.94008153970E+01  0.51100000000E-03 0. -1.
        -11    1    3    3    0    0  0.23267850594E+02  0.28008836148E+02  0.86483319475E+01  0.37425678609E+02  0.51100000000E-03 0.  1.
         12    1    3    3    0    0 -0.24735193812E+02 -0.35339903719E+02 -0.19802199651E+01  0.43181707689E+02  0.00000000000E+00 0. -1.
</event>
<event>
 7    1  0.2285268E-015  0.9000776E+02  0.7816164E-02  0.1186339E+00
        -11   -1    0    0    0    0  0.00000000000E+00  0.00000000000E+00  0.45593999997E+02  0.45594000000E+02  0.51100000000E-03 0. -1.
         11   -1    0    0    0    0 -0.00000000000E+00 -0.00000000000E+00 -0.45593999997E+02  0.45594000000E+02  0.51100000000E-03 0.  1.
    9900012    2    1    2    0    0  0.51260582821E+00 -0.10032806202E+01  0.35161160931E+00  0.90007759575E+02  0.90000021201E+02 0.  0.
         12    1    1    2    0    0 -0.51260582821E+00  0.10032806202E+01 -0.35161160931E+00  0.11802404254E+01  0.00000000000E+00 0. -1.
         11    1    3    3    0    0 -0.10707056557E+02 -0.89333885622E+01 -0.59879362758E+01  0.15175700064E+02  0.51100000000E-03 0. -1.
        -11    1    3    3    0    0  0.22370005074E+02 -0.19726454115E+02 -0.19283258419E+02  0.35516111477E+02  0.51100000000E-03 0.  1.
         12    1    3    3    0    0 -0.11150342689E+02  0.27656562057E+02  0.25622806304E+02  0.39315948033E+02  0.00000000000E+00 0. -1.
</event>
<event>
 7    1  0.2285268E-015  0.9000750E+02  0.7816164E-02  0.1186340E+00
        -11   -1    0    0    0    0  0.00000000000E+00  0.00000000000E+00  0.45593999997E+02  0.45594000000E+02  0.51100000000E-03 0.  1.
         11   -1    0    0    0    0 -0.00000000000E+00 -0.00000000000E+00 -0.45593999997E+02  0.45594000000E+02  0.51100000000E-03 0. -1.
    9900012    2    1    2    0    0  0.28642316719E+00 -0.17881527630E+00  0.11311824436E+01  0.90007497203E+02  0.89999755365E+02 0.  0.
         12    1    1    2    0    0 -0.28642316719E+00  0.17881527630E+00 -0.11311824436E+01  0.11805027973E+01  0.00000000000E+00 0. -1.
         11    1    3    3    0    0 -0.22520133959E+02  0.24801992014E+02  0.24936893713E+02  0.41762949006E+02  0.51100000000E-03 0. -1.
        -11    1    3    3    0    0  0.86689404690E+01  0.19025014049E+01  0.11288512287E+01  0.89467505725E+01  0.51100000000E-03 0.  1.
        -12    1    3    3    0    0  0.14137616657E+02 -0.26883308695E+02 -0.24934562498E+02  0.39297797624E+02  0.00000000000E+00 0.  1.
</event>
<event>
 7    1  0.2693488E-015  0.9000770E+02  0.7816164E-02  0.1186339E+00
        -11   -1    0    0    0    0  0.00000000000E+00  0.00000000000E+00  0.45593999997E+02  0.45594000000E+02  0.51100000000E-03 0.  1.
         11   -1    0    0    0    0 -0.00000000000E+00 -0.00000000000E+00 -0.45593999997E+02  0.45594000000E+02  0.51100000000E-03 0. -1.
    9900012    2    1    2    0    0 -0.26603608032E+00 -0.11498891318E+01 -0.96500943228E-02  0.90007697778E+02  0.89999958588E+02 0.  0.
         12    1    1    2    0    0  0.26603608032E+00  0.11498891318E+01  0.96500943228E-02  0.11803022222E+01  0.00000000000E+00 0. -1.
         11    1    3    3    0    0  0.87763929729E+01  0.21042324784E+01  0.14699517095E+01  0.91440486781E+01  0.51100000000E-03 0. -1.
        -11    1    3    3    0    0  0.51302538172E+00  0.26572217335E+02  0.27464001669E+02  0.38218023459E+02  0.51100000000E-03 0.  1.
         12    1    3    3    0    0 -0.95554544350E+01 -0.29826338945E+02 -0.28943603473E+02  0.42645625641E+02  0.00000000000E+00 0. -1.
</event>
<event>
 7    1  0.2285268E-015  0.9000776E+02  0.7816164E-02  0.1186339E+00
        -11   -1    0    0    0    0  0.00000000000E+00  0.00000000000E+00  0.45593999997E+02  0.45594000000E+02  0.51100000000E-03 0.  1.
         11   -1    0    0    0    0 -0.00000000000E+00 -0.00000000000E+00 -0.45593999997E+02  0.45594000000E+02  0.51100000000E-03 0. -1.
    9900012    2    1    2    0    0 -0.29113241861E+00 -0.10826537215E+01  0.36887096954E+00  0.90007761483E+02  0.90000023134E+02 0.  0.
         12    1    1    2    0    0  0.29113241861E+00  0.10826537215E+01 -0.36887096954E+00  0.11802385174E+01  0.00000000000E+00 0. -1.
         11    1    3    3    0    0 -0.38154270999E+01  0.72007231935E+01  0.75612172672E+00  0.81841076967E+01  0.51100000000E-03 0. -1.
        -11    1    3    3    0    0 -0.17526612065E+02  0.31934849510E+02 -0.25104679621E+00  0.36429106061E+02  0.51100000000E-03 0.  1.
         12    1    3    3    0    0  0.21050906746E+02 -0.40218226425E+02 -0.13620396098E+00  0.45394547724E+02  0.00000000000E+00 0. -1.
</event>
<event>
 7    1  0.2285268E-015  0.9000767E+02  0.7816164E-02  0.1186339E+00
        -11   -1    0    0    0    0  0.00000000000E+00  0.00000000000E+00  0.45593999997E+02  0.45594000000E+02  0.51100000000E-03 0.  1.
         11   -1    0    0    0    0 -0.00000000000E+00 -0.00000000000E+00 -0.45593999997E+02  0.45594000000E+02  0.51100000000E-03 0. -1.
    9900012    2    1    2    0    0  0.94222028106E+00 -0.34144514185E+00  0.62355112666E+00  0.90007669601E+02  0.89999930040E+02 0.  0.
         12    1    1    2    0    0 -0.94222028106E+00  0.34144514185E+00 -0.62355112666E+00  0.11803303989E+01  0.00000000000E+00 0. -1.
         11    1    3    3    0    0  0.77570809621E+00 -0.59286822520E+01 -0.56125402528E+01  0.82007075699E+01  0.51100000000E-03 0. -1.
        -11    1    3    3    0    0  0.26094488787E+02 -0.56546392647E+01  0.33296843297E+02  0.42679937490E+02  0.51100000000E-03 0.  1.
         12    1    3    3    0    0 -0.25927976602E+02  0.11241876375E+02 -0.27060751918E+02  0.39127024542E+02  0.00000000000E+00 0. -1.
</event>
<event>
 7    1  0.2285268E-015  0.9000774E+02  0.7816164E-02  0.1186339E+00
        -11   -1    0    0    0    0  0.00000000000E+00  0.00000000000E+00  0.45593999997E+02  0.45594000000E+02  0.51100000000E-03 0.  1.
         11   -1    0    0    0    0 -0.00000000000E+00 -0.00000000000E+00 -0.45593999997E+02  0.45594000000E+02  0.51100000000E-03 0. -1.
    9900012    2    1    2    0    0 -0.10993884020E+01  0.29678672519E+00  0.31028744247E+00  0.90007739217E+02  0.90000000575E+02 0.  0.
         12    1    1    2    0    0  0.10993884020E+01 -0.29678672519E+00 -0.31028744247E+00  0.11802607829E+01  0.00000000000E+00 0. -1.
         11    1    3    3    0    0 -0.95470857972E+01  0.33718965596E+01  0.21176865295E+01  0.10344135059E+02  0.51100000000E-03 0. -1.
        -11    1    3    3    0    0 -0.84577243947E+01  0.17921120373E+02  0.31253287650E+02  0.37006319008E+02  0.51100000000E-03 0.  1.
         12    1    3    3    0    0  0.16905421790E+02 -0.20996230207E+02 -0.33060686737E+02  0.42657285149E+02  0.00000000000E+00 0. -1.
</event>
<event>
 7    1  0.2285268E-015  0.9000784E+02  0.7816164E-02  0.1186339E+00
        -11   -1    0    0    0    0  0.00000000000E+00  0.00000000000E+00  0.45593999997E+02  0.45594000000E+02  0.51100000000E-03 0.  1.
         11   -1    0    0    0    0 -0.00000000000E+00 -0.00000000000E+00 -0.45593999997E+02  0.45594000000E+02  0.51100000000E-03 0. -1.
    9900012    2    1    2    0    0  0.11375321870E+01 -0.23540111498E+00  0.20830570694E+00  0.90007837118E+02  0.90000099767E+02 0.  0.
         12    1    1    2    0    0 -0.11375321870E+01  0.23540111498E+00 -0.20830570694E+00  0.11801628824E+01  0.00000000000E+00 0. -1.
         11    1    3    3    0    0 -0.75208244025E+01 -0.45917986603E-01  0.57289006997E+01  0.94543752646E+01  0.51100000000E-03 0. -1.
        -11    1    3    3    0    0 -0.33536522535E+02 -0.13519254544E+01  0.10857961504E+02  0.35276357160E+02  0.51100000000E-03 0.  1.
         12    1    3    3    0    0  0.42194879124E+02  0.11624423260E+01 -0.16378556497E+02  0.45277104693E+02  0.00000000000E+00 0. -1.
</event>
<event>
 7    1  0.2285268E-015  0.9000770E+02  0.7816164E-02  0.1186339E+00
        -11   -1    0    0    0    0  0.00000000000E+00  0.00000000000E+00  0.45593999997E+02  0.45594000000E+02  0.51100000000E-03 0. -1.
         11   -1    0    0    0    0 -0.00000000000E+00 -0.00000000000E+00 -0.45593999997E+02  0.45594000000E+02  0.51100000000E-03 0.  1.
    9900012    2    1    2    0    0  0.88531656518E+00  0.55942356956E+00 -0.54439839796E+00  0.90007699290E+02  0.89999960120E+02 0.  0.
         12    1    1    2    0    0 -0.88531656518E+00 -0.55942356956E+00  0.54439839796E+00  0.11803007102E+01  0.00000000000E+00 0. -1.
         11    1    3    3    0    0  0.48342336380E+01  0.43771434680E+01 -0.63180118044E+01  0.90800040324E+01  0.51100000000E-03 0. -1.
        -11    1    3    3    0    0  0.13173725546E+02  0.23513235175E+02 -0.24698644810E+02  0.36557384054E+02  0.51100000000E-03 0.  1.
         12    1    3    3    0    0 -0.17122642618E+02 -0.27330955073E+02  0.30472258217E+02  0.44370311203E+02  0.00000000000E+00 0. -1.
</event>
<event>
 7    1  0.2285268E-015  0.9000769E+02  0.7816164E-02  0.1186339E+00
        -11   -1    0    0    0    0  0.00000000000E+00  0.00000000000E+00  0.45593999997E+02  0.45594000000E+02  0.51100000000E-03 0. -1.
         11   -1    0    0    0    0 -0.00000000000E+00 -0.00000000000E+00 -0.45593999997E+02  0.45594000000E+02  0.51100000000E-03 0.  1.
    9900012    2    1    2    0    0  0.37948132670E-02 -0.84591998922E+00 -0.82313057923E+00  0.90007686915E+02  0.89999947582E+02 0.  0.
         12    1    1    2    0    0 -0.37948132670E-02  0.84591998922E+00  0.82313057923E+00  0.11803130853E+01  0.00000000000E+00 0. -1.
         11    1    3    3    0    0  0.33406845561E+02  0.33659553979E+01 -0.61187777552E+00  0.33581563107E+02  0.51100000000E-03 0.  1.
        -11    1    3    3    0    0  0.75703185779E+01 -0.12134945977E+02 -0.29508603233E+01  0.14603910920E+02  0.51100000000E-03 0. -1.
         12    1    3    3    0    0 -0.40973369325E+02  0.79230705902E+01  0.27396075195E+01  0.41822212888E+02  0.00000000000E+00 0. -1.
</event>
<event>
 7    1  0.2285268E-015  0.9000773E+02  0.7816164E-02  0.1186339E+00
        -11   -1    0    0    0    0  0.00000000000E+00  0.00000000000E+00  0.45593999997E+02  0.45594000000E+02  0.51100000000E-03 0.  1.
         11   -1    0    0    0    0 -0.00000000000E+00 -0.00000000000E+00 -0.45593999997E+02  0.45594000000E+02  0.51100000000E-03 0. -1.
    9900012    2    1    2    0    0  0.56058741443E-01  0.88899924770E+00  0.77431495394E+00  0.90007734821E+02  0.89999996121E+02 0.  0.
         12    1    1    2    0    0 -0.56058741443E-01 -0.88899924770E+00 -0.77431495394E+00  0.11802651790E+01  0.00000000000E+00 0. -1.
         11    1    3    3    0    0 -0.12641688717E+02 -0.11031576038E+02 -0.31473728212E+02  0.35666560408E+02  0.51100000000E-03 0. -1.
        -11    1    3    3    0    0 -0.10146163720E+02 -0.59003632513E+01  0.10798210737E+01  0.11786642378E+02  0.51100000000E-03 0.  1.
        -12    1    3    3    0    0  0.22843911179E+02  0.17820938537E+02  0.31168222093E+02  0.42554532035E+02  0.00000000000E+00 0.  1.
</event>
<event>
 7    1  0.2285268E-015  0.9000783E+02  0.7816164E-02  0.1186339E+00
        -11   -1    0    0    0    0  0.00000000000E+00  0.00000000000E+00  0.45593999997E+02  0.45594000000E+02  0.51100000000E-03 0. -1.
         11   -1    0    0    0    0 -0.00000000000E+00 -0.00000000000E+00 -0.45593999997E+02  0.45594000000E+02  0.51100000000E-03 0.  1.
    9900012    2    1    2    0    0  0.68622347198E+00 -0.73281663323E+00 -0.62039185221E+00  0.90007826741E+02  0.90000089254E+02 0.  0.
         12    1    1    2    0    0 -0.68622347198E+00  0.73281663323E+00  0.62039185221E+00  0.11801732592E+01  0.00000000000E+00 0. -1.
         11    1    3    3    0    0  0.32071646961E+02  0.16488983571E+02  0.23934590700E+01  0.36141468767E+02  0.51100000000E-03 0. -1.
        -11    1    3    3    0    0  0.85500274786E+01  0.27606487729E+01 -0.19714714805E+01  0.91984157109E+01  0.51100000000E-03 0.  1.
        -12    1    3    3    0    0 -0.39935450968E+02 -0.19982448977E+02 -0.10423794417E+01  0.44667942263E+02  0.00000000000E+00 0.  1.
</event>
<event>
 7    1  0.2443373E-015  0.9000770E+02  0.7816164E-02  0.1186339E+00
        -11   -1    0    0    0    0  0.00000000000E+00  0.00000000000E+00  0.45593999997E+02  0.45594000000E+02  0.51100000000E-03 0. -1.
         11   -1    0    0    0    0 -0.00000000000E+00 -0.00000000000E+00 -0.45593999997E+02  0.45594000000E+02  0.51100000000E-03 0.  1.
    9900012    2    1    2    0    0  0.51125984406E+00  0.10571235598E+01  0.11918764410E+00  0.90007702350E+02  0.89999963221E+02 0.  0.
         12    1    1    2    0    0 -0.51125984406E+00 -0.10571235598E+01 -0.11918764410E+00  0.11802976503E+01  0.00000000000E+00 0. -1.
         11    1    3    3    0    0 -0.11254961525E+01 -0.92786751947E+01 -0.20467119816E+00  0.93489275064E+01  0.51100000000E-03 0. -1.
        -11    1    3    3    0    0 -0.24420539624E+02 -0.19508434645E+02  0.19294972053E+02  0.36731971423E+02  0.51100000000E-03 0.  1.
         12    1    3    3    0    0  0.26057295621E+02  0.29844233399E+02 -0.18971113211E+02  0.43926803420E+02  0.00000000000E+00 0. -1.
</event>
<event>
 7    1  0.2285268E-015  0.9000781E+02  0.7816164E-02  0.1186339E+00
        -11   -1    0    0    0    0  0.00000000000E+00  0.00000000000E+00  0.45593999997E+02  0.45594000000E+02  0.51100000000E-03 0. -1.
         11   -1    0    0    0    0 -0.00000000000E+00 -0.00000000000E+00 -0.45593999997E+02  0.45594000000E+02  0.51100000000E-03 0.  1.
    9900012    2    1    2    0    0  0.27790323807E+00  0.60968126453E+00 -0.97154291332E+00  0.90007814808E+02  0.90000077164E+02 0.  0.
         12    1    1    2    0    0 -0.27790323807E+00 -0.60968126453E+00  0.97154291332E+00  0.11801851916E+01  0.00000000000E+00 0. -1.
         11    1    3    3    0    0 -0.69977684734E+01 -0.49110909080E+01 -0.43541887672E+01  0.95940886798E+01  0.51100000000E-03 0. -1.
        -11    1    3    3    0    0  0.19842404949E+02 -0.32353641786E+02  0.11569307276E+02  0.39677802889E+02  0.51100000000E-03 0.  1.
         12    1    3    3    0    0 -0.12566733238E+02  0.37874413958E+02 -0.81866614224E+01  0.40735923240E+02  0.00000000000E+00 0. -1.
</event>
<event>
 7    1  0.2285268E-015  0.9000773E+02  0.7816164E-02  0.1186339E+00
        -11   -1    0    0    0    0  0.00000000000E+00  0.00000000000E+00  0.45593999997E+02  0.45594000000E+02  0.51100000000E-03 0.  1.
         11   -1    0    0    0    0 -0.00000000000E+00 -0.00000000000E+00 -0.45593999997E+02  0.45594000000E+02  0.51100000000E-03 0. -1.
    9900012    2    1    2    0    0 -0.20390497832E+00 -0.10761306998E+01  0.43978370294E+00  0.90007727053E+02  0.89999988250E+02 0.  0.
         12    1    1    2    0    0  0.20390497832E+00  0.10761306998E+01 -0.43978370294E+00  0.11802729466E+01  0.00000000000E+00 0. -1.
         11    1    3    3    0    0  0.69698287520E+01 -0.60385753063E+01  0.34233207326E+00  0.92282228014E+01  0.51100000000E-03 0. -1.
        -11    1    3    3    0    0 -0.33620524521E+02 -0.20896534058E+02  0.12906463774E+02  0.41636301614E+02  0.51100000000E-03 0.  1.
         12    1    3    3    0    0  0.26446790790E+02  0.25858978664E+02 -0.12809012144E+02  0.39143202638E+02  0.00000000000E+00 0. -1.
</event>
<event>
 7    1  0.2285268E-015  0.9000857E+02  0.7816164E-02  0.1186337E+00
        -11   -1    0    0    0    0  0.00000000000E+00  0.00000000000E+00  0.45593999997E+02  0.45594000000E+02  0.51100000000E-03 0.  1.
         11   -1    0    0    0    0 -0.00000000000E+00 -0.00000000000E+00 -0.45593999997E+02  0.45594000000E+02  0.51100000000E-03 0. -1.
    9900012    2    1    2    0    0  0.10566292937E+00 -0.76442854673E+00  0.89193650680E+00  0.90008565224E+02  0.90000837481E+02 0.  0.
         12    1    1    2    0    0 -0.10566292937E+00  0.76442854673E+00 -0.89193650680E+00  0.11794347756E+01  0.00000000000E+00 0. -1.
         11    1    3    3    0    0  0.93385124528E+00 -0.47774549715E+01 -0.74670744004E+01  0.89136611173E+01  0.51100000000E-03 0. -1.
        -11    1    3    3    0    0  0.37457854105E+01 -0.37503193232E+02 -0.30042139036E+01  0.37809333667E+02  0.51100000000E-03 0.  1.
         12    1    3    3    0    0 -0.45739737264E+01  0.41516219656E+02  0.11363224811E+02  0.43285570440E+02  0.00000000000E+00 0. -1.
</event>
<event>
 7    1  0.2285268E-015  0.9000780E+02  0.7816164E-02  0.1186339E+00
        -11   -1    0    0    0    0  0.00000000000E+00  0.00000000000E+00  0.45593999997E+02  0.45594000000E+02  0.51100000000E-03 0.  1.
         11   -1    0    0    0    0 -0.00000000000E+00 -0.00000000000E+00 -0.45593999997E+02  0.45594000000E+02  0.51100000000E-03 0. -1.
    9900012    2    1    2    0    0 -0.89051087781E+00  0.46151937135E+00  0.62197891108E+00  0.90007801915E+02  0.90000064100E+02 0.  0.
         12    1    1    2    0    0  0.89051087781E+00 -0.46151937135E+00 -0.62197891108E+00  0.11801980848E+01  0.00000000000E+00 0. -1.
         11    1    3    3    0    0 -0.22312903243E+02 -0.31865493644E+02  0.12566924928E+01  0.38921133239E+02  0.51100000000E-03 0. -1.
        -11    1    3    3    0    0  0.16130340810E+01 -0.59993184081E+01  0.44547558177E+01  0.76445111005E+01  0.51100000000E-03 0.  1.
        -12    1    3    3    0    0  0.19809358284E+02  0.38326331424E+02 -0.50894693995E+01  0.43442157576E+02  0.00000000000E+00 0.  1.
</event>
<event>
 7    1  0.2285268E-015  0.9000766E+02  0.7816164E-02  0.1186339E+00
        -11   -1    0    0    0    0  0.00000000000E+00  0.00000000000E+00  0.45593999997E+02  0.45594000000E+02  0.51100000000E-03 0.  1.
         11   -1    0    0    0    0 -0.00000000000E+00 -0.00000000000E+00 -0.45593999997E+02  0.45594000000E+02  0.51100000000E-03 0. -1.
    9900012    2    1    2    0    0 -0.11534281770E+01 -0.24716083248E+00 -0.41395463209E-01  0.90007661650E+02  0.89999921984E+02 0.  0.
         12    1    1    2    0    0  0.11534281770E+01  0.24716083248E+00  0.41395463209E-01  0.11803383502E+01  0.00000000000E+00 0. -1.
         11    1    3    3    0    0 -0.19335834946E+01 -0.26023368077E+02  0.80142809996E+01  0.27298042629E+02  0.51100000000E-03 0. -1.
        -11    1    3    3    0    0 -0.82049783094E+01 -0.37238958951E+01  0.19419059454E+02  0.21407684135E+02  0.51100000000E-03 0.  1.
        -12    1    3    3    0    0  0.89851336271E+01  0.29500103139E+02 -0.27474735917E+02  0.41301934885E+02  0.00000000000E+00 0.  1.
</event>
<event>
 7    1  0.2285268E-015  0.9000814E+02  0.7816164E-02  0.1186338E+00
        -11   -1    0    0    0    0  0.00000000000E+00  0.00000000000E+00  0.45593999997E+02  0.45594000000E+02  0.51100000000E-03 0.  1.
         11   -1    0    0    0    0 -0.00000000000E+00 -0.00000000000E+00 -0.45593999997E+02  0.45594000000E+02  0.51100000000E-03 0. -1.
    9900012    2    1    2    0    0  0.50346437577E+00  0.91855078960E+00 -0.54300113962E+00  0.90008143158E+02  0.90000409846E+02 0.  0.
         12    1    1    2    0    0 -0.50346437577E+00 -0.91855078960E+00  0.54300113962E+00  0.11798568423E+01  0.00000000000E+00 0. -1.
         11    1    3    3    0    0  0.41411163229E+01 -0.42865989329E+01 -0.54622489596E+01  0.80845493857E+01  0.51100000000E-03 0. -1.
        -11    1    3    3    0    0 -0.17308092198E+01  0.43445784310E+02  0.31647502363E+01  0.43595269459E+02  0.51100000000E-03 0.  1.
         12    1    3    3    0    0 -0.19068427274E+01 -0.38240634588E+02  0.17544975837E+01  0.38328324313E+02  0.00000000000E+00 0. -1.
</event>
<event>
 7    1  0.2285268E-015  0.9000773E+02  0.7816164E-02  0.1186339E+00
        -11   -1    0    0    0    0  0.00000000000E+00  0.00000000000E+00  0.45593999997E+02  0.45594000000E+02  0.51100000000E-03 0. -1.
         11   -1    0    0    0    0 -0.00000000000E+00 -0.00000000000E+00 -0.45593999997E+02  0.45594000000E+02  0.51100000000E-03 0.  1.
    9900012    2    1    2    0    0  0.28488383709E+00 -0.22218025266E-01 -0.11451522465E+01  0.90007734729E+02  0.89999996028E+02 0.  0.
         12    1    1    2    0    0 -0.28488383709E+00  0.22218025266E-01  0.11451522465E+01  0.11802652706E+01  0.00000000000E+00 0. -1.
         11    1    3    3    0    0  0.48550564835E+01 -0.10999511422E+01  0.35218076300E+02  0.35568165042E+02  0.51100000000E-03 0. -1.
        -11    1    3    3    0    0  0.51392059323E+00 -0.38073495004E+01  0.83407277413E+01  0.91830149793E+01  0.51100000000E-03 0.  1.
        -12    1    3    3    0    0 -0.50840932396E+01  0.48850826174E+01 -0.44703956288E+02  0.45256554708E+02  0.00000000000E+00 0.  1.
</event>
<event>
 7    1  0.3701792E-015  0.9000767E+02  0.7816164E-02  0.1186339E+00
        -11   -1    0    0    0    0  0.00000000000E+00  0.00000000000E+00  0.45593999997E+02  0.45594000000E+02  0.51100000000E-03 0. -1.
         11   -1    0    0    0    0 -0.00000000000E+00 -0.00000000000E+00 -0.45593999997E+02  0.45594000000E+02  0.51100000000E-03 0.  1.
    9900012    2    1    2    0    0 -0.92099404247E+00 -0.72667972611E+00 -0.12997557051E+00  0.90007666530E+02  0.89999926929E+02 0.  0.
         12    1    1    2    0    0  0.92099404247E+00  0.72667972611E+00  0.12997557051E+00  0.11803334696E+01  0.00000000000E+00 0. -1.
         11    1    3    3    0    0  0.64868951884E+01 -0.69377725413E+01 -0.19111032083E+01  0.96883854565E+01  0.51100000000E-03 0. -1.
        -11    1    3    3    0    0 -0.25076508153E+02 -0.86259403942E+01 -0.30642891043E+02  0.40524373907E+02  0.51100000000E-03 0.  1.
         12    1    3    3    0    0  0.17668618922E+02  0.14837033209E+02  0.32424018680E+02  0.39794907167E+02  0.00000000000E+00 0. -1.
</event>
<event>
 7    1  0.2285268E-015  0.9000785E+02  0.7816164E-02  0.1186339E+00
        -11   -1    0    0    0    0  0.00000000000E+00  0.00000000000E+00  0.45593999997E+02  0.45594000000E+02  0.51100000000E-03 0.  1.
         11   -1    0    0    0    0 -0.00000000000E+00 -0.00000000000E+00 -0.45593999997E+02  0.45594000000E+02  0.51100000000E-03 0. -1.
    9900012    2    1    2    0    0  0.86670093775E+00 -0.77190140124E+00  0.21387732528E+00  0.90007853484E+02  0.90000116350E+02 0.  0.
         12    1    1    2    0    0 -0.86670093775E+00  0.77190140124E+00 -0.21387732528E+00  0.11801465159E+01  0.00000000000E+00 0. -1.
         11    1    3    3    0    0 -0.76121687759E+00  0.28645863366E+02 -0.27904129435E+02  0.39997567162E+02  0.51100000000E-03 0. -1.
        -11    1    3    3    0    0 -0.56223098826E+01 -0.52195631321E+01 -0.43918227142E+01  0.88398141790E+01  0.51100000000E-03 0.  1.
        -12    1    3    3    0    0  0.72502276979E+01 -0.24198201635E+02  0.32509829474E+02  0.41170472143E+02  0.00000000000E+00 0.  1.
</event>
<event>
 7    1  0.2285268E-015  0.9000780E+02  0.7816164E-02  0.1186339E+00
        -11   -1    0    0    0    0  0.00000000000E+00  0.00000000000E+00  0.45593999997E+02  0.45594000000E+02  0.51100000000E-03 0. -1.
         11   -1    0    0    0    0 -0.00000000000E+00 -0.00000000000E+00 -0.45593999997E+02  0.45594000000E+02  0.51100000000E-03 0.  1.
    9900012    2    1    2    0    0  0.51290919778E+00  0.10537911642E+01  0.13902517369E+00  0.90007796771E+02  0.90000058888E+02 0.  0.
         12    1    1    2    0    0 -0.51290919778E+00 -0.10537911642E+01 -0.13902517369E+00  0.11802032291E+01  0.00000000000E+00 0. -1.
         11    1    3    3    0    0  0.32847445287E+02  0.15600311353E+02  0.13412337151E+02  0.38758420560E+02  0.51100000000E-03 0. -1.
        -11    1    3    3    0    0  0.37624106973E+01 -0.51863706659E+01  0.64265064812E+01  0.90749193249E+01  0.51100000000E-03 0.  1.
        -12    1    3    3    0    0 -0.36096946786E+02 -0.93601495226E+01 -0.19699818459E+02  0.42174456886E+02  0.00000000000E+00 0.  1.
</event>
<event>
 7    1  0.2971622E-015  0.9000768E+02  0.7816164E-02  0.1186339E+00
        -11   -1    0    0    0    0  0.00000000000E+00  0.00000000000E+00  0.45593999997E+02  0.45594000000E+02  0.51100000000E-03 0. -1.
         11   -1    0    0    0    0 -0.00000000000E+00 -0.00000000000E+00 -0.45593999997E+02  0.45594000000E+02  0.51100000000E-03 0.  1.
    9900012    2    1    2    0    0 -0.12249733445E+00 -0.95594201789E+00 -0.68142091191E+00  0.90007675808E+02  0.89999936329E+02 0.  0.
         12    1    1    2    0    0  0.12249733445E+00  0.95594201789E+00  0.68142091191E+00  0.11803241918E+01  0.00000000000E+00 0. -1.
         11    1    3    3    0    0 -0.54992760495E+01  0.52417286800E+01 -0.51580089447E+01  0.91827454042E+01  0.51100000000E-03 0. -1.
        -11    1    3    3    0    0  0.25978844710E+02  0.20611053941E+02 -0.20323361178E+02  0.38894150291E+02  0.51100000000E-03 0.  1.
         12    1    3    3    0    0 -0.20602065995E+02 -0.26808724639E+02  0.24799949211E+02  0.41930780113E+02  0.00000000000E+00 0. -1.
</event>
<event>
 7    1  0.2285268E-015  0.9000768E+02  0.7816164E-02  0.1186339E+00
        -11   -1    0    0    0    0  0.00000000000E+00  0.00000000000E+00  0.45593999997E+02  0.45594000000E+02  0.51100000000E-03 0. -1.
         11   -1    0    0    0    0 -0.00000000000E+00 -0.00000000000E+00 -0.45593999997E+02  0.45594000000E+02  0.51100000000E-03 0.  1.
    9900012    2    1    2    0    0 -0.30349631963E+00 -0.79477274897E+00 -0.81815938760E+00  0.90007678636E+02  0.89999939194E+02 0.  0.
         12    1    1    2    0    0  0.30349631963E+00  0.79477274897E+00  0.81815938760E+00  0.11803213639E+01  0.00000000000E+00 0. -1.
         11    1    3    3    0    0 -0.30213256441E+01  0.83738642829E+01  0.42868849623E+01  0.98806576004E+01  0.51100000000E-03 0. -1.
        -11    1    3    3    0    0  0.33138103072E+02  0.18663154114E+02  0.28375685260E+01  0.38137894437E+02  0.51100000000E-03 0.  1.
         12    1    3    3    0    0 -0.30420273747E+02 -0.27831791146E+02 -0.79426128758E+01  0.41989126599E+02  0.00000000000E+00 0. -1.
</event>
<event>
 7    1  0.2285268E-015  0.9000766E+02  0.7816164E-02  0.1186339E+00
        -11   -1    0    0    0    0  0.00000000000E+00  0.00000000000E+00  0.45593999997E+02  0.45594000000E+02  0.51100000000E-03 0. -1.
         11   -1    0    0    0    0 -0.00000000000E+00 -0.00000000000E+00 -0.45593999997E+02  0.45594000000E+02  0.51100000000E-03 0.  1.
    9900012    2    1    2    0    0 -0.66227250105E+00  0.18828964755E+00 -0.95871991381E+00  0.90007660333E+02  0.89999920649E+02 0.  0.
         12    1    1    2    0    0  0.66227250105E+00 -0.18828964755E+00  0.95871991381E+00  0.11803396673E+01  0.00000000000E+00 0. -1.
         11    1    3    3    0    0 -0.34540854191E+01 -0.30922973939E+02  0.22193320767E+02  0.38219164175E+02  0.51100000000E-03 0. -1.
        -11    1    3    3    0    0 -0.81043824376E+00  0.75203961852E+01  0.89944977103E+01  0.11752198018E+02  0.51100000000E-03 0.  1.
        -12    1    3    3    0    0  0.36022511618E+01  0.23590867401E+02 -0.32146538391E+02  0.40036298140E+02  0.00000000000E+00 0.  1.
</event>
<event>
 7    1  0.2285268E-015  0.9000772E+02  0.7816164E-02  0.1186339E+00
        -11   -1    0    0    0    0  0.00000000000E+00  0.00000000000E+00  0.45593999997E+02  0.45594000000E+02  0.51100000000E-03 0.  1.
         11   -1    0    0    0    0 -0.00000000000E+00 -0.00000000000E+00 -0.45593999997E+02  0.45594000000E+02  0.51100000000E-03 0. -1.
    9900012    2    1    2    0    0  0.28813486378E+00 -0.77377309330E+00 -0.84339555463E+00  0.90007719287E+02  0.89999980382E+02 0.  0.
         12    1    1    2    0    0 -0.28813486378E+00  0.77377309330E+00  0.84339555463E+00  0.11802807129E+01  0.00000000000E+00 0. -1.
         11    1    3    3    0    0  0.10593606894E+02 -0.49416423203E+01 -0.60284247211E+00  0.11705031190E+02  0.51100000000E-03 0. -1.
        -11    1    3    3    0    0  0.21717711813E+02  0.90479515218E+01  0.27118669287E+02  0.35901903255E+02  0.51100000000E-03 0.  1.
         12    1    3    3    0    0 -0.32023183843E+02 -0.48800822948E+01 -0.27359222370E+02  0.42400784843E+02  0.00000000000E+00 0. -1.
</event>
<event>
 7    1  0.2285268E-015  0.9000772E+02  0.7816164E-02  0.1186339E+00
        -11   -1    0    0    0    0  0.00000000000E+00  0.00000000000E+00  0.45593999997E+02  0.45594000000E+02  0.51100000000E-03 0.  1.
         11   -1    0    0    0    0 -0.00000000000E+00 -0.00000000000E+00 -0.45593999997E+02  0.45594000000E+02  0.51100000000E-03 0. -1.
    9900012    2    1    2    0    0  0.45779826907E+00 -0.28476247400E+00  0.10499504083E+01  0.90007718346E+02  0.89999979429E+02 0.  0.
         12    1    1    2    0    0 -0.45779826907E+00  0.28476247400E+00 -0.10499504083E+01  0.11802816535E+01  0.00000000000E+00 0. -1.
         11    1    3    3    0    0 -0.17642254255E+01  0.78934762988E+01 -0.60975883553E+01  0.10129167954E+02  0.51100000000E-03 0. -1.
        -11    1    3    3    0    0  0.26786494950E+02 -0.13518760282E+02  0.32460718099E+02  0.44203748835E+02  0.51100000000E-03 0.  1.
         12    1    3    3    0    0 -0.24564471256E+02  0.53405215094E+01 -0.25313179336E+02  0.35674801557E+02  0.00000000000E+00 0. -1.
</event>
<event>
 7    1  0.2285268E-015  0.9000781E+02  0.7816164E-02  0.1186339E+00
        -11   -1    0    0    0    0  0.00000000000E+00  0.00000000000E+00  0.45593999997E+02  0.45594000000E+02  0.51100000000E-03 0.  1.
         11   -1    0    0    0    0 -0.00000000000E+00 -0.00000000000E+00 -0.45593999997E+02  0.45594000000E+02  0.51100000000E-03 0. -1.
    9900012    2    1    2    0    0 -0.10115017217E+01 -0.45425629602E+00  0.40418248814E+00  0.90007810185E+02  0.90000072479E+02 0.  0.
         12    1    1    2    0    0  0.10115017217E+01  0.45425629602E+00 -0.40418248814E+00  0.11801898149E+01  0.00000000000E+00 0. -1.
         11    1    3    3    0    0 -0.38840759493E+01 -0.77044636451E+00  0.62707175992E+01  0.74163018446E+01  0.51100000000E-03 0. -1.
        -11    1    3    3    0    0  0.24089188261E+02  0.24088498021E+02  0.21756680547E+02  0.40421502652E+02  0.51100000000E-03 0.  1.
         12    1    3    3    0    0 -0.21216614034E+02 -0.23772307952E+02 -0.27623215658E+02  0.42170005688E+02  0.00000000000E+00 0. -1.
</event>
<event>
 7    1  0.2285268E-015  0.9000772E+02  0.7816164E-02  0.1186339E+00
        -11   -1    0    0    0    0  0.00000000000E+00  0.00000000000E+00  0.45593999997E+02  0.45594000000E+02  0.51100000000E-03 0.  1.
         11   -1    0    0    0    0 -0.00000000000E+00 -0.00000000000E+00 -0.45593999997E+02  0.45594000000E+02  0.51100000000E-03 0. -1.
    9900012    2    1    2    0    0  0.70438695522E+00 -0.44165336656E+00  0.83776096389E+00  0.90007719478E+02  0.89999980575E+02 0.  0.
         12    1    1    2    0    0 -0.70438695522E+00  0.44165336656E+00 -0.83776096389E+00  0.11802805224E+01  0.00000000000E+00 0. -1.
         11    1    3    3    0    0  0.80789222466E+01 -0.19912463461E+01  0.21262598795E+01  0.85880747559E+01  0.51100000000E-03 0. -1.
        -11    1    3    3    0    0  0.24345787687E+02 -0.25242683220E+02  0.13157806328E+02  0.37457152880E+02  0.51100000000E-03 0.  1.
         12    1    3    3    0    0 -0.31720322978E+02  0.26792276199E+02 -0.14446305243E+02  0.43962491842E+02  0.00000000000E+00 0. -1.
</event>
<event>
 7    1  0.2285268E-015  0.9000773E+02  0.7816164E-02  0.1186339E+00
        -11   -1    0    0    0    0  0.00000000000E+00  0.00000000000E+00  0.45593999997E+02  0.45594000000E+02  0.51100000000E-03 0.  1.
         11   -1    0    0    0    0 -0.00000000000E+00 -0.00000000000E+00 -0.45593999997E+02  0.45594000000E+02  0.51100000000E-03 0. -1.
    9900012    2    1    2    0    0  0.10562802341E+01 -0.40854488011E+00  0.33225321010E+00  0.90007733484E+02  0.89999994766E+02 0.  0.
         12    1    1    2    0    0 -0.10562802341E+01  0.40854488011E+00 -0.33225321010E+00  0.11802665155E+01  0.00000000000E+00 0. -1.
         11    1    3    3    0    0  0.16877072220E+02 -0.71499131082E+01 -0.15926148959E+02  0.24281660674E+02  0.51100000000E-03 0. -1.
        -11    1    3    3    0    0  0.50442630141E+01  0.28896928203E+02  0.19341492275E+02  0.35136453614E+02  0.51100000000E-03 0.  1.
         12    1    3    3    0    0 -0.20865055000E+02 -0.22155559975E+02 -0.30830901061E+01  0.30589619196E+02  0.00000000000E+00 0. -1.
</event>
<event>
 7    1  0.2285268E-015  0.9000777E+02  0.7816164E-02  0.1186339E+00
        -11   -1    0    0    0    0  0.00000000000E+00  0.00000000000E+00  0.45593999997E+02  0.45594000000E+02  0.51100000000E-03 0. -1.
         11   -1    0    0    0    0 -0.00000000000E+00 -0.00000000000E+00 -0.45593999997E+02  0.45594000000E+02  0.51100000000E-03 0.  1.
    9900012    2    1    2    0    0  0.13752865510E+00 -0.11461344182E+01  0.24578555687E+00  0.90007767491E+02  0.90000029222E+02 0.  0.
         12    1    1    2    0    0 -0.13752865510E+00  0.11461344182E+01 -0.24578555687E+00  0.11802325091E+01  0.00000000000E+00 0. -1.
         11    1    3    3    0    0  0.35228340445E+00  0.17117087303E+01 -0.86946565639E+01  0.88685457320E+01  0.51100000000E-03 0. -1.
        -11    1    3    3    0    0 -0.11851660249E+02 -0.44579289381E+01 -0.34178648557E+02  0.36448799686E+02  0.51100000000E-03 0.  1.
         12    1    3    3    0    0  0.11636905500E+02  0.16000857896E+01  0.43119090678E+02  0.44690422073E+02  0.00000000000E+00 0. -1.
</event>
<event>
 7    1  0.2285268E-015  0.9000776E+02  0.7816164E-02  0.1186339E+00
        -11   -1    0    0    0    0  0.00000000000E+00  0.00000000000E+00  0.45593999997E+02  0.45594000000E+02  0.51100000000E-03 0.  1.
         11   -1    0    0    0    0 -0.00000000000E+00 -0.00000000000E+00 -0.45593999997E+02  0.45594000000E+02  0.51100000000E-03 0. -1.
    9900012    2    1    2    0    0  0.10903111452E+01  0.44224029501E+00 -0.92798876265E-01  0.90007759981E+02  0.90000021612E+02 0.  0.
         12    1    1    2    0    0 -0.10903111452E+01 -0.44224029501E+00  0.92798876265E-01  0.11802400193E+01  0.00000000000E+00 0. -1.
         11    1    3    3    0    0 -0.89753460083E+00  0.38318726211E+01  0.64338360539E+01  0.75420861022E+01  0.51100000000E-03 0. -1.
        -11    1    3    3    0    0 -0.21807418194E+02  0.25078499738E+02  0.18187404144E+02  0.37885040678E+02  0.51100000000E-03 0.  1.
         12    1    3    3    0    0  0.23795263940E+02 -0.28468132064E+02 -0.24714039074E+02  0.44580633201E+02  0.00000000000E+00 0. -1.
</event>
<event>
 7    1  0.2285268E-015  0.9000774E+02  0.7816164E-02  0.1186339E+00
        -11   -1    0    0    0    0  0.00000000000E+00  0.00000000000E+00  0.45593999997E+02  0.45594000000E+02  0.51100000000E-03 0.  1.
         11   -1    0    0    0    0 -0.00000000000E+00 -0.00000000000E+00 -0.45593999997E+02  0.45594000000E+02  0.51100000000E-03 0. -1.
    9900012    2    1    2    0    0 -0.34900114588E-01 -0.11736574878E+01 -0.11970259774E+00  0.90007737898E+02  0.89999999239E+02 0.  0.
         12    1    1    2    0    0  0.34900114588E-01  0.11736574878E+01  0.11970259774E+00  0.11802621017E+01  0.00000000000E+00 0. -1.
         11    1    3    3    0    0  0.17662643124E+02  0.32631003723E+02 -0.49501200974E+01  0.37433341492E+02  0.51100000000E-03 0. -1.
        -11    1    3    3    0    0  0.49623323102E+01  0.34302925871E+01  0.66114807434E+01  0.89500462050E+01  0.51100000000E-03 0.  1.
        -12    1    3    3    0    0 -0.22659875548E+02 -0.37234953797E+02 -0.17810632438E+01  0.43624350201E+02  0.00000000000E+00 0.  1.
</event>
<event>
 7    1  0.2285268E-015  0.9000776E+02  0.7816164E-02  0.1186339E+00
        -11   -1    0    0    0    0  0.00000000000E+00  0.00000000000E+00  0.45593999997E+02  0.45594000000E+02  0.51100000000E-03 0.  1.
         11   -1    0    0    0    0 -0.00000000000E+00 -0.00000000000E+00 -0.45593999997E+02  0.45594000000E+02  0.51100000000E-03 0. -1.
    9900012    2    1    2    0    0 -0.76878741777E+00 -0.58274154646E+00  0.67995563245E+00  0.90007762115E+02  0.90000023775E+02 0.  0.
         12    1    1    2    0    0  0.76878741777E+00  0.58274154646E+00 -0.67995563245E+00  0.11802378853E+01  0.00000000000E+00 0. -1.
         11    1    3    3    0    0  0.17274939427E+01 -0.11000152115E+01 -0.63560419277E+01  0.66778393239E+01  0.51100000000E-03 0. -1.
        -11    1    3    3    0    0 -0.22192173572E+02  0.32883397158E+02 -0.11284595149E+02  0.41245029573E+02  0.51100000000E-03 0.  1.
         12    1    3    3    0    0  0.19695892212E+02 -0.32366123493E+02  0.18320592709E+02  0.42084893218E+02  0.00000000000E+00 0. -1.
</event>
<event>
 7    1  0.2285268E-015  0.9000780E+02  0.7816164E-02  0.1186339E+00
        -11   -1    0    0    0    0  0.00000000000E+00  0.00000000000E+00  0.45593999997E+02  0.45594000000E+02  0.51100000000E-03 0.  1.
         11   -1    0    0    0    0 -0.00000000000E+00 -0.00000000000E+00 -0.45593999997E+02  0.45594000000E+02  0.51100000000E-03 0. -1.
    9900012    2    1    2    0    0  0.52456668695E+00  0.66530807509E+00  0.82162701212E+00  0.90007798326E+02  0.90000060464E+02 0.  0.
         12    1    1    2    0    0 -0.52456668695E+00 -0.66530807509E+00 -0.82162701212E+00  0.11802016738E+01  0.00000000000E+00 0. -1.
         11    1    3    3    0    0 -0.35552233706E+02 -0.10931777358E+02  0.24872306432E+01  0.37278028304E+02  0.51100000000E-03 0. -1.
        -11    1    3    3    0    0 -0.32839244739E+01 -0.43912999040E+01  0.74779092452E+01  0.92729068656E+01  0.51100000000E-03 0.  1.
        -12    1    3    3    0    0  0.39360724867E+02  0.15988385337E+02 -0.91435128762E+01  0.43456863157E+02  0.00000000000E+00 0.  1.
</event>
<event>
 7    1  0.2285268E-015  0.9000708E+02  0.7816164E-02  0.1186340E+00
        -11   -1    0    0    0    0  0.00000000000E+00  0.00000000000E+00  0.45593999997E+02  0.45594000000E+02  0.51100000000E-03 0. -1.
         11   -1    0    0    0    0 -0.00000000000E+00 -0.00000000000E+00 -0.45593999997E+02  0.45594000000E+02  0.51100000000E-03 0.  1.
    9900012    2    1    2    0    0  0.34168206214E-01  0.95642715383E+00  0.69184794957E+00  0.90007079193E+02  0.89999331836E+02 0.  0.
         12    1    1    2    0    0 -0.34168206214E-01 -0.95642715383E+00 -0.69184794957E+00  0.11809208069E+01  0.00000000000E+00 0. -1.
         11    1    3    3    0    0 -0.10791631005E+02 -0.19122430467E+01 -0.36016205951E+00  0.10965659588E+02  0.51100000000E-03 0. -1.
        -11    1    3    3    0    0 -0.18915300476E+02  0.29655089435E+02  0.12633403376E+02  0.37373999019E+02  0.51100000000E-03 0.  1.
         12    1    3    3    0    0  0.29741099687E+02 -0.26786419235E+02 -0.11581393367E+02  0.41667420587E+02  0.00000000000E+00 0. -1.
</event>
<event>
 7    1  0.2285268E-015  0.9000781E+02  0.7816164E-02  0.1186339E+00
        -11   -1    0    0    0    0  0.00000000000E+00  0.00000000000E+00  0.45593999997E+02  0.45594000000E+02  0.51100000000E-03 0.  1.
         11   -1    0    0    0    0 -0.00000000000E+00 -0.00000000000E+00 -0.45593999997E+02  0.45594000000E+02  0.51100000000E-03 0. -1.
    9900012    2    1    2    0    0 -0.93506114020E+00 -0.88290198517E-02  0.72001958283E+00  0.90007811249E+02  0.90000073558E+02 0.  0.
         12    1    1    2    0    0  0.93506114020E+00  0.88290198517E-02 -0.72001958283E+00  0.11801887506E+01  0.00000000000E+00 0. -1.
         11    1    3    3    0    0 -0.40982087248E+01 -0.86137418185E+01  0.13785384659E+01  0.96380616013E+01  0.51100000000E-03 0. -1.
        -11    1    3    3    0    0 -0.19655451623E+02 -0.24826641587E+02  0.17305652332E+02  0.36085793796E+02  0.51100000000E-03 0.  1.
         12    1    3    3    0    0  0.22818599208E+02  0.33431554386E+02 -0.17964171215E+02  0.44283955852E+02  0.00000000000E+00 0. -1.
</event>
<event>
 7    1  0.2285268E-015  0.9000775E+02  0.7816164E-02  0.1186339E+00
        -11   -1    0    0    0    0  0.00000000000E+00  0.00000000000E+00  0.45593999997E+02  0.45594000000E+02  0.51100000000E-03 0.  1.
         11   -1    0    0    0    0 -0.00000000000E+00 -0.00000000000E+00 -0.45593999997E+02  0.45594000000E+02  0.51100000000E-03 0. -1.
    9900012    2    1    2    0    0 -0.11418144698E+01 -0.57181595677E-01 -0.29323612961E+00  0.90007746872E+02  0.90000008331E+02 0.  0.
         12    1    1    2    0    0  0.11418144698E+01  0.57181595677E-01  0.29323612961E+00  0.11802531279E+01  0.00000000000E+00 0. -1.
         11    1    3    3    0    0 -0.22215820071E+02  0.20445524394E+02 -0.26329827239E+02  0.40060228804E+02  0.51100000000E-03 0. -1.
        -11    1    3    3    0    0 -0.52023500474E+01 -0.94504823720E+01 -0.77244922315E+00  0.10815393712E+02  0.51100000000E-03 0.  1.
        -12    1    3    3    0    0  0.26276355648E+02 -0.11052223618E+02  0.26809040333E+02  0.39132124356E+02  0.00000000000E+00 0.  1.
</event>
<event>
 7    1  0.2285268E-015  0.9000785E+02  0.7816164E-02  0.1186339E+00
        -11   -1    0    0    0    0  0.00000000000E+00  0.00000000000E+00  0.45593999997E+02  0.45594000000E+02  0.51100000000E-03 0.  1.
         11   -1    0    0    0    0 -0.00000000000E+00 -0.00000000000E+00 -0.45593999997E+02  0.45594000000E+02  0.51100000000E-03 0. -1.
    9900012    2    1    2    0    0 -0.10305497939E-01 -0.60843559322E-01  0.11785333380E+01  0.90007852140E+02  0.90000114988E+02 0.  0.
         12    1    1    2    0    0  0.10305497939E-01  0.60843559322E-01 -0.11785333380E+01  0.11801478597E+01  0.00000000000E+00 0. -1.
         11    1    3    3    0    0  0.44830517435E+01 -0.15762419950E+02 -0.28574673206E+02  0.32940303349E+02  0.51100000000E-03 0. -1.
        -11    1    3    3    0    0 -0.17693804233E+02  0.41414521599E+00 -0.36135083742E+01  0.18063766703E+02  0.51100000000E-03 0.  1.
        -12    1    3    3    0    0  0.13200446991E+02  0.15287431175E+02  0.33366714918E+02  0.39003782088E+02  0.00000000000E+00 0.  1.
</event>
<event>
 7    1  0.2285268E-015  0.9000746E+02  0.7816164E-02  0.1186340E+00
        -11   -1    0    0    0    0  0.00000000000E+00  0.00000000000E+00  0.45593999997E+02  0.45594000000E+02  0.51100000000E-03 0.  1.
         11   -1    0    0    0    0 -0.00000000000E+00 -0.00000000000E+00 -0.45593999997E+02  0.45594000000E+02  0.51100000000E-03 0. -1.
    9900012    2    1    2    0    0 -0.68572172938E+00 -0.13763439349E+00  0.95106116607E+00  0.90007459930E+02  0.89999717600E+02 0.  0.
         12    1    1    2    0    0  0.68572172938E+00  0.13763439349E+00 -0.95106116607E+00  0.11805400705E+01  0.00000000000E+00 0. -1.
         11    1    3    3    0    0 -0.26298662383E+01  0.33206511472E+02 -0.13129402963E+02  0.35804606170E+02  0.51100000000E-03 0. -1.
        -11    1    3    3    0    0 -0.68092113938E+00  0.94745111983E+00 -0.11362730207E+02  0.11422475880E+02  0.51100000000E-03 0.  1.
        -12    1    3    3    0    0  0.26250656483E+01 -0.34291596985E+02  0.25443194336E+02  0.42780377879E+02  0.00000000000E+00 0.  1.
</event>
<event>
 7    1  0.2285268E-015  0.9000763E+02  0.7816164E-02  0.1186339E+00
        -11   -1    0    0    0    0  0.00000000000E+00  0.00000000000E+00  0.45593999997E+02  0.45594000000E+02  0.51100000000E-03 0. -1.
         11   -1    0    0    0    0 -0.00000000000E+00 -0.00000000000E+00 -0.45593999997E+02  0.45594000000E+02  0.51100000000E-03 0.  1.
    9900012    2    1    2    0    0  0.85084256095E+00  0.15883887536E+00 -0.80256152086E+00  0.90007632326E+02  0.89999892272E+02 0.  0.
         12    1    1    2    0    0 -0.85084256095E+00 -0.15883887536E+00  0.80256152086E+00  0.11803676743E+01  0.00000000000E+00 0. -1.
         11    1    3    3    0    0  0.94237686777E+01 -0.31378667713E+02  0.12981576098E+02  0.35241304201E+02  0.51100000000E-03 0. -1.
        -11    1    3    3    0    0  0.64433118848E+01 -0.77979470368E+01  0.94627810023E+00  0.10159709077E+02  0.51100000000E-03 0.  1.
        -12    1    3    3    0    0 -0.15016238001E+02  0.39335453625E+02 -0.14730415719E+02  0.44606619048E+02  0.00000000000E+00 0.  1.
</event>
<event>
 7    1  0.2285268E-015  0.9000773E+02  0.7816164E-02  0.1186339E+00
        -11   -1    0    0    0    0  0.00000000000E+00  0.00000000000E+00  0.45593999997E+02  0.45594000000E+02  0.51100000000E-03 0.  1.
         11   -1    0    0    0    0 -0.00000000000E+00 -0.00000000000E+00 -0.45593999997E+02  0.45594000000E+02  0.51100000000E-03 0. -1.
    9900012    2    1    2    0    0  0.70549326545E+00 -0.78813810481E+00 -0.52360699932E+00  0.90007726002E+02  0.89999987186E+02 0.  0.
         12    1    1    2    0    0 -0.70549326545E+00  0.78813810481E+00  0.52360699932E+00  0.11802739977E+01  0.00000000000E+00 0. -1.
         11    1    3    3    0    0 -0.99205961198E+01 -0.23311983694E+01  0.51880020958E+01  0.11435387148E+02  0.51100000000E-03 0. -1.
        -11    1    3    3    0    0 -0.16721580672E+02 -0.28784278542E+02 -0.15282122920E+02  0.36629076327E+02  0.51100000000E-03 0.  1.
         12    1    3    3    0    0  0.27347670057E+02  0.30327338806E+02  0.95705138250E+01  0.41943262528E+02  0.00000000000E+00 0. -1.
</event>
<event>
 7    1  0.2285268E-015  0.9000771E+02  0.7816164E-02  0.1186339E+00
        -11   -1    0    0    0    0  0.00000000000E+00  0.00000000000E+00  0.45593999997E+02  0.45594000000E+02  0.51100000000E-03 0.  1.
         11   -1    0    0    0    0 -0.00000000000E+00 -0.00000000000E+00 -0.45593999997E+02  0.45594000000E+02  0.51100000000E-03 0. -1.
    9900012    2    1    2    0    0  0.29683766468E+00  0.80529525877E+00  0.81022277644E+00  0.90007714441E+02  0.89999975472E+02 0.  0.
         12    1    1    2    0    0 -0.29683766468E+00 -0.80529525877E+00 -0.81022277644E+00  0.11802855589E+01  0.00000000000E+00 0. -1.
         11    1    3    3    0    0  0.17753387599E+02  0.97391315553E+01 -0.28816102816E+02  0.35219330438E+02  0.51100000000E-03 0. -1.
        -11    1    3    3    0    0  0.19117247600E+01  0.38680703028E+01 -0.88524860202E+01  0.98480032710E+01  0.51100000000E-03 0.  1.
        -12    1    3    3    0    0 -0.19368274695E+02 -0.12801906599E+02  0.38478811613E+02  0.44940380732E+02  0.00000000000E+00 0.  1.
</event>
<event>
 7    1  0.2285268E-015  0.9000767E+02  0.7816164E-02  0.1186339E+00
        -11   -1    0    0    0    0  0.00000000000E+00  0.00000000000E+00  0.45593999997E+02  0.45594000000E+02  0.51100000000E-03 0.  1.
         11   -1    0    0    0    0 -0.00000000000E+00 -0.00000000000E+00 -0.45593999997E+02  0.45594000000E+02  0.51100000000E-03 0. -1.
    9900012    2    1    2    0    0  0.50020418209E+00 -0.44709477875E+00  0.97112857951E+00  0.90007665860E+02  0.89999926249E+02 0.  0.
         12    1    1    2    0    0 -0.50020418209E+00  0.44709477875E+00 -0.97112857951E+00  0.11803341404E+01  0.00000000000E+00 0. -1.
         11    1    3    3    0    0  0.89283546712E+01  0.20690722931E+02 -0.27105346881E+02  0.35249416482E+02  0.51100000000E-03 0. -1.
        -11    1    3    3    0    0 -0.62181590787E+01  0.35726025649E+00 -0.95305768839E+01  0.11385298996E+02  0.51100000000E-03 0.  1.
        -12    1    3    3    0    0 -0.22099914105E+01 -0.21495077966E+02  0.37607052344E+02  0.43372950382E+02  0.00000000000E+00 0.  1.
</event>
<event>
 7    1  0.2285268E-015  0.9000756E+02  0.7816164E-02  0.1186339E+00
        -11   -1    0    0    0    0  0.00000000000E+00  0.00000000000E+00  0.45593999997E+02  0.45594000000E+02  0.51100000000E-03 0.  1.
         11   -1    0    0    0    0 -0.00000000000E+00 -0.00000000000E+00 -0.45593999997E+02  0.45594000000E+02  0.51100000000E-03 0. -1.
    9900012    2    1    2    0    0 -0.73372929888E-01  0.62964294679E-01  0.11764747499E+01  0.90007559012E+02  0.89999817991E+02 0.  0.
         12    1    1    2    0    0  0.73372929888E-01 -0.62964294679E-01 -0.11764747499E+01  0.11804409881E+01  0.00000000000E+00 0. -1.
         11    1    3    3    0    0  0.43100443829E+01 -0.31149168604E+02 -0.24591843274E+02  0.39919994278E+02  0.51100000000E-03 0. -1.
        -11    1    3    3    0    0 -0.93767998295E+01 -0.45086113398E-01  0.16978684735E+00  0.93784452674E+01  0.51100000000E-03 0.  1.
        -12    1    3    3    0    0  0.49933825167E+01  0.31257219012E+02  0.25598531177E+02  0.40709119466E+02  0.00000000000E+00 0.  1.
</event>
<event>
 7    1  0.2285268E-015  0.9000782E+02  0.7816164E-02  0.1186339E+00
        -11   -1    0    0    0    0  0.00000000000E+00  0.00000000000E+00  0.45593999997E+02  0.45594000000E+02  0.51100000000E-03 0.  1.
         11   -1    0    0    0    0 -0.00000000000E+00 -0.00000000000E+00 -0.45593999997E+02  0.45594000000E+02  0.51100000000E-03 0. -1.
    9900012    2    1    2    0    0  0.89181178446E+00  0.77142767135E+00 -0.48865584303E-01  0.90007823422E+02  0.90000085891E+02 0.  0.
         12    1    1    2    0    0 -0.89181178446E+00 -0.77142767135E+00  0.48865584303E-01  0.11801765785E+01  0.00000000000E+00 0. -1.
         11    1    3    3    0    0  0.13855288901E+02 -0.89389302170E+00 -0.79363091532E+00  0.13906758269E+02  0.51100000000E-03 0. -1.
        -11    1    3    3    0    0  0.11043556721E+02  0.22791779402E+02  0.25287665004E+02  0.35789542537E+02  0.51100000000E-03 0.  1.
         12    1    3    3    0    0 -0.24007033837E+02 -0.21126458709E+02 -0.24542899673E+02  0.40311522616E+02  0.00000000000E+00 0. -1.
</event>
<event>
 7    1  0.2285268E-015  0.9000763E+02  0.7816164E-02  0.1186339E+00
        -11   -1    0    0    0    0  0.00000000000E+00  0.00000000000E+00  0.45593999997E+02  0.45594000000E+02  0.51100000000E-03 0. -1.
         11   -1    0    0    0    0 -0.00000000000E+00 -0.00000000000E+00 -0.45593999997E+02  0.45594000000E+02  0.51100000000E-03 0.  1.
    9900012    2    1    2    0    0 -0.11130349551E+01 -0.38547005624E+00  0.76474295205E-01  0.90007626206E+02  0.89999886072E+02 0.  0.
         12    1    1    2    0    0  0.11130349551E+01  0.38547005624E+00 -0.76474295205E-01  0.11803737939E+01  0.00000000000E+00 0. -1.
         11    1    3    3    0    0  0.28214078913E+02 -0.19684201113E+02 -0.21408471174E+01  0.34468612519E+02  0.51100000000E-03 0. -1.
        -11    1    3    3    0    0 -0.71972345509E+01 -0.13359677974E+02  0.50349968576E+01  0.15988507572E+02  0.51100000000E-03 0.  1.
        -12    1    3    3    0    0 -0.22129879317E+02  0.32658409031E+02 -0.28176754449E+01  0.39550506115E+02  0.00000000000E+00 0.  1.
</event>
<event>
 7    1  0.2285268E-015  0.9000839E+02  0.7816164E-02  0.1186338E+00
        -11   -1    0    0    0    0  0.00000000000E+00  0.00000000000E+00  0.45593999997E+02  0.45594000000E+02  0.51100000000E-03 0.  1.
         11   -1    0    0    0    0 -0.00000000000E+00 -0.00000000000E+00 -0.45593999997E+02  0.45594000000E+02  0.51100000000E-03 0. -1.
    9900012    2    1    2    0    0  0.10493069138E+01 -0.39643759672E+00 -0.36506140936E+00  0.90008390912E+02  0.90000660870E+02 0.  0.
         12    1    1    2    0    0 -0.10493069138E+01  0.39643759672E+00  0.36506140936E+00  0.11796090878E+01  0.00000000000E+00 0. -1.
         11    1    3    3    0    0 -0.30109074252E+02  0.10887253821E+02  0.14730416771E+02  0.35243067781E+02  0.51100000000E-03 0. -1.
        -11    1    3    3    0    0 -0.78692986841E+01  0.57424569830E+01 -0.50447167272E+00  0.97548021975E+01  0.51100000000E-03 0.  1.
        -12    1    3    3    0    0  0.39027679850E+02 -0.17026148401E+02 -0.14591006508E+02  0.45010520934E+02  0.00000000000E+00 0.  1.
</event>
<event>
 7    1  0.2285268E-015  0.9000778E+02  0.7816164E-02  0.1186339E+00
        -11   -1    0    0    0    0  0.00000000000E+00  0.00000000000E+00  0.45593999997E+02  0.45594000000E+02  0.51100000000E-03 0. -1.
         11   -1    0    0    0    0 -0.00000000000E+00 -0.00000000000E+00 -0.45593999997E+02  0.45594000000E+02  0.51100000000E-03 0.  1.
    9900012    2    1    2    0    0  0.51395729920E+00 -0.10502140711E+01 -0.16064372379E+00  0.90007784720E+02  0.90000046679E+02 0.  0.
         12    1    1    2    0    0 -0.51395729920E+00  0.10502140711E+01  0.16064372379E+00  0.11802152797E+01  0.00000000000E+00 0. -1.
         11    1    3    3    0    0 -0.37005194823E+01  0.52368088088E+01 -0.10282662364E+02  0.12118215896E+02  0.51100000000E-03 0. -1.
        -11    1    3    3    0    0 -0.59822190474E+01  0.15854541840E+02 -0.27947968970E+02  0.32683977902E+02  0.51100000000E-03 0.  1.
         12    1    3    3    0    0  0.10196695829E+02 -0.22141564720E+02  0.38069987610E+02  0.45205590923E+02  0.00000000000E+00 0. -1.
</event>
<event>
 7    1  0.2285268E-015  0.9000781E+02  0.7816164E-02  0.1186339E+00
        -11   -1    0    0    0    0  0.00000000000E+00  0.00000000000E+00  0.45593999997E+02  0.45594000000E+02  0.51100000000E-03 0.  1.
         11   -1    0    0    0    0 -0.00000000000E+00 -0.00000000000E+00 -0.45593999997E+02  0.45594000000E+02  0.51100000000E-03 0. -1.
    9900012    2    1    2    0    0 -0.73507021503E+00 -0.23365110837E+00 -0.89327150519E+00  0.90007807201E+02  0.90000069456E+02 0.  0.
         12    1    1    2    0    0  0.73507021503E+00  0.23365110837E+00  0.89327150519E+00  0.11801927993E+01  0.00000000000E+00 0. -1.
         11    1    3    3    0    0 -0.23753720673E+01 -0.97878482985E+01  0.29046521167E+00  0.10076146936E+02  0.51100000000E-03 0. -1.
        -11    1    3    3    0    0 -0.96895600627E+01  0.88560664592E+01  0.37439918711E+02  0.39674488033E+02  0.51100000000E-03 0.  1.
         12    1    3    3    0    0  0.11329861915E+02  0.69813073091E+00 -0.38623655428E+02  0.40257172232E+02  0.00000000000E+00 0. -1.
</event>
<event>
 7    1  0.2285268E-015  0.9000774E+02  0.7816164E-02  0.1186339E+00
        -11   -1    0    0    0    0  0.00000000000E+00  0.00000000000E+00  0.45593999997E+02  0.45594000000E+02  0.51100000000E-03 0. -1.
         11   -1    0    0    0    0 -0.00000000000E+00 -0.00000000000E+00 -0.45593999997E+02  0.45594000000E+02  0.51100000000E-03 0.  1.
    9900012    2    1    2    0    0  0.32809287228E+00  0.74967872975E+00 -0.85049722250E+00  0.90007742123E+02  0.90000003519E+02 0.  0.
         12    1    1    2    0    0 -0.32809287228E+00 -0.74967872975E+00  0.85049722250E+00  0.11802578770E+01  0.00000000000E+00 0. -1.
         11    1    3    3    0    0 -0.70437383631E+01 -0.30757833002E+01  0.91253452203E+01  0.11930910220E+02  0.51100000000E-03 0. -1.
        -11    1    3    3    0    0 -0.20964843560E+01  0.36916740736E+02 -0.20248490198E+02  0.42157352251E+02  0.51100000000E-03 0.  1.
         12    1    3    3    0    0  0.94683155914E+01 -0.33091278706E+02  0.10272647755E+02  0.35919479652E+02  0.00000000000E+00 0. -1.
</event>
<event>
 7    1  0.2285268E-015  0.9000775E+02  0.7816164E-02  0.1186339E+00
        -11   -1    0    0    0    0  0.00000000000E+00  0.00000000000E+00  0.45593999997E+02  0.45594000000E+02  0.51100000000E-03 0.  1.
         11   -1    0    0    0    0 -0.00000000000E+00 -0.00000000000E+00 -0.45593999997E+02  0.45594000000E+02  0.51100000000E-03 0. -1.
    9900012    2    1    2    0    0  0.34904220221E+00  0.87564387809E-01  0.11240542064E+01  0.90007747552E+02  0.90000009020E+02 0.  0.
         12    1    1    2    0    0 -0.34904220221E+00 -0.87564387809E-01 -0.11240542064E+01  0.11802524475E+01  0.00000000000E+00 0. -1.
         11    1    3    3    0    0 -0.17638043612E+02 -0.19634424628E+01 -0.37524314187E+02  0.41509394651E+02  0.51100000000E-03 0. -1.
        -11    1    3    3    0    0  0.10134691441E+02  0.78725355828E+01  0.55412733904E+01  0.13978358207E+02  0.51100000000E-03 0.  1.
        -12    1    3    3    0    0  0.78523943732E+01 -0.58215287322E+01  0.33107095003E+02  0.34519994695E+02  0.00000000000E+00 0.  1.
</event>
<event>
 7    1  0.2285268E-015  0.9000775E+02  0.7816164E-02  0.1186339E+00
        -11   -1    0    0    0    0  0.00000000000E+00  0.00000000000E+00  0.45593999997E+02  0.45594000000E+02  0.51100000000E-03 0. -1.
         11   -1    0    0    0    0 -0.00000000000E+00 -0.00000000000E+00 -0.45593999997E+02  0.45594000000E+02  0.51100000000E-03 0.  1.
    9900012    2    1    2    0    0  0.80806773345E+00  0.81158684538E+00  0.28522787945E+00  0.90007745107E+02  0.90000006542E+02 0.  0.
         12    1    1    2    0    0 -0.80806773345E+00 -0.81158684538E+00 -0.28522787945E+00  0.11802548931E+01  0.00000000000E+00 0. -1.
         11    1    3    3    0    0  0.33895093233E+01  0.19081296504E+01  0.66455966058E+01  0.77002393939E+01  0.51100000000E-03 0. -1.
        -11    1    3    3    0    0  0.67952750280E+01  0.20003701583E+02  0.31519687805E+02  0.37944888448E+02  0.51100000000E-03 0.  1.
         12    1    3    3    0    0 -0.93767166179E+01 -0.21100244388E+02 -0.37880056531E+02  0.44362617265E+02  0.00000000000E+00 0. -1.
</event>
<event>
 7    1  0.2285268E-015  0.9000776E+02  0.7816164E-02  0.1186339E+00
        -11   -1    0    0    0    0  0.00000000000E+00  0.00000000000E+00  0.45593999997E+02  0.45594000000E+02  0.51100000000E-03 0. -1.
         11   -1    0    0    0    0 -0.00000000000E+00 -0.00000000000E+00 -0.45593999997E+02  0.45594000000E+02  0.51100000000E-03 0.  1.
    9900012    2    1    2    0    0  0.31699298014E+00  0.11308430243E+01 -0.11691161317E+00  0.90007763235E+02  0.90000024910E+02 0.  0.
         12    1    1    2    0    0 -0.31699298014E+00 -0.11308430243E+01  0.11691161317E+00  0.11802367646E+01  0.00000000000E+00 0. -1.
         11    1    3    3    0    0 -0.15425771101E+02  0.29792260431E+02  0.12533834250E+02  0.35813826896E+02  0.51100000000E-03 0. -1.
        -11    1    3    3    0    0 -0.97992474143E+01 -0.12699087454E+01  0.67969681914E+01  0.11993193693E+02  0.51100000000E-03 0.  1.
        -12    1    3    3    0    0  0.25542011495E+02 -0.27391508661E+02 -0.19447714054E+02  0.42200742646E+02  0.00000000000E+00 0.  1.
</event>
<event>
 7    1  0.2285268E-015  0.9000776E+02  0.7816164E-02  0.1186339E+00
        -11   -1    0    0    0    0  0.00000000000E+00  0.00000000000E+00  0.45593999997E+02  0.45594000000E+02  0.51100000000E-03 0. -1.
         11   -1    0    0    0    0 -0.00000000000E+00 -0.00000000000E+00 -0.45593999997E+02  0.45594000000E+02  0.51100000000E-03 0.  1.
    9900012    2    1    2    0    0 -0.54487785147E+00  0.13137941486E+00 -0.10386564418E+01  0.90007762893E+02  0.90000024564E+02 0.  0.
         12    1    1    2    0    0  0.54487785147E+00 -0.13137941486E+00  0.10386564418E+01  0.11802371065E+01  0.00000000000E+00 0. -1.
         11    1    3    3    0    0  0.62414141437E+01 -0.17213602185E+01 -0.58836135817E+01  0.87484421788E+01  0.51100000000E-03 0. -1.
        -11    1    3    3    0    0  0.30270204614E+02 -0.50434276122E+01 -0.19527117046E+02  0.36373475911E+02  0.51100000000E-03 0.  1.
         12    1    3    3    0    0 -0.37056496609E+02  0.68961672456E+01  0.24372074186E+02  0.44885844804E+02  0.00000000000E+00 0. -1.
</event>
<event>
 7    1  0.2285268E-015  0.9000773E+02  0.7816164E-02  0.1186339E+00
        -11   -1    0    0    0    0  0.00000000000E+00  0.00000000000E+00  0.45593999997E+02  0.45594000000E+02  0.51100000000E-03 0.  1.
         11   -1    0    0    0    0 -0.00000000000E+00 -0.00000000000E+00 -0.45593999997E+02  0.45594000000E+02  0.51100000000E-03 0. -1.
    9900012    2    1    2    0    0 -0.63753510076E+00 -0.85880056962E+00  0.49904189317E+00  0.90007732135E+02  0.89999993399E+02 0.  0.
         12    1    1    2    0    0  0.63753510076E+00  0.85880056962E+00 -0.49904189317E+00  0.11802678655E+01  0.00000000000E+00 0. -1.
         11    1    3    3    0    0  0.81859195010E+01 -0.22006273911E+01 -0.61951458558E+01  0.10499136699E+02  0.51100000000E-03 0. -1.
        -11    1    3    3    0    0 -0.19930225582E+02  0.35413243322E+02  0.13914154447E+02  0.42952478258E+02  0.51100000000E-03 0.  1.
         12    1    3    3    0    0  0.11106770980E+02 -0.34071416500E+02 -0.72199666979E+01  0.36556117177E+02  0.00000000000E+00 0. -1.
</event>
<event>
 7    1  0.2285268E-015  0.9000771E+02  0.7816164E-02  0.1186339E+00
        -11   -1    0    0    0    0  0.00000000000E+00  0.00000000000E+00  0.45593999997E+02  0.45594000000E+02  0.51100000000E-03 0.  1.
         11   -1    0    0    0    0 -0.00000000000E+00 -0.00000000000E+00 -0.45593999997E+02  0.45594000000E+02  0.51100000000E-03 0. -1.
    9900012    2    1    2    0    0 -0.81080579792E+00  0.85595258027E+00  0.55009483206E-01  0.90007708975E+02  0.89999969933E+02 0.  0.
         12    1    1    2    0    0  0.81080579792E+00 -0.85595258027E+00 -0.55009483206E-01  0.11802910255E+01  0.00000000000E+00 0. -1.
         11    1    3    3    0    0 -0.49476170979E+01 -0.31389191073E+02 -0.19960657555E+02  0.37525832189E+02  0.51100000000E-03 0. -1.
        -11    1    3    3    0    0  0.49534126125E+01  0.35863919393E+01 -0.95228547259E+01  0.11317387775E+02  0.51100000000E-03 0.  1.
        -12    1    3    3    0    0 -0.81660131247E+00  0.28658751714E+02  0.29538521764E+02  0.41164489011E+02  0.00000000000E+00 0.  1.
</event>
<event>
 7    1  0.2285268E-015  0.9000783E+02  0.7816164E-02  0.1186339E+00
        -11   -1    0    0    0    0  0.00000000000E+00  0.00000000000E+00  0.45593999997E+02  0.45594000000E+02  0.51100000000E-03 0. -1.
         11   -1    0    0    0    0 -0.00000000000E+00 -0.00000000000E+00 -0.45593999997E+02  0.45594000000E+02  0.51100000000E-03 0.  1.
    9900012    2    1    2    0    0 -0.30818005317E+00  0.73666007532E+00 -0.86900092837E+00  0.90007828137E+02  0.90000090669E+02 0.  0.
         12    1    1    2    0    0  0.30818005317E+00 -0.73666007532E+00  0.86900092837E+00  0.11801718626E+01  0.00000000000E+00 0. -1.
         11    1    3    3    0    0  0.10687367175E+02 -0.12720716144E+02  0.33571917694E+02  0.37458111194E+02  0.51100000000E-03 0. -1.
        -11    1    3    3    0    0 -0.17968628461E+01 -0.72253725045E+01  0.36102906938E+01  0.82745950397E+01  0.51100000000E-03 0.  1.
        -12    1    3    3    0    0 -0.91986843824E+01  0.20682748724E+02 -0.38051209316E+02  0.44275121903E+02  0.00000000000E+00 0.  1.
</event>
<event>
 7    1  0.2285268E-015  0.9000773E+02  0.7816164E-02  0.1186339E+00
        -11   -1    0    0    0    0  0.00000000000E+00  0.00000000000E+00  0.45593999997E+02  0.45594000000E+02  0.51100000000E-03 0. -1.
         11   -1    0    0    0    0 -0.00000000000E+00 -0.00000000000E+00 -0.45593999997E+02  0.45594000000E+02  0.51100000000E-03 0.  1.
    9900012    2    1    2    0    0  0.95635640697E+00 -0.59673181070E+00 -0.34975692558E+00  0.90007730396E+02  0.89999991637E+02 0.  0.
         12    1    1    2    0    0 -0.95635640697E+00  0.59673181070E+00  0.34975692558E+00  0.11802696040E+01  0.00000000000E+00 0. -1.
         11    1    3    3    0    0 -0.29432316939E+01  0.79714197140E+01  0.54936350161E+01  0.10118605191E+02  0.51100000000E-03 0. -1.
        -11    1    3    3    0    0 -0.32623419867E+02 -0.19122510504E+02  0.93411259418E+01  0.38951438560E+02  0.51100000000E-03 0.  1.
         12    1    3    3    0    0  0.36523007968E+02  0.10554358979E+02 -0.15184517884E+02  0.40937686645E+02  0.00000000000E+00 0. -1.
</event>
<event>
 7    1  0.2285268E-015  0.9000779E+02  0.7816164E-02  0.1186339E+00
        -11   -1    0    0    0    0  0.00000000000E+00  0.00000000000E+00  0.45593999997E+02  0.45594000000E+02  0.51100000000E-03 0. -1.
         11   -1    0    0    0    0 -0.00000000000E+00 -0.00000000000E+00 -0.45593999997E+02  0.45594000000E+02  0.51100000000E-03 0.  1.
    9900012    2    1    2    0    0 -0.47478687734E+00 -0.89317482451E+00 -0.60804344842E+00  0.90007787866E+02  0.90000049866E+02 0.  0.
         12    1    1    2    0    0  0.47478687734E+00  0.89317482451E+00  0.60804344842E+00  0.11802121340E+01  0.00000000000E+00 0. -1.
         11    1    3    3    0    0 -0.17691742989E+01  0.26202542037E+02  0.20898346831E+02  0.33562539943E+02  0.51100000000E-03 0. -1.
        -11    1    3    3    0    0 -0.90320132226E+01  0.98614696600E+01 -0.24273315314E+01  0.13591092132E+02  0.51100000000E-03 0.  1.
        -12    1    3    3    0    0  0.10326400644E+02 -0.36957186522E+02 -0.19079058748E+02  0.42854155791E+02  0.00000000000E+00 0.  1.
</event>
<event>
 7    1  0.2285268E-015  0.9000771E+02  0.7816164E-02  0.1186339E+00
        -11   -1    0    0    0    0  0.00000000000E+00  0.00000000000E+00  0.45593999997E+02  0.45594000000E+02  0.51100000000E-03 0.  1.
         11   -1    0    0    0    0 -0.00000000000E+00 -0.00000000000E+00 -0.45593999997E+02  0.45594000000E+02  0.51100000000E-03 0. -1.
    9900012    2    1    2    0    0 -0.72582657905E+00 -0.33301322988E+00  0.86911409032E+00  0.90007711334E+02  0.89999972323E+02 0.  0.
         12    1    1    2    0    0  0.72582657905E+00  0.33301322988E+00 -0.86911409032E+00  0.11802886664E+01  0.00000000000E+00 0. -1.
         11    1    3    3    0    0  0.30334450412E+01  0.26593192745E+02 -0.22845182324E+02  0.35189516121E+02  0.51100000000E-03 0. -1.
        -11    1    3    3    0    0 -0.38602113773E+01  0.52107740648E+01 -0.75703779647E+01  0.99681503310E+01  0.51100000000E-03 0.  1.
        -12    1    3    3    0    0  0.10093975712E+00 -0.32136980039E+02  0.31284674379E+02  0.44850044881E+02  0.00000000000E+00 0.  1.
</event>
<event>
 7    1  0.2285268E-015  0.9000773E+02  0.7816164E-02  0.1186339E+00
        -11   -1    0    0    0    0  0.00000000000E+00  0.00000000000E+00  0.45593999997E+02  0.45594000000E+02  0.51100000000E-03 0. -1.
         11   -1    0    0    0    0 -0.00000000000E+00 -0.00000000000E+00 -0.45593999997E+02  0.45594000000E+02  0.51100000000E-03 0.  1.
    9900012    2    1    2    0    0 -0.65493230022E+00 -0.19836188550E-01 -0.98168060403E+00  0.90007734521E+02  0.89999995817E+02 0.  0.
         12    1    1    2    0    0  0.65493230022E+00  0.19836188550E-01  0.98168060403E+00  0.11802654789E+01  0.00000000000E+00 0. -1.
         11    1    3    3    0    0 -0.84353161060E+01  0.20791822992E+01 -0.37250133831E+01  0.94526864862E+01  0.51100000000E-03 0. -1.
        -11    1    3    3    0    0 -0.27876350937E+02 -0.25563905006E+02  0.13374482147E+01  0.37846967497E+02  0.51100000000E-03 0.  1.
         12    1    3    3    0    0  0.35656734743E+02  0.23464886518E+02  0.14058845643E+01  0.42708080538E+02  0.00000000000E+00 0. -1.
</event>
<event>
 7    1  0.2285268E-015  0.9000750E+02  0.7816164E-02  0.1186340E+00
        -11   -1    0    0    0    0  0.00000000000E+00  0.00000000000E+00  0.45593999997E+02  0.45594000000E+02  0.51100000000E-03 0. -1.
         11   -1    0    0    0    0 -0.00000000000E+00 -0.00000000000E+00 -0.45593999997E+02  0.45594000000E+02  0.51100000000E-03 0.  1.
    9900012    2    1    2    0    0  0.41899867749E+00  0.26060608808E+00 -0.10724342775E+01  0.90007495572E+02  0.89999753713E+02 0.  0.
         12    1    1    2    0    0 -0.41899867749E+00 -0.26060608808E+00  0.10724342775E+01  0.11805044279E+01  0.00000000000E+00 0. -1.
         11    1    3    3    0    0  0.73635869385E+01 -0.24456884298E+02 -0.22458696981E+02  0.34011096314E+02  0.51100000000E-03 0. -1.
        -11    1    3    3    0    0  0.12800536201E+02 -0.56375631120E+01  0.91516130368E-01  0.13987287812E+02  0.51100000000E-03 0.  1.
        -12    1    3    3    0    0 -0.19745124462E+02  0.30355053498E+02  0.21294746573E+02  0.42009111446E+02  0.00000000000E+00 0.  1.
</event>
<event>
 7    1  0.2285268E-015  0.9000773E+02  0.7816164E-02  0.1186339E+00
        -11   -1    0    0    0    0  0.00000000000E+00  0.00000000000E+00  0.45593999997E+02  0.45594000000E+02  0.51100000000E-03 0.  1.
         11   -1    0    0    0    0 -0.00000000000E+00 -0.00000000000E+00 -0.45593999997E+02  0.45594000000E+02  0.51100000000E-03 0. -1.
    9900012    2    1    2    0    0  0.14811824685E+00  0.42139036725E+00  0.10924831619E+01  0.90007733795E+02  0.89999995081E+02 0.  0.
         12    1    1    2    0    0 -0.14811824685E+00 -0.42139036725E+00 -0.10924831619E+01  0.11802662055E+01  0.00000000000E+00 0. -1.
         11    1    3    3    0    0  0.53191481207E+01 -0.28189636315E+02 -0.20558529356E+02  0.35293088018E+02  0.51100000000E-03 0. -1.
        -11    1    3    3    0    0 -0.33126355245E+01  0.10641834645E+01 -0.11243161812E+02  0.11769228027E+02  0.51100000000E-03 0.  1.
        -12    1    3    3    0    0 -0.18583943493E+01  0.27546843218E+02  0.32894174330E+02  0.42945417749E+02  0.00000000000E+00 0.  1.
</event>
<event>
 7    1  0.2285268E-015  0.9000773E+02  0.7816164E-02  0.1186339E+00
        -11   -1    0    0    0    0  0.00000000000E+00  0.00000000000E+00  0.45593999997E+02  0.45594000000E+02  0.51100000000E-03 0. -1.
         11   -1    0    0    0    0 -0.00000000000E+00 -0.00000000000E+00 -0.45593999997E+02  0.45594000000E+02  0.51100000000E-03 0.  1.
    9900012    2    1    2    0    0 -0.56561589652E+00 -0.10059344502E+01  0.24740040455E+00  0.90007732056E+02  0.89999993319E+02 0.  0.
         12    1    1    2    0    0  0.56561589652E+00  0.10059344502E+01 -0.24740040455E+00  0.11802679444E+01  0.00000000000E+00 0. -1.
         11    1    3    3    0    0 -0.30609201414E+02  0.19533021208E+02 -0.23256171510E+02  0.43119736111E+02  0.51100000000E-03 0. -1.
        -11    1    3    3    0    0  0.32043187481E+01 -0.11641925789E+02  0.48424195997E+01  0.13009654974E+02  0.51100000000E-03 0.  1.
        -12    1    3    3    0    0  0.26839266769E+02 -0.88970298692E+01  0.18661152315E+02  0.33878340971E+02  0.00000000000E+00 0.  1.
</event>
<event>
 7    1  0.2285268E-015  0.9000780E+02  0.7816164E-02  0.1186339E+00
        -11   -1    0    0    0    0  0.00000000000E+00  0.00000000000E+00  0.45593999997E+02  0.45594000000E+02  0.51100000000E-03 0. -1.
         11   -1    0    0    0    0 -0.00000000000E+00 -0.00000000000E+00 -0.45593999997E+02  0.45594000000E+02  0.51100000000E-03 0.  1.
    9900012    2    1    2    0    0  0.15349353264E+00 -0.11553378750E+01 -0.18576952404E+00  0.90007798244E+02  0.90000060380E+02 0.  0.
         12    1    1    2    0    0 -0.15349353264E+00  0.11553378750E+01  0.18576952404E+00  0.11802017565E+01  0.00000000000E+00 0. -1.
         11    1    3    3    0    0 -0.79034883825E+00  0.32715031836E+02  0.14661036958E+02  0.35858666516E+02  0.51100000000E-03 0. -1.
        -11    1    3    3    0    0  0.10016303325E+02  0.13073057535E+01  0.65009401713E+01  0.12012393766E+02  0.51100000000E-03 0.  1.
        -12    1    3    3    0    0 -0.90724609537E+01 -0.35177675465E+02 -0.21347746653E+02  0.42136737962E+02  0.00000000000E+00 0.  1.
</event>
<event>
 7    1  0.2285268E-015  0.9000780E+02  0.7816164E-02  0.1186339E+00
        -11   -1    0    0    0    0  0.00000000000E+00  0.00000000000E+00  0.45593999997E+02  0.45594000000E+02  0.51100000000E-03 0.  1.
         11   -1    0    0    0    0 -0.00000000000E+00 -0.00000000000E+00 -0.45593999997E+02  0.45594000000E+02  0.51100000000E-03 0. -1.
    9900012    2    1    2    0    0 -0.68950284828E+00  0.95737318197E+00  0.29753517540E-01  0.90007803890E+02  0.90000066101E+02 0.  0.
         12    1    1    2    0    0  0.68950284828E+00 -0.95737318197E+00 -0.29753517540E-01  0.11801961105E+01  0.00000000000E+00 0. -1.
         11    1    3    3    0    0  0.14451953430E+01 -0.64500509655E+01 -0.37846770524E+02  0.38419653648E+02  0.51100000000E-03 0. -1.
        -11    1    3    3    0    0 -0.10274219973E+02 -0.24895629683E+00 -0.17420236772E+01  0.10423829529E+02  0.51100000000E-03 0.  1.
        -12    1    3    3    0    0  0.81395217819E+01  0.76563804443E+01  0.39618547719E+02  0.41164320713E+02  0.00000000000E+00 0.  1.
</event>
<event>
 7    1  0.2285268E-015  0.9000765E+02  0.7816164E-02  0.1186339E+00
        -11   -1    0    0    0    0  0.00000000000E+00  0.00000000000E+00  0.45593999997E+02  0.45594000000E+02  0.51100000000E-03 0.  1.
         11   -1    0    0    0    0 -0.00000000000E+00 -0.00000000000E+00 -0.45593999997E+02  0.45594000000E+02  0.51100000000E-03 0. -1.
    9900012    2    1    2    0    0  0.35136821012E+00 -0.66778344811E-01  0.11248606180E+01  0.90007648198E+02  0.89999908354E+02 0.  0.
         12    1    1    2    0    0 -0.35136821012E+00  0.66778344811E-01 -0.11248606180E+01  0.11803518019E+01  0.00000000000E+00 0. -1.
         11    1    3    3    0    0 -0.18813342842E+02 -0.65086584643E+01 -0.29082281251E+02  0.35243206252E+02  0.51100000000E-03 0. -1.
        -11    1    3    3    0    0 -0.81319420977E+01  0.56998520181E+01 -0.42476782714E+01  0.10800905808E+02  0.51100000000E-03 0.  1.
        -12    1    3    3    0    0  0.27296653150E+02  0.74202810140E+00  0.34454820140E+02  0.43963536138E+02  0.00000000000E+00 0.  1.
</event>
<event>
 7    1  0.2285268E-015  0.9000760E+02  0.7816164E-02  0.1186339E+00
        -11   -1    0    0    0    0  0.00000000000E+00  0.00000000000E+00  0.45593999997E+02  0.45594000000E+02  0.51100000000E-03 0. -1.
         11   -1    0    0    0    0 -0.00000000000E+00 -0.00000000000E+00 -0.45593999997E+02  0.45594000000E+02  0.51100000000E-03 0.  1.
    9900012    2    1    2    0    0  0.74275275570E+00  0.64723601608E+00 -0.65019224817E+00  0.90007599188E+02  0.89999858698E+02 0.  0.
         12    1    1    2    0    0 -0.74275275570E+00 -0.64723601608E+00  0.65019224817E+00  0.11804008117E+01  0.00000000000E+00 0. -1.
         11    1    3    3    0    0 -0.51850742291E+01 -0.19798850005E+02  0.23528803387E+02  0.31184676451E+02  0.51100000000E-03 0. -1.
        -11    1    3    3    0    0 -0.86010761305E+01 -0.59724952022E+01  0.91316591055E+01  0.13893754274E+02  0.51100000000E-03 0.  1.
        -12    1    3    3    0    0  0.14528903115E+02  0.26418581223E+02 -0.33310654741E+02  0.44929168463E+02  0.00000000000E+00 0.  1.
</event>
<event>
 7    1  0.2285268E-015  0.9000777E+02  0.7816164E-02  0.1186339E+00
        -11   -1    0    0    0    0  0.00000000000E+00  0.00000000000E+00  0.45593999997E+02  0.45594000000E+02  0.51100000000E-03 0.  1.
         11   -1    0    0    0    0 -0.00000000000E+00 -0.00000000000E+00 -0.45593999997E+02  0.45594000000E+02  0.51100000000E-03 0. -1.
    9900012    2    1    2    0    0  0.16538479674E+00  0.11635780811E+01  0.10802103482E+00  0.90007773485E+02  0.90000035295E+02 0.  0.
         12    1    1    2    0    0 -0.16538479674E+00 -0.11635780811E+01 -0.10802103482E+00  0.11802265146E+01  0.00000000000E+00 0. -1.
         11    1    3    3    0    0  0.12233342974E+02  0.40513459673E+01 -0.37823226787E+01  0.13430340635E+02  0.51100000000E-03 0. -1.
        -11    1    3    3    0    0  0.26911961210E+02 -0.20366378434E+02  0.23185389798E+01  0.33829257307E+02  0.51100000000E-03 0.  1.
         12    1    3    3    0    0 -0.38979919388E+02  0.17478610548E+02  0.15718047338E+01  0.42748175543E+02  0.00000000000E+00 0. -1.
</event>
<event>
 7    1  0.2285268E-015  0.9000778E+02  0.7816164E-02  0.1186339E+00
        -11   -1    0    0    0    0  0.00000000000E+00  0.00000000000E+00  0.45593999997E+02  0.45594000000E+02  0.51100000000E-03 0.  1.
         11   -1    0    0    0    0 -0.00000000000E+00 -0.00000000000E+00 -0.45593999997E+02  0.45594000000E+02  0.51100000000E-03 0. -1.
    9900012    2    1    2    0    0 -0.89010427877E+00  0.56540659718E+00 -0.53004075898E+00  0.90007782455E+02  0.90000044383E+02 0.  0.
         12    1    1    2    0    0  0.89010427877E+00 -0.56540659718E+00  0.53004075898E+00  0.11802175449E+01  0.00000000000E+00 0. -1.
         11    1    3    3    0    0  0.24165793487E+01  0.12482646441E+02 -0.30795055163E+02  0.33316538546E+02  0.51100000000E-03 0. -1.
        -11    1    3    3    0    0  0.13370871953E+02  0.90652101407E+01 -0.14542146244E+00  0.16154856835E+02  0.51100000000E-03 0.  1.
        -12    1    3    3    0    0 -0.16677555581E+02 -0.20982449984E+02  0.30410435866E+02  0.40536387075E+02  0.00000000000E+00 0.  1.
</event>
<event>
 7    1  0.2636309E-015  0.9000769E+02  0.7816164E-02  0.1186339E+00
        -11   -1    0    0    0    0  0.00000000000E+00  0.00000000000E+00  0.45593999997E+02  0.45594000000E+02  0.51100000000E-03 0.  1.
         11   -1    0    0    0    0 -0.00000000000E+00 -0.00000000000E+00 -0.45593999997E+02  0.45594000000E+02  0.51100000000E-03 0. -1.
    9900012    2    1    2    0    0 -0.82765601471E+00  0.50149103835E+00  0.67573675905E+00  0.90007691605E+02  0.89999952334E+02 0.  0.
         12    1    1    2    0    0  0.82765601471E+00 -0.50149103835E+00 -0.67573675905E+00  0.11803083952E+01  0.00000000000E+00 0. -1.
         11    1    3    3    0    0  0.96865156505E+00 -0.93072048850E+01  0.86174345823E+00  0.93970713882E+01  0.51100000000E-03 0. -1.
        -11    1    3    3    0    0 -0.10327266050E+02 -0.22460647524E+02  0.27692520143E+02  0.37121540693E+02  0.51100000000E-03 0.  1.
         12    1    3    3    0    0  0.85309584702E+01  0.32269343447E+02 -0.27878526842E+02  0.43489079524E+02  0.00000000000E+00 0. -1.
</event>
<event>
 7    1  0.2285268E-015  0.9000782E+02  0.7816164E-02  0.1186339E+00
        -11   -1    0    0    0    0  0.00000000000E+00  0.00000000000E+00  0.45593999997E+02  0.45594000000E+02  0.51100000000E-03 0.  1.
         11   -1    0    0    0    0 -0.00000000000E+00 -0.00000000000E+00 -0.45593999997E+02  0.45594000000E+02  0.51100000000E-03 0. -1.
    9900012    2    1    2    0    0 -0.10495755191E+01 -0.16337339990E+00  0.51431363791E+00  0.90007822828E+02  0.90000085290E+02 0.  0.
         12    1    1    2    0    0  0.10495755191E+01  0.16337339990E+00 -0.51431363791E+00  0.11801771716E+01  0.00000000000E+00 0. -1.
         11    1    3    3    0    0  0.17083718320E+00  0.42511438854E+01 -0.74585737842E+01  0.85867183972E+01  0.51100000000E-03 0. -1.
        -11    1    3    3    0    0  0.69774729258E+01  0.37154494172E+02  0.96571863962E+01  0.39017980662E+02  0.51100000000E-03 0.  1.
         12    1    3    3    0    0 -0.81978856282E+01 -0.41569011457E+02 -0.16842989742E+01  0.42403123769E+02  0.00000000000E+00 0. -1.
</event>
<event>
 7    1  0.2285268E-015  0.9000771E+02  0.7816164E-02  0.1186339E+00
        -11   -1    0    0    0    0  0.00000000000E+00  0.00000000000E+00  0.45593999997E+02  0.45594000000E+02  0.51100000000E-03 0.  1.
         11   -1    0    0    0    0 -0.00000000000E+00 -0.00000000000E+00 -0.45593999997E+02  0.45594000000E+02  0.51100000000E-03 0. -1.
    9900012    2    1    2    0    0  0.92112522067E+00  0.61294147296E+00 -0.41098727278E+00  0.90007712128E+02  0.89999973129E+02 0.  0.
         12    1    1    2    0    0 -0.92112522067E+00 -0.61294147296E+00  0.41098727278E+00  0.11802878716E+01  0.00000000000E+00 0. -1.
         11    1    3    3    0    0 -0.11350801712E+02  0.71975078291E+01 -0.35676821717E+01  0.13905868358E+02  0.51100000000E-03 0. -1.
        -11    1    3    3    0    0 -0.40440404475E+01  0.32847416750E+02  0.45388431446E+01  0.33405211385E+02  0.51100000000E-03 0.  1.
         12    1    3    3    0    0  0.16315967380E+02 -0.39431983107E+02 -0.13821482456E+01  0.42696632385E+02  0.00000000000E+00 0. -1.
</event>
<event>
 7    1  0.2285268E-015  0.9000773E+02  0.7816164E-02  0.1186339E+00
        -11   -1    0    0    0    0  0.00000000000E+00  0.00000000000E+00  0.45593999997E+02  0.45594000000E+02  0.51100000000E-03 0.  1.
         11   -1    0    0    0    0 -0.00000000000E+00 -0.00000000000E+00 -0.45593999997E+02  0.45594000000E+02  0.51100000000E-03 0. -1.
    9900012    2    1    2    0    0  0.58756137524E+00 -0.12154656807E+00  0.10163811450E+01  0.90007731992E+02  0.89999993255E+02 0.  0.
         12    1    1    2    0    0 -0.58756137524E+00  0.12154656807E+00 -0.10163811450E+01  0.11802680076E+01  0.00000000000E+00 0. -1.
         11    1    3    3    0    0  0.34907386786E+01 -0.71643264880E+01 -0.22110471546E+00  0.79725603231E+01  0.51100000000E-03 0. -1.
        -11    1    3    3    0    0  0.34561400436E+02 -0.13730059966E+02  0.95558811293E+01  0.38396872414E+02  0.51100000000E-03 0.  1.
         12    1    3    3    0    0 -0.37464577739E+02  0.20772839886E+02 -0.83183952688E+01  0.43638299256E+02  0.00000000000E+00 0. -1.
</event>
<event>
 7    1  0.2285268E-015  0.9000791E+02  0.7816164E-02  0.1186339E+00
        -11   -1    0    0    0    0  0.00000000000E+00  0.00000000000E+00  0.45593999997E+02  0.45594000000E+02  0.51100000000E-03 0. -1.
         11   -1    0    0    0    0 -0.00000000000E+00 -0.00000000000E+00 -0.45593999997E+02  0.45594000000E+02  0.51100000000E-03 0.  1.
    9900012    2    1    2    0    0 -0.12490848042E+00 -0.59161849271E+00 -0.10134052404E+01  0.90007913244E+02  0.90000176899E+02 0.  0.
         12    1    1    2    0    0  0.12490848042E+00  0.59161849271E+00  0.10134052404E+01  0.11800867556E+01  0.00000000000E+00 0. -1.
         11    1    3    3    0    0  0.36420937785E+02 -0.85145391136E+01  0.16255694936E+02  0.40782713293E+02  0.51100000000E-03 0. -1.
        -11    1    3    3    0    0  0.21074616903E+01  0.71296873517E+01 -0.28728041595E+01  0.79703726706E+01  0.51100000000E-03 0.  1.
        -12    1    3    3    0    0 -0.38653307956E+02  0.79323326920E+00 -0.14396296017E+02  0.41254827280E+02  0.00000000000E+00 0.  1.
</event>
<event>
 7    1  0.2285268E-015  0.9000780E+02  0.7816164E-02  0.1186339E+00
        -11   -1    0    0    0    0  0.00000000000E+00  0.00000000000E+00  0.45593999997E+02  0.45594000000E+02  0.51100000000E-03 0. -1.
         11   -1    0    0    0    0 -0.00000000000E+00 -0.00000000000E+00 -0.45593999997E+02  0.45594000000E+02  0.51100000000E-03 0.  1.
    9900012    2    1    2    0    0 -0.10314460671E+01 -0.54607842771E+00  0.17547112542E+00  0.90007799697E+02  0.90000061853E+02 0.  0.
         12    1    1    2    0    0  0.10314460671E+01  0.54607842771E+00 -0.17547112542E+00  0.11802003026E+01  0.00000000000E+00 0. -1.
         11    1    3    3    0    0  0.50104780956E+01  0.53135792067E+01  0.85314124687E+01  0.11230494811E+02  0.51100000000E-03 0. -1.
        -11    1    3    3    0    0 -0.50397620271E+01 -0.33691748663E+02  0.19611430044E+02  0.39308285614E+02  0.51100000000E-03 0.  1.
         12    1    3    3    0    0 -0.10021621356E+01  0.27832091029E+02 -0.27967371387E+02  0.39469019272E+02  0.00000000000E+00 0. -1.
</event>
<event>
 7    1  0.2285268E-015  0.9000772E+02  0.7816164E-02  0.1186339E+00
        -11   -1    0    0    0    0  0.00000000000E+00  0.00000000000E+00  0.45593999997E+02  0.45594000000E+02  0.51100000000E-03 0.  1.
         11   -1    0    0    0    0 -0.00000000000E+00 -0.00000000000E+00 -0.45593999997E+02  0.45594000000E+02  0.51100000000E-03 0. -1.
    9900012    2    1    2    0    0 -0.10210210657E+01  0.75017686899E-02  0.59205550305E+00  0.90007716131E+02  0.89999977184E+02 0.  0.
         12    1    1    2    0    0  0.10210210657E+01 -0.75017686899E-02 -0.59205550305E+00  0.11802838692E+01  0.00000000000E+00 0. -1.
         11    1    3    3    0    0 -0.46804532739E+01 -0.69096377141E+01  0.61364641820E+01  0.10358857519E+02  0.51100000000E-03 0. -1.
        -11    1    3    3    0    0 -0.29964581817E+01 -0.26034389740E+00  0.36427072690E+02  0.36551035083E+02  0.51100000000E-03 0.  1.
         12    1    3    3    0    0  0.66558903898E+01  0.71774833801E+01 -0.41971481369E+02  0.43097823528E+02  0.00000000000E+00 0. -1.
</event>
<event>
 7    1  0.4302041E-015  0.9000777E+02  0.7816164E-02  0.1186339E+00
        -11   -1    0    0    0    0  0.00000000000E+00  0.00000000000E+00  0.45593999997E+02  0.45594000000E+02  0.51100000000E-03 0.  1.
         11   -1    0    0    0    0 -0.00000000000E+00 -0.00000000000E+00 -0.45593999997E+02  0.45594000000E+02  0.51100000000E-03 0. -1.
    9900012    2    1    2    0    0 -0.66973525430E+00 -0.14671299812E+00  0.96065767695E+00  0.90007774095E+02  0.90000035913E+02 0.  0.
         12    1    1    2    0    0  0.66973525430E+00  0.14671299812E+00 -0.96065767695E+00  0.11802259051E+01  0.00000000000E+00 0. -1.
         11    1    3    3    0    0 -0.88600167745E+01 -0.24369829210E+00  0.46251836389E+01  0.99975802100E+01  0.51100000000E-03 0. -1.
        -11    1    3    3    0    0  0.72651932656E+01 -0.14052986247E+00  0.37821473973E+02  0.38513201315E+02  0.51100000000E-03 0.  1.
         12    1    3    3    0    0  0.92508825455E+00  0.23751515646E+00 -0.41485999935E+02  0.41496992569E+02  0.00000000000E+00 0. -1.
</event>
<event>
 7    1  0.2285268E-015  0.9000783E+02  0.7816164E-02  0.1186339E+00
        -11   -1    0    0    0    0  0.00000000000E+00  0.00000000000E+00  0.45593999997E+02  0.45594000000E+02  0.51100000000E-03 0. -1.
         11   -1    0    0    0    0 -0.00000000000E+00 -0.00000000000E+00 -0.45593999997E+02  0.45594000000E+02  0.51100000000E-03 0.  1.
    9900012    2    1    2    0    0 -0.31797456577E+00 -0.97320861928E+00 -0.58698520837E+00  0.90007832861E+02  0.90000095455E+02 0.  0.
         12    1    1    2    0    0  0.31797456577E+00  0.97320861928E+00  0.58698520837E+00  0.11801671390E+01  0.00000000000E+00 0. -1.
         11    1    3    3    0    0  0.65002925100E+00 -0.10267720138E+02  0.49819631478E+01  0.11431035471E+02  0.51100000000E-03 0. -1.
        -11    1    3    3    0    0 -0.51129232472E+01 -0.31066498235E+02  0.12865989671E+02  0.34011806585E+02  0.51100000000E-03 0.  1.
         12    1    3    3    0    0  0.41449194305E+01  0.40361009754E+02 -0.18434938027E+02  0.44564990805E+02  0.00000000000E+00 0. -1.
</event>
<event>
 7    1  0.2285268E-015  0.9000778E+02  0.7816164E-02  0.1186339E+00
        -11   -1    0    0    0    0  0.00000000000E+00  0.00000000000E+00  0.45593999997E+02  0.45594000000E+02  0.51100000000E-03 0.  1.
         11   -1    0    0    0    0 -0.00000000000E+00 -0.00000000000E+00 -0.45593999997E+02  0.45594000000E+02  0.51100000000E-03 0. -1.
    9900012    2    1    2    0    0 -0.10106575550E+01  0.45721643138E+00  0.40305186464E+00  0.90007776985E+02  0.90000038842E+02 0.  0.
         12    1    1    2    0    0  0.10106575550E+01 -0.45721643138E+00 -0.40305186464E+00  0.11802230146E+01  0.00000000000E+00 0. -1.
         11    1    3    3    0    0  0.28031678043E+01  0.55017084708E+01 -0.98827670332E+00  0.62532581060E+01  0.51100000000E-03 0. -1.
        -11    1    3    3    0    0  0.37088199375E+02 -0.11116984560E+02  0.12936860758E+02  0.40822594787E+02  0.51100000000E-03 0.  1.
         12    1    3    3    0    0 -0.40902024734E+02  0.60724925204E+01 -0.11545532190E+02  0.42931924093E+02  0.00000000000E+00 0. -1.
</event>
<event>
 7    1  0.2285268E-015  0.9000774E+02  0.7816164E-02  0.1186339E+00
        -11   -1    0    0    0    0  0.00000000000E+00  0.00000000000E+00  0.45593999997E+02  0.45594000000E+02  0.51100000000E-03 0.  1.
         11   -1    0    0    0    0 -0.00000000000E+00 -0.00000000000E+00 -0.45593999997E+02  0.45594000000E+02  0.51100000000E-03 0. -1.
    9900012    2    1    2    0    0  0.11636320619E+01 -0.65488214673E-01 -0.18622818024E+00  0.90007741886E+02  0.90000003278E+02 0.  0.
         12    1    1    2    0    0 -0.11636320619E+01  0.65488214673E-01  0.18622818024E+00  0.11802581145E+01  0.00000000000E+00 0. -1.
         11    1    3    3    0    0  0.59229199572E+01 -0.71138042320E+01  0.36597086974E+00  0.92639692578E+01  0.51100000000E-03 0. -1.
        -11    1    3    3    0    0 -0.29749664321E+02  0.46086577408E+01 -0.29688359690E+02  0.42280976275E+02  0.51100000000E-03 0.  1.
         12    1    3    3    0    0  0.24990376426E+02  0.24396582765E+01  0.29136160640E+02  0.38462796353E+02  0.00000000000E+00 0. -1.
</event>
<event>
 7    1  0.2285268E-015  0.9000730E+02  0.7816164E-02  0.1186340E+00
        -11   -1    0    0    0    0  0.00000000000E+00  0.00000000000E+00  0.45593999997E+02  0.45594000000E+02  0.51100000000E-03 0. -1.
         11   -1    0    0    0    0 -0.00000000000E+00 -0.00000000000E+00 -0.45593999997E+02  0.45594000000E+02  0.51100000000E-03 0.  1.
    9900012    2    1    2    0    0  0.41730447320E-01  0.11312517929E+01 -0.33553366379E+00  0.90007298984E+02  0.89999554530E+02 0.  0.
         12    1    1    2    0    0 -0.41730447320E-01 -0.11312517929E+01  0.33553366379E+00  0.11807010158E+01  0.00000000000E+00 0. -1.
         11    1    3    3    0    0  0.43796089255E+01 -0.46024016076E+01  0.58086335255E+01  0.86083272819E+01  0.51100000000E-03 0. -1.
        -11    1    3    3    0    0  0.24597216082E+01 -0.32176517885E+02 -0.22722639082E+02  0.39467668549E+02  0.51100000000E-03 0.  1.
         12    1    3    3    0    0 -0.67976000864E+01  0.37910171285E+02  0.16578471893E+02  0.41931303153E+02  0.00000000000E+00 0. -1.
</event>
<event>
 7    1  0.2285268E-015  0.9000776E+02  0.7816164E-02  0.1186339E+00
        -11   -1    0    0    0    0  0.00000000000E+00  0.00000000000E+00  0.45593999997E+02  0.45594000000E+02  0.51100000000E-03 0. -1.
         11   -1    0    0    0    0 -0.00000000000E+00 -0.00000000000E+00 -0.45593999997E+02  0.45594000000E+02  0.51100000000E-03 0.  1.
    9900012    2    1    2    0    0 -0.10476617930E+00  0.11357204719E+01  0.30351042256E+00  0.90007764634E+02  0.90000026327E+02 0.  0.
         12    1    1    2    0    0  0.10476617930E+00 -0.11357204719E+01 -0.30351042256E+00  0.11802353660E+01  0.00000000000E+00 0. -1.
         11    1    3    3    0    0 -0.83137352816E+01 -0.13441105688E+02  0.30144050821E+02  0.34035941542E+02  0.51100000000E-03 0. -1.
        -11    1    3    3    0    0 -0.14160780773E+00  0.37341796141E+00  0.11480282268E+02  0.11487226600E+02  0.51100000000E-03 0.  1.
        -12    1    3    3    0    0  0.83505769101E+01  0.14203408198E+02 -0.41320822667E+02  0.44484596492E+02  0.00000000000E+00 0.  1.
</event>
<event>
 7    1  0.2285268E-015  0.9000784E+02  0.7816164E-02  0.1186339E+00
        -11   -1    0    0    0    0  0.00000000000E+00  0.00000000000E+00  0.45593999997E+02  0.45594000000E+02  0.51100000000E-03 0. -1.
         11   -1    0    0    0    0 -0.00000000000E+00 -0.00000000000E+00 -0.45593999997E+02  0.45594000000E+02  0.51100000000E-03 0.  1.
    9900012    2    1    2    0    0  0.36126198115E-01 -0.17088149615E+00 -0.11671599725E+01  0.90007844083E+02  0.90000106824E+02 0.  0.
         12    1    1    2    0    0 -0.36126198115E-01  0.17088149615E+00  0.11671599725E+01  0.11801559173E+01  0.00000000000E+00 0. -1.
         11    1    3    3    0    0  0.17901803350E+02 -0.31101876496E+02  0.44934524975E+01  0.36166177575E+02  0.51100000000E-03 0. -1.
        -11    1    3    3    0    0  0.12381778308E+02  0.41140030194E+01 -0.25880601852E+01  0.13301560461E+02  0.51100000000E-03 0.  1.
        -12    1    3    3    0    0 -0.30247455460E+02  0.26816991981E+02 -0.30725522847E+01  0.40540106047E+02  0.00000000000E+00 0.  1.
</event>
<event>
 7    1  0.2285268E-015  0.9000776E+02  0.7816164E-02  0.1186339E+00
        -11   -1    0    0    0    0  0.00000000000E+00  0.00000000000E+00  0.45593999997E+02  0.45594000000E+02  0.51100000000E-03 0.  1.
         11   -1    0    0    0    0 -0.00000000000E+00 -0.00000000000E+00 -0.45593999997E+02  0.45594000000E+02  0.51100000000E-03 0. -1.
    9900012    2    1    2    0    0 -0.14616421275E+00 -0.11698354577E+01 -0.55493405450E-01  0.90007763374E+02  0.90000025051E+02 0.  0.
         12    1    1    2    0    0  0.14616421275E+00  0.11698354577E+01  0.55493405450E-01  0.11802366259E+01  0.00000000000E+00 0. -1.
         11    1    3    3    0    0 -0.52426531300E+01 -0.25856096061E+02 -0.29639175861E+02  0.39680018414E+02  0.51100000000E-03 0. -1.
        -11    1    3    3    0    0 -0.58466329381E+01 -0.21677707225E+01 -0.28198215147E+01  0.68435181197E+01  0.51100000000E-03 0.  1.
        -12    1    3    3    0    0  0.10943121855E+02  0.26854031326E+02  0.32403503970E+02  0.43484226841E+02  0.00000000000E+00 0.  1.
</event>
<event>
 7    1  0.2285268E-015  0.9000779E+02  0.7816164E-02  0.1186339E+00
        -11   -1    0    0    0    0  0.00000000000E+00  0.00000000000E+00  0.45593999997E+02  0.45594000000E+02  0.51100000000E-03 0.  1.
         11   -1    0    0    0    0 -0.00000000000E+00 -0.00000000000E+00 -0.45593999997E+02  0.45594000000E+02  0.51100000000E-03 0. -1.
    9900012    2    1    2    0    0 -0.21708685235E+00  0.11090154246E+01  0.34037411212E+00  0.90007789659E+02  0.90000051682E+02 0.  0.
         12    1    1    2    0    0  0.21708685235E+00 -0.11090154246E+01 -0.34037411212E+00  0.11802103412E+01  0.00000000000E+00 0. -1.
         11    1    3    3    0    0 -0.15318249923E+02 -0.34615800946E+02 -0.16376405749E+02  0.41244261678E+02  0.51100000000E-03 0. -1.
        -11    1    3    3    0    0 -0.64167357388E+01  0.60506547709E+01  0.98159564859E+00  0.88740323966E+01  0.51100000000E-03 0.  1.
        -12    1    3    3    0    0  0.21517898809E+02  0.29674161599E+02  0.15735184212E+02  0.39889495585E+02  0.00000000000E+00 0.  1.
</event>
<event>
 7    1  0.2285268E-015  0.9000785E+02  0.7816164E-02  0.1186339E+00
        -11   -1    0    0    0    0  0.00000000000E+00  0.00000000000E+00  0.45593999997E+02  0.45594000000E+02  0.51100000000E-03 0. -1.
         11   -1    0    0    0    0 -0.00000000000E+00 -0.00000000000E+00 -0.45593999997E+02  0.45594000000E+02  0.51100000000E-03 0.  1.
    9900012    2    1    2    0    0 -0.10593046637E+01  0.17303391974E+00 -0.49060642109E+00  0.90007846718E+02  0.90000109495E+02 0.  0.
         12    1    1    2    0    0  0.10593046637E+01 -0.17303391974E+00  0.49060642109E+00  0.11801532817E+01  0.00000000000E+00 0. -1.
         11    1    3    3    0    0 -0.71810969994E+01 -0.39637440267E+02 -0.84876291897E+01  0.41167155289E+02  0.51100000000E-03 0. -1.
        -11    1    3    3    0    0  0.91713375518E+01  0.32110636476E+01 -0.35447219338E+01  0.10343568827E+02  0.51100000000E-03 0.  1.
        -12    1    3    3    0    0 -0.30495452160E+01  0.36599410539E+02  0.11541744702E+02  0.38497122602E+02  0.00000000000E+00 0.  1.
</event>
<event>
 7    1  0.2285268E-015  0.9000757E+02  0.7816164E-02  0.1186339E+00
        -11   -1    0    0    0    0  0.00000000000E+00  0.00000000000E+00  0.45593999997E+02  0.45594000000E+02  0.51100000000E-03 0. -1.
         11   -1    0    0    0    0 -0.00000000000E+00 -0.00000000000E+00 -0.45593999997E+02  0.45594000000E+02  0.51100000000E-03 0.  1.
    9900012    2    1    2    0    0 -0.53977575323E+00  0.10426920627E+01 -0.12182922301E+00  0.90007573399E+02  0.89999832567E+02 0.  0.
         12    1    1    2    0    0  0.53977575323E+00 -0.10426920627E+01  0.12182922301E+00  0.11804266012E+01  0.00000000000E+00 0. -1.
         11    1    3    3    0    0 -0.42994647333E+01  0.13272095417E+02 -0.10298916428E+02  0.17340749511E+02  0.51100000000E-03 0. -1.
        -11    1    3    3    0    0  0.35825022971E+02 -0.16677547080E+02  0.70879553373E+01  0.40147377979E+02  0.51100000000E-03 0.  1.
         12    1    3    3    0    0 -0.32065333990E+02  0.44481437255E+01  0.30891318673E+01  0.32519445909E+02  0.00000000000E+00 0. -1.
</event>
<event>
 7    1  0.2285268E-015  0.9000778E+02  0.7816164E-02  0.1186339E+00
        -11   -1    0    0    0    0  0.00000000000E+00  0.00000000000E+00  0.45593999997E+02  0.45594000000E+02  0.51100000000E-03 0. -1.
         11   -1    0    0    0    0 -0.00000000000E+00 -0.00000000000E+00 -0.45593999997E+02  0.45594000000E+02  0.51100000000E-03 0.  1.
    9900012    2    1    2    0    0 -0.39495940737E+00  0.15374507573E+00 -0.11014983583E+01  0.90007775820E+02  0.90000037661E+02 0.  0.
         12    1    1    2    0    0  0.39495940737E+00 -0.15374507573E+00  0.11014983583E+01  0.11802241800E+01  0.00000000000E+00 0. -1.
         11    1    3    3    0    0 -0.23579835985E+02  0.24962887071E+02  0.18895348571E+02  0.39194241846E+02  0.51100000000E-03 0. -1.
        -11    1    3    3    0    0  0.72630386727E-02 -0.23093182742E+01  0.78391106481E+01  0.81721881805E+01  0.51100000000E-03 0.  1.
        -12    1    3    3    0    0  0.23177613539E+02 -0.22499823721E+02 -0.27835957577E+02  0.42641345794E+02  0.00000000000E+00 0.  1.
</event>
<event>
 7    1  0.2285268E-015  0.9000774E+02  0.7816164E-02  0.1186339E+00
        -11   -1    0    0    0    0  0.00000000000E+00  0.00000000000E+00  0.45593999997E+02  0.45594000000E+02  0.51100000000E-03 0.  1.
         11   -1    0    0    0    0 -0.00000000000E+00 -0.00000000000E+00 -0.45593999997E+02  0.45594000000E+02  0.51100000000E-03 0. -1.
    9900012    2    1    2    0    0 -0.73900709706E+00  0.62180625387E+00 -0.67840905230E+00  0.90007740135E+02  0.90000001505E+02 0.  0.
         12    1    1    2    0    0  0.73900709706E+00 -0.62180625387E+00  0.67840905230E+00  0.11802598651E+01  0.00000000000E+00 0. -1.
         11    1    3    3    0    0 -0.66735715876E+01 -0.34431795223E+02 -0.85708339172E+01  0.36104629542E+02  0.51100000000E-03 0. -1.
        -11    1    3    3    0    0 -0.15180214113E+01 -0.86238295965E+01 -0.64229259350E+00  0.87799411132E+01  0.51100000000E-03 0.  1.
        -12    1    3    3    0    0  0.74525859019E+01  0.43677431074E+02  0.85347174584E+01  0.45123169480E+02  0.00000000000E+00 0.  1.
</event>
<event>
 7    1  0.2285268E-015  0.9000775E+02  0.7816164E-02  0.1186339E+00
        -11   -1    0    0    0    0  0.00000000000E+00  0.00000000000E+00  0.45593999997E+02  0.45594000000E+02  0.51100000000E-03 0.  1.
         11   -1    0    0    0    0 -0.00000000000E+00 -0.00000000000E+00 -0.45593999997E+02  0.45594000000E+02  0.51100000000E-03 0. -1.
    9900012    2    1    2    0    0 -0.90258516621E+00 -0.19489491556E+00  0.73508183903E+00  0.90007750314E+02  0.90000011819E+02 0.  0.
         12    1    1    2    0    0  0.90258516621E+00  0.19489491556E+00 -0.73508183903E+00  0.11802496856E+01  0.00000000000E+00 0. -1.
         11    1    3    3    0    0  0.32209395887E+01 -0.20569147814E+01 -0.84332215324E+01  0.92587567161E+01  0.51100000000E-03 0. -1.
        -11    1    3    3    0    0  0.36461166901E+02  0.11534278400E+02  0.11200391597E+01  0.38258473022E+02  0.51100000000E-03 0.  1.
         12    1    3    3    0    0 -0.40584691656E+02 -0.96722585343E+01  0.80482642117E+01  0.42490520576E+02  0.00000000000E+00 0. -1.
</event>
<event>
 7    1  0.2285268E-015  0.9000769E+02  0.7816164E-02  0.1186339E+00
        -11   -1    0    0    0    0  0.00000000000E+00  0.00000000000E+00  0.45593999997E+02  0.45594000000E+02  0.51100000000E-03 0.  1.
         11   -1    0    0    0    0 -0.00000000000E+00 -0.00000000000E+00 -0.45593999997E+02  0.45594000000E+02  0.51100000000E-03 0. -1.
    9900012    2    1    2    0    0 -0.35022339049E+00 -0.83066527597E+00  0.76188762564E+00  0.90007689033E+02  0.89999949729E+02 0.  0.
         12    1    1    2    0    0  0.35022339049E+00  0.83066527597E+00 -0.76188762564E+00  0.11803109667E+01  0.00000000000E+00 0. -1.
         11    1    3    3    0    0  0.99412183486E+01  0.30095042497E+01 -0.64127988052E+01  0.12206921269E+02  0.51100000000E-03 0. -1.
        -11    1    3    3    0    0  0.18760440881E+02 -0.14010981065E+02  0.31019306353E+02  0.38864625295E+02  0.51100000000E-03 0.  1.
         12    1    3    3    0    0 -0.29051882620E+02  0.10170811539E+02 -0.23844619922E+02  0.38936142469E+02  0.00000000000E+00 0. -1.
</event>
<event>
 7    1  0.2285268E-015  0.9000757E+02  0.7816164E-02  0.1186339E+00
        -11   -1    0    0    0    0  0.00000000000E+00  0.00000000000E+00  0.45593999997E+02  0.45594000000E+02  0.51100000000E-03 0. -1.
         11   -1    0    0    0    0 -0.00000000000E+00 -0.00000000000E+00 -0.45593999997E+02  0.45594000000E+02  0.51100000000E-03 0.  1.
    9900012    2    1    2    0    0 -0.45900226215E+00 -0.32488708716E+00 -0.10378710930E+01  0.90007571645E+02  0.89999830790E+02 0.  0.
         12    1    1    2    0    0  0.45900226215E+00  0.32488708716E+00  0.10378710930E+01  0.11804283552E+01  0.00000000000E+00 0. -1.
         11    1    3    3    0    0  0.13888405050E+02 -0.37502170039E+02 -0.36487946728E+01  0.40157368630E+02  0.51100000000E-03 0. -1.
        -11    1    3    3    0    0  0.64604227147E+01  0.39635358780E+01 -0.60659688036E+01  0.97078656818E+01  0.51100000000E-03 0.  1.
        -12    1    3    3    0    0 -0.20807830027E+02  0.33213747074E+02  0.86768923834E+01  0.40142337333E+02  0.00000000000E+00 0.  1.
</event>
<event>
 7    1  0.2285268E-015  0.9000773E+02  0.7816164E-02  0.1186339E+00
        -11   -1    0    0    0    0  0.00000000000E+00  0.00000000000E+00  0.45593999997E+02  0.45594000000E+02  0.51100000000E-03 0. -1.
         11   -1    0    0    0    0 -0.00000000000E+00 -0.00000000000E+00 -0.45593999997E+02  0.45594000000E+02  0.51100000000E-03 0.  1.
    9900012    2    1    2    0    0  0.45266880210E+00  0.10252935302E+01 -0.36998939548E+00  0.90007733920E+02  0.89999995207E+02 0.  0.
         12    1    1    2    0    0 -0.45266880210E+00 -0.10252935302E+01  0.36998939548E+00  0.11802660803E+01  0.00000000000E+00 0. -1.
         11    1    3    3    0    0  0.77220157488E+00  0.11049018237E+01  0.89927462924E+01  0.90932166725E+01  0.51100000000E-03 0. -1.
        -11    1    3    3    0    0  0.28646834767E+02 -0.42384250397E+01 -0.32558031327E+02  0.43573280725E+02  0.51100000000E-03 0.  1.
         12    1    3    3    0    0 -0.28966367540E+02  0.41588167462E+01  0.23195295639E+02  0.37341236522E+02  0.00000000000E+00 0. -1.
</event>
<event>
 7    1  0.2285268E-015  0.9000774E+02  0.7816164E-02  0.1186339E+00
        -11   -1    0    0    0    0  0.00000000000E+00  0.00000000000E+00  0.45593999997E+02  0.45594000000E+02  0.51100000000E-03 0. -1.
         11   -1    0    0    0    0 -0.00000000000E+00 -0.00000000000E+00 -0.45593999997E+02  0.45594000000E+02  0.51100000000E-03 0.  1.
    9900012    2    1    2    0    0 -0.27480929239E+00  0.91423856745E+00 -0.69401466677E+00  0.90007742120E+02  0.90000003516E+02 0.  0.
         12    1    1    2    0    0  0.27480929239E+00 -0.91423856745E+00  0.69401466677E+00  0.11802578799E+01  0.00000000000E+00 0. -1.
         11    1    3    3    0    0  0.56047541575E+01 -0.17023453607E+01  0.98340202441E+01  0.11446362012E+02  0.51100000000E-03 0. -1.
        -11    1    3    3    0    0  0.32590388450E+02 -0.13184653799E+02  0.17449369309E+01  0.35199621025E+02  0.51100000000E-03 0.  1.
         12    1    3    3    0    0 -0.38469951900E+02  0.15801237728E+02 -0.12272971842E+02  0.43361759083E+02  0.00000000000E+00 0. -1.
</event>
<event>
 7    1  0.2285268E-015  0.9000768E+02  0.7816164E-02  0.1186339E+00
        -11   -1    0    0    0    0  0.00000000000E+00  0.00000000000E+00  0.45593999997E+02  0.45594000000E+02  0.51100000000E-03 0.  1.
         11   -1    0    0    0    0 -0.00000000000E+00 -0.00000000000E+00 -0.45593999997E+02  0.45594000000E+02  0.51100000000E-03 0. -1.
    9900012    2    1    2    0    0  0.34663637245E+00 -0.12390634060E+00  0.11214493088E+01  0.90007678811E+02  0.89999939372E+02 0.  0.
         12    1    1    2    0    0 -0.34663637245E+00  0.12390634060E+00 -0.11214493088E+01  0.11803211886E+01  0.00000000000E+00 0. -1.
         11    1    3    3    0    0  0.56586145001E+01  0.47607459710E+01 -0.52953511848E+01  0.90953485195E+01  0.51100000000E-03 0. -1.
        -11    1    3    3    0    0 -0.17563767864E+02  0.34691045241E+02  0.68428601625E+01  0.39481379116E+02  0.51100000000E-03 0.  1.
         12    1    3    3    0    0  0.12251789736E+02 -0.39575697552E+02 -0.42605966883E+00  0.41430951176E+02  0.00000000000E+00 0. -1.
</event>
<event>
 7    1  0.2285268E-015  0.9000775E+02  0.7816164E-02  0.1186339E+00
        -11   -1    0    0    0    0  0.00000000000E+00  0.00000000000E+00  0.45593999997E+02  0.45594000000E+02  0.51100000000E-03 0.  1.
         11   -1    0    0    0    0 -0.00000000000E+00 -0.00000000000E+00 -0.45593999997E+02  0.45594000000E+02  0.51100000000E-03 0. -1.
    9900012    2    1    2    0    0  0.79063431182E+00  0.43373888116E+00  0.76141332279E+00  0.90007753297E+02  0.90000014840E+02 0.  0.
         12    1    1    2    0    0 -0.79063431182E+00 -0.43373888116E+00 -0.76141332279E+00  0.11802467031E+01  0.00000000000E+00 0. -1.
         11    1    3    3    0    0 -0.20840322424E+02 -0.25598724433E+02 -0.19103504270E+02  0.38138662890E+02  0.51100000000E-03 0. -1.
        -11    1    3    3    0    0 -0.13950592005E+01 -0.61113938599E+01  0.88100587112E+01  0.10812606524E+02  0.51100000000E-03 0.  1.
        -12    1    3    3    0    0  0.23026015937E+02  0.32143857175E+02  0.11054858881E+02  0.41056483883E+02  0.00000000000E+00 0.  1.
</event>
<event>
 7    1  0.2285268E-015  0.9000774E+02  0.7816164E-02  0.1186339E+00
        -11   -1    0    0    0    0  0.00000000000E+00  0.00000000000E+00  0.45593999997E+02  0.45594000000E+02  0.51100000000E-03 0.  1.
         11   -1    0    0    0    0 -0.00000000000E+00 -0.00000000000E+00 -0.45593999997E+02  0.45594000000E+02  0.51100000000E-03 0. -1.
    9900012    2    1    2    0    0 -0.56068029101E+00  0.94877130511E+00  0.42248614010E+00  0.90007735658E+02  0.89999996969E+02 0.  0.
         12    1    1    2    0    0  0.56068029101E+00 -0.94877130511E+00 -0.42248614010E+00  0.11802643419E+01  0.00000000000E+00 0. -1.
         11    1    3    3    0    0  0.46361835687E+01  0.58895202008E+01 -0.73170699221E+01  0.10474739080E+02  0.51100000000E-03 0. -1.
        -11    1    3    3    0    0 -0.17752085426E+02 -0.34866606628E+02 -0.12752917984E+02  0.41151594284E+02  0.51100000000E-03 0.  1.
         12    1    3    3    0    0  0.12555221566E+02  0.29925857732E+02  0.20492474046E+02  0.38381402295E+02  0.00000000000E+00 0. -1.
</event>
<event>
 7    1  0.2285268E-015  0.9000778E+02  0.7816164E-02  0.1186339E+00
        -11   -1    0    0    0    0  0.00000000000E+00  0.00000000000E+00  0.45593999997E+02  0.45594000000E+02  0.51100000000E-03 0. -1.
         11   -1    0    0    0    0 -0.00000000000E+00 -0.00000000000E+00 -0.45593999997E+02  0.45594000000E+02  0.51100000000E-03 0.  1.
    9900012    2    1    2    0    0  0.44634623622E+00  0.78362760670E+00 -0.76133277953E+00  0.90007777652E+02  0.90000039517E+02 0.  0.
         12    1    1    2    0    0 -0.44634623622E+00 -0.78362760670E+00  0.76133277953E+00  0.11802223476E+01  0.00000000000E+00 0. -1.
         11    1    3    3    0    0 -0.98577611064E+01  0.21392846697E+02  0.25042725478E+02  0.34379753394E+02  0.51100000000E-03 0. -1.
        -11    1    3    3    0    0 -0.15981805231E+01  0.67387850712E+01  0.79772159452E+01  0.10564155419E+02  0.51100000000E-03 0.  1.
        -12    1    3    3    0    0  0.11902287866E+02 -0.27348004161E+02 -0.33781274202E+02  0.45063868839E+02  0.00000000000E+00 0.  1.
</event>
<event>
 7    1  0.2285268E-015  0.9000782E+02  0.7816164E-02  0.1186339E+00
        -11   -1    0    0    0    0  0.00000000000E+00  0.00000000000E+00  0.45593999997E+02  0.45594000000E+02  0.51100000000E-03 0.  1.
         11   -1    0    0    0    0 -0.00000000000E+00 -0.00000000000E+00 -0.45593999997E+02  0.45594000000E+02  0.51100000000E-03 0. -1.
    9900012    2    1    2    0    0  0.30353393372E+00  0.11382327724E+01  0.71595502057E-01  0.90007816705E+02  0.90000079086E+02 0.  0.
         12    1    1    2    0    0 -0.30353393372E+00 -0.11382327724E+01 -0.71595502057E-01  0.11801832947E+01  0.00000000000E+00 0. -1.
         11    1    3    3    0    0  0.13304449292E+00 -0.76246616146E+01  0.58492460797E+01  0.96107671669E+01  0.51100000000E-03 0. -1.
        -11    1    3    3    0    0  0.16245101411E+02 -0.21429062381E+02  0.23240338666E+02  0.35541825726E+02  0.51100000000E-03 0.  1.
         12    1    3    3    0    0 -0.16074611971E+02  0.30191956768E+02 -0.29017989244E+02  0.44855223812E+02  0.00000000000E+00 0. -1.
</event>
<event>
 7    1  0.2285268E-015  0.9000769E+02  0.7816164E-02  0.1186339E+00
        -11   -1    0    0    0    0  0.00000000000E+00  0.00000000000E+00  0.45593999997E+02  0.45594000000E+02  0.51100000000E-03 0.  1.
         11   -1    0    0    0    0 -0.00000000000E+00 -0.00000000000E+00 -0.45593999997E+02  0.45594000000E+02  0.51100000000E-03 0. -1.
    9900012    2    1    2    0    0  0.47689410474E+00  0.10514715144E+01  0.24515787599E+00  0.90007693804E+02  0.89999954562E+02 0.  0.
         12    1    1    2    0    0 -0.47689410474E+00 -0.10514715144E+01 -0.24515787599E+00  0.11803061963E+01  0.00000000000E+00 0. -1.
         11    1    3    3    0    0 -0.31233786896E+02  0.50865166783E+01 -0.15602740134E+02  0.35282681243E+02  0.51100000000E-03 0. -1.
        -11    1    3    3    0    0 -0.83951503000E+01 -0.38746856585E+01 -0.38826308283E+01  0.10028287986E+02  0.51100000000E-03 0.  1.
        -12    1    3    3    0    0  0.40105831301E+02 -0.16035950531E+00  0.19730528838E+02  0.44696724575E+02  0.00000000000E+00 0.  1.
</event>
<event>
 7    1  0.2285268E-015  0.9000768E+02  0.7816164E-02  0.1186339E+00
        -11   -1    0    0    0    0  0.00000000000E+00  0.00000000000E+00  0.45593999997E+02  0.45594000000E+02  0.51100000000E-03 0. -1.
         11   -1    0    0    0    0 -0.00000000000E+00 -0.00000000000E+00 -0.45593999997E+02  0.45594000000E+02  0.51100000000E-03 0.  1.
    9900012    2    1    2    0    0 -0.25643374782E+00 -0.11193821830E+01  0.27273108647E+00  0.90007679288E+02  0.89999939854E+02 0.  0.
         12    1    1    2    0    0  0.25643374782E+00  0.11193821830E+01 -0.27273108647E+00  0.11803207124E+01  0.00000000000E+00 0. -1.
         11    1    3    3    0    0 -0.51940897305E+01  0.67783921192E+01  0.83285021582E+01  0.11928500170E+02  0.51100000000E-03 0. -1.
        -11    1    3    3    0    0 -0.55873008472E+01 -0.41752969201E+02 -0.61806268187E+01  0.42576149614E+02  0.51100000000E-03 0.  1.
         12    1    3    3    0    0  0.10524956830E+02  0.33855194899E+02 -0.18751442530E+01  0.35503029503E+02  0.00000000000E+00 0. -1.
</event>
<event>
 7    1  0.2285268E-015  0.9000770E+02  0.7816164E-02  0.1186339E+00
        -11   -1    0    0    0    0  0.00000000000E+00  0.00000000000E+00  0.45593999997E+02  0.45594000000E+02  0.51100000000E-03 0. -1.
         11   -1    0    0    0    0 -0.00000000000E+00 -0.00000000000E+00 -0.45593999997E+02  0.45594000000E+02  0.51100000000E-03 0.  1.
    9900012    2    1    2    0    0 -0.11748894196E+01 -0.10271205431E+00 -0.46846238106E-01  0.90007699409E+02  0.89999960241E+02 0.  0.
         12    1    1    2    0    0  0.11748894196E+01  0.10271205431E+00  0.46846238106E-01  0.11803005907E+01  0.00000000000E+00 0. -1.
         11    1    3    3    0    0 -0.10501568803E+00  0.77804944948E+01 -0.17406785934E+00  0.77831499252E+01  0.51100000000E-03 0. -1.
        -11    1    3    3    0    0 -0.86854538417E+00 -0.85819814648E+01 -0.40592231813E+02  0.41498603118E+02  0.51100000000E-03 0.  1.
         12    1    3    3    0    0 -0.20132834741E+00  0.69877491570E+00  0.40719453434E+02  0.40725946366E+02  0.00000000000E+00 0. -1.
</event>
<event>
 7    1  0.2285268E-015  0.9000774E+02  0.7816164E-02  0.1186339E+00
        -11   -1    0    0    0    0  0.00000000000E+00  0.00000000000E+00  0.45593999997E+02  0.45594000000E+02  0.51100000000E-03 0. -1.
         11   -1    0    0    0    0 -0.00000000000E+00 -0.00000000000E+00 -0.45593999997E+02  0.45594000000E+02  0.51100000000E-03 0.  1.
    9900012    2    1    2    0    0  0.32232179486E+00  0.22007129921E+00 -0.11138653575E+01  0.90007737847E+02  0.89999999186E+02 0.  0.
         12    1    1    2    0    0 -0.32232179486E+00 -0.22007129921E+00  0.11138653575E+01  0.11802621534E+01  0.00000000000E+00 0. -1.
         11    1    3    3    0    0 -0.26029348260E+02  0.99475970657E+01 -0.21563993155E+02  0.35234747895E+02  0.51100000000E-03 0. -1.
        -11    1    3    3    0    0 -0.87004988324E+01  0.30503832895E+01 -0.41223043424E+01  0.10099352034E+02  0.51100000000E-03 0.  1.
        -12    1    3    3    0    0  0.35052168887E+02 -0.12777909056E+02  0.24572432140E+02  0.44673637918E+02  0.00000000000E+00 0.  1.
</event>
<event>
 7    1  0.2285268E-015  0.9000766E+02  0.7816164E-02  0.1186339E+00
        -11   -1    0    0    0    0  0.00000000000E+00  0.00000000000E+00  0.45593999997E+02  0.45594000000E+02  0.51100000000E-03 0. -1.
         11   -1    0    0    0    0 -0.00000000000E+00 -0.00000000000E+00 -0.45593999997E+02  0.45594000000E+02  0.51100000000E-03 0.  1.
    9900012    2    1    2    0    0  0.32205943153E-01 -0.90959561689E+00 -0.75153849021E+00  0.90007656189E+02  0.89999916451E+02 0.  0.
         12    1    1    2    0    0 -0.32205943153E-01  0.90959561689E+00  0.75153849021E+00  0.11803438106E+01  0.00000000000E+00 0. -1.
         11    1    3    3    0    0  0.87335754776E+00  0.75525717786E+01  0.61225424938E+01  0.97616402682E+01  0.51100000000E-03 0. -1.
        -11    1    3    3    0    0  0.12364096735E+02 -0.65205808780E+01  0.34259368270E+02  0.37001259135E+02  0.51100000000E-03 0.  1.
         12    1    3    3    0    0 -0.13205248339E+02 -0.19415865174E+01 -0.41133449254E+02  0.43244756786E+02  0.00000000000E+00 0. -1.
</event>
<event>
 7    1  0.2285268E-015  0.9000804E+02  0.7816164E-02  0.1186338E+00
        -11   -1    0    0    0    0  0.00000000000E+00  0.00000000000E+00  0.45593999997E+02  0.45594000000E+02  0.51100000000E-03 0. -1.
         11   -1    0    0    0    0 -0.00000000000E+00 -0.00000000000E+00 -0.45593999997E+02  0.45594000000E+02  0.51100000000E-03 0.  1.
    9900012    2    1    2    0    0 -0.44566705070E+00  0.73539119707E+00 -0.80801842541E+00  0.90008036819E+02  0.90000302104E+02 0.  0.
         12    1    1    2    0    0  0.44566705070E+00 -0.73539119707E+00  0.80801842541E+00  0.11799631810E+01  0.00000000000E+00 0. -1.
         11    1    3    3    0    0  0.11469153369E+02  0.13199929411E+02  0.36291767736E+02  0.40284885765E+02  0.51100000000E-03 0. -1.
        -11    1    3    3    0    0 -0.23269247775E+01 -0.87640574316E+01  0.20081222129E+01  0.92874020408E+01  0.51100000000E-03 0.  1.
        -12    1    3    3    0    0 -0.95878956423E+01 -0.37004807828E+01 -0.39107908374E+02  0.40435749013E+02  0.00000000000E+00 0.  1.
</event>
<event>
 7    1  0.2285268E-015  0.9000750E+02  0.7816164E-02  0.1186340E+00
        -11   -1    0    0    0    0  0.00000000000E+00  0.00000000000E+00  0.45593999997E+02  0.45594000000E+02  0.51100000000E-03 0. -1.
         11   -1    0    0    0    0 -0.00000000000E+00 -0.00000000000E+00 -0.45593999997E+02  0.45594000000E+02  0.51100000000E-03 0.  1.
    9900012    2    1    2    0    0  0.40567414683E+00 -0.51817264822E+00 -0.98005410418E+00  0.90007499914E+02  0.89999758112E+02 0.  0.
         12    1    1    2    0    0 -0.40567414683E+00  0.51817264822E+00  0.98005410418E+00  0.11805000864E+01  0.00000000000E+00 0. -1.
         11    1    3    3    0    0 -0.10896883996E+01 -0.13590934366E+02  0.35716411319E+02  0.38230393086E+02  0.51100000000E-03 0. -1.
        -11    1    3    3    0    0  0.89789285269E+01  0.35311645873E+01  0.31316898545E+01  0.10143853431E+02  0.51100000000E-03 0.  1.
        -12    1    3    3    0    0 -0.74835659804E+01  0.95415971303E+01 -0.39828155277E+02  0.41633253396E+02  0.00000000000E+00 0.  1.
</event>
<event>
 7    1  0.2285268E-015  0.9000737E+02  0.7816164E-02  0.1186340E+00
        -11   -1    0    0    0    0  0.00000000000E+00  0.00000000000E+00  0.45593999997E+02  0.45594000000E+02  0.51100000000E-03 0.  1.
         11   -1    0    0    0    0 -0.00000000000E+00 -0.00000000000E+00 -0.45593999997E+02  0.45594000000E+02  0.51100000000E-03 0. -1.
    9900012    2    1    2    0    0 -0.18040650820E+00 -0.11612194140E+01  0.11365395602E+00  0.90007367010E+02  0.89999623454E+02 0.  0.
         12    1    1    2    0    0  0.18040650820E+00  0.11612194140E+01 -0.11365395602E+00  0.11806329901E+01  0.00000000000E+00 0. -1.
         11    1    3    3    0    0  0.35077062691E+02 -0.21569389187E+01  0.14443408719E+02  0.37995588799E+02  0.51100000000E-03 0. -1.
        -11    1    3    3    0    0  0.51503863807E+01 -0.68688355379E+01 -0.44792902354E+01  0.96835645706E+01  0.51100000000E-03 0.  1.
        -12    1    3    3    0    0 -0.40407855580E+02  0.78645550426E+01 -0.98504645273E+01  0.42328213640E+02  0.00000000000E+00 0.  1.
</event>
<event>
 7    1  0.2285268E-015  0.9000751E+02  0.7816164E-02  0.1186339E+00
        -11   -1    0    0    0    0  0.00000000000E+00  0.00000000000E+00  0.45593999997E+02  0.45594000000E+02  0.51100000000E-03 0.  1.
         11   -1    0    0    0    0 -0.00000000000E+00 -0.00000000000E+00 -0.45593999997E+02  0.45594000000E+02  0.51100000000E-03 0. -1.
    9900012    2    1    2    0    0  0.94183827204E+00  0.66025391748E+00 -0.26562383655E+00  0.90007512563E+02  0.89999770929E+02 0.  0.
         12    1    1    2    0    0 -0.94183827204E+00 -0.66025391748E+00  0.26562383655E+00  0.11804874369E+01  0.00000000000E+00 0. -1.
         11    1    3    3    0    0 -0.42149569489E+01 -0.16074076393E+02 -0.37085094913E+02  0.40637987880E+02  0.51100000000E-03 0. -1.
        -11    1    3    3    0    0  0.71681646561E+01 -0.30872214208E+00 -0.15470989748E+01  0.73397145310E+01  0.51100000000E-03 0.  1.
        -12    1    3    3    0    0 -0.20113694351E+01  0.17043052452E+02  0.38366570052E+02  0.42029810152E+02  0.00000000000E+00 0.  1.
</event>
<event>
 7    1  0.2285268E-015  0.9000770E+02  0.7816164E-02  0.1186339E+00
        -11   -1    0    0    0    0  0.00000000000E+00  0.00000000000E+00  0.45593999997E+02  0.45594000000E+02  0.51100000000E-03 0. -1.
         11   -1    0    0    0    0 -0.00000000000E+00 -0.00000000000E+00 -0.45593999997E+02  0.45594000000E+02  0.51100000000E-03 0.  1.
    9900012    2    1    2    0    0 -0.49331251545E+00  0.69692786185E-01 -0.10699942441E+01  0.90007702578E+02  0.89999963452E+02 0.  0.
         12    1    1    2    0    0  0.49331251545E+00 -0.69692786185E-01  0.10699942441E+01  0.11802974221E+01  0.00000000000E+00 0. -1.
         11    1    3    3    0    0 -0.44374330144E+01 -0.45960036193E+00  0.40260552215E+02  0.40506963712E+02  0.51100000000E-03 0. -1.
        -11    1    3    3    0    0 -0.87522637980E+01  0.25630343467E+00 -0.32188362487E+01  0.93289184849E+01  0.51100000000E-03 0.  1.
        -12    1    3    3    0    0  0.12696384297E+02  0.27298971344E+00 -0.38111710210E+02  0.40171820381E+02  0.00000000000E+00 0.  1.
</event>
<event>
 7    1  0.2285268E-015  0.9000776E+02  0.7816164E-02  0.1186339E+00
        -11   -1    0    0    0    0  0.00000000000E+00  0.00000000000E+00  0.45593999997E+02  0.45594000000E+02  0.51100000000E-03 0.  1.
         11   -1    0    0    0    0 -0.00000000000E+00 -0.00000000000E+00 -0.45593999997E+02  0.45594000000E+02  0.51100000000E-03 0. -1.
    9900012    2    1    2    0    0  0.11390808615E+01  0.47975714277E-01  0.30522853213E+00  0.90007757934E+02  0.90000019538E+02 0.  0.
         12    1    1    2    0    0 -0.11390808615E+01 -0.47975714277E-01 -0.30522853213E+00  0.11802420663E+01  0.00000000000E+00 0. -1.
         11    1    3    3    0    0  0.40848492561E+02 -0.21435002121E+00 -0.69509601418E+01  0.41436229771E+02  0.51100000000E-03 0. -1.
        -11    1    3    3    0    0 -0.34163089307E+01  0.14136785833E+01 -0.82862307850E+01  0.90736582882E+01  0.51100000000E-03 0.  1.
        -12    1    3    3    0    0 -0.36293102769E+02 -0.11513528478E+01  0.15542419459E+02  0.39497869875E+02  0.00000000000E+00 0.  1.
</event>
<event>
 7    1  0.2285268E-015  0.9000793E+02  0.7816164E-02  0.1186339E+00
        -11   -1    0    0    0    0  0.00000000000E+00  0.00000000000E+00  0.45593999997E+02  0.45594000000E+02  0.51100000000E-03 0. -1.
         11   -1    0    0    0    0 -0.00000000000E+00 -0.00000000000E+00 -0.45593999997E+02  0.45594000000E+02  0.51100000000E-03 0.  1.
    9900012    2    1    2    0    0  0.11068496441E+01 -0.39934795751E+00  0.89323472066E-01  0.90007926439E+02  0.90000190268E+02 0.  0.
         12    1    1    2    0    0 -0.11068496441E+01  0.39934795751E+00 -0.89323472066E-01  0.11800735606E+01  0.00000000000E+00 0. -1.
         11    1    3    3    0    0 -0.11863891518E+02  0.44690637976E+01  0.65143226643E+01  0.14253450572E+02  0.51100000000E-03 0. -1.
        -11    1    3    3    0    0 -0.20455498157E+02 -0.26893493068E+02  0.49259450384E+01  0.34146043827E+02  0.51100000000E-03 0.  1.
        -12    1    3    3    0    0  0.33426239320E+02  0.22025081313E+02 -0.11350944231E+02  0.41608432040E+02  0.00000000000E+00 0.  1.
</event>
<event>
 7    1  0.2285268E-015  0.9000771E+02  0.7816164E-02  0.1186339E+00
        -11   -1    0    0    0    0  0.00000000000E+00  0.00000000000E+00  0.45593999997E+02  0.45594000000E+02  0.51100000000E-03 0.  1.
         11   -1    0    0    0    0 -0.00000000000E+00 -0.00000000000E+00 -0.45593999997E+02  0.45594000000E+02  0.51100000000E-03 0. -1.
    9900012    2    1    2    0    0 -0.94539613961E+00  0.81911553127E-01 -0.70185236200E+00  0.90007711857E+02  0.89999972853E+02 0.  0.
         12    1    1    2    0    0  0.94539613961E+00 -0.81911553127E-01  0.70185236200E+00  0.11802881434E+01  0.00000000000E+00 0. -1.
         11    1    3    3    0    0 -0.26773389412E+02  0.55365966974E+01 -0.28863367018E+02  0.39756285534E+02  0.51100000000E-03 0. -1.
        -11    1    3    3    0    0 -0.40763712857E+00 -0.10349634219E+02 -0.13691924061E+01  0.10447764574E+02  0.51100000000E-03 0.  1.
        -12    1    3    3    0    0  0.26235630401E+02  0.48949490748E+01  0.29530707062E+02  0.39803661748E+02  0.00000000000E+00 0.  1.
</event>
<event>
 7    1  0.2285268E-015  0.9000722E+02  0.7816164E-02  0.1186340E+00
        -11   -1    0    0    0    0  0.00000000000E+00  0.00000000000E+00  0.45593999997E+02  0.45594000000E+02  0.51100000000E-03 0.  1.
         11   -1    0    0    0    0 -0.00000000000E+00 -0.00000000000E+00 -0.45593999997E+02  0.45594000000E+02  0.51100000000E-03 0. -1.
    9900012    2    1    2    0    0 -0.23109901921E+00 -0.80125581370E+00  0.83595891813E+00  0.90007218501E+02  0.89999472984E+02 0.  0.
         12    1    1    2    0    0  0.23109901921E+00  0.80125581370E+00 -0.83595891813E+00  0.11807814990E+01  0.00000000000E+00 0. -1.
         11    1    3    3    0    0 -0.18705704467E+01 -0.16070527946E+02  0.13107660866E+01  0.16232036540E+02  0.51100000000E-03 0. -1.
        -11    1    3    3    0    0  0.27103248592E+02 -0.15499439162E+02 -0.98720198446E+01  0.32745617641E+02  0.51100000000E-03 0.  1.
         12    1    3    3    0    0 -0.25463777165E+02  0.30768711294E+02  0.93972126762E+01  0.41029564320E+02  0.00000000000E+00 0. -1.
</event>
<event>
 7    1  0.2285268E-015  0.9000771E+02  0.7816164E-02  0.1186339E+00
        -11   -1    0    0    0    0  0.00000000000E+00  0.00000000000E+00  0.45593999997E+02  0.45594000000E+02  0.51100000000E-03 0.  1.
         11   -1    0    0    0    0 -0.00000000000E+00 -0.00000000000E+00 -0.45593999997E+02  0.45594000000E+02  0.51100000000E-03 0. -1.
    9900012    2    1    2    0    0 -0.97100832053E+00  0.44947333308E+00  0.49819923680E+00  0.90007709394E+02  0.89999970358E+02 0.  0.
         12    1    1    2    0    0  0.97100832053E+00 -0.44947333308E+00 -0.49819923680E+00  0.11802906063E+01  0.00000000000E+00 0. -1.
         11    1    3    3    0    0 -0.12419881221E+01  0.20767677462E+02 -0.33967673950E+02  0.39832672964E+02  0.51100000000E-03 0. -1.
        -11    1    3    3    0    0 -0.54099406999E+01 -0.72773162184E+01 -0.34319541974E+01  0.96956227027E+01  0.51100000000E-03 0.  1.
        -12    1    3    3    0    0  0.56809205015E+01 -0.13040887911E+02  0.37897827384E+02  0.40479413727E+02  0.00000000000E+00 0.  1.
</event>
<event>
 7    1  0.2285268E-015  0.9000747E+02  0.7816164E-02  0.1186340E+00
        -11   -1    0    0    0    0  0.00000000000E+00  0.00000000000E+00  0.45593999997E+02  0.45594000000E+02  0.51100000000E-03 0.  1.
         11   -1    0    0    0    0 -0.00000000000E+00 -0.00000000000E+00 -0.45593999997E+02  0.45594000000E+02  0.51100000000E-03 0. -1.
    9900012    2    1    2    0    0  0.14311081925E+00 -0.99926308656E+00  0.61207590679E+00  0.90007472856E+02  0.89999730697E+02 0.  0.
         12    1    1    2    0    0 -0.14311081925E+00  0.99926308656E+00 -0.61207590679E+00  0.11805271443E+01  0.00000000000E+00 0. -1.
         11    1    3    3    0    0  0.39236095199E+01  0.24209707456E+02 -0.24839404812E+02  0.34907029070E+02  0.51100000000E-03 0. -1.
        -11    1    3    3    0    0  0.63769294522E+00  0.44372655583E+01 -0.86231175344E+01  0.97187516791E+01  0.51100000000E-03 0.  1.
        -12    1    3    3    0    0 -0.44181916459E+01 -0.29646236101E+02  0.34074598253E+02  0.45381692107E+02  0.00000000000E+00 0.  1.
</event>
<event>
 7    1  0.2285268E-015  0.9000769E+02  0.7816164E-02  0.1186339E+00
        -11   -1    0    0    0    0  0.00000000000E+00  0.00000000000E+00  0.45593999997E+02  0.45594000000E+02  0.51100000000E-03 0.  1.
         11   -1    0    0    0    0 -0.00000000000E+00 -0.00000000000E+00 -0.45593999997E+02  0.45594000000E+02  0.51100000000E-03 0. -1.
    9900012    2    1    2    0    0  0.22766886140E+00 -0.11559392569E+01 -0.71463901380E-01  0.90007688276E+02  0.89999948961E+02 0.  0.
         12    1    1    2    0    0 -0.22766886140E+00  0.11559392569E+01  0.71463901380E-01  0.11803117238E+01  0.00000000000E+00 0. -1.
         11    1    3    3    0    0  0.17919331105E+01 -0.37142565441E+02  0.66028196133E+01  0.37767425368E+02  0.51100000000E-03 0. -1.
        -11    1    3    3    0    0  0.77783060490E+01 -0.44172973694E+01  0.33909887765E+01  0.95662618710E+01  0.51100000000E-03 0.  1.
        -12    1    3    3    0    0 -0.93425702981E+01  0.40403923553E+02 -0.10065272291E+02  0.42674001038E+02  0.00000000000E+00 0.  1.
</event>
<event>
 7    1  0.2285268E-015  0.9000815E+02  0.7816164E-02  0.1186338E+00
        -11   -1    0    0    0    0  0.00000000000E+00  0.00000000000E+00  0.45593999997E+02  0.45594000000E+02  0.51100000000E-03 0.  1.
         11   -1    0    0    0    0 -0.00000000000E+00 -0.00000000000E+00 -0.45593999997E+02  0.45594000000E+02  0.51100000000E-03 0. -1.
    9900012    2    1    2    0    0  0.99512229927E+00  0.63102407618E+00 -0.59842777742E-01  0.90008152157E+02  0.90000418964E+02 0.  0.
         12    1    1    2    0    0 -0.99512229927E+00 -0.63102407618E+00  0.59842777742E-01  0.11798478433E+01  0.00000000000E+00 0. -1.
         11    1    3    3    0    0  0.45561939148E+01 -0.66146624017E+01  0.45184749626E+01  0.92157082163E+01  0.51100000000E-03 0. -1.
        -11    1    3    3    0    0 -0.23566824452E+02  0.29002907855E+02  0.19969101761E+02  0.42371321719E+02  0.51100000000E-03 0.  1.
         12    1    3    3    0    0  0.20005752836E+02 -0.21757221377E+02 -0.24547419501E+02  0.38421122222E+02  0.00000000000E+00 0. -1.
</event>
<event>
 7    1  0.2285268E-015  0.9000776E+02  0.7816164E-02  0.1186339E+00
        -11   -1    0    0    0    0  0.00000000000E+00  0.00000000000E+00  0.45593999997E+02  0.45594000000E+02  0.51100000000E-03 0. -1.
         11   -1    0    0    0    0 -0.00000000000E+00 -0.00000000000E+00 -0.45593999997E+02  0.45594000000E+02  0.51100000000E-03 0.  1.
    9900012    2    1    2    0    0  0.34770228405E+00 -0.18049266177E+00 -0.11133233761E+01  0.90007761287E+02  0.90000022936E+02 0.  0.
         12    1    1    2    0    0 -0.34770228405E+00  0.18049266177E+00  0.11133233761E+01  0.11802387128E+01  0.00000000000E+00 0. -1.
         11    1    3    3    0    0 -0.10970873191E+02  0.17030669899E+02  0.18990138757E+02  0.27767411583E+02  0.51100000000E-03 0. -1.
        -11    1    3    3    0    0  0.84844918324E-01  0.19830576163E+02 -0.10130614866E+02  0.22268549738E+02  0.51100000000E-03 0.  1.
        -12    1    3    3    0    0  0.11233730556E+02 -0.37041738723E+02 -0.99728472671E+01  0.39971799965E+02  0.00000000000E+00 0.  1.
</event>
<event>
 7    1  0.2285268E-015  0.9000776E+02  0.7816164E-02  0.1186339E+00
        -11   -1    0    0    0    0  0.00000000000E+00  0.00000000000E+00  0.45593999997E+02  0.45594000000E+02  0.51100000000E-03 0. -1.
         11   -1    0    0    0    0 -0.00000000000E+00 -0.00000000000E+00 -0.45593999997E+02  0.45594000000E+02  0.51100000000E-03 0.  1.
    9900012    2    1    2    0    0  0.90084244725E+00 -0.76167308489E+00  0.36201024330E-01  0.90007757009E+02  0.90000018602E+02 0.  0.
         12    1    1    2    0    0 -0.90084244725E+00  0.76167308489E+00 -0.36201024330E-01  0.11802429907E+01  0.00000000000E+00 0. -1.
         11    1    3    3    0    0 -0.63000214113E+00 -0.81654774254E+01  0.10304375639E+02  0.13162525664E+02  0.51100000000E-03 0. -1.
        -11    1    3    3    0    0  0.22699953405E+02 -0.25006418205E+02  0.69450158978E+01  0.34479589356E+02  0.51100000000E-03 0.  1.
         12    1    3    3    0    0 -0.21169108817E+02  0.32410222546E+02 -0.17213190513E+02  0.42365641990E+02  0.00000000000E+00 0. -1.
</event>
<event>
 7    1  0.2285268E-015  0.9000766E+02  0.7816164E-02  0.1186339E+00
        -11   -1    0    0    0    0  0.00000000000E+00  0.00000000000E+00  0.45593999997E+02  0.45594000000E+02  0.51100000000E-03 0.  1.
         11   -1    0    0    0    0 -0.00000000000E+00 -0.00000000000E+00 -0.45593999997E+02  0.45594000000E+02  0.51100000000E-03 0. -1.
    9900012    2    1    2    0    0 -0.10503521724E+01  0.43055835912E+00 -0.32339846350E+00  0.90007658205E+02  0.89999918493E+02 0.  0.
         12    1    1    2    0    0  0.10503521724E+01 -0.43055835912E+00  0.32339846350E+00  0.11803417950E+01  0.00000000000E+00 0. -1.
         11    1    3    3    0    0  0.32906533003E+01 -0.16422504961E+02 -0.31222503070E+02  0.35431225869E+02  0.51100000000E-03 0. -1.
        -11    1    3    3    0    0  0.83603895027E+00  0.12520474190E+02 -0.81404192100E+01  0.14957528548E+02  0.51100000000E-03 0.  1.
        -12    1    3    3    0    0 -0.51770444230E+01  0.43325891302E+01  0.39039523817E+02  0.39618903788E+02  0.00000000000E+00 0.  1.
</event>
<event>
 7    1  0.2285268E-015  0.9000764E+02  0.7816164E-02  0.1186339E+00
        -11   -1    0    0    0    0  0.00000000000E+00  0.00000000000E+00  0.45593999997E+02  0.45594000000E+02  0.51100000000E-03 0.  1.
         11   -1    0    0    0    0 -0.00000000000E+00 -0.00000000000E+00 -0.45593999997E+02  0.45594000000E+02  0.51100000000E-03 0. -1.
    9900012    2    1    2    0    0 -0.12209134117E+00  0.89683068721E+00  0.75765869450E+00  0.90007636380E+02  0.89999896381E+02 0.  0.
         12    1    1    2    0    0  0.12209134117E+00 -0.89683068721E+00 -0.75765869450E+00  0.11803636196E+01  0.00000000000E+00 0. -1.
         11    1    3    3    0    0  0.23340207747E+02  0.21301543774E+02 -0.22592460846E+02  0.38845081441E+02  0.51100000000E-03 0. -1.
        -11    1    3    3    0    0  0.24109871108E+01 -0.72980100606E+01 -0.61118765456E+01  0.98198189832E+01  0.51100000000E-03 0.  1.
        -12    1    3    3    0    0 -0.25873286199E+02 -0.13106703026E+02  0.29461996086E+02  0.41342735956E+02  0.00000000000E+00 0.  1.
</event>
<event>
 7    1  0.2285268E-015  0.9000870E+02  0.7816164E-02  0.1186337E+00
        -11   -1    0    0    0    0  0.00000000000E+00  0.00000000000E+00  0.45593999997E+02  0.45594000000E+02  0.51100000000E-03 0.  1.
         11   -1    0    0    0    0 -0.00000000000E+00 -0.00000000000E+00 -0.45593999997E+02  0.45594000000E+02  0.51100000000E-03 0. -1.
    9900012    2    1    2    0    0  0.98361918151E-01 -0.40375745867E+00  0.11036554031E+01  0.90008699190E+02  0.90000973214E+02 0.  0.
         12    1    1    2    0    0 -0.98361918151E-01  0.40375745867E+00 -0.11036554031E+01  0.11793008103E+01  0.00000000000E+00 0. -1.
         11    1    3    3    0    0  0.81854262085E+01  0.10373643511E+01  0.26777283527E+01  0.86745349387E+01  0.51100000000E-03 0. -1.
        -11    1    3    3    0    0 -0.12135171958E+00  0.18863948711E+02  0.34418046969E+02  0.39248761059E+02  0.51100000000E-03 0.  1.
         12    1    3    3    0    0 -0.79657125707E+01 -0.20305070520E+02 -0.35992119919E+02  0.42085403192E+02  0.00000000000E+00 0. -1.
</event>
<event>
 7    1  0.2285268E-015  0.9000777E+02  0.7816164E-02  0.1186339E+00
        -11   -1    0    0    0    0  0.00000000000E+00  0.00000000000E+00  0.45593999997E+02  0.45594000000E+02  0.51100000000E-03 0. -1.
         11   -1    0    0    0    0 -0.00000000000E+00 -0.00000000000E+00 -0.45593999997E+02  0.45594000000E+02  0.51100000000E-03 0.  1.
    9900012    2    1    2    0    0 -0.46868781215E-01 -0.11472174717E+01 -0.27321746360E+00  0.90007765959E+02  0.90000027669E+02 0.  0.
         12    1    1    2    0    0  0.46868781215E-01  0.11472174717E+01  0.27321746360E+00  0.11802340414E+01  0.00000000000E+00 0. -1.
         11    1    3    3    0    0 -0.22961426844E+01  0.34428095837E+02 -0.47212009138E+01  0.34826079201E+02  0.51100000000E-03 0. -1.
        -11    1    3    3    0    0  0.56173076270E+01  0.87626604549E+01  0.23264114088E+01  0.10665390454E+02  0.51100000000E-03 0.  1.
        -12    1    3    3    0    0 -0.33680337238E+01 -0.44337973764E+02  0.21215720415E+01  0.44516296304E+02  0.00000000000E+00 0.  1.
</event>
<event>
 7    1  0.2285268E-015  0.9000774E+02  0.7816164E-02  0.1186339E+00
        -11   -1    0    0    0    0  0.00000000000E+00  0.00000000000E+00  0.45593999997E+02  0.45594000000E+02  0.51100000000E-03 0. -1.
         11   -1    0    0    0    0 -0.00000000000E+00 -0.00000000000E+00 -0.45593999997E+02  0.45594000000E+02  0.51100000000E-03 0.  1.
    9900012    2    1    2    0    0  0.62568508950E+00  0.70229617887E+00  0.71295294941E+00  0.90007744239E+02  0.90000005663E+02 0.  0.
         12    1    1    2    0    0 -0.62568508950E+00 -0.70229617887E+00 -0.71295294941E+00  0.11802557613E+01  0.00000000000E+00 0. -1.
         11    1    3    3    0    0 -0.13671311175E+01  0.87298025739E+01  0.39428782693E+01  0.96759903772E+01  0.51100000000E-03 0. -1.
        -11    1    3    3    0    0 -0.11626165542E+02 -0.35029439957E+02 -0.23655176849E+02  0.43838302669E+02  0.51100000000E-03 0.  1.
         12    1    3    3    0    0  0.13618981749E+02  0.27001933562E+02  0.20425251529E+02  0.36493451193E+02  0.00000000000E+00 0. -1.
</event>
<event>
 7    1  0.2285268E-015  0.9000768E+02  0.7816164E-02  0.1186339E+00
        -11   -1    0    0    0    0  0.00000000000E+00  0.00000000000E+00  0.45593999997E+02  0.45594000000E+02  0.51100000000E-03 0.  1.
         11   -1    0    0    0    0 -0.00000000000E+00 -0.00000000000E+00 -0.45593999997E+02  0.45594000000E+02  0.51100000000E-03 0. -1.
    9900012    2    1    2    0    0 -0.84394519236E+00 -0.80209168166E+00 -0.19378370132E+00  0.90007683654E+02  0.89999944278E+02 0.  0.
         12    1    1    2    0    0  0.84394519236E+00  0.80209168166E+00  0.19378370132E+00  0.11803163459E+01  0.00000000000E+00 0. -1.
         11    1    3    3    0    0 -0.60079809071E+01 -0.66490632179E+01 -0.11973497161E+01  0.90409912543E+01  0.51100000000E-03 0. -1.
        -11    1    3    3    0    0  0.36068206646E+02  0.11979745078E+02  0.21223194096E+02  0.43529918340E+02  0.51100000000E-03 0.  1.
         12    1    3    3    0    0 -0.30904170931E+02 -0.61327735416E+01 -0.20219628081E+02  0.37436774060E+02  0.00000000000E+00 0. -1.
</event>
<event>
 7    1  0.2285268E-015  0.9000774E+02  0.7816164E-02  0.1186339E+00
        -11   -1    0    0    0    0  0.00000000000E+00  0.00000000000E+00  0.45593999997E+02  0.45594000000E+02  0.51100000000E-03 0. -1.
         11   -1    0    0    0    0 -0.00000000000E+00 -0.00000000000E+00 -0.45593999997E+02  0.45594000000E+02  0.51100000000E-03 0.  1.
    9900012    2    1    2    0    0  0.90398530820E+00 -0.75044564680E+00  0.11254448958E+00  0.90007735467E+02  0.89999996775E+02 0.  0.
         12    1    1    2    0    0 -0.90398530820E+00  0.75044564680E+00 -0.11254448958E+00  0.11802645332E+01  0.00000000000E+00 0. -1.
         11    1    3    3    0    0  0.10072872702E+02 -0.71898026735E+00  0.70093585652E+00  0.10122796473E+02  0.51100000000E-03 0. -1.
        -11    1    3    3    0    0 -0.25055616090E+02 -0.26644856008E+02  0.20941953479E+02  0.42146146504E+02  0.51100000000E-03 0.  1.
         12    1    3    3    0    0  0.15886728696E+02  0.26613390628E+02 -0.21530344846E+02  0.37738792490E+02  0.00000000000E+00 0. -1.
</event>
<event>
 7    1  0.2285268E-015  0.9000773E+02  0.7816164E-02  0.1186339E+00
        -11   -1    0    0    0    0  0.00000000000E+00  0.00000000000E+00  0.45593999997E+02  0.45594000000E+02  0.51100000000E-03 0.  1.
         11   -1    0    0    0    0 -0.00000000000E+00 -0.00000000000E+00 -0.45593999997E+02  0.45594000000E+02  0.51100000000E-03 0. -1.
    9900012    2    1    2    0    0 -0.10104232101E+01  0.19550388637E+00  0.57780663976E+00  0.90007729969E+02  0.89999991205E+02 0.  0.
         12    1    1    2    0    0  0.10104232101E+01 -0.19550388637E+00 -0.57780663976E+00  0.11802700310E+01  0.00000000000E+00 0. -1.
         11    1    3    3    0    0  0.77962674896E+01 -0.24841248378E+02 -0.13798666735E+02  0.29466465884E+02  0.51100000000E-03 0. -1.
        -11    1    3    3    0    0  0.13347507281E+02 -0.77522794679E+01  0.14193164236E+02  0.20969017594E+02  0.51100000000E-03 0.  1.
        -12    1    3    3    0    0 -0.22154197981E+02  0.32789031732E+02  0.18330913896E+00  0.39572246491E+02  0.00000000000E+00 0.  1.
</event>
<event>
 7    1  0.2285268E-015  0.9000772E+02  0.7816164E-02  0.1186339E+00
        -11   -1    0    0    0    0  0.00000000000E+00  0.00000000000E+00  0.45593999997E+02  0.45594000000E+02  0.51100000000E-03 0.  1.
         11   -1    0    0    0    0 -0.00000000000E+00 -0.00000000000E+00 -0.45593999997E+02  0.45594000000E+02  0.51100000000E-03 0. -1.
    9900012    2    1    2    0    0 -0.70295530814E+00  0.76179791819E+00  0.56443567803E+00  0.90007716192E+02  0.89999977245E+02 0.  0.
         12    1    1    2    0    0  0.70295530814E+00 -0.76179791819E+00 -0.56443567803E+00  0.11802838083E+01  0.00000000000E+00 0. -1.
         11    1    3    3    0    0  0.11247461127E+02 -0.40331523553E+01 -0.74410558354E+01  0.14076257028E+02  0.51100000000E-03 0. -1.
        -11    1    3    3    0    0  0.27607928778E+02 -0.13248727690E+02 -0.38540307429E+01  0.30863895899E+02  0.51100000000E-03 0.  1.
         12    1    3    3    0    0 -0.39558345213E+02  0.18043677963E+02  0.11859522256E+02  0.45067563265E+02  0.00000000000E+00 0. -1.
</event>
<event>
 7    1  0.2285268E-015  0.9000765E+02  0.7816164E-02  0.1186339E+00
        -11   -1    0    0    0    0  0.00000000000E+00  0.00000000000E+00  0.45593999997E+02  0.45594000000E+02  0.51100000000E-03 0. -1.
         11   -1    0    0    0    0 -0.00000000000E+00 -0.00000000000E+00 -0.45593999997E+02  0.45594000000E+02  0.51100000000E-03 0.  1.
    9900012    2    1    2    0    0  0.45012681090E+00 -0.10119877608E+01 -0.40803480875E+00  0.90007650146E+02  0.89999910327E+02 0.  0.
         12    1    1    2    0    0 -0.45012681090E+00  0.10119877608E+01  0.40803480875E+00  0.11803498545E+01  0.00000000000E+00 0. -1.
         11    1    3    3    0    0 -0.83520909804E+01 -0.12059906227E+01 -0.40779172029E+01  0.93723660888E+01  0.51100000000E-03 0. -1.
        -11    1    3    3    0    0 -0.33163020994E+01 -0.26489701945E+02 -0.27170440372E+02  0.38091140689E+02  0.51100000000E-03 0.  1.
         12    1    3    3    0    0  0.12118519891E+02  0.26683704806E+02  0.30840322766E+02  0.42544143368E+02  0.00000000000E+00 0. -1.
</event>
<event>
 7    1  0.2285268E-015  0.9000759E+02  0.7816164E-02  0.1186339E+00
        -11   -1    0    0    0    0  0.00000000000E+00  0.00000000000E+00  0.45593999997E+02  0.45594000000E+02  0.51100000000E-03 0. -1.
         11   -1    0    0    0    0 -0.00000000000E+00 -0.00000000000E+00 -0.45593999997E+02  0.45594000000E+02  0.51100000000E-03 0.  1.
    9900012    2    1    2    0    0 -0.19698001923E+00  0.89021768303E+00 -0.74971875916E+00  0.90007590381E+02  0.89999849774E+02 0.  0.
         12    1    1    2    0    0  0.19698001923E+00 -0.89021768303E+00  0.74971875916E+00  0.11804096192E+01  0.00000000000E+00 0. -1.
         11    1    3    3    0    0 -0.15012830883E+02 -0.29366508624E+02  0.16839006203E+02  0.37031460275E+02  0.51100000000E-03 0. -1.
        -11    1    3    3    0    0  0.66544312688E+01 -0.82549953999E+01 -0.38638246046E+01  0.11285191421E+02  0.51100000000E-03 0.  1.
        -12    1    3    3    0    0  0.81614195948E+01  0.38511721707E+02 -0.13724900358E+02  0.41690938686E+02  0.00000000000E+00 0.  1.
</event>
<event>
 7    1  0.2285268E-015  0.9000776E+02  0.7816164E-02  0.1186339E+00
        -11   -1    0    0    0    0  0.00000000000E+00  0.00000000000E+00  0.45593999997E+02  0.45594000000E+02  0.51100000000E-03 0.  1.
         11   -1    0    0    0    0 -0.00000000000E+00 -0.00000000000E+00 -0.45593999997E+02  0.45594000000E+02  0.51100000000E-03 0. -1.
    9900012    2    1    2    0    0  0.10931639889E+01 -0.25414794352E-01 -0.44420279368E+00  0.90007758694E+02  0.90000020309E+02 0.  0.
         12    1    1    2    0    0 -0.10931639889E+01  0.25414794352E-01  0.44420279368E+00  0.11802413059E+01  0.00000000000E+00 0. -1.
         11    1    3    3    0    0  0.13107765183E+02 -0.32459757251E+02 -0.87016486864E+01  0.36071706904E+02  0.51100000000E-03 0. -1.
        -11    1    3    3    0    0  0.84835426099E+01 -0.55434501263E+01  0.11703949276E+01  0.10201478278E+02  0.51100000000E-03 0.  1.
        -12    1    3    3    0    0 -0.20498143804E+02  0.37977792583E+02  0.70870509651E+01  0.43734573511E+02  0.00000000000E+00 0.  1.
</event>
<event>
 7    1  0.2285268E-015  0.9000768E+02  0.7816164E-02  0.1186339E+00
        -11   -1    0    0    0    0  0.00000000000E+00  0.00000000000E+00  0.45593999997E+02  0.45594000000E+02  0.51100000000E-03 0.  1.
         11   -1    0    0    0    0 -0.00000000000E+00 -0.00000000000E+00 -0.45593999997E+02  0.45594000000E+02  0.51100000000E-03 0. -1.
    9900012    2    1    2    0    0 -0.85303713900E+00  0.22575822574E+00  0.78391674334E+00  0.90007676062E+02  0.89999936586E+02 0.  0.
         12    1    1    2    0    0  0.85303713900E+00 -0.22575822574E+00 -0.78391674334E+00  0.11803239375E+01  0.00000000000E+00 0. -1.
         11    1    3    3    0    0 -0.43341626390E+00  0.56878320584E+01  0.38437566829E+01  0.68784990282E+01  0.51100000000E-03 0. -1.
        -11    1    3    3    0    0  0.18281734630E+02 -0.20249496525E+02  0.31165023809E+02  0.41418868162E+02  0.51100000000E-03 0.  1.
         12    1    3    3    0    0 -0.18701355505E+02  0.14787422692E+02 -0.34224863749E+02  0.41710308872E+02  0.00000000000E+00 0. -1.
</event>
<event>
 7    1  0.2285268E-015  0.9000776E+02  0.7816164E-02  0.1186339E+00
        -11   -1    0    0    0    0  0.00000000000E+00  0.00000000000E+00  0.45593999997E+02  0.45594000000E+02  0.51100000000E-03 0.  1.
         11   -1    0    0    0    0 -0.00000000000E+00 -0.00000000000E+00 -0.45593999997E+02  0.45594000000E+02  0.51100000000E-03 0. -1.
    9900012    2    1    2    0    0  0.49962833871E+00  0.78292090944E+00  0.72825897723E+00  0.90007764953E+02  0.90000026651E+02 0.  0.
         12    1    1    2    0    0 -0.49962833871E+00 -0.78292090944E+00 -0.72825897723E+00  0.11802350466E+01  0.00000000000E+00 0. -1.
         11    1    3    3    0    0 -0.99655407868E+00 -0.47677032740E+00  0.55138174692E+01  0.56233987340E+01  0.51100000000E-03 0. -1.
        -11    1    3    3    0    0 -0.83419230351E+01 -0.10744731094E+02  0.37206825748E+02  0.39615461738E+02  0.51100000000E-03 0.  1.
         12    1    3    3    0    0  0.98381054525E+01  0.12004422331E+02 -0.41992384240E+02  0.44768904482E+02  0.00000000000E+00 0. -1.
</event>
<event>
 7    1  0.2285268E-015  0.9000770E+02  0.7816164E-02  0.1186339E+00
        -11   -1    0    0    0    0  0.00000000000E+00  0.00000000000E+00  0.45593999997E+02  0.45594000000E+02  0.51100000000E-03 0.  1.
         11   -1    0    0    0    0 -0.00000000000E+00 -0.00000000000E+00 -0.45593999997E+02  0.45594000000E+02  0.51100000000E-03 0. -1.
    9900012    2    1    2    0    0 -0.31875573203E+00  0.94925511934E+00  0.62483931797E+00  0.90007697212E+02  0.89999958015E+02 0.  0.
         12    1    1    2    0    0  0.31875573203E+00 -0.94925511934E+00 -0.62483931797E+00  0.11803027881E+01  0.00000000000E+00 0. -1.
         11    1    3    3    0    0  0.24694524963E+01  0.92236659791E+01 -0.53162657049E+00  0.95633067920E+01  0.51100000000E-03 0. -1.
        -11    1    3    3    0    0 -0.27536622698E+02 -0.27668900722E+02 -0.18671702019E+02  0.43272001495E+02  0.51100000000E-03 0.  1.
         12    1    3    3    0    0  0.24748414470E+02  0.19394489863E+02  0.19828167908E+02  0.37172388925E+02  0.00000000000E+00 0. -1.
</event>
<event>
 7    1  0.2285268E-015  0.9000729E+02  0.7816164E-02  0.1186340E+00
        -11   -1    0    0    0    0  0.00000000000E+00  0.00000000000E+00  0.45593999997E+02  0.45594000000E+02  0.51100000000E-03 0. -1.
         11   -1    0    0    0    0 -0.00000000000E+00 -0.00000000000E+00 -0.45593999997E+02  0.45594000000E+02  0.51100000000E-03 0.  1.
    9900012    2    1    2    0    0  0.10892087746E+01  0.45511956172E+00  0.23559619012E-01  0.90007294861E+02  0.89999550352E+02 0.  0.
         12    1    1    2    0    0 -0.10892087746E+01 -0.45511956172E+00 -0.23559619012E-01  0.11807051392E+01  0.00000000000E+00 0. -1.
         11    1    3    3    0    0  0.33344368343E+02 -0.11442291771E+02 -0.12318950462E+02  0.37343399442E+02  0.51100000000E-03 0. -1.
        -11    1    3    3    0    0  0.53861281070E+01  0.82708281996E+01 -0.49965636551E+01  0.11062668020E+02  0.51100000000E-03 0.  1.
        -12    1    3    3    0    0 -0.37641287675E+02  0.36265831334E+01  0.17339073736E+02  0.41601227399E+02  0.00000000000E+00 0.  1.
</event>
<event>
 7    1  0.2285268E-015  0.9000781E+02  0.7816164E-02  0.1186339E+00
        -11   -1    0    0    0    0  0.00000000000E+00  0.00000000000E+00  0.45593999997E+02  0.45594000000E+02  0.51100000000E-03 0. -1.
         11   -1    0    0    0    0 -0.00000000000E+00 -0.00000000000E+00 -0.45593999997E+02  0.45594000000E+02  0.51100000000E-03 0.  1.
    9900012    2    1    2    0    0 -0.16631064668E+00 -0.84318182932E+00 -0.80884323322E+00  0.90007812640E+02  0.90000074967E+02 0.  0.
         12    1    1    2    0    0  0.16631064668E+00  0.84318182932E+00  0.80884323322E+00  0.11801873599E+01  0.00000000000E+00 0. -1.
         11    1    3    3    0    0 -0.34260784131E+02  0.80392530210E+00  0.25490840212E+02  0.42711012165E+02  0.51100000000E-03 0. -1.
        -11    1    3    3    0    0  0.10961348135E+02  0.84692677561E+01 -0.70216736357E+01  0.15530085324E+02  0.51100000000E-03 0.  1.
        -12    1    3    3    0    0  0.23133125349E+02 -0.10116374888E+02 -0.19278009810E+02  0.31766715151E+02  0.00000000000E+00 0.  1.
</event>
<event>
 7    1  0.2285268E-015  0.9000740E+02  0.7816164E-02  0.1186340E+00
        -11   -1    0    0    0    0  0.00000000000E+00  0.00000000000E+00  0.45593999997E+02  0.45594000000E+02  0.51100000000E-03 0.  1.
         11   -1    0    0    0    0 -0.00000000000E+00 -0.00000000000E+00 -0.45593999997E+02  0.45594000000E+02  0.51100000000E-03 0. -1.
    9900012    2    1    2    0    0 -0.70828781104E-01 -0.11783885544E+01  0.13959121216E-01  0.90007402203E+02  0.89999659111E+02 0.  0.
         12    1    1    2    0    0  0.70828781104E-01  0.11783885544E+01 -0.13959121216E-01  0.11805977971E+01  0.00000000000E+00 0. -1.
         11    1    3    3    0    0  0.23179131883E+01 -0.47222826585E+01 -0.59370825644E+01  0.79323152164E+01  0.51100000000E-03 0. -1.
        -11    1    3    3    0    0 -0.30251169556E+02  0.18855173863E+01  0.31872360012E+02  0.43983357856E+02  0.51100000000E-03 0.  1.
         12    1    3    3    0    0  0.27862427587E+02  0.16583767177E+01 -0.25921318326E+02  0.38091729130E+02  0.00000000000E+00 0. -1.
</event>
<event>
 7    1  0.2285268E-015  0.9000771E+02  0.7816164E-02  0.1186339E+00
        -11   -1    0    0    0    0  0.00000000000E+00  0.00000000000E+00  0.45593999997E+02  0.45594000000E+02  0.51100000000E-03 0.  1.
         11   -1    0    0    0    0 -0.00000000000E+00 -0.00000000000E+00 -0.45593999997E+02  0.45594000000E+02  0.51100000000E-03 0. -1.
    9900012    2    1    2    0    0 -0.81305944530E+00 -0.77883944989E+00  0.35415566133E+00  0.90007710721E+02  0.89999971702E+02 0.  0.
         12    1    1    2    0    0  0.81305944530E+00  0.77883944989E+00 -0.35415566133E+00  0.11802892793E+01  0.00000000000E+00 0. -1.
         11    1    3    3    0    0  0.60737852858E+01  0.35859884358E+02 -0.14046753473E+02  0.38988888895E+02  0.51100000000E-03 0. -1.
        -11    1    3    3    0    0  0.88924058261E+01  0.12146981527E-01  0.41883628143E+01  0.98294156617E+01  0.51100000000E-03 0.  1.
        -12    1    3    3    0    0 -0.15779250557E+02 -0.36650870790E+02  0.10212546320E+02  0.41189406164E+02  0.00000000000E+00 0.  1.
</event>
<event>
 7    1  0.2285268E-015  0.9000772E+02  0.7816164E-02  0.1186339E+00
        -11   -1    0    0    0    0  0.00000000000E+00  0.00000000000E+00  0.45593999997E+02  0.45594000000E+02  0.51100000000E-03 0.  1.
         11   -1    0    0    0    0 -0.00000000000E+00 -0.00000000000E+00 -0.45593999997E+02  0.45594000000E+02  0.51100000000E-03 0. -1.
    9900012    2    1    2    0    0 -0.72323216993E+00 -0.75750460307E+00  0.54421835309E+00  0.90007723926E+02  0.89999985082E+02 0.  0.
         12    1    1    2    0    0  0.72323216993E+00  0.75750460307E+00 -0.54421835309E+00  0.11802760741E+01  0.00000000000E+00 0. -1.
         11    1    3    3    0    0  0.27960259697E+01 -0.17790382208E+01  0.12924147203E+02  0.13342275646E+02  0.51100000000E-03 0. -1.
        -11    1    3    3    0    0  0.28507144192E+02 -0.20586821589E+02  0.25287231609E+01  0.35254346316E+02  0.51100000000E-03 0.  1.
         12    1    3    3    0    0 -0.32026402331E+02  0.21608355207E+02 -0.14908652011E+02  0.41411101964E+02  0.00000000000E+00 0. -1.
</event>
<event>
 7    1  0.2285268E-015  0.9000775E+02  0.7816164E-02  0.1186339E+00
        -11   -1    0    0    0    0  0.00000000000E+00  0.00000000000E+00  0.45593999997E+02  0.45594000000E+02  0.51100000000E-03 0.  1.
         11   -1    0    0    0    0 -0.00000000000E+00 -0.00000000000E+00 -0.45593999997E+02  0.45594000000E+02  0.51100000000E-03 0. -1.
    9900012    2    1    2    0    0  0.89500623660E+00 -0.65043874965E-02  0.76935523700E+00  0.90007751742E+02  0.90000013265E+02 0.  0.
         12    1    1    2    0    0 -0.89500623660E+00  0.65043874965E-02 -0.76935523700E+00  0.11802482583E+01  0.00000000000E+00 0. -1.
         11    1    3    3    0    0  0.18558960972E+02 -0.25171400003E+02 -0.23405141107E+02  0.39061938520E+02  0.51100000000E-03 0. -1.
        -11    1    3    3    0    0 -0.18431449365E+00 -0.76541181718E+01  0.44140996677E+01  0.88376339005E+01  0.51100000000E-03 0.  1.
        -12    1    3    3    0    0 -0.17479640241E+02  0.32819013788E+02  0.19760396676E+02  0.42108179321E+02  0.00000000000E+00 0.  1.
</event>
<event>
 7    1  0.2285268E-015  0.9000762E+02  0.7816164E-02  0.1186339E+00
        -11   -1    0    0    0    0  0.00000000000E+00  0.00000000000E+00  0.45593999997E+02  0.45594000000E+02  0.51100000000E-03 0. -1.
         11   -1    0    0    0    0 -0.00000000000E+00 -0.00000000000E+00 -0.45593999997E+02  0.45594000000E+02  0.51100000000E-03 0.  1.
    9900012    2    1    2    0    0 -0.57586849302E+00  0.29790946166E+00 -0.98637285219E+00  0.90007616176E+02  0.89999875909E+02 0.  0.
         12    1    1    2    0    0  0.57586849302E+00 -0.29790946166E+00  0.98637285219E+00  0.11803838241E+01  0.00000000000E+00 0. -1.
         11    1    3    3    0    0 -0.26744726271E+01 -0.30186123905E+02  0.18450153826E+02  0.35479050956E+02  0.51100000000E-03 0. -1.
        -11    1    3    3    0    0 -0.65975349600E+01 -0.53007769208E+01  0.54641674095E+01  0.10073868634E+02  0.51100000000E-03 0.  1.
        -12    1    3    3    0    0  0.86961390941E+01  0.35784810288E+02 -0.24900694088E+02  0.44454696586E+02  0.00000000000E+00 0.  1.
</event>
<event>
 7    1  0.2285268E-015  0.9000771E+02  0.7816164E-02  0.1186339E+00
        -11   -1    0    0    0    0  0.00000000000E+00  0.00000000000E+00  0.45593999997E+02  0.45594000000E+02  0.51100000000E-03 0. -1.
         11   -1    0    0    0    0 -0.00000000000E+00 -0.00000000000E+00 -0.45593999997E+02  0.45594000000E+02  0.51100000000E-03 0.  1.
    9900012    2    1    2    0    0 -0.43220434915E+00 -0.82255594576E+00  0.72779142749E+00  0.90007712219E+02  0.89999973221E+02 0.  0.
         12    1    1    2    0    0  0.43220434915E+00  0.82255594576E+00 -0.72779142749E+00  0.11802877807E+01  0.00000000000E+00 0. -1.
         11    1    3    3    0    0  0.31009187050E+01 -0.57281061992E+01 -0.52963983618E+01  0.83951613035E+01  0.51100000000E-03 0. -1.
        -11    1    3    3    0    0  0.24856795845E+02 -0.16761825163E+02 -0.21189116569E+02  0.36712364998E+02  0.51100000000E-03 0.  1.
         12    1    3    3    0    0 -0.28389918899E+02  0.21667375417E+02  0.27213306358E+02  0.44900185918E+02  0.00000000000E+00 0. -1.
</event>
<event>
 7    1  0.2285268E-015  0.9000770E+02  0.7816164E-02  0.1186339E+00
        -11   -1    0    0    0    0  0.00000000000E+00  0.00000000000E+00  0.45593999997E+02  0.45594000000E+02  0.51100000000E-03 0.  1.
         11   -1    0    0    0    0 -0.00000000000E+00 -0.00000000000E+00 -0.45593999997E+02  0.45594000000E+02  0.51100000000E-03 0. -1.
    9900012    2    1    2    0    0 -0.14329218161E+00 -0.76777165691E+00  0.88493512588E+00  0.90007696588E+02  0.89999957383E+02 0.  0.
         12    1    1    2    0    0  0.14329218161E+00  0.76777165691E+00 -0.88493512588E+00  0.11803034116E+01  0.00000000000E+00 0. -1.
         11    1    3    3    0    0  0.38532888336E+02 -0.17108702629E+02 -0.11938786793E+01  0.42177203982E+02  0.51100000000E-03 0. -1.
        -11    1    3    3    0    0 -0.60954568456E+01 -0.10546640936E+01 -0.74536967797E+01  0.96863050980E+01  0.51100000000E-03 0.  1.
        -12    1    3    3    0    0 -0.32580723672E+02  0.17395595066E+02  0.95325105849E+01  0.38144187509E+02  0.00000000000E+00 0.  1.
</event>
<event>
 7    1  0.2285268E-015  0.9000781E+02  0.7816164E-02  0.1186339E+00
        -11   -1    0    0    0    0  0.00000000000E+00  0.00000000000E+00  0.45593999997E+02  0.45594000000E+02  0.51100000000E-03 0.  1.
         11   -1    0    0    0    0 -0.00000000000E+00 -0.00000000000E+00 -0.45593999997E+02  0.45594000000E+02  0.51100000000E-03 0. -1.
    9900012    2    1    2    0    0  0.95990400423E-01 -0.44992618250E+00  0.10868354747E+01  0.90007805492E+02  0.90000067725E+02 0.  0.
         12    1    1    2    0    0 -0.95990400423E-01  0.44992618250E+00 -0.10868354747E+01  0.11801945076E+01  0.00000000000E+00 0. -1.
         11    1    3    3    0    0 -0.28750097976E+02  0.20557504959E+02 -0.10350866632E+02  0.36828244379E+02  0.51100000000E-03 0. -1.
        -11    1    3    3    0    0 -0.30809038630E+01  0.67567268749E+01 -0.36305120285E+01  0.82659509148E+01  0.51100000000E-03 0.  1.
        -12    1    3    3    0    0  0.31926992239E+02 -0.27764158017E+02  0.15068214135E+02  0.44913610198E+02  0.00000000000E+00 0.  1.
</event>
<event>
 7    1  0.2285268E-015  0.9000785E+02  0.7816164E-02  0.1186339E+00
        -11   -1    0    0    0    0  0.00000000000E+00  0.00000000000E+00  0.45593999997E+02  0.45594000000E+02  0.51100000000E-03 0.  1.
         11   -1    0    0    0    0 -0.00000000000E+00 -0.00000000000E+00 -0.45593999997E+02  0.45594000000E+02  0.51100000000E-03 0. -1.
    9900012    2    1    2    0    0  0.77315969419E+00 -0.88961080473E+00  0.59790758301E-01  0.90007848217E+02  0.90000111013E+02 0.  0.
         12    1    1    2    0    0 -0.77315969419E+00  0.88961080473E+00 -0.59790758301E-01  0.11801517832E+01  0.00000000000E+00 0. -1.
         11    1    3    3    0    0  0.18278010993E+02  0.35586451243E+01 -0.29828319565E+02  0.35163593237E+02  0.51100000000E-03 0. -1.
        -11    1    3    3    0    0  0.32716278515E+01  0.31806834962E+01 -0.90047033415E+01  0.10094799593E+02  0.51100000000E-03 0.  1.
        -12    1    3    3    0    0 -0.20776479151E+02 -0.76289394251E+01  0.38892813665E+02  0.44749455387E+02  0.00000000000E+00 0.  1.
</event>
<event>
 7    1  0.2285268E-015  0.9000776E+02  0.7816164E-02  0.1186339E+00
        -11   -1    0    0    0    0  0.00000000000E+00  0.00000000000E+00  0.45593999997E+02  0.45594000000E+02  0.51100000000E-03 0.  1.
         11   -1    0    0    0    0 -0.00000000000E+00 -0.00000000000E+00 -0.45593999997E+02  0.45594000000E+02  0.51100000000E-03 0. -1.
    9900012    2    1    2    0    0  0.12443939694E+00  0.91208209970E+00  0.73863420167E+00  0.90007762988E+02  0.90000024660E+02 0.  0.
         12    1    1    2    0    0 -0.12443939694E+00 -0.91208209970E+00 -0.73863420167E+00  0.11802370118E+01  0.00000000000E+00 0. -1.
         11    1    3    3    0    0 -0.19680579791E+01  0.32690530121E+02 -0.36485289826E+01  0.32952325802E+02  0.51100000000E-03 0. -1.
        -11    1    3    3    0    0 -0.13559394995E+00  0.11927194830E+02 -0.38309826865E+01  0.12528080094E+02  0.51100000000E-03 0.  1.
        -12    1    3    3    0    0  0.22280913260E+01 -0.43705642851E+02  0.82181458707E+01  0.44527357092E+02  0.00000000000E+00 0.  1.
</event>
<event>
 7    1  0.2285268E-015  0.9000780E+02  0.7816164E-02  0.1186339E+00
        -11   -1    0    0    0    0  0.00000000000E+00  0.00000000000E+00  0.45593999997E+02  0.45594000000E+02  0.51100000000E-03 0.  1.
         11   -1    0    0    0    0 -0.00000000000E+00 -0.00000000000E+00 -0.45593999997E+02  0.45594000000E+02  0.51100000000E-03 0. -1.
    9900012    2    1    2    0    0  0.31564587576E+00  0.32808688868E+00  0.10888496826E+01  0.90007802154E+02  0.90000064342E+02 0.  0.
         12    1    1    2    0    0 -0.31564587576E+00 -0.32808688868E+00 -0.10888496826E+01  0.11801978464E+01  0.00000000000E+00 0. -1.
         11    1    3    3    0    0  0.35835934496E+01  0.41858812443E+01  0.92303571530E+01  0.10750034290E+02  0.51100000000E-03 0. -1.
        -11    1    3    3    0    0  0.25107570299E+02  0.25820478922E+02  0.45002706462E+01  0.36295173980E+02  0.51100000000E-03 0.  1.
         12    1    3    3    0    0 -0.28375517873E+02 -0.29678273277E+02 -0.12641778117E+02  0.42962593884E+02  0.00000000000E+00 0. -1.
</event>
<event>
 7    1  0.2285268E-015  0.9000778E+02  0.7816164E-02  0.1186339E+00
        -11   -1    0    0    0    0  0.00000000000E+00  0.00000000000E+00  0.45593999997E+02  0.45594000000E+02  0.51100000000E-03 0.  1.
         11   -1    0    0    0    0 -0.00000000000E+00 -0.00000000000E+00 -0.45593999997E+02  0.45594000000E+02  0.51100000000E-03 0. -1.
    9900012    2    1    2    0    0  0.35921679897E+00 -0.46296420510E+00  0.10244776798E+01  0.90007776682E+02  0.90000038534E+02 0.  0.
         12    1    1    2    0    0 -0.35921679897E+00  0.46296420510E+00 -0.10244776798E+01  0.11802233180E+01  0.00000000000E+00 0. -1.
         11    1    3    3    0    0  0.83777218458E+01 -0.49126859125E+01 -0.10394594803E+01  0.97673528897E+01  0.51100000000E-03 0. -1.
        -11    1    3    3    0    0  0.20284430921E+02 -0.21650566058E+02 -0.20081258101E+02  0.35825438945E+02  0.51100000000E-03 0.  1.
         12    1    3    3    0    0 -0.28302935968E+02  0.26100287765E+02  0.22145195261E+02  0.44414984847E+02  0.00000000000E+00 0. -1.
</event>
<event>
 7    1  0.2285268E-015  0.9000807E+02  0.7816164E-02  0.1186338E+00
        -11   -1    0    0    0    0  0.00000000000E+00  0.00000000000E+00  0.45593999997E+02  0.45594000000E+02  0.51100000000E-03 0.  1.
         11   -1    0    0    0    0 -0.00000000000E+00 -0.00000000000E+00 -0.45593999997E+02  0.45594000000E+02  0.51100000000E-03 0. -1.
    9900012    2    1    2    0    0  0.59492711014E+00  0.70869201134E+00 -0.73215043421E+00  0.90008073353E+02  0.90000339121E+02 0.  0.
         12    1    1    2    0    0 -0.59492711014E+00 -0.70869201134E+00  0.73215043421E+00  0.11799266467E+01  0.00000000000E+00 0. -1.
         11    1    3    3    0    0  0.21730168280E+02  0.29271193538E+02 -0.96071637211E+01  0.37700140313E+02  0.51100000000E-03 0. -1.
        -11    1    3    3    0    0  0.10386020426E+02 -0.92811582057E+01 -0.12791888904E+01  0.13987338647E+02  0.51100000000E-03 0.  1.
        -12    1    3    3    0    0 -0.31521261596E+02 -0.19281343321E+02  0.10154202177E+02  0.38320594394E+02  0.00000000000E+00 0.  1.
</event>
<event>
 7    1  0.2285268E-015  0.9000780E+02  0.7816164E-02  0.1186339E+00
        -11   -1    0    0    0    0  0.00000000000E+00  0.00000000000E+00  0.45593999997E+02  0.45594000000E+02  0.51100000000E-03 0.  1.
         11   -1    0    0    0    0 -0.00000000000E+00 -0.00000000000E+00 -0.45593999997E+02  0.45594000000E+02  0.51100000000E-03 0. -1.
    9900012    2    1    2    0    0  0.62071211492E+00  0.91553937788E+00 -0.41154357038E+00  0.90007803409E+02  0.90000065614E+02 0.  0.
         12    1    1    2    0    0 -0.62071211492E+00 -0.91553937788E+00  0.41154357038E+00  0.11801965906E+01  0.00000000000E+00 0. -1.
         11    1    3    3    0    0  0.40795893615E+02  0.99301142625E+01  0.57657046741E+00  0.41991005452E+02  0.51100000000E-03 0. -1.
        -11    1    3    3    0    0 -0.31911136464E+01 -0.61988461751E+01  0.72109584120E+01  0.10030295194E+02  0.51100000000E-03 0.  1.
        -12    1    3    3    0    0 -0.36984067853E+02 -0.28157287095E+01 -0.81990724498E+01  0.37986502763E+02  0.00000000000E+00 0.  1.
</event>
<event>
 7    1  0.2285268E-015  0.9000772E+02  0.7816164E-02  0.1186339E+00
        -11   -1    0    0    0    0  0.00000000000E+00  0.00000000000E+00  0.45593999997E+02  0.45594000000E+02  0.51100000000E-03 0. -1.
         11   -1    0    0    0    0 -0.00000000000E+00 -0.00000000000E+00 -0.45593999997E+02  0.45594000000E+02  0.51100000000E-03 0.  1.
    9900012    2    1    2    0    0  0.34060720953E+00 -0.92248095854E+00 -0.65274433592E+00  0.90007720559E+02  0.89999981671E+02 0.  0.
         12    1    1    2    0    0 -0.34060720953E+00  0.92248095854E+00  0.65274433592E+00  0.11802794407E+01  0.00000000000E+00 0. -1.
         11    1    3    3    0    0  0.30142585074E+01 -0.10776333292E+02 -0.49564310769E+00  0.11200927458E+02  0.51100000000E-03 0. -1.
        -11    1    3    3    0    0  0.16622169388E+02  0.20333130524E+02 -0.31200650640E+02  0.40782512340E+02  0.51100000000E-03 0.  1.
         12    1    3    3    0    0 -0.19295820686E+02 -0.10479278191E+02  0.31043549412E+02  0.38024280762E+02  0.00000000000E+00 0. -1.
</event>
<event>
 7    1  0.2285268E-015  0.9000773E+02  0.7816164E-02  0.1186339E+00
        -11   -1    0    0    0    0  0.00000000000E+00  0.00000000000E+00  0.45593999997E+02  0.45594000000E+02  0.51100000000E-03 0. -1.
         11   -1    0    0    0    0 -0.00000000000E+00 -0.00000000000E+00 -0.45593999997E+02  0.45594000000E+02  0.51100000000E-03 0.  1.
    9900012    2    1    2    0    0 -0.43394323221E+00 -0.92422469651E+00  0.59206107082E+00  0.90007731247E+02  0.89999992499E+02 0.  0.
         12    1    1    2    0    0  0.43394323221E+00  0.92422469651E+00 -0.59206107082E+00  0.11802687533E+01  0.00000000000E+00 0. -1.
         11    1    3    3    0    0  0.17778437985E+02 -0.19026950047E+02  0.24811291529E+02  0.35968011800E+02  0.51100000000E-03 0. -1.
        -11    1    3    3    0    0 -0.13365637600E+02 -0.14734721973E+01  0.82801137226E+01  0.15791506334E+02  0.51100000000E-03 0.  1.
        -12    1    3    3    0    0 -0.48467436166E+01  0.19576197548E+02 -0.32499344181E+02  0.38248213112E+02  0.00000000000E+00 0.  1.
</event>
<event>
 7    1  0.2285268E-015  0.9000783E+02  0.7816164E-02  0.1186339E+00
        -11   -1    0    0    0    0  0.00000000000E+00  0.00000000000E+00  0.45593999997E+02  0.45594000000E+02  0.51100000000E-03 0.  1.
         11   -1    0    0    0    0 -0.00000000000E+00 -0.00000000000E+00 -0.45593999997E+02  0.45594000000E+02  0.51100000000E-03 0. -1.
    9900012    2    1    2    0    0 -0.11703497979E+00 -0.74921097118E-01  0.11719588084E+01  0.90007831450E+02  0.90000094025E+02 0.  0.
         12    1    1    2    0    0  0.11703497979E+00  0.74921097118E-01 -0.11719588084E+01  0.11801685497E+01  0.00000000000E+00 0. -1.
         11    1    3    3    0    0 -0.13432584044E+02  0.46687830881E+01  0.37003939307E+01  0.14694378691E+02  0.51100000000E-03 0. -1.
        -11    1    3    3    0    0  0.74284620184E+01  0.32189411977E+02  0.12062239621E+02  0.35168706492E+02  0.51100000000E-03 0.  1.
         12    1    3    3    0    0  0.58870870459E+01 -0.36933116162E+02 -0.14590674743E+02  0.40144746267E+02  0.00000000000E+00 0. -1.
</event>
<event>
 7    1  0.2285268E-015  0.9000776E+02  0.7816164E-02  0.1186339E+00
        -11   -1    0    0    0    0  0.00000000000E+00  0.00000000000E+00  0.45593999997E+02  0.45594000000E+02  0.51100000000E-03 0. -1.
         11   -1    0    0    0    0 -0.00000000000E+00 -0.00000000000E+00 -0.45593999997E+02  0.45594000000E+02  0.51100000000E-03 0.  1.
    9900012    2    1    2    0    0 -0.11672480617E+01  0.17324606335E+00 -0.22236848784E-01  0.90007755655E+02  0.90000017230E+02 0.  0.
         12    1    1    2    0    0  0.11672480617E+01 -0.17324606335E+00  0.22236848784E-01  0.11802443448E+01  0.00000000000E+00 0. -1.
         11    1    3    3    0    0 -0.67484007796E+01  0.89727363811E+00 -0.82362389466E+01  0.10685581187E+02  0.51100000000E-03 0. -1.
        -11    1    3    3    0    0 -0.26278441266E+02 -0.26598984407E+02  0.81984481500E+01  0.38278936756E+02  0.51100000000E-03 0.  1.
         12    1    3    3    0    0  0.31859593984E+02  0.25874956832E+02  0.15553947847E-01  0.41043237711E+02  0.00000000000E+00 0. -1.
</event>
<event>
 7    1  0.2285268E-015  0.9000774E+02  0.7816164E-02  0.1186339E+00
        -11   -1    0    0    0    0  0.00000000000E+00  0.00000000000E+00  0.45593999997E+02  0.45594000000E+02  0.51100000000E-03 0. -1.
         11   -1    0    0    0    0 -0.00000000000E+00 -0.00000000000E+00 -0.45593999997E+02  0.45594000000E+02  0.51100000000E-03 0.  1.
    9900012    2    1    2    0    0 -0.56645167662E+00 -0.83245877155E+00 -0.61575002721E+00  0.90007744433E+02  0.90000005859E+02 0.  0.
         12    1    1    2    0    0  0.56645167662E+00  0.83245877155E+00  0.61575002721E+00  0.11802555674E+01  0.00000000000E+00 0. -1.
         11    1    3    3    0    0 -0.11876155092E+02 -0.33486708047E+02  0.21444050893E+02  0.41499999934E+02  0.51100000000E-03 0. -1.
        -11    1    3    3    0    0  0.85887763134E+01  0.10077263354E+01  0.17352655059E+01  0.88200758254E+01  0.51100000000E-03 0.  1.
        -12    1    3    3    0    0  0.27209271020E+01  0.31646522940E+02 -0.23795066426E+02  0.39687668673E+02  0.00000000000E+00 0.  1.
</event>
<event>
 7    1  0.2285268E-015  0.9000773E+02  0.7816164E-02  0.1186339E+00
        -11   -1    0    0    0    0  0.00000000000E+00  0.00000000000E+00  0.45593999997E+02  0.45594000000E+02  0.51100000000E-03 0.  1.
         11   -1    0    0    0    0 -0.00000000000E+00 -0.00000000000E+00 -0.45593999997E+02  0.45594000000E+02  0.51100000000E-03 0. -1.
    9900012    2    1    2    0    0 -0.74842994309E+00  0.81236775230E+00  0.41586478062E+00  0.90007732123E+02  0.89999993387E+02 0.  0.
         12    1    1    2    0    0  0.74842994309E+00 -0.81236775230E+00 -0.41586478062E+00  0.11802678766E+01  0.00000000000E+00 0. -1.
         11    1    3    3    0    0 -0.71835753994E+01 -0.44445207065E+01 -0.54060664454E+00  0.84646190484E+01  0.51100000000E-03 0. -1.
        -11    1    3    3    0    0  0.19159476329E+02 -0.31539226504E+02 -0.14505450071E+02  0.39651184392E+02  0.51100000000E-03 0.  1.
         12    1    3    3    0    0 -0.12724330873E+02  0.36796114962E+02  0.15461921496E+02  0.41891928683E+02  0.00000000000E+00 0. -1.
</event>
<event>
 7    1  0.2285268E-015  0.9000773E+02  0.7816164E-02  0.1186339E+00
        -11   -1    0    0    0    0  0.00000000000E+00  0.00000000000E+00  0.45593999997E+02  0.45594000000E+02  0.51100000000E-03 0.  1.
         11   -1    0    0    0    0 -0.00000000000E+00 -0.00000000000E+00 -0.45593999997E+02  0.45594000000E+02  0.51100000000E-03 0. -1.
    9900012    2    1    2    0    0  0.48360513068E+00 -0.19129618078E+00  0.10595159250E+01  0.90007727935E+02  0.89999989144E+02 0.  0.
         12    1    1    2    0    0 -0.48360513068E+00  0.19129618078E+00 -0.10595159250E+01  0.11802720646E+01  0.00000000000E+00 0. -1.
         11    1    3    3    0    0  0.17066703108E+02  0.25845820635E+02 -0.29188657854E+02  0.42558859793E+02  0.51100000000E-03 0. -1.
        -11    1    3    3    0    0  0.34438619228E+01 -0.18837867581E+01  0.82290844482E+01  0.91173827719E+01  0.51100000000E-03 0.  1.
        -12    1    3    3    0    0 -0.20026959900E+02 -0.24153330058E+02  0.22019089331E+02  0.38331485370E+02  0.00000000000E+00 0.  1.
</event>
<event>
 7    1  0.2285268E-015  0.9000757E+02  0.7816164E-02  0.1186339E+00
        -11   -1    0    0    0    0  0.00000000000E+00  0.00000000000E+00  0.45593999997E+02  0.45594000000E+02  0.51100000000E-03 0. -1.
         11   -1    0    0    0    0 -0.00000000000E+00 -0.00000000000E+00 -0.45593999997E+02  0.45594000000E+02  0.51100000000E-03 0.  1.
    9900012    2    1    2    0    0 -0.97873924434E+00 -0.65984484302E+00 -0.89688342730E-02  0.90007573736E+02  0.89999832909E+02 0.  0.
         12    1    1    2    0    0  0.97873924434E+00  0.65984484302E+00  0.89688342730E-02  0.11804262642E+01  0.00000000000E+00 0. -1.
         11    1    3    3    0    0  0.88594931854E+01 -0.44920042422E+01 -0.95125913464E+00  0.99786580168E+01  0.51100000000E-03 0. -1.
        -11    1    3    3    0    0 -0.11869426302E+02  0.10559497727E+02 -0.37617205525E+02  0.40834304510E+02  0.51100000000E-03 0.  1.
         12    1    3    3    0    0  0.20311938718E+01 -0.67273383278E+01  0.38559495826E+02  0.39194611209E+02  0.00000000000E+00 0. -1.
</event>
<event>
 7    1  0.2285268E-015  0.9000755E+02  0.7816164E-02  0.1186339E+00
        -11   -1    0    0    0    0  0.00000000000E+00  0.00000000000E+00  0.45593999997E+02  0.45594000000E+02  0.51100000000E-03 0.  1.
         11   -1    0    0    0    0 -0.00000000000E+00 -0.00000000000E+00 -0.45593999997E+02  0.45594000000E+02  0.51100000000E-03 0. -1.
    9900012    2    1    2    0    0  0.10383685960E+01  0.56130368008E+00  0.14029084882E-01  0.90007547554E+02  0.89999806381E+02 0.  0.
         12    1    1    2    0    0 -0.10383685960E+01 -0.56130368008E+00 -0.14029084882E-01  0.11804524462E+01  0.00000000000E+00 0. -1.
         11    1    3    3    0    0  0.42739687242E+01  0.33655687708E+01  0.86101984531E+01  0.10184762121E+02  0.51100000000E-03 0. -1.
        -11    1    3    3    0    0  0.34098039415E+01 -0.37750861122E+02  0.10656657419E+02  0.39374085716E+02  0.51100000000E-03 0.  1.
         12    1    3    3    0    0 -0.66454040696E+01  0.34946596031E+02 -0.19252826788E+02  0.40448699716E+02  0.00000000000E+00 0. -1.
</event>
<event>
 7    1  0.2285268E-015  0.9000772E+02  0.7816164E-02  0.1186339E+00
        -11   -1    0    0    0    0  0.00000000000E+00  0.00000000000E+00  0.45593999997E+02  0.45594000000E+02  0.51100000000E-03 0. -1.
         11   -1    0    0    0    0 -0.00000000000E+00 -0.00000000000E+00 -0.45593999997E+02  0.45594000000E+02  0.51100000000E-03 0.  1.
    9900012    2    1    2    0    0  0.10968118522E+01 -0.28760717529E-01 -0.43502398788E+00  0.90007716437E+02  0.89999977494E+02 0.  0.
         12    1    1    2    0    0 -0.10968118522E+01  0.28760717529E-01  0.43502398788E+00  0.11802835625E+01  0.00000000000E+00 0. -1.
         11    1    3    3    0    0 -0.19402054312E+02 -0.30578346392E+02  0.17757425209E+02  0.40333622822E+02  0.51100000000E-03 0. -1.
        -11    1    3    3    0    0 -0.16686074548E+01  0.33013913928E+01  0.59817482807E+01  0.70331179943E+01  0.51100000000E-03 0.  1.
        -12    1    3    3    0    0  0.22167473619E+02  0.27248194282E+02 -0.24174197478E+02  0.42640975622E+02  0.00000000000E+00 0.  1.
</event>
<event>
 7    1  0.2285268E-015  0.9000773E+02  0.7816164E-02  0.1186339E+00
        -11   -1    0    0    0    0  0.00000000000E+00  0.00000000000E+00  0.45593999997E+02  0.45594000000E+02  0.51100000000E-03 0.  1.
         11   -1    0    0    0    0 -0.00000000000E+00 -0.00000000000E+00 -0.45593999997E+02  0.45594000000E+02  0.51100000000E-03 0. -1.
    9900012    2    1    2    0    0  0.33756178513E+00  0.80037072669E+00 -0.79905492437E+00  0.90007733068E+02  0.89999994344E+02 0.  0.
         12    1    1    2    0    0 -0.33756178513E+00 -0.80037072669E+00  0.79905492437E+00  0.11802669321E+01  0.00000000000E+00 0. -1.
         11    1    3    3    0    0 -0.79665018843E+01  0.29826871455E+01  0.60159695091E+01  0.10418899379E+02  0.51100000000E-03 0. -1.
        -11    1    3    3    0    0 -0.12645985680E+02  0.31230636728E+02  0.12163658681E+02  0.35822174934E+02  0.51100000000E-03 0.  1.
         12    1    3    3    0    0  0.20950049350E+02 -0.33412953147E+02 -0.18978683115E+02  0.43766658754E+02  0.00000000000E+00 0. -1.
</event>
<event>
 7    1  0.2285268E-015  0.9000780E+02  0.7816164E-02  0.1186339E+00
        -11   -1    0    0    0    0  0.00000000000E+00  0.00000000000E+00  0.45593999997E+02  0.45594000000E+02  0.51100000000E-03 0.  1.
         11   -1    0    0    0    0 -0.00000000000E+00 -0.00000000000E+00 -0.45593999997E+02  0.45594000000E+02  0.51100000000E-03 0. -1.
    9900012    2    1    2    0    0  0.60516728271E+00  0.52687226981E+00  0.86547205550E+00  0.90007803530E+02  0.90000065737E+02 0.  0.
         12    1    1    2    0    0 -0.60516728271E+00 -0.52687226981E+00 -0.86547205550E+00  0.11801964699E+01  0.00000000000E+00 0. -1.
         11    1    3    3    0    0 -0.12204234666E+02  0.21542308342E+02 -0.36732066018E+02  0.44297393453E+02  0.51100000000E-03 0. -1.
        -11    1    3    3    0    0  0.30765080946E+01 -0.63045545063E+00  0.70509038802E+01  0.77186541521E+01  0.51100000000E-03 0.  1.
        -12    1    3    3    0    0  0.97328938546E+01 -0.20384980622E+02  0.30546634193E+02  0.37991755925E+02  0.00000000000E+00 0.  1.
</event>
<event>
 7    1  0.2285268E-015  0.9000769E+02  0.7816164E-02  0.1186339E+00
        -11   -1    0    0    0    0  0.00000000000E+00  0.00000000000E+00  0.45593999997E+02  0.45594000000E+02  0.51100000000E-03 0.  1.
         11   -1    0    0    0    0 -0.00000000000E+00 -0.00000000000E+00 -0.45593999997E+02  0.45594000000E+02  0.51100000000E-03 0. -1.
    9900012    2    1    2    0    0  0.37148687018E-01 -0.11254626599E+01  0.35365972138E+00  0.90007694352E+02  0.89999955118E+02 0.  0.
         12    1    1    2    0    0 -0.37148687018E-01  0.11254626599E+01 -0.35365972138E+00  0.11803056478E+01  0.00000000000E+00 0. -1.
         11    1    3    3    0    0 -0.82892354492E+01  0.35839689471E+02  0.67951722534E+01  0.37408142588E+02  0.51100000000E-03 0. -1.
        -11    1    3    3    0    0 -0.22231434240E+01 -0.78911528537E+01  0.13503562783E+02  0.15797432327E+02  0.51100000000E-03 0.  1.
        -12    1    3    3    0    0  0.10549527560E+02 -0.29073999277E+02 -0.19945075315E+02  0.36802119437E+02  0.00000000000E+00 0.  1.
</event>
<event>
 7    1  0.2285268E-015  0.9000777E+02  0.7816164E-02  0.1186339E+00
        -11   -1    0    0    0    0  0.00000000000E+00  0.00000000000E+00  0.45593999997E+02  0.45594000000E+02  0.51100000000E-03 0. -1.
         11   -1    0    0    0    0 -0.00000000000E+00 -0.00000000000E+00 -0.45593999997E+02  0.45594000000E+02  0.51100000000E-03 0.  1.
    9900012    2    1    2    0    0 -0.42329965735E+00  0.75035732217E+00 -0.80667238904E+00  0.90007771609E+02  0.90000033395E+02 0.  0.
         12    1    1    2    0    0  0.42329965735E+00 -0.75035732217E+00  0.80667238904E+00  0.11802283906E+01  0.00000000000E+00 0. -1.
         11    1    3    3    0    0 -0.47997348404E+00 -0.26332099456E+01 -0.60890714825E+01  0.66513878960E+01  0.51100000000E-03 0. -1.
        -11    1    3    3    0    0 -0.37208741790E+01  0.42060936171E+02 -0.65575447929E+01  0.42731354416E+02  0.51100000000E-03 0.  1.
         12    1    3    3    0    0  0.37775480057E+01 -0.38677368903E+02  0.11839943886E+02  0.40625029298E+02  0.00000000000E+00 0. -1.
</event>
<event>
 7    1  0.2285268E-015  0.9000770E+02  0.7816164E-02  0.1186339E+00
        -11   -1    0    0    0    0  0.00000000000E+00  0.00000000000E+00  0.45593999997E+02  0.45594000000E+02  0.51100000000E-03 0.  1.
         11   -1    0    0    0    0 -0.00000000000E+00 -0.00000000000E+00 -0.45593999997E+02  0.45594000000E+02  0.51100000000E-03 0. -1.
    9900012    2    1    2    0    0 -0.44964187721E+00 -0.26213709659E+00  0.10593447532E+01  0.90007701317E+02  0.89999962174E+02 0.  0.
         12    1    1    2    0    0  0.44964187721E+00  0.26213709659E+00 -0.10593447532E+01  0.11802986831E+01  0.00000000000E+00 0. -1.
         11    1    3    3    0    0 -0.23120359745E+02  0.19703025256E+02 -0.23434724764E+02  0.38365955794E+02  0.51100000000E-03 0. -1.
        -11    1    3    3    0    0  0.59414658322E+00  0.76138409447E+01 -0.14989833463E+01  0.77827074612E+01  0.51100000000E-03 0.  1.
        -12    1    3    3    0    0  0.22076571285E+02 -0.27579003297E+02  0.25993052863E+02  0.43859038062E+02  0.00000000000E+00 0.  1.
</event>
<event>
 7    1  0.2285268E-015  0.9000787E+02  0.7816164E-02  0.1186339E+00
        -11   -1    0    0    0    0  0.00000000000E+00  0.00000000000E+00  0.45593999997E+02  0.45594000000E+02  0.51100000000E-03 0. -1.
         11   -1    0    0    0    0 -0.00000000000E+00 -0.00000000000E+00 -0.45593999997E+02  0.45594000000E+02  0.51100000000E-03 0.  1.
    9900012    2    1    2    0    0  0.40150673999E+00  0.47357434100E-01 -0.11087153924E+01  0.90007872799E+02  0.90000135920E+02 0.  0.
         12    1    1    2    0    0 -0.40150673999E+00 -0.47357434100E-01  0.11087153924E+01  0.11801272009E+01  0.00000000000E+00 0. -1.
         11    1    3    3    0    0 -0.13980574287E+01  0.31027213566E+01  0.69219228130E+01  0.77132652023E+01  0.51100000000E-03 0. -1.
        -11    1    3    3    0    0  0.25572529763E+02  0.26283610044E+02 -0.21132799990E+02  0.42324669769E+02  0.51100000000E-03 0.  1.
         12    1    3    3    0    0 -0.23772965594E+02 -0.29338973966E+02  0.13102161785E+02  0.39969937828E+02  0.00000000000E+00 0. -1.
</event>
<event>
 7    1  0.2285268E-015  0.9000776E+02  0.7816164E-02  0.1186339E+00
        -11   -1    0    0    0    0  0.00000000000E+00  0.00000000000E+00  0.45593999997E+02  0.45594000000E+02  0.51100000000E-03 0. -1.
         11   -1    0    0    0    0 -0.00000000000E+00 -0.00000000000E+00 -0.45593999997E+02  0.45594000000E+02  0.51100000000E-03 0.  1.
    9900012    2    1    2    0    0 -0.52694700093E+00  0.73983317121E+00 -0.75361690784E+00  0.90007760742E+02  0.90000022384E+02 0.  0.
         12    1    1    2    0    0  0.52694700093E+00 -0.73983317121E+00  0.75361690784E+00  0.11802392583E+01  0.00000000000E+00 0. -1.
         11    1    3    3    0    0  0.12945096098E+02 -0.26077081820E+01  0.37118056454E+01  0.13716893101E+02  0.51100000000E-03 0. -1.
        -11    1    3    3    0    0 -0.40463539954E+02 -0.10524106618E+02  0.95138689097E+01  0.42878532946E+02  0.51100000000E-03 0.  1.
         12    1    3    3    0    0  0.26991496855E+02  0.13871647971E+02 -0.13979291463E+02  0.33412334694E+02  0.00000000000E+00 0. -1.
</event>
<event>
 7    1  0.2285268E-015  0.9000753E+02  0.7816164E-02  0.1186339E+00
        -11   -1    0    0    0    0  0.00000000000E+00  0.00000000000E+00  0.45593999997E+02  0.45594000000E+02  0.51100000000E-03 0.  1.
         11   -1    0    0    0    0 -0.00000000000E+00 -0.00000000000E+00 -0.45593999997E+02  0.45594000000E+02  0.51100000000E-03 0. -1.
    9900012    2    1    2    0    0 -0.24289977152E+00 -0.11031336757E+01  0.34295237494E+00  0.90007525292E+02  0.89999783825E+02 0.  0.
         12    1    1    2    0    0  0.24289977152E+00  0.11031336757E+01 -0.34295237494E+00  0.11804747083E+01  0.00000000000E+00 0. -1.
         11    1    3    3    0    0  0.15541944570E+02 -0.24776032644E+02 -0.24972205252E+02  0.38457962375E+02  0.51100000000E-03 0. -1.
        -11    1    3    3    0    0 -0.65344519316E+01 -0.19142054761E+01 -0.66877970783E+01  0.95441015645E+01  0.51100000000E-03 0.  1.
        -12    1    3    3    0    0 -0.92503924099E+01  0.25587104445E+02  0.32002954705E+02  0.42005461353E+02  0.00000000000E+00 0.  1.
</event>
<event>
 8    1  0.2285268E-015  0.9000773E+02  0.7816164E-02  0.1186339E+00
        -11   -1    0    0    0    0  0.00000000000E+00  0.00000000000E+00  0.45593999997E+02  0.45594000000E+02  0.51100000000E-03 0. -1.
         11   -1    0    0    0    0 -0.00000000000E+00 -0.00000000000E+00 -0.45593999997E+02  0.45594000000E+02  0.51100000000E-03 0.  1.
    9900012    2    1    2    0    0 -0.95828046966E+00  0.64288645039E+00 -0.24787126359E+00  0.90007726892E+02  0.89999988087E+02 0.  0.
         23    2    3    3    0    0  0.83485092421E+01 -0.20652722222E+02  0.15079163584E+02  0.62168235505E+02  0.56047085470E+02 0.  0.
         12    1    1    2    0    0  0.95828046966E+00 -0.64288645039E+00  0.24787126359E+00  0.11802731082E+01  0.00000000000E+00 0. -1.
         11    1    4    4    0    0  0.59950489980E+01 -0.29020974905E+02  0.31710706778E+02  0.43401918409E+02  0.51100000000E-03 0. -1.
        -11    1    4    4    0    0  0.23534602441E+01  0.83682526833E+01 -0.16631543194E+02  0.18766317096E+02  0.51100000000E-03 0.  1.
        -12    1    3    3    0    0 -0.93067897117E+01  0.21295608672E+02 -0.15327034848E+02  0.27839491387E+02  0.00000000000E+00 0.  1.
</event>
<event>
 7    1  0.2285268E-015  0.9000764E+02  0.7816164E-02  0.1186339E+00
        -11   -1    0    0    0    0  0.00000000000E+00  0.00000000000E+00  0.45593999997E+02  0.45594000000E+02  0.51100000000E-03 0. -1.
         11   -1    0    0    0    0 -0.00000000000E+00 -0.00000000000E+00 -0.45593999997E+02  0.45594000000E+02  0.51100000000E-03 0.  1.
    9900012    2    1    2    0    0 -0.10098380420E+01 -0.71031561826E-01 -0.60697897435E+00  0.90007643347E+02  0.89999903439E+02 0.  0.
         12    1    1    2    0    0  0.10098380420E+01  0.71031561826E-01  0.60697897435E+00  0.11803566534E+01  0.00000000000E+00 0. -1.
         11    1    3    3    0    0 -0.20346486210E+01 -0.25114040556E+02  0.12836165266E+02  0.28277587717E+02  0.51100000000E-03 0. -1.
        -11    1    3    3    0    0  0.97429016917E+00 -0.16783148520E+02  0.24441979768E+01  0.16988155273E+02  0.51100000000E-03 0.  1.
        -12    1    3    3    0    0  0.50520409816E-01  0.41826157515E+02 -0.15887342217E+02  0.44741900356E+02  0.00000000000E+00 0.  1.
</event>
<event>
 7    1  0.2285268E-015  0.9000770E+02  0.7816164E-02  0.1186339E+00
        -11   -1    0    0    0    0  0.00000000000E+00  0.00000000000E+00  0.45593999997E+02  0.45594000000E+02  0.51100000000E-03 0.  1.
         11   -1    0    0    0    0 -0.00000000000E+00 -0.00000000000E+00 -0.45593999997E+02  0.45594000000E+02  0.51100000000E-03 0. -1.
    9900012    2    1    2    0    0  0.70569853058E+00 -0.52138903171E-01  0.94465833803E+00  0.90007699929E+02  0.89999960768E+02 0.  0.
         12    1    1    2    0    0 -0.70569853058E+00  0.52138903171E-01 -0.94465833803E+00  0.11803000707E+01  0.00000000000E+00 0. -1.
         11    1    3    3    0    0  0.14279695784E+02 -0.35146381545E+02 -0.62779500846E+01  0.38452444719E+02  0.51100000000E-03 0. -1.
        -11    1    3    3    0    0  0.96096764379E+01  0.84650862425E+00  0.21995666992E+01  0.98944707801E+01  0.51100000000E-03 0.  1.
        -12    1    3    3    0    0 -0.23183673692E+02  0.34247734017E+02  0.50230417234E+01  0.41660784430E+02  0.00000000000E+00 0.  1.
</event>
<event>
 7    1  0.2285268E-015  0.9000774E+02  0.7816164E-02  0.1186339E+00
        -11   -1    0    0    0    0  0.00000000000E+00  0.00000000000E+00  0.45593999997E+02  0.45594000000E+02  0.51100000000E-03 0. -1.
         11   -1    0    0    0    0 -0.00000000000E+00 -0.00000000000E+00 -0.45593999997E+02  0.45594000000E+02  0.51100000000E-03 0.  1.
    9900012    2    1    2    0    0 -0.11706440737E+01 -0.13503373197E+00 -0.66056251651E-01  0.90007743636E+02  0.90000005052E+02 0.  0.
         12    1    1    2    0    0  0.11706440737E+01  0.13503373197E+00  0.66056251651E-01  0.11802563638E+01  0.00000000000E+00 0. -1.
         11    1    3    3    0    0  0.47244931146E+01  0.95798201945E+01  0.58550654347E+01  0.12180951591E+02  0.51100000000E-03 0. -1.
        -11    1    3    3    0    0  0.99059917480E+01  0.15044358310E+02 -0.33180625081E+02  0.37754672167E+02  0.51100000000E-03 0.  1.
         12    1    3    3    0    0 -0.15801128936E+02 -0.24759212236E+02  0.27259503394E+02  0.40072119878E+02  0.00000000000E+00 0. -1.
</event>
<event>
 7    1  0.2285268E-015  0.9000769E+02  0.7816164E-02  0.1186339E+00
        -11   -1    0    0    0    0  0.00000000000E+00  0.00000000000E+00  0.45593999997E+02  0.45594000000E+02  0.51100000000E-03 0. -1.
         11   -1    0    0    0    0 -0.00000000000E+00 -0.00000000000E+00 -0.45593999997E+02  0.45594000000E+02  0.51100000000E-03 0.  1.
    9900012    2    1    2    0    0  0.14046557685E+00 -0.98817072159E+00 -0.63002134918E+00  0.90007686968E+02  0.89999947636E+02 0.  0.
         12    1    1    2    0    0 -0.14046557685E+00  0.98817072159E+00  0.63002134918E+00  0.11803130321E+01  0.00000000000E+00 0. -1.
         11    1    3    3    0    0 -0.26303384935E+02 -0.58505703264E+01  0.21677317717E+02  0.34583281161E+02  0.51100000000E-03 0. -1.
        -11    1    3    3    0    0 -0.10046128478E+02  0.17806844851E+01  0.33184311482E+01  0.10728817278E+02  0.51100000000E-03 0.  1.
        -12    1    3    3    0    0  0.36489978991E+02  0.30817151198E+01 -0.25625770215E+02  0.44695588529E+02  0.00000000000E+00 0.  1.
</event>
<event>
 7    1  0.2285268E-015  0.9000776E+02  0.7816164E-02  0.1186339E+00
        -11   -1    0    0    0    0  0.00000000000E+00  0.00000000000E+00  0.45593999997E+02  0.45594000000E+02  0.51100000000E-03 0. -1.
         11   -1    0    0    0    0 -0.00000000000E+00 -0.00000000000E+00 -0.45593999997E+02  0.45594000000E+02  0.51100000000E-03 0.  1.
    9900012    2    1    2    0    0  0.75494678207E+00  0.87845410214E+00  0.22657151806E+00  0.90007762352E+02  0.90000024015E+02 0.  0.
         12    1    1    2    0    0 -0.75494678207E+00 -0.87845410214E+00 -0.22657151806E+00  0.11802376482E+01  0.00000000000E+00 0. -1.
         11    1    3    3    0    0  0.58199934481E+01 -0.18679184733E+00 -0.61948476149E+01  0.85019616656E+01  0.51100000000E-03 0. -1.
        -11    1    3    3    0    0 -0.33888616565E+02 -0.10344868608E+02 -0.20075966012E+02  0.40724673735E+02  0.51100000000E-03 0.  1.
         12    1    3    3    0    0  0.28823569899E+02  0.11410114557E+02  0.26497385145E+02  0.40781126952E+02  0.00000000000E+00 0. -1.
</event>
<event>
 7    1  0.2285268E-015  0.9000763E+02  0.7816164E-02  0.1186339E+00
        -11   -1    0    0    0    0  0.00000000000E+00  0.00000000000E+00  0.45593999997E+02  0.45594000000E+02  0.51100000000E-03 0. -1.
         11   -1    0    0    0    0 -0.00000000000E+00 -0.00000000000E+00 -0.45593999997E+02  0.45594000000E+02  0.51100000000E-03 0.  1.
    9900012    2    1    2    0    0 -0.11508197830E+01  0.20497264537E+00 -0.16394452429E+00  0.90007628124E+02  0.89999888015E+02 0.  0.
         12    1    1    2    0    0  0.11508197830E+01 -0.20497264537E+00  0.16394452429E+00  0.11803718758E+01  0.00000000000E+00 0. -1.
         11    1    3    3    0    0 -0.10092013808E+02 -0.11012594542E+02  0.33151212167E+02  0.36361089776E+02  0.51100000000E-03 0. -1.
        -11    1    3    3    0    0  0.35801063697E-01 -0.22001207323E+01  0.85301512541E+01  0.88093866774E+01  0.51100000000E-03 0.  1.
        -12    1    3    3    0    0  0.89053929618E+01  0.13417687919E+02 -0.41845307946E+02  0.44837151671E+02  0.00000000000E+00 0.  1.
</event>
<event>
 7    1  0.2285268E-015  0.9000761E+02  0.7816164E-02  0.1186339E+00
        -11   -1    0    0    0    0  0.00000000000E+00  0.00000000000E+00  0.45593999997E+02  0.45594000000E+02  0.51100000000E-03 0. -1.
         11   -1    0    0    0    0 -0.00000000000E+00 -0.00000000000E+00 -0.45593999997E+02  0.45594000000E+02  0.51100000000E-03 0.  1.
    9900012    2    1    2    0    0 -0.96441223489E+00 -0.11735518545E+00  0.67042324450E+00  0.90007605776E+02  0.89999865372E+02 0.  0.
         12    1    1    2    0    0  0.96441223489E+00  0.11735518545E+00 -0.67042324450E+00  0.11803942245E+01  0.00000000000E+00 0. -1.
         11    1    3    3    0    0 -0.10203648993E+02  0.65004791080E+00 -0.11494595138E+00  0.10224980582E+02  0.51100000000E-03 0. -1.
        -11    1    3    3    0    0  0.11328687347E+02 -0.39424115536E+02  0.17595606275E+01  0.41057229530E+02  0.51100000000E-03 0.  1.
         12    1    3    3    0    0 -0.20894505888E+01  0.38656712440E+02 -0.97419143158E+00  0.38725395664E+02  0.00000000000E+00 0. -1.
</event>
<event>
 7    1  0.2285268E-015  0.9000772E+02  0.7816164E-02  0.1186339E+00
        -11   -1    0    0    0    0  0.00000000000E+00  0.00000000000E+00  0.45593999997E+02  0.45594000000E+02  0.51100000000E-03 0.  1.
         11   -1    0    0    0    0 -0.00000000000E+00 -0.00000000000E+00 -0.45593999997E+02  0.45594000000E+02  0.51100000000E-03 0. -1.
    9900012    2    1    2    0    0  0.20526180257E+00 -0.70409346319E+00  0.92475646099E+00  0.90007722692E+02  0.89999983831E+02 0.  0.
         12    1    1    2    0    0 -0.20526180257E+00  0.70409346319E+00 -0.92475646099E+00  0.11802773084E+01  0.00000000000E+00 0. -1.
         11    1    3    3    0    0 -0.29727652221E+02  0.16280209951E+02 -0.77058388098E+01  0.34758574405E+02  0.51100000000E-03 0. -1.
        -11    1    3    3    0    0 -0.87819563734E+01  0.48802954860E+01  0.57834597712E+00  0.10063524537E+02  0.51100000000E-03 0.  1.
        -12    1    3    3    0    0  0.38714870397E+02 -0.21864598900E+02  0.80522492937E+01  0.45185623750E+02  0.00000000000E+00 0.  1.
</event>
<event>
 7    1  0.2549037E-015  0.9000770E+02  0.7816164E-02  0.1186339E+00
        -11   -1    0    0    0    0  0.00000000000E+00  0.00000000000E+00  0.45593999997E+02  0.45594000000E+02  0.51100000000E-03 0. -1.
         11   -1    0    0    0    0 -0.00000000000E+00 -0.00000000000E+00 -0.45593999997E+02  0.45594000000E+02  0.51100000000E-03 0.  1.
    9900012    2    1    2    0    0 -0.65168818428E+00 -0.61273379704E+00  0.77004150567E+00  0.90007701683E+02  0.89999962546E+02 0.  0.
         12    1    1    2    0    0  0.65168818428E+00  0.61273379704E+00 -0.77004150567E+00  0.11802983165E+01  0.00000000000E+00 0. -1.
         11    1    3    3    0    0  0.52317621683E+00  0.50391952087E+01  0.76436083133E+01  0.91701663024E+01  0.51100000000E-03 0. -1.
        -11    1    3    3    0    0  0.26206574122E+02  0.23520162034E+02  0.11177119764E+02  0.36944695909E+02  0.51100000000E-03 0.  1.
         12    1    3    3    0    0 -0.27381438523E+02 -0.29172091040E+02 -0.18050686572E+02  0.43892839472E+02  0.00000000000E+00 0. -1.
</event>
<event>
 7    1  0.2285268E-015  0.9000767E+02  0.7816164E-02  0.1186339E+00
        -11   -1    0    0    0    0  0.00000000000E+00  0.00000000000E+00  0.45593999997E+02  0.45594000000E+02  0.51100000000E-03 0. -1.
         11   -1    0    0    0    0 -0.00000000000E+00 -0.00000000000E+00 -0.45593999997E+02  0.45594000000E+02  0.51100000000E-03 0.  1.
    9900012    2    1    2    0    0 -0.13790131917E+00  0.63993330137E+00 -0.98216221510E+00  0.90007672071E+02  0.89999932542E+02 0.  0.
         12    1    1    2    0    0  0.13790131917E+00 -0.63993330137E+00  0.98216221510E+00  0.11803279293E+01  0.00000000000E+00 0. -1.
         11    1    3    3    0    0  0.24398201810E+02  0.33326739425E+02  0.12160743295E+02  0.43056097013E+02  0.51100000000E-03 0. -1.
        -11    1    3    3    0    0 -0.12008996648E+02 -0.44683390631E+01  0.12754325036E+01  0.12876675922E+02  0.51100000000E-03 0.  1.
        -12    1    3    3    0    0 -0.12527106481E+02 -0.28218467060E+02 -0.14418338014E+02  0.34074899136E+02  0.00000000000E+00 0.  1.
</event>
<event>
 7    1  0.2285268E-015  0.9000771E+02  0.7816164E-02  0.1186339E+00
        -11   -1    0    0    0    0  0.00000000000E+00  0.00000000000E+00  0.45593999997E+02  0.45594000000E+02  0.51100000000E-03 0. -1.
         11   -1    0    0    0    0 -0.00000000000E+00 -0.00000000000E+00 -0.45593999997E+02  0.45594000000E+02  0.51100000000E-03 0.  1.
    9900012    2    1    2    0    0  0.36728485130E+00  0.10826843751E+01  0.29324403936E+00  0.90007705255E+02  0.89999966164E+02 0.  0.
         12    1    1    2    0    0 -0.36728485130E+00 -0.10826843751E+01 -0.29324403936E+00  0.11802947449E+01  0.00000000000E+00 0. -1.
         11    1    3    3    0    0  0.29855477123E+02  0.25970512730E+02  0.56973733918E+01  0.39978458068E+02  0.51100000000E-03 0. -1.
        -11    1    3    3    0    0  0.64419433874E+01 -0.51087406621E+01 -0.35991899786E+01  0.89750785246E+01  0.51100000000E-03 0.  1.
        -12    1    3    3    0    0 -0.35930135659E+02 -0.19779087693E+02 -0.18049393738E+01  0.41054168662E+02  0.00000000000E+00 0.  1.
</event>
<event>
 7    1  0.2285268E-015  0.9000774E+02  0.7816164E-02  0.1186339E+00
        -11   -1    0    0    0    0  0.00000000000E+00  0.00000000000E+00  0.45593999997E+02  0.45594000000E+02  0.51100000000E-03 0. -1.
         11   -1    0    0    0    0 -0.00000000000E+00 -0.00000000000E+00 -0.45593999997E+02  0.45594000000E+02  0.51100000000E-03 0.  1.
    9900012    2    1    2    0    0  0.62348063473E+00  0.69864609740E+00 -0.71845801189E+00  0.90007738848E+02  0.90000000201E+02 0.  0.
         12    1    1    2    0    0 -0.62348063473E+00 -0.69864609740E+00  0.71845801189E+00  0.11802611517E+01  0.00000000000E+00 0. -1.
         11    1    3    3    0    0 -0.87753704763E+01  0.16072904578E+02  0.32248337177E+02  0.37085046036E+02  0.51100000000E-03 0. -1.
        -11    1    3    3    0    0 -0.56960825237E+01 -0.52775845198E+01  0.60780691127E+01  0.98610942030E+01  0.51100000000E-03 0.  1.
        -12    1    3    3    0    0  0.15094933635E+02 -0.10096673961E+02 -0.39044864301E+02  0.43061598609E+02  0.00000000000E+00 0.  1.
</event>
<event>
 7    1  0.2285268E-015  0.9000770E+02  0.7816164E-02  0.1186339E+00
        -11   -1    0    0    0    0  0.00000000000E+00  0.00000000000E+00  0.45593999997E+02  0.45594000000E+02  0.51100000000E-03 0.  1.
         11   -1    0    0    0    0 -0.00000000000E+00 -0.00000000000E+00 -0.45593999997E+02  0.45594000000E+02  0.51100000000E-03 0. -1.
    9900012    2    1    2    0    0  0.69746601967E+00 -0.16714871566E+00  0.93739114719E+00  0.90007703552E+02  0.89999964439E+02 0.  0.
         12    1    1    2    0    0 -0.69746601967E+00  0.16714871566E+00 -0.93739114719E+00  0.11802964477E+01  0.00000000000E+00 0. -1.
         11    1    3    3    0    0 -0.18537544740E+02  0.17170611917E+02 -0.28814419228E+02  0.38324159929E+02  0.51100000000E-03 0. -1.
        -11    1    3    3    0    0  0.66054595357E+01  0.37888276077E+01 -0.49914149245E+01  0.91050279257E+01  0.51100000000E-03 0.  1.
        -12    1    3    3    0    0  0.12629551224E+02 -0.21126588240E+02  0.34743225299E+02  0.42578515697E+02  0.00000000000E+00 0.  1.
</event>
<event>
 7    1  0.2285268E-015  0.9000772E+02  0.7816164E-02  0.1186339E+00
        -11   -1    0    0    0    0  0.00000000000E+00  0.00000000000E+00  0.45593999997E+02  0.45594000000E+02  0.51100000000E-03 0. -1.
         11   -1    0    0    0    0 -0.00000000000E+00 -0.00000000000E+00 -0.45593999997E+02  0.45594000000E+02  0.51100000000E-03 0.  1.
    9900012    2    1    2    0    0 -0.10241296277E+01  0.58321606639E+00 -0.63809207483E-01  0.90007722876E+02  0.89999984018E+02 0.  0.
         12    1    1    2    0    0  0.10241296277E+01 -0.58321606639E+00  0.63809207483E-01  0.11802771240E+01  0.00000000000E+00 0. -1.
         11    1    3    3    0    0  0.40866180341E+01 -0.60820018024E+01 -0.61147501113E+01  0.95436555924E+01  0.51100000000E-03 0. -1.
        -11    1    3    3    0    0  0.93188348150E+01  0.36820721863E+02 -0.15135040171E+02  0.40886130681E+02  0.51100000000E-03 0.  1.
         12    1    3    3    0    0 -0.14429582477E+02 -0.30155503994E+02  0.21185981075E+02  0.39577936602E+02  0.00000000000E+00 0. -1.
</event>
<event>
 7    1  0.2285268E-015  0.9000776E+02  0.7816164E-02  0.1186339E+00
        -11   -1    0    0    0    0  0.00000000000E+00  0.00000000000E+00  0.45593999997E+02  0.45594000000E+02  0.51100000000E-03 0.  1.
         11   -1    0    0    0    0 -0.00000000000E+00 -0.00000000000E+00 -0.45593999997E+02  0.45594000000E+02  0.51100000000E-03 0. -1.
    9900012    2    1    2    0    0 -0.41603951042E-01  0.60913611927E+00  0.10100427910E+01  0.90007760982E+02  0.90000022627E+02 0.  0.
         12    1    1    2    0    0  0.41603951042E-01 -0.60913611927E+00 -0.10100427910E+01  0.11802390182E+01  0.00000000000E+00 0. -1.
         11    1    3    3    0    0  0.14459639896E+01 -0.82276223144E+01  0.10661846816E+01  0.84214803238E+01  0.51100000000E-03 0. -1.
        -11    1    3    3    0    0  0.32077856773E+02  0.27010057255E+02  0.77022292841E+01  0.42636327519E+02  0.51100000000E-03 0.  1.
         12    1    3    3    0    0 -0.33565424714E+02 -0.18173298821E+02 -0.77583711748E+01  0.38949953139E+02  0.00000000000E+00 0. -1.
</event>
<event>
 7    1  0.2285268E-015  0.9000731E+02  0.7816164E-02  0.1186340E+00
        -11   -1    0    0    0    0  0.00000000000E+00  0.00000000000E+00  0.45593999997E+02  0.45594000000E+02  0.51100000000E-03 0. -1.
         11   -1    0    0    0    0 -0.00000000000E+00 -0.00000000000E+00 -0.45593999997E+02  0.45594000000E+02  0.51100000000E-03 0.  1.
    9900012    2    1    2    0    0  0.47727109980E+00 -0.76619022019E+00 -0.76104560536E+00  0.90007311400E+02  0.89999567110E+02 0.  0.
         12    1    1    2    0    0 -0.47727109980E+00  0.76619022019E+00  0.76104560536E+00  0.11806885998E+01  0.00000000000E+00 0. -1.
         11    1    3    3    0    0  0.11690911455E+02 -0.34431937530E+02  0.36066186908E+01  0.36540982901E+02  0.51100000000E-03 0. -1.
        -11    1    3    3    0    0 -0.67032359766E+01 -0.84091020648E+01  0.10498864186E+01  0.10805028082E+02  0.51100000000E-03 0.  1.
        -12    1    3    3    0    0 -0.45104043790E+01  0.42074849375E+02 -0.54175507147E+01  0.42661300417E+02  0.00000000000E+00 0.  1.
</event>
<event>
 7    1  0.2285268E-015  0.9000779E+02  0.7816164E-02  0.1186339E+00
        -11   -1    0    0    0    0  0.00000000000E+00  0.00000000000E+00  0.45593999997E+02  0.45594000000E+02  0.51100000000E-03 0. -1.
         11   -1    0    0    0    0 -0.00000000000E+00 -0.00000000000E+00 -0.45593999997E+02  0.45594000000E+02  0.51100000000E-03 0.  1.
    9900012    2    1    2    0    0  0.74649800646E+00 -0.56140013378E+00 -0.72144033687E+00  0.90007785806E+02  0.90000047779E+02 0.  0.
         12    1    1    2    0    0 -0.74649800646E+00  0.56140013378E+00  0.72144033687E+00  0.11802141939E+01  0.00000000000E+00 0. -1.
         11    1    3    3    0    0 -0.71942584453E+01 -0.19608585330E+02  0.23670274546E+02  0.31567956389E+02  0.51100000000E-03 0. -1.
        -11    1    3    3    0    0  0.19841836940E+01 -0.12934512490E+02  0.55616204922E+01  0.14218657498E+02  0.51100000000E-03 0.  1.
        -12    1    3    3    0    0  0.59565727578E+01  0.31981697686E+02 -0.29953335375E+02  0.44221171920E+02  0.00000000000E+00 0.  1.
</event>
<event>
 7    1  0.2285268E-015  0.9000780E+02  0.7816164E-02  0.1186339E+00
        -11   -1    0    0    0    0  0.00000000000E+00  0.00000000000E+00  0.45593999997E+02  0.45594000000E+02  0.51100000000E-03 0.  1.
         11   -1    0    0    0    0 -0.00000000000E+00 -0.00000000000E+00 -0.45593999997E+02  0.45594000000E+02  0.51100000000E-03 0. -1.
    9900012    2    1    2    0    0  0.10275969662E+01 -0.40492325076E+00 -0.41586901148E+00  0.90007802814E+02  0.90000065011E+02 0.  0.
         12    1    1    2    0    0 -0.10275969662E+01  0.40492325076E+00  0.41586901148E+00  0.11801971863E+01  0.00000000000E+00 0. -1.
         11    1    3    3    0    0  0.15252060954E+02  0.31101050863E+02 -0.17578017099E+02  0.38844400028E+02  0.51100000000E-03 0. -1.
        -11    1    3    3    0    0  0.85285142997E+01  0.90844534968E+00  0.25039895011E+01  0.89348079328E+01  0.51100000000E-03 0.  1.
        -12    1    3    3    0    0 -0.22752978288E+02 -0.32414419463E+02  0.14658158587E+02  0.42228594853E+02  0.00000000000E+00 0.  1.
</event>
<event>
 7    1  0.2285268E-015  0.9000791E+02  0.7816164E-02  0.1186339E+00
        -11   -1    0    0    0    0  0.00000000000E+00  0.00000000000E+00  0.45593999997E+02  0.45594000000E+02  0.51100000000E-03 0.  1.
         11   -1    0    0    0    0 -0.00000000000E+00 -0.00000000000E+00 -0.45593999997E+02  0.45594000000E+02  0.51100000000E-03 0. -1.
    9900012    2    1    2    0    0  0.61167804599E+00 -0.97637340792E+00  0.25526725976E+00  0.90007908293E+02  0.90000171882E+02 0.  0.
         12    1    1    2    0    0 -0.61167804599E+00  0.97637340792E+00 -0.25526725976E+00  0.11800917073E+01  0.00000000000E+00 0. -1.
         11    1    3    3    0    0 -0.22132555282E+01 -0.15784631842E+02 -0.37222642843E+01  0.16367906221E+02  0.51100000000E-03 0. -1.
        -11    1    3    3    0    0  0.36967269526E+02  0.11828829568E+02 -0.19340042592E+01  0.38861814135E+02  0.51100000000E-03 0.  1.
         12    1    3    3    0    0 -0.34142335951E+02  0.29794288656E+01  0.59115358032E+01  0.34778187936E+02  0.00000000000E+00 0. -1.
</event>
<event>
 7    1  0.2285268E-015  0.9000781E+02  0.7816164E-02  0.1186339E+00
        -11   -1    0    0    0    0  0.00000000000E+00  0.00000000000E+00  0.45593999997E+02  0.45594000000E+02  0.51100000000E-03 0.  1.
         11   -1    0    0    0    0 -0.00000000000E+00 -0.00000000000E+00 -0.45593999997E+02  0.45594000000E+02  0.51100000000E-03 0. -1.
    9900012    2    1    2    0    0 -0.17496628595E+00  0.10932691994E+01  0.40865127328E+00  0.90007810775E+02  0.90000073077E+02 0.  0.
         12    1    1    2    0    0  0.17496628595E+00 -0.10932691994E+01 -0.40865127328E+00  0.11801892250E+01  0.00000000000E+00 0. -1.
         11    1    3    3    0    0 -0.15569881401E+01  0.66395830817E+01  0.60470421370E+01  0.91145485042E+01  0.51100000000E-03 0. -1.
        -11    1    3    3    0    0 -0.34906183257E+02  0.41529879131E+01  0.14788189321E+02  0.38136327587E+02  0.51100000000E-03 0.  1.
         12    1    3    3    0    0  0.36288205111E+02 -0.96993017953E+01 -0.20426580185E+02  0.42756934684E+02  0.00000000000E+00 0. -1.
</event>
<event>
 7    1  0.2285268E-015  0.9000767E+02  0.7816164E-02  0.1186339E+00
        -11   -1    0    0    0    0  0.00000000000E+00  0.00000000000E+00  0.45593999997E+02  0.45594000000E+02  0.51100000000E-03 0. -1.
         11   -1    0    0    0    0 -0.00000000000E+00 -0.00000000000E+00 -0.45593999997E+02  0.45594000000E+02  0.51100000000E-03 0.  1.
    9900012    2    1    2    0    0  0.10360362283E+01  0.39777348985E+00 -0.40196904327E+00  0.90007672110E+02  0.89999932582E+02 0.  0.
         12    1    1    2    0    0 -0.10360362283E+01 -0.39777348985E+00  0.40196904327E+00  0.11803278898E+01  0.00000000000E+00 0. -1.
         11    1    3    3    0    0  0.64844519598E+00  0.12758906048E+00  0.42507898497E+01  0.43018571278E+01  0.51100000000E-03 0. -1.
        -11    1    3    3    0    0 -0.16516905881E+02 -0.23912913816E+02 -0.33563133792E+02  0.44397292454E+02  0.51100000000E-03 0.  1.
         12    1    3    3    0    0  0.16904496913E+02  0.24183098245E+02  0.28910374899E+02  0.41308522528E+02  0.00000000000E+00 0. -1.
</event>
<event>
 7    1  0.2285268E-015  0.9000775E+02  0.7816164E-02  0.1186339E+00
        -11   -1    0    0    0    0  0.00000000000E+00  0.00000000000E+00  0.45593999997E+02  0.45594000000E+02  0.51100000000E-03 0.  1.
         11   -1    0    0    0    0 -0.00000000000E+00 -0.00000000000E+00 -0.45593999997E+02  0.45594000000E+02  0.51100000000E-03 0. -1.
    9900012    2    1    2    0    0 -0.95590907335E+00 -0.18063038376E+00  0.66828846210E+00  0.90007746230E+02  0.90000007681E+02 0.  0.
         12    1    1    2    0    0  0.95590907335E+00  0.18063038376E+00 -0.66828846210E+00  0.11802537696E+01  0.00000000000E+00 0. -1.
         11    1    3    3    0    0 -0.76850418094E+01 -0.24869706938E+00 -0.11662367548E+01  0.77770062539E+01  0.51100000000E-03 0. -1.
        -11    1    3    3    0    0 -0.87821476136E+00 -0.23313627040E+02  0.34313964079E+02  0.41493910372E+02  0.51100000000E-03 0.  1.
         12    1    3    3    0    0  0.76073474974E+01  0.23381693725E+02 -0.32479438862E+02  0.40736829604E+02  0.00000000000E+00 0. -1.
</event>
<event>
 7    1  0.2285268E-015  0.9000809E+02  0.7816164E-02  0.1186338E+00
        -11   -1    0    0    0    0  0.00000000000E+00  0.00000000000E+00  0.45593999997E+02  0.45594000000E+02  0.51100000000E-03 0.  1.
         11   -1    0    0    0    0 -0.00000000000E+00 -0.00000000000E+00 -0.45593999997E+02  0.45594000000E+02  0.51100000000E-03 0. -1.
    9900012    2    1    2    0    0  0.32693305036E+00 -0.58982435949E+00  0.96819419325E+00  0.90008094076E+02  0.90000360117E+02 0.  0.
         12    1    1    2    0    0 -0.32693305036E+00  0.58982435949E+00 -0.96819419325E+00  0.11799059243E+01  0.00000000000E+00 0. -1.
         11    1    3    3    0    0  0.29753905827E+02  0.20337829329E+02 -0.80378584291E+01  0.36925998729E+02  0.51100000000E-03 0. -1.
        -11    1    3    3    0    0  0.81001641934E+01 -0.17864069153E+01 -0.36973401225E+01  0.90815325727E+01  0.51100000000E-03 0.  1.
        -12    1    3    3    0    0 -0.37527136970E+02 -0.19141246773E+02  0.12703392745E+02  0.44000562774E+02  0.00000000000E+00 0.  1.
</event>
<event>
 7    1  0.2285268E-015  0.9000771E+02  0.7816164E-02  0.1186339E+00
        -11   -1    0    0    0    0  0.00000000000E+00  0.00000000000E+00  0.45593999997E+02  0.45594000000E+02  0.51100000000E-03 0.  1.
         11   -1    0    0    0    0 -0.00000000000E+00 -0.00000000000E+00 -0.45593999997E+02  0.45594000000E+02  0.51100000000E-03 0. -1.
    9900012    2    1    2    0    0  0.53852078354E+00  0.82139469840E+00  0.65451685282E+00  0.90007709275E+02  0.89999970237E+02 0.  0.
         12    1    1    2    0    0 -0.53852078354E+00 -0.82139469840E+00 -0.65451685282E+00  0.11802907250E+01  0.00000000000E+00 0. -1.
         11    1    3    3    0    0 -0.32602825970E+02 -0.96973004391E+01 -0.25191831691E+02  0.42327417607E+02  0.51100000000E-03 0. -1.
        -11    1    3    3    0    0  0.21085226274E+01  0.83107627445E+01  0.30086469450E+01  0.90866166293E+01  0.51100000000E-03 0.  1.
        -12    1    3    3    0    0  0.31032824126E+02  0.22079323929E+01  0.22837701599E+02  0.38593675039E+02  0.00000000000E+00 0.  1.
</event>
<event>
 7    1  0.2285268E-015  0.9000763E+02  0.7816164E-02  0.1186339E+00
        -11   -1    0    0    0    0  0.00000000000E+00  0.00000000000E+00  0.45593999997E+02  0.45594000000E+02  0.51100000000E-03 0. -1.
         11   -1    0    0    0    0 -0.00000000000E+00 -0.00000000000E+00 -0.45593999997E+02  0.45594000000E+02  0.51100000000E-03 0.  1.
    9900012    2    1    2    0    0  0.12553731885E+00  0.84825597230E+00 -0.81115317436E+00  0.90007632563E+02  0.89999892513E+02 0.  0.
         12    1    1    2    0    0 -0.12553731885E+00 -0.84825597230E+00  0.81115317436E+00  0.11803674365E+01  0.00000000000E+00 0. -1.
         11    1    3    3    0    0  0.28290422181E+01 -0.22283520665E+01 -0.10679197004E+02  0.11270061300E+02  0.51100000000E-03 0. -1.
        -11    1    3    3    0    0 -0.15024694605E+02  0.27669168348E+02 -0.20649877346E+02  0.37652911703E+02  0.51100000000E-03 0.  1.
         12    1    3    3    0    0  0.12321189706E+02 -0.24592560309E+02  0.30517921176E+02  0.41084659560E+02  0.00000000000E+00 0. -1.
</event>
<event>
 7    1  0.2285268E-015  0.9000774E+02  0.7816164E-02  0.1186339E+00
        -11   -1    0    0    0    0  0.00000000000E+00  0.00000000000E+00  0.45593999997E+02  0.45594000000E+02  0.51100000000E-03 0. -1.
         11   -1    0    0    0    0 -0.00000000000E+00 -0.00000000000E+00 -0.45593999997E+02  0.45594000000E+02  0.51100000000E-03 0.  1.
    9900012    2    1    2    0    0  0.81602133564E+00  0.19643037477E+00 -0.82978337977E+00  0.90007738940E+02  0.90000000294E+02 0.  0.
         12    1    1    2    0    0 -0.81602133564E+00 -0.19643037477E+00  0.82978337977E+00  0.11802610600E+01  0.00000000000E+00 0. -1.
         11    1    3    3    0    0  0.24112117069E+01  0.69297735883E+01 -0.40348474496E+01  0.83735116936E+01  0.51100000000E-03 0. -1.
        -11    1    3    3    0    0 -0.99440872885E+01  0.57890246363E+01 -0.36977071017E+02  0.38725979129E+02  0.51100000000E-03 0.  1.
         12    1    3    3    0    0  0.83488969172E+01 -0.12522367850E+02  0.40182135087E+02  0.42908248117E+02  0.00000000000E+00 0. -1.
</event>
<event>
 7    1  0.2285268E-015  0.9000792E+02  0.7816164E-02  0.1186339E+00
        -11   -1    0    0    0    0  0.00000000000E+00  0.00000000000E+00  0.45593999997E+02  0.45594000000E+02  0.51100000000E-03 0.  1.
         11   -1    0    0    0    0 -0.00000000000E+00 -0.00000000000E+00 -0.45593999997E+02  0.45594000000E+02  0.51100000000E-03 0. -1.
    9900012    2    1    2    0    0  0.65050748679E+00  0.98357104865E+00 -0.44859273665E-01  0.90007921887E+02  0.90000185656E+02 0.  0.
         12    1    1    2    0    0 -0.65050748679E+00 -0.98357104865E+00  0.44859273665E-01  0.11800781129E+01  0.00000000000E+00 0. -1.
         11    1    3    3    0    0  0.46651652024E+01  0.36770415135E+01 -0.70579867353E+01  0.92249432342E+01  0.51100000000E-03 0. -1.
        -11    1    3    3    0    0 -0.78801020360E+01  0.38379090286E+02  0.20780587668E+01  0.39234792057E+02  0.51100000000E-03 0.  1.
         12    1    3    3    0    0  0.38654443204E+01 -0.41072560750E+02  0.49350686948E+01  0.41548186596E+02  0.00000000000E+00 0. -1.
</event>
<event>
 7    1  0.2285268E-015  0.9000774E+02  0.7816164E-02  0.1186339E+00
        -11   -1    0    0    0    0  0.00000000000E+00  0.00000000000E+00  0.45593999997E+02  0.45594000000E+02  0.51100000000E-03 0.  1.
         11   -1    0    0    0    0 -0.00000000000E+00 -0.00000000000E+00 -0.45593999997E+02  0.45594000000E+02  0.51100000000E-03 0. -1.
    9900012    2    1    2    0    0  0.11209690228E+01 -0.36281360811E+00 -0.69418844539E-01  0.90007735521E+02  0.89999996830E+02 0.  0.
         12    1    1    2    0    0 -0.11209690228E+01  0.36281360811E+00  0.69418844539E-01  0.11802644790E+01  0.00000000000E+00 0. -1.
         11    1    3    3    0    0  0.15852215154E+02  0.36232677944E+02 -0.54589862714E+01  0.39923679786E+02  0.51100000000E-03 0. -1.
        -11    1    3    3    0    0  0.37698748144E+00 -0.13024614056E+01 -0.89876899783E+01  0.90893947368E+01  0.51100000000E-03 0.  1.
        -12    1    3    3    0    0 -0.15108233612E+02 -0.35293030147E+02  0.14377257405E+02  0.40994660998E+02  0.00000000000E+00 0.  1.
</event>
<event>
 7    1  0.2285268E-015  0.9000786E+02  0.7816164E-02  0.1186339E+00
        -11   -1    0    0    0    0  0.00000000000E+00  0.00000000000E+00  0.45593999997E+02  0.45594000000E+02  0.51100000000E-03 0.  1.
         11   -1    0    0    0    0 -0.00000000000E+00 -0.00000000000E+00 -0.45593999997E+02  0.45594000000E+02  0.51100000000E-03 0. -1.
    9900012    2    1    2    0    0 -0.30922894231E+00 -0.22372341428E+00  0.11167162242E+01  0.90007860250E+02  0.90000123205E+02 0.  0.
         12    1    1    2    0    0  0.30922894231E+00  0.22372341428E+00 -0.11167162242E+01  0.11801397503E+01  0.00000000000E+00 0. -1.
         11    1    3    3    0    0 -0.50967822353E+01 -0.68268987740E+01 -0.32476936622E+01  0.91176340357E+01  0.51100000000E-03 0. -1.
        -11    1    3    3    0    0 -0.28599297453E+02 -0.14995287880E+02 -0.16195124019E+02  0.36125621319E+02  0.51100000000E-03 0.  1.
         12    1    3    3    0    0  0.33386850746E+02  0.21598463240E+02  0.20559533906E+02  0.44764604895E+02  0.00000000000E+00 0. -1.
</event>
<event>
 7    1  0.2285268E-015  0.9000779E+02  0.7816164E-02  0.1186339E+00
        -11   -1    0    0    0    0  0.00000000000E+00  0.00000000000E+00  0.45593999997E+02  0.45594000000E+02  0.51100000000E-03 0.  1.
         11   -1    0    0    0    0 -0.00000000000E+00 -0.00000000000E+00 -0.45593999997E+02  0.45594000000E+02  0.51100000000E-03 0. -1.
    9900012    2    1    2    0    0  0.22378059883E+00  0.31083064204E+00  0.11163341519E+01  0.90007790111E+02  0.90000052140E+02 0.  0.
         12    1    1    2    0    0 -0.22378059883E+00 -0.31083064204E+00 -0.11163341519E+01  0.11802098895E+01  0.00000000000E+00 0. -1.
         11    1    3    3    0    0 -0.14032642139E+02 -0.41380869034E+01 -0.75403816861E-01  0.14630259554E+02  0.51100000000E-03 0. -1.
        -11    1    3    3    0    0 -0.86026683256E+01  0.23501365392E+01  0.34104018132E+02  0.35250717682E+02  0.51100000000E-03 0.  1.
         12    1    3    3    0    0  0.22859091063E+02  0.20987810062E+01 -0.32912280163E+02  0.40126812875E+02  0.00000000000E+00 0. -1.
</event>
<event>
 7    1  0.2285268E-015  0.9000771E+02  0.7816164E-02  0.1186339E+00
        -11   -1    0    0    0    0  0.00000000000E+00  0.00000000000E+00  0.45593999997E+02  0.45594000000E+02  0.51100000000E-03 0. -1.
         11   -1    0    0    0    0 -0.00000000000E+00 -0.00000000000E+00 -0.45593999997E+02  0.45594000000E+02  0.51100000000E-03 0.  1.
    9900012    2    1    2    0    0 -0.10333303854E+01  0.48185881030E+00 -0.30515040204E+00  0.90007713439E+02  0.89999974456E+02 0.  0.
         12    1    1    2    0    0  0.10333303854E+01 -0.48185881030E+00  0.30515040204E+00  0.11802865611E+01  0.00000000000E+00 0. -1.
         11    1    3    3    0    0  0.20489528213E+01 -0.16845418465E+01  0.88973815329E+01  0.92843571290E+01  0.51100000000E-03 0. -1.
        -11    1    3    3    0    0  0.34019281534E+02 -0.16506727190E+02 -0.10240824443E+02  0.39174711794E+02  0.51100000000E-03 0.  1.
         12    1    3    3    0    0 -0.37101564740E+02  0.18673127847E+02  0.10382925077E+01  0.41548644516E+02  0.00000000000E+00 0. -1.
</event>
<event>
 7    1  0.2285268E-015  0.9000788E+02  0.7816164E-02  0.1186339E+00
        -11   -1    0    0    0    0  0.00000000000E+00  0.00000000000E+00  0.45593999997E+02  0.45594000000E+02  0.51100000000E-03 0. -1.
         11   -1    0    0    0    0 -0.00000000000E+00 -0.00000000000E+00 -0.45593999997E+02  0.45594000000E+02  0.51100000000E-03 0.  1.
    9900012    2    1    2    0    0 -0.69375990261E-01 -0.93538542978E+00 -0.71618890234E+00  0.90007879043E+02  0.90000142246E+02 0.  0.
         12    1    1    2    0    0  0.69375990261E-01  0.93538542978E+00  0.71618890234E+00  0.11801209574E+01  0.00000000000E+00 0. -1.
         11    1    3    3    0    0  0.33739719495E+02  0.25735369900E+01 -0.26062537124E+02  0.42711211711E+02  0.51100000000E-03 0. -1.
        -11    1    3    3    0    0 -0.11359525034E+02 -0.41375817938E+01 -0.16259781655E+01  0.12198450613E+02  0.51100000000E-03 0.  1.
        -12    1    3    3    0    0 -0.22449570451E+02  0.62865937402E+00  0.26972326387E+02  0.35098216718E+02  0.00000000000E+00 0.  1.
</event>
<event>
 7    1  0.2285268E-015  0.9000779E+02  0.7816164E-02  0.1186339E+00
        -11   -1    0    0    0    0  0.00000000000E+00  0.00000000000E+00  0.45593999997E+02  0.45594000000E+02  0.51100000000E-03 0.  1.
         11   -1    0    0    0    0 -0.00000000000E+00 -0.00000000000E+00 -0.45593999997E+02  0.45594000000E+02  0.51100000000E-03 0. -1.
    9900012    2    1    2    0    0  0.81319538760E+00 -0.71456747824E+00  0.47011562383E+00  0.90007787257E+02  0.90000049249E+02 0.  0.
         12    1    1    2    0    0 -0.81319538760E+00  0.71456747824E+00 -0.47011562383E+00  0.11802127432E+01  0.00000000000E+00 0. -1.
         11    1    3    3    0    0 -0.22381117598E+02  0.29173565988E+02 -0.89661105136E+01  0.37847093883E+02  0.51100000000E-03 0. -1.
        -11    1    3    3    0    0 -0.67982114155E+01 -0.67776367174E+01 -0.59459864115E+01  0.11291890568E+02  0.51100000000E-03 0.  1.
        -12    1    3    3    0    0  0.29992524401E+02 -0.23110496749E+02  0.15382212549E+02  0.40868802806E+02  0.00000000000E+00 0.  1.
</event>
<event>
 7    1  0.2285268E-015  0.9000815E+02  0.7816164E-02  0.1186338E+00
        -11   -1    0    0    0    0  0.00000000000E+00  0.00000000000E+00  0.45593999997E+02  0.45594000000E+02  0.51100000000E-03 0.  1.
         11   -1    0    0    0    0 -0.00000000000E+00 -0.00000000000E+00 -0.45593999997E+02  0.45594000000E+02  0.51100000000E-03 0. -1.
    9900012    2    1    2    0    0 -0.10931150501E+01 -0.23586727776E+00  0.37618767551E+00  0.90008147868E+02  0.90000414619E+02 0.  0.
         12    1    1    2    0    0  0.10931150501E+01  0.23586727776E+00 -0.37618767551E+00  0.11798521317E+01  0.00000000000E+00 0. -1.
         11    1    3    3    0    0 -0.12459946792E+02 -0.10078918840E+01  0.43322918911E+01  0.13230074580E+02  0.51100000000E-03 0. -1.
        -11    1    3    3    0    0 -0.29524622213E+02 -0.75779421994E+01  0.11056366499E+02  0.32424863380E+02  0.51100000000E-03 0.  1.
         12    1    3    3    0    0  0.40891453955E+02  0.83499668057E+01 -0.15012470715E+02  0.44353209908E+02  0.00000000000E+00 0. -1.
</event>
<event>
 7    1  0.2285268E-015  0.9000803E+02  0.7816164E-02  0.1186338E+00
        -11   -1    0    0    0    0  0.00000000000E+00  0.00000000000E+00  0.45593999997E+02  0.45594000000E+02  0.51100000000E-03 0.  1.
         11   -1    0    0    0    0 -0.00000000000E+00 -0.00000000000E+00 -0.45593999997E+02  0.45594000000E+02  0.51100000000E-03 0. -1.
    9900012    2    1    2    0    0 -0.80131506063E+00  0.80954998831E+00  0.30798752080E+00  0.90008028253E+02  0.90000293426E+02 0.  0.
         12    1    1    2    0    0  0.80131506063E+00 -0.80954998831E+00 -0.30798752080E+00  0.11799717467E+01  0.00000000000E+00 0. -1.
         11    1    3    3    0    0 -0.58761788479E+01  0.19388722792E+01  0.18856648204E+01  0.64687275135E+01  0.51100000000E-03 0. -1.
        -11    1    3    3    0    0 -0.95619115483E+01 -0.35423897940E+02  0.18606018541E+02  0.41139599220E+02  0.51100000000E-03 0.  1.
         12    1    3    3    0    0  0.14636775336E+02  0.34294575650E+02 -0.20183695841E+02  0.42399701520E+02  0.00000000000E+00 0. -1.
</event>
<event>
 7    1  0.2285268E-015  0.9000787E+02  0.7816164E-02  0.1186339E+00
        -11   -1    0    0    0    0  0.00000000000E+00  0.00000000000E+00  0.45593999997E+02  0.45594000000E+02  0.51100000000E-03 0. -1.
         11   -1    0    0    0    0 -0.00000000000E+00 -0.00000000000E+00 -0.45593999997E+02  0.45594000000E+02  0.51100000000E-03 0.  1.
    9900012    2    1    2    0    0 -0.61426874762E-01  0.49146351859E+00 -0.10711611131E+01  0.90007874676E+02  0.90000137821E+02 0.  0.
         12    1    1    2    0    0  0.61426874762E-01 -0.49146351859E+00  0.10711611131E+01  0.11801253244E+01  0.00000000000E+00 0. -1.
         11    1    3    3    0    0 -0.64264263367E+01 -0.23745604939E+02  0.26174876598E+02  0.35920424198E+02  0.51100000000E-03 0. -1.
        -11    1    3    3    0    0  0.23903868571E+01 -0.88304998260E+01  0.24443971229E+01  0.94692530887E+01  0.51100000000E-03 0.  1.
        -12    1    3    3    0    0  0.39746126048E+01  0.33067568284E+02 -0.29690434834E+02  0.44618197389E+02  0.00000000000E+00 0.  1.
</event>
<event>
 7    1  0.2285268E-015  0.9000755E+02  0.7816164E-02  0.1186339E+00
        -11   -1    0    0    0    0  0.00000000000E+00  0.00000000000E+00  0.45593999997E+02  0.45594000000E+02  0.51100000000E-03 0.  1.
         11   -1    0    0    0    0 -0.00000000000E+00 -0.00000000000E+00 -0.45593999997E+02  0.45594000000E+02  0.51100000000E-03 0. -1.
    9900012    2    1    2    0    0 -0.53397520856E+00 -0.68272338638E+00 -0.80139332145E+00  0.90007545850E+02  0.89999804655E+02 0.  0.
         12    1    1    2    0    0  0.53397520856E+00  0.68272338638E+00  0.80139332145E+00  0.11804541505E+01  0.00000000000E+00 0. -1.
         11    1    3    3    0    0 -0.29101818307E+01  0.38231887244E+02 -0.36321552100E+01  0.38514139122E+02  0.51100000000E-03 0. -1.
        -11    1    3    3    0    0 -0.93242294577E+01  0.62794869024E+00  0.41719919804E+01  0.10234309546E+02  0.51100000000E-03 0.  1.
        -12    1    3    3    0    0  0.11700436080E+02 -0.39542559321E+02 -0.13412300919E+01  0.41259097182E+02  0.00000000000E+00 0.  1.
</event>
<event>
 7    1  0.2285268E-015  0.9000774E+02  0.7816164E-02  0.1186339E+00
        -11   -1    0    0    0    0  0.00000000000E+00  0.00000000000E+00  0.45593999997E+02  0.45594000000E+02  0.51100000000E-03 0.  1.
         11   -1    0    0    0    0 -0.00000000000E+00 -0.00000000000E+00 -0.45593999997E+02  0.45594000000E+02  0.51100000000E-03 0. -1.
    9900012    2    1    2    0    0 -0.81204554246E+00 -0.79196030601E-01  0.85282896936E+00  0.90007742729E+02  0.90000004133E+02 0.  0.
         12    1    1    2    0    0  0.81204554246E+00  0.79196030601E-01 -0.85282896936E+00  0.11802572708E+01  0.00000000000E+00 0. -1.
         11    1    3    3    0    0 -0.63314096356E+01 -0.37067301960E+02 -0.77485439759E+01  0.38394160449E+02  0.51100000000E-03 0. -1.
        -11    1    3    3    0    0 -0.85431755978E+01  0.59359540792E+01 -0.85391625210E+01  0.13458777691E+02  0.51100000000E-03 0.  1.
        -12    1    3    3    0    0  0.14062539691E+02  0.31052151851E+02  0.17140535466E+02  0.38154804588E+02  0.00000000000E+00 0.  1.
</event>
<event>
 7    1  0.2285268E-015  0.9000704E+02  0.7816164E-02  0.1186340E+00
        -11   -1    0    0    0    0  0.00000000000E+00  0.00000000000E+00  0.45593999997E+02  0.45594000000E+02  0.51100000000E-03 0. -1.
         11   -1    0    0    0    0 -0.00000000000E+00 -0.00000000000E+00 -0.45593999997E+02  0.45594000000E+02  0.51100000000E-03 0.  1.
    9900012    2    1    2    0    0  0.88361707222E+00  0.79026439257E-02 -0.78347646783E+00  0.90007035582E+02  0.89999287648E+02 0.  0.
         12    1    1    2    0    0 -0.88361707222E+00 -0.79026439257E-02  0.78347646783E+00  0.11809644185E+01  0.00000000000E+00 0. -1.
         11    1    3    3    0    0 -0.69592799273E+01  0.19981747951E+01  0.73012441969E+01  0.10282628395E+02  0.51100000000E-03 0. -1.
        -11    1    3    3    0    0  0.27513075046E+02  0.25841972595E+02  0.12675692150E+02  0.39817709851E+02  0.51100000000E-03 0.  1.
         12    1    3    3    0    0 -0.19670178046E+02 -0.27832244746E+02 -0.20760412814E+02  0.39906697335E+02  0.00000000000E+00 0. -1.
</event>
<event>
 7    1  0.2285268E-015  0.9000775E+02  0.7816164E-02  0.1186339E+00
        -11   -1    0    0    0    0  0.00000000000E+00  0.00000000000E+00  0.45593999997E+02  0.45594000000E+02  0.51100000000E-03 0.  1.
         11   -1    0    0    0    0 -0.00000000000E+00 -0.00000000000E+00 -0.45593999997E+02  0.45594000000E+02  0.51100000000E-03 0. -1.
    9900012    2    1    2    0    0  0.75905224851E+00 -0.87618805645E+00  0.22165704857E+00  0.90007746776E+02  0.90000008233E+02 0.  0.
         12    1    1    2    0    0 -0.75905224851E+00  0.87618805645E+00 -0.22165704857E+00  0.11802532243E+01  0.00000000000E+00 0. -1.
         11    1    3    3    0    0 -0.29760117518E+02  0.22756701583E+02 -0.11741979351E+02  0.39260745548E+02  0.51100000000E-03 0. -1.
        -11    1    3    3    0    0 -0.17544939366E+01  0.40747249057E+01 -0.33280286270E+01  0.55459360647E+01  0.51100000000E-03 0.  1.
        -12    1    3    3    0    0  0.32273663703E+02 -0.27707614545E+02  0.15291665027E+02  0.45201065163E+02  0.00000000000E+00 0.  1.
</event>
<event>
 7    1  0.2285268E-015  0.9000782E+02  0.7816164E-02  0.1186339E+00
        -11   -1    0    0    0    0  0.00000000000E+00  0.00000000000E+00  0.45593999997E+02  0.45594000000E+02  0.51100000000E-03 0.  1.
         11   -1    0    0    0    0 -0.00000000000E+00 -0.00000000000E+00 -0.45593999997E+02  0.45594000000E+02  0.51100000000E-03 0. -1.
    9900012    2    1    2    0    0  0.43677226729E+00 -0.10696558402E+01 -0.24062205650E+00  0.90007816707E+02  0.90000079088E+02 0.  0.
         12    1    1    2    0    0 -0.43677226729E+00  0.10696558402E+01  0.24062205650E+00  0.11801832926E+01  0.00000000000E+00 0. -1.
         11    1    3    3    0    0 -0.34800722726E+02  0.22264895768E+02 -0.23656979905E+01  0.41381305115E+02  0.51100000000E-03 0. -1.
        -11    1    3    3    0    0  0.61481517142E+01  0.29525467976E+01  0.61883067258E+01  0.92093671056E+01  0.51100000000E-03 0.  1.
        -12    1    3    3    0    0  0.29089343279E+02 -0.26287098406E+02 -0.40632307918E+01  0.39417144487E+02  0.00000000000E+00 0.  1.
</event>
<event>
 7    1  0.2285268E-015  0.9000772E+02  0.7816164E-02  0.1186339E+00
        -11   -1    0    0    0    0  0.00000000000E+00  0.00000000000E+00  0.45593999997E+02  0.45594000000E+02  0.51100000000E-03 0. -1.
         11   -1    0    0    0    0 -0.00000000000E+00 -0.00000000000E+00 -0.45593999997E+02  0.45594000000E+02  0.51100000000E-03 0.  1.
    9900012    2    1    2    0    0 -0.50135909116E-01 -0.10192863974E+01  0.59295728373E+00  0.90007721766E+02  0.89999982893E+02 0.  0.
         12    1    1    2    0    0  0.50135909116E-01  0.10192863974E+01 -0.59295728373E+00  0.11802782340E+01  0.00000000000E+00 0. -1.
         11    1    3    3    0    0  0.74945091063E+00 -0.10318899221E+02  0.50965116978E+01  0.11533247138E+02  0.51100000000E-03 0. -1.
        -11    1    3    3    0    0  0.21158994562E+02  0.14323242758E+01 -0.34487413625E+02  0.40486248313E+02  0.51100000000E-03 0.  1.
         12    1    3    3    0    0 -0.21958581382E+02  0.78672885475E+01  0.29983859211E+02  0.37988226315E+02  0.00000000000E+00 0. -1.
</event>
<event>
 7    1  0.2285268E-015  0.9000859E+02  0.7816164E-02  0.1186337E+00
        -11   -1    0    0    0    0  0.00000000000E+00  0.00000000000E+00  0.45593999997E+02  0.45594000000E+02  0.51100000000E-03 0. -1.
         11   -1    0    0    0    0 -0.00000000000E+00 -0.00000000000E+00 -0.45593999997E+02  0.45594000000E+02  0.51100000000E-03 0.  1.
    9900012    2    1    2    0    0 -0.11726745397E+01  0.23593730516E-01 -0.12366943317E+00  0.90008586430E+02  0.90000858967E+02 0.  0.
         12    1    1    2    0    0  0.11726745397E+01 -0.23593730516E-01  0.12366943317E+00  0.11794135699E+01  0.00000000000E+00 0. -1.
         11    1    3    3    0    0 -0.45264446753E+01 -0.63820063416E+01 -0.36308940805E+01  0.86256651006E+01  0.51100000000E-03 0. -1.
        -11    1    3    3    0    0  0.22719482731E+02 -0.29675237940E+02 -0.92330994198E+01  0.38497334551E+02  0.51100000000E-03 0.  1.
         12    1    3    3    0    0 -0.19365712595E+02  0.36080838012E+02  0.12740324067E+02  0.42885586779E+02  0.00000000000E+00 0. -1.
</event>
<event>
 7    1  0.2285268E-015  0.9000773E+02  0.7816164E-02  0.1186339E+00
        -11   -1    0    0    0    0  0.00000000000E+00  0.00000000000E+00  0.45593999997E+02  0.45594000000E+02  0.51100000000E-03 0.  1.
         11   -1    0    0    0    0 -0.00000000000E+00 -0.00000000000E+00 -0.45593999997E+02  0.45594000000E+02  0.51100000000E-03 0. -1.
    9900012    2    1    2    0    0  0.78793882575E+00 -0.73591817639E+00 -0.48022772452E+00  0.90007728072E+02  0.89999989283E+02 0.  0.
         12    1    1    2    0    0 -0.78793882575E+00  0.73591817639E+00  0.48022772452E+00  0.11802719275E+01  0.00000000000E+00 0. -1.
         11    1    3    3    0    0  0.36582737365E+01  0.31491297333E+02  0.69253829569E+01  0.32450665691E+02  0.51100000000E-03 0. -1.
        -11    1    3    3    0    0 -0.32700335519E+01  0.52489669071E+01  0.13351753575E+02  0.14714417991E+02  0.51100000000E-03 0.  1.
        -12    1    3    3    0    0  0.39969864114E+00 -0.37476182416E+02 -0.20757364256E+02  0.42842644391E+02  0.00000000000E+00 0.  1.
</event>
<event>
 7    1  0.2285268E-015  0.9000775E+02  0.7816164E-02  0.1186339E+00
        -11   -1    0    0    0    0  0.00000000000E+00  0.00000000000E+00  0.45593999997E+02  0.45594000000E+02  0.51100000000E-03 0.  1.
         11   -1    0    0    0    0 -0.00000000000E+00 -0.00000000000E+00 -0.45593999997E+02  0.45594000000E+02  0.51100000000E-03 0. -1.
    9900012    2    1    2    0    0 -0.91481471025E+00  0.72947409176E-01 -0.74214672821E+00  0.90007750431E+02  0.90000011937E+02 0.  0.
         12    1    1    2    0    0  0.91481471025E+00 -0.72947409176E-01  0.74214672821E+00  0.11802495689E+01  0.00000000000E+00 0. -1.
         11    1    3    3    0    0  0.27098636600E+01  0.45843452163E+01  0.63597651189E+01  0.82949499544E+01  0.51100000000E-03 0. -1.
        -11    1    3    3    0    0 -0.29542839385E+01 -0.23713296338E+02  0.30940157397E+02  0.39094009219E+02  0.51100000000E-03 0.  1.
         12    1    3    3    0    0 -0.67039443168E+00  0.19201898531E+02 -0.38042069244E+02  0.42618791258E+02  0.00000000000E+00 0. -1.
</event>
<event>
 7    1  0.2285268E-015  0.9000777E+02  0.7816164E-02  0.1186339E+00
        -11   -1    0    0    0    0  0.00000000000E+00  0.00000000000E+00  0.45593999997E+02  0.45594000000E+02  0.51100000000E-03 0. -1.
         11   -1    0    0    0    0 -0.00000000000E+00 -0.00000000000E+00 -0.45593999997E+02  0.45594000000E+02  0.51100000000E-03 0.  1.
    9900012    2    1    2    0    0 -0.54333693575E+00 -0.38582436764E+00 -0.97409381574E+00  0.90007773653E+02  0.90000035465E+02 0.  0.
         12    1    1    2    0    0  0.54333693575E+00  0.38582436764E+00  0.97409381574E+00  0.11802263471E+01  0.00000000000E+00 0. -1.
         11    1    3    3    0    0  0.16478467347E+02 -0.13328889072E+02  0.29372351937E+02  0.36220632637E+02  0.51100000000E-03 0. -1.
        -11    1    3    3    0    0 -0.80331990727E+01 -0.67814199073E-01  0.85904158700E+01  0.11761468071E+02  0.51100000000E-03 0.  1.
        -12    1    3    3    0    0 -0.89886052103E+01  0.13010878903E+02 -0.38936861623E+02  0.42025672945E+02  0.00000000000E+00 0.  1.
</event>
<event>
 7    1  0.2285268E-015  0.9000779E+02  0.7816164E-02  0.1186339E+00
        -11   -1    0    0    0    0  0.00000000000E+00  0.00000000000E+00  0.45593999997E+02  0.45594000000E+02  0.51100000000E-03 0. -1.
         11   -1    0    0    0    0 -0.00000000000E+00 -0.00000000000E+00 -0.45593999997E+02  0.45594000000E+02  0.51100000000E-03 0.  1.
    9900012    2    1    2    0    0 -0.79685756554E+00 -0.54293083088E+00  0.68054225088E+00  0.90007790857E+02  0.90000052896E+02 0.  0.
         12    1    1    2    0    0  0.79685756554E+00  0.54293083088E+00 -0.68054225088E+00  0.11802091434E+01  0.00000000000E+00 0. -1.
         11    1    3    3    0    0 -0.11470516028E+02  0.82145511681E+01  0.10769275100E+02  0.17749052800E+02  0.51100000000E-03 0. -1.
        -11    1    3    3    0    0 -0.23960573671E+02 -0.91531790878E+01 -0.23815891783E+02  0.35001235403E+02  0.51100000000E-03 0.  1.
         12    1    3    3    0    0  0.34634232133E+02  0.39569708885E+00  0.13727158934E+02  0.37257502654E+02  0.00000000000E+00 0. -1.
</event>
<event>
 7    1  0.2285268E-015  0.9000775E+02  0.7816164E-02  0.1186339E+00
        -11   -1    0    0    0    0  0.00000000000E+00  0.00000000000E+00  0.45593999997E+02  0.45594000000E+02  0.51100000000E-03 0.  1.
         11   -1    0    0    0    0 -0.00000000000E+00 -0.00000000000E+00 -0.45593999997E+02  0.45594000000E+02  0.51100000000E-03 0. -1.
    9900012    2    1    2    0    0 -0.44754160428E+00 -0.16762494204E+00  0.10791689066E+01  0.90007747003E+02  0.90000008463E+02 0.  0.
         12    1    1    2    0    0  0.44754160428E+00  0.16762494204E+00 -0.10791689066E+01  0.11802529974E+01  0.00000000000E+00 0. -1.
         11    1    3    3    0    0 -0.46708867548E+00  0.96140028369E+01 -0.30984397937E+01  0.10111753151E+02  0.51100000000E-03 0. -1.
        -11    1    3    3    0    0 -0.34660191745E+02 -0.50447806467E+01  0.21234353060E+02  0.40959448894E+02  0.51100000000E-03 0.  1.
         12    1    3    3    0    0  0.34679738816E+02 -0.47368471322E+01 -0.17056744360E+02  0.38936544958E+02  0.00000000000E+00 0. -1.
</event>
<event>
 7    1  0.2285268E-015  0.9000828E+02  0.7816164E-02  0.1186338E+00
        -11   -1    0    0    0    0  0.00000000000E+00  0.00000000000E+00  0.45593999997E+02  0.45594000000E+02  0.51100000000E-03 0. -1.
         11   -1    0    0    0    0 -0.00000000000E+00 -0.00000000000E+00 -0.45593999997E+02  0.45594000000E+02  0.51100000000E-03 0.  1.
    9900012    2    1    2    0    0 -0.15445720097E+00 -0.51586914526E+00 -0.10496511499E+01  0.90008277347E+02  0.90000545806E+02 0.  0.
         12    1    1    2    0    0  0.15445720097E+00  0.51586914526E+00  0.10496511499E+01  0.11797226532E+01  0.00000000000E+00 0. -1.
         11    1    3    3    0    0 -0.14111003515E+02 -0.31880930281E+02  0.12688535482E+02  0.37101389040E+02  0.51100000000E-03 0. -1.
        -11    1    3    3    0    0  0.77443010070E+01 -0.59166095579E+01  0.47384820819E+01  0.10836682124E+02  0.51100000000E-03 0.  1.
        -12    1    3    3    0    0  0.62122453065E+01  0.37281670694E+02 -0.18476668714E+02  0.42070206183E+02  0.00000000000E+00 0.  1.
</event>
<event>
 7    1  0.2285268E-015  0.9000773E+02  0.7816164E-02  0.1186339E+00
        -11   -1    0    0    0    0  0.00000000000E+00  0.00000000000E+00  0.45593999997E+02  0.45594000000E+02  0.51100000000E-03 0. -1.
         11   -1    0    0    0    0 -0.00000000000E+00 -0.00000000000E+00 -0.45593999997E+02  0.45594000000E+02  0.51100000000E-03 0.  1.
    9900012    2    1    2    0    0 -0.11532361068E+01  0.23205553653E+00 -0.96077755065E-01  0.90007731291E+02  0.89999992544E+02 0.  0.
         12    1    1    2    0    0  0.11532361068E+01 -0.23205553653E+00  0.96077755065E-01  0.11802687088E+01  0.00000000000E+00 0. -1.
         11    1    3    3    0    0  0.69786598611E+01  0.71862900945E+01  0.22076012913E+01  0.10257580733E+02  0.51100000000E-03 0. -1.
        -11    1    3    3    0    0  0.67625398247E+00  0.22055731678E+02 -0.30969208424E+02  0.38026365721E+02  0.51100000000E-03 0.  1.
         12    1    3    3    0    0 -0.88081499504E+01 -0.29009966236E+02  0.28665529378E+02  0.41723784836E+02  0.00000000000E+00 0. -1.
</event>
