<event>
 7    1  0.3141443E-011  0.5052887E+02  0.7816164E-02  0.1300439E+00
        -11   -1    0    0    0    0  0.00000000000E+00  0.00000000000E+00  0.45593999997E+02  0.45594000000E+02  0.51100000000E-03 0.  1.
         11   -1    0    0    0    0 -0.00000000000E+00 -0.00000000000E+00 -0.45593999997E+02  0.45594000000E+02  0.51100000000E-03 0. -1.
    9900012    2    1    2    0    0  0.37095682933E+02  0.77477815162E+01  0.14732526559E+02  0.50528866346E+02  0.30000019746E+02 0.  0.
         12    1    1    2    0    0 -0.37095682933E+02 -0.77477815162E+01 -0.14732526559E+02  0.40659133654E+02  0.00000000000E+00 0. -1.
         11    1    3    3    0    0  0.11268167044E+02  0.96230274844E+01  0.18617912833E+01  0.14934540955E+02  0.51100000000E-03 0. -1.
        -11    1    3    3    0    0 -0.13480529375E+01  0.24170254504E+01  0.69099297708E+01  0.74435467654E+01  0.51100000000E-03 0.  1.
        -12    1    3    3    0    0  0.27175568826E+02 -0.42922714186E+01  0.59608055045E+01  0.28150778625E+02  0.00000000000E+00 0.  1.
</event>
<event>
 7    1  0.3887008E-011  0.5052889E+02  0.7816164E-02  0.1300439E+00
        -11   -1    0    0    0    0  0.00000000000E+00  0.00000000000E+00  0.45593999997E+02  0.45594000000E+02  0.51100000000E-03 0.  1.
         11   -1    0    0    0    0 -0.00000000000E+00 -0.00000000000E+00 -0.45593999997E+02  0.45594000000E+02  0.51100000000E-03 0. -1.
    9900012    2    1    2    0    0  0.82242533010E+01 -0.26377250887E+02  0.29828933755E+02  0.50528892832E+02  0.30000100252E+02 0.  0.
         12    1    1    2    0    0 -0.82242533010E+01  0.26377250887E+02 -0.29828933755E+02  0.40659107168E+02  0.00000000000E+00 0. -1.
         11    1    3    3    0    0  0.72186472823E+00 -0.28190509569E+01 -0.33308283642E+01  0.44229577023E+01  0.51100000000E-03 0. -1.
        -11    1    3    3    0    0  0.11761590769E+02 -0.17231136053E+02  0.13073597955E+02  0.24620439290E+02  0.51100000000E-03 0.  1.
        -12    1    3    3    0    0 -0.42592021958E+01 -0.63270638774E+01  0.20086164164E+02  0.21485495840E+02  0.00000000000E+00 0.  1.
</event>
<event>
 7    1  0.3141443E-011  0.5052886E+02  0.7816164E-02  0.1300439E+00
        -11   -1    0    0    0    0  0.00000000000E+00  0.00000000000E+00  0.45593999997E+02  0.45594000000E+02  0.51100000000E-03 0.  1.
         11   -1    0    0    0    0 -0.00000000000E+00 -0.00000000000E+00 -0.45593999997E+02  0.45594000000E+02  0.51100000000E-03 0. -1.
    9900012    2    1    2    0    0  0.14518091040E+02 -0.38747849328E+01  0.37780645040E+02  0.50528855083E+02  0.29999985510E+02 0.  0.
         12    1    1    2    0    0 -0.14518091040E+02  0.38747849328E+01 -0.37780645040E+02  0.40659144917E+02  0.00000000000E+00 0. -1.
         11    1    3    3    0    0  0.10849179881E+02  0.71930066584E+00  0.11291687332E+02  0.15675595702E+02  0.51100000000E-03 0. -1.
        -11    1    3    3    0    0  0.37274789921E+01 -0.12583517787E+02  0.22189877197E+02  0.25780412522E+02  0.51100000000E-03 0.  1.
        -12    1    3    3    0    0 -0.58567833268E-01  0.79894321884E+01  0.42990805123E+01  0.90728468594E+01  0.00000000000E+00 0.  1.
</event>
<event>
 7    1  0.3141443E-011  0.5052885E+02  0.7816164E-02  0.1300439E+00
        -11   -1    0    0    0    0  0.00000000000E+00  0.00000000000E+00  0.45593999997E+02  0.45594000000E+02  0.51100000000E-03 0.  1.
         11   -1    0    0    0    0 -0.00000000000E+00 -0.00000000000E+00 -0.45593999997E+02  0.45594000000E+02  0.51100000000E-03 0. -1.
    9900012    2    1    2    0    0 -0.13318929630E+02 -0.26223991176E+02  0.28072672953E+02  0.50528848921E+02  0.29999966781E+02 0.  0.
         12    1    1    2    0    0  0.13318929630E+02  0.26223991176E+02 -0.28072672953E+02  0.40659151079E+02  0.00000000000E+00 0. -1.
         11    1    3    3    0    0 -0.93721986212E+01  0.10413124909E+01  0.86767579990E+01  0.12814389113E+02  0.51100000000E-03 0. -1.
        -11    1    3    3    0    0  0.30493698692E+01  0.99472923763E+00  0.15011881258E+01  0.35414275237E+01  0.51100000000E-03 0.  1.
         12    1    3    3    0    0 -0.69961008779E+01 -0.28260032905E+02  0.17894726828E+02  0.34173032285E+02  0.00000000000E+00 0. -1.
</event>
<event>
 7    1  0.3141443E-011  0.5052887E+02  0.7816164E-02  0.1300439E+00
        -11   -1    0    0    0    0  0.00000000000E+00  0.00000000000E+00  0.45593999997E+02  0.45594000000E+02  0.51100000000E-03 0. -1.
         11   -1    0    0    0    0 -0.00000000000E+00 -0.00000000000E+00 -0.45593999997E+02  0.45594000000E+02  0.51100000000E-03 0.  1.
    9900012    2    1    2    0    0 -0.37762822747E+02 -0.13387889675E+02 -0.69208958227E+01  0.50528866084E+02  0.30000018949E+02 0.  0.
         12    1    1    2    0    0  0.37762822747E+02  0.13387889675E+02  0.69208958227E+01  0.40659133916E+02  0.00000000000E+00 0. -1.
         11    1    3    3    0    0 -0.19889180511E+02  0.10833929755E+01  0.23764848790E+01  0.20059933260E+02  0.51100000000E-03 0. -1.
        -11    1    3    3    0    0 -0.16496650158E+02 -0.70378935242E+01 -0.12901959921E+02  0.22093709099E+02  0.51100000000E-03 0.  1.
        -12    1    3    3    0    0 -0.13769920780E+01 -0.74333891267E+01  0.36045792195E+01  0.83752237249E+01  0.00000000000E+00 0.  1.
</event>
<event>
 7    1  0.3141443E-011  0.5052886E+02  0.7816164E-02  0.1300439E+00
        -11   -1    0    0    0    0  0.00000000000E+00  0.00000000000E+00  0.45593999997E+02  0.45594000000E+02  0.51100000000E-03 0. -1.
         11   -1    0    0    0    0 -0.00000000000E+00 -0.00000000000E+00 -0.45593999997E+02  0.45594000000E+02  0.51100000000E-03 0.  1.
    9900012    2    1    2    0    0 -0.20753328320E+02  0.34925478143E+02  0.16358576984E+01  0.50528859696E+02  0.29999999532E+02 0.  0.
         12    1    1    2    0    0  0.20753328320E+02 -0.34925478143E+02 -0.16358576984E+01  0.40659140304E+02  0.00000000000E+00 0. -1.
         11    1    3    3    0    0 -0.31586997363E+01 -0.14735111446E-01  0.50766000120E+01  0.59790859745E+01  0.51100000000E-03 0. -1.
        -11    1    3    3    0    0 -0.83639870711E+01  0.11786907737E+02 -0.11374558231E+02  0.18392064836E+02  0.51100000000E-03 0.  1.
         12    1    3    3    0    0 -0.92306415126E+01  0.23153305517E+02  0.79338159174E+01  0.26157708885E+02  0.00000000000E+00 0. -1.
</event>
<event>
 7    1  0.3141443E-011  0.5052886E+02  0.7816164E-02  0.1300439E+00
        -11   -1    0    0    0    0  0.00000000000E+00  0.00000000000E+00  0.45593999997E+02  0.45594000000E+02  0.51100000000E-03 0.  1.
         11   -1    0    0    0    0 -0.00000000000E+00 -0.00000000000E+00 -0.45593999997E+02  0.45594000000E+02  0.51100000000E-03 0. -1.
    9900012    2    1    2    0    0 -0.12027851222E+02 -0.38837853323E+02 -0.34252893647E+00  0.50528863489E+02  0.30000011062E+02 0.  0.
         12    1    1    2    0    0  0.12027851222E+02  0.38837853323E+02  0.34252893647E+00  0.40659136511E+02  0.00000000000E+00 0. -1.
         11    1    3    3    0    0  0.38740587269E+01 -0.22189232532E+01  0.27048880931E+01  0.52199972490E+01  0.51100000000E-03 0. -1.
        -11    1    3    3    0    0 -0.24864844985E+01  0.24326935219E+01  0.14586645699E+01  0.37720426192E+01  0.51100000000E-03 0.  1.
        -12    1    3    3    0    0 -0.13415425450E+02 -0.39051623592E+02 -0.45060815995E+01  0.41536823621E+02  0.00000000000E+00 0.  1.
</event>
<event>
 7    1  0.3141443E-011  0.5052886E+02  0.7816164E-02  0.1300439E+00
        -11   -1    0    0    0    0  0.00000000000E+00  0.00000000000E+00  0.45593999997E+02  0.45594000000E+02  0.51100000000E-03 0.  1.
         11   -1    0    0    0    0 -0.00000000000E+00 -0.00000000000E+00 -0.45593999997E+02  0.45594000000E+02  0.51100000000E-03 0. -1.
    9900012    2    1    2    0    0 -0.35315234804E+01 -0.12140399690E+02  0.38643297501E+02  0.50528863210E+02  0.30000010214E+02 0.  0.
         12    1    1    2    0    0  0.35315234804E+01  0.12140399690E+02 -0.38643297501E+02  0.40659136790E+02  0.00000000000E+00 0. -1.
         11    1    3    3    0    0 -0.21017752194E+01  0.63285830555E+01  0.24067628217E+01  0.70894943476E+01  0.51100000000E-03 0. -1.
        -11    1    3    3    0    0  0.32385544270E+01 -0.24829276136E+01  0.62798734106E+00  0.41288657852E+01  0.51100000000E-03 0.  1.
        -12    1    3    3    0    0 -0.46683026880E+01 -0.15986055132E+02  0.35608547338E+02  0.39310503078E+02  0.00000000000E+00 0.  1.
</event>
<event>
 7    1  0.3141443E-011  0.5052886E+02  0.7816164E-02  0.1300439E+00
        -11   -1    0    0    0    0  0.00000000000E+00  0.00000000000E+00  0.45593999997E+02  0.45594000000E+02  0.51100000000E-03 0.  1.
         11   -1    0    0    0    0 -0.00000000000E+00 -0.00000000000E+00 -0.45593999997E+02  0.45594000000E+02  0.51100000000E-03 0. -1.
    9900012    2    1    2    0    0 -0.13658436666E+02 -0.11276182234E+02  0.36598639708E+02  0.50528860727E+02  0.30000002666E+02 0.  0.
         12    1    1    2    0    0  0.13658436666E+02  0.11276182234E+02 -0.36598639708E+02  0.40659139273E+02  0.00000000000E+00 0. -1.
         11    1    3    3    0    0 -0.42721740050E+01 -0.91410570769E+01  0.20940612802E+02  0.23244777047E+02  0.51100000000E-03 0. -1.
        -11    1    3    3    0    0 -0.87466167051E+01 -0.91101493645E+01  0.15863469013E+02  0.20276779198E+02  0.51100000000E-03 0.  1.
         12    1    3    3    0    0 -0.63964595591E+00  0.69750242079E+01 -0.20544210683E+00  0.70073044823E+01  0.00000000000E+00 0. -1.
</event>
<event>
 7    1  0.3141443E-011  0.5052885E+02  0.7816164E-02  0.1300439E+00
        -11   -1    0    0    0    0  0.00000000000E+00  0.00000000000E+00  0.45593999997E+02  0.45594000000E+02  0.51100000000E-03 0.  1.
         11   -1    0    0    0    0 -0.00000000000E+00 -0.00000000000E+00 -0.45593999997E+02  0.45594000000E+02  0.51100000000E-03 0. -1.
    9900012    2    1    2    0    0  0.32295441234E+02  0.24313498696E+02  0.43616920242E+01  0.50528854649E+02  0.29999984192E+02 0.  0.
         12    1    1    2    0    0 -0.32295441234E+02 -0.24313498696E+02 -0.43616920242E+01  0.40659145351E+02  0.00000000000E+00 0. -1.
         11    1    3    3    0    0  0.15594793750E+01  0.41125385912E+01 -0.58528435169E+01  0.73212517427E+01  0.51100000000E-03 0. -1.
        -11    1    3    3    0    0  0.69799888627E+01  0.12092383279E+02  0.11477338081E+02  0.18074160218E+02  0.51100000000E-03 0.  1.
         12    1    3    3    0    0  0.23755972996E+02  0.81085768256E+01 -0.12628025400E+01  0.25133442689E+02  0.00000000000E+00 0. -1.
</event>
<event>
 7    1  0.3141443E-011  0.5052886E+02  0.7816164E-02  0.1300439E+00
        -11   -1    0    0    0    0  0.00000000000E+00  0.00000000000E+00  0.45593999997E+02  0.45594000000E+02  0.51100000000E-03 0. -1.
         11   -1    0    0    0    0 -0.00000000000E+00 -0.00000000000E+00 -0.45593999997E+02  0.45594000000E+02  0.51100000000E-03 0.  1.
    9900012    2    1    2    0    0  0.54593854170E+01  0.28697669510E+02 -0.28280817216E+02  0.50528859000E+02  0.29999997415E+02 0.  0.
         12    1    1    2    0    0 -0.54593854170E+01 -0.28697669510E+02  0.28280817216E+02  0.40659141000E+02  0.00000000000E+00 0. -1.
         11    1    3    3    0    0 -0.10369077206E+01  0.13534358313E+02 -0.25856417176E+02  0.29202882426E+02  0.51100000000E-03 0. -1.
        -11    1    3    3    0    0  0.36000673575E+01  0.12918756175E+02 -0.72670082240E+01  0.15253332583E+02  0.51100000000E-03 0.  1.
         12    1    3    3    0    0  0.28962257801E+01  0.22445550218E+01  0.48426081836E+01  0.60726439905E+01  0.00000000000E+00 0. -1.
</event>
<event>
 7    1  0.3141443E-011  0.5052886E+02  0.7816164E-02  0.1300439E+00
        -11   -1    0    0    0    0  0.00000000000E+00  0.00000000000E+00  0.45593999997E+02  0.45594000000E+02  0.51100000000E-03 0.  1.
         11   -1    0    0    0    0 -0.00000000000E+00 -0.00000000000E+00 -0.45593999997E+02  0.45594000000E+02  0.51100000000E-03 0. -1.
    9900012    2    1    2    0    0  0.29774439031E+02  0.27653155485E+02 -0.13968707261E+01  0.50528862334E+02  0.30000007550E+02 0.  0.
         12    1    1    2    0    0 -0.29774439031E+02 -0.27653155485E+02  0.13968707261E+01  0.40659137666E+02  0.00000000000E+00 0. -1.
         11    1    3    3    0    0 -0.39093202064E+01  0.35545302168E+01 -0.54294801647E+01  0.75760626092E+01  0.51100000000E-03 0. -1.
        -11    1    3    3    0    0  0.85993846352E+01  0.11496888792E+02  0.39123756545E+01  0.14880677119E+02  0.51100000000E-03 0.  1.
        -12    1    3    3    0    0  0.25084374603E+02  0.12601736476E+02  0.12023378415E+00  0.28072122606E+02  0.00000000000E+00 0.  1.
</event>
<event>
 7    1  0.3141443E-011  0.5052886E+02  0.7816164E-02  0.1300439E+00
        -11   -1    0    0    0    0  0.00000000000E+00  0.00000000000E+00  0.45593999997E+02  0.45594000000E+02  0.51100000000E-03 0.  1.
         11   -1    0    0    0    0 -0.00000000000E+00 -0.00000000000E+00 -0.45593999997E+02  0.45594000000E+02  0.51100000000E-03 0. -1.
    9900012    2    1    2    0    0 -0.33848200106E+02  0.11137632774E+02  0.19581063285E+02  0.50528861377E+02  0.30000004641E+02 0.  0.
         12    1    1    2    0    0  0.33848200106E+02 -0.11137632774E+02 -0.19581063285E+02  0.40659138623E+02  0.00000000000E+00 0. -1.
         11    1    3    3    0    0 -0.19549940250E+02  0.26757781823E+01  0.69309813891E+01  0.20914073155E+02  0.51100000000E-03 0. -1.
        -11    1    3    3    0    0 -0.65416405509E+01  0.90038549251E+01  0.17288388246E+02  0.20560905452E+02  0.51100000000E-03 0.  1.
         12    1    3    3    0    0 -0.77566193049E+01 -0.54200033339E+00 -0.46383063500E+01  0.90538827692E+01  0.00000000000E+00 0. -1.
</event>
<event>
 7    1  0.3141443E-011  0.5052886E+02  0.7816164E-02  0.1300439E+00
        -11   -1    0    0    0    0  0.00000000000E+00  0.00000000000E+00  0.45593999997E+02  0.45594000000E+02  0.51100000000E-03 0. -1.
         11   -1    0    0    0    0 -0.00000000000E+00 -0.00000000000E+00 -0.45593999997E+02  0.45594000000E+02  0.51100000000E-03 0.  1.
    9900012    2    1    2    0    0 -0.80573632719E+01 -0.10731681511E+02 -0.38380667078E+02  0.50528859621E+02  0.29999999305E+02 0.  0.
         12    1    1    2    0    0  0.80573632719E+01  0.10731681511E+02  0.38380667078E+02  0.40659140379E+02  0.00000000000E+00 0. -1.
         11    1    3    3    0    0 -0.52523332188E+01 -0.95502388195E+01 -0.82139581602E+01  0.13647826738E+02  0.51100000000E-03 0. -1.
        -11    1    3    3    0    0  0.74852617879E+01 -0.60841857507E+01 -0.11506723243E+02  0.15015030480E+02  0.51100000000E-03 0.  1.
         12    1    3    3    0    0 -0.10290291841E+02  0.49027430592E+01 -0.18659985676E+02  0.21866002403E+02  0.00000000000E+00 0. -1.
</event>
<event>
 7    1  0.3141443E-011  0.5052887E+02  0.7816164E-02  0.1300439E+00
        -11   -1    0    0    0    0  0.00000000000E+00  0.00000000000E+00  0.45593999997E+02  0.45594000000E+02  0.51100000000E-03 0. -1.
         11   -1    0    0    0    0 -0.00000000000E+00 -0.00000000000E+00 -0.45593999997E+02  0.45594000000E+02  0.51100000000E-03 0.  1.
    9900012    2    1    2    0    0  0.38734194829E+02  0.78255559752E+01  0.95701515936E+01  0.50528868468E+02  0.30000026196E+02 0.  0.
         12    1    1    2    0    0 -0.38734194829E+02 -0.78255559752E+01 -0.95701515936E+01  0.40659131532E+02  0.00000000000E+00 0. -1.
         11    1    3    3    0    0  0.14577095379E+02  0.50951848260E+01  0.40027035456E+01  0.15952249184E+02  0.51100000000E-03 0. -1.
        -11    1    3    3    0    0  0.77708194539E+01  0.28886142918E+01  0.13906247334E+02  0.16189917934E+02  0.51100000000E-03 0.  1.
        -12    1    3    3    0    0  0.16386279996E+02 -0.15824314262E+00 -0.83387992865E+01  0.18386701350E+02  0.00000000000E+00 0.  1.
</event>
<event>
 7    1  0.3141443E-011  0.5052880E+02  0.7816164E-02  0.1300439E+00
        -11   -1    0    0    0    0  0.00000000000E+00  0.00000000000E+00  0.45593999997E+02  0.45594000000E+02  0.51100000000E-03 0.  1.
         11   -1    0    0    0    0 -0.00000000000E+00 -0.00000000000E+00 -0.45593999997E+02  0.45594000000E+02  0.51100000000E-03 0. -1.
    9900012    2    1    2    0    0  0.14860123902E+02 -0.16532250517E+01  0.37810243007E+02  0.50528795486E+02  0.29999804358E+02 0.  0.
         12    1    1    2    0    0 -0.14860123902E+02  0.16532250517E+01 -0.37810243007E+02  0.40659204514E+02  0.00000000000E+00 0. -1.
         11    1    3    3    0    0  0.32969786188E+01  0.84421104627E+01  0.34949371184E+01  0.97135926824E+01  0.51100000000E-03 0. -1.
        -11    1    3    3    0    0  0.83278251022E+01  0.25597008635E+01  0.17243853344E+02  0.19319814126E+02  0.51100000000E-03 0.  1.
         12    1    3    3    0    0  0.32353201808E+01 -0.12655036378E+02  0.17071452545E+02  0.21495388677E+02  0.00000000000E+00 0. -1.
</event>
<event>
 7    1  0.3302563E-011  0.5052894E+02  0.7816164E-02  0.1300439E+00
        -11   -1    0    0    0    0  0.00000000000E+00  0.00000000000E+00  0.45593999997E+02  0.45594000000E+02  0.51100000000E-03 0. -1.
         11   -1    0    0    0    0 -0.00000000000E+00 -0.00000000000E+00 -0.45593999997E+02  0.45594000000E+02  0.51100000000E-03 0.  1.
    9900012    2    1    2    0    0  0.96160244940E+01 -0.29178503926E+02 -0.26632799419E+02  0.50528941682E+02  0.30000248734E+02 0.  0.
         12    1    1    2    0    0 -0.96160244940E+01  0.29178503926E+02  0.26632799419E+02  0.40659058318E+02  0.00000000000E+00 0. -1.
         11    1    3    3    0    0  0.18229070700E+01  0.12135501750E+01 -0.13481561708E+02  0.13658264918E+02  0.51100000000E-03 0. -1.
        -11    1    3    3    0    0  0.71995346586E+01 -0.16254662215E+02 -0.14097949548E+02  0.22689194009E+02  0.51100000000E-03 0.  1.
        -12    1    3    3    0    0  0.59358276540E+00 -0.14137391886E+02  0.94671183706E+00  0.14181482755E+02  0.00000000000E+00 0.  1.
</event>
<event>
 7    1  0.3796654E-011  0.5052886E+02  0.7816164E-02  0.1300439E+00
        -11   -1    0    0    0    0  0.00000000000E+00  0.00000000000E+00  0.45593999997E+02  0.45594000000E+02  0.51100000000E-03 0.  1.
         11   -1    0    0    0    0 -0.00000000000E+00 -0.00000000000E+00 -0.45593999997E+02  0.45594000000E+02  0.51100000000E-03 0. -1.
    9900012    2    1    2    0    0 -0.30016201908E+02  0.26569026567E+02 -0.68029613380E+01  0.50528857945E+02  0.29999994209E+02 0.  0.
         12    1    1    2    0    0  0.30016201908E+02 -0.26569026567E+02  0.68029613380E+01  0.40659142055E+02  0.00000000000E+00 0. -1.
         11    1    3    3    0    0  0.13689982656E+00 -0.37681831988E+01 -0.38997732761E+01  0.54245901273E+01  0.51100000000E-03 0. -1.
        -11    1    3    3    0    0 -0.94342136261E+01  0.57891161027E+01  0.48093286147E+01  0.12068466927E+02  0.51100000000E-03 0.  1.
        -12    1    3    3    0    0 -0.20718888108E+02  0.24548093663E+02 -0.77125166765E+01  0.33035800890E+02  0.00000000000E+00 0.  1.
</event>
<event>
 7    1  0.3141443E-011  0.5052885E+02  0.7816164E-02  0.1300439E+00
        -11   -1    0    0    0    0  0.00000000000E+00  0.00000000000E+00  0.45593999997E+02  0.45594000000E+02  0.51100000000E-03 0. -1.
         11   -1    0    0    0    0 -0.00000000000E+00 -0.00000000000E+00 -0.45593999997E+02  0.45594000000E+02  0.51100000000E-03 0.  1.
    9900012    2    1    2    0    0  0.23176308171E+02  0.24099359397E+02  0.23135378172E+02  0.50528854572E+02  0.29999983956E+02 0.  0.
         12    1    1    2    0    0 -0.23176308171E+02 -0.24099359397E+02 -0.23135378172E+02  0.40659145428E+02  0.00000000000E+00 0. -1.
         11    1    3    3    0    0  0.65107618272E+00  0.53448455036E+01  0.16122632443E+02  0.16997957254E+02  0.51100000000E-03 0. -1.
        -11    1    3    3    0    0  0.60528919063E+01 -0.18376361097E+01  0.23714593659E+01  0.67556070553E+01  0.51100000000E-03 0.  1.
         12    1    3    3    0    0  0.16472340082E+02  0.20592150003E+02  0.46412863632E+01  0.26775290262E+02  0.00000000000E+00 0. -1.
</event>
<event>
 7    1  0.3141443E-011  0.5052886E+02  0.7816164E-02  0.1300439E+00
        -11   -1    0    0    0    0  0.00000000000E+00  0.00000000000E+00  0.45593999997E+02  0.45594000000E+02  0.51100000000E-03 0.  1.
         11   -1    0    0    0    0 -0.00000000000E+00 -0.00000000000E+00 -0.45593999997E+02  0.45594000000E+02  0.51100000000E-03 0. -1.
    9900012    2    1    2    0    0 -0.30065400787E+02  0.23085628307E+02  0.14706842790E+02  0.50528858547E+02  0.29999996040E+02 0.  0.
         12    1    1    2    0    0  0.30065400787E+02 -0.23085628307E+02 -0.14706842790E+02  0.40659141453E+02  0.00000000000E+00 0. -1.
         11    1    3    3    0    0 -0.31689036049E+01 -0.11472662606E+01  0.36195401757E+01  0.49456285015E+01  0.51100000000E-03 0. -1.
        -11    1    3    3    0    0 -0.34986632181E+01  0.16248157013E+02  0.12535901476E+02  0.20818070917E+02  0.51100000000E-03 0.  1.
        -12    1    3    3    0    0 -0.23397833964E+02  0.79847375554E+01 -0.14485988608E+01  0.24765159129E+02  0.00000000000E+00 0.  1.
</event>
<event>
 7    1  0.3141443E-011  0.5052887E+02  0.7816164E-02  0.1300439E+00
        -11   -1    0    0    0    0  0.00000000000E+00  0.00000000000E+00  0.45593999997E+02  0.45594000000E+02  0.51100000000E-03 0.  1.
         11   -1    0    0    0    0 -0.00000000000E+00 -0.00000000000E+00 -0.45593999997E+02  0.45594000000E+02  0.51100000000E-03 0. -1.
    9900012    2    1    2    0    0  0.14406135182E+02  0.17466721932E+02  0.33771908261E+02  0.50528869494E+02  0.30000029314E+02 0.  0.
         12    1    1    2    0    0 -0.14406135182E+02 -0.17466721932E+02 -0.33771908261E+02  0.40659130506E+02  0.00000000000E+00 0. -1.
         11    1    3    3    0    0 -0.37147762638E+01  0.14534286818E+01  0.10583683071E+02  0.11310453803E+02  0.51100000000E-03 0. -1.
        -11    1    3    3    0    0  0.10735810576E+02 -0.28801434630E+01  0.60075368373E+01  0.12635005113E+02  0.51100000000E-03 0.  1.
        -12    1    3    3    0    0  0.73851008699E+01  0.18893436713E+02  0.17180688353E+02  0.26583410578E+02  0.00000000000E+00 0.  1.
</event>
<event>
 7    1  0.3141443E-011  0.5052883E+02  0.7816164E-02  0.1300439E+00
        -11   -1    0    0    0    0  0.00000000000E+00  0.00000000000E+00  0.45593999997E+02  0.45594000000E+02  0.51100000000E-03 0.  1.
         11   -1    0    0    0    0 -0.00000000000E+00 -0.00000000000E+00 -0.45593999997E+02  0.45594000000E+02  0.51100000000E-03 0. -1.
    9900012    2    1    2    0    0 -0.40577371611E+02  0.25693782034E+01  0.20800460673E+00  0.50528830590E+02  0.29999911062E+02 0.  0.
         12    1    1    2    0    0  0.40577371611E+02 -0.25693782034E+01 -0.20800460673E+00  0.40659169410E+02  0.00000000000E+00 0. -1.
         11    1    3    3    0    0 -0.41482773325E+01 -0.50113040942E+01  0.26805615179E+01  0.70361057314E+01  0.51100000000E-03 0. -1.
        -11    1    3    3    0    0 -0.34462142675E+02 -0.11397500664E+01 -0.21275612043E+01  0.34546560247E+02  0.51100000000E-03 0.  1.
         12    1    3    3    0    0 -0.19669516032E+01  0.87204323640E+01 -0.34499570685E+00  0.89461646118E+01  0.00000000000E+00 0. -1.
</event>
<event>
 7    1  0.3141443E-011  0.5052886E+02  0.7816164E-02  0.1300439E+00
        -11   -1    0    0    0    0  0.00000000000E+00  0.00000000000E+00  0.45593999997E+02  0.45594000000E+02  0.51100000000E-03 0. -1.
         11   -1    0    0    0    0 -0.00000000000E+00 -0.00000000000E+00 -0.45593999997E+02  0.45594000000E+02  0.51100000000E-03 0.  1.
    9900012    2    1    2    0    0  0.13648534193E+02 -0.36957421026E+02 -0.10051481922E+02  0.50528859043E+02  0.29999997548E+02 0.  0.
         12    1    1    2    0    0 -0.13648534193E+02  0.36957421026E+02  0.10051481922E+02  0.40659140957E+02  0.00000000000E+00 0. -1.
         11    1    3    3    0    0  0.10662146740E+02  0.16406257093E+00  0.16588091020E+01  0.10791660555E+02  0.51100000000E-03 0. -1.
        -11    1    3    3    0    0  0.19408166187E+00 -0.25280730411E+02 -0.47581986303E+01  0.25725346495E+02  0.51100000000E-03 0.  1.
        -12    1    3    3    0    0  0.27923057910E+01 -0.11840753186E+02 -0.69520923940E+01  0.14011851994E+02  0.00000000000E+00 0.  1.
</event>
<event>
 7    1  0.3141443E-011  0.5052886E+02  0.7816164E-02  0.1300439E+00
        -11   -1    0    0    0    0  0.00000000000E+00  0.00000000000E+00  0.45593999997E+02  0.45594000000E+02  0.51100000000E-03 0.  1.
         11   -1    0    0    0    0 -0.00000000000E+00 -0.00000000000E+00 -0.45593999997E+02  0.45594000000E+02  0.51100000000E-03 0. -1.
    9900012    2    1    2    0    0 -0.28069520789E+02  0.43926250767E+01  0.29085611933E+02  0.50528856208E+02  0.29999988930E+02 0.  0.
         12    1    1    2    0    0  0.28069520789E+02 -0.43926250767E+01 -0.29085611933E+02  0.40659143792E+02  0.00000000000E+00 0. -1.
         11    1    3    3    0    0 -0.28104431179E+01  0.16693080767E+01 -0.32510044394E+01  0.46102288555E+01  0.51100000000E-03 0. -1.
        -11    1    3    3    0    0  0.21709704738E+01 -0.29479304091E+00  0.10506224188E+02  0.10732230089E+02  0.51100000000E-03 0.  1.
        -12    1    3    3    0    0 -0.27430048145E+02  0.30181100409E+01  0.21830392184E+02  0.35186397263E+02  0.00000000000E+00 0.  1.
</event>
<event>
 7    1  0.3141443E-011  0.5052886E+02  0.7816164E-02  0.1300439E+00
        -11   -1    0    0    0    0  0.00000000000E+00  0.00000000000E+00  0.45593999997E+02  0.45594000000E+02  0.51100000000E-03 0.  1.
         11   -1    0    0    0    0 -0.00000000000E+00 -0.00000000000E+00 -0.45593999997E+02  0.45594000000E+02  0.51100000000E-03 0. -1.
    9900012    2    1    2    0    0  0.11355404378E+02  0.14458037890E+02  0.36265493231E+02  0.50528855057E+02  0.29999985432E+02 0.  0.
         12    1    1    2    0    0 -0.11355404378E+02 -0.14458037890E+02 -0.36265493231E+02  0.40659144943E+02  0.00000000000E+00 0. -1.
         11    1    3    3    0    0 -0.10599204168E+01  0.97834974277E+01  0.27258249541E+01  0.10211286655E+02  0.51100000000E-03 0. -1.
        -11    1    3    3    0    0  0.10011190072E+02  0.10306379015E+02  0.29953208872E+02  0.33221079107E+02  0.51100000000E-03 0.  1.
         12    1    3    3    0    0  0.24041347230E+01 -0.56318385528E+01  0.35864594044E+01  0.70964892948E+01  0.00000000000E+00 0. -1.
</event>
<event>
 7    1  0.3141443E-011  0.5052886E+02  0.7816164E-02  0.1300439E+00
        -11   -1    0    0    0    0  0.00000000000E+00  0.00000000000E+00  0.45593999997E+02  0.45594000000E+02  0.51100000000E-03 0. -1.
         11   -1    0    0    0    0 -0.00000000000E+00 -0.00000000000E+00 -0.45593999997E+02  0.45594000000E+02  0.51100000000E-03 0.  1.
    9900012    2    1    2    0    0 -0.20347433098E+02 -0.52744238939E+01 -0.34804136826E+02  0.50528861774E+02  0.30000005848E+02 0.  0.
         12    1    1    2    0    0  0.20347433098E+02  0.52744238939E+01  0.34804136826E+02  0.40659138226E+02  0.00000000000E+00 0. -1.
         11    1    3    3    0    0  0.45916554697E+01 -0.11634186161E+01 -0.29184990071E+01  0.55636750035E+01  0.51100000000E-03 0. -1.
        -11    1    3    3    0    0 -0.12047433095E+02  0.55860292514E+01 -0.62509237100E+01  0.14677139178E+02  0.51100000000E-03 0.  1.
        -12    1    3    3    0    0 -0.12891655473E+02 -0.96970345291E+01 -0.25634714109E+02  0.30288047592E+02  0.00000000000E+00 0.  1.
</event>
<event>
 7    1  0.3141443E-011  0.5052882E+02  0.7816164E-02  0.1300439E+00
        -11   -1    0    0    0    0  0.00000000000E+00  0.00000000000E+00  0.45593999997E+02  0.45594000000E+02  0.51100000000E-03 0. -1.
         11   -1    0    0    0    0 -0.00000000000E+00 -0.00000000000E+00 -0.45593999997E+02  0.45594000000E+02  0.51100000000E-03 0.  1.
    9900012    2    1    2    0    0 -0.22527287884E+02  0.32077283679E+02 -0.10804538607E+02  0.50528820444E+02  0.29999880222E+02 0.  0.
         12    1    1    2    0    0  0.22527287884E+02 -0.32077283679E+02  0.10804538607E+02  0.40659179556E+02  0.00000000000E+00 0. -1.
         11    1    3    3    0    0 -0.27870884180E+01  0.30118297821E+01  0.55909325372E+01  0.69352366493E+01  0.51100000000E-03 0. -1.
        -11    1    3    3    0    0 -0.22138792949E+01 -0.21002761112E+01 -0.53700347470E+01  0.61765439139E+01  0.51100000000E-03 0.  1.
         12    1    3    3    0    0 -0.17526320171E+02  0.31165730009E+02 -0.11025436397E+02  0.37417039881E+02  0.00000000000E+00 0. -1.
</event>
<event>
 7    1  0.3141443E-011  0.5052886E+02  0.7816164E-02  0.1300439E+00
        -11   -1    0    0    0    0  0.00000000000E+00  0.00000000000E+00  0.45593999997E+02  0.45594000000E+02  0.51100000000E-03 0. -1.
         11   -1    0    0    0    0 -0.00000000000E+00 -0.00000000000E+00 -0.45593999997E+02  0.45594000000E+02  0.51100000000E-03 0.  1.
    9900012    2    1    2    0    0  0.40080799638E+02 -0.54759371342E+01 -0.40876963240E+01  0.50528860212E+02  0.30000001099E+02 0.  0.
         12    1    1    2    0    0 -0.40080799638E+02  0.54759371342E+01  0.40876963240E+01  0.40659139788E+02  0.00000000000E+00 0. -1.
         11    1    3    3    0    0  0.15357118718E+02 -0.10389386702E+02  0.12435516487E+01  0.18582972645E+02  0.51100000000E-03 0. -1.
        -11    1    3    3    0    0  0.19271361650E+02 -0.38734872224E+01 -0.80690828946E+01  0.21248514822E+02  0.51100000000E-03 0.  1.
        -12    1    3    3    0    0  0.54523192692E+01  0.87869367903E+01  0.27378349220E+01  0.10697372744E+02  0.00000000000E+00 0.  1.
</event>
<event>
 7    1  0.3141443E-011  0.5052886E+02  0.7816164E-02  0.1300439E+00
        -11   -1    0    0    0    0  0.00000000000E+00  0.00000000000E+00  0.45593999997E+02  0.45594000000E+02  0.51100000000E-03 0.  1.
         11   -1    0    0    0    0 -0.00000000000E+00 -0.00000000000E+00 -0.45593999997E+02  0.45594000000E+02  0.51100000000E-03 0. -1.
    9900012    2    1    2    0    0 -0.22004693653E+02 -0.20589223195E+02  0.27295474533E+02  0.50528860997E+02  0.30000003485E+02 0.  0.
         12    1    1    2    0    0  0.22004693653E+02  0.20589223195E+02 -0.27295474533E+02  0.40659139003E+02  0.00000000000E+00 0. -1.
         11    1    3    3    0    0 -0.17574491645E+02 -0.98724365797E+00  0.77160919375E+01  0.19219143625E+02  0.51100000000E-03 0. -1.
        -11    1    3    3    0    0 -0.88509603907E+01 -0.10364397402E+02  0.14422849388E+02  0.19843860967E+02  0.51100000000E-03 0.  1.
        -12    1    3    3    0    0  0.44207583829E+01 -0.92375821343E+01  0.51565332069E+01  0.11465856404E+02  0.00000000000E+00 0.  1.
</event>
<event>
 7    1  0.3141443E-011  0.5052886E+02  0.7816164E-02  0.1300439E+00
        -11   -1    0    0    0    0  0.00000000000E+00  0.00000000000E+00  0.45593999997E+02  0.45594000000E+02  0.51100000000E-03 0.  1.
         11   -1    0    0    0    0 -0.00000000000E+00 -0.00000000000E+00 -0.45593999997E+02  0.45594000000E+02  0.51100000000E-03 0. -1.
    9900012    2    1    2    0    0 -0.13435953114E+02 -0.12300920523E+02  0.36350078121E+02  0.50528860053E+02  0.30000000617E+02 0.  0.
         12    1    1    2    0    0  0.13435953114E+02  0.12300920523E+02 -0.36350078121E+02  0.40659139947E+02  0.00000000000E+00 0. -1.
         11    1    3    3    0    0  0.84018013305E+00  0.44204068613E+00 -0.81122559957E+00  0.12487553238E+01  0.51100000000E-03 0. -1.
        -11    1    3    3    0    0  0.20031991464E+01 -0.77926745138E+01  0.29575423340E+02  0.30650354792E+02  0.51100000000E-03 0.  1.
         12    1    3    3    0    0 -0.16279332394E+02 -0.49502866957E+01  0.75858803814E+01  0.18629749937E+02  0.00000000000E+00 0. -1.
</event>
<event>
 7    1  0.3141443E-011  0.5052886E+02  0.7816164E-02  0.1300439E+00
        -11   -1    0    0    0    0  0.00000000000E+00  0.00000000000E+00  0.45593999997E+02  0.45594000000E+02  0.51100000000E-03 0.  1.
         11   -1    0    0    0    0 -0.00000000000E+00 -0.00000000000E+00 -0.45593999997E+02  0.45594000000E+02  0.51100000000E-03 0. -1.
    9900012    2    1    2    0    0  0.21177314944E+02 -0.27848527794E+02  0.20715853350E+02  0.50528858979E+02  0.29999997353E+02 0.  0.
         12    1    1    2    0    0 -0.21177314944E+02  0.27848527794E+02 -0.20715853350E+02  0.40659141021E+02  0.00000000000E+00 0. -1.
         11    1    3    3    0    0 -0.29777415386E+00 -0.23719881829E+01 -0.37770064094E+01  0.44699860251E+01  0.51100000000E-03 0. -1.
        -11    1    3    3    0    0  0.12357662707E+02 -0.26340302307E+02  0.14513449661E+02  0.32514051954E+02  0.51100000000E-03 0.  1.
         12    1    3    3    0    0  0.91174263910E+01  0.86376269592E+00  0.99794100991E+01  0.13544821000E+02  0.00000000000E+00 0. -1.
</event>
<event>
 7    1  0.3141443E-011  0.5052886E+02  0.7816164E-02  0.1300439E+00
        -11   -1    0    0    0    0  0.00000000000E+00  0.00000000000E+00  0.45593999997E+02  0.45594000000E+02  0.51100000000E-03 0.  1.
         11   -1    0    0    0    0 -0.00000000000E+00 -0.00000000000E+00 -0.45593999997E+02  0.45594000000E+02  0.51100000000E-03 0. -1.
    9900012    2    1    2    0    0 -0.23010284429E+02  0.19700362561E+01  0.33463579501E+02  0.50528863445E+02  0.30000010928E+02 0.  0.
         12    1    1    2    0    0  0.23010284429E+02 -0.19700362561E+01 -0.33463579501E+02  0.40659136555E+02  0.00000000000E+00 0. -1.
         11    1    3    3    0    0  0.18893977638E+01 -0.11105576669E+01  0.22271970050E+02  0.22379540040E+02  0.51100000000E-03 0.  1.
        -11    1    3    3    0    0 -0.61073614285E+01  0.11209729287E+01  0.39751170556E-01  0.62095107973E+01  0.51100000000E-03 0. -1.
        -12    1    3    3    0    0 -0.18792320764E+02  0.19596209942E+01  0.11151858281E+02  0.21939812607E+02  0.00000000000E+00 0.  1.
</event>
<event>
 7    1  0.3141443E-011  0.5052887E+02  0.7816164E-02  0.1300439E+00
        -11   -1    0    0    0    0  0.00000000000E+00  0.00000000000E+00  0.45593999997E+02  0.45594000000E+02  0.51100000000E-03 0.  1.
         11   -1    0    0    0    0 -0.00000000000E+00 -0.00000000000E+00 -0.45593999997E+02  0.45594000000E+02  0.51100000000E-03 0. -1.
    9900012    2    1    2    0    0  0.26559579411E+02  0.59653760979E+00  0.30779825663E+02  0.50528870847E+02  0.30000033427E+02 0.  0.
         12    1    1    2    0    0 -0.26559579411E+02 -0.59653760979E+00 -0.30779825663E+02  0.40659129153E+02  0.00000000000E+00 0. -1.
         11    1    3    3    0    0  0.27622167505E+02  0.22833609195E+01  0.14282411145E+02  0.31179883629E+02  0.51100000000E-03 0. -1.
        -11    1    3    3    0    0  0.26348460660E+01  0.30870938953E+01  0.61480766807E+01  0.73669131692E+01  0.51100000000E-03 0.  1.
         12    1    3    3    0    0 -0.36974341597E+01 -0.47739172050E+01  0.10349337837E+02  0.11982074049E+02  0.00000000000E+00 0. -1.
</event>
<event>
 7    1  0.3141443E-011  0.5052885E+02  0.7816164E-02  0.1300439E+00
        -11   -1    0    0    0    0  0.00000000000E+00  0.00000000000E+00  0.45593999997E+02  0.45594000000E+02  0.51100000000E-03 0.  1.
         11   -1    0    0    0    0 -0.00000000000E+00 -0.00000000000E+00 -0.45593999997E+02  0.45594000000E+02  0.51100000000E-03 0. -1.
    9900012    2    1    2    0    0  0.12766160733E+02 -0.23856001686E+02  0.30349345605E+02  0.50528850292E+02  0.29999970949E+02 0.  0.
         12    1    1    2    0    0 -0.12766160733E+02  0.23856001686E+02 -0.30349345605E+02  0.40659149708E+02  0.00000000000E+00 0. -1.
         11    1    3    3    0    0 -0.27691423417E+01  0.24031603605E+01 -0.63754453314E+00  0.37215309108E+01  0.51100000000E-03 0. -1.
        -11    1    3    3    0    0  0.33881527175E+01 -0.21397465611E+02  0.22370073883E+02  0.31140830420E+02  0.51100000000E-03 0.  1.
        -12    1    3    3    0    0  0.12147150357E+02 -0.48616964357E+01  0.86168162544E+01  0.15666488962E+02  0.00000000000E+00 0.  1.
</event>
<event>
 7    1  0.3141443E-011  0.5052886E+02  0.7816164E-02  0.1300439E+00
        -11   -1    0    0    0    0  0.00000000000E+00  0.00000000000E+00  0.45593999997E+02  0.45594000000E+02  0.51100000000E-03 0.  1.
         11   -1    0    0    0    0 -0.00000000000E+00 -0.00000000000E+00 -0.45593999997E+02  0.45594000000E+02  0.51100000000E-03 0. -1.
    9900012    2    1    2    0    0 -0.45728475322E+01 -0.28514626770E+02 -0.28621156529E+02  0.50528862338E+02  0.30000007561E+02 0.  0.
         12    1    1    2    0    0  0.45728475322E+01  0.28514626770E+02  0.28621156529E+02  0.40659137662E+02  0.00000000000E+00 0. -1.
         11    1    3    3    0    0 -0.76284154799E+01 -0.80452452214E+01 -0.17510855555E+02  0.20725558037E+02  0.51100000000E-03 0. -1.
        -11    1    3    3    0    0  0.86923285779E+01 -0.10205505071E+02 -0.12090655957E+02  0.18052503195E+02  0.51100000000E-03 0.  1.
         12    1    3    3    0    0 -0.56367606302E+01 -0.10263876477E+02  0.98035498273E+00  0.11750801106E+02  0.00000000000E+00 0. -1.
</event>
<event>
 7    1  0.3141443E-011  0.5052897E+02  0.7816164E-02  0.1300438E+00
        -11   -1    0    0    0    0  0.00000000000E+00  0.00000000000E+00  0.45593999997E+02  0.45594000000E+02  0.51100000000E-03 0.  1.
         11   -1    0    0    0    0 -0.00000000000E+00 -0.00000000000E+00 -0.45593999997E+02  0.45594000000E+02  0.51100000000E-03 0. -1.
    9900012    2    1    2    0    0 -0.16210724326E+02  0.36204434860E+02  0.89223488586E+01  0.50528966614E+02  0.30000324520E+02 0.  0.
         12    1    1    2    0    0  0.16210724326E+02 -0.36204434860E+02 -0.89223488586E+01  0.40659033386E+02  0.00000000000E+00 0. -1.
         11    1    3    3    0    0 -0.66229390949E+01  0.10712576776E+02  0.65394369181E+01  0.14191083782E+02  0.51100000000E-03 0. -1.
        -11    1    3    3    0    0 -0.75672822834E+01  0.25129426384E+02 -0.66509517268E+01  0.27073732485E+02  0.51100000000E-03 0.  1.
         12    1    3    3    0    0 -0.20205029481E+01  0.36243169957E+00  0.90338636673E+01  0.92641503474E+01  0.00000000000E+00 0. -1.
</event>
<event>
 7    1  0.3141443E-011  0.5052885E+02  0.7816164E-02  0.1300439E+00
        -11   -1    0    0    0    0  0.00000000000E+00  0.00000000000E+00  0.45593999997E+02  0.45594000000E+02  0.51100000000E-03 0.  1.
         11   -1    0    0    0    0 -0.00000000000E+00 -0.00000000000E+00 -0.45593999997E+02  0.45594000000E+02  0.51100000000E-03 0. -1.
    9900012    2    1    2    0    0 -0.17237266134E+01 -0.11671220282E+02  0.38909864705E+02  0.50528853579E+02  0.29999980940E+02 0.  0.
         12    1    1    2    0    0  0.17237266134E+01  0.11671220282E+02 -0.38909864705E+02  0.40659146421E+02  0.00000000000E+00 0. -1.
         11    1    3    3    0    0  0.41189979361E+01 -0.11441098168E+01  0.14779418193E+02  0.15385263523E+02  0.51100000000E-03 0. -1.
        -11    1    3    3    0    0  0.83240429579E+00 -0.16484573384E+02  0.17084114362E+02  0.23755020950E+02  0.51100000000E-03 0.  1.
         12    1    3    3    0    0 -0.66751288453E+01  0.59574629187E+01  0.70463321493E+01  0.11388569106E+02  0.00000000000E+00 0. -1.
</event>
<event>
 7    1  0.3141443E-011  0.5052891E+02  0.7816164E-02  0.1300439E+00
        -11   -1    0    0    0    0  0.00000000000E+00  0.00000000000E+00  0.45593999997E+02  0.45594000000E+02  0.51100000000E-03 0.  1.
         11   -1    0    0    0    0 -0.00000000000E+00 -0.00000000000E+00 -0.45593999997E+02  0.45594000000E+02  0.51100000000E-03 0. -1.
    9900012    2    1    2    0    0  0.56809597061E+01 -0.38185960844E+02  0.12756187580E+02  0.50528914542E+02  0.30000166241E+02 0.  0.
         12    1    1    2    0    0 -0.56809597061E+01  0.38185960844E+02 -0.12756187580E+02  0.40659085458E+02  0.00000000000E+00 0. -1.
         11    1    3    3    0    0  0.40308154441E+01 -0.64718101534E+01 -0.31065483104E+01  0.82330093205E+01  0.51100000000E-03 0. -1.
        -11    1    3    3    0    0  0.87311477632E+01 -0.11831756230E+02 -0.17478301038E+01  0.14808048727E+02  0.51100000000E-03 0.  1.
         12    1    3    3    0    0 -0.70810035012E+01 -0.19882394460E+02  0.17610565994E+02  0.27487856495E+02  0.00000000000E+00 0. -1.
</event>
<event>
 7    1  0.3141443E-011  0.5052886E+02  0.7816164E-02  0.1300439E+00
        -11   -1    0    0    0    0  0.00000000000E+00  0.00000000000E+00  0.45593999997E+02  0.45594000000E+02  0.51100000000E-03 0.  1.
         11   -1    0    0    0    0 -0.00000000000E+00 -0.00000000000E+00 -0.45593999997E+02  0.45594000000E+02  0.51100000000E-03 0. -1.
    9900012    2    1    2    0    0 -0.36149828491E+02 -0.57881252148E+01  0.17687649718E+02  0.50528862700E+02  0.30000008664E+02 0.  0.
         12    1    1    2    0    0  0.36149828491E+02  0.57881252148E+01 -0.17687649718E+02  0.40659137300E+02  0.00000000000E+00 0. -1.
         11    1    3    3    0    0 -0.11338340641E+00 -0.16419029667E+01 -0.61448612110E+01  0.63614480044E+01  0.51100000000E-03 0. -1.
        -11    1    3    3    0    0 -0.86651496533E+01 -0.14786104358E+00  0.19160624962E+01  0.88756958686E+01  0.51100000000E-03 0.  1.
         12    1    3    3    0    0 -0.27371295431E+02 -0.39983612046E+01  0.21916448433E+02  0.35291718827E+02  0.00000000000E+00 0. -1.
</event>
<event>
 7    1  0.3141443E-011  0.5052887E+02  0.7816164E-02  0.1300439E+00
        -11   -1    0    0    0    0  0.00000000000E+00  0.00000000000E+00  0.45593999997E+02  0.45594000000E+02  0.51100000000E-03 0. -1.
         11   -1    0    0    0    0 -0.00000000000E+00 -0.00000000000E+00 -0.45593999997E+02  0.45594000000E+02  0.51100000000E-03 0.  1.
    9900012    2    1    2    0    0  0.14092185019E+01 -0.40629185788E+02 -0.66971380040E+00  0.50528866326E+02  0.30000019684E+02 0.  0.
         12    1    1    2    0    0 -0.14092185019E+01  0.40629185788E+02  0.66971380040E+00  0.40659133674E+02  0.00000000000E+00 0. -1.
         11    1    3    3    0    0  0.27960223540E+00 -0.23401718576E+02  0.39809507822E+01  0.23739557264E+02  0.51100000000E-03 0. -1.
        -11    1    3    3    0    0  0.97945469444E+01 -0.13609519739E+02 -0.12939585047E+01  0.16817446484E+02  0.51100000000E-03 0.  1.
         12    1    3    3    0    0 -0.86649306779E+01 -0.36179474728E+01 -0.33567060779E+01  0.99718625774E+01  0.00000000000E+00 0. -1.
</event>
<event>
 7    1  0.3141443E-011  0.5052885E+02  0.7816164E-02  0.1300439E+00
        -11   -1    0    0    0    0  0.00000000000E+00  0.00000000000E+00  0.45593999997E+02  0.45594000000E+02  0.51100000000E-03 0. -1.
         11   -1    0    0    0    0 -0.00000000000E+00 -0.00000000000E+00 -0.45593999997E+02  0.45594000000E+02  0.51100000000E-03 0.  1.
    9900012    2    1    2    0    0 -0.21263628378E+02  0.21801960303E+02 -0.26938795901E+02  0.50528854787E+02  0.29999984610E+02 0.  0.
         12    1    1    2    0    0  0.21263628378E+02 -0.21801960303E+02  0.26938795901E+02  0.40659145213E+02  0.00000000000E+00 0. -1.
         11    1    3    3    0    0 -0.51201029931E+01  0.84540695956E+01 -0.48326281791E+01  0.11001865422E+02  0.51100000000E-03 0.  1.
        -11    1    3    3    0    0 -0.15520161281E+02  0.82258149089E+01 -0.27133562930E+02  0.32322897064E+02  0.51100000000E-03 0. -1.
         12    1    3    3    0    0 -0.62336410386E+00  0.51220757989E+01  0.50273952080E+01  0.72040923004E+01  0.00000000000E+00 0. -1.
</event>
<event>
 7    1  0.3141443E-011  0.5052886E+02  0.7816164E-02  0.1300439E+00
        -11   -1    0    0    0    0  0.00000000000E+00  0.00000000000E+00  0.45593999997E+02  0.45594000000E+02  0.51100000000E-03 0.  1.
         11   -1    0    0    0    0 -0.00000000000E+00 -0.00000000000E+00 -0.45593999997E+02  0.45594000000E+02  0.51100000000E-03 0. -1.
    9900012    2    1    2    0    0  0.25491225353E+02  0.10261531949E+02  0.29967713142E+02  0.50528862787E+02  0.30000008927E+02 0.  0.
         12    1    1    2    0    0 -0.25491225353E+02 -0.10261531949E+02 -0.29967713142E+02  0.40659137213E+02  0.00000000000E+00 0. -1.
         11    1    3    3    0    0  0.19512752953E+01 -0.25911712261E+01 -0.99934396432E+00  0.33941614901E+01  0.51100000000E-03 0. -1.
        -11    1    3    3    0    0  0.27744960794E+02  0.11986585625E+02  0.22628945364E+02  0.37756194895E+02  0.51100000000E-03 0.  1.
        -12    1    3    3    0    0 -0.42050107360E+01  0.86611755036E+00  0.83381117427E+01  0.93785064021E+01  0.00000000000E+00 0.  1.
</event>
<event>
 7    1  0.3229579E-011  0.5052899E+02  0.7816164E-02  0.1300438E+00
        -11   -1    0    0    0    0  0.00000000000E+00  0.00000000000E+00  0.45593999997E+02  0.45594000000E+02  0.51100000000E-03 0. -1.
         11   -1    0    0    0    0 -0.00000000000E+00 -0.00000000000E+00 -0.45593999997E+02  0.45594000000E+02  0.51100000000E-03 0.  1.
    9900012    2    1    2    0    0  0.17317213437E+02 -0.35529536836E+02 -0.95352762869E+01  0.50528986696E+02  0.30000385558E+02 0.  0.
         12    1    1    2    0    0 -0.17317213437E+02  0.35529536836E+02  0.95352762869E+01  0.40659013304E+02  0.00000000000E+00 0. -1.
         11    1    3    3    0    0  0.10723337216E+02 -0.13991185595E+02  0.58084421600E+01  0.18560205709E+02  0.51100000000E-03 0. -1.
        -11    1    3    3    0    0  0.11043782540E+02 -0.17938374141E+02 -0.77197608501E+01  0.22435353963E+02  0.51100000000E-03 0.  1.
        -12    1    3    3    0    0 -0.44499063188E+01 -0.35999771010E+01 -0.76239575968E+01  0.95334270235E+01  0.00000000000E+00 0.  1.
</event>
<event>
 7    1  0.3707978E-011  0.5052887E+02  0.7816164E-02  0.1300439E+00
        -11   -1    0    0    0    0  0.00000000000E+00  0.00000000000E+00  0.45593999997E+02  0.45594000000E+02  0.51100000000E-03 0. -1.
         11   -1    0    0    0    0 -0.00000000000E+00 -0.00000000000E+00 -0.45593999997E+02  0.45594000000E+02  0.51100000000E-03 0.  1.
    9900012    2    1    2    0    0  0.23944700423E+02  0.24419076203E+02 -0.21989207155E+02  0.50528865820E+02  0.30000018145E+02 0.  0.
         12    1    1    2    0    0 -0.23944700423E+02 -0.24419076203E+02  0.21989207155E+02  0.40659134180E+02  0.00000000000E+00 0. -1.
         11    1    3    3    0    0 -0.22560205943E+01 -0.13515236662E+01  0.67550235061E+00  0.27152437881E+01  0.51100000000E-03 0. -1.
        -11    1    3    3    0    0  0.12057889730E+02 -0.44966618145E+00 -0.42625869519E+01  0.12797052481E+02  0.51100000000E-03 0.  1.
        -12    1    3    3    0    0  0.14142831288E+02  0.26220266051E+02 -0.18402122554E+02  0.35016569551E+02  0.00000000000E+00 0.  1.
</event>
<event>
 7    1  0.3141443E-011  0.5052886E+02  0.7816164E-02  0.1300439E+00
        -11   -1    0    0    0    0  0.00000000000E+00  0.00000000000E+00  0.45593999997E+02  0.45594000000E+02  0.51100000000E-03 0. -1.
         11   -1    0    0    0    0 -0.00000000000E+00 -0.00000000000E+00 -0.45593999997E+02  0.45594000000E+02  0.51100000000E-03 0.  1.
    9900012    2    1    2    0    0 -0.25420546221E+02  0.15249710939E+02 -0.27828181848E+02  0.50528861312E+02  0.30000004444E+02 0.  0.
         12    1    1    2    0    0  0.25420546221E+02 -0.15249710939E+02  0.27828181848E+02  0.40659138688E+02  0.00000000000E+00 0. -1.
         11    1    3    3    0    0 -0.32388473701E+01 -0.31675063678E+01 -0.17164796082E+01  0.48445362402E+01  0.51100000000E-03 0. -1.
        -11    1    3    3    0    0 -0.50426088303E+00  0.11489208602E+02 -0.18318695779E+02  0.21629396862E+02  0.51100000000E-03 0.  1.
         12    1    3    3    0    0 -0.21677437968E+02  0.69280087049E+01 -0.77930064616E+01  0.24054928209E+02  0.00000000000E+00 0. -1.
</event>
<event>
 7    1  0.3141443E-011  0.5052887E+02  0.7816164E-02  0.1300439E+00
        -11   -1    0    0    0    0  0.00000000000E+00  0.00000000000E+00  0.45593999997E+02  0.45594000000E+02  0.51100000000E-03 0.  1.
         11   -1    0    0    0    0 -0.00000000000E+00 -0.00000000000E+00 -0.45593999997E+02  0.45594000000E+02  0.51100000000E-03 0. -1.
    9900012    2    1    2    0    0 -0.13125041701E+02 -0.37136903083E+02  0.10087066921E+02  0.50528865611E+02  0.30000017510E+02 0.  0.
         12    1    1    2    0    0  0.13125041701E+02  0.37136903083E+02 -0.10087066921E+02  0.40659134389E+02  0.00000000000E+00 0. -1.
         11    1    3    3    0    0 -0.23680498523E+01 -0.45178777868E+00  0.42025895113E-01  0.24111281046E+01  0.51100000000E-03 0. -1.
        -11    1    3    3    0    0  0.65508160078E+01 -0.24022099196E+02  0.95457004708E+01  0.26666361542E+02  0.51100000000E-03 0.  1.
        -12    1    3    3    0    0 -0.17307807856E+02 -0.12663016108E+02  0.49934055463E+00  0.21451375964E+02  0.00000000000E+00 0.  1.
</event>
<event>
 7    1  0.3141443E-011  0.5052886E+02  0.7816164E-02  0.1300439E+00
        -11   -1    0    0    0    0  0.00000000000E+00  0.00000000000E+00  0.45593999997E+02  0.45594000000E+02  0.51100000000E-03 0.  1.
         11   -1    0    0    0    0 -0.00000000000E+00 -0.00000000000E+00 -0.45593999997E+02  0.45594000000E+02  0.51100000000E-03 0. -1.
    9900012    2    1    2    0    0 -0.57813728846E+01  0.30793235795E+00  0.40244834126E+02  0.50528858733E+02  0.29999996604E+02 0.  0.
         12    1    1    2    0    0  0.57813728846E+01 -0.30793235795E+00 -0.40244834126E+02  0.40659141267E+02  0.00000000000E+00 0. -1.
         11    1    3    3    0    0  0.28909583056E+01  0.75843204267E+01  0.16464431946E+02  0.18356390599E+02  0.51100000000E-03 0. -1.
        -11    1    3    3    0    0  0.11806477584E+01 -0.10829082629E+02  0.14793626292E+02  0.18371563321E+02  0.51100000000E-03 0.  1.
         12    1    3    3    0    0 -0.98529789485E+01  0.35526945602E+01  0.89867758872E+01  0.13800904813E+02  0.00000000000E+00 0. -1.
</event>
<event>
 7    1  0.3141443E-011  0.5052886E+02  0.7816164E-02  0.1300439E+00
        -11   -1    0    0    0    0  0.00000000000E+00  0.00000000000E+00  0.45593999997E+02  0.45594000000E+02  0.51100000000E-03 0. -1.
         11   -1    0    0    0    0 -0.00000000000E+00 -0.00000000000E+00 -0.45593999997E+02  0.45594000000E+02  0.51100000000E-03 0.  1.
    9900012    2    1    2    0    0  0.27051083494E+02 -0.15797988639E+02 -0.25919646355E+02  0.50528860432E+02  0.30000001768E+02 0.  0.
         12    1    1    2    0    0 -0.27051083494E+02  0.15797988639E+02  0.25919646355E+02  0.40659139568E+02  0.00000000000E+00 0. -1.
         11    1    3    3    0    0 -0.59355294315E+01 -0.16740657530E+01 -0.42493274440E+01  0.74893117017E+01  0.51100000000E-03 0. -1.
        -11    1    3    3    0    0  0.47926124716E+01 -0.26212064966E+01 -0.79383297446E+01  0.96362304453E+01  0.51100000000E-03 0.  1.
         12    1    3    3    0    0  0.28194000454E+02 -0.11502716390E+02 -0.13731989166E+02  0.33403318285E+02  0.00000000000E+00 0. -1.
</event>
<event>
 7    1  0.3141443E-011  0.5052887E+02  0.7816164E-02  0.1300439E+00
        -11   -1    0    0    0    0  0.00000000000E+00  0.00000000000E+00  0.45593999997E+02  0.45594000000E+02  0.51100000000E-03 0. -1.
         11   -1    0    0    0    0 -0.00000000000E+00 -0.00000000000E+00 -0.45593999997E+02  0.45594000000E+02  0.51100000000E-03 0.  1.
    9900012    2    1    2    0    0 -0.16373446659E+02  0.26313589953E+02 -0.26318618995E+02  0.50528874610E+02  0.30000044864E+02 0.  0.
         12    1    1    2    0    0  0.16373446659E+02 -0.26313589953E+02  0.26318618995E+02  0.40659125390E+02  0.00000000000E+00 0. -1.
         11    1    3    3    0    0 -0.12840863090E+02  0.10123450974E+02 -0.15752491257E+01  0.16427216277E+02  0.51100000000E-03 0. -1.
        -11    1    3    3    0    0 -0.62144390394E+01  0.38020262968E+01 -0.12282913091E+01  0.73880549766E+01  0.51100000000E-03 0.  1.
        -12    1    3    3    0    0  0.26818554710E+01  0.12388112682E+02 -0.23515078561E+02  0.26713603357E+02  0.00000000000E+00 0.  1.
</event>
<event>
 7    1  0.3141443E-011  0.5052874E+02  0.7816164E-02  0.1300439E+00
        -11   -1    0    0    0    0  0.00000000000E+00  0.00000000000E+00  0.45593999997E+02  0.45594000000E+02  0.51100000000E-03 0. -1.
         11   -1    0    0    0    0 -0.00000000000E+00 -0.00000000000E+00 -0.45593999997E+02  0.45594000000E+02  0.51100000000E-03 0.  1.
    9900012    2    1    2    0    0 -0.16448912106E+01  0.32713308433E+02  0.24089611958E+02  0.50528737587E+02  0.29999628366E+02 0.  0.
         12    1    1    2    0    0  0.16448912106E+01 -0.32713308433E+02 -0.24089611958E+02  0.40659262413E+02  0.00000000000E+00 0. -1.
         11    1    3    3    0    0  0.77384129484E+01  0.82231259383E+01  0.12599200255E+02  0.16918708062E+02  0.51100000000E-03 0. -1.
        -11    1    3    3    0    0 -0.26092940127E+01  0.21505113193E+02  0.14000757352E+02  0.25793400617E+02  0.51100000000E-03 0.  1.
         12    1    3    3    0    0 -0.67740101463E+01  0.29850693016E+01 -0.25103456495E+01  0.78166289075E+01  0.00000000000E+00 0. -1.
</event>
<event>
 7    1  0.3141443E-011  0.5052888E+02  0.7816164E-02  0.1300439E+00
        -11   -1    0    0    0    0  0.00000000000E+00  0.00000000000E+00  0.45593999997E+02  0.45594000000E+02  0.51100000000E-03 0.  1.
         11   -1    0    0    0    0 -0.00000000000E+00 -0.00000000000E+00 -0.45593999997E+02  0.45594000000E+02  0.51100000000E-03 0. -1.
    9900012    2    1    2    0    0  0.36512512435E+02  0.17504759766E+02 -0.36856658292E+01  0.50528876653E+02  0.30000051074E+02 0.  0.
         12    1    1    2    0    0 -0.36512512435E+02 -0.17504759766E+02  0.36856658292E+01  0.40659123347E+02  0.00000000000E+00 0. -1.
         11    1    3    3    0    0  0.24809496429E+02  0.69877967284E+00  0.54477939044E+01  0.25410192143E+02  0.51100000000E-03 0. -1.
        -11    1    3    3    0    0  0.11433834294E+02  0.79300028857E+01 -0.82940613656E+01  0.16199042152E+02  0.51100000000E-03 0.  1.
        -12    1    3    3    0    0  0.26918171167E+00  0.88759772070E+01 -0.83939836795E+00  0.89196423579E+01  0.00000000000E+00 0.  1.
</event>
<event>
 7    1  0.3141443E-011  0.5052887E+02  0.7816164E-02  0.1300439E+00
        -11   -1    0    0    0    0  0.00000000000E+00  0.00000000000E+00  0.45593999997E+02  0.45594000000E+02  0.51100000000E-03 0.  1.
         11   -1    0    0    0    0 -0.00000000000E+00 -0.00000000000E+00 -0.45593999997E+02  0.45594000000E+02  0.51100000000E-03 0. -1.
    9900012    2    1    2    0    0  0.16665067031E+02 -0.25002239679E+00  0.37086089073E+02  0.50528868516E+02  0.30000026340E+02 0.  0.
         12    1    1    2    0    0 -0.16665067031E+02  0.25002239679E+00 -0.37086089073E+02  0.40659131484E+02  0.00000000000E+00 0. -1.
         11    1    3    3    0    0  0.49098317651E+01  0.11823579681E+01  0.13372135030E+02  0.14293999225E+02  0.51100000000E-03 0.  1.
        -11    1    3    3    0    0  0.31512801455E+01 -0.32147001343E+01 -0.46912334074E+01  0.65017332037E+01  0.51100000000E-03 0. -1.
         12    1    3    3    0    0  0.86039551201E+01  0.17823197694E+01  0.28405187450E+02  0.29733136087E+02  0.00000000000E+00 0. -1.
</event>
<event>
 7    1  0.3141443E-011  0.5052886E+02  0.7816164E-02  0.1300439E+00
        -11   -1    0    0    0    0  0.00000000000E+00  0.00000000000E+00  0.45593999997E+02  0.45594000000E+02  0.51100000000E-03 0.  1.
         11   -1    0    0    0    0 -0.00000000000E+00 -0.00000000000E+00 -0.45593999997E+02  0.45594000000E+02  0.51100000000E-03 0. -1.
    9900012    2    1    2    0    0  0.18249135725E+02  0.17829615124E+02  0.31658172125E+02  0.50528855979E+02  0.29999988234E+02 0.  0.
         12    1    1    2    0    0 -0.18249135725E+02 -0.17829615124E+02 -0.31658172125E+02  0.40659144021E+02  0.00000000000E+00 0. -1.
         11    1    3    3    0    0  0.69147121627E+01  0.10216944142E+00 -0.15642029537E+01  0.70901631878E+01  0.51100000000E-03 0. -1.
        -11    1    3    3    0    0  0.15599068446E+02  0.17810516589E+02  0.28994271363E+02  0.37432782554E+02  0.51100000000E-03 0.  1.
         12    1    3    3    0    0 -0.42646448831E+01 -0.83070906649E-01  0.42281037156E+01  0.60059102378E+01  0.00000000000E+00 0. -1.
</event>
<event>
 7    1  0.3141443E-011  0.5052886E+02  0.7816164E-02  0.1300439E+00
        -11   -1    0    0    0    0  0.00000000000E+00  0.00000000000E+00  0.45593999997E+02  0.45594000000E+02  0.51100000000E-03 0.  1.
         11   -1    0    0    0    0 -0.00000000000E+00 -0.00000000000E+00 -0.45593999997E+02  0.45594000000E+02  0.51100000000E-03 0. -1.
    9900012    2    1    2    0    0  0.13018957778E+02  0.31674490755E+02 -0.21918006523E+02  0.50528860361E+02  0.30000001553E+02 0.  0.
         12    1    1    2    0    0 -0.13018957778E+02 -0.31674490755E+02  0.21918006523E+02  0.40659139639E+02  0.00000000000E+00 0. -1.
         11    1    3    3    0    0 -0.52580899986E+00  0.10948281919E+02 -0.10563957365E+02  0.15222961195E+02  0.51100000000E-03 0. -1.
        -11    1    3    3    0    0  0.17273409833E+02  0.91855325841E+01 -0.13962626010E+01  0.19613623980E+02  0.51100000000E-03 0.  1.
         12    1    3    3    0    0 -0.37286430548E+01  0.11540676253E+02 -0.99577865574E+01  0.15692275186E+02  0.00000000000E+00 0. -1.
</event>
<event>
 7    1  0.3141443E-011  0.5052894E+02  0.7816164E-02  0.1300439E+00
        -11   -1    0    0    0    0  0.00000000000E+00  0.00000000000E+00  0.45593999997E+02  0.45594000000E+02  0.51100000000E-03 0. -1.
         11   -1    0    0    0    0 -0.00000000000E+00 -0.00000000000E+00 -0.45593999997E+02  0.45594000000E+02  0.51100000000E-03 0.  1.
    9900012    2    1    2    0    0  0.25713701987E+02  0.17613405896E+02 -0.26110005582E+02  0.50528942846E+02  0.30000252273E+02 0.  0.
         12    1    1    2    0    0 -0.25713701987E+02 -0.17613405896E+02  0.26110005582E+02  0.40659057154E+02  0.00000000000E+00 0. -1.
         11    1    3    3    0    0  0.17631391516E+02  0.96338387480E+01 -0.76859129429E+01  0.21511626481E+02  0.51100000000E-03 0. -1.
        -11    1    3    3    0    0  0.13146931095E+02  0.89873988892E+01 -0.17688569574E+02  0.23801273702E+02  0.51100000000E-03 0.  1.
         12    1    3    3    0    0 -0.50646206240E+01 -0.10078317410E+01 -0.73552306557E+00  0.52160426631E+01  0.00000000000E+00 0. -1.
</event>
<event>
 7    1  0.3141443E-011  0.5052886E+02  0.7816164E-02  0.1300439E+00
        -11   -1    0    0    0    0  0.00000000000E+00  0.00000000000E+00  0.45593999997E+02  0.45594000000E+02  0.51100000000E-03 0.  1.
         11   -1    0    0    0    0 -0.00000000000E+00 -0.00000000000E+00 -0.45593999997E+02  0.45594000000E+02  0.51100000000E-03 0. -1.
    9900012    2    1    2    0    0  0.38215836391E+02 -0.11910233927E+02 -0.71317360567E+01  0.50528862252E+02  0.30000007300E+02 0.  0.
         12    1    1    2    0    0 -0.38215836391E+02  0.11910233927E+02  0.71317360567E+01  0.40659137748E+02  0.00000000000E+00 0. -1.
         11    1    3    3    0    0  0.10863023651E+02  0.19730892914E+01 -0.14830174362E+02  0.18488711044E+02  0.51100000000E-03 0. -1.
        -11    1    3    3    0    0  0.66792326751E+01 -0.31205003575E+01 -0.35457648614E+00  0.73807449729E+01  0.51100000000E-03 0.  1.
         12    1    3    3    0    0  0.20673580065E+02 -0.10762822860E+02  0.80530147912E+01  0.24659406235E+02  0.00000000000E+00 0. -1.
</event>
<event>
 7    1  0.3141443E-011  0.5052883E+02  0.7816164E-02  0.1300439E+00
        -11   -1    0    0    0    0  0.00000000000E+00  0.00000000000E+00  0.45593999997E+02  0.45594000000E+02  0.51100000000E-03 0.  1.
         11   -1    0    0    0    0 -0.00000000000E+00 -0.00000000000E+00 -0.45593999997E+02  0.45594000000E+02  0.51100000000E-03 0. -1.
    9900012    2    1    2    0    0 -0.19310495855E+02  0.16866930286E+02  0.31555970287E+02  0.50528833159E+02  0.29999918870E+02 0.  0.
         12    1    1    2    0    0  0.19310495855E+02 -0.16866930286E+02 -0.31555970287E+02  0.40659166841E+02  0.00000000000E+00 0. -1.
         11    1    3    3    0    0  0.14310009420E+00 -0.33113191668E+01  0.34205719324E+01  0.47629428789E+01  0.51100000000E-03 0.  1.
        -11    1    3    3    0    0 -0.14848031806E+02  0.11159671175E+01  0.56393190615E+01  0.15922039784E+02  0.51100000000E-03 0. -1.
        -12    1    3    3    0    0 -0.46055641424E+01  0.19062282335E+02  0.22496079293E+02  0.29843850497E+02  0.00000000000E+00 0.  1.
</event>
<event>
 7    1  0.3141443E-011  0.5052886E+02  0.7816164E-02  0.1300439E+00
        -11   -1    0    0    0    0  0.00000000000E+00  0.00000000000E+00  0.45593999997E+02  0.45594000000E+02  0.51100000000E-03 0.  1.
         11   -1    0    0    0    0 -0.00000000000E+00 -0.00000000000E+00 -0.45593999997E+02  0.45594000000E+02  0.51100000000E-03 0. -1.
    9900012    2    1    2    0    0  0.32774807129E+02  0.18062213838E+02  0.15897623554E+02  0.50528856062E+02  0.29999988485E+02 0.  0.
         12    1    1    2    0    0 -0.32774807129E+02 -0.18062213838E+02 -0.15897623554E+02  0.40659143938E+02  0.00000000000E+00 0. -1.
         11    1    3    3    0    0  0.56463291059E+01 -0.17242571672E+01  0.12335605265E+02  0.13675571384E+02  0.51100000000E-03 0. -1.
        -11    1    3    3    0    0  0.75913014306E+01 -0.70127013532E+00 -0.22587614520E+01  0.79512037309E+01  0.51100000000E-03 0.  1.
         12    1    3    3    0    0  0.19537176593E+02  0.20487741141E+02  0.58207797413E+01  0.28902080947E+02  0.00000000000E+00 0. -1.
</event>
<event>
 7    1  0.3141443E-011  0.5052887E+02  0.7816164E-02  0.1300439E+00
        -11   -1    0    0    0    0  0.00000000000E+00  0.00000000000E+00  0.45593999997E+02  0.45594000000E+02  0.51100000000E-03 0. -1.
         11   -1    0    0    0    0 -0.00000000000E+00 -0.00000000000E+00 -0.45593999997E+02  0.45594000000E+02  0.51100000000E-03 0.  1.
    9900012    2    1    2    0    0  0.62515936860E+01 -0.40029204646E+02  0.34271649987E+01  0.50528866854E+02  0.30000021290E+02 0.  0.
         12    1    1    2    0    0 -0.62515936860E+01  0.40029204646E+02 -0.34271649987E+01  0.40659133146E+02  0.00000000000E+00 0. -1.
         11    1    3    3    0    0  0.23700894016E+01 -0.27451490657E+02  0.13019870088E+02  0.30474886061E+02  0.51100000000E-03 0. -1.
        -11    1    3    3    0    0  0.46294426422E+01 -0.49991389414E+00 -0.72365833236E-01  0.46569185255E+01  0.51100000000E-03 0.  1.
        -12    1    3    3    0    0 -0.74793835775E+00 -0.12077800095E+02 -0.95203392557E+01  0.15397062267E+02  0.00000000000E+00 0.  1.
</event>
<event>
 7    1  0.3141443E-011  0.5052886E+02  0.7816164E-02  0.1300439E+00
        -11   -1    0    0    0    0  0.00000000000E+00  0.00000000000E+00  0.45593999997E+02  0.45594000000E+02  0.51100000000E-03 0.  1.
         11   -1    0    0    0    0 -0.00000000000E+00 -0.00000000000E+00 -0.45593999997E+02  0.45594000000E+02  0.51100000000E-03 0. -1.
    9900012    2    1    2    0    0 -0.21604349939E+02  0.15707323296E+02  0.30654486617E+02  0.50528862145E+02  0.30000006975E+02 0.  0.
         12    1    1    2    0    0  0.21604349939E+02 -0.15707323296E+02 -0.30654486617E+02  0.40659137855E+02  0.00000000000E+00 0. -1.
         11    1    3    3    0    0  0.48316259823E-01  0.21109026377E+01 -0.27170063993E+01  0.34409836445E+01  0.51100000000E-03 0. -1.
        -11    1    3    3    0    0 -0.41137679423E+00 -0.48909131427E+01  0.66711539196E+01  0.82821831129E+01  0.51100000000E-03 0.  1.
        -12    1    3    3    0    0 -0.21241289405E+02  0.18487333801E+02  0.26700339096E+02  0.38805695387E+02  0.00000000000E+00 0.  1.
</event>
<event>
 7    1  0.3141443E-011  0.5052886E+02  0.7816164E-02  0.1300439E+00
        -11   -1    0    0    0    0  0.00000000000E+00  0.00000000000E+00  0.45593999997E+02  0.45594000000E+02  0.51100000000E-03 0. -1.
         11   -1    0    0    0    0 -0.00000000000E+00 -0.00000000000E+00 -0.45593999997E+02  0.45594000000E+02  0.51100000000E-03 0.  1.
    9900012    2    1    2    0    0 -0.39893727559E+02  0.78125552980E+01 -0.78767359035E+00  0.50528856520E+02  0.29999989878E+02 0.  0.
         12    1    1    2    0    0  0.39893727559E+02 -0.78125552980E+01  0.78767359035E+00  0.40659143480E+02  0.00000000000E+00 0. -1.
         11    1    3    3    0    0 -0.65744317774E+01 -0.59658869282E+01 -0.48376847564E+01  0.10110299407E+02  0.51100000000E-03 0. -1.
        -11    1    3    3    0    0 -0.15441584989E+01  0.49525898681E+01  0.53005383010E+01  0.74167565966E+01  0.51100000000E-03 0.  1.
        -12    1    3    3    0    0 -0.31775137283E+02  0.88258523582E+01 -0.12505271350E+01  0.33001800516E+02  0.00000000000E+00 0.  1.
</event>
<event>
 7    1  0.3141443E-011  0.5052887E+02  0.7816164E-02  0.1300439E+00
        -11   -1    0    0    0    0  0.00000000000E+00  0.00000000000E+00  0.45593999997E+02  0.45594000000E+02  0.51100000000E-03 0.  1.
         11   -1    0    0    0    0 -0.00000000000E+00 -0.00000000000E+00 -0.45593999997E+02  0.45594000000E+02  0.51100000000E-03 0. -1.
    9900012    2    1    2    0    0 -0.25228824141E+02  0.66161687405E+01  0.31191309866E+02  0.50528867354E+02  0.30000022810E+02 0.  0.
         12    1    1    2    0    0  0.25228824141E+02 -0.66161687405E+01 -0.31191309866E+02  0.40659132646E+02  0.00000000000E+00 0. -1.
         11    1    3    3    0    0 -0.37977166309E+00  0.97737349515E+01  0.77597176977E+01  0.12485325003E+02  0.51100000000E-03 0. -1.
        -11    1    3    3    0    0 -0.16906728932E+01 -0.44665572371E+01 -0.39360254686E+00  0.47920174885E+01  0.51100000000E-03 0.  1.
        -12    1    3    3    0    0 -0.23158379585E+02  0.13089910261E+01  0.23825194715E+02  0.33251524863E+02  0.00000000000E+00 0.  1.
</event>
<event>
 7    1  0.3141443E-011  0.5052886E+02  0.7816164E-02  0.1300439E+00
        -11   -1    0    0    0    0  0.00000000000E+00  0.00000000000E+00  0.45593999997E+02  0.45594000000E+02  0.51100000000E-03 0.  1.
         11   -1    0    0    0    0 -0.00000000000E+00 -0.00000000000E+00 -0.45593999997E+02  0.45594000000E+02  0.51100000000E-03 0. -1.
    9900012    2    1    2    0    0  0.38049565655E+02 -0.33126279215E+01  0.13943544910E+02  0.50528863328E+02  0.30000010572E+02 0.  0.
         12    1    1    2    0    0 -0.38049565655E+02  0.33126279215E+01 -0.13943544910E+02  0.40659136672E+02  0.00000000000E+00 0. -1.
         11    1    3    3    0    0  0.19433221563E+01 -0.62277941367E-01 -0.44879056693E+01  0.48909791558E+01  0.51100000000E-03 0. -1.
        -11    1    3    3    0    0  0.34260111797E+02  0.11347422644E+01  0.95860028573E+01  0.35594021287E+02  0.51100000000E-03 0.  1.
         12    1    3    3    0    0  0.18461317014E+01 -0.43850922445E+01  0.88454477218E+01  0.10043862885E+02  0.00000000000E+00 0. -1.
</event>
<event>
 7    1  0.3141443E-011  0.5052886E+02  0.7816164E-02  0.1300439E+00
        -11   -1    0    0    0    0  0.00000000000E+00  0.00000000000E+00  0.45593999997E+02  0.45594000000E+02  0.51100000000E-03 0.  1.
         11   -1    0    0    0    0 -0.00000000000E+00 -0.00000000000E+00 -0.45593999997E+02  0.45594000000E+02  0.51100000000E-03 0. -1.
    9900012    2    1    2    0    0  0.35840184276E+02 -0.44863541393E+01  0.18668669430E+02  0.50528863257E+02  0.30000010357E+02 0.  0.
         12    1    1    2    0    0 -0.35840184276E+02  0.44863541393E+01 -0.18668669430E+02  0.40659136743E+02  0.00000000000E+00 0. -1.
         11    1    3    3    0    0  0.81414952251E+01  0.13827361478E+00 -0.59361328070E+01  0.10076742383E+02  0.51100000000E-03 0. -1.
        -11    1    3    3    0    0  0.99060616265E+00 -0.51277961567E+01  0.25531946358E+01  0.58132948578E+01  0.51100000000E-03 0.  1.
        -12    1    3    3    0    0  0.26708082888E+02  0.50316840267E+00  0.22051607602E+02  0.34638826016E+02  0.00000000000E+00 0.  1.
</event>
<event>
 7    1  0.3141443E-011  0.5052886E+02  0.7816164E-02  0.1300439E+00
        -11   -1    0    0    0    0  0.00000000000E+00  0.00000000000E+00  0.45593999997E+02  0.45594000000E+02  0.51100000000E-03 0.  1.
         11   -1    0    0    0    0 -0.00000000000E+00 -0.00000000000E+00 -0.45593999997E+02  0.45594000000E+02  0.51100000000E-03 0. -1.
    9900012    2    1    2    0    0 -0.22724674440E+02 -0.30724105758E+02 -0.13884659271E+02  0.50528864912E+02  0.30000015387E+02 0.  0.
         12    1    1    2    0    0  0.22724674440E+02  0.30724105758E+02  0.13884659271E+02  0.40659135088E+02  0.00000000000E+00 0. -1.
         11    1    3    3    0    0  0.20002763734E+01 -0.14197658337E+01  0.81791725573E-01  0.24542882350E+01  0.51100000000E-03 0.  1.
        -11    1    3    3    0    0 -0.24240231015E+02 -0.29198760774E+02 -0.40714787377E+01  0.38167176602E+02  0.51100000000E-03 0. -1.
         12    1    3    3    0    0 -0.48471979811E+00 -0.10557915000E+00 -0.98949722590E+01  0.99074000750E+01  0.00000000000E+00 0. -1.
</event>
<event>
 7    1  0.3298287E-011  0.5052886E+02  0.7816164E-02  0.1300439E+00
        -11   -1    0    0    0    0  0.00000000000E+00  0.00000000000E+00  0.45593999997E+02  0.45594000000E+02  0.51100000000E-03 0.  1.
         11   -1    0    0    0    0 -0.00000000000E+00 -0.00000000000E+00 -0.45593999997E+02  0.45594000000E+02  0.51100000000E-03 0. -1.
    9900012    2    1    2    0    0 -0.40409582917E+02 -0.39147435336E+01 -0.22150426012E+01  0.50528855615E+02  0.29999987126E+02 0.  0.
         12    1    1    2    0    0  0.40409582917E+02  0.39147435336E+01  0.22150426012E+01  0.40659144385E+02  0.00000000000E+00 0. -1.
         11    1    3    3    0    0 -0.21875287894E+01  0.75578049386E+01 -0.33381247881E+01  0.85468576130E+01  0.51100000000E-03 0. -1.
        -11    1    3    3    0    0 -0.99213961140E+01 -0.60732653323E+01 -0.47729836116E+01  0.12573783260E+02  0.51100000000E-03 0.  1.
        -12    1    3    3    0    0 -0.28300658013E+02 -0.53992831400E+01  0.58960657984E+01  0.29408214742E+02  0.00000000000E+00 0.  1.
</event>
<event>
 7    1  0.3141443E-011  0.5052887E+02  0.7816164E-02  0.1300439E+00
        -11   -1    0    0    0    0  0.00000000000E+00  0.00000000000E+00  0.45593999997E+02  0.45594000000E+02  0.51100000000E-03 0.  1.
         11   -1    0    0    0    0 -0.00000000000E+00 -0.00000000000E+00 -0.45593999997E+02  0.45594000000E+02  0.51100000000E-03 0. -1.
    9900012    2    1    2    0    0  0.24578859313E+02 -0.30433667589E+02  0.11083148388E+02  0.50528872781E+02  0.30000039305E+02 0.  0.
         12    1    1    2    0    0 -0.24578859313E+02  0.30433667589E+02 -0.11083148388E+02  0.40659127219E+02  0.00000000000E+00 0. -1.
         11    1    3    3    0    0  0.15717663231E+02 -0.27180230587E+02  0.13074811445E+00  0.31397881577E+02  0.51100000000E-03 0. -1.
        -11    1    3    3    0    0 -0.58919502793E+00  0.32338042653E+01  0.14597598359E-01  0.32870737987E+01  0.51100000000E-03 0.  1.
        -12    1    3    3    0    0  0.94503911096E+01 -0.64872412672E+01  0.10937802675E+02  0.15843917405E+02  0.00000000000E+00 0.  1.
</event>
<event>
 7    1  0.3141443E-011  0.5052886E+02  0.7816164E-02  0.1300439E+00
        -11   -1    0    0    0    0  0.00000000000E+00  0.00000000000E+00  0.45593999997E+02  0.45594000000E+02  0.51100000000E-03 0. -1.
         11   -1    0    0    0    0 -0.00000000000E+00 -0.00000000000E+00 -0.45593999997E+02  0.45594000000E+02  0.51100000000E-03 0.  1.
    9900012    2    1    2    0    0  0.26208758932E+02 -0.28643334984E+02 -0.12075831364E+02  0.50528863427E+02  0.30000010871E+02 0.  0.
         12    1    1    2    0    0 -0.26208758932E+02  0.28643334984E+02  0.12075831364E+02  0.40659136573E+02  0.00000000000E+00 0. -1.
         11    1    3    3    0    0  0.76824732176E+00 -0.39819410597E+01  0.30218396128E+01  0.50574275533E+01  0.51100000000E-03 0. -1.
        -11    1    3    3    0    0  0.11138891504E+02 -0.25797330423E+02 -0.68473437102E+01  0.28921674865E+02  0.51100000000E-03 0.  1.
         12    1    3    3    0    0  0.14301620107E+02  0.11359364987E+01 -0.82503272666E+01  0.16549761008E+02  0.00000000000E+00 0. -1.
</event>
<event>
 7    1  0.3141443E-011  0.5052887E+02  0.7816164E-02  0.1300439E+00
        -11   -1    0    0    0    0  0.00000000000E+00  0.00000000000E+00  0.45593999997E+02  0.45594000000E+02  0.51100000000E-03 0. -1.
         11   -1    0    0    0    0 -0.00000000000E+00 -0.00000000000E+00 -0.45593999997E+02  0.45594000000E+02  0.51100000000E-03 0.  1.
    9900012    2    1    2    0    0 -0.33237819161E+00 -0.39439593222E+02 -0.98778800606E+01  0.50528874293E+02  0.30000043900E+02 0.  0.
         12    1    1    2    0    0  0.33237819161E+00  0.39439593222E+02  0.98778800606E+01  0.40659125707E+02  0.00000000000E+00 0. -1.
         11    1    3    3    0    0  0.10706193003E+02 -0.17878150275E+02 -0.36985391581E+01  0.21164357256E+02  0.51100000000E-03 0. -1.
        -11    1    3    3    0    0  0.28204838318E+01 -0.10155410882E+02 -0.55327234741E+00  0.10554317116E+02  0.51100000000E-03 0.  1.
        -12    1    3    3    0    0 -0.13859055027E+02 -0.11406032065E+02 -0.56260685551E+01  0.18810199922E+02  0.00000000000E+00 0.  1.
</event>
<event>
 7    1  0.3141443E-011  0.5052884E+02  0.7816164E-02  0.1300439E+00
        -11   -1    0    0    0    0  0.00000000000E+00  0.00000000000E+00  0.45593999997E+02  0.45594000000E+02  0.51100000000E-03 0.  1.
         11   -1    0    0    0    0 -0.00000000000E+00 -0.00000000000E+00 -0.45593999997E+02  0.45594000000E+02  0.51100000000E-03 0. -1.
    9900012    2    1    2    0    0 -0.74327575881E+01  0.12132483097E+02  0.38088371702E+02  0.50528842479E+02  0.29999947198E+02 0.  0.
         12    1    1    2    0    0  0.74327575881E+01 -0.12132483097E+02 -0.38088371702E+02  0.40659157521E+02  0.00000000000E+00 0. -1.
         11    1    3    3    0    0  0.58269168680E+01  0.37406693412E+01  0.13238637937E+02  0.14940117202E+02  0.51100000000E-03 0. -1.
        -11    1    3    3    0    0 -0.18053640401E+01  0.10983617572E+02  0.43251168377E+01  0.11941768303E+02  0.51100000000E-03 0.  1.
        -12    1    3    3    0    0 -0.11454310416E+02 -0.25918038162E+01  0.20524616927E+02  0.23646956974E+02  0.00000000000E+00 0.  1.
</event>
<event>
 7    1  0.3141443E-011  0.5052887E+02  0.7816164E-02  0.1300439E+00
        -11   -1    0    0    0    0  0.00000000000E+00  0.00000000000E+00  0.45593999997E+02  0.45594000000E+02  0.51100000000E-03 0.  1.
         11   -1    0    0    0    0 -0.00000000000E+00 -0.00000000000E+00 -0.45593999997E+02  0.45594000000E+02  0.51100000000E-03 0. -1.
    9900012    2    1    2    0    0  0.26577862479E+02  0.29920245070E+02  0.71805911308E+01  0.50528871530E+02  0.30000035502E+02 0.  0.
         12    1    1    2    0    0 -0.26577862479E+02 -0.29920245070E+02 -0.71805911308E+01  0.40659128470E+02  0.00000000000E+00 0. -1.
         11    1    3    3    0    0  0.27076110603E+02  0.26334317239E+02  0.44886346703E+01  0.38036296761E+02  0.51100000000E-03 0.  1.
        -11    1    3    3    0    0  0.11329481689E+01  0.60884491174E+00 -0.44246435892E+01  0.46077906672E+01  0.51100000000E-03 0. -1.
        -12    1    3    3    0    0 -0.16311962934E+01  0.29770829191E+01  0.71166000498E+01  0.78847841012E+01  0.00000000000E+00 0.  1.
</event>
<event>
 7    1  0.3141443E-011  0.5052886E+02  0.7816164E-02  0.1300439E+00
        -11   -1    0    0    0    0  0.00000000000E+00  0.00000000000E+00  0.45593999997E+02  0.45594000000E+02  0.51100000000E-03 0.  1.
         11   -1    0    0    0    0 -0.00000000000E+00 -0.00000000000E+00 -0.45593999997E+02  0.45594000000E+02  0.51100000000E-03 0. -1.
    9900012    2    1    2    0    0 -0.23998938509E+02 -0.28342183123E+01  0.32698378505E+02  0.50528858348E+02  0.29999995435E+02 0.  0.
         12    1    1    2    0    0  0.23998938509E+02  0.28342183123E+01 -0.32698378505E+02  0.40659141652E+02  0.00000000000E+00 0. -1.
         11    1    3    3    0    0 -0.13413090858E+02 -0.30186988454E+01  0.58975841024E-01  0.13748710030E+02  0.51100000000E-03 0. -1.
        -11    1    3    3    0    0 -0.78737740643E+01  0.42213365363E+01  0.91334902395E+01  0.12776409683E+02  0.51100000000E-03 0.  1.
         12    1    3    3    0    0 -0.27120735866E+01 -0.40368560032E+01  0.23505912425E+02  0.24003738635E+02  0.00000000000E+00 0. -1.
</event>
<event>
 7    1  0.3141443E-011  0.5052886E+02  0.7816164E-02  0.1300439E+00
        -11   -1    0    0    0    0  0.00000000000E+00  0.00000000000E+00  0.45593999997E+02  0.45594000000E+02  0.51100000000E-03 0.  1.
         11   -1    0    0    0    0 -0.00000000000E+00 -0.00000000000E+00 -0.45593999997E+02  0.45594000000E+02  0.51100000000E-03 0. -1.
    9900012    2    1    2    0    0  0.17697121908E+02  0.31950173743E+02  0.17865164899E+02  0.50528857819E+02  0.29999993827E+02 0.  0.
         12    1    1    2    0    0 -0.17697121908E+02 -0.31950173743E+02 -0.17865164899E+02  0.40659142181E+02  0.00000000000E+00 0. -1.
         11    1    3    3    0    0  0.52665205559E+01 -0.21710741167E+01  0.55468419710E+01  0.79509281029E+01  0.51100000000E-03 0. -1.
        -11    1    3    3    0    0  0.83445635280E+01  0.66107198433E+01 -0.26818291408E+01  0.10978413598E+02  0.51100000000E-03 0.  1.
         12    1    3    3    0    0  0.40860378240E+01  0.27510528016E+02  0.15000152069E+02  0.31599516118E+02  0.00000000000E+00 0. -1.
</event>
<event>
 7    1  0.3141443E-011  0.5052882E+02  0.7816164E-02  0.1300439E+00
        -11   -1    0    0    0    0  0.00000000000E+00  0.00000000000E+00  0.45593999997E+02  0.45594000000E+02  0.51100000000E-03 0.  1.
         11   -1    0    0    0    0 -0.00000000000E+00 -0.00000000000E+00 -0.45593999997E+02  0.45594000000E+02  0.51100000000E-03 0. -1.
    9900012    2    1    2    0    0 -0.38797116399E+02  0.11173358969E+02 -0.48071415501E+01  0.50528821437E+02  0.29999883241E+02 0.  0.
         12    1    1    2    0    0  0.38797116399E+02 -0.11173358969E+02  0.48071415501E+01  0.40659178563E+02  0.00000000000E+00 0. -1.
         11    1    3    3    0    0 -0.16336847964E+02 -0.37364863328E+01 -0.12013196844E+01  0.16801699342E+02  0.51100000000E-03 0.  1.
        -11    1    3    3    0    0 -0.24768437314E+02  0.15132330358E+02 -0.67699298603E+01  0.29804275861E+02  0.51100000000E-03 0. -1.
         12    1    3    3    0    0  0.23081688798E+01 -0.22248505625E+00  0.31641079946E+01  0.39228462345E+01  0.00000000000E+00 0. -1.
</event>
<event>
 7    1  0.3141443E-011  0.5052886E+02  0.7816164E-02  0.1300439E+00
        -11   -1    0    0    0    0  0.00000000000E+00  0.00000000000E+00  0.45593999997E+02  0.45594000000E+02  0.51100000000E-03 0.  1.
         11   -1    0    0    0    0 -0.00000000000E+00 -0.00000000000E+00 -0.45593999997E+02  0.45594000000E+02  0.51100000000E-03 0. -1.
    9900012    2    1    2    0    0  0.24001266531E+02  0.21559731617E+02  0.24744349931E+02  0.50528859872E+02  0.30000000067E+02 0.  0.
         12    1    1    2    0    0 -0.24001266531E+02 -0.21559731617E+02 -0.24744349931E+02  0.40659140128E+02  0.00000000000E+00 0. -1.
         11    1    3    3    0    0  0.94975378014E+00 -0.13686888830E+01  0.35145744251E+00  0.17026050911E+01  0.51100000000E-03 0. -1.
        -11    1    3    3    0    0  0.15527408586E+02  0.25579264260E+02  0.86026397373E+01  0.31135262777E+02  0.51100000000E-03 0.  1.
         12    1    3    3    0    0  0.75241041642E+01 -0.26508437609E+01  0.15790252751E+02  0.17690992003E+02  0.00000000000E+00 0. -1.
</event>
<event>
 7    1  0.3141443E-011  0.5052885E+02  0.7816164E-02  0.1300439E+00
        -11   -1    0    0    0    0  0.00000000000E+00  0.00000000000E+00  0.45593999997E+02  0.45594000000E+02  0.51100000000E-03 0.  1.
         11   -1    0    0    0    0 -0.00000000000E+00 -0.00000000000E+00 -0.45593999997E+02  0.45594000000E+02  0.51100000000E-03 0. -1.
    9900012    2    1    2    0    0 -0.33001023982E+02 -0.19763579686E+02  0.13171941630E+02  0.50528847129E+02  0.29999961334E+02 0.  0.
         12    1    1    2    0    0  0.33001023982E+02  0.19763579686E+02 -0.13171941630E+02  0.40659152871E+02  0.00000000000E+00 0. -1.
         11    1    3    3    0    0 -0.13647656992E+02 -0.81746570383E+01 -0.28085764072E+01  0.16154617320E+02  0.51100000000E-03 0. -1.
        -11    1    3    3    0    0  0.25689462676E+01 -0.77640857181E+01  0.44776104539E+01  0.93235994982E+01  0.51100000000E-03 0.  1.
        -12    1    3    3    0    0 -0.21922313258E+02 -0.38248369293E+01  0.11502907583E+02  0.25050630311E+02  0.00000000000E+00 0.  1.
</event>
<event>
 7    1  0.3141443E-011  0.5052886E+02  0.7816164E-02  0.1300439E+00
        -11   -1    0    0    0    0  0.00000000000E+00  0.00000000000E+00  0.45593999997E+02  0.45594000000E+02  0.51100000000E-03 0.  1.
         11   -1    0    0    0    0 -0.00000000000E+00 -0.00000000000E+00 -0.45593999997E+02  0.45594000000E+02  0.51100000000E-03 0. -1.
    9900012    2    1    2    0    0 -0.21287318948E+02 -0.32508257531E+02 -0.11967822203E+02  0.50528861741E+02  0.30000005748E+02 0.  0.
         12    1    1    2    0    0  0.21287318948E+02  0.32508257531E+02  0.11967822203E+02  0.40659138259E+02  0.00000000000E+00 0. -1.
         11    1    3    3    0    0 -0.90780396516E+01 -0.67868420767E+01 -0.44257014386E+01  0.12167944065E+02  0.51100000000E-03 0. -1.
        -11    1    3    3    0    0 -0.13006242566E+02 -0.25087034839E+02  0.24063838518E+01  0.28360401023E+02  0.51100000000E-03 0.  1.
         12    1    3    3    0    0  0.79696326993E+00 -0.63438061579E+00 -0.99485046164E+01  0.10000516653E+02  0.00000000000E+00 0. -1.
</event>
<event>
 7    1  0.3141443E-011  0.5052886E+02  0.7816164E-02  0.1300439E+00
        -11   -1    0    0    0    0  0.00000000000E+00  0.00000000000E+00  0.45593999997E+02  0.45594000000E+02  0.51100000000E-03 0.  1.
         11   -1    0    0    0    0 -0.00000000000E+00 -0.00000000000E+00 -0.45593999997E+02  0.45594000000E+02  0.51100000000E-03 0. -1.
    9900012    2    1    2    0    0  0.35559252954E+02  0.42245614327E+01  0.19257686961E+02  0.50528857153E+02  0.29999991802E+02 0.  0.
         12    1    1    2    0    0 -0.35559252954E+02 -0.42245614327E+01 -0.19257686961E+02  0.40659142847E+02  0.00000000000E+00 0. -1.
         11    1    3    3    0    0  0.73818141248E+01  0.10332505175E+02  0.41534734473E+01  0.13360508408E+02  0.51100000000E-03 0. -1.
        -11    1    3    3    0    0  0.17959961212E+02  0.33963144759E+01  0.14269968329E+02  0.23188944674E+02  0.51100000000E-03 0.  1.
        -12    1    3    3    0    0  0.10217477618E+02 -0.95042582186E+01  0.83424518475E+00  0.13979404071E+02  0.00000000000E+00 0.  1.
</event>
<event>
 7    1  0.3141443E-011  0.5052885E+02  0.7816164E-02  0.1300439E+00
        -11   -1    0    0    0    0  0.00000000000E+00  0.00000000000E+00  0.45593999997E+02  0.45594000000E+02  0.51100000000E-03 0.  1.
         11   -1    0    0    0    0 -0.00000000000E+00 -0.00000000000E+00 -0.45593999997E+02  0.45594000000E+02  0.51100000000E-03 0. -1.
    9900012    2    1    2    0    0  0.35251766975E+02 -0.25074452820E+01  0.20104527913E+02  0.50528850976E+02  0.29999973027E+02 0.  0.
         12    1    1    2    0    0 -0.35251766975E+02  0.25074452820E+01 -0.20104527913E+02  0.40659149024E+02  0.00000000000E+00 0. -1.
         11    1    3    3    0    0  0.18141510887E+02 -0.79853857671E+01 -0.29718067055E+01  0.20042765240E+02  0.51100000000E-03 0. -1.
        -11    1    3    3    0    0  0.35946487038E+01  0.53001000272E+01  0.72713463103E+01  0.96894291383E+01  0.51100000000E-03 0.  1.
        -12    1    3    3    0    0  0.13515607384E+02  0.17784045795E+00  0.15804988309E+02  0.20796656597E+02  0.00000000000E+00 0.  1.
</event>
<event>
 7    1  0.3141443E-011  0.5052884E+02  0.7816164E-02  0.1300439E+00
        -11   -1    0    0    0    0  0.00000000000E+00  0.00000000000E+00  0.45593999997E+02  0.45594000000E+02  0.51100000000E-03 0. -1.
         11   -1    0    0    0    0 -0.00000000000E+00 -0.00000000000E+00 -0.45593999997E+02  0.45594000000E+02  0.51100000000E-03 0.  1.
    9900012    2    1    2    0    0  0.13535926115E+02  0.14069567109E+02 -0.35665013503E+02  0.50528841098E+02  0.29999943001E+02 0.  0.
         12    1    1    2    0    0 -0.13535926115E+02 -0.14069567109E+02  0.35665013503E+02  0.40659158902E+02  0.00000000000E+00 0. -1.
         11    1    3    3    0    0  0.12376496675E+02 -0.15960564562E+01 -0.91166509341E+01  0.15454397131E+02  0.51100000000E-03 0. -1.
        -11    1    3    3    0    0  0.29762605783E+01  0.11497003778E+02 -0.27906684372E+02  0.30328571609E+02  0.51100000000E-03 0.  1.
        -12    1    3    3    0    0 -0.18168311383E+01  0.41686197878E+01  0.13583218034E+01  0.47458723584E+01  0.00000000000E+00 0.  1.
</event>
<event>
 7    1  0.3141443E-011  0.5052886E+02  0.7816164E-02  0.1300439E+00
        -11   -1    0    0    0    0  0.00000000000E+00  0.00000000000E+00  0.45593999997E+02  0.45594000000E+02  0.51100000000E-03 0.  1.
         11   -1    0    0    0    0 -0.00000000000E+00 -0.00000000000E+00 -0.45593999997E+02  0.45594000000E+02  0.51100000000E-03 0. -1.
    9900012    2    1    2    0    0 -0.50613424400E+01  0.24763944939E+01  0.40266810896E+02  0.50528858633E+02  0.29999996300E+02 0.  0.
         12    1    1    2    0    0  0.50613424400E+01 -0.24763944939E+01 -0.40266810896E+02  0.40659141367E+02  0.00000000000E+00 0. -1.
         11    1    3    3    0    0 -0.82136906500E+00 -0.75608832762E+01  0.42071171052E+01  0.86914577405E+01  0.51100000000E-03 0. -1.
        -11    1    3    3    0    0 -0.17976462422E+01 -0.17990545129E+01  0.25968357134E+02  0.26092598599E+02  0.51100000000E-03 0.  1.
         12    1    3    3    0    0 -0.24423271328E+01  0.11836332283E+02  0.10091336657E+02  0.15744802293E+02  0.00000000000E+00 0. -1.
</event>
<event>
 7    1  0.3141443E-011  0.5052887E+02  0.7816164E-02  0.1300439E+00
        -11   -1    0    0    0    0  0.00000000000E+00  0.00000000000E+00  0.45593999997E+02  0.45594000000E+02  0.51100000000E-03 0. -1.
         11   -1    0    0    0    0 -0.00000000000E+00 -0.00000000000E+00 -0.45593999997E+02  0.45594000000E+02  0.51100000000E-03 0.  1.
    9900012    2    1    2    0    0  0.19080738574E+02  0.35871466171E+02 -0.15259643508E+01  0.50528865270E+02  0.30000016475E+02 0.  0.
         12    1    1    2    0    0 -0.19080738574E+02 -0.35871466171E+02  0.15259643508E+01  0.40659134730E+02  0.00000000000E+00 0. -1.
         11    1    3    3    0    0  0.19412825091E+02  0.11503429136E+02  0.69674883007E+01  0.23616361985E+02  0.51100000000E-03 0. -1.
        -11    1    3    3    0    0  0.32991839885E+01  0.64066021646E+01 -0.26628545796E+01  0.76824449923E+01  0.51100000000E-03 0.  1.
         12    1    3    3    0    0 -0.36312705052E+01  0.17961434870E+02 -0.58305980718E+01  0.19230058293E+02  0.00000000000E+00 0. -1.
</event>
<event>
 7    1  0.3141443E-011  0.5052887E+02  0.7816164E-02  0.1300439E+00
        -11   -1    0    0    0    0  0.00000000000E+00  0.00000000000E+00  0.45593999997E+02  0.45594000000E+02  0.51100000000E-03 0.  1.
         11   -1    0    0    0    0 -0.00000000000E+00 -0.00000000000E+00 -0.45593999997E+02  0.45594000000E+02  0.51100000000E-03 0. -1.
    9900012    2    1    2    0    0 -0.11793613626E+02  0.13531879716E+02  0.36482375104E+02  0.50528870838E+02  0.30000033398E+02 0.  0.
         12    1    1    2    0    0  0.11793613626E+02 -0.13531879716E+02 -0.36482375104E+02  0.40659129162E+02  0.00000000000E+00 0. -1.
         11    1    3    3    0    0  0.48084895796E+01  0.75533468263E+01  0.38694912653E+01  0.97543622666E+01  0.51100000000E-03 0. -1.
        -11    1    3    3    0    0 -0.35187436164E+01  0.68648027227E+01  0.23687406502E+02  0.24911850596E+02  0.51100000000E-03 0.  1.
         12    1    3    3    0    0 -0.13083359589E+02 -0.88626983276E+00  0.89254773369E+01  0.15862657975E+02  0.00000000000E+00 0. -1.
</event>
<event>
 7    1  0.3141443E-011  0.5052885E+02  0.7816164E-02  0.1300439E+00
        -11   -1    0    0    0    0  0.00000000000E+00  0.00000000000E+00  0.45593999997E+02  0.45594000000E+02  0.51100000000E-03 0. -1.
         11   -1    0    0    0    0 -0.00000000000E+00 -0.00000000000E+00 -0.45593999997E+02  0.45594000000E+02  0.51100000000E-03 0.  1.
    9900012    2    1    2    0    0  0.16502661064E+02 -0.35927721429E+02 -0.94882744412E+01  0.50528851691E+02  0.29999975201E+02 0.  0.
         12    1    1    2    0    0 -0.16502661064E+02  0.35927721429E+02  0.94882744412E+01  0.40659148309E+02  0.00000000000E+00 0. -1.
         11    1    3    3    0    0  0.18795131248E+02 -0.14006284726E+02 -0.12583064741E+02  0.26603881089E+02  0.51100000000E-03 0. -1.
        -11    1    3    3    0    0 -0.69794628026E-01 -0.67287979320E+01  0.50956186350E+01  0.84407892068E+01  0.51100000000E-03 0.  1.
        -12    1    3    3    0    0 -0.22226755561E+01 -0.15192638772E+02 -0.20008283353E+01  0.15484181396E+02  0.00000000000E+00 0.  1.
</event>
<event>
 7    1  0.3141443E-011  0.5052885E+02  0.7816164E-02  0.1300439E+00
        -11   -1    0    0    0    0  0.00000000000E+00  0.00000000000E+00  0.45593999997E+02  0.45594000000E+02  0.51100000000E-03 0.  1.
         11   -1    0    0    0    0 -0.00000000000E+00 -0.00000000000E+00 -0.45593999997E+02  0.45594000000E+02  0.51100000000E-03 0. -1.
    9900012    2    1    2    0    0 -0.24447597059E+02  0.86228130427E+01  0.31322966260E+02  0.50528854386E+02  0.29999983390E+02 0.  0.
         12    1    1    2    0    0  0.24447597059E+02 -0.86228130427E+01 -0.31322966260E+02  0.40659145614E+02  0.00000000000E+00 0. -1.
         11    1    3    3    0    0 -0.57292486739E+01  0.15315267663E+02  0.10736522130E+02  0.19561559797E+02  0.51100000000E-03 0. -1.
        -11    1    3    3    0    0 -0.61230432302E+00 -0.31476483548E+01 -0.15145408056E+00  0.32102251244E+01  0.51100000000E-03 0.  1.
        -12    1    3    3    0    0 -0.18106044062E+02 -0.35448062658E+01  0.20737898211E+02  0.27757069465E+02  0.00000000000E+00 0.  1.
</event>
<event>
 7    1  0.3141443E-011  0.5052886E+02  0.7816164E-02  0.1300439E+00
        -11   -1    0    0    0    0  0.00000000000E+00  0.00000000000E+00  0.45593999997E+02  0.45594000000E+02  0.51100000000E-03 0.  1.
         11   -1    0    0    0    0 -0.00000000000E+00 -0.00000000000E+00 -0.45593999997E+02  0.45594000000E+02  0.51100000000E-03 0. -1.
    9900012    2    1    2    0    0 -0.38523597593E+02  0.51336158167E+01  0.11947562351E+02  0.50528857990E+02  0.29999994346E+02 0.  0.
         12    1    1    2    0    0  0.38523597593E+02 -0.51336158167E+01 -0.11947562351E+02  0.40659142010E+02  0.00000000000E+00 0. -1.
         11    1    3    3    0    0  0.52537702939E+00  0.89113748128E+01  0.78485326037E+00  0.89612843376E+01  0.51100000000E-03 0. -1.
        -11    1    3    3    0    0 -0.16656334116E+02  0.22299174074E+01  0.36557178863E+01  0.17197972885E+02  0.51100000000E-03 0.  1.
        -12    1    3    3    0    0 -0.22392640507E+02 -0.60076764035E+01  0.75069912042E+01  0.24369600768E+02  0.00000000000E+00 0.  1.
</event>
<event>
 7    1  0.3141443E-011  0.5052882E+02  0.7816164E-02  0.1300439E+00
        -11   -1    0    0    0    0  0.00000000000E+00  0.00000000000E+00  0.45593999997E+02  0.45594000000E+02  0.51100000000E-03 0. -1.
         11   -1    0    0    0    0 -0.00000000000E+00 -0.00000000000E+00 -0.45593999997E+02  0.45594000000E+02  0.51100000000E-03 0.  1.
    9900012    2    1    2    0    0 -0.35662943744E+02  0.96658713102E+01  0.16967441886E+02  0.50528822576E+02  0.29999886701E+02 0.  0.
         12    1    1    2    0    0  0.35662943744E+02 -0.96658713102E+01 -0.16967441886E+02  0.40659177424E+02  0.00000000000E+00 0. -1.
         11    1    3    3    0    0  0.17244924724E+01 -0.23286669423E+01  0.77134565792E+01  0.82397801352E+01  0.51100000000E-03 0. -1.
        -11    1    3    3    0    0 -0.10058382645E+02 -0.21978399088E+01  0.65508604502E+00  0.10316525563E+02  0.51100000000E-03 0.  1.
         12    1    3    3    0    0 -0.27329053571E+02  0.14192378161E+02  0.85988992614E+01  0.31972516877E+02  0.00000000000E+00 0. -1.
</event>
<event>
 7    1  0.3141443E-011  0.5052886E+02  0.7816164E-02  0.1300439E+00
        -11   -1    0    0    0    0  0.00000000000E+00  0.00000000000E+00  0.45593999997E+02  0.45594000000E+02  0.51100000000E-03 0.  1.
         11   -1    0    0    0    0 -0.00000000000E+00 -0.00000000000E+00 -0.45593999997E+02  0.45594000000E+02  0.51100000000E-03 0. -1.
    9900012    2    1    2    0    0  0.24172610562E+02  0.68675920233E+01  0.31963834463E+02  0.50528860374E+02  0.30000001593E+02 0.  0.
         12    1    1    2    0    0 -0.24172610562E+02 -0.68675920233E+01 -0.31963834463E+02  0.40659139626E+02  0.00000000000E+00 0. -1.
         11    1    3    3    0    0  0.53616517003E+01  0.78515487817E+00 -0.33315823307E+01  0.63610705251E+01  0.51100000000E-03 0. -1.
        -11    1    3    3    0    0 -0.28831986536E+01  0.29461997673E+01  0.92442066361E+01  0.10121673979E+02  0.51100000000E-03 0.  1.
        -12    1    3    3    0    0  0.21694157515E+02  0.31362373778E+01  0.26051210157E+02  0.34046115870E+02  0.00000000000E+00 0.  1.
</event>
<event>
 7    1  0.3141443E-011  0.5052886E+02  0.7816164E-02  0.1300439E+00
        -11   -1    0    0    0    0  0.00000000000E+00  0.00000000000E+00  0.45593999997E+02  0.45594000000E+02  0.51100000000E-03 0. -1.
         11   -1    0    0    0    0 -0.00000000000E+00 -0.00000000000E+00 -0.45593999997E+02  0.45594000000E+02  0.51100000000E-03 0.  1.
    9900012    2    1    2    0    0 -0.63041952013E+00  0.34105747430E+02 -0.22126143601E+02  0.50528859980E+02  0.30000000395E+02 0.  0.
         12    1    1    2    0    0  0.63041952013E+00 -0.34105747430E+02  0.22126143601E+02  0.40659140020E+02  0.00000000000E+00 0. -1.
         11    1    3    3    0    0  0.76465284073E+01  0.18950325428E+02 -0.94492168605E-01  0.20435096269E+02  0.51100000000E-03 0. -1.
        -11    1    3    3    0    0 -0.61896904342E+01  0.25723462921E+01 -0.34041840312E+01  0.75178256362E+01  0.51100000000E-03 0.  1.
        -12    1    3    3    0    0 -0.20872574933E+01  0.12583075710E+02 -0.18627467401E+02  0.22575938075E+02  0.00000000000E+00 0.  1.
</event>
<event>
 7    1  0.3171849E-011  0.5052886E+02  0.7816164E-02  0.1300439E+00
        -11   -1    0    0    0    0  0.00000000000E+00  0.00000000000E+00  0.45593999997E+02  0.45594000000E+02  0.51100000000E-03 0. -1.
         11   -1    0    0    0    0 -0.00000000000E+00 -0.00000000000E+00 -0.45593999997E+02  0.45594000000E+02  0.51100000000E-03 0.  1.
    9900012    2    1    2    0    0 -0.33698145211E+02 -0.19538660101E+02 -0.11655108542E+02  0.50528858539E+02  0.29999996016E+02 0.  0.
         12    1    1    2    0    0  0.33698145211E+02  0.19538660101E+02  0.11655108542E+02  0.40659141461E+02  0.00000000000E+00 0. -1.
         11    1    3    3    0    0  0.12914524795E+01 -0.76734994974E+01  0.32223762290E+01  0.84222415583E+01  0.51100000000E-03 0. -1.
        -11    1    3    3    0    0 -0.11141084345E+02  0.14937329380E+01 -0.57419380328E+00  0.11255429679E+02  0.51100000000E-03 0.  1.
        -12    1    3    3    0    0 -0.23848513346E+02 -0.13358893542E+02 -0.14303290968E+02  0.30851187302E+02  0.00000000000E+00 0.  1.
</event>
<event>
 7    1  0.3141443E-011  0.5052887E+02  0.7816164E-02  0.1300439E+00
        -11   -1    0    0    0    0  0.00000000000E+00  0.00000000000E+00  0.45593999997E+02  0.45594000000E+02  0.51100000000E-03 0.  1.
         11   -1    0    0    0    0 -0.00000000000E+00 -0.00000000000E+00 -0.45593999997E+02  0.45594000000E+02  0.51100000000E-03 0. -1.
    9900012    2    1    2    0    0  0.14199084394E+01 -0.11958284377E+02  0.38834886621E+02  0.50528866659E+02  0.30000020696E+02 0.  0.
         12    1    1    2    0    0 -0.14199084394E+01  0.11958284377E+02 -0.38834886621E+02  0.40659133341E+02  0.00000000000E+00 0. -1.
         11    1    3    3    0    0  0.90725265195E+00  0.40999036051E+01  0.30098005065E+01  0.51663542557E+01  0.51100000000E-03 0. -1.
        -11    1    3    3    0    0  0.36754893513E+01 -0.91367671330E+01  0.12118412267E+01  0.99226153324E+01  0.51100000000E-03 0.  1.
        -12    1    3    3    0    0 -0.31628335638E+01 -0.69214208490E+01  0.34613244888E+02  0.35439897071E+02  0.00000000000E+00 0.  1.
</event>
<event>
 7    1  0.3141443E-011  0.5052886E+02  0.7816164E-02  0.1300439E+00
        -11   -1    0    0    0    0  0.00000000000E+00  0.00000000000E+00  0.45593999997E+02  0.45594000000E+02  0.51100000000E-03 0.  1.
         11   -1    0    0    0    0 -0.00000000000E+00 -0.00000000000E+00 -0.45593999997E+02  0.45594000000E+02  0.51100000000E-03 0. -1.
    9900012    2    1    2    0    0  0.11289601463E+02  0.88546164573E+01  0.38043480808E+02  0.50528858767E+02  0.29999996708E+02 0.  0.
         12    1    1    2    0    0 -0.11289601463E+02 -0.88546164573E+01 -0.38043480808E+02  0.40659141233E+02  0.00000000000E+00 0. -1.
         11    1    3    3    0    0  0.69110267185E+01  0.95513491059E+00  0.54771124537E+01  0.88697989883E+01  0.51100000000E-03 0. -1.
        -11    1    3    3    0    0  0.24288529137E+01 -0.87868023916E+01  0.10095328500E+02  0.13602311588E+02  0.51100000000E-03 0.  1.
        -12    1    3    3    0    0  0.19497218306E+01  0.16686283938E+02  0.22471039855E+02  0.28056748191E+02  0.00000000000E+00 0.  1.
</event>
<event>
 7    1  0.3141443E-011  0.5052887E+02  0.7816164E-02  0.1300439E+00
        -11   -1    0    0    0    0  0.00000000000E+00  0.00000000000E+00  0.45593999997E+02  0.45594000000E+02  0.51100000000E-03 0.  1.
         11   -1    0    0    0    0 -0.00000000000E+00 -0.00000000000E+00 -0.45593999997E+02  0.45594000000E+02  0.51100000000E-03 0. -1.
    9900012    2    1    2    0    0 -0.63993078478E+01  0.13634839100E+02  0.37766454715E+02  0.50528867201E+02  0.30000022345E+02 0.  0.
         12    1    1    2    0    0  0.63993078478E+01 -0.13634839100E+02 -0.37766454715E+02  0.40659132799E+02  0.00000000000E+00 0. -1.
         11    1    3    3    0    0 -0.49959308844E+01  0.70511465878E+01 -0.94803091158E+00  0.86934893152E+01  0.51100000000E-03 0. -1.
        -11    1    3    3    0    0 -0.19077804383E+01  0.82876697090E+01  0.10264104183E+02  0.13329551018E+02  0.51100000000E-03 0.  1.
         12    1    3    3    0    0  0.50440347483E+00 -0.17039771967E+01  0.28450381443E+02  0.28505826868E+02  0.00000000000E+00 0. -1.
</event>
<event>
 7    1  0.3141443E-011  0.5052885E+02  0.7816164E-02  0.1300439E+00
        -11   -1    0    0    0    0  0.00000000000E+00  0.00000000000E+00  0.45593999997E+02  0.45594000000E+02  0.51100000000E-03 0. -1.
         11   -1    0    0    0    0 -0.00000000000E+00 -0.00000000000E+00 -0.45593999997E+02  0.45594000000E+02  0.51100000000E-03 0.  1.
    9900012    2    1    2    0    0 -0.26340074637E+02 -0.30649441671E+02 -0.44697118029E+01  0.50528854286E+02  0.29999983086E+02 0.  0.
         12    1    1    2    0    0  0.26340074637E+02  0.30649441671E+02  0.44697118029E+01  0.40659145714E+02  0.00000000000E+00 0. -1.
         11    1    3    3    0    0 -0.14662780345E+02 -0.19501143551E+02 -0.29108827834E+01  0.24571629293E+02  0.51100000000E-03 0. -1.
        -11    1    3    3    0    0 -0.87469239175E+00 -0.11485119891E+02  0.57859036378E+01  0.12889908722E+02  0.51100000000E-03 0.  1.
         12    1    3    3    0    0 -0.10802601900E+02  0.33682177127E+00 -0.73447326573E+01  0.13067316271E+02  0.00000000000E+00 0. -1.
</event>
<event>
 7    1  0.3141443E-011  0.5052886E+02  0.7816164E-02  0.1300439E+00
        -11   -1    0    0    0    0  0.00000000000E+00  0.00000000000E+00  0.45593999997E+02  0.45594000000E+02  0.51100000000E-03 0. -1.
         11   -1    0    0    0    0 -0.00000000000E+00 -0.00000000000E+00 -0.45593999997E+02  0.45594000000E+02  0.51100000000E-03 0.  1.
    9900012    2    1    2    0    0 -0.16635870713E+02  0.68654763935E+01 -0.36459279531E+02  0.50528855587E+02  0.29999987043E+02 0.  0.
         12    1    1    2    0    0  0.16635870713E+02 -0.68654763935E+01  0.36459279531E+02  0.40659144413E+02  0.00000000000E+00 0. -1.
         11    1    3    3    0    0 -0.35208570585E+01 -0.30680580584E+01  0.11080304982E+01  0.47997027535E+01  0.51100000000E-03 0. -1.
        -11    1    3    3    0    0 -0.13087555651E+02 -0.25722747770E+01 -0.22407839172E+02  0.26077039078E+02  0.51100000000E-03 0.  1.
         12    1    3    3    0    0 -0.27458003740E-01  0.12505809229E+02 -0.15159470857E+02  0.19652113756E+02  0.00000000000E+00 0. -1.
</event>
<event>
 7    1  0.3141443E-011  0.5052885E+02  0.7816164E-02  0.1300439E+00
        -11   -1    0    0    0    0  0.00000000000E+00  0.00000000000E+00  0.45593999997E+02  0.45594000000E+02  0.51100000000E-03 0. -1.
         11   -1    0    0    0    0 -0.00000000000E+00 -0.00000000000E+00 -0.45593999997E+02  0.45594000000E+02  0.51100000000E-03 0.  1.
    9900012    2    1    2    0    0 -0.35961471330E+02  0.15306317902E+02  0.11209613381E+02  0.50528853180E+02  0.29999979727E+02 0.  0.
         12    1    1    2    0    0  0.35961471330E+02 -0.15306317902E+02 -0.11209613381E+02  0.40659146820E+02  0.00000000000E+00 0. -1.
         11    1    3    3    0    0 -0.10364231081E+02  0.50913809728E+01  0.41808481327E+01  0.12280836188E+02  0.51100000000E-03 0. -1.
        -11    1    3    3    0    0 -0.69916415294E+01  0.16017320140E+02 -0.15320694043E+00  0.17477444560E+02  0.51100000000E-03 0.  1.
        -12    1    3    3    0    0 -0.18605598720E+02 -0.58023832103E+01  0.71819721883E+01  0.20770572432E+02  0.00000000000E+00 0.  1.
</event>
<event>
 7    1  0.3141443E-011  0.5052886E+02  0.7816164E-02  0.1300439E+00
        -11   -1    0    0    0    0  0.00000000000E+00  0.00000000000E+00  0.45593999997E+02  0.45594000000E+02  0.51100000000E-03 0.  1.
         11   -1    0    0    0    0 -0.00000000000E+00 -0.00000000000E+00 -0.45593999997E+02  0.45594000000E+02  0.51100000000E-03 0. -1.
    9900012    2    1    2    0    0  0.32515867703E+02 -0.21608406576E+02  0.11356087737E+02  0.50528860610E+02  0.30000002311E+02 0.  0.
         12    1    1    2    0    0 -0.32515867703E+02  0.21608406576E+02 -0.11356087737E+02  0.40659139390E+02  0.00000000000E+00 0. -1.
         11    1    3    3    0    0  0.14435436846E+02 -0.98521915658E+01 -0.49584837642E+01  0.18166840042E+02  0.51100000000E-03 0. -1.
        -11    1    3    3    0    0  0.11637387488E+02  0.25644105685E+01  0.46127295019E+01  0.12778194819E+02  0.51100000000E-03 0.  1.
         12    1    3    3    0    0  0.64430433683E+01 -0.14320625578E+02  0.11701842000E+02  0.19583825750E+02  0.00000000000E+00 0. -1.
</event>
<event>
 7    1  0.3141443E-011  0.5052886E+02  0.7816164E-02  0.1300439E+00
        -11   -1    0    0    0    0  0.00000000000E+00  0.00000000000E+00  0.45593999997E+02  0.45594000000E+02  0.51100000000E-03 0.  1.
         11   -1    0    0    0    0 -0.00000000000E+00 -0.00000000000E+00 -0.45593999997E+02  0.45594000000E+02  0.51100000000E-03 0. -1.
    9900012    2    1    2    0    0 -0.71768340432E+01 -0.12559132798E+02  0.37999042005E+02  0.50528856418E+02  0.29999989568E+02 0.  0.
         12    1    1    2    0    0  0.71768340432E+01  0.12559132798E+02 -0.37999042005E+02  0.40659143582E+02  0.00000000000E+00 0. -1.
         11    1    3    3    0    0  0.68065714343E+00 -0.34324393013E+01 -0.25066302783E+01  0.43044313581E+01  0.51100000000E-03 0. -1.
        -11    1    3    3    0    0  0.48257728915E+01  0.33941109872E+00  0.18478177085E+02  0.19100950566E+02  0.51100000000E-03 0.  1.
         12    1    3    3    0    0 -0.12683264078E+02 -0.94661045950E+01  0.22027495198E+02  0.27123474493E+02  0.00000000000E+00 0. -1.
</event>
<event>
 7    1  0.3141443E-011  0.5052884E+02  0.7816164E-02  0.1300439E+00
        -11   -1    0    0    0    0  0.00000000000E+00  0.00000000000E+00  0.45593999997E+02  0.45594000000E+02  0.51100000000E-03 0.  1.
         11   -1    0    0    0    0 -0.00000000000E+00 -0.00000000000E+00 -0.45593999997E+02  0.45594000000E+02  0.51100000000E-03 0. -1.
    9900012    2    1    2    0    0 -0.62225069558E+01 -0.14558200314E+01  0.40153806183E+02  0.50528841674E+02  0.29999944754E+02 0.  0.
         12    1    1    2    0    0  0.62225069558E+01  0.14558200314E+01 -0.40153806183E+02  0.40659158326E+02  0.00000000000E+00 0. -1.
         11    1    3    3    0    0 -0.47025516037E+00  0.87101696097E+01  0.58336821745E+01  0.10493809724E+02  0.51100000000E-03 0. -1.
        -11    1    3    3    0    0  0.26594718041E+01  0.23135603591E+01  0.15712514786E+02  0.16103057876E+02  0.51100000000E-03 0.  1.
        -12    1    3    3    0    0 -0.84117235995E+01 -0.12479550000E+02  0.18607609223E+02  0.23931974075E+02  0.00000000000E+00 0.  1.
</event>
<event>
 7    1  0.3778666E-011  0.5052885E+02  0.7816164E-02  0.1300439E+00
        -11   -1    0    0    0    0  0.00000000000E+00  0.00000000000E+00  0.45593999997E+02  0.45594000000E+02  0.51100000000E-03 0. -1.
         11   -1    0    0    0    0 -0.00000000000E+00 -0.00000000000E+00 -0.45593999997E+02  0.45594000000E+02  0.51100000000E-03 0.  1.
    9900012    2    1    2    0    0 -0.53505397910E+01 -0.40284524660E+02  0.13019539071E+01  0.50528852356E+02  0.29999977222E+02 0.  0.
         12    1    1    2    0    0  0.53505397910E+01  0.40284524660E+02 -0.13019539071E+01  0.40659147644E+02  0.00000000000E+00 0. -1.
         11    1    3    3    0    0 -0.88432101577E+01 -0.75163042892E+01  0.18456509144E+01  0.11751749811E+02  0.51100000000E-03 0. -1.
        -11    1    3    3    0    0  0.25717771982E+01  0.17279133770E+01  0.27091229027E+01  0.41157101160E+01  0.51100000000E-03 0.  1.
        -12    1    3    3    0    0  0.92089316851E+00 -0.34496133748E+02 -0.32528199100E+01  0.34661392429E+02  0.00000000000E+00 0.  1.
</event>
<event>
 7    1  0.3141443E-011  0.5052881E+02  0.7816164E-02  0.1300439E+00
        -11   -1    0    0    0    0  0.00000000000E+00  0.00000000000E+00  0.45593999997E+02  0.45594000000E+02  0.51100000000E-03 0.  1.
         11   -1    0    0    0    0 -0.00000000000E+00 -0.00000000000E+00 -0.45593999997E+02  0.45594000000E+02  0.51100000000E-03 0. -1.
    9900012    2    1    2    0    0  0.40321040052E+02 -0.52065701924E+01  0.52452946781E+00  0.50528809462E+02  0.29999846841E+02 0.  0.
         12    1    1    2    0    0 -0.40321040052E+02  0.52065701924E+01 -0.52452946781E+00  0.40659190538E+02  0.00000000000E+00 0. -1.
         11    1    3    3    0    0  0.45119985453E+01 -0.60742616825E+01  0.31162131983E+01  0.81832494046E+01  0.51100000000E-03 0. -1.
        -11    1    3    3    0    0  0.33512105591E+02 -0.12419077934E+00  0.54240391973E+01  0.33948443940E+02  0.51100000000E-03 0.  1.
         12    1    3    3    0    0  0.22969359158E+01  0.99188226946E+00 -0.80157229278E+01  0.83971161176E+01  0.00000000000E+00 0. -1.
</event>
<event>
 7    1  0.3141443E-011  0.5052886E+02  0.7816164E-02  0.1300439E+00
        -11   -1    0    0    0    0  0.00000000000E+00  0.00000000000E+00  0.45593999997E+02  0.45594000000E+02  0.51100000000E-03 0.  1.
         11   -1    0    0    0    0 -0.00000000000E+00 -0.00000000000E+00 -0.45593999997E+02  0.45594000000E+02  0.51100000000E-03 0. -1.
    9900012    2    1    2    0    0  0.23649967004E+02  0.26095986179E+02  0.20318564428E+02  0.50528862105E+02  0.30000006854E+02 0.  0.
         12    1    1    2    0    0 -0.23649967004E+02 -0.26095986179E+02 -0.20318564428E+02  0.40659137895E+02  0.00000000000E+00 0. -1.
         11    1    3    3    0    0  0.64601420385E+01  0.19152243552E+02 -0.22566587550E+00  0.20213678378E+02  0.51100000000E-03 0.  1.
        -11    1    3    3    0    0  0.35531764988E+01  0.49614044797E+01  0.13552195366E+02  0.14862792374E+02  0.51100000000E-03 0. -1.
        -12    1    3    3    0    0  0.13636648467E+02  0.19823381468E+01  0.69920349373E+01  0.15452391352E+02  0.00000000000E+00 0.  1.
</event>
<event>
 7    1  0.3528620E-011  0.5052886E+02  0.7816164E-02  0.1300439E+00
        -11   -1    0    0    0    0  0.00000000000E+00  0.00000000000E+00  0.45593999997E+02  0.45594000000E+02  0.51100000000E-03 0. -1.
         11   -1    0    0    0    0 -0.00000000000E+00 -0.00000000000E+00 -0.45593999997E+02  0.45594000000E+02  0.51100000000E-03 0.  1.
    9900012    2    1    2    0    0 -0.17504108935E+02 -0.89871812258E+01 -0.35580926131E+02  0.50528861294E+02  0.30000004388E+02 0.  0.
         12    1    1    2    0    0  0.17504108935E+02  0.89871812258E+01  0.35580926131E+02  0.40659138706E+02  0.00000000000E+00 0. -1.
         11    1    3    3    0    0 -0.10223071455E+02  0.31388256413E+00 -0.17423485835E+01  0.10375234507E+02  0.51100000000E-03 0. -1.
        -11    1    3    3    0    0 -0.10321541635E+02  0.14344907849E+01 -0.15158247807E+02  0.18394685710E+02  0.51100000000E-03 0.  1.
        -12    1    3    3    0    0  0.30405041544E+01 -0.10735554575E+02 -0.18680329741E+02  0.21758941077E+02  0.00000000000E+00 0.  1.
</event>
<event>
 7    1  0.3141443E-011  0.5052886E+02  0.7816164E-02  0.1300439E+00
        -11   -1    0    0    0    0  0.00000000000E+00  0.00000000000E+00  0.45593999997E+02  0.45594000000E+02  0.51100000000E-03 0.  1.
         11   -1    0    0    0    0 -0.00000000000E+00 -0.00000000000E+00 -0.45593999997E+02  0.45594000000E+02  0.51100000000E-03 0. -1.
    9900012    2    1    2    0    0 -0.19974157611E+02 -0.18183294207E+02  0.30390235453E+02  0.50528861158E+02  0.30000003976E+02 0.  0.
         12    1    1    2    0    0  0.19974157611E+02  0.18183294207E+02 -0.30390235453E+02  0.40659138842E+02  0.00000000000E+00 0. -1.
         11    1    3    3    0    0 -0.67661465683E+01 -0.31521962025E+01 -0.38313789496E+01  0.83902649064E+01  0.51100000000E-03 0.  1.
        -11    1    3    3    0    0 -0.24084578974E+00 -0.13420532210E+01 -0.13245689786E+01  0.19009462861E+01  0.51100000000E-03 0. -1.
        -12    1    3    3    0    0 -0.12967165253E+02 -0.13689044784E+02  0.35546183381E+02  0.40237649965E+02  0.00000000000E+00 0.  1.
</event>
<event>
 7    1  0.3141443E-011  0.5052886E+02  0.7816164E-02  0.1300439E+00
        -11   -1    0    0    0    0  0.00000000000E+00  0.00000000000E+00  0.45593999997E+02  0.45594000000E+02  0.51100000000E-03 0.  1.
         11   -1    0    0    0    0 -0.00000000000E+00 -0.00000000000E+00 -0.45593999997E+02  0.45594000000E+02  0.51100000000E-03 0. -1.
    9900012    2    1    2    0    0  0.32007528221E+02 -0.18977326523E+02  0.16387334631E+02  0.50528861776E+02  0.30000005856E+02 0.  0.
         12    1    1    2    0    0 -0.32007528221E+02  0.18977326523E+02 -0.16387334631E+02  0.40659138224E+02  0.00000000000E+00 0. -1.
         11    1    3    3    0    0  0.30033482199E+02 -0.14224876695E+02  0.24534765814E+00  0.33232775474E+02  0.51100000000E-03 0. -1.
        -11    1    3    3    0    0 -0.83396798679E+00 -0.74772295605E+00  0.50640394451E+01  0.51864330695E+01  0.51100000000E-03 0.  1.
        -12    1    3    3    0    0  0.28080140088E+01 -0.40047268719E+01  0.11077947527E+02  0.12109653232E+02  0.00000000000E+00 0.  1.
</event>
<event>
 7    1  0.3141443E-011  0.5052887E+02  0.7816164E-02  0.1300439E+00
        -11   -1    0    0    0    0  0.00000000000E+00  0.00000000000E+00  0.45593999997E+02  0.45594000000E+02  0.51100000000E-03 0. -1.
         11   -1    0    0    0    0 -0.00000000000E+00 -0.00000000000E+00 -0.45593999997E+02  0.45594000000E+02  0.51100000000E-03 0.  1.
    9900012    2    1    2    0    0  0.30333669739E+02 -0.89130177364E+01 -0.25565436869E+02  0.50528868587E+02  0.30000026557E+02 0.  0.
         12    1    1    2    0    0 -0.30333669739E+02  0.89130177364E+01  0.25565436869E+02  0.40659131413E+02  0.00000000000E+00 0. -1.
         11    1    3    3    0    0  0.36953635068E+00  0.14675574303E+01 -0.24520267777E+00  0.15331035647E+01  0.51100000000E-03 0. -1.
        -11    1    3    3    0    0  0.33937442707E+02 -0.52201434132E+01 -0.25002824738E+02  0.42475182871E+02  0.51100000000E-03 0.  1.
         12    1    3    3    0    0 -0.39733093196E+01 -0.51604317535E+01 -0.31740945351E+00  0.65205821514E+01  0.00000000000E+00 0. -1.
</event>
<event>
 7    1  0.3141443E-011  0.5052886E+02  0.7816164E-02  0.1300439E+00
        -11   -1    0    0    0    0  0.00000000000E+00  0.00000000000E+00  0.45593999997E+02  0.45594000000E+02  0.51100000000E-03 0. -1.
         11   -1    0    0    0    0 -0.00000000000E+00 -0.00000000000E+00 -0.45593999997E+02  0.45594000000E+02  0.51100000000E-03 0.  1.
    9900012    2    1    2    0    0 -0.28484882303E+01  0.75256017770E+01 -0.39854955329E+02  0.50528855498E+02  0.29999986773E+02 0.  0.
         12    1    1    2    0    0  0.28484882303E+01 -0.75256017770E+01  0.39854955329E+02  0.40659144502E+02  0.00000000000E+00 0. -1.
         11    1    3    3    0    0  0.70104306217E+01  0.34305611234E+01 -0.48681706078E+01  0.91985853505E+01  0.51100000000E-03 0. -1.
        -11    1    3    3    0    0  0.24055893299E+01  0.16428385601E+01 -0.25413057967E+02  0.25579470167E+02  0.51100000000E-03 0.  1.
         12    1    3    3    0    0 -0.12264508182E+02  0.24522020935E+01 -0.95737267550E+01  0.15750799981E+02  0.00000000000E+00 0. -1.
</event>
<event>
 7    1  0.3141443E-011  0.5052886E+02  0.7816164E-02  0.1300439E+00
        -11   -1    0    0    0    0  0.00000000000E+00  0.00000000000E+00  0.45593999997E+02  0.45594000000E+02  0.51100000000E-03 0. -1.
         11   -1    0    0    0    0 -0.00000000000E+00 -0.00000000000E+00 -0.45593999997E+02  0.45594000000E+02  0.51100000000E-03 0.  1.
    9900012    2    1    2    0    0 -0.40416613170E+01 -0.29340283941E+02 -0.27856393270E+02  0.50528856699E+02  0.29999990422E+02 0.  0.
         12    1    1    2    0    0  0.40416613170E+01  0.29340283941E+02  0.27856393270E+02  0.40659143301E+02  0.00000000000E+00 0. -1.
         11    1    3    3    0    0  0.23507247259E+01 -0.26824635763E+00 -0.33019342818E+01  0.40620971318E+01  0.51100000000E-03 0. -1.
        -11    1    3    3    0    0  0.13403273709E+01 -0.17148265387E+02  0.99650052410E+00  0.17229407906E+02  0.51100000000E-03 0.  1.
        -12    1    3    3    0    0 -0.77327134138E+01 -0.11923772197E+02 -0.25550959512E+02  0.29237351661E+02  0.00000000000E+00 0.  1.
</event>
<event>
 7    1  0.3141443E-011  0.5052887E+02  0.7816164E-02  0.1300439E+00
        -11   -1    0    0    0    0  0.00000000000E+00  0.00000000000E+00  0.45593999997E+02  0.45594000000E+02  0.51100000000E-03 0.  1.
         11   -1    0    0    0    0 -0.00000000000E+00 -0.00000000000E+00 -0.45593999997E+02  0.45594000000E+02  0.51100000000E-03 0. -1.
    9900012    2    1    2    0    0 -0.35857168543E+02 -0.26258966899E+01 -0.18987706652E+02  0.50528869743E+02  0.30000030071E+02 0.  0.
         12    1    1    2    0    0  0.35857168543E+02  0.26258966899E+01  0.18987706652E+02  0.40659130257E+02  0.00000000000E+00 0. -1.
         11    1    3    3    0    0 -0.94802089398E+01  0.44877008575E+01 -0.12611596467E+02  0.16403237066E+02  0.51100000000E-03 0. -1.
        -11    1    3    3    0    0 -0.13285514152E+02  0.63666931683E+01 -0.26503752691E+01  0.14968772746E+02  0.51100000000E-03 0.  1.
        -12    1    3    3    0    0 -0.13091445451E+02 -0.13480290716E+02 -0.37257349156E+01  0.19156859932E+02  0.00000000000E+00 0.  1.
</event>
<event>
 7    1  0.3141443E-011  0.5052886E+02  0.7816164E-02  0.1300439E+00
        -11   -1    0    0    0    0  0.00000000000E+00  0.00000000000E+00  0.45593999997E+02  0.45594000000E+02  0.51100000000E-03 0. -1.
         11   -1    0    0    0    0 -0.00000000000E+00 -0.00000000000E+00 -0.45593999997E+02  0.45594000000E+02  0.51100000000E-03 0.  1.
    9900012    2    1    2    0    0 -0.40644197717E+02  0.29718154773E+00  0.10612437399E+01  0.50528863718E+02  0.30000011758E+02 0.  0.
         12    1    1    2    0    0  0.40644197717E+02 -0.29718154773E+00 -0.10612437399E+01  0.40659136282E+02  0.00000000000E+00 0. -1.
         11    1    3    3    0    0 -0.19749307853E+02 -0.11897891135E+02 -0.44817845706E+01  0.23487898317E+02  0.51100000000E-03 0.  1.
        -11    1    3    3    0    0 -0.93986213266E+01  0.16234644368E+01  0.62563467064E+01  0.11406646921E+02  0.51100000000E-03 0. -1.
        -12    1    3    3    0    0 -0.11496268538E+02  0.10571608246E+02 -0.71331839581E+00  0.15634318480E+02  0.00000000000E+00 0.  1.
</event>
<event>
 7    1  0.3141443E-011  0.5052874E+02  0.7816164E-02  0.1300439E+00
        -11   -1    0    0    0    0  0.00000000000E+00  0.00000000000E+00  0.45593999997E+02  0.45594000000E+02  0.51100000000E-03 0.  1.
         11   -1    0    0    0    0 -0.00000000000E+00 -0.00000000000E+00 -0.45593999997E+02  0.45594000000E+02  0.51100000000E-03 0. -1.
    9900012    2    1    2    0    0 -0.26854770137E+02 -0.93596055264E+01  0.29058472371E+02  0.50528736465E+02  0.29999624956E+02 0.  0.
         12    1    1    2    0    0  0.26854770137E+02  0.93596055264E+01 -0.29058472371E+02  0.40659263535E+02  0.00000000000E+00 0. -1.
         11    1    3    3    0    0  0.11000224142E+01  0.10030760812E+01 -0.33609210925E+01  0.36758674877E+01  0.51100000000E-03 0. -1.
        -11    1    3    3    0    0 -0.88815006754E+01 -0.69768137007E+01  0.30997213329E+01  0.11711757181E+02  0.51100000000E-03 0.  1.
        -12    1    3    3    0    0 -0.19073291876E+02 -0.33858679069E+01  0.29319672130E+02  0.35141111796E+02  0.00000000000E+00 0.  1.
</event>
<event>
 7    1  0.3141443E-011  0.5052886E+02  0.7816164E-02  0.1300439E+00
        -11   -1    0    0    0    0  0.00000000000E+00  0.00000000000E+00  0.45593999997E+02  0.45594000000E+02  0.51100000000E-03 0.  1.
         11   -1    0    0    0    0 -0.00000000000E+00 -0.00000000000E+00 -0.45593999997E+02  0.45594000000E+02  0.51100000000E-03 0. -1.
    9900012    2    1    2    0    0 -0.21176332634E+01 -0.11378655573E+02  0.38977009839E+02  0.50528862414E+02  0.30000007792E+02 0.  0.
         12    1    1    2    0    0  0.21176332634E+01  0.11378655573E+02 -0.38977009839E+02  0.40659137586E+02  0.00000000000E+00 0. -1.
         11    1    3    3    0    0 -0.88808791711E+01  0.28064545987E+01  0.12172449204E+02  0.15326928008E+02  0.51100000000E-03 0.  1.
        -11    1    3    3    0    0  0.55908616837E+01 -0.93377313592E+00  0.45735651583E+00  0.56867250575E+01  0.51100000000E-03 0. -1.
         12    1    3    3    0    0  0.11723842240E+01 -0.13251337035E+02  0.26347204119E+02  0.29515209348E+02  0.00000000000E+00 0. -1.
</event>
<event>
 7    1  0.3141443E-011  0.5052886E+02  0.7816164E-02  0.1300439E+00
        -11   -1    0    0    0    0  0.00000000000E+00  0.00000000000E+00  0.45593999997E+02  0.45594000000E+02  0.51100000000E-03 0. -1.
         11   -1    0    0    0    0 -0.00000000000E+00 -0.00000000000E+00 -0.45593999997E+02  0.45594000000E+02  0.51100000000E-03 0.  1.
    9900012    2    1    2    0    0 -0.34271361094E+02 -0.15033777622E+02 -0.15894190654E+02  0.50528856412E+02  0.29999989549E+02 0.  0.
         12    1    1    2    0    0  0.34271361094E+02  0.15033777622E+02  0.15894190654E+02  0.40659143588E+02  0.00000000000E+00 0. -1.
         11    1    3    3    0    0 -0.52098388993E+01 -0.11959572170E+02 -0.14556675865E+01  0.13126033530E+02  0.51100000000E-03 0. -1.
        -11    1    3    3    0    0 -0.16976601539E+02 -0.90819751679E+01 -0.14167748314E+02  0.23904233209E+02  0.51100000000E-03 0.  1.
        -12    1    3    3    0    0 -0.12084920656E+02  0.60077697151E+01 -0.27077475328E+00  0.13498589673E+02  0.00000000000E+00 0.  1.
</event>
<event>
 7    1  0.3141443E-011  0.5052886E+02  0.7816164E-02  0.1300439E+00
        -11   -1    0    0    0    0  0.00000000000E+00  0.00000000000E+00  0.45593999997E+02  0.45594000000E+02  0.51100000000E-03 0. -1.
         11   -1    0    0    0    0 -0.00000000000E+00 -0.00000000000E+00 -0.45593999997E+02  0.45594000000E+02  0.51100000000E-03 0.  1.
    9900012    2    1    2    0    0 -0.32335650732E+01 -0.15388125500E+02 -0.37495538198E+02  0.50528859155E+02  0.29999997889E+02 0.  0.
         12    1    1    2    0    0  0.32335650732E+01  0.15388125500E+02  0.37495538198E+02  0.40659140845E+02  0.00000000000E+00 0. -1.
         11    1    3    3    0    0 -0.29847213144E+01  0.44353363357E+01 -0.10799154028E+02  0.12049999905E+02  0.51100000000E-03 0. -1.
        -11    1    3    3    0    0  0.12625694953E+01  0.37877431173E+01 -0.47815702655E+01  0.62293253342E+01  0.51100000000E-03 0.  1.
         12    1    3    3    0    0 -0.15114132541E+01 -0.23611204953E+02 -0.21914813905E+02  0.32249533916E+02  0.00000000000E+00 0. -1.
</event>
<event>
 7    1  0.3141443E-011  0.5052880E+02  0.7816164E-02  0.1300439E+00
        -11   -1    0    0    0    0  0.00000000000E+00  0.00000000000E+00  0.45593999997E+02  0.45594000000E+02  0.51100000000E-03 0.  1.
         11   -1    0    0    0    0 -0.00000000000E+00 -0.00000000000E+00 -0.45593999997E+02  0.45594000000E+02  0.51100000000E-03 0. -1.
    9900012    2    1    2    0    0 -0.14342464691E+02 -0.27296891182E+01  0.37947508406E+02  0.50528795749E+02  0.29999805158E+02 0.  0.
         12    1    1    2    0    0  0.14342464691E+02  0.27296891182E+01 -0.37947508406E+02  0.40659204251E+02  0.00000000000E+00 0. -1.
         11    1    3    3    0    0 -0.77876280765E+01 -0.84014632480E+01  0.60719597422E+01  0.12965355033E+02  0.51100000000E-03 0. -1.
        -11    1    3    3    0    0 -0.12210998705E+02  0.79655341898E+00  0.22105958891E+02  0.25266903361E+02  0.51100000000E-03 0.  1.
         12    1    3    3    0    0  0.56561620910E+01  0.48752207108E+01  0.97695897730E+01  0.12296537355E+02  0.00000000000E+00 0. -1.
</event>
<event>
 7    1  0.3141443E-011  0.5052885E+02  0.7816164E-02  0.1300439E+00
        -11   -1    0    0    0    0  0.00000000000E+00  0.00000000000E+00  0.45593999997E+02  0.45594000000E+02  0.51100000000E-03 0. -1.
         11   -1    0    0    0    0 -0.00000000000E+00 -0.00000000000E+00 -0.45593999997E+02  0.45594000000E+02  0.51100000000E-03 0.  1.
    9900012    2    1    2    0    0  0.13343509175E+02  0.36754899798E+02 -0.11144262733E+02  0.50528849885E+02  0.29999969709E+02 0.  0.
         12    1    1    2    0    0 -0.13343509175E+02 -0.36754899798E+02  0.11144262733E+02  0.40659150115E+02  0.00000000000E+00 0. -1.
         11    1    3    3    0    0  0.96220839739E+01  0.64661604154E+01 -0.31103678405E+01  0.12002921265E+02  0.51100000000E-03 0. -1.
        -11    1    3    3    0    0  0.27063222102E+01  0.33821256708E+02 -0.79557995012E+01  0.34849624548E+02  0.51100000000E-03 0.  1.
         12    1    3    3    0    0  0.10151029911E+01 -0.35325173255E+01 -0.78095391301E-01  0.36763040717E+01  0.00000000000E+00 0. -1.
</event>
<event>
 7    1  0.3141443E-011  0.5052886E+02  0.7816164E-02  0.1300439E+00
        -11   -1    0    0    0    0  0.00000000000E+00  0.00000000000E+00  0.45593999997E+02  0.45594000000E+02  0.51100000000E-03 0.  1.
         11   -1    0    0    0    0 -0.00000000000E+00 -0.00000000000E+00 -0.45593999997E+02  0.45594000000E+02  0.51100000000E-03 0. -1.
    9900012    2    1    2    0    0  0.16021812260E+02  0.23847127221E+02  0.28771197504E+02  0.50528858955E+02  0.29999997278E+02 0.  0.
         12    1    1    2    0    0 -0.16021812260E+02 -0.23847127221E+02 -0.28771197504E+02  0.40659141045E+02  0.00000000000E+00 0. -1.
         11    1    3    3    0    0  0.11142921992E+02  0.10985293944E+02  0.90084119435E+01  0.18055272902E+02  0.51100000000E-03 0. -1.
        -11    1    3    3    0    0  0.38373795086E+01  0.18156416969E+02  0.19718061131E+02  0.27077350197E+02  0.51100000000E-03 0.  1.
         12    1    3    3    0    0  0.10415107594E+01 -0.52945836928E+01  0.44724429619E-01  0.53962358562E+01  0.00000000000E+00 0. -1.
</event>
<event>
 7    1  0.3141443E-011  0.5052884E+02  0.7816164E-02  0.1300439E+00
        -11   -1    0    0    0    0  0.00000000000E+00  0.00000000000E+00  0.45593999997E+02  0.45594000000E+02  0.51100000000E-03 0.  1.
         11   -1    0    0    0    0 -0.00000000000E+00 -0.00000000000E+00 -0.45593999997E+02  0.45594000000E+02  0.51100000000E-03 0. -1.
    9900012    2    1    2    0    0 -0.36908677251E+02 -0.88037681270E+01  0.14608566457E+02  0.50528843546E+02  0.29999950441E+02 0.  0.
         12    1    1    2    0    0  0.36908677251E+02  0.88037681270E+01 -0.14608566457E+02  0.40659156454E+02  0.00000000000E+00 0. -1.
         11    1    3    3    0    0 -0.11069034238E+00 -0.12924943853E+01  0.93407535451E+01  0.94304014305E+01  0.51100000000E-03 0. -1.
        -11    1    3    3    0    0 -0.11169400616E+02 -0.79866491895E+01  0.69896120380E+01  0.15407684839E+02  0.51100000000E-03 0.  1.
         12    1    3    3    0    0 -0.25628586293E+02  0.47537544772E+00 -0.17217991265E+01  0.25690757276E+02  0.00000000000E+00 0. -1.
</event>
<event>
 7    1  0.3141443E-011  0.5052885E+02  0.7816164E-02  0.1300439E+00
        -11   -1    0    0    0    0  0.00000000000E+00  0.00000000000E+00  0.45593999997E+02  0.45594000000E+02  0.51100000000E-03 0. -1.
         11   -1    0    0    0    0 -0.00000000000E+00 -0.00000000000E+00 -0.45593999997E+02  0.45594000000E+02  0.51100000000E-03 0.  1.
    9900012    2    1    2    0    0  0.45512390287E+01  0.66793860909E+01 -0.39847686748E+02  0.50528854480E+02  0.29999983677E+02 0.  0.
         12    1    1    2    0    0 -0.45512390287E+01 -0.66793860909E+01  0.39847686748E+02  0.40659145520E+02  0.00000000000E+00 0. -1.
         11    1    3    3    0    0  0.80236980214E+01  0.33663227637E+00  0.41252847397E-01  0.80308625494E+01  0.51100000000E-03 0. -1.
        -11    1    3    3    0    0 -0.31518359738E+01 -0.19279717233E+01 -0.32026424037E+01  0.48895872626E+01  0.51100000000E-03 0.  1.
        -12    1    3    3    0    0 -0.32062301891E+00  0.82707255379E+01 -0.36686297192E+02  0.37608404668E+02  0.00000000000E+00 0.  1.
</event>
<event>
 7    1  0.3141443E-011  0.5052886E+02  0.7816164E-02  0.1300439E+00
        -11   -1    0    0    0    0  0.00000000000E+00  0.00000000000E+00  0.45593999997E+02  0.45594000000E+02  0.51100000000E-03 0.  1.
         11   -1    0    0    0    0 -0.00000000000E+00 -0.00000000000E+00 -0.45593999997E+02  0.45594000000E+02  0.51100000000E-03 0. -1.
    9900012    2    1    2    0    0 -0.32660650198E+02  0.38991969230E+01  0.23900708625E+02  0.50528859813E+02  0.29999999886E+02 0.  0.
         12    1    1    2    0    0  0.32660650198E+02 -0.38991969230E+01 -0.23900708625E+02  0.40659140187E+02  0.00000000000E+00 0. -1.
         11    1    3    3    0    0 -0.10735449346E+02 -0.44478931480E+01  0.12730085187E+02  0.17236261058E+02  0.51100000000E-03 0.  1.
        -11    1    3    3    0    0 -0.25596870710E+02  0.44049298894E+01  0.94037086097E+01  0.27623050761E+02  0.51100000000E-03 0. -1.
         12    1    3    3    0    0  0.36716698581E+01  0.39421601815E+01  0.17669148282E+01  0.56695479938E+01  0.00000000000E+00 0. -1.
</event>
<event>
 7    1  0.3141443E-011  0.5052886E+02  0.7816164E-02  0.1300439E+00
        -11   -1    0    0    0    0  0.00000000000E+00  0.00000000000E+00  0.45593999997E+02  0.45594000000E+02  0.51100000000E-03 0. -1.
         11   -1    0    0    0    0 -0.00000000000E+00 -0.00000000000E+00 -0.45593999997E+02  0.45594000000E+02  0.51100000000E-03 0.  1.
    9900012    2    1    2    0    0  0.12472646723E+02  0.34462626995E+02  0.17604717912E+02  0.50528859965E+02  0.30000000348E+02 0.  0.
         12    1    1    2    0    0 -0.12472646723E+02 -0.34462626995E+02 -0.17604717912E+02  0.40659140035E+02  0.00000000000E+00 0. -1.
         11    1    3    3    0    0  0.12770277633E+02  0.17070352662E+02  0.12589584242E+02  0.24758323095E+02  0.51100000000E-03 0. -1.
        -11    1    3    3    0    0  0.24432659280E+01 -0.33328497672E+01  0.21840483050E+01  0.46741312803E+01  0.51100000000E-03 0.  1.
        -12    1    3    3    0    0 -0.27408968385E+01  0.20725124100E+02  0.28310853651E+01  0.21096405589E+02  0.00000000000E+00 0.  1.
</event>
<event>
 7    1  0.3141443E-011  0.5052885E+02  0.7816164E-02  0.1300439E+00
        -11   -1    0    0    0    0  0.00000000000E+00  0.00000000000E+00  0.45593999997E+02  0.45594000000E+02  0.51100000000E-03 0. -1.
         11   -1    0    0    0    0 -0.00000000000E+00 -0.00000000000E+00 -0.45593999997E+02  0.45594000000E+02  0.51100000000E-03 0.  1.
    9900012    2    1    2    0    0  0.40246476458E+02  0.43143697429E+01  0.38436236538E+01  0.50528854702E+02  0.29999984351E+02 0.  0.
         12    1    1    2    0    0 -0.40246476458E+02 -0.43143697429E+01 -0.38436236538E+01  0.40659145298E+02  0.00000000000E+00 0. -1.
         11    1    3    3    0    0  0.20968811058E+01  0.37050392159E+01  0.96929010682E+00  0.43662053932E+01  0.51100000000E-03 0. -1.
        -11    1    3    3    0    0  0.11564545519E+02 -0.66547996472E+01  0.11149120826E+02  0.17387580823E+02  0.51100000000E-03 0.  1.
        -12    1    3    3    0    0  0.26585049834E+02  0.72641301742E+01 -0.82747872793E+01  0.28775068486E+02  0.00000000000E+00 0.  1.
</event>
<event>
 7    1  0.3141443E-011  0.5052886E+02  0.7816164E-02  0.1300439E+00
        -11   -1    0    0    0    0  0.00000000000E+00  0.00000000000E+00  0.45593999997E+02  0.45594000000E+02  0.51100000000E-03 0. -1.
         11   -1    0    0    0    0 -0.00000000000E+00 -0.00000000000E+00 -0.45593999997E+02  0.45594000000E+02  0.51100000000E-03 0.  1.
    9900012    2    1    2    0    0 -0.16284461883E+02  0.26875726332E+02 -0.25800724288E+02  0.50528859103E+02  0.29999997729E+02 0.  0.
         12    1    1    2    0    0  0.16284461883E+02 -0.26875726332E+02  0.25800724288E+02  0.40659140897E+02  0.00000000000E+00 0. -1.
         11    1    3    3    0    0 -0.23623321761E+01  0.14118758750E+01  0.34876389539E+01  0.44427055417E+01  0.51100000000E-03 0. -1.
        -11    1    3    3    0    0  0.11598999135E+01  0.17345636747E+02 -0.91378436672E+01  0.19639670800E+02  0.51100000000E-03 0.  1.
        -12    1    3    3    0    0 -0.15082029621E+02  0.81182137098E+01 -0.20150519575E+02  0.26446482761E+02  0.00000000000E+00 0.  1.
</event>
<event>
 7    1  0.3141443E-011  0.5052884E+02  0.7816164E-02  0.1300439E+00
        -11   -1    0    0    0    0  0.00000000000E+00  0.00000000000E+00  0.45593999997E+02  0.45594000000E+02  0.51100000000E-03 0.  1.
         11   -1    0    0    0    0 -0.00000000000E+00 -0.00000000000E+00 -0.45593999997E+02  0.45594000000E+02  0.51100000000E-03 0. -1.
    9900012    2    1    2    0    0 -0.10316217802E+02  0.32184512011E+02  0.22603094739E+02  0.50528842915E+02  0.29999948524E+02 0.  0.
         12    1    1    2    0    0  0.10316217802E+02 -0.32184512011E+02 -0.22603094739E+02  0.40659157085E+02  0.00000000000E+00 0. -1.
         11    1    3    3    0    0  0.13047865060E+01  0.46920969144E+01 -0.63808984011E+01  0.80270857692E+01  0.51100000000E-03 0. -1.
        -11    1    3    3    0    0 -0.27087983659E+01  0.93599169126E+00  0.42899342852E+01  0.51591865120E+01  0.51100000000E-03 0.  1.
        -12    1    3    3    0    0 -0.89122059420E+01  0.26556423405E+02  0.24694058855E+02  0.37342570634E+02  0.00000000000E+00 0.  1.
</event>
<event>
 7    1  0.3141443E-011  0.5052885E+02  0.7816164E-02  0.1300439E+00
        -11   -1    0    0    0    0  0.00000000000E+00  0.00000000000E+00  0.45593999997E+02  0.45594000000E+02  0.51100000000E-03 0.  1.
         11   -1    0    0    0    0 -0.00000000000E+00 -0.00000000000E+00 -0.45593999997E+02  0.45594000000E+02  0.51100000000E-03 0. -1.
    9900012    2    1    2    0    0 -0.37848553980E+02 -0.13838631094E+02 -0.53986476005E+01  0.50528854106E+02  0.29999982540E+02 0.  0.
         12    1    1    2    0    0  0.37848553980E+02  0.13838631094E+02  0.53986476005E+01  0.40659145894E+02  0.00000000000E+00 0. -1.
         11    1    3    3    0    0 -0.87505702373E+01 -0.51538451608E+01 -0.71494842454E+01  0.12419731263E+02  0.51100000000E-03 0. -1.
        -11    1    3    3    0    0 -0.31909238505E+02 -0.11373842210E+02  0.30374582452E+01  0.34011614802E+02  0.51100000000E-03 0.  1.
         12    1    3    3    0    0  0.28112547629E+01  0.26890562760E+01 -0.12866216003E+01  0.40975080403E+01  0.00000000000E+00 0. -1.
</event>
<event>
 7    1  0.3141443E-011  0.5052886E+02  0.7816164E-02  0.1300439E+00
        -11   -1    0    0    0    0  0.00000000000E+00  0.00000000000E+00  0.45593999997E+02  0.45594000000E+02  0.51100000000E-03 0.  1.
         11   -1    0    0    0    0 -0.00000000000E+00 -0.00000000000E+00 -0.45593999997E+02  0.45594000000E+02  0.51100000000E-03 0. -1.
    9900012    2    1    2    0    0 -0.29573897906E+02 -0.16850984876E+02  0.22239489663E+02  0.50528855529E+02  0.29999986866E+02 0.  0.
         12    1    1    2    0    0  0.29573897906E+02  0.16850984876E+02 -0.22239489663E+02  0.40659144471E+02  0.00000000000E+00 0. -1.
         11    1    3    3    0    0  0.33340704130E+01 -0.99535433710E+00  0.28393733591E+01  0.44909683932E+01  0.51100000000E-03 0. -1.
        -11    1    3    3    0    0 -0.25522955988E+02 -0.35159750818E+01  0.61595878452E+01  0.26490071458E+02  0.51100000000E-03 0.  1.
         12    1    3    3    0    0 -0.73850123312E+01 -0.12339655457E+02  0.13240528458E+02  0.19547815678E+02  0.00000000000E+00 0. -1.
</event>
<event>
 7    1  0.3559932E-011  0.5052885E+02  0.7816164E-02  0.1300439E+00
        -11   -1    0    0    0    0  0.00000000000E+00  0.00000000000E+00  0.45593999997E+02  0.45594000000E+02  0.51100000000E-03 0.  1.
         11   -1    0    0    0    0 -0.00000000000E+00 -0.00000000000E+00 -0.45593999997E+02  0.45594000000E+02  0.51100000000E-03 0. -1.
    9900012    2    1    2    0    0  0.29645036545E+02  0.26814471590E+02 -0.74379097330E+01  0.50528848760E+02  0.29999966291E+02 0.  0.
         12    1    1    2    0    0 -0.29645036545E+02 -0.26814471590E+02  0.74379097330E+01  0.40659151240E+02  0.00000000000E+00 0. -1.
         11    1    3    3    0    0 -0.18007677422E+01 -0.83971464058E+00 -0.22782090241E+01  0.30229326419E+01  0.51100000000E-03 0. -1.
        -11    1    3    3    0    0  0.21934825296E+02  0.62868260806E+01  0.23565017697E+01  0.22939351425E+02  0.51100000000E-03 0.  1.
        -12    1    3    3    0    0  0.95109789907E+01  0.21367360150E+02 -0.75162024787E+01  0.24566564693E+02  0.00000000000E+00 0.  1.
</event>
<event>
 7    1  0.3141443E-011  0.5052887E+02  0.7816164E-02  0.1300439E+00
        -11   -1    0    0    0    0  0.00000000000E+00  0.00000000000E+00  0.45593999997E+02  0.45594000000E+02  0.51100000000E-03 0. -1.
         11   -1    0    0    0    0 -0.00000000000E+00 -0.00000000000E+00 -0.45593999997E+02  0.45594000000E+02  0.51100000000E-03 0.  1.
    9900012    2    1    2    0    0 -0.29584254854E+02  0.17477226405E+02 -0.21736689632E+02  0.50528865058E+02  0.30000015830E+02 0.  0.
         12    1    1    2    0    0  0.29584254854E+02 -0.17477226405E+02  0.21736689632E+02  0.40659134942E+02  0.00000000000E+00 0. -1.
         11    1    3    3    0    0 -0.14814473017E+01  0.28056540541E+01  0.56618171928E+01  0.64901891317E+01  0.51100000000E-03 0. -1.
        -11    1    3    3    0    0 -0.57270289070E+00  0.47469121205E+01 -0.65402814242E+01  0.81016322214E+01  0.51100000000E-03 0.  1.
        -12    1    3    3    0    0 -0.27530104662E+02  0.99246602306E+01 -0.20858225401E+02  0.35937043705E+02  0.00000000000E+00 0.  1.
</event>
<event>
 7    1  0.3141443E-011  0.5052887E+02  0.7816164E-02  0.1300439E+00
        -11   -1    0    0    0    0  0.00000000000E+00  0.00000000000E+00  0.45593999997E+02  0.45594000000E+02  0.51100000000E-03 0.  1.
         11   -1    0    0    0    0 -0.00000000000E+00 -0.00000000000E+00 -0.45593999997E+02  0.45594000000E+02  0.51100000000E-03 0. -1.
    9900012    2    1    2    0    0  0.13457224630E+02 -0.31124469432E+02  0.22435140360E+02  0.50528867998E+02  0.30000024767E+02 0.  0.
         12    1    1    2    0    0 -0.13457224630E+02  0.31124469432E+02 -0.22435140360E+02  0.40659132002E+02  0.00000000000E+00 0. -1.
         11    1    3    3    0    0  0.50624717111E+01  0.50752975430E+00  0.13174852134E+02  0.14123134754E+02  0.51100000000E-03 0.  1.
        -11    1    3    3    0    0  0.26220171994E+01 -0.10255675433E+01 -0.18142456450E+01  0.33493656864E+01  0.51100000000E-03 0. -1.
        -12    1    3    3    0    0  0.57727357197E+01 -0.30606431643E+02  0.11074533871E+02  0.33056367557E+02  0.00000000000E+00 0.  1.
</event>
<event>
 7    1  0.3141443E-011  0.5052885E+02  0.7816164E-02  0.1300439E+00
        -11   -1    0    0    0    0  0.00000000000E+00  0.00000000000E+00  0.45593999997E+02  0.45594000000E+02  0.51100000000E-03 0.  1.
         11   -1    0    0    0    0 -0.00000000000E+00 -0.00000000000E+00 -0.45593999997E+02  0.45594000000E+02  0.51100000000E-03 0. -1.
    9900012    2    1    2    0    0 -0.38461863069E+00 -0.22934127470E+02  0.33571475278E+02  0.50528854821E+02  0.29999984715E+02 0.  0.
         12    1    1    2    0    0  0.38461863069E+00  0.22934127470E+02 -0.33571475278E+02  0.40659145179E+02  0.00000000000E+00 0. -1.
         11    1    3    3    0    0  0.24605731135E+01 -0.22235679844E+01  0.69459407773E+01  0.76970623078E+01  0.51100000000E-03 0. -1.
        -11    1    3    3    0    0 -0.29839742615E+01 -0.26886581755E+02  0.23831223246E+02  0.36051623854E+02  0.51100000000E-03 0.  1.
         12    1    3    3    0    0  0.13878251729E+00  0.61760222696E+01  0.27943112554E+01  0.67801686597E+01  0.00000000000E+00 0. -1.
</event>
<event>
 7    1  0.3141443E-011  0.5052885E+02  0.7816164E-02  0.1300439E+00
        -11   -1    0    0    0    0  0.00000000000E+00  0.00000000000E+00  0.45593999997E+02  0.45594000000E+02  0.51100000000E-03 0.  1.
         11   -1    0    0    0    0 -0.00000000000E+00 -0.00000000000E+00 -0.45593999997E+02  0.45594000000E+02  0.51100000000E-03 0. -1.
    9900012    2    1    2    0    0 -0.27491533311E+02  0.26991804672E+02  0.12993263684E+02  0.50528845749E+02  0.29999957139E+02 0.  0.
         12    1    1    2    0    0  0.27491533311E+02 -0.26991804672E+02 -0.12993263684E+02  0.40659154251E+02  0.00000000000E+00 0. -1.
         11    1    3    3    0    0 -0.97457818088E+01  0.22835585136E+02  0.73264865573E+01  0.25886707344E+02  0.51100000000E-03 0. -1.
        -11    1    3    3    0    0 -0.63464606386E+01 -0.16747872768E+01  0.92536386100E+01  0.11345144461E+02  0.51100000000E-03 0.  1.
        -12    1    3    3    0    0 -0.11399290864E+02  0.58310068119E+01 -0.35868614836E+01  0.13296993944E+02  0.00000000000E+00 0.  1.
</event>
<event>
 7    1  0.3141443E-011  0.5052886E+02  0.7816164E-02  0.1300439E+00
        -11   -1    0    0    0    0  0.00000000000E+00  0.00000000000E+00  0.45593999997E+02  0.45594000000E+02  0.51100000000E-03 0.  1.
         11   -1    0    0    0    0 -0.00000000000E+00 -0.00000000000E+00 -0.45593999997E+02  0.45594000000E+02  0.51100000000E-03 0. -1.
    9900012    2    1    2    0    0 -0.24224764540E+02 -0.26514946686E+02  0.19060008833E+02  0.50528861403E+02  0.30000004720E+02 0.  0.
         12    1    1    2    0    0  0.24224764540E+02  0.26514946686E+02 -0.19060008833E+02  0.40659138597E+02  0.00000000000E+00 0. -1.
         11    1    3    3    0    0  0.21107751740E+01 -0.10709881972E+02 -0.69151355054E+00  0.10937784736E+02  0.51100000000E-03 0. -1.
        -11    1    3    3    0    0 -0.17165751266E+02 -0.17121616887E+02  0.17918309260E+02  0.30147613311E+02  0.51100000000E-03 0.  1.
        -12    1    3    3    0    0 -0.91697884474E+01  0.13165521724E+01  0.18332131236E+01  0.94434633557E+01  0.00000000000E+00 0.  1.
</event>
<event>
 7    1  0.3141443E-011  0.5052886E+02  0.7816164E-02  0.1300439E+00
        -11   -1    0    0    0    0  0.00000000000E+00  0.00000000000E+00  0.45593999997E+02  0.45594000000E+02  0.51100000000E-03 0.  1.
         11   -1    0    0    0    0 -0.00000000000E+00 -0.00000000000E+00 -0.45593999997E+02  0.45594000000E+02  0.51100000000E-03 0. -1.
    9900012    2    1    2    0    0 -0.37826567592E+02  0.40185935948E+01  0.14358517441E+02  0.50528864085E+02  0.30000012873E+02 0.  0.
         12    1    1    2    0    0  0.37826567592E+02 -0.40185935948E+01 -0.14358517441E+02  0.40659135915E+02  0.00000000000E+00 0. -1.
         11    1    3    3    0    0 -0.20170627774E+02  0.71639568136E+00 -0.27108750864E+01  0.20364584247E+02  0.51100000000E-03 0. -1.
        -11    1    3    3    0    0 -0.33484049538E+01  0.65253374749E+01 -0.41165976519E+00  0.73458361621E+01  0.51100000000E-03 0.  1.
        -12    1    3    3    0    0 -0.14307534864E+02 -0.32231395615E+01  0.17481052293E+02  0.22818443675E+02  0.00000000000E+00 0.  1.
</event>
<event>
 7    1  0.3141443E-011  0.5052895E+02  0.7816164E-02  0.1300438E+00
        -11   -1    0    0    0    0  0.00000000000E+00  0.00000000000E+00  0.45593999997E+02  0.45594000000E+02  0.51100000000E-03 0. -1.
         11   -1    0    0    0    0 -0.00000000000E+00 -0.00000000000E+00 -0.45593999997E+02  0.45594000000E+02  0.51100000000E-03 0.  1.
    9900012    2    1    2    0    0 -0.33564722945E+02  0.15818131745E+02 -0.16623920420E+02  0.50528946292E+02  0.30000262748E+02 0.  0.
         12    1    1    2    0    0  0.33564722945E+02 -0.15818131745E+02  0.16623920420E+02  0.40659053708E+02  0.00000000000E+00 0. -1.
         11    1    3    3    0    0 -0.19925896644E+02  0.41699308116E+01  0.31847978914E+01  0.20605159983E+02  0.51100000000E-03 0. -1.
        -11    1    3    3    0    0 -0.13453313398E+02  0.50012085069E+01 -0.81587446441E+01  0.16509659062E+02  0.51100000000E-03 0.  1.
         12    1    3    3    0    0 -0.18551290325E+00  0.66469924265E+01 -0.11649973668E+02  0.13414127248E+02  0.00000000000E+00 0. -1.
</event>
<event>
 7    1  0.3141443E-011  0.5052886E+02  0.7816164E-02  0.1300439E+00
        -11   -1    0    0    0    0  0.00000000000E+00  0.00000000000E+00  0.45593999997E+02  0.45594000000E+02  0.51100000000E-03 0. -1.
         11   -1    0    0    0    0 -0.00000000000E+00 -0.00000000000E+00 -0.45593999997E+02  0.45594000000E+02  0.51100000000E-03 0.  1.
    9900012    2    1    2    0    0 -0.12292115603E+02  0.17512689236E+02 -0.34574196013E+02  0.50528863016E+02  0.30000009625E+02 0.  0.
         12    1    1    2    0    0  0.12292115603E+02 -0.17512689236E+02  0.34574196013E+02  0.40659136984E+02  0.00000000000E+00 0. -1.
         11    1    3    3    0    0 -0.79925009839E+00  0.17792025754E+02 -0.12046479732E+02  0.21501457051E+02  0.51100000000E-03 0. -1.
        -11    1    3    3    0    0 -0.90877372279E+01  0.23379301893E+01 -0.40661307259E+01  0.10226744586E+02  0.51100000000E-03 0.  1.
         12    1    3    3    0    0 -0.24051282765E+01 -0.26172667068E+01 -0.18461585556E+02  0.18800661379E+02  0.00000000000E+00 0. -1.
</event>
<event>
 7    1  0.3141443E-011  0.5052885E+02  0.7816164E-02  0.1300439E+00
        -11   -1    0    0    0    0  0.00000000000E+00  0.00000000000E+00  0.45593999997E+02  0.45594000000E+02  0.51100000000E-03 0.  1.
         11   -1    0    0    0    0 -0.00000000000E+00 -0.00000000000E+00 -0.45593999997E+02  0.45594000000E+02  0.51100000000E-03 0. -1.
    9900012    2    1    2    0    0 -0.15467477289E+02  0.57107859550E+01  0.37165983671E+02  0.50528852540E+02  0.29999977782E+02 0.  0.
         12    1    1    2    0    0  0.15467477289E+02 -0.57107859550E+01 -0.37165983671E+02  0.40659147460E+02  0.00000000000E+00 0. -1.
         11    1    3    3    0    0  0.17231510937E+01 -0.34466413324E+01  0.25160178724E+01  0.46020574053E+01  0.51100000000E-03 0. -1.
        -11    1    3    3    0    0 -0.18104066869E+02  0.15229469839E+01  0.11424061525E+02  0.21461262467E+02  0.51100000000E-03 0.  1.
        -12    1    3    3    0    0  0.91343848668E+00  0.76344803035E+01  0.23225904274E+02  0.24465532668E+02  0.00000000000E+00 0.  1.
</event>
<event>
 7    1  0.3141443E-011  0.5052885E+02  0.7816164E-02  0.1300439E+00
        -11   -1    0    0    0    0  0.00000000000E+00  0.00000000000E+00  0.45593999997E+02  0.45594000000E+02  0.51100000000E-03 0.  1.
         11   -1    0    0    0    0 -0.00000000000E+00 -0.00000000000E+00 -0.45593999997E+02  0.45594000000E+02  0.51100000000E-03 0. -1.
    9900012    2    1    2    0    0 -0.54200917623E+01 -0.33384943856E+02  0.22566221916E+02  0.50528852904E+02  0.29999978887E+02 0.  0.
         12    1    1    2    0    0  0.54200917623E+01  0.33384943856E+02 -0.22566221916E+02  0.40659147096E+02  0.00000000000E+00 0. -1.
         11    1    3    3    0    0  0.81128270846E+00 -0.69127058507E+01 -0.23676997948E+01  0.73518490457E+01  0.51100000000E-03 0. -1.
        -11    1    3    3    0    0  0.87603766100E+00 -0.73075703003E+01 -0.35071567764E+01  0.81528016407E+01  0.51100000000E-03 0.  1.
        -12    1    3    3    0    0 -0.71074121317E+01 -0.19164667705E+02  0.28441078487E+02  0.35024202218E+02  0.00000000000E+00 0.  1.
</event>
<event>
 7    1  0.3141443E-011  0.5052886E+02  0.7816164E-02  0.1300439E+00
        -11   -1    0    0    0    0  0.00000000000E+00  0.00000000000E+00  0.45593999997E+02  0.45594000000E+02  0.51100000000E-03 0.  1.
         11   -1    0    0    0    0 -0.00000000000E+00 -0.00000000000E+00 -0.45593999997E+02  0.45594000000E+02  0.51100000000E-03 0. -1.
    9900012    2    1    2    0    0  0.36415607817E+02  0.13703851627E+02  0.11801434598E+02  0.50528857108E+02  0.29999991667E+02 0.  0.
         12    1    1    2    0    0 -0.36415607817E+02 -0.13703851627E+02 -0.11801434598E+02  0.40659142892E+02  0.00000000000E+00 0. -1.
         11    1    3    3    0    0  0.78180621814E+00  0.57787426273E+01  0.43959221990E+01  0.73026857769E+01  0.51100000000E-03 0. -1.
        -11    1    3    3    0    0  0.63102170187E+01 -0.35828875360E+01 -0.55799313056E+01  0.91537727499E+01  0.51100000000E-03 0.  1.
        -12    1    3    3    0    0  0.29323584580E+02  0.11507996536E+02  0.12985443705E+02  0.34072398582E+02  0.00000000000E+00 0.  1.
</event>
<event>
 7    1  0.3141443E-011  0.5052884E+02  0.7816164E-02  0.1300439E+00
        -11   -1    0    0    0    0  0.00000000000E+00  0.00000000000E+00  0.45593999997E+02  0.45594000000E+02  0.51100000000E-03 0. -1.
         11   -1    0    0    0    0 -0.00000000000E+00 -0.00000000000E+00 -0.45593999997E+02  0.45594000000E+02  0.51100000000E-03 0.  1.
    9900012    2    1    2    0    0  0.35015656373E+02 -0.23447035116E+01 -0.20532258368E+02  0.50528837940E+02  0.29999933401E+02 0.  0.
         12    1    1    2    0    0 -0.35015656373E+02  0.23447035116E+01  0.20532258368E+02  0.40659162060E+02  0.00000000000E+00 0. -1.
         11    1    3    3    0    0  0.10702426276E+02  0.32659064422E+01  0.31514868278E+01  0.11624970648E+02  0.51100000000E-03 0. -1.
        -11    1    3    3    0    0 -0.27991643953E+01 -0.21542342250E+01 -0.27433036705E+01  0.44723329145E+01  0.51100000000E-03 0.  1.
        -12    1    3    3    0    0  0.27112394492E+02 -0.34563757288E+01 -0.20940441526E+02  0.34431534377E+02  0.00000000000E+00 0.  1.
</event>
<event>
 7    1  0.3141443E-011  0.5052885E+02  0.7816164E-02  0.1300439E+00
        -11   -1    0    0    0    0  0.00000000000E+00  0.00000000000E+00  0.45593999997E+02  0.45594000000E+02  0.51100000000E-03 0.  1.
         11   -1    0    0    0    0 -0.00000000000E+00 -0.00000000000E+00 -0.45593999997E+02  0.45594000000E+02  0.51100000000E-03 0. -1.
    9900012    2    1    2    0    0 -0.26191346012E+02  0.65775806476E+01  0.30395970204E+02  0.50528853702E+02  0.29999981312E+02 0.  0.
         12    1    1    2    0    0  0.26191346012E+02 -0.65775806476E+01 -0.30395970204E+02  0.40659146298E+02  0.00000000000E+00 0. -1.
         11    1    3    3    0    0 -0.14344561528E+02 -0.26277972104E+01  0.26223871883E+02  0.30006053063E+02  0.51100000000E-03 0. -1.
        -11    1    3    3    0    0 -0.98326517702E+01 -0.81448850536E+00  0.17666609556E+01  0.10023249151E+02  0.51100000000E-03 0.  1.
         12    1    3    3    0    0 -0.20141327137E+01  0.10019866363E+02  0.24054373648E+01  0.10499551488E+02  0.00000000000E+00 0. -1.
</event>
<event>
 7    1  0.3141443E-011  0.5052887E+02  0.7816164E-02  0.1300439E+00
        -11   -1    0    0    0    0  0.00000000000E+00  0.00000000000E+00  0.45593999997E+02  0.45594000000E+02  0.51100000000E-03 0.  1.
         11   -1    0    0    0    0 -0.00000000000E+00 -0.00000000000E+00 -0.45593999997E+02  0.45594000000E+02  0.51100000000E-03 0. -1.
    9900012    2    1    2    0    0 -0.41612229235E+01  0.25610663947E+02  0.31304045384E+02  0.50528866445E+02  0.30000020046E+02 0.  0.
         12    1    1    2    0    0  0.41612229235E+01 -0.25610663947E+02 -0.31304045384E+02  0.40659133555E+02  0.00000000000E+00 0. -1.
         11    1    3    3    0    0  0.39823480734E+00 -0.95762084972E+00 -0.48657570493E+01  0.49750598567E+01  0.51100000000E-03 0. -1.
        -11    1    3    3    0    0 -0.21487374510E+01  0.48237693177E+01  0.38906023443E+01  0.65591622885E+01  0.51100000000E-03 0.  1.
        -12    1    3    3    0    0 -0.24107202799E+01  0.21744515479E+02  0.32279200089E+02  0.38994644300E+02  0.00000000000E+00 0.  1.
</event>
<event>
 7    1  0.3141443E-011  0.5052875E+02  0.7816164E-02  0.1300439E+00
        -11   -1    0    0    0    0  0.00000000000E+00  0.00000000000E+00  0.45593999997E+02  0.45594000000E+02  0.51100000000E-03 0.  1.
         11   -1    0    0    0    0 -0.00000000000E+00 -0.00000000000E+00 -0.45593999997E+02  0.45594000000E+02  0.51100000000E-03 0. -1.
    9900012    2    1    2    0    0 -0.33176622958E+01  0.40370849113E+02  0.35159867598E+01  0.50528751309E+02  0.29999670076E+02 0.  0.
         12    1    1    2    0    0  0.33176622958E+01 -0.40370849113E+02 -0.35159867598E+01  0.40659248691E+02  0.00000000000E+00 0. -1.
         11    1    3    3    0    0 -0.22448365035E+01  0.22641575531E+02  0.26747770282E+01  0.22909270304E+02  0.51100000000E-03 0.  1.
        -11    1    3    3    0    0 -0.73306915183E+01  0.13213276196E+02 -0.69685909197E+01  0.16640041034E+02  0.51100000000E-03 0. -1.
        -12    1    3    3    0    0  0.62578657260E+01  0.45159973866E+01  0.78098006513E+01  0.10979439970E+02  0.00000000000E+00 0.  1.
</event>
<event>
 7    1  0.3141443E-011  0.5052886E+02  0.7816164E-02  0.1300439E+00
        -11   -1    0    0    0    0  0.00000000000E+00  0.00000000000E+00  0.45593999997E+02  0.45594000000E+02  0.51100000000E-03 0.  1.
         11   -1    0    0    0    0 -0.00000000000E+00 -0.00000000000E+00 -0.45593999997E+02  0.45594000000E+02  0.51100000000E-03 0. -1.
    9900012    2    1    2    0    0 -0.68334330313E+01  0.37311219158E+02  0.14640450503E+02  0.50528859909E+02  0.30000000178E+02 0.  0.
         12    1    1    2    0    0  0.68334330313E+01 -0.37311219158E+02 -0.14640450503E+02  0.40659140091E+02  0.00000000000E+00 0. -1.
         11    1    3    3    0    0  0.18092565694E+00  0.26972570017E+02  0.51479058357E+01  0.27460029173E+02  0.51100000000E-03 0. -1.
        -11    1    3    3    0    0 -0.93740531538E+01  0.13889891018E+02  0.73762219526E+01  0.18308757346E+02  0.51100000000E-03 0.  1.
        -12    1    3    3    0    0  0.23596944655E+01 -0.35512418770E+01  0.21163227150E+01  0.47600733895E+01  0.00000000000E+00 0.  1.
</event>
<event>
 7    1  0.3141443E-011  0.5052886E+02  0.7816164E-02  0.1300439E+00
        -11   -1    0    0    0    0  0.00000000000E+00  0.00000000000E+00  0.45593999997E+02  0.45594000000E+02  0.51100000000E-03 0.  1.
         11   -1    0    0    0    0 -0.00000000000E+00 -0.00000000000E+00 -0.45593999997E+02  0.45594000000E+02  0.51100000000E-03 0. -1.
    9900012    2    1    2    0    0  0.37507347039E+02 -0.15664996915E+02 -0.98605867418E+00  0.50528861765E+02  0.30000005822E+02 0.  0.
         12    1    1    2    0    0 -0.37507347039E+02  0.15664996915E+02  0.98605867418E+00  0.40659138235E+02  0.00000000000E+00 0. -1.
         11    1    3    3    0    0  0.10821859648E+02 -0.95734441996E+01 -0.70185712703E+01  0.16063119965E+02  0.51100000000E-03 0. -1.
        -11    1    3    3    0    0 -0.31305958221E+01 -0.10173706324E+01 -0.94864043489E+00  0.34257250533E+01  0.51100000000E-03 0.  1.
         12    1    3    3    0    0  0.29816083214E+02 -0.50741820830E+01  0.69811530310E+01  0.31040016747E+02  0.00000000000E+00 0. -1.
</event>
<event>
 7    1  0.3141443E-011  0.5052878E+02  0.7816164E-02  0.1300439E+00
        -11   -1    0    0    0    0  0.00000000000E+00  0.00000000000E+00  0.45593999997E+02  0.45594000000E+02  0.51100000000E-03 0. -1.
         11   -1    0    0    0    0 -0.00000000000E+00 -0.00000000000E+00 -0.45593999997E+02  0.45594000000E+02  0.51100000000E-03 0.  1.
    9900012    2    1    2    0    0 -0.16383512304E+02 -0.60647595090E+01 -0.36714729321E+02  0.50528780475E+02  0.29999758731E+02 0.  0.
         12    1    1    2    0    0  0.16383512304E+02  0.60647595090E+01  0.36714729321E+02  0.40659219525E+02  0.00000000000E+00 0. -1.
         11    1    3    3    0    0  0.30841314710E+01  0.22417862604E+01  0.11572155381E+01  0.39845477322E+01  0.51100000000E-03 0.  1.
        -11    1    3    3    0    0 -0.27708338672E+01 -0.10301555064E+01  0.13875866240E+01  0.32655991161E+01  0.51100000000E-03 0. -1.
        -12    1    3    3    0    0 -0.16696809908E+02 -0.72763902630E+01 -0.39259531483E+02  0.43278633627E+02  0.00000000000E+00 0.  1.
</event>
<event>
 7    1  0.3141443E-011  0.5052885E+02  0.7816164E-02  0.1300439E+00
        -11   -1    0    0    0    0  0.00000000000E+00  0.00000000000E+00  0.45593999997E+02  0.45594000000E+02  0.51100000000E-03 0.  1.
         11   -1    0    0    0    0 -0.00000000000E+00 -0.00000000000E+00 -0.45593999997E+02  0.45594000000E+02  0.51100000000E-03 0. -1.
    9900012    2    1    2    0    0 -0.88427789746E+01  0.35652380669E+02  0.17432146678E+02  0.50528846970E+02  0.29999960850E+02 0.  0.
         12    1    1    2    0    0  0.88427789746E+01 -0.35652380669E+02 -0.17432146678E+02  0.40659153030E+02  0.00000000000E+00 0. -1.
         11    1    3    3    0    0 -0.16683862663E+01 -0.95997716073E+00 -0.37714213186E+01  0.42342281359E+01  0.51100000000E-03 0. -1.
        -11    1    3    3    0    0 -0.11406259628E+02  0.14251834583E+02  0.11353206106E+02  0.21496809922E+02  0.51100000000E-03 0.  1.
        -12    1    3    3    0    0  0.42318669193E+01  0.22360523246E+02  0.98503618900E+01  0.24797808912E+02  0.00000000000E+00 0.  1.
</event>
<event>
 7    1  0.3141443E-011  0.5052884E+02  0.7816164E-02  0.1300439E+00
        -11   -1    0    0    0    0  0.00000000000E+00  0.00000000000E+00  0.45593999997E+02  0.45594000000E+02  0.51100000000E-03 0.  1.
         11   -1    0    0    0    0 -0.00000000000E+00 -0.00000000000E+00 -0.45593999997E+02  0.45594000000E+02  0.51100000000E-03 0. -1.
    9900012    2    1    2    0    0  0.21567773207E+02  0.61165421478E+01  0.33920289151E+02  0.50528844266E+02  0.29999952630E+02 0.  0.
         12    1    1    2    0    0 -0.21567773207E+02 -0.61165421478E+01 -0.33920289151E+02  0.40659155734E+02  0.00000000000E+00 0. -1.
         11    1    3    3    0    0  0.19710433609E+00  0.34157189461E+00 -0.11895082007E+01  0.12531765634E+01  0.51100000000E-03 0. -1.
        -11    1    3    3    0    0  0.19833593298E+02  0.29322883553E+00  0.38018888795E+02  0.42882319337E+02  0.51100000000E-03 0.  1.
        -12    1    3    3    0    0  0.15370755724E+01  0.54817414177E+01 -0.29090914435E+01  0.63933483647E+01  0.00000000000E+00 0.  1.
</event>
<event>
 7    1  0.3141443E-011  0.5052888E+02  0.7816164E-02  0.1300439E+00
        -11   -1    0    0    0    0  0.00000000000E+00  0.00000000000E+00  0.45593999997E+02  0.45594000000E+02  0.51100000000E-03 0.  1.
         11   -1    0    0    0    0 -0.00000000000E+00 -0.00000000000E+00 -0.45593999997E+02  0.45594000000E+02  0.51100000000E-03 0. -1.
    9900012    2    1    2    0    0 -0.12702397463E+01 -0.39314344947E+02 -0.10292384068E+02  0.50528875595E+02  0.30000047857E+02 0.  0.
         12    1    1    2    0    0  0.12702397463E+01  0.39314344947E+02  0.10292384068E+02  0.40659124405E+02  0.00000000000E+00 0. -1.
         11    1    3    3    0    0  0.15697889128E+01 -0.79824061737E+01 -0.10688672509E+02  0.13432451966E+02  0.51100000000E-03 0. -1.
        -11    1    3    3    0    0  0.64482078865E+01 -0.28138326189E+01  0.94663486184E+00  0.70988137585E+01  0.51100000000E-03 0.  1.
        -12    1    3    3    0    0 -0.92882365456E+01 -0.28518106154E+02 -0.55034642175E+00  0.29997609870E+02  0.00000000000E+00 0.  1.
</event>
<event>
 7    1  0.3141443E-011  0.5052887E+02  0.7816164E-02  0.1300439E+00
        -11   -1    0    0    0    0  0.00000000000E+00  0.00000000000E+00  0.45593999997E+02  0.45594000000E+02  0.51100000000E-03 0.  1.
         11   -1    0    0    0    0 -0.00000000000E+00 -0.00000000000E+00 -0.45593999997E+02  0.45594000000E+02  0.51100000000E-03 0. -1.
    9900012    2    1    2    0    0 -0.51464646791E+00 -0.40654609213E+02  0.32057514787E+00  0.50528869664E+02  0.30000029829E+02 0.  0.
         12    1    1    2    0    0  0.51464646791E+00  0.40654609213E+02 -0.32057514787E+00  0.40659130336E+02  0.00000000000E+00 0. -1.
         11    1    3    3    0    0 -0.57193744231E+01 -0.14786940958E+01 -0.55372077970E+01  0.80968173049E+01  0.51100000000E-03 0. -1.
        -11    1    3    3    0    0 -0.35476977217E+01 -0.21662208408E+02  0.63371290799E+01  0.22847245731E+02  0.51100000000E-03 0.  1.
        -12    1    3    3    0    0  0.87524256769E+01 -0.17513706710E+02 -0.47934613496E+00  0.19584806628E+02  0.00000000000E+00 0.  1.
</event>
<event>
 7    1  0.3141443E-011  0.5052887E+02  0.7816164E-02  0.1300439E+00
        -11   -1    0    0    0    0  0.00000000000E+00  0.00000000000E+00  0.45593999997E+02  0.45594000000E+02  0.51100000000E-03 0.  1.
         11   -1    0    0    0    0 -0.00000000000E+00 -0.00000000000E+00 -0.45593999997E+02  0.45594000000E+02  0.51100000000E-03 0. -1.
    9900012    2    1    2    0    0 -0.40105118476E+02  0.33579877457E+01  0.57851797740E+01  0.50528869233E+02  0.30000028521E+02 0.  0.
         12    1    1    2    0    0  0.40105118476E+02 -0.33579877457E+01 -0.57851797740E+01  0.40659130767E+02  0.00000000000E+00 0. -1.
         11    1    3    3    0    0  0.70275284879E+00  0.35046794994E+01  0.14970971301E+01  0.38752987031E+01  0.51100000000E-03 0. -1.
        -11    1    3    3    0    0 -0.25225871266E+01 -0.70641396281E+01 -0.99955551945E-01  0.75017001986E+01  0.51100000000E-03 0.  1.
        -12    1    3    3    0    0 -0.38285284198E+02  0.69174478743E+01  0.43880381959E+01  0.39151870332E+02  0.00000000000E+00 0.  1.
</event>
<event>
 7    1  0.3141443E-011  0.5052887E+02  0.7816164E-02  0.1300439E+00
        -11   -1    0    0    0    0  0.00000000000E+00  0.00000000000E+00  0.45593999997E+02  0.45594000000E+02  0.51100000000E-03 0.  1.
         11   -1    0    0    0    0 -0.00000000000E+00 -0.00000000000E+00 -0.45593999997E+02  0.45594000000E+02  0.51100000000E-03 0. -1.
    9900012    2    1    2    0    0  0.15771347464E+02  0.16104300144E+02  0.33839044013E+02  0.50528870844E+02  0.30000033418E+02 0.  0.
         12    1    1    2    0    0 -0.15771347464E+02 -0.16104300144E+02 -0.33839044013E+02  0.40659129156E+02  0.00000000000E+00 0. -1.
         11    1    3    3    0    0  0.12360803363E+02 -0.98813868587E+00  0.37281598251E+01  0.12948554119E+02  0.51100000000E-03 0. -1.
        -11    1    3    3    0    0 -0.33685381079E+01 -0.36315718206E+00  0.74452554765E+01  0.81798998462E+01  0.51100000000E-03 0.  1.
        -12    1    3    3    0    0  0.67790822094E+01  0.17455596012E+02  0.22665628712E+02  0.29400416879E+02  0.00000000000E+00 0.  1.
</event>
<event>
 7    1  0.3141443E-011  0.5052886E+02  0.7816164E-02  0.1300439E+00
        -11   -1    0    0    0    0  0.00000000000E+00  0.00000000000E+00  0.45593999997E+02  0.45594000000E+02  0.51100000000E-03 0. -1.
         11   -1    0    0    0    0 -0.00000000000E+00 -0.00000000000E+00 -0.45593999997E+02  0.45594000000E+02  0.51100000000E-03 0.  1.
    9900012    2    1    2    0    0 -0.40532611870E+02  0.14129883741E+01 -0.28768724105E+01  0.50528861347E+02  0.30000004549E+02 0.  0.
         12    1    1    2    0    0  0.40532611870E+02 -0.14129883741E+01  0.28768724105E+01  0.40659138653E+02  0.00000000000E+00 0. -1.
         11    1    3    3    0    0 -0.97993302202E+01  0.77604482271E+01 -0.20105894046E+01  0.12660722707E+02  0.51100000000E-03 0. -1.
        -11    1    3    3    0    0  0.46818486455E+00 -0.37590248362E+00 -0.57027916091E+01  0.57343118282E+01  0.51100000000E-03 0.  1.
        -12    1    3    3    0    0 -0.31201466515E+02 -0.59715573694E+01  0.48365086033E+01  0.32133826811E+02  0.00000000000E+00 0.  1.
</event>
<event>
 7    1  0.3141443E-011  0.5052886E+02  0.7816164E-02  0.1300439E+00
        -11   -1    0    0    0    0  0.00000000000E+00  0.00000000000E+00  0.45593999997E+02  0.45594000000E+02  0.51100000000E-03 0. -1.
         11   -1    0    0    0    0 -0.00000000000E+00 -0.00000000000E+00 -0.45593999997E+02  0.45594000000E+02  0.51100000000E-03 0.  1.
    9900012    2    1    2    0    0  0.14146685768E+02 -0.36804476736E+02 -0.99230743021E+01  0.50528860442E+02  0.30000001799E+02 0.  0.
         12    1    1    2    0    0 -0.14146685768E+02  0.36804476736E+02  0.99230743021E+01  0.40659139558E+02  0.00000000000E+00 0. -1.
         11    1    3    3    0    0  0.25735749609E+01 -0.27586245543E+02 -0.61148551396E-01  0.27706099882E+02  0.51100000000E-03 0. -1.
        -11    1    3    3    0    0  0.19780666324E+01 -0.10619596570E+02 -0.41726455801E+01  0.11580136023E+02  0.51100000000E-03 0.  1.
         12    1    3    3    0    0  0.95950441743E+01  0.14013653775E+01 -0.56892801706E+01  0.11242624537E+02  0.00000000000E+00 0. -1.
</event>
<event>
 7    1  0.3141443E-011  0.5052887E+02  0.7816164E-02  0.1300439E+00
        -11   -1    0    0    0    0  0.00000000000E+00  0.00000000000E+00  0.45593999997E+02  0.45594000000E+02  0.51100000000E-03 0. -1.
         11   -1    0    0    0    0 -0.00000000000E+00 -0.00000000000E+00 -0.45593999997E+02  0.45594000000E+02  0.51100000000E-03 0.  1.
    9900012    2    1    2    0    0 -0.29597867186E+02 -0.26749433617E+02 -0.78484983972E+01  0.50528869809E+02  0.30000030271E+02 0.  0.
         12    1    1    2    0    0  0.29597867186E+02  0.26749433617E+02  0.78484983972E+01  0.40659130191E+02  0.00000000000E+00 0. -1.
         11    1    3    3    0    0 -0.63470429538E+01 -0.25790588663E+01  0.41992810208E+01  0.80355746681E+01  0.51100000000E-03 0. -1.
        -11    1    3    3    0    0 -0.23272488903E+02 -0.22784643903E+02 -0.17426973398E+02  0.36938437157E+02  0.51100000000E-03 0.  1.
         12    1    3    3    0    0  0.21664671005E-01 -0.13857308479E+01  0.53791939800E+01  0.55548579834E+01  0.00000000000E+00 0. -1.
</event>
<event>
 7    1  0.3141443E-011  0.5052879E+02  0.7816164E-02  0.1300439E+00
        -11   -1    0    0    0    0  0.00000000000E+00  0.00000000000E+00  0.45593999997E+02  0.45594000000E+02  0.51100000000E-03 0. -1.
         11   -1    0    0    0    0 -0.00000000000E+00 -0.00000000000E+00 -0.45593999997E+02  0.45594000000E+02  0.51100000000E-03 0.  1.
    9900012    2    1    2    0    0 -0.10730257523E+02 -0.38357515627E+02  0.81690736535E+01  0.50528791991E+02  0.29999793735E+02 0.  0.
         12    1    1    2    0    0  0.10730257523E+02  0.38357515627E+02 -0.81690736535E+01  0.40659208009E+02  0.00000000000E+00 0. -1.
         11    1    3    3    0    0 -0.12568008400E+02 -0.20182982953E+02  0.46905829656E+01  0.24234463164E+02  0.51100000000E-03 0.  1.
        -11    1    3    3    0    0 -0.50886577647E+01 -0.72255361484E+01  0.86295303384E+01  0.12351987881E+02  0.51100000000E-03 0. -1.
        -12    1    3    3    0    0  0.69264086417E+01 -0.10948996525E+02 -0.51510396505E+01  0.13942340946E+02  0.00000000000E+00 0.  1.
</event>
<event>
 7    1  0.3141443E-011  0.5052887E+02  0.7816164E-02  0.1300439E+00
        -11   -1    0    0    0    0  0.00000000000E+00  0.00000000000E+00  0.45593999997E+02  0.45594000000E+02  0.51100000000E-03 0.  1.
         11   -1    0    0    0    0 -0.00000000000E+00 -0.00000000000E+00 -0.45593999997E+02  0.45594000000E+02  0.51100000000E-03 0. -1.
    9900012    2    1    2    0    0 -0.16523117478E+02 -0.24515822334E+02  0.27912828837E+02  0.50528868558E+02  0.30000026469E+02 0.  0.
         12    1    1    2    0    0  0.16523117478E+02  0.24515822334E+02 -0.27912828837E+02  0.40659131442E+02  0.00000000000E+00 0. -1.
         11    1    3    3    0    0  0.93057778829E+00  0.15081490552E+01 -0.16379317345E+01  0.24131533769E+01  0.51100000000E-03 0. -1.
        -11    1    3    3    0    0 -0.59325511312E+01 -0.25623934679E+00  0.15473888283E+02  0.16574137696E+02  0.51100000000E-03 0.  1.
        -12    1    3    3    0    0 -0.11521144135E+02 -0.25767732043E+02  0.14076872289E+02  0.31541577485E+02  0.00000000000E+00 0.  1.
</event>
<event>
 7    1  0.3141443E-011  0.5052887E+02  0.7816164E-02  0.1300439E+00
        -11   -1    0    0    0    0  0.00000000000E+00  0.00000000000E+00  0.45593999997E+02  0.45594000000E+02  0.51100000000E-03 0. -1.
         11   -1    0    0    0    0 -0.00000000000E+00 -0.00000000000E+00 -0.45593999997E+02  0.45594000000E+02  0.51100000000E-03 0.  1.
    9900012    2    1    2    0    0  0.83582839943E+01  0.21341695636E+02 -0.33583268750E+02  0.50528870350E+02  0.30000031916E+02 0.  0.
         12    1    1    2    0    0 -0.83582839943E+01 -0.21341695636E+02  0.33583268750E+02  0.40659129650E+02  0.00000000000E+00 0. -1.
         11    1    3    3    0    0  0.90241197315E+00  0.20857474046E+01  0.11277119270E+01  0.25370108507E+01  0.51100000000E-03 0. -1.
        -11    1    3    3    0    0  0.10672642841E+02  0.50705991315E+01 -0.17249199661E+01  0.11941173725E+02  0.51100000000E-03 0.  1.
        -12    1    3    3    0    0 -0.32167708201E+01  0.14185349100E+02 -0.32986060711E+02  0.36050685775E+02  0.00000000000E+00 0.  1.
</event>
<event>
 7    1  0.3141443E-011  0.5052886E+02  0.7816164E-02  0.1300439E+00
        -11   -1    0    0    0    0  0.00000000000E+00  0.00000000000E+00  0.45593999997E+02  0.45594000000E+02  0.51100000000E-03 0.  1.
         11   -1    0    0    0    0 -0.00000000000E+00 -0.00000000000E+00 -0.45593999997E+02  0.45594000000E+02  0.51100000000E-03 0. -1.
    9900012    2    1    2    0    0  0.66186334420E+01  0.12755313468E+02  0.38035004345E+02  0.50528857291E+02  0.29999992221E+02 0.  0.
         12    1    1    2    0    0 -0.66186334420E+01 -0.12755313468E+02 -0.38035004345E+02  0.40659142709E+02  0.00000000000E+00 0. -1.
         11    1    3    3    0    0 -0.46088024810E+01  0.45904089725E+01  0.38661493605E+01  0.75670354818E+01  0.51100000000E-03 0. -1.
        -11    1    3    3    0    0 -0.13525818269E+01  0.66235973066E+01  0.28114599626E+02  0.28915951156E+02  0.51100000000E-03 0.  1.
         12    1    3    3    0    0  0.12580017750E+02  0.15413071887E+01  0.60542553591E+01  0.14045870653E+02  0.00000000000E+00 0. -1.
</event>
<event>
 7    1  0.3141443E-011  0.5052887E+02  0.7816164E-02  0.1300439E+00
        -11   -1    0    0    0    0  0.00000000000E+00  0.00000000000E+00  0.45593999997E+02  0.45594000000E+02  0.51100000000E-03 0. -1.
         11   -1    0    0    0    0 -0.00000000000E+00 -0.00000000000E+00 -0.45593999997E+02  0.45594000000E+02  0.51100000000E-03 0.  1.
    9900012    2    1    2    0    0 -0.25063846207E+02  0.31673966140E+02 -0.46613228936E+01  0.50528874963E+02  0.30000045937E+02 0.  0.
         12    1    1    2    0    0  0.25063846207E+02 -0.31673966140E+02  0.46613228936E+01  0.40659125037E+02  0.00000000000E+00 0. -1.
         11    1    3    3    0    0 -0.74038544049E+01 -0.11107659833E+01 -0.12195777863E+01  0.75853959262E+01  0.51100000000E-03 0. -1.
        -11    1    3    3    0    0 -0.16923384218E+02  0.15387348584E+02 -0.91258501730E+01  0.24626257764E+02  0.51100000000E-03 0.  1.
         12    1    3    3    0    0 -0.73660758357E+00  0.17397383539E+02  0.56841050658E+01  0.18317221272E+02  0.00000000000E+00 0. -1.
</event>
<event>
 7    1  0.3141443E-011  0.5052886E+02  0.7816164E-02  0.1300439E+00
        -11   -1    0    0    0    0  0.00000000000E+00  0.00000000000E+00  0.45593999997E+02  0.45594000000E+02  0.51100000000E-03 0. -1.
         11   -1    0    0    0    0 -0.00000000000E+00 -0.00000000000E+00 -0.45593999997E+02  0.45594000000E+02  0.51100000000E-03 0.  1.
    9900012    2    1    2    0    0 -0.36860183653E+02  0.56423867813E+01 -0.16206674118E+02  0.50528856459E+02  0.29999989692E+02 0.  0.
         12    1    1    2    0    0  0.36860183653E+02 -0.56423867813E+01  0.16206674118E+02  0.40659143541E+02  0.00000000000E+00 0. -1.
         11    1    3    3    0    0 -0.59060575773E+01  0.12298939065E+02 -0.32331398907E+01  0.14021362703E+02  0.51100000000E-03 0. -1.
        -11    1    3    3    0    0 -0.16364357938E+02 -0.19660267797E+01 -0.83688151669E-01  0.16482247298E+02  0.51100000000E-03 0.  1.
        -12    1    3    3    0    0 -0.14589768138E+02 -0.46905255044E+01 -0.12889846076E+02  0.20025246457E+02  0.00000000000E+00 0.  1.
</event>
<event>
 7    1  0.3141443E-011  0.5052886E+02  0.7816164E-02  0.1300439E+00
        -11   -1    0    0    0    0  0.00000000000E+00  0.00000000000E+00  0.45593999997E+02  0.45594000000E+02  0.51100000000E-03 0.  1.
         11   -1    0    0    0    0 -0.00000000000E+00 -0.00000000000E+00 -0.45593999997E+02  0.45594000000E+02  0.51100000000E-03 0. -1.
    9900012    2    1    2    0    0  0.18306586948E+02 -0.11778228657E+02  0.34341052420E+02  0.50528859855E+02  0.30000000016E+02 0.  0.
         12    1    1    2    0    0 -0.18306586948E+02  0.11778228657E+02 -0.34341052420E+02  0.40659140145E+02  0.00000000000E+00 0. -1.
         11    1    3    3    0    0  0.16040350493E+02 -0.10396481095E+02  0.18715423332E+02  0.26751574419E+02  0.51100000000E-03 0. -1.
        -11    1    3    3    0    0 -0.32485494322E+01 -0.37738637790E+01  0.16912096673E+02  0.17629921593E+02  0.51100000000E-03 0.  1.
         12    1    3    3    0    0  0.55147858874E+01  0.23921162177E+01 -0.12864675845E+01  0.61473638439E+01  0.00000000000E+00 0. -1.
</event>
<event>
 7    1  0.3263050E-011  0.5052884E+02  0.7816164E-02  0.1300439E+00
        -11   -1    0    0    0    0  0.00000000000E+00  0.00000000000E+00  0.45593999997E+02  0.45594000000E+02  0.51100000000E-03 0.  1.
         11   -1    0    0    0    0 -0.00000000000E+00 -0.00000000000E+00 -0.45593999997E+02  0.45594000000E+02  0.51100000000E-03 0. -1.
    9900012    2    1    2    0    0  0.26144931701E+02  0.22714427300E+02  0.21299409529E+02  0.50528837349E+02  0.29999931606E+02 0.  0.
         12    1    1    2    0    0 -0.26144931701E+02 -0.22714427300E+02 -0.21299409529E+02  0.40659162651E+02  0.00000000000E+00 0. -1.
         11    1    3    3    0    0  0.33070970053E+01  0.50403816331E+01 -0.48560736113E+01  0.77410457168E+01  0.51100000000E-03 0. -1.
        -11    1    3    3    0    0  0.94454555107E+01  0.18087939777E+02  0.14551063078E+02  0.25062394781E+02  0.51100000000E-03 0.  1.
        -12    1    3    3    0    0  0.13392379185E+02 -0.41389411039E+00  0.11604420063E+02  0.17725396852E+02  0.00000000000E+00 0.  1.
</event>
<event>
 7    1  0.3141443E-011  0.5052887E+02  0.7816164E-02  0.1300439E+00
        -11   -1    0    0    0    0  0.00000000000E+00  0.00000000000E+00  0.45593999997E+02  0.45594000000E+02  0.51100000000E-03 0.  1.
         11   -1    0    0    0    0 -0.00000000000E+00 -0.00000000000E+00 -0.45593999997E+02  0.45594000000E+02  0.51100000000E-03 0. -1.
    9900012    2    1    2    0    0  0.21233344014E+02 -0.32441915767E+02  0.12240582957E+02  0.50528872270E+02  0.30000037752E+02 0.  0.
         12    1    1    2    0    0 -0.21233344014E+02  0.32441915767E+02 -0.12240582957E+02  0.40659127730E+02  0.00000000000E+00 0. -1.
         11    1    3    3    0    0 -0.45929219384E+01 -0.11536802706E+02 -0.15190486899E+01  0.12510006307E+02  0.51100000000E-03 0. -1.
        -11    1    3    3    0    0  0.55361685637E+01 -0.11496209398E+02  0.74710413007E+01  0.14786089790E+02  0.51100000000E-03 0.  1.
        -12    1    3    3    0    0  0.20290097388E+02 -0.94089036623E+01  0.62885903462E+01  0.23232776173E+02  0.00000000000E+00 0.  1.
</event>
<event>
 7    1  0.3141443E-011  0.5052887E+02  0.7816164E-02  0.1300439E+00
        -11   -1    0    0    0    0  0.00000000000E+00  0.00000000000E+00  0.45593999997E+02  0.45594000000E+02  0.51100000000E-03 0.  1.
         11   -1    0    0    0    0 -0.00000000000E+00 -0.00000000000E+00 -0.45593999997E+02  0.45594000000E+02  0.51100000000E-03 0. -1.
    9900012    2    1    2    0    0 -0.68922506747E+01 -0.28698952028E+02  0.27964838759E+02  0.50528866049E+02  0.30000018841E+02 0.  0.
         12    1    1    2    0    0  0.68922506747E+01  0.28698952028E+02 -0.27964838759E+02  0.40659133951E+02  0.00000000000E+00 0. -1.
         11    1    3    3    0    0 -0.18003960980E+02 -0.12628018787E+02  0.12751361912E+02  0.25420595987E+02  0.51100000000E-03 0.  1.
        -11    1    3    3    0    0  0.55889209694E+01 -0.60159118091E+01  0.42764760529E+01  0.92582655065E+01  0.51100000000E-03 0. -1.
        -12    1    3    3    0    0  0.55227893354E+01 -0.10055021432E+02  0.10937000794E+02  0.15850004555E+02  0.00000000000E+00 0.  1.
</event>
<event>
 7    1  0.3141443E-011  0.5052886E+02  0.7816164E-02  0.1300439E+00
        -11   -1    0    0    0    0  0.00000000000E+00  0.00000000000E+00  0.45593999997E+02  0.45594000000E+02  0.51100000000E-03 0.  1.
         11   -1    0    0    0    0 -0.00000000000E+00 -0.00000000000E+00 -0.45593999997E+02  0.45594000000E+02  0.51100000000E-03 0. -1.
    9900012    2    1    2    0    0 -0.13874177194E+02  0.14641348612E+02  0.35303023587E+02  0.50528863802E+02  0.30000012014E+02 0.  0.
         12    1    1    2    0    0  0.13874177194E+02 -0.14641348612E+02 -0.35303023587E+02  0.40659136198E+02  0.00000000000E+00 0. -1.
         11    1    3    3    0    0  0.33836151300E+01  0.83033559470E+01  0.75650799648E+01  0.11731368482E+02  0.51100000000E-03 0. -1.
        -11    1    3    3    0    0  0.29261270760E+01 -0.30701260406E+01  0.79341825264E+01  0.89966185977E+01  0.51100000000E-03 0.  1.
        -12    1    3    3    0    0 -0.20183919399E+02  0.94081187056E+01  0.19803761095E+02  0.29800876722E+02  0.00000000000E+00 0.  1.
</event>
<event>
 7    1  0.3141443E-011  0.5052887E+02  0.7816164E-02  0.1300439E+00
        -11   -1    0    0    0    0  0.00000000000E+00  0.00000000000E+00  0.45593999997E+02  0.45594000000E+02  0.51100000000E-03 0.  1.
         11   -1    0    0    0    0 -0.00000000000E+00 -0.00000000000E+00 -0.45593999997E+02  0.45594000000E+02  0.51100000000E-03 0. -1.
    9900012    2    1    2    0    0 -0.27011954705E+02 -0.24737379937E+02  0.17651661560E+02  0.50528870411E+02  0.30000032100E+02 0.  0.
         12    1    1    2    0    0  0.27011954705E+02  0.24737379937E+02 -0.17651661560E+02  0.40659129589E+02  0.00000000000E+00 0. -1.
         11    1    3    3    0    0 -0.18143155514E+02 -0.25478286445E+01  0.19728235098E+01  0.18427087552E+02  0.51100000000E-03 0. -1.
        -11    1    3    3    0    0 -0.84766335687E+01 -0.40649107980E+01  0.82581016942E+01  0.12512915740E+02  0.51100000000E-03 0.  1.
         12    1    3    3    0    0 -0.39216562237E+00 -0.18124640495E+02  0.74207363563E+01  0.19588867119E+02  0.00000000000E+00 0. -1.
</event>
<event>
 7    1  0.3141443E-011  0.5052886E+02  0.7816164E-02  0.1300439E+00
        -11   -1    0    0    0    0  0.00000000000E+00  0.00000000000E+00  0.45593999997E+02  0.45594000000E+02  0.51100000000E-03 0. -1.
         11   -1    0    0    0    0 -0.00000000000E+00 -0.00000000000E+00 -0.45593999997E+02  0.45594000000E+02  0.51100000000E-03 0.  1.
    9900012    2    1    2    0    0  0.16378485471E+02  0.37091066479E+02 -0.30271414776E+01  0.50528860998E+02  0.30000003489E+02 0.  0.
         12    1    1    2    0    0 -0.16378485471E+02 -0.37091066479E+02  0.30271414776E+01  0.40659139002E+02  0.00000000000E+00 0. -1.
         11    1    3    3    0    0  0.10752186241E+02  0.63392303723E+01  0.13439088778E+01  0.12553941294E+02  0.51100000000E-03 0.  1.
        -11    1    3    3    0    0 -0.43683146785E+00  0.28986456350E+01  0.67639325860E+01  0.73718215210E+01  0.51100000000E-03 0. -1.
        -12    1    3    3    0    0  0.60631306982E+01  0.27853190472E+02 -0.11134982941E+02  0.30603098183E+02  0.00000000000E+00 0.  1.
</event>
<event>
 7    1  0.3141443E-011  0.5052886E+02  0.7816164E-02  0.1300439E+00
        -11   -1    0    0    0    0  0.00000000000E+00  0.00000000000E+00  0.45593999997E+02  0.45594000000E+02  0.51100000000E-03 0.  1.
         11   -1    0    0    0    0 -0.00000000000E+00 -0.00000000000E+00 -0.45593999997E+02  0.45594000000E+02  0.51100000000E-03 0. -1.
    9900012    2    1    2    0    0 -0.13522572825E+02  0.13015692410E+02  0.36067950505E+02  0.50528864761E+02  0.30000014928E+02 0.  0.
         12    1    1    2    0    0  0.13522572825E+02 -0.13015692410E+02 -0.36067950505E+02  0.40659135239E+02  0.00000000000E+00 0. -1.
         11    1    3    3    0    0 -0.97263238593E+01  0.11217793210E+02  0.10614829062E+02  0.18251434371E+02  0.51100000000E-03 0. -1.
        -11    1    3    3    0    0 -0.88766678785E+01  0.52492631545E+01  0.61192909728E+01  0.11991485253E+02  0.51100000000E-03 0.  1.
         12    1    3    3    0    0  0.50804189127E+01 -0.34513639546E+01  0.19333830471E+02  0.20285945138E+02  0.00000000000E+00 0. -1.
</event>
<event>
 7    1  0.3141443E-011  0.5052885E+02  0.7816164E-02  0.1300439E+00
        -11   -1    0    0    0    0  0.00000000000E+00  0.00000000000E+00  0.45593999997E+02  0.45594000000E+02  0.51100000000E-03 0. -1.
         11   -1    0    0    0    0 -0.00000000000E+00 -0.00000000000E+00 -0.45593999997E+02  0.45594000000E+02  0.51100000000E-03 0.  1.
    9900012    2    1    2    0    0 -0.24072229803E+02 -0.31651083059E+02 -0.84795894746E+01  0.50528846735E+02  0.29999960137E+02 0.  0.
         12    1    1    2    0    0  0.24072229803E+02  0.31651083059E+02  0.84795894746E+01  0.40659153265E+02  0.00000000000E+00 0. -1.
         11    1    3    3    0    0 -0.65217429869E+01 -0.61987523442E+01 -0.14554921253E+02  0.17111498916E+02  0.51100000000E-03 0. -1.
        -11    1    3    3    0    0 -0.14447891034E+02 -0.11254298228E+02  0.29125407208E+01  0.18544100885E+02  0.51100000000E-03 0.  1.
        -12    1    3    3    0    0 -0.31025957825E+01 -0.14198032487E+02  0.31627910571E+01  0.14873246935E+02  0.00000000000E+00 0.  1.
</event>
<event>
 7    1  0.3141443E-011  0.5052886E+02  0.7816164E-02  0.1300439E+00
        -11   -1    0    0    0    0  0.00000000000E+00  0.00000000000E+00  0.45593999997E+02  0.45594000000E+02  0.51100000000E-03 0.  1.
         11   -1    0    0    0    0 -0.00000000000E+00 -0.00000000000E+00 -0.45593999997E+02  0.45594000000E+02  0.51100000000E-03 0. -1.
    9900012    2    1    2    0    0  0.11999656931E+02 -0.16716621022E+02  0.35067482480E+02  0.50528861884E+02  0.30000006183E+02 0.  0.
         12    1    1    2    0    0 -0.11999656931E+02  0.16716621022E+02 -0.35067482480E+02  0.40659138116E+02  0.00000000000E+00 0. -1.
         11    1    3    3    0    0  0.11554277396E+02  0.22760844816E+01  0.68716074943E+01  0.13634547170E+02  0.51100000000E-03 0. -1.
        -11    1    3    3    0    0  0.70909421760E+01 -0.12999503104E+02  0.16553234032E+02  0.22209864904E+02  0.51100000000E-03 0.  1.
        -12    1    3    3    0    0 -0.66455626419E+01 -0.59932023994E+01  0.11642640954E+02  0.14684449810E+02  0.00000000000E+00 0.  1.
</event>
<event>
 7    1  0.3260585E-011  0.5052886E+02  0.7816164E-02  0.1300439E+00
        -11   -1    0    0    0    0  0.00000000000E+00  0.00000000000E+00  0.45593999997E+02  0.45594000000E+02  0.51100000000E-03 0.  1.
         11   -1    0    0    0    0 -0.00000000000E+00 -0.00000000000E+00 -0.45593999997E+02  0.45594000000E+02  0.51100000000E-03 0. -1.
    9900012    2    1    2    0    0  0.15954886258E+02  0.26080907746E+02  0.26802862510E+02  0.50528861014E+02  0.30000003538E+02 0.  0.
         12    1    1    2    0    0 -0.15954886258E+02 -0.26080907746E+02 -0.26802862510E+02  0.40659138986E+02  0.00000000000E+00 0. -1.
         11    1    3    3    0    0 -0.21226113598E+01 -0.30547857165E+00 -0.40408973523E+01  0.45746746131E+01  0.51100000000E-03 0. -1.
        -11    1    3    3    0    0  0.12057470181E+02  0.85131925108E+01  0.17267450390E+02  0.22716114921E+02  0.51100000000E-03 0.  1.
        -12    1    3    3    0    0  0.60200274372E+01  0.17873193807E+02  0.13576309472E+02  0.23238071480E+02  0.00000000000E+00 0.  1.
</event>
<event>
 7    1  0.3141443E-011  0.5052886E+02  0.7816164E-02  0.1300439E+00
        -11   -1    0    0    0    0  0.00000000000E+00  0.00000000000E+00  0.45593999997E+02  0.45594000000E+02  0.51100000000E-03 0. -1.
         11   -1    0    0    0    0 -0.00000000000E+00 -0.00000000000E+00 -0.45593999997E+02  0.45594000000E+02  0.51100000000E-03 0.  1.
    9900012    2    1    2    0    0  0.34653744778E+02 -0.24226421683E+01 -0.21128521342E+02  0.50528860359E+02  0.30000001548E+02 0.  0.
         12    1    1    2    0    0 -0.34653744778E+02  0.24226421683E+01  0.21128521342E+02  0.40659139641E+02  0.00000000000E+00 0. -1.
         11    1    3    3    0    0  0.16590183009E+01  0.67426594184E+01 -0.14561146095E+01  0.70947915947E+01  0.51100000000E-03 0. -1.
        -11    1    3    3    0    0  0.15829246461E+02  0.21299572570E+01 -0.15695245820E+01  0.16048837002E+02  0.51100000000E-03 0.  1.
         12    1    3    3    0    0  0.17165480016E+02 -0.11295258844E+02 -0.18102882150E+02  0.27385231762E+02  0.00000000000E+00 0. -1.
</event>
<event>
 7    1  0.3141443E-011  0.5052878E+02  0.7816164E-02  0.1300439E+00
        -11   -1    0    0    0    0  0.00000000000E+00  0.00000000000E+00  0.45593999997E+02  0.45594000000E+02  0.51100000000E-03 0. -1.
         11   -1    0    0    0    0 -0.00000000000E+00 -0.00000000000E+00 -0.45593999997E+02  0.45594000000E+02  0.51100000000E-03 0.  1.
    9900012    2    1    2    0    0 -0.40054764051E+02 -0.15249593200E+01 -0.68163294441E+01  0.50528782457E+02  0.29999764755E+02 0.  0.
         12    1    1    2    0    0  0.40054764051E+02  0.15249593200E+01  0.68163294441E+01  0.40659217543E+02  0.00000000000E+00 0. -1.
         11    1    3    3    0    0 -0.15344633279E+02  0.95054306152E+01  0.16434875999E+01  0.18124900921E+02  0.51100000000E-03 0. -1.
        -11    1    3    3    0    0 -0.23711761850E+02 -0.47977179053E+01 -0.36456345925E+01  0.24465412299E+02  0.51100000000E-03 0.  1.
         12    1    3    3    0    0 -0.99836892194E+00 -0.62326720299E+01 -0.48141824515E+01  0.79384692361E+01  0.00000000000E+00 0. -1.
</event>
<event>
 7    1  0.3141443E-011  0.5052885E+02  0.7816164E-02  0.1300439E+00
        -11   -1    0    0    0    0  0.00000000000E+00  0.00000000000E+00  0.45593999997E+02  0.45594000000E+02  0.51100000000E-03 0. -1.
         11   -1    0    0    0    0 -0.00000000000E+00 -0.00000000000E+00 -0.45593999997E+02  0.45594000000E+02  0.51100000000E-03 0.  1.
    9900012    2    1    2    0    0 -0.18110444736E+02  0.99351543963E+00 -0.36389432449E+02  0.50528854960E+02  0.29999985135E+02 0.  0.
         12    1    1    2    0    0  0.18110444736E+02 -0.99351543963E+00  0.36389432449E+02  0.40659145040E+02  0.00000000000E+00 0. -1.
         11    1    3    3    0    0 -0.17204416804E+02 -0.21618930386E+00 -0.10796611136E+02  0.20312693265E+02  0.51100000000E-03 0.  1.
        -11    1    3    3    0    0 -0.78479607028E+01  0.18712527941E+01 -0.18902946098E+02  0.20552699231E+02  0.51100000000E-03 0. -1.
         12    1    3    3    0    0  0.69419327705E+01 -0.66154805064E+00 -0.66898752143E+01  0.96634624641E+01  0.00000000000E+00 0. -1.
</event>
<event>
 7    1  0.3141443E-011  0.5052886E+02  0.7816164E-02  0.1300439E+00
        -11   -1    0    0    0    0  0.00000000000E+00  0.00000000000E+00  0.45593999997E+02  0.45594000000E+02  0.51100000000E-03 0. -1.
         11   -1    0    0    0    0 -0.00000000000E+00 -0.00000000000E+00 -0.45593999997E+02  0.45594000000E+02  0.51100000000E-03 0.  1.
    9900012    2    1    2    0    0  0.79832215894E+01  0.32501100458E+02 -0.23089221153E+02  0.50528862142E+02  0.30000006966E+02 0.  0.
         12    1    1    2    0    0 -0.79832215894E+01 -0.32501100458E+02  0.23089221153E+02  0.40659137858E+02  0.00000000000E+00 0. -1.
         11    1    3    3    0    0  0.57890344474E+01  0.48331605427E+01  0.12004791887E+01  0.76363283853E+01  0.51100000000E-03 0. -1.
        -11    1    3    3    0    0 -0.19728510779E+01  0.20795459720E+02 -0.42713876261E+01  0.21321070302E+02  0.51100000000E-03 0.  1.
         12    1    3    3    0    0  0.41670382199E+01  0.68724801954E+01 -0.20018312716E+02  0.21571463454E+02  0.00000000000E+00 0. -1.
</event>
<event>
 7    1  0.3141443E-011  0.5052886E+02  0.7816164E-02  0.1300439E+00
        -11   -1    0    0    0    0  0.00000000000E+00  0.00000000000E+00  0.45593999997E+02  0.45594000000E+02  0.51100000000E-03 0. -1.
         11   -1    0    0    0    0 -0.00000000000E+00 -0.00000000000E+00 -0.45593999997E+02  0.45594000000E+02  0.51100000000E-03 0.  1.
    9900012    2    1    2    0    0 -0.29423427114E+02 -0.15288926920E+02 -0.23530328325E+02  0.50528859569E+02  0.29999999146E+02 0.  0.
         12    1    1    2    0    0  0.29423427114E+02  0.15288926920E+02  0.23530328325E+02  0.40659140431E+02  0.00000000000E+00 0. -1.
         11    1    3    3    0    0 -0.69418799497E-01 -0.61825303645E+01 -0.10500428691E+02  0.12185544864E+02  0.51100000000E-03 0. -1.
        -11    1    3    3    0    0 -0.16325694918E+02 -0.11538904807E+02 -0.14933787152E+02  0.24953810082E+02  0.51100000000E-03 0.  1.
         12    1    3    3    0    0 -0.13028313397E+02  0.24325082511E+01  0.19038875176E+01  0.13389504623E+02  0.00000000000E+00 0. -1.
</event>
<event>
 7    1  0.3141443E-011  0.5052885E+02  0.7816164E-02  0.1300439E+00
        -11   -1    0    0    0    0  0.00000000000E+00  0.00000000000E+00  0.45593999997E+02  0.45594000000E+02  0.51100000000E-03 0.  1.
         11   -1    0    0    0    0 -0.00000000000E+00 -0.00000000000E+00 -0.45593999997E+02  0.45594000000E+02  0.51100000000E-03 0. -1.
    9900012    2    1    2    0    0  0.15220082771E+02  0.11098167371E+02  0.36032572762E+02  0.50528849266E+02  0.29999967830E+02 0.  0.
         12    1    1    2    0    0 -0.15220082771E+02 -0.11098167371E+02 -0.36032572762E+02  0.40659150734E+02  0.00000000000E+00 0. -1.
         11    1    3    3    0    0  0.51691571527E+01  0.28386591433E+01  0.25048402087E+02  0.25733259000E+02  0.51100000000E-03 0.  1.
        -11    1    3    3    0    0  0.94974571609E+01  0.11158523038E+02  0.14218097147E+02  0.20417360643E+02  0.51100000000E-03 0. -1.
         12    1    3    3    0    0  0.55346845762E+00 -0.28990148101E+01 -0.32339264722E+01  0.43782296228E+01  0.00000000000E+00 0. -1.
</event>
<event>
 7    1  0.3141443E-011  0.5052886E+02  0.7816164E-02  0.1300439E+00
        -11   -1    0    0    0    0  0.00000000000E+00  0.00000000000E+00  0.45593999997E+02  0.45594000000E+02  0.51100000000E-03 0. -1.
         11   -1    0    0    0    0 -0.00000000000E+00 -0.00000000000E+00 -0.45593999997E+02  0.45594000000E+02  0.51100000000E-03 0.  1.
    9900012    2    1    2    0    0 -0.38225746893E+02  0.13831137248E+02 -0.81081961185E+00  0.50528861894E+02  0.30000006213E+02 0.  0.
         12    1    1    2    0    0  0.38225746893E+02 -0.13831137248E+02  0.81081961185E+00  0.40659138106E+02  0.00000000000E+00 0. -1.
         11    1    3    3    0    0  0.68898225068E+00  0.85200168513E+01  0.41209386676E+01  0.94893371450E+01  0.51100000000E-03 0. -1.
        -11    1    3    3    0    0 -0.61156652329E+01  0.18044463523E+01 -0.49195570343E+01  0.80535352209E+01  0.51100000000E-03 0.  1.
        -12    1    3    3    0    0 -0.32799063911E+02  0.35066740440E+01 -0.12201245145E-01  0.32985989528E+02  0.00000000000E+00 0.  1.
</event>
<event>
 7    1  0.3141443E-011  0.5052887E+02  0.7816164E-02  0.1300439E+00
        -11   -1    0    0    0    0  0.00000000000E+00  0.00000000000E+00  0.45593999997E+02  0.45594000000E+02  0.51100000000E-03 0.  1.
         11   -1    0    0    0    0 -0.00000000000E+00 -0.00000000000E+00 -0.45593999997E+02  0.45594000000E+02  0.51100000000E-03 0. -1.
    9900012    2    1    2    0    0  0.36478800900E+02  0.15849935414E+02 -0.84404805034E+01  0.50528867215E+02  0.30000022385E+02 0.  0.
         12    1    1    2    0    0 -0.36478800900E+02 -0.15849935414E+02  0.84404805034E+01  0.40659132785E+02  0.00000000000E+00 0. -1.
         11    1    3    3    0    0  0.23492333955E+02 -0.35203154975E+01 -0.10995512834E+01  0.23780062850E+02  0.51100000000E-03 0.  1.
        -11    1    3    3    0    0  0.10576379221E+02  0.76098356527E+01 -0.68816062664E+01  0.14735192607E+02  0.51100000000E-03 0. -1.
        -12    1    3    3    0    0  0.24100877238E+01  0.11760415258E+02 -0.45932295360E+00  0.12013611758E+02  0.00000000000E+00 0.  1.
</event>
<event>
 7    1  0.3141443E-011  0.5052887E+02  0.7816164E-02  0.1300439E+00
        -11   -1    0    0    0    0  0.00000000000E+00  0.00000000000E+00  0.45593999997E+02  0.45594000000E+02  0.51100000000E-03 0. -1.
         11   -1    0    0    0    0 -0.00000000000E+00 -0.00000000000E+00 -0.45593999997E+02  0.45594000000E+02  0.51100000000E-03 0.  1.
    9900012    2    1    2    0    0 -0.27833666040E+02 -0.20249956126E+02  0.21642353982E+02  0.50528866042E+02  0.30000018821E+02 0.  0.
         12    1    1    2    0    0  0.27833666040E+02  0.20249956126E+02 -0.21642353982E+02  0.40659133958E+02  0.00000000000E+00 0. -1.
         11    1    3    3    0    0  0.14908692657E+01  0.28636833566E+01  0.10274371967E+01  0.33880674415E+01  0.51100000000E-03 0. -1.
        -11    1    3    3    0    0 -0.13702222423E+02  0.52338937195E+00  0.96149204135E+01  0.16747284275E+02  0.51100000000E-03 0.  1.
        -12    1    3    3    0    0 -0.15622312883E+02 -0.23637028855E+02  0.10999996372E+02  0.30393514326E+02  0.00000000000E+00 0.  1.
</event>
<event>
 7    1  0.3141443E-011  0.5052886E+02  0.7816164E-02  0.1300439E+00
        -11   -1    0    0    0    0  0.00000000000E+00  0.00000000000E+00  0.45593999997E+02  0.45594000000E+02  0.51100000000E-03 0. -1.
         11   -1    0    0    0    0 -0.00000000000E+00 -0.00000000000E+00 -0.45593999997E+02  0.45594000000E+02  0.51100000000E-03 0.  1.
    9900012    2    1    2    0    0  0.14665828318E+02  0.21615702454E+02 -0.31158313381E+02  0.50528860737E+02  0.30000002698E+02 0.  0.
         12    1    1    2    0    0 -0.14665828318E+02 -0.21615702454E+02  0.31158313381E+02  0.40659139263E+02  0.00000000000E+00 0. -1.
         11    1    3    3    0    0 -0.36008328409E+01  0.90620732316E+01 -0.17510468370E+02  0.20042546525E+02  0.51100000000E-03 0. -1.
        -11    1    3    3    0    0  0.15423315357E+01  0.60713825729E+01 -0.10571056708E+02  0.12287705770E+02  0.51100000000E-03 0.  1.
         12    1    3    3    0    0  0.16724329624E+02  0.64822466493E+01 -0.30767883030E+01  0.18198608442E+02  0.00000000000E+00 0. -1.
</event>
<event>
 7    1  0.3141443E-011  0.5052886E+02  0.7816164E-02  0.1300439E+00
        -11   -1    0    0    0    0  0.00000000000E+00  0.00000000000E+00  0.45593999997E+02  0.45594000000E+02  0.51100000000E-03 0.  1.
         11   -1    0    0    0    0 -0.00000000000E+00 -0.00000000000E+00 -0.45593999997E+02  0.45594000000E+02  0.51100000000E-03 0. -1.
    9900012    2    1    2    0    0 -0.11856586667E+02 -0.54223712353E+01  0.38512136871E+02  0.50528862730E+02  0.30000008754E+02 0.  0.
         12    1    1    2    0    0  0.11856586667E+02  0.54223712353E+01 -0.38512136871E+02  0.40659137270E+02  0.00000000000E+00 0. -1.
         11    1    3    3    0    0  0.65238467152E+01  0.68412325813E+00  0.53092666704E+01  0.84390114014E+01  0.51100000000E-03 0. -1.
        -11    1    3    3    0    0 -0.10404486783E+02 -0.91032789776E+01  0.29918942878E+02  0.32958552403E+02  0.51100000000E-03 0.  1.
        -12    1    3    3    0    0 -0.79759465992E+01  0.29967844843E+01  0.32839273227E+01  0.91312989251E+01  0.00000000000E+00 0.  1.
</event>
<event>
 7    1  0.3141443E-011  0.5052888E+02  0.7816164E-02  0.1300439E+00
        -11   -1    0    0    0    0  0.00000000000E+00  0.00000000000E+00  0.45593999997E+02  0.45594000000E+02  0.51100000000E-03 0.  1.
         11   -1    0    0    0    0 -0.00000000000E+00 -0.00000000000E+00 -0.45593999997E+02  0.45594000000E+02  0.51100000000E-03 0. -1.
    9900012    2    1    2    0    0  0.33017659883E+02  0.26755489917E+01  0.23576259170E+02  0.50528875280E+02  0.30000046900E+02 0.  0.
         12    1    1    2    0    0 -0.33017659883E+02 -0.26755489917E+01 -0.23576259170E+02  0.40659124720E+02  0.00000000000E+00 0. -1.
         11    1    3    3    0    0  0.20386738293E+02  0.86353788719E+01  0.11547100127E+02  0.24970470322E+02  0.51100000000E-03 0. -1.
        -11    1    3    3    0    0  0.15566320984E+02 -0.25142505101E+01  0.13542844854E+02  0.20785582782E+02  0.51100000000E-03 0.  1.
         12    1    3    3    0    0 -0.29353993934E+01 -0.34455793701E+01 -0.15136858098E+01  0.47728221761E+01  0.00000000000E+00 0. -1.
</event>
<event>
 7    1  0.3141443E-011  0.5052886E+02  0.7816164E-02  0.1300439E+00
        -11   -1    0    0    0    0  0.00000000000E+00  0.00000000000E+00  0.45593999997E+02  0.45594000000E+02  0.51100000000E-03 0.  1.
         11   -1    0    0    0    0 -0.00000000000E+00 -0.00000000000E+00 -0.45593999997E+02  0.45594000000E+02  0.51100000000E-03 0. -1.
    9900012    2    1    2    0    0 -0.15512546732E+02  0.15742999494E+02  0.34127477478E+02  0.50528857631E+02  0.29999993254E+02 0.  0.
         12    1    1    2    0    0  0.15512546732E+02 -0.15742999494E+02 -0.34127477478E+02  0.40659142369E+02  0.00000000000E+00 0. -1.
         11    1    3    3    0    0 -0.81035081992E+01 -0.16206311113E+01  0.41532650428E+01  0.92489405399E+01  0.51100000000E-03 0. -1.
        -11    1    3    3    0    0 -0.48843980793E+01 -0.11869607052E+01  0.18836897169E+02  0.19496023069E+02  0.51100000000E-03 0.  1.
         12    1    3    3    0    0 -0.25246404537E+01  0.18550591310E+02  0.11137315267E+02  0.21783894021E+02  0.00000000000E+00 0. -1.
</event>
<event>
 7    1  0.3141443E-011  0.5052878E+02  0.7816164E-02  0.1300439E+00
        -11   -1    0    0    0    0  0.00000000000E+00  0.00000000000E+00  0.45593999997E+02  0.45594000000E+02  0.51100000000E-03 0.  1.
         11   -1    0    0    0    0 -0.00000000000E+00 -0.00000000000E+00 -0.45593999997E+02  0.45594000000E+02  0.51100000000E-03 0. -1.
    9900012    2    1    2    0    0  0.98080589841E+01  0.23428797982E+02  0.31750043361E+02  0.50528783956E+02  0.29999769310E+02 0.  0.
         12    1    1    2    0    0 -0.98080589841E+01 -0.23428797982E+02 -0.31750043361E+02  0.40659216044E+02  0.00000000000E+00 0. -1.
         11    1    3    3    0    0 -0.49576464227E+00  0.24538907108E+01 -0.29125037058E+01  0.38405781203E+01  0.51100000000E-03 0. -1.
        -11    1    3    3    0    0 -0.29259526382E+01  0.15848095788E+02  0.12598640090E+02  0.20456027751E+02  0.51100000000E-03 0.  1.
        -12    1    3    3    0    0  0.13229776265E+02  0.51268114833E+01  0.22063906976E+02  0.26232178084E+02  0.00000000000E+00 0.  1.
</event>
<event>
 7    1  0.3141443E-011  0.5052885E+02  0.7816164E-02  0.1300439E+00
        -11   -1    0    0    0    0  0.00000000000E+00  0.00000000000E+00  0.45593999997E+02  0.45594000000E+02  0.51100000000E-03 0.  1.
         11   -1    0    0    0    0 -0.00000000000E+00 -0.00000000000E+00 -0.45593999997E+02  0.45594000000E+02  0.51100000000E-03 0. -1.
    9900012    2    1    2    0    0 -0.11646226182E+02 -0.15312060400E+02  0.35820003699E+02  0.50528850440E+02  0.29999971397E+02 0.  0.
         12    1    1    2    0    0  0.11646226182E+02  0.15312060400E+02 -0.35820003699E+02  0.40659149560E+02  0.00000000000E+00 0. -1.
         11    1    3    3    0    0 -0.96194095727E+01  0.67999784425E+00  0.17908701458E+02  0.20340035048E+02  0.51100000000E-03 0. -1.
        -11    1    3    3    0    0  0.28249901602E+01 -0.66870051993E+01  0.18300413338E+02  0.19687603626E+02  0.51100000000E-03 0.  1.
         12    1    3    3    0    0 -0.48518067695E+01 -0.93050530450E+01 -0.38911109693E+00  0.10501211766E+02  0.00000000000E+00 0. -1.
</event>
<event>
 7    1  0.3141443E-011  0.5052887E+02  0.7816164E-02  0.1300439E+00
        -11   -1    0    0    0    0  0.00000000000E+00  0.00000000000E+00  0.45593999997E+02  0.45594000000E+02  0.51100000000E-03 0.  1.
         11   -1    0    0    0    0 -0.00000000000E+00 -0.00000000000E+00 -0.45593999997E+02  0.45594000000E+02  0.51100000000E-03 0. -1.
    9900012    2    1    2    0    0  0.80985557483E+01  0.14518258408E+02  0.37105229224E+02  0.50528874725E+02  0.30000045213E+02 0.  0.
         12    1    1    2    0    0 -0.80985557483E+01 -0.14518258408E+02 -0.37105229224E+02  0.40659125275E+02  0.00000000000E+00 0. -1.
         11    1    3    3    0    0  0.10378810686E+01  0.14764127509E+01  0.10737248980E+02  0.10887860563E+02  0.51100000000E-03 0. -1.
        -11    1    3    3    0    0  0.15645141267E+02  0.13651033352E+02  0.20806076490E+02  0.29394114649E+02  0.51100000000E-03 0.  1.
         12    1    3    3    0    0 -0.85844665875E+01 -0.60918769538E+00  0.55619037542E+01  0.10246899512E+02  0.00000000000E+00 0. -1.
</event>
<event>
 7    1  0.3141443E-011  0.5052886E+02  0.7816164E-02  0.1300439E+00
        -11   -1    0    0    0    0  0.00000000000E+00  0.00000000000E+00  0.45593999997E+02  0.45594000000E+02  0.51100000000E-03 0.  1.
         11   -1    0    0    0    0 -0.00000000000E+00 -0.00000000000E+00 -0.45593999997E+02  0.45594000000E+02  0.51100000000E-03 0. -1.
    9900012    2    1    2    0    0  0.39975771867E+02  0.76513566136E+00  0.73836232933E+01  0.50528860045E+02  0.30000000592E+02 0.  0.
         12    1    1    2    0    0 -0.39975771867E+02 -0.76513566136E+00 -0.73836232933E+01  0.40659139955E+02  0.00000000000E+00 0. -1.
         11    1    3    3    0    0 -0.18571305370E+01 -0.83162241135E+00 -0.47597231571E+01  0.51764364634E+01  0.51100000000E-03 0.  1.
        -11    1    3    3    0    0  0.17694113005E+02 -0.31562944199E+01  0.13038365923E+00  0.17973893002E+02  0.51100000000E-03 0. -1.
        -12    1    3    3    0    0  0.24138789400E+02  0.47530524926E+01  0.12012962791E+02  0.27378530580E+02  0.00000000000E+00 0.  1.
</event>
<event>
 7    1  0.3141443E-011  0.5052886E+02  0.7816164E-02  0.1300439E+00
        -11   -1    0    0    0    0  0.00000000000E+00  0.00000000000E+00  0.45593999997E+02  0.45594000000E+02  0.51100000000E-03 0.  1.
         11   -1    0    0    0    0 -0.00000000000E+00 -0.00000000000E+00 -0.45593999997E+02  0.45594000000E+02  0.51100000000E-03 0. -1.
    9900012    2    1    2    0    0 -0.43292031627E+01  0.19999479887E+02  0.35134661837E+02  0.50528860091E+02  0.30000000732E+02 0.  0.
         12    1    1    2    0    0  0.43292031627E+01 -0.19999479887E+02 -0.35134661837E+02  0.40659139909E+02  0.00000000000E+00 0. -1.
         11    1    3    3    0    0 -0.88833729679E+01  0.19183769064E+02  0.38714604436E+02  0.44110677933E+02  0.51100000000E-03 0. -1.
        -11    1    3    3    0    0 -0.60279838328E-01 -0.48108075429E+00 -0.61089988266E+00  0.77991748205E+00  0.51100000000E-03 0.  1.
         12    1    3    3    0    0  0.46144496435E+01  0.12967915771E+01 -0.29690427161E+01  0.56382646761E+01  0.00000000000E+00 0. -1.
</event>
<event>
 7    1  0.3141443E-011  0.5052889E+02  0.7816164E-02  0.1300439E+00
        -11   -1    0    0    0    0  0.00000000000E+00  0.00000000000E+00  0.45593999997E+02  0.45594000000E+02  0.51100000000E-03 0. -1.
         11   -1    0    0    0    0 -0.00000000000E+00 -0.00000000000E+00 -0.45593999997E+02  0.45594000000E+02  0.51100000000E-03 0.  1.
    9900012    2    1    2    0    0 -0.25091129724E+02  0.20034164319E+02 -0.24944551125E+02  0.50528890792E+02  0.30000094050E+02 0.  0.
         12    1    1    2    0    0  0.25091129724E+02 -0.20034164319E+02  0.24944551125E+02  0.40659109208E+02  0.00000000000E+00 0. -1.
         11    1    3    3    0    0 -0.15773284516E+02  0.32677380628E+00 -0.72760103736E+01  0.17373647077E+02  0.51100000000E-03 0.  1.
        -11    1    3    3    0    0 -0.70508495846E+01  0.15313053933E+02 -0.21194969437E+02  0.27081928112E+02  0.51100000000E-03 0. -1.
         12    1    3    3    0    0 -0.22669956234E+01  0.43943365802E+01  0.35264286847E+01  0.60733156023E+01  0.00000000000E+00 0. -1.
</event>
<event>
 7    1  0.3141443E-011  0.5052872E+02  0.7816164E-02  0.1300439E+00
        -11   -1    0    0    0    0  0.00000000000E+00  0.00000000000E+00  0.45593999997E+02  0.45594000000E+02  0.51100000000E-03 0. -1.
         11   -1    0    0    0    0 -0.00000000000E+00 -0.00000000000E+00 -0.45593999997E+02  0.45594000000E+02  0.51100000000E-03 0.  1.
    9900012    2    1    2    0    0  0.19671020143E+02  0.26130121702E+02 -0.24154594486E+02  0.50528723956E+02  0.29999586935E+02 0.  0.
         12    1    1    2    0    0 -0.19671020143E+02 -0.26130121702E+02  0.24154594486E+02  0.40659276044E+02  0.00000000000E+00 0. -1.
         11    1    3    3    0    0  0.97690888429E+01  0.10507649104E+01 -0.31308853401E+01  0.10312208638E+02  0.51100000000E-03 0.  1.
        -11    1    3    3    0    0  0.11068947615E+02  0.27442804459E+02 -0.14041857493E+02  0.32753669718E+02  0.51100000000E-03 0. -1.
         12    1    3    3    0    0 -0.11670163154E+01 -0.23634476673E+01 -0.69818516530E+01  0.74628456008E+01  0.00000000000E+00 0. -1.
</event>
<event>
 7    1  0.3141443E-011  0.5052889E+02  0.7816164E-02  0.1300439E+00
        -11   -1    0    0    0    0  0.00000000000E+00  0.00000000000E+00  0.45593999997E+02  0.45594000000E+02  0.51100000000E-03 0.  1.
         11   -1    0    0    0    0 -0.00000000000E+00 -0.00000000000E+00 -0.45593999997E+02  0.45594000000E+02  0.51100000000E-03 0. -1.
    9900012    2    1    2    0    0 -0.37534676702E+02  0.13445139347E+02  0.79711865981E+01  0.50528886102E+02  0.30000079795E+02 0.  0.
         12    1    1    2    0    0  0.37534676702E+02 -0.13445139347E+02 -0.79711865981E+01  0.40659113898E+02  0.00000000000E+00 0. -1.
         11    1    3    3    0    0  0.22964567225E+01 -0.21415205431E+01 -0.37415583860E+00  0.31622486568E+01  0.51100000000E-03 0. -1.
        -11    1    3    3    0    0 -0.20049949071E+02 -0.88010517780E+00 -0.71064404012E+00  0.20081834032E+02  0.51100000000E-03 0.  1.
         12    1    3    3    0    0 -0.19781184354E+02  0.16466765068E+02  0.90559864769E+01  0.27284803414E+02  0.00000000000E+00 0. -1.
</event>
<event>
 7    1  0.3327266E-011  0.5052886E+02  0.7816164E-02  0.1300439E+00
        -11   -1    0    0    0    0  0.00000000000E+00  0.00000000000E+00  0.45593999997E+02  0.45594000000E+02  0.51100000000E-03 0. -1.
         11   -1    0    0    0    0 -0.00000000000E+00 -0.00000000000E+00 -0.45593999997E+02  0.45594000000E+02  0.51100000000E-03 0.  1.
    9900012    2    1    2    0    0  0.33580870773E+02  0.13398699640E+01 -0.22884388214E+02  0.50528863790E+02  0.30000011977E+02 0.  0.
         12    1    1    2    0    0 -0.33580870773E+02 -0.13398699640E+01  0.22884388214E+02  0.40659136210E+02  0.00000000000E+00 0. -1.
         11    1    3    3    0    0  0.56445205230E+01  0.88139659566E+01 -0.87969125220E+01  0.13672317945E+02  0.51100000000E-03 0. -1.
        -11    1    3    3    0    0  0.10900198325E+02 -0.67193329844E+01 -0.15069933463E+02  0.19775405283E+02  0.51100000000E-03 0.  1.
        -12    1    3    3    0    0  0.17036151925E+02 -0.75476300821E+00  0.98245777109E+00  0.17081140562E+02  0.00000000000E+00 0.  1.
</event>
<event>
 7    1  0.3141443E-011  0.5052885E+02  0.7816164E-02  0.1300439E+00
        -11   -1    0    0    0    0  0.00000000000E+00  0.00000000000E+00  0.45593999997E+02  0.45594000000E+02  0.51100000000E-03 0.  1.
         11   -1    0    0    0    0 -0.00000000000E+00 -0.00000000000E+00 -0.45593999997E+02  0.45594000000E+02  0.51100000000E-03 0. -1.
    9900012    2    1    2    0    0 -0.22347539251E+02 -0.33189015612E+02 -0.72279280826E+01  0.50528853277E+02  0.29999980022E+02 0.  0.
         12    1    1    2    0    0  0.22347539251E+02  0.33189015612E+02  0.72279280826E+01  0.40659146723E+02  0.00000000000E+00 0. -1.
         11    1    3    3    0    0 -0.13052897246E+02 -0.19842057613E+02 -0.41559422750E+01  0.24111350715E+02  0.51100000000E-03 0. -1.
        -11    1    3    3    0    0 -0.78596209741E+01 -0.18068149045E+02  0.14065084866E+01  0.19753731753E+02  0.51100000000E-03 0.  1.
         12    1    3    3    0    0 -0.14350210307E+01  0.47211910468E+01 -0.44784942943E+01  0.66637708096E+01  0.00000000000E+00 0. -1.
</event>
<event>
 7    1  0.3141443E-011  0.5052884E+02  0.7816164E-02  0.1300439E+00
        -11   -1    0    0    0    0  0.00000000000E+00  0.00000000000E+00  0.45593999997E+02  0.45594000000E+02  0.51100000000E-03 0.  1.
         11   -1    0    0    0    0 -0.00000000000E+00 -0.00000000000E+00 -0.45593999997E+02  0.45594000000E+02  0.51100000000E-03 0. -1.
    9900012    2    1    2    0    0 -0.87352317752E+01 -0.80693418383E+00  0.39701530401E+02  0.50528844412E+02  0.29999953075E+02 0.  0.
         12    1    1    2    0    0  0.87352317752E+01  0.80693418383E+00 -0.39701530401E+02  0.40659155588E+02  0.00000000000E+00 0. -1.
         11    1    3    3    0    0  0.13375545998E+01 -0.95403323663E+01  0.16630095483E+02  0.19218924788E+02  0.51100000000E-03 0. -1.
        -11    1    3    3    0    0 -0.99654701591E+01 -0.77327401753E+00  0.56985418775E+01  0.11505734570E+02  0.51100000000E-03 0.  1.
         12    1    3    3    0    0 -0.10731621594E+00  0.95066722000E+01  0.17372893040E+02  0.19804185054E+02  0.00000000000E+00 0. -1.
</event>
<event>
 7    1  0.3141443E-011  0.5052887E+02  0.7816164E-02  0.1300439E+00
        -11   -1    0    0    0    0  0.00000000000E+00  0.00000000000E+00  0.45593999997E+02  0.45594000000E+02  0.51100000000E-03 0.  1.
         11   -1    0    0    0    0 -0.00000000000E+00 -0.00000000000E+00 -0.45593999997E+02  0.45594000000E+02  0.51100000000E-03 0. -1.
    9900012    2    1    2    0    0 -0.34100383654E+02 -0.15642626598E+02  0.15672807403E+02  0.50528870347E+02  0.30000031906E+02 0.  0.
         12    1    1    2    0    0  0.34100383654E+02  0.15642626598E+02 -0.15672807403E+02  0.40659129653E+02  0.00000000000E+00 0. -1.
         11    1    3    3    0    0 -0.36164200172E+01  0.12630798851E+01  0.51838078697E+01  0.64455976316E+01  0.51100000000E-03 0. -1.
        -11    1    3    3    0    0 -0.23295974386E+02 -0.71484438016E+00 -0.36127630389E+00  0.23309739293E+02  0.51100000000E-03 0.  1.
         12    1    3    3    0    0 -0.71879892514E+01 -0.16190862103E+02  0.10850275837E+02  0.20773533422E+02  0.00000000000E+00 0. -1.
</event>
<event>
 7    1  0.3141443E-011  0.5052886E+02  0.7816164E-02  0.1300439E+00
        -11   -1    0    0    0    0  0.00000000000E+00  0.00000000000E+00  0.45593999997E+02  0.45594000000E+02  0.51100000000E-03 0.  1.
         11   -1    0    0    0    0 -0.00000000000E+00 -0.00000000000E+00 -0.45593999997E+02  0.45594000000E+02  0.51100000000E-03 0. -1.
    9900012    2    1    2    0    0 -0.39257363188E+02  0.77934467436E+01 -0.71615227006E+01  0.50528858543E+02  0.29999996027E+02 0.  0.
         12    1    1    2    0    0  0.39257363188E+02 -0.77934467436E+01  0.71615227006E+01  0.40659141457E+02  0.00000000000E+00 0. -1.
         11    1    3    3    0    0 -0.15796380224E+02 -0.78837756485E+01  0.84723556198E+00  0.17674766053E+02  0.51100000000E-03 0. -1.
        -11    1    3    3    0    0 -0.72331602057E+00  0.47468673048E+01  0.26293971779E+01  0.54744556857E+01  0.51100000000E-03 0.  1.
        -12    1    3    3    0    0 -0.22737666944E+02  0.10930355087E+02 -0.10638155441E+02  0.27379636805E+02  0.00000000000E+00 0.  1.
</event>
<event>
 7    1  0.3141443E-011  0.5052887E+02  0.7816164E-02  0.1300439E+00
        -11   -1    0    0    0    0  0.00000000000E+00  0.00000000000E+00  0.45593999997E+02  0.45594000000E+02  0.51100000000E-03 0.  1.
         11   -1    0    0    0    0 -0.00000000000E+00 -0.00000000000E+00 -0.45593999997E+02  0.45594000000E+02  0.51100000000E-03 0. -1.
    9900012    2    1    2    0    0  0.33942175090E+02  0.21980344128E+02  0.42377050650E+01  0.50528869143E+02  0.30000028246E+02 0.  0.
         12    1    1    2    0    0 -0.33942175090E+02 -0.21980344128E+02 -0.42377050650E+01  0.40659130857E+02  0.00000000000E+00 0. -1.
         11    1    3    3    0    0  0.24093149446E+02  0.16354975599E+02  0.16254092079E+02  0.33349071751E+02  0.51100000000E-03 0.  1.
        -11    1    3    3    0    0  0.42508624018E+01  0.82093932094E+00 -0.20769613358E+01  0.48018268585E+01  0.51100000000E-03 0. -1.
        -12    1    3    3    0    0  0.55981632422E+01  0.48044292081E+01 -0.99394256784E+01  0.12377970533E+02  0.00000000000E+00 0.  1.
</event>
<event>
 7    1  0.3141443E-011  0.5052887E+02  0.7816164E-02  0.1300439E+00
        -11   -1    0    0    0    0  0.00000000000E+00  0.00000000000E+00  0.45593999997E+02  0.45594000000E+02  0.51100000000E-03 0.  1.
         11   -1    0    0    0    0 -0.00000000000E+00 -0.00000000000E+00 -0.45593999997E+02  0.45594000000E+02  0.51100000000E-03 0. -1.
    9900012    2    1    2    0    0  0.34349044989E+02  0.21567593872E+02  0.28542836803E+01  0.50528869015E+02  0.30000027859E+02 0.  0.
         12    1    1    2    0    0 -0.34349044989E+02 -0.21567593872E+02 -0.28542836803E+01  0.40659130985E+02  0.00000000000E+00 0. -1.
         11    1    3    3    0    0 -0.19870106010E+01  0.79666432959E+01  0.14659761979E+01  0.83405457260E+01  0.51100000000E-03 0. -1.
        -11    1    3    3    0    0  0.15174385183E+02  0.12942439142E+02  0.53493230523E+01  0.20649066661E+02  0.51100000000E-03 0.  1.
         12    1    3    3    0    0  0.21161670407E+02  0.65851143451E+00 -0.39610155698E+01  0.21539256628E+02  0.00000000000E+00 0. -1.
</event>
<event>
 7    1  0.3141443E-011  0.5052888E+02  0.7816164E-02  0.1300439E+00
        -11   -1    0    0    0    0  0.00000000000E+00  0.00000000000E+00  0.45593999997E+02  0.45594000000E+02  0.51100000000E-03 0. -1.
         11   -1    0    0    0    0 -0.00000000000E+00 -0.00000000000E+00 -0.45593999997E+02  0.45594000000E+02  0.51100000000E-03 0.  1.
    9900012    2    1    2    0    0  0.12325188722E+02  0.38742915008E+02 -0.49039651931E+00  0.50528877665E+02  0.30000054149E+02 0.  0.
         12    1    1    2    0    0 -0.12325188722E+02 -0.38742915008E+02  0.49039651931E+00  0.40659122335E+02  0.00000000000E+00 0. -1.
         11    1    3    3    0    0  0.11741462616E+02  0.49067257468E+01  0.81645948544E+00  0.12751647277E+02  0.51100000000E-03 0. -1.
        -11    1    3    3    0    0  0.78260615326E+01  0.25679117194E+02 -0.10662485635E+01  0.26866357870E+02  0.51100000000E-03 0.  1.
         12    1    3    3    0    0 -0.72423354267E+01  0.81570720673E+01 -0.24060744120E+00  0.10910872517E+02  0.00000000000E+00 0. -1.
</event>
<event>
 7    1  0.3141443E-011  0.5052877E+02  0.7816164E-02  0.1300439E+00
        -11   -1    0    0    0    0  0.00000000000E+00  0.00000000000E+00  0.45593999997E+02  0.45594000000E+02  0.51100000000E-03 0.  1.
         11   -1    0    0    0    0 -0.00000000000E+00 -0.00000000000E+00 -0.45593999997E+02  0.45594000000E+02  0.51100000000E-03 0. -1.
    9900012    2    1    2    0    0 -0.61832411973E+01  0.40183934073E+02 -0.43780480735E+00  0.50528773466E+02  0.29999737426E+02 0.  0.
         12    1    1    2    0    0  0.61832411973E+01 -0.40183934073E+02  0.43780480735E+00  0.40659226534E+02  0.00000000000E+00 0. -1.
         11    1    3    3    0    0  0.74785276254E+01  0.11504760709E+02 -0.14676959282E+01  0.13800073406E+02  0.51100000000E-03 0.  1.
        -11    1    3    3    0    0 -0.82162297757E+01  0.22056151335E+01 -0.37230766866E+01  0.92861439855E+01  0.51100000000E-03 0. -1.
         12    1    3    3    0    0 -0.54455390471E+01  0.26473558231E+02  0.47529678074E+01  0.27442556074E+02  0.00000000000E+00 0. -1.
</event>
<event>
 7    1  0.3141443E-011  0.5052886E+02  0.7816164E-02  0.1300439E+00
        -11   -1    0    0    0    0  0.00000000000E+00  0.00000000000E+00  0.45593999997E+02  0.45594000000E+02  0.51100000000E-03 0. -1.
         11   -1    0    0    0    0 -0.00000000000E+00 -0.00000000000E+00 -0.45593999997E+02  0.45594000000E+02  0.51100000000E-03 0.  1.
    9900012    2    1    2    0    0 -0.65205712822E+01  0.39245643894E+02 -0.83920788801E+01  0.50528863236E+02  0.30000010292E+02 0.  0.
         12    1    1    2    0    0  0.65205712822E+01 -0.39245643894E+02  0.83920788801E+01  0.40659136764E+02  0.00000000000E+00 0. -1.
         11    1    3    3    0    0 -0.21749611202E+01  0.82960995192E+01  0.23899484051E+01  0.89032340611E+01  0.51100000000E-03 0. -1.
        -11    1    3    3    0    0  0.56273739400E+01 -0.18492404188E+01 -0.15623241305E+01  0.61260006968E+01  0.51100000000E-03 0.  1.
         12    1    3    3    0    0 -0.99729841020E+01  0.32798784793E+02 -0.92197031547E+01  0.35499628478E+02  0.00000000000E+00 0. -1.
</event>
<event>
 7    1  0.3141443E-011  0.5052885E+02  0.7816164E-02  0.1300439E+00
        -11   -1    0    0    0    0  0.00000000000E+00  0.00000000000E+00  0.45593999997E+02  0.45594000000E+02  0.51100000000E-03 0.  1.
         11   -1    0    0    0    0 -0.00000000000E+00 -0.00000000000E+00 -0.45593999997E+02  0.45594000000E+02  0.51100000000E-03 0. -1.
    9900012    2    1    2    0    0  0.35211646410E+02  0.19508493620E+02  0.57205798505E+01  0.50528850967E+02  0.29999973000E+02 0.  0.
         12    1    1    2    0    0 -0.35211646410E+02 -0.19508493620E+02 -0.57205798505E+01  0.40659149033E+02  0.00000000000E+00 0. -1.
         11    1    3    3    0    0  0.15939130924E+02  0.94950249168E+01 -0.81350870447E+01  0.20258110333E+02  0.51100000000E-03 0. -1.
        -11    1    3    3    0    0  0.78032868427E+01  0.35345930513E+01 -0.28211176111E+01  0.90190541868E+01  0.51100000000E-03 0.  1.
        -12    1    3    3    0    0  0.11469228644E+02  0.64788756521E+01  0.16676784506E+02  0.21251686448E+02  0.00000000000E+00 0.  1.
</event>
<event>
 7    1  0.3141443E-011  0.5052886E+02  0.7816164E-02  0.1300439E+00
        -11   -1    0    0    0    0  0.00000000000E+00  0.00000000000E+00  0.45593999997E+02  0.45594000000E+02  0.51100000000E-03 0.  1.
         11   -1    0    0    0    0 -0.00000000000E+00 -0.00000000000E+00 -0.45593999997E+02  0.45594000000E+02  0.51100000000E-03 0. -1.
    9900012    2    1    2    0    0 -0.22480986110E+02 -0.16764412765E+02  0.29440204944E+02  0.50528856637E+02  0.29999990235E+02 0.  0.
         12    1    1    2    0    0  0.22480986110E+02  0.16764412765E+02 -0.29440204944E+02  0.40659143363E+02  0.00000000000E+00 0. -1.
         11    1    3    3    0    0  0.20408037106E+01 -0.19475110096E+01  0.15705982790E+02  0.15957304740E+02  0.51100000000E-03 0. -1.
        -11    1    3    3    0    0 -0.75681117152E+01 -0.69005099618E+01  0.12006186632E+02  0.15781060496E+02  0.51100000000E-03 0.  1.
        -12    1    3    3    0    0 -0.16953678106E+02 -0.79163917934E+01  0.17280355220E+01  0.18790491401E+02  0.00000000000E+00 0.  1.
</event>
<event>
 7    1  0.3141443E-011  0.5052888E+02  0.7816164E-02  0.1300439E+00
        -11   -1    0    0    0    0  0.00000000000E+00  0.00000000000E+00  0.45593999997E+02  0.45594000000E+02  0.51100000000E-03 0.  1.
         11   -1    0    0    0    0 -0.00000000000E+00 -0.00000000000E+00 -0.45593999997E+02  0.45594000000E+02  0.51100000000E-03 0. -1.
    9900012    2    1    2    0    0 -0.61192939763E+00 -0.16046901546E+02  0.37353534628E+02  0.50528879793E+02  0.30000060619E+02 0.  0.
         12    1    1    2    0    0  0.61192939763E+00  0.16046901546E+02 -0.37353534628E+02  0.40659120207E+02  0.00000000000E+00 0. -1.
         11    1    3    3    0    0  0.53356136009E+01  0.29202084242E+01 -0.19333021007E+01  0.63823230106E+01  0.51100000000E-03 0. -1.
        -11    1    3    3    0    0 -0.24886354100E+01 -0.80671809701E+01  0.20245289412E+02  0.21935005326E+02  0.51100000000E-03 0.  1.
         12    1    3    3    0    0 -0.34589075885E+01 -0.10899929000E+02  0.19041547316E+02  0.22211551457E+02  0.00000000000E+00 0. -1.
</event>
<event>
 7    1  0.3141443E-011  0.5052885E+02  0.7816164E-02  0.1300439E+00
        -11   -1    0    0    0    0  0.00000000000E+00  0.00000000000E+00  0.45593999997E+02  0.45594000000E+02  0.51100000000E-03 0.  1.
         11   -1    0    0    0    0 -0.00000000000E+00 -0.00000000000E+00 -0.45593999997E+02  0.45594000000E+02  0.51100000000E-03 0. -1.
    9900012    2    1    2    0    0 -0.11536633706E+01 -0.22049145652E+01  0.40582924766E+02  0.50528851337E+02  0.29999974124E+02 0.  0.
         12    1    1    2    0    0  0.11536633706E+01  0.22049145652E+01 -0.40582924766E+02  0.40659148663E+02  0.00000000000E+00 0. -1.
         11    1    3    3    0    0 -0.29354020123E+01  0.98852879278E+01  0.18719543618E+02  0.21371869734E+02  0.51100000000E-03 0. -1.
        -11    1    3    3    0    0 -0.60149004405E+01 -0.53455899483E+01  0.14163159145E+02  0.16289549915E+02  0.51100000000E-03 0.  1.
         12    1    3    3    0    0  0.77966390822E+01 -0.67446125448E+01  0.77002220036E+01  0.12867431689E+02  0.00000000000E+00 0. -1.
</event>
<event>
 7    1  0.3141443E-011  0.5052885E+02  0.7816164E-02  0.1300439E+00
        -11   -1    0    0    0    0  0.00000000000E+00  0.00000000000E+00  0.45593999997E+02  0.45594000000E+02  0.51100000000E-03 0.  1.
         11   -1    0    0    0    0 -0.00000000000E+00 -0.00000000000E+00 -0.45593999997E+02  0.45594000000E+02  0.51100000000E-03 0. -1.
    9900012    2    1    2    0    0  0.16012293326E+02  0.37367987272E+02  0.63743617109E+00  0.50528851765E+02  0.29999975425E+02 0.  0.
         12    1    1    2    0    0 -0.16012293326E+02 -0.37367987272E+02 -0.63743617109E+00  0.40659148235E+02  0.00000000000E+00 0. -1.
         11    1    3    3    0    0  0.39220871952E+01  0.91557885614E+01 -0.26974706721E+01  0.10319281973E+02  0.51100000000E-03 0. -1.
        -11    1    3    3    0    0  0.94158703333E+01  0.17546514455E+02  0.14427538411E+02  0.24590499151E+02  0.51100000000E-03 0.  1.
         12    1    3    3    0    0  0.26743357974E+01  0.10665684256E+02 -0.11092631567E+02  0.15619070641E+02  0.00000000000E+00 0. -1.
</event>
<event>
 7    1  0.3141443E-011  0.5052886E+02  0.7816164E-02  0.1300439E+00
        -11   -1    0    0    0    0  0.00000000000E+00  0.00000000000E+00  0.45593999997E+02  0.45594000000E+02  0.51100000000E-03 0. -1.
         11   -1    0    0    0    0 -0.00000000000E+00 -0.00000000000E+00 -0.45593999997E+02  0.45594000000E+02  0.51100000000E-03 0.  1.
    9900012    2    1    2    0    0 -0.30098307999E+02  0.25249240511E+02 -0.10475376633E+02  0.50528858268E+02  0.29999995193E+02 0.  0.
         12    1    1    2    0    0  0.30098307999E+02 -0.25249240511E+02  0.10475376633E+02  0.40659141732E+02  0.00000000000E+00 0. -1.
         11    1    3    3    0    0 -0.63145876118E-01 -0.15905719724E+01 -0.55609633824E+01  0.57843081351E+01  0.51100000000E-03 0. -1.
        -11    1    3    3    0    0 -0.35174120550E+01  0.11968035533E+02 -0.69382892691E+01  0.14273959518E+02  0.51100000000E-03 0.  1.
         12    1    3    3    0    0 -0.26517750068E+02  0.14871776950E+02  0.20238760190E+01  0.30470590615E+02  0.00000000000E+00 0. -1.
</event>
<event>
 7    1  0.3141443E-011  0.5052886E+02  0.7816164E-02  0.1300439E+00
        -11   -1    0    0    0    0  0.00000000000E+00  0.00000000000E+00  0.45593999997E+02  0.45594000000E+02  0.51100000000E-03 0. -1.
         11   -1    0    0    0    0 -0.00000000000E+00 -0.00000000000E+00 -0.45593999997E+02  0.45594000000E+02  0.51100000000E-03 0.  1.
    9900012    2    1    2    0    0  0.44514679588E+01  0.39597551152E+02  0.80860431172E+01  0.50528859361E+02  0.29999998515E+02 0.  0.
         12    1    1    2    0    0 -0.44514679588E+01 -0.39597551152E+02 -0.80860431172E+01  0.40659140639E+02  0.00000000000E+00 0. -1.
         11    1    3    3    0    0 -0.22529227293E+01  0.17772297196E+02  0.18242830722E+01  0.18007171278E+02  0.51100000000E-03 0. -1.
        -11    1    3    3    0    0  0.13555528750E+02  0.17338789654E+02 -0.32641810407E+00  0.22011191140E+02  0.51100000000E-03 0.  1.
         12    1    3    3    0    0 -0.68511380619E+01  0.44864643016E+01  0.65881781491E+01  0.10510496943E+02  0.00000000000E+00 0. -1.
</event>
<event>
 7    1  0.3141443E-011  0.5052885E+02  0.7816164E-02  0.1300439E+00
        -11   -1    0    0    0    0  0.00000000000E+00  0.00000000000E+00  0.45593999997E+02  0.45594000000E+02  0.51100000000E-03 0.  1.
         11   -1    0    0    0    0 -0.00000000000E+00 -0.00000000000E+00 -0.45593999997E+02  0.45594000000E+02  0.51100000000E-03 0. -1.
    9900012    2    1    2    0    0  0.40276340010E+02 -0.44511262816E+01  0.33421967553E+01  0.50528851350E+02  0.29999974164E+02 0.  0.
         12    1    1    2    0    0 -0.40276340010E+02  0.44511262816E+01 -0.33421967553E+01  0.40659148650E+02  0.00000000000E+00 0. -1.
         11    1    3    3    0    0  0.12541270462E+02 -0.11733053868E+02 -0.37038230222E+00  0.17178044161E+02  0.51100000000E-03 0. -1.
        -11    1    3    3    0    0  0.17832543517E+02 -0.32212825386E+01  0.51643982527E+01  0.18842698296E+02  0.51100000000E-03 0.  1.
        -12    1    3    3    0    0  0.99025260302E+01  0.10503210125E+02 -0.14518191951E+01  0.14508108894E+02  0.00000000000E+00 0.  1.
</event>
<event>
 7    1  0.3141443E-011  0.5052886E+02  0.7816164E-02  0.1300439E+00
        -11   -1    0    0    0    0  0.00000000000E+00  0.00000000000E+00  0.45593999997E+02  0.45594000000E+02  0.51100000000E-03 0.  1.
         11   -1    0    0    0    0 -0.00000000000E+00 -0.00000000000E+00 -0.45593999997E+02  0.45594000000E+02  0.51100000000E-03 0. -1.
    9900012    2    1    2    0    0 -0.28422579774E+02  0.12514116887E+02  0.26243469739E+02  0.50528857530E+02  0.29999992947E+02 0.  0.
         12    1    1    2    0    0  0.28422579774E+02 -0.12514116887E+02 -0.26243469739E+02  0.40659142470E+02  0.00000000000E+00 0. -1.
         11    1    3    3    0    0 -0.16909598428E+02  0.75359114021E+01  0.40715909608E+01  0.18955271902E+02  0.51100000000E-03 0. -1.
        -11    1    3    3    0    0 -0.89963642738E+01  0.26253163392E+01  0.25262804359E+02  0.26945057809E+02  0.51100000000E-03 0.  1.
         12    1    3    3    0    0 -0.25166170727E+01  0.23528891458E+01 -0.30909255807E+01  0.46285278187E+01  0.00000000000E+00 0. -1.
</event>
<event>
 7    1  0.3141443E-011  0.5052885E+02  0.7816164E-02  0.1300439E+00
        -11   -1    0    0    0    0  0.00000000000E+00  0.00000000000E+00  0.45593999997E+02  0.45594000000E+02  0.51100000000E-03 0.  1.
         11   -1    0    0    0    0 -0.00000000000E+00 -0.00000000000E+00 -0.45593999997E+02  0.45594000000E+02  0.51100000000E-03 0. -1.
    9900012    2    1    2    0    0  0.34527489032E+01  0.33596049120E+02  0.22639586719E+02  0.50528845087E+02  0.29999955125E+02 0.  0.
         12    1    1    2    0    0 -0.34527489032E+01 -0.33596049120E+02 -0.22639586719E+02  0.40659154913E+02  0.00000000000E+00 0. -1.
         11    1    3    3    0    0  0.87080746078E+01  0.58557297770E+01  0.86122567489E+01  0.13575385857E+02  0.51100000000E-03 0.  1.
        -11    1    3    3    0    0  0.45159145081E+00 -0.14552893154E+01 -0.24960815211E+01  0.29244187544E+01  0.51100000000E-03 0. -1.
        -12    1    3    3    0    0 -0.57069171555E+01  0.29195608659E+02  0.16523411491E+02  0.34029040475E+02  0.00000000000E+00 0.  1.
</event>
<event>
 7    1  0.3141443E-011  0.5052886E+02  0.7816164E-02  0.1300439E+00
        -11   -1    0    0    0    0  0.00000000000E+00  0.00000000000E+00  0.45593999997E+02  0.45594000000E+02  0.51100000000E-03 0.  1.
         11   -1    0    0    0    0 -0.00000000000E+00 -0.00000000000E+00 -0.45593999997E+02  0.45594000000E+02  0.51100000000E-03 0. -1.
    9900012    2    1    2    0    0 -0.13496487815E+02  0.20722156596E+02  0.32273870573E+02  0.50528859833E+02  0.29999999949E+02 0.  0.
         12    1    1    2    0    0  0.13496487815E+02 -0.20722156596E+02 -0.32273870573E+02  0.40659140167E+02  0.00000000000E+00 0. -1.
         11    1    3    3    0    0  0.63658312713E-01 -0.51254076836E+01  0.48033823295E+01  0.70246948951E+01  0.51100000000E-03 0. -1.
        -11    1    3    3    0    0 -0.29662948000E+01  0.36725844406E+01  0.15432889757E+02  0.16138800074E+02  0.51100000000E-03 0.  1.
         12    1    3    3    0    0 -0.10593851328E+02  0.22174979839E+02  0.12037598486E+02  0.27365364864E+02  0.00000000000E+00 0. -1.
</event>
<event>
 7    1  0.3141443E-011  0.5052887E+02  0.7816164E-02  0.1300439E+00
        -11   -1    0    0    0    0  0.00000000000E+00  0.00000000000E+00  0.45593999997E+02  0.45594000000E+02  0.51100000000E-03 0. -1.
         11   -1    0    0    0    0 -0.00000000000E+00 -0.00000000000E+00 -0.45593999997E+02  0.45594000000E+02  0.51100000000E-03 0.  1.
    9900012    2    1    2    0    0  0.34547591796E+01  0.20454730911E+02 -0.34969038466E+02  0.50528867829E+02  0.30000024253E+02 0.  0.
         12    1    1    2    0    0 -0.34547591796E+01 -0.20454730911E+02  0.34969038466E+02  0.40659132171E+02  0.00000000000E+00 0. -1.
         11    1    3    3    0    0  0.28658554208E+01  0.11382693742E+02  0.22460422372E+00  0.11740072037E+02  0.51100000000E-03 0. -1.
        -11    1    3    3    0    0  0.65319132790E+01  0.48581870934E+01 -0.12183145041E+02  0.14652538902E+02  0.51100000000E-03 0.  1.
         12    1    3    3    0    0 -0.59430095203E+01  0.42138500757E+01 -0.23010497649E+02  0.24136256890E+02  0.00000000000E+00 0. -1.
</event>
<event>
 7    1  0.3141443E-011  0.5052885E+02  0.7816164E-02  0.1300439E+00
        -11   -1    0    0    0    0  0.00000000000E+00  0.00000000000E+00  0.45593999997E+02  0.45594000000E+02  0.51100000000E-03 0. -1.
         11   -1    0    0    0    0 -0.00000000000E+00 -0.00000000000E+00 -0.45593999997E+02  0.45594000000E+02  0.51100000000E-03 0.  1.
    9900012    2    1    2    0    0  0.80112275723E+01 -0.30159604195E+02 -0.26065009312E+02  0.50528853392E+02  0.29999980371E+02 0.  0.
         12    1    1    2    0    0 -0.80112275723E+01  0.30159604195E+02  0.26065009312E+02  0.40659146608E+02  0.00000000000E+00 0. -1.
         11    1    3    3    0    0 -0.38687609987E+01 -0.19932377891E+01 -0.82686353372E+01  0.93440162216E+01  0.51100000000E-03 0. -1.
        -11    1    3    3    0    0  0.21177081405E+01 -0.20445730294E+02 -0.19844371891E+02  0.28571168527E+02  0.51100000000E-03 0.  1.
         12    1    3    3    0    0  0.97622804305E+01 -0.77206361120E+01  0.20479979157E+01  0.12613668643E+02  0.00000000000E+00 0. -1.
</event>
<event>
 7    1  0.3141443E-011  0.5052886E+02  0.7816164E-02  0.1300439E+00
        -11   -1    0    0    0    0  0.00000000000E+00  0.00000000000E+00  0.45593999997E+02  0.45594000000E+02  0.51100000000E-03 0.  1.
         11   -1    0    0    0    0 -0.00000000000E+00 -0.00000000000E+00 -0.45593999997E+02  0.45594000000E+02  0.51100000000E-03 0. -1.
    9900012    2    1    2    0    0  0.38380427873E+02  0.20091473583E+01  0.13269199799E+02  0.50528861050E+02  0.30000003649E+02 0.  0.
         12    1    1    2    0    0 -0.38380427873E+02 -0.20091473583E+01 -0.13269199799E+02  0.40659138950E+02  0.00000000000E+00 0. -1.
         11    1    3    3    0    0  0.12949488176E+00  0.50432682874E+01  0.89787665010E+00  0.51242079079E+01  0.51100000000E-03 0. -1.
        -11    1    3    3    0    0  0.25961503744E+02 -0.11207883730E+02  0.11780948296E+02  0.30633430715E+02  0.51100000000E-03 0.  1.
         12    1    3    3    0    0  0.12289429247E+02  0.81737628007E+01  0.59037485292E+00  0.14771222428E+02  0.00000000000E+00 0. -1.
</event>
<event>
 7    1  0.3141443E-011  0.5052886E+02  0.7816164E-02  0.1300439E+00
        -11   -1    0    0    0    0  0.00000000000E+00  0.00000000000E+00  0.45593999997E+02  0.45594000000E+02  0.51100000000E-03 0.  1.
         11   -1    0    0    0    0 -0.00000000000E+00 -0.00000000000E+00 -0.45593999997E+02  0.45594000000E+02  0.51100000000E-03 0. -1.
    9900012    2    1    2    0    0  0.69269587402E+01 -0.33083487580E+02  0.22597912522E+02  0.50528861321E+02  0.30000004470E+02 0.  0.
         12    1    1    2    0    0 -0.69269587402E+01  0.33083487580E+02 -0.22597912522E+02  0.40659138679E+02  0.00000000000E+00 0. -1.
         11    1    3    3    0    0  0.46386880427E+01  0.15457089484E+01 -0.41177720008E+01  0.63923930904E+01  0.51100000000E-03 0. -1.
        -11    1    3    3    0    0  0.28098773276E+01 -0.19854793526E+02  0.12516282291E+02  0.23638222420E+02  0.51100000000E-03 0.  1.
        -12    1    3    3    0    0 -0.52160663016E+00 -0.14774403002E+02  0.14199402231E+02  0.20498245810E+02  0.00000000000E+00 0.  1.
</event>
<event>
 7    1  0.3141443E-011  0.5052886E+02  0.7816164E-02  0.1300439E+00
        -11   -1    0    0    0    0  0.00000000000E+00  0.00000000000E+00  0.45593999997E+02  0.45594000000E+02  0.51100000000E-03 0.  1.
         11   -1    0    0    0    0 -0.00000000000E+00 -0.00000000000E+00 -0.45593999997E+02  0.45594000000E+02  0.51100000000E-03 0. -1.
    9900012    2    1    2    0    0 -0.29875141281E+02 -0.32506201363E+00  0.27577817282E+02  0.50528859110E+02  0.29999997751E+02 0.  0.
         12    1    1    2    0    0  0.29875141281E+02  0.32506201363E+00 -0.27577817282E+02  0.40659140890E+02  0.00000000000E+00 0. -1.
         11    1    3    3    0    0 -0.65580176661E+01 -0.20498111054E+01  0.18696048255E+01  0.71207263493E+01  0.51100000000E-03 0. -1.
        -11    1    3    3    0    0 -0.86593685234E+01 -0.10156223169E+02  0.19332055048E+02  0.23491740781E+02  0.51100000000E-03 0.  1.
         12    1    3    3    0    0 -0.14657755092E+02  0.11880972261E+02  0.63761574087E+01  0.19916391980E+02  0.00000000000E+00 0. -1.
</event>
<event>
 7    1  0.3141443E-011  0.5052885E+02  0.7816164E-02  0.1300439E+00
        -11   -1    0    0    0    0  0.00000000000E+00  0.00000000000E+00  0.45593999997E+02  0.45594000000E+02  0.51100000000E-03 0. -1.
         11   -1    0    0    0    0 -0.00000000000E+00 -0.00000000000E+00 -0.45593999997E+02  0.45594000000E+02  0.51100000000E-03 0.  1.
    9900012    2    1    2    0    0  0.32020634394E+02 -0.22241403465E+02  0.11539744667E+02  0.50528846516E+02  0.29999959470E+02 0.  0.
         12    1    1    2    0    0 -0.32020634394E+02  0.22241403465E+02 -0.11539744667E+02  0.40659153484E+02  0.00000000000E+00 0. -1.
         11    1    3    3    0    0 -0.11065558233E+01 -0.14832132075E+01  0.23698721092E+01  0.30067725694E+01  0.51100000000E-03 0. -1.
        -11    1    3    3    0    0  0.13219828750E+02 -0.11187820967E+01 -0.72241708382E+01  0.15106428768E+02  0.51100000000E-03 0.  1.
        -12    1    3    3    0    0  0.19907361467E+02 -0.19639408161E+02  0.16394043396E+02  0.32415645179E+02  0.00000000000E+00 0.  1.
</event>
<event>
 7    1  0.3141443E-011  0.5052886E+02  0.7816164E-02  0.1300439E+00
        -11   -1    0    0    0    0  0.00000000000E+00  0.00000000000E+00  0.45593999997E+02  0.45594000000E+02  0.51100000000E-03 0.  1.
         11   -1    0    0    0    0 -0.00000000000E+00 -0.00000000000E+00 -0.45593999997E+02  0.45594000000E+02  0.51100000000E-03 0. -1.
    9900012    2    1    2    0    0 -0.26436946894E+02 -0.24618345574E+02  0.18659869438E+02  0.50528858010E+02  0.29999994408E+02 0.  0.
         12    1    1    2    0    0  0.26436946894E+02  0.24618345574E+02 -0.18659869438E+02  0.40659141990E+02  0.00000000000E+00 0. -1.
         11    1    3    3    0    0 -0.10621384126E+02 -0.44939277396E+01  0.10205217166E+01  0.11578024534E+02  0.51100000000E-03 0. -1.
        -11    1    3    3    0    0 -0.18327694430E+02 -0.89029832266E+01  0.18362427494E+02  0.27428930660E+02  0.51100000000E-03 0.  1.
        -12    1    3    3    0    0  0.25121316612E+01 -0.11221434608E+02 -0.72307977189E+00  0.11521902816E+02  0.00000000000E+00 0.  1.
</event>
<event>
 7    1  0.3141443E-011  0.5052877E+02  0.7816164E-02  0.1300439E+00
        -11   -1    0    0    0    0  0.00000000000E+00  0.00000000000E+00  0.45593999997E+02  0.45594000000E+02  0.51100000000E-03 0.  1.
         11   -1    0    0    0    0 -0.00000000000E+00 -0.00000000000E+00 -0.45593999997E+02  0.45594000000E+02  0.51100000000E-03 0. -1.
    9900012    2    1    2    0    0 -0.38890254159E+02  0.74107703142E+01  0.92629053811E+01  0.50528772249E+02  0.29999733726E+02 0.  0.
         12    1    1    2    0    0  0.38890254159E+02 -0.74107703142E+01 -0.92629053811E+01  0.40659227751E+02  0.00000000000E+00 0. -1.
         11    1    3    3    0    0 -0.30996813975E+01  0.41196655085E+01 -0.59346088172E+01  0.78612499478E+01  0.51100000000E-03 0. -1.
        -11    1    3    3    0    0 -0.45409926933E+01  0.23552362850E+01  0.96409026960E+01  0.10913970756E+02  0.51100000000E-03 0.  1.
        -12    1    3    3    0    0 -0.31249580069E+02  0.93586852072E+00  0.55566115023E+01  0.31753551545E+02  0.00000000000E+00 0.  1.
</event>
<event>
 7    1  0.3141443E-011  0.5052886E+02  0.7816164E-02  0.1300439E+00
        -11   -1    0    0    0    0  0.00000000000E+00  0.00000000000E+00  0.45593999997E+02  0.45594000000E+02  0.51100000000E-03 0.  1.
         11   -1    0    0    0    0 -0.00000000000E+00 -0.00000000000E+00 -0.45593999997E+02  0.45594000000E+02  0.51100000000E-03 0. -1.
    9900012    2    1    2    0    0  0.21901096617E+02  0.17043826025E+02  0.29715579291E+02  0.50528859685E+02  0.29999999497E+02 0.  0.
         12    1    1    2    0    0 -0.21901096617E+02 -0.17043826025E+02 -0.29715579291E+02  0.40659140315E+02  0.00000000000E+00 0. -1.
         11    1    3    3    0    0  0.49404503730E+01 -0.43241528143E+01  0.15458738957E+02  0.16795206395E+02  0.51100000000E-03 0. -1.
        -11    1    3    3    0    0  0.10954263373E+02  0.32082191352E+01  0.60690221344E+01  0.12927551431E+02  0.51100000000E-03 0.  1.
         12    1    3    3    0    0  0.60063828706E+01  0.18159759704E+02  0.81878181999E+01  0.20806101859E+02  0.00000000000E+00 0. -1.
</event>
<event>
 7    1  0.3141443E-011  0.5052887E+02  0.7816164E-02  0.1300439E+00
        -11   -1    0    0    0    0  0.00000000000E+00  0.00000000000E+00  0.45593999997E+02  0.45594000000E+02  0.51100000000E-03 0. -1.
         11   -1    0    0    0    0 -0.00000000000E+00 -0.00000000000E+00 -0.45593999997E+02  0.45594000000E+02  0.51100000000E-03 0.  1.
    9900012    2    1    2    0    0  0.18822202470E+02 -0.27503177357E+02 -0.23290868083E+02  0.50528873022E+02  0.30000040038E+02 0.  0.
         12    1    1    2    0    0 -0.18822202470E+02  0.27503177357E+02  0.23290868083E+02  0.40659126978E+02  0.00000000000E+00 0. -1.
         11    1    3    3    0    0  0.12266054302E+02 -0.21918672122E+02 -0.53510278313E+01  0.25681078148E+02  0.51100000000E-03 0. -1.
        -11    1    3    3    0    0  0.82827854022E+01 -0.94926653657E+01 -0.11140252813E+02  0.16817266804E+02  0.51100000000E-03 0.  1.
        -12    1    3    3    0    0 -0.17266372341E+01  0.39081601309E+01 -0.67995874394E+01  0.80305280706E+01  0.00000000000E+00 0.  1.
</event>
<event>
 7    1  0.3141443E-011  0.5052886E+02  0.7816164E-02  0.1300439E+00
        -11   -1    0    0    0    0  0.00000000000E+00  0.00000000000E+00  0.45593999997E+02  0.45594000000E+02  0.51100000000E-03 0.  1.
         11   -1    0    0    0    0 -0.00000000000E+00 -0.00000000000E+00 -0.45593999997E+02  0.45594000000E+02  0.51100000000E-03 0. -1.
    9900012    2    1    2    0    0  0.15784181475E+01  0.28031801733E+02  0.29409054471E+02  0.50528858382E+02  0.29999995539E+02 0.  0.
         12    1    1    2    0    0 -0.15784181475E+01 -0.28031801733E+02 -0.29409054471E+02  0.40659141618E+02  0.00000000000E+00 0. -1.
         11    1    3    3    0    0 -0.58855889925E+01 -0.56246797589E+00  0.14994067902E+01  0.60995695747E+01  0.51100000000E-03 0. -1.
        -11    1    3    3    0    0 -0.56796932997E+01  0.12566162362E+02  0.99802408109E+01  0.17022707170E+02  0.51100000000E-03 0.  1.
         12    1    3    3    0    0  0.13143700440E+02  0.16028107347E+02  0.17929406869E+02  0.27406581638E+02  0.00000000000E+00 0. -1.
</event>
<event>
 7    1  0.3141443E-011  0.5052885E+02  0.7816164E-02  0.1300439E+00
        -11   -1    0    0    0    0  0.00000000000E+00  0.00000000000E+00  0.45593999997E+02  0.45594000000E+02  0.51100000000E-03 0.  1.
         11   -1    0    0    0    0 -0.00000000000E+00 -0.00000000000E+00 -0.45593999997E+02  0.45594000000E+02  0.51100000000E-03 0. -1.
    9900012    2    1    2    0    0  0.22911954455E+02  0.22317927517E+02  0.25102168913E+02  0.50528850602E+02  0.29999971891E+02 0.  0.
         12    1    1    2    0    0 -0.22911954455E+02 -0.22317927517E+02 -0.25102168913E+02  0.40659149398E+02  0.00000000000E+00 0. -1.
         11    1    3    3    0    0 -0.32841391598E+01  0.86979998356E+01 -0.36379867535E+00  0.93044677923E+01  0.51100000000E-03 0. -1.
        -11    1    3    3    0    0  0.18791941594E+01  0.61847939774E+01  0.24060903994E+01  0.68972689162E+01  0.51100000000E-03 0.  1.
         12    1    3    3    0    0  0.24316899455E+02  0.74351337044E+01  0.23059877189E+02  0.34327113894E+02  0.00000000000E+00 0. -1.
</event>
<event>
 7    1  0.3141443E-011  0.5052884E+02  0.7816164E-02  0.1300439E+00
        -11   -1    0    0    0    0  0.00000000000E+00  0.00000000000E+00  0.45593999997E+02  0.45594000000E+02  0.51100000000E-03 0.  1.
         11   -1    0    0    0    0 -0.00000000000E+00 -0.00000000000E+00 -0.45593999997E+02  0.45594000000E+02  0.51100000000E-03 0. -1.
    9900012    2    1    2    0    0  0.29666545345E+00 -0.19615970611E+02  0.35613100985E+02  0.50528840206E+02  0.29999940290E+02 0.  0.
         12    1    1    2    0    0 -0.29666545345E+00  0.19615970611E+02 -0.35613100985E+02  0.40659159794E+02  0.00000000000E+00 0. -1.
         11    1    3    3    0    0 -0.40325512637E+00 -0.32646979155E+01  0.17768124220E+02  0.18070061033E+02  0.51100000000E-03 0. -1.
        -11    1    3    3    0    0 -0.88528701863E+01 -0.16382494798E+01  0.93073953606E+01  0.12949315833E+02  0.51100000000E-03 0.  1.
        -12    1    3    3    0    0  0.95527907661E+01 -0.14713023215E+02  0.85375814038E+01  0.19509463339E+02  0.00000000000E+00 0.  1.
</event>
<event>
 7    1  0.3141443E-011  0.5052885E+02  0.7816164E-02  0.1300439E+00
        -11   -1    0    0    0    0  0.00000000000E+00  0.00000000000E+00  0.45593999997E+02  0.45594000000E+02  0.51100000000E-03 0. -1.
         11   -1    0    0    0    0 -0.00000000000E+00 -0.00000000000E+00 -0.45593999997E+02  0.45594000000E+02  0.51100000000E-03 0.  1.
    9900012    2    1    2    0    0  0.13811848403E+02  0.42622172711E+01 -0.38003066143E+02  0.50528847419E+02  0.29999962214E+02 0.  0.
         12    1    1    2    0    0 -0.13811848403E+02 -0.42622172711E+01  0.38003066143E+02  0.40659152581E+02  0.00000000000E+00 0. -1.
         11    1    3    3    0    0 -0.43109883590E+01  0.17402613423E+01 -0.47206757860E+01  0.66255498118E+01  0.51100000000E-03 0. -1.
        -11    1    3    3    0    0  0.41243882837E+01  0.80036203598E+01 -0.25358214308E+02  0.26909246566E+02  0.51100000000E-03 0.  1.
        -12    1    3    3    0    0  0.13998448479E+02 -0.54816644310E+01 -0.79241760484E+01  0.16994051041E+02  0.00000000000E+00 0.  1.
</event>
<event>
 7    1  0.3141443E-011  0.5052886E+02  0.7816164E-02  0.1300439E+00
        -11   -1    0    0    0    0  0.00000000000E+00  0.00000000000E+00  0.45593999997E+02  0.45594000000E+02  0.51100000000E-03 0.  1.
         11   -1    0    0    0    0 -0.00000000000E+00 -0.00000000000E+00 -0.45593999997E+02  0.45594000000E+02  0.51100000000E-03 0. -1.
    9900012    2    1    2    0    0 -0.12336035313E+02 -0.45394722353E+00  0.38739924751E+02  0.50528860744E+02  0.30000002718E+02 0.  0.
         12    1    1    2    0    0  0.12336035313E+02  0.45394722353E+00 -0.38739924751E+02  0.40659139256E+02  0.00000000000E+00 0. -1.
         11    1    3    3    0    0  0.27582565166E+01  0.38094389548E+01  0.71324665925E+01  0.85435287859E+01  0.51100000000E-03 0.  1.
        -11    1    3    3    0    0 -0.15902696378E+02 -0.11595684033E+02  0.18869808049E+02  0.27265826530E+02  0.51100000000E-03 0. -1.
         12    1    3    3    0    0  0.80840454872E+00  0.73322978549E+01  0.12737650109E+02  0.14719505428E+02  0.00000000000E+00 0. -1.
</event>
<event>
 7    1  0.3141443E-011  0.5052886E+02  0.7816164E-02  0.1300439E+00
        -11   -1    0    0    0    0  0.00000000000E+00  0.00000000000E+00  0.45593999997E+02  0.45594000000E+02  0.51100000000E-03 0.  1.
         11   -1    0    0    0    0 -0.00000000000E+00 -0.00000000000E+00 -0.45593999997E+02  0.45594000000E+02  0.51100000000E-03 0. -1.
    9900012    2    1    2    0    0  0.32443141772E+01  0.32719829390E+02  0.23917624213E+02  0.50528861325E+02  0.30000004483E+02 0.  0.
         12    1    1    2    0    0 -0.32443141772E+01 -0.32719829390E+02 -0.23917624213E+02  0.40659138675E+02  0.00000000000E+00 0. -1.
         11    1    3    3    0    0 -0.37058925091E+01  0.23427023544E+01 -0.91684185978E+00  0.44791174206E+01  0.51100000000E-03 0. -1.
        -11    1    3    3    0    0  0.12496000162E+02  0.17254599392E+02  0.23533410840E+02  0.31744174998E+02  0.51100000000E-03 0.  1.
         12    1    3    3    0    0 -0.55457934754E+01  0.13122527643E+02  0.13010552327E+01  0.14305568907E+02  0.00000000000E+00 0. -1.
</event>
<event>
 7    1  0.3141443E-011  0.5052886E+02  0.7816164E-02  0.1300439E+00
        -11   -1    0    0    0    0  0.00000000000E+00  0.00000000000E+00  0.45593999997E+02  0.45594000000E+02  0.51100000000E-03 0.  1.
         11   -1    0    0    0    0 -0.00000000000E+00 -0.00000000000E+00 -0.45593999997E+02  0.45594000000E+02  0.51100000000E-03 0. -1.
    9900012    2    1    2    0    0  0.23411335421E+02  0.99216117667E+01  0.31727535405E+02  0.50528861923E+02  0.30000006302E+02 0.  0.
         12    1    1    2    0    0 -0.23411335421E+02 -0.99216117667E+01 -0.31727535405E+02  0.40659138077E+02  0.00000000000E+00 0. -1.
         11    1    3    3    0    0  0.10460433192E+02  0.31625572598E+00  0.21070912949E+01  0.10675229001E+02  0.51100000000E-03 0. -1.
        -11    1    3    3    0    0  0.84097579382E+01 -0.36431437289E+01  0.27771931919E+01  0.95764986866E+01  0.51100000000E-03 0.  1.
        -12    1    3    3    0    0  0.45411442909E+01  0.13248499770E+02  0.26843250919E+02  0.30277134235E+02  0.00000000000E+00 0.  1.
</event>
<event>
 7    1  0.3141443E-011  0.5052885E+02  0.7816164E-02  0.1300439E+00
        -11   -1    0    0    0    0  0.00000000000E+00  0.00000000000E+00  0.45593999997E+02  0.45594000000E+02  0.51100000000E-03 0. -1.
         11   -1    0    0    0    0 -0.00000000000E+00 -0.00000000000E+00 -0.45593999997E+02  0.45594000000E+02  0.51100000000E-03 0.  1.
    9900012    2    1    2    0    0  0.20922809403E+01 -0.69831233430E+00 -0.40599277271E+02  0.50528848576E+02  0.29999965731E+02 0.  0.
         12    1    1    2    0    0 -0.20922809403E+01  0.69831233430E+00  0.40599277271E+02  0.40659151424E+02  0.00000000000E+00 0. -1.
         11    1    3    3    0    0  0.49094627506E+01  0.46641292109E+01 -0.10490800364E+02  0.12486545493E+02  0.51100000000E-03 0. -1.
        -11    1    3    3    0    0  0.37403963762E+01  0.60959971981E+01 -0.20505613160E+02  0.21717088161E+02  0.51100000000E-03 0.  1.
         12    1    3    3    0    0 -0.65575781864E+01 -0.11458438743E+02 -0.96028637467E+01  0.16325214922E+02  0.00000000000E+00 0. -1.
</event>
<event>
 7    1  0.3141443E-011  0.5052886E+02  0.7816164E-02  0.1300439E+00
        -11   -1    0    0    0    0  0.00000000000E+00  0.00000000000E+00  0.45593999997E+02  0.45594000000E+02  0.51100000000E-03 0.  1.
         11   -1    0    0    0    0 -0.00000000000E+00 -0.00000000000E+00 -0.45593999997E+02  0.45594000000E+02  0.51100000000E-03 0. -1.
    9900012    2    1    2    0    0  0.10283843386E+02  0.22487091762E+02  0.32275978974E+02  0.50528861428E+02  0.30000004797E+02 0.  0.
         12    1    1    2    0    0 -0.10283843386E+02 -0.22487091762E+02 -0.32275978974E+02  0.40659138572E+02  0.00000000000E+00 0. -1.
         11    1    3    3    0    0 -0.56173408850E-01 -0.28981004751E+01 -0.16882822231E+01  0.33544655225E+01  0.51100000000E-03 0. -1.
        -11    1    3    3    0    0  0.11844688143E+02  0.61936784668E+01  0.15946254238E+02  0.20807241879E+02  0.51100000000E-03 0.  1.
         12    1    3    3    0    0 -0.15046713479E+01  0.19191513770E+02  0.18018006959E+02  0.26367154026E+02  0.00000000000E+00 0. -1.
</event>
<event>
 7    1  0.3141443E-011  0.5052889E+02  0.7816164E-02  0.1300439E+00
        -11   -1    0    0    0    0  0.00000000000E+00  0.00000000000E+00  0.45593999997E+02  0.45594000000E+02  0.51100000000E-03 0. -1.
         11   -1    0    0    0    0 -0.00000000000E+00 -0.00000000000E+00 -0.45593999997E+02  0.45594000000E+02  0.51100000000E-03 0.  1.
    9900012    2    1    2    0    0 -0.23848811171E+02 -0.15496075910E+02 -0.29056314042E+02  0.50528886032E+02  0.30000079584E+02 0.  0.
         12    1    1    2    0    0  0.23848811171E+02  0.15496075910E+02  0.29056314042E+02  0.40659113968E+02  0.00000000000E+00 0. -1.
         11    1    3    3    0    0 -0.15487171266E+02 -0.93728096022E+01 -0.98016343193E+01  0.20585773467E+02  0.51100000000E-03 0. -1.
        -11    1    3    3    0    0 -0.54845892800E+01 -0.13621466028E+02 -0.14355917040E+02  0.20535759315E+02  0.51100000000E-03 0.  1.
         12    1    3    3    0    0 -0.28770506254E+01  0.74981997203E+01 -0.48987626829E+01  0.94073532500E+01  0.00000000000E+00 0. -1.
</event>
<event>
 7    1  0.3141443E-011  0.5052885E+02  0.7816164E-02  0.1300439E+00
        -11   -1    0    0    0    0  0.00000000000E+00  0.00000000000E+00  0.45593999997E+02  0.45594000000E+02  0.51100000000E-03 0.  1.
         11   -1    0    0    0    0 -0.00000000000E+00 -0.00000000000E+00 -0.45593999997E+02  0.45594000000E+02  0.51100000000E-03 0. -1.
    9900012    2    1    2    0    0 -0.82193045945E+01 -0.39736215223E+02 -0.25773891176E+01  0.50528847243E+02  0.29999961679E+02 0.  0.
         12    1    1    2    0    0  0.82193045945E+01  0.39736215223E+02  0.25773891176E+01  0.40659152757E+02  0.00000000000E+00 0. -1.
         11    1    3    3    0    0 -0.17287145981E-01 -0.21590204523E+02  0.44604627542E+01  0.22046155185E+02  0.51100000000E-03 0. -1.
        -11    1    3    3    0    0  0.39776710452E+01 -0.11428627789E+02  0.14508602664E+01  0.12187714956E+02  0.51100000000E-03 0.  1.
         12    1    3    3    0    0 -0.12179688494E+02 -0.67173829113E+01 -0.84887121382E+01  0.16294977102E+02  0.00000000000E+00 0. -1.
</event>
<event>
 7    1  0.3141443E-011  0.5052886E+02  0.7816164E-02  0.1300439E+00
        -11   -1    0    0    0    0  0.00000000000E+00  0.00000000000E+00  0.45593999997E+02  0.45594000000E+02  0.51100000000E-03 0. -1.
         11   -1    0    0    0    0 -0.00000000000E+00 -0.00000000000E+00 -0.45593999997E+02  0.45594000000E+02  0.51100000000E-03 0.  1.
    9900012    2    1    2    0    0 -0.20907601809E+02 -0.34600458164E+02 -0.43412057344E+01  0.50528860980E+02  0.30000003436E+02 0.  0.
         12    1    1    2    0    0  0.20907601809E+02  0.34600458164E+02  0.43412057344E+01  0.40659139020E+02  0.00000000000E+00 0. -1.
         11    1    3    3    0    0 -0.24379563277E+01 -0.72911237746E+01  0.55398526720E+01  0.94759740840E+01  0.51100000000E-03 0. -1.
        -11    1    3    3    0    0 -0.15873307112E+02 -0.29072881806E+02 -0.27214527889E+01  0.33235532804E+02  0.51100000000E-03 0.  1.
         12    1    3    3    0    0 -0.25963383688E+01  0.17635474163E+01 -0.71596056175E+01  0.78173540929E+01  0.00000000000E+00 0. -1.
</event>
<event>
 7    1  0.3141443E-011  0.5052883E+02  0.7816164E-02  0.1300439E+00
        -11   -1    0    0    0    0  0.00000000000E+00  0.00000000000E+00  0.45593999997E+02  0.45594000000E+02  0.51100000000E-03 0.  1.
         11   -1    0    0    0    0 -0.00000000000E+00 -0.00000000000E+00 -0.45593999997E+02  0.45594000000E+02  0.51100000000E-03 0. -1.
    9900012    2    1    2    0    0 -0.28394186401E+02 -0.28993315589E+02 -0.25152080933E+01  0.50528825857E+02  0.29999896676E+02 0.  0.
         12    1    1    2    0    0  0.28394186401E+02  0.28993315589E+02  0.25152080933E+01  0.40659174143E+02  0.00000000000E+00 0. -1.
         11    1    3    3    0    0  0.22724806492E+00  0.96360808496E+00  0.53408813057E+01  0.54318685189E+01  0.51100000000E-03 0. -1.
        -11    1    3    3    0    0 -0.39151110619E+01 -0.11453451912E+02 -0.74774122194E+01  0.14227485691E+02  0.51100000000E-03 0.  1.
        -12    1    3    3    0    0 -0.24706323404E+02 -0.18503471761E+02 -0.37867717954E+00  0.30869471647E+02  0.00000000000E+00 0.  1.
</event>
<event>
 7    1  0.3141443E-011  0.5052886E+02  0.7816164E-02  0.1300439E+00
        -11   -1    0    0    0    0  0.00000000000E+00  0.00000000000E+00  0.45593999997E+02  0.45594000000E+02  0.51100000000E-03 0.  1.
         11   -1    0    0    0    0 -0.00000000000E+00 -0.00000000000E+00 -0.45593999997E+02  0.45594000000E+02  0.51100000000E-03 0. -1.
    9900012    2    1    2    0    0 -0.67087513735E+01 -0.60426724597E+00  0.40097294419E+02  0.50528861991E+02  0.30000006509E+02 0.  0.
         12    1    1    2    0    0  0.67087513735E+01  0.60426724597E+00 -0.40097294419E+02  0.40659138009E+02  0.00000000000E+00 0. -1.
         11    1    3    3    0    0  0.21231249199E+01  0.48881637379E+01  0.16476975510E+02  0.17317405301E+02  0.51100000000E-03 0. -1.
        -11    1    3    3    0    0  0.47047715455E+01 -0.10036660779E+00 -0.80099819298E+00  0.47735256485E+01  0.51100000000E-03 0.  1.
        -12    1    3    3    0    0 -0.13536647839E+02 -0.53920643761E+01  0.24421317102E+02  0.28437931042E+02  0.00000000000E+00 0.  1.
</event>
<event>
 7    1  0.3141443E-011  0.5052882E+02  0.7816164E-02  0.1300439E+00
        -11   -1    0    0    0    0  0.00000000000E+00  0.00000000000E+00  0.45593999997E+02  0.45594000000E+02  0.51100000000E-03 0.  1.
         11   -1    0    0    0    0 -0.00000000000E+00 -0.00000000000E+00 -0.45593999997E+02  0.45594000000E+02  0.51100000000E-03 0. -1.
    9900012    2    1    2    0    0  0.94225182939E+01  0.86268127010E+01  0.38600042870E+02  0.50528818282E+02  0.29999873651E+02 0.  0.
         12    1    1    2    0    0 -0.94225182939E+01 -0.86268127010E+01 -0.38600042870E+02  0.40659181718E+02  0.00000000000E+00 0. -1.
         11    1    3    3    0    0 -0.39721228851E+01  0.11198828454E+02  0.13906218944E+02  0.18291376235E+02  0.51100000000E-03 0.  1.
        -11    1    3    3    0    0  0.11944630413E+01 -0.73915092997E+01  0.10668821466E+02  0.13033990310E+02  0.51100000000E-03 0. -1.
        -12    1    3    3    0    0  0.12200178138E+02  0.48194935465E+01  0.14025002460E+02  0.19203451738E+02  0.00000000000E+00 0.  1.
</event>
<event>
 7    1  0.3141443E-011  0.5052885E+02  0.7816164E-02  0.1300439E+00
        -11   -1    0    0    0    0  0.00000000000E+00  0.00000000000E+00  0.45593999997E+02  0.45594000000E+02  0.51100000000E-03 0.  1.
         11   -1    0    0    0    0 -0.00000000000E+00 -0.00000000000E+00 -0.45593999997E+02  0.45594000000E+02  0.51100000000E-03 0. -1.
    9900012    2    1    2    0    0  0.12967557941E+02  0.62887293125E+01  0.38019214237E+02  0.50528851871E+02  0.29999975748E+02 0.  0.
         12    1    1    2    0    0 -0.12967557941E+02 -0.62887293125E+01 -0.38019214237E+02  0.40659148129E+02  0.00000000000E+00 0. -1.
         11    1    3    3    0    0  0.34498009982E+01  0.13948112465E+02  0.20530127571E+02  0.25058673281E+02  0.51100000000E-03 0. -1.
        -11    1    3    3    0    0 -0.30497228287E+01  0.18316294596E+00  0.80677584628E+00  0.31599439115E+01  0.51100000000E-03 0.  1.
        -12    1    3    3    0    0  0.12567479772E+02 -0.78425460989E+01  0.16682310820E+02  0.22310234679E+02  0.00000000000E+00 0.  1.
</event>
<event>
 7    1  0.3141443E-011  0.5052884E+02  0.7816164E-02  0.1300439E+00
        -11   -1    0    0    0    0  0.00000000000E+00  0.00000000000E+00  0.45593999997E+02  0.45594000000E+02  0.51100000000E-03 0.  1.
         11   -1    0    0    0    0 -0.00000000000E+00 -0.00000000000E+00 -0.45593999997E+02  0.45594000000E+02  0.51100000000E-03 0. -1.
    9900012    2    1    2    0    0 -0.26811590882E+01 -0.12157859358E+02  0.38706140301E+02  0.50528837991E+02  0.29999933559E+02 0.  0.
         12    1    1    2    0    0  0.26811590882E+01  0.12157859358E+02 -0.38706140301E+02  0.40659162009E+02  0.00000000000E+00 0. -1.
         11    1    3    3    0    0  0.74560129683E+01 -0.23073052550E+01  0.31453823782E+01  0.84148212987E+01  0.51100000000E-03 0. -1.
        -11    1    3    3    0    0  0.29648394282E+00 -0.35247595211E+01  0.26947483588E+02  0.27178644271E+02  0.51100000000E-03 0.  1.
         12    1    3    3    0    0 -0.10433655999E+02 -0.63257945823E+01  0.86132743344E+01  0.14935372422E+02  0.00000000000E+00 0. -1.
</event>
<event>
 7    1  0.3141443E-011  0.5052885E+02  0.7816164E-02  0.1300439E+00
        -11   -1    0    0    0    0  0.00000000000E+00  0.00000000000E+00  0.45593999997E+02  0.45594000000E+02  0.51100000000E-03 0. -1.
         11   -1    0    0    0    0 -0.00000000000E+00 -0.00000000000E+00 -0.45593999997E+02  0.45594000000E+02  0.51100000000E-03 0.  1.
    9900012    2    1    2    0    0 -0.17481536441E+02 -0.34214545090E+02  0.13301414304E+02  0.50528845625E+02  0.29999956761E+02 0.  0.
         12    1    1    2    0    0  0.17481536441E+02  0.34214545090E+02 -0.13301414304E+02  0.40659154375E+02  0.00000000000E+00 0. -1.
         11    1    3    3    0    0 -0.88029820733E+01 -0.62991913455E+01  0.65637270079E+01  0.12659179179E+02  0.51100000000E-03 0. -1.
        -11    1    3    3    0    0 -0.59578391809E+00 -0.91263061286E+01  0.13518108904E+02  0.16321264983E+02  0.51100000000E-03 0.  1.
        -12    1    3    3    0    0 -0.80827704497E+01 -0.18789047615E+02 -0.67804216083E+01  0.21548401463E+02  0.00000000000E+00 0.  1.
</event>
<event>
 7    1  0.3141443E-011  0.5052885E+02  0.7816164E-02  0.1300439E+00
        -11   -1    0    0    0    0  0.00000000000E+00  0.00000000000E+00  0.45593999997E+02  0.45594000000E+02  0.51100000000E-03 0. -1.
         11   -1    0    0    0    0 -0.00000000000E+00 -0.00000000000E+00 -0.45593999997E+02  0.45594000000E+02  0.51100000000E-03 0.  1.
    9900012    2    1    2    0    0  0.33106389685E+02  0.21881807007E+02  0.88498783511E+01  0.50528845278E+02  0.29999955708E+02 0.  0.
         12    1    1    2    0    0 -0.33106389685E+02 -0.21881807007E+02 -0.88498783511E+01  0.40659154722E+02  0.00000000000E+00 0. -1.
         11    1    3    3    0    0  0.96555204164E+00  0.32494241499E+01 -0.71201314778E+01  0.78858937713E+01  0.51100000000E-03 0. -1.
        -11    1    3    3    0    0  0.92180723807E+00  0.39220685956E+01  0.50188279064E+01  0.64359136468E+01  0.51100000000E-03 0.  1.
        -12    1    3    3    0    0  0.31219030405E+02  0.14710314262E+02  0.10951181922E+02  0.36207037860E+02  0.00000000000E+00 0.  1.
</event>
<event>
 7    1  0.3141443E-011  0.5052886E+02  0.7816164E-02  0.1300439E+00
        -11   -1    0    0    0    0  0.00000000000E+00  0.00000000000E+00  0.45593999997E+02  0.45594000000E+02  0.51100000000E-03 0.  1.
         11   -1    0    0    0    0 -0.00000000000E+00 -0.00000000000E+00 -0.45593999997E+02  0.45594000000E+02  0.51100000000E-03 0. -1.
    9900012    2    1    2    0    0  0.26269862677E+02 -0.78228529726E+01  0.30031036745E+02  0.50528857342E+02  0.29999992378E+02 0.  0.
         12    1    1    2    0    0 -0.26269862677E+02  0.78228529726E+01 -0.30031036745E+02  0.40659142658E+02  0.00000000000E+00 0. -1.
         11    1    3    3    0    0  0.24103949476E+02 -0.68434629812E+01  0.17042629668E+02  0.30303210921E+02  0.51100000000E-03 0. -1.
        -11    1    3    3    0    0  0.29177501753E+01  0.21339600930E+01  0.15649495732E+02  0.16061561838E+02  0.51100000000E-03 0.  1.
         12    1    3    3    0    0 -0.75183697427E+00 -0.31133500844E+01 -0.26610886547E+01  0.41640845827E+01  0.00000000000E+00 0. -1.
</event>
<event>
 7    1  0.4184819E-011  0.5052885E+02  0.7816164E-02  0.1300439E+00
        -11   -1    0    0    0    0  0.00000000000E+00  0.00000000000E+00  0.45593999997E+02  0.45594000000E+02  0.51100000000E-03 0. -1.
         11   -1    0    0    0    0 -0.00000000000E+00 -0.00000000000E+00 -0.45593999997E+02  0.45594000000E+02  0.51100000000E-03 0.  1.
    9900012    2    1    2    0    0 -0.32572457552E+02  0.14736037544E+02 -0.19366215426E+02  0.50528854738E+02  0.29999984461E+02 0.  0.
         12    1    1    2    0    0  0.32572457552E+02 -0.14736037544E+02  0.19366215426E+02  0.40659145262E+02  0.00000000000E+00 0. -1.
         11    1    3    3    0    0 -0.24208966828E+01  0.41591527430E+01  0.57184830626E+01  0.74739775947E+01  0.51100000000E-03 0. -1.
        -11    1    3    3    0    0 -0.47249260564E+01 -0.37532132965E+00 -0.11032711863E+02  0.12007769304E+02  0.51100000000E-03 0.  1.
        -12    1    3    3    0    0 -0.25426634813E+02  0.10952206131E+02 -0.14051986626E+02  0.31047107839E+02  0.00000000000E+00 0.  1.
</event>
<event>
 7    1  0.3141443E-011  0.5052885E+02  0.7816164E-02  0.1300439E+00
        -11   -1    0    0    0    0  0.00000000000E+00  0.00000000000E+00  0.45593999997E+02  0.45594000000E+02  0.51100000000E-03 0.  1.
         11   -1    0    0    0    0 -0.00000000000E+00 -0.00000000000E+00 -0.45593999997E+02  0.45594000000E+02  0.51100000000E-03 0. -1.
    9900012    2    1    2    0    0  0.32777848427E+02 -0.10684469699E+02  0.21555078306E+02  0.50528848004E+02  0.29999963993E+02 0.  0.
         12    1    1    2    0    0 -0.32777848427E+02  0.10684469699E+02 -0.21555078306E+02  0.40659151996E+02  0.00000000000E+00 0. -1.
         11    1    3    3    0    0  0.11311608008E+02 -0.86908592799E+01  0.66417520078E+01  0.15735195606E+02  0.51100000000E-03 0. -1.
        -11    1    3    3    0    0  0.13625300434E+02 -0.10793828165E+02  0.23062304104E+01  0.17534943323E+02  0.51100000000E-03 0.  1.
        -12    1    3    3    0    0  0.78409399852E+01  0.88002177461E+01  0.12607095888E+02  0.17258709075E+02  0.00000000000E+00 0.  1.
</event>
<event>
 7    1  0.3141443E-011  0.5052886E+02  0.7816164E-02  0.1300439E+00
        -11   -1    0    0    0    0  0.00000000000E+00  0.00000000000E+00  0.45593999997E+02  0.45594000000E+02  0.51100000000E-03 0. -1.
         11   -1    0    0    0    0 -0.00000000000E+00 -0.00000000000E+00 -0.45593999997E+02  0.45594000000E+02  0.51100000000E-03 0.  1.
    9900012    2    1    2    0    0  0.12182211590E+02 -0.21036527047E+02 -0.32591777093E+02  0.50528859779E+02  0.29999999785E+02 0.  0.
         12    1    1    2    0    0 -0.12182211590E+02  0.21036527047E+02  0.32591777093E+02  0.40659140221E+02  0.00000000000E+00 0. -1.
         11    1    3    3    0    0 -0.23381458957E+01  0.62767112503E+00 -0.12611966944E+02  0.12842219735E+02  0.51100000000E-03 0.  1.
        -11    1    3    3    0    0 -0.87588281008E+00 -0.14128133205E+02 -0.12861917557E+02  0.19125905000E+02  0.51100000000E-03 0. -1.
        -12    1    3    3    0    0  0.15396240296E+02 -0.75360649676E+01 -0.71178925913E+01  0.18560735044E+02  0.00000000000E+00 0.  1.
</event>
<event>
 7    1  0.3141443E-011  0.5052887E+02  0.7816164E-02  0.1300439E+00
        -11   -1    0    0    0    0  0.00000000000E+00  0.00000000000E+00  0.45593999997E+02  0.45594000000E+02  0.51100000000E-03 0.  1.
         11   -1    0    0    0    0 -0.00000000000E+00 -0.00000000000E+00 -0.45593999997E+02  0.45594000000E+02  0.51100000000E-03 0. -1.
    9900012    2    1    2    0    0  0.20904704736E+02  0.30921318096E+02  0.16125455446E+02  0.50528869338E+02  0.30000028839E+02 0.  0.
         12    1    1    2    0    0 -0.20904704736E+02 -0.30921318096E+02 -0.16125455446E+02  0.40659130662E+02  0.00000000000E+00 0. -1.
         11    1    3    3    0    0  0.79202449270E+01  0.43327484153E+01  0.51465211771E+01  0.10391807784E+02  0.51100000000E-03 0.  1.
        -11    1    3    3    0    0  0.14480324332E+02  0.23294678629E+02 -0.11775073290E+01  0.27453749634E+02  0.51100000000E-03 0. -1.
         12    1    3    3    0    0 -0.14958645229E+01  0.32938910511E+01  0.12156441598E+02  0.12683311920E+02  0.00000000000E+00 0. -1.
</event>
<event>
 7    1  0.3141443E-011  0.5052886E+02  0.7816164E-02  0.1300439E+00
        -11   -1    0    0    0    0  0.00000000000E+00  0.00000000000E+00  0.45593999997E+02  0.45594000000E+02  0.51100000000E-03 0.  1.
         11   -1    0    0    0    0 -0.00000000000E+00 -0.00000000000E+00 -0.45593999997E+02  0.45594000000E+02  0.51100000000E-03 0. -1.
    9900012    2    1    2    0    0  0.35611228352E+02 -0.13447874579E+02  0.14288482347E+02  0.50528860274E+02  0.30000001290E+02 0.  0.
         12    1    1    2    0    0 -0.35611228352E+02  0.13447874579E+02 -0.14288482347E+02  0.40659139726E+02  0.00000000000E+00 0. -1.
         11    1    3    3    0    0  0.43048964423E+01  0.34762035961E+01 -0.40956395155E+01  0.68840677017E+01  0.51100000000E-03 0. -1.
        -11    1    3    3    0    0  0.24088173815E+02 -0.50987514240E+01  0.16555890101E+02  0.29670437832E+02  0.51100000000E-03 0.  1.
         12    1    3    3    0    0  0.72181580946E+01 -0.11825326751E+02  0.18282317619E+01  0.13974354741E+02  0.00000000000E+00 0. -1.
</event>
<event>
 7    1  0.3141443E-011  0.5052886E+02  0.7816164E-02  0.1300439E+00
        -11   -1    0    0    0    0  0.00000000000E+00  0.00000000000E+00  0.45593999997E+02  0.45594000000E+02  0.51100000000E-03 0. -1.
         11   -1    0    0    0    0 -0.00000000000E+00 -0.00000000000E+00 -0.45593999997E+02  0.45594000000E+02  0.51100000000E-03 0.  1.
    9900012    2    1    2    0    0 -0.21236347476E+02 -0.29839538398E+01 -0.34543871035E+02  0.50528862519E+02  0.30000008114E+02 0.  0.
         12    1    1    2    0    0  0.21236347476E+02  0.29839538398E+01  0.34543871035E+02  0.40659137481E+02  0.00000000000E+00 0. -1.
         11    1    3    3    0    0 -0.52112941907E+01 -0.71976778999E+01 -0.15780986923E+01  0.90252174509E+01  0.51100000000E-03 0. -1.
        -11    1    3    3    0    0 -0.14441661374E+02 -0.39089881787E+01 -0.12741282175E+02  0.19651515044E+02  0.51100000000E-03 0.  1.
         12    1    3    3    0    0 -0.15833919111E+01  0.81227122387E+01 -0.20224490167E+02  0.21852130024E+02  0.00000000000E+00 0. -1.
</event>
<event>
 7    1  0.3141443E-011  0.5052886E+02  0.7816164E-02  0.1300439E+00
        -11   -1    0    0    0    0  0.00000000000E+00  0.00000000000E+00  0.45593999997E+02  0.45594000000E+02  0.51100000000E-03 0. -1.
         11   -1    0    0    0    0 -0.00000000000E+00 -0.00000000000E+00 -0.45593999997E+02  0.45594000000E+02  0.51100000000E-03 0.  1.
    9900012    2    1    2    0    0  0.11661912081E+02  0.27591229946E+02 -0.27493444426E+02  0.50528860195E+02  0.30000001047E+02 0.  0.
         12    1    1    2    0    0 -0.11661912081E+02 -0.27591229946E+02  0.27493444426E+02  0.40659139805E+02  0.00000000000E+00 0. -1.
         11    1    3    3    0    0 -0.42104998017E+01  0.10165890441E+02  0.11137305794E+01  0.11059567491E+02  0.51100000000E-03 0. -1.
        -11    1    3    3    0    0  0.64496532526E+01  0.16776043753E+01 -0.16620633063E+01  0.68683941511E+01  0.51100000000E-03 0.  1.
         12    1    3    3    0    0  0.94227586305E+01  0.15747735130E+02 -0.26945111699E+02  0.32600898552E+02  0.00000000000E+00 0. -1.
</event>
<event>
 7    1  0.3141443E-011  0.5052885E+02  0.7816164E-02  0.1300439E+00
        -11   -1    0    0    0    0  0.00000000000E+00  0.00000000000E+00  0.45593999997E+02  0.45594000000E+02  0.51100000000E-03 0.  1.
         11   -1    0    0    0    0 -0.00000000000E+00 -0.00000000000E+00 -0.45593999997E+02  0.45594000000E+02  0.51100000000E-03 0. -1.
    9900012    2    1    2    0    0 -0.12801876563E+02  0.29070105468E+02  0.25381248938E+02  0.50528845150E+02  0.29999955318E+02 0.  0.
         12    1    1    2    0    0  0.12801876563E+02 -0.29070105468E+02 -0.25381248938E+02  0.40659154850E+02  0.00000000000E+00 0. -1.
         11    1    3    3    0    0 -0.38302124029E+00  0.53958068973E+01 -0.41713790202E+01  0.68309472648E+01  0.51100000000E-03 0. -1.
        -11    1    3    3    0    0  0.32805484857E+01  0.11261620621E+02  0.14528355917E+02  0.18672418785E+02  0.51100000000E-03 0.  1.
         12    1    3    3    0    0 -0.15699403808E+02  0.12412677950E+02  0.15024272041E+02  0.25025479100E+02  0.00000000000E+00 0. -1.
</event>
<event>
 7    1  0.3141443E-011  0.5052886E+02  0.7816164E-02  0.1300439E+00
        -11   -1    0    0    0    0  0.00000000000E+00  0.00000000000E+00  0.45593999997E+02  0.45594000000E+02  0.51100000000E-03 0. -1.
         11   -1    0    0    0    0 -0.00000000000E+00 -0.00000000000E+00 -0.45593999997E+02  0.45594000000E+02  0.51100000000E-03 0.  1.
    9900012    2    1    2    0    0 -0.15345380552E+02  0.36635614620E+02 -0.86900480489E+01  0.50528857142E+02  0.29999991769E+02 0.  0.
         12    1    1    2    0    0  0.15345380552E+02 -0.36635614620E+02  0.86900480489E+01  0.40659142858E+02  0.00000000000E+00 0. -1.
         11    1    3    3    0    0  0.10860655925E+01 -0.30148322132E+00  0.24870184972E+01  0.27305112837E+01  0.51100000000E-03 0. -1.
        -11    1    3    3    0    0  0.10631871091E+01  0.87600007132E+01 -0.11667029227E+02  0.14628313319E+02  0.51100000000E-03 0.  1.
         12    1    3    3    0    0 -0.17494633254E+02  0.28177097128E+02  0.48996268067E+00  0.33170032539E+02  0.00000000000E+00 0. -1.
</event>
<event>
 7    1 -0.3141443E-011  0.5052885E+02  0.7816164E-02  0.1300439E+00
        -11   -1    0    0    0    0  0.00000000000E+00  0.00000000000E+00  0.45593999997E+02  0.45594000000E+02  0.51100000000E-03 0. -1.
         11   -1    0    0    0    0 -0.00000000000E+00 -0.00000000000E+00 -0.45593999997E+02  0.45594000000E+02  0.51100000000E-03 0.  1.
    9900012    2    1    2    0    0 -0.37554668578E+02  0.82762609728E+01 -0.13202897649E+02  0.50528854239E+02  0.29999982944E+02 0.  0.
         12    1    1    2    0    0  0.37554668578E+02 -0.82762609728E+01  0.13202897649E+02  0.40659145761E+02  0.00000000000E+00 0. -1.
         11    1    3    3    0    0 -0.13356298377E+01 -0.41033226304E+01  0.31803776067E+01  0.53605937782E+01  0.51100000000E-03 0. -1.
        -11    1    3    3    0    0 -0.11845215343E+02  0.11984143147E+01  0.27586454603E+01  0.12221106677E+02  0.51100000000E-03 0.  1.
         12    1    3    3    0    0 -0.24373823398E+02  0.11181169289E+02 -0.19141920716E+02  0.32947153783E+02  0.00000000000E+00 0. -1.
</event>
<event>
 7    1  0.3141443E-011  0.5052886E+02  0.7816164E-02  0.1300439E+00
        -11   -1    0    0    0    0  0.00000000000E+00  0.00000000000E+00  0.45593999997E+02  0.45594000000E+02  0.51100000000E-03 0.  1.
         11   -1    0    0    0    0 -0.00000000000E+00 -0.00000000000E+00 -0.45593999997E+02  0.45594000000E+02  0.51100000000E-03 0. -1.
    9900012    2    1    2    0    0  0.15418521630E+02 -0.24287528055E+02  0.28732397059E+02  0.50528862416E+02  0.30000007800E+02 0.  0.
         12    1    1    2    0    0 -0.15418521630E+02  0.24287528055E+02 -0.28732397059E+02  0.40659137584E+02  0.00000000000E+00 0. -1.
         11    1    3    3    0    0  0.11943889540E+02 -0.83474569439E+01  0.18250564814E+02  0.23354221269E+02  0.51100000000E-03 0.  1.
        -11    1    3    3    0    0  0.39930555405E+01 -0.54845418895E+00 -0.42538427523E+01  0.58600744849E+01  0.51100000000E-03 0. -1.
         12    1    3    3    0    0 -0.51842345059E+00 -0.15391616923E+02  0.14735674997E+02  0.21314566662E+02  0.00000000000E+00 0. -1.
</event>
<event>
 7    1  0.3141443E-011  0.5052886E+02  0.7816164E-02  0.1300439E+00
        -11   -1    0    0    0    0  0.00000000000E+00  0.00000000000E+00  0.45593999997E+02  0.45594000000E+02  0.51100000000E-03 0.  1.
         11   -1    0    0    0    0 -0.00000000000E+00 -0.00000000000E+00 -0.45593999997E+02  0.45594000000E+02  0.51100000000E-03 0. -1.
    9900012    2    1    2    0    0  0.77869791618E+01  0.31632114144E+02  0.24329781907E+02  0.50528856166E+02  0.29999988803E+02 0.  0.
         12    1    1    2    0    0 -0.77869791618E+01 -0.31632114144E+02 -0.24329781907E+02  0.40659143834E+02  0.00000000000E+00 0. -1.
         11    1    3    3    0    0  0.19249028703E+00  0.13527104657E+01  0.12675046885E+02  0.12748478024E+02  0.51100000000E-03 0. -1.
        -11    1    3    3    0    0  0.93497840932E+01  0.51000215895E+01  0.43472614517E+01  0.11503363212E+02  0.51100000000E-03 0.  1.
         12    1    3    3    0    0 -0.17552952184E+01  0.25179382089E+02  0.73074735698E+01  0.26277014930E+02  0.00000000000E+00 0. -1.
</event>
<event>
 7    1  0.3141443E-011  0.5052886E+02  0.7816164E-02  0.1300439E+00
        -11   -1    0    0    0    0  0.00000000000E+00  0.00000000000E+00  0.45593999997E+02  0.45594000000E+02  0.51100000000E-03 0.  1.
         11   -1    0    0    0    0 -0.00000000000E+00 -0.00000000000E+00 -0.45593999997E+02  0.45594000000E+02  0.51100000000E-03 0. -1.
    9900012    2    1    2    0    0 -0.62313880422E+00 -0.39805489513E+02 -0.82644152198E+01  0.50528857655E+02  0.29999993328E+02 0.  0.
         12    1    1    2    0    0  0.62313880422E+00  0.39805489513E+02  0.82644152198E+01  0.40659142345E+02  0.00000000000E+00 0. -1.
         11    1    3    3    0    0 -0.53764781618E+01 -0.79909818496E+01  0.33103428255E+01  0.10184334943E+02  0.51100000000E-03 0. -1.
        -11    1    3    3    0    0  0.10483878699E+02 -0.62316005700E+01 -0.16284948464E+01  0.12304330700E+02  0.51100000000E-03 0.  1.
         12    1    3    3    0    0 -0.57305393413E+01 -0.25582907093E+02 -0.99462631989E+01  0.28040192012E+02  0.00000000000E+00 0. -1.
</event>
<event>
 7    1  0.3141443E-011  0.5052886E+02  0.7816164E-02  0.1300439E+00
        -11   -1    0    0    0    0  0.00000000000E+00  0.00000000000E+00  0.45593999997E+02  0.45594000000E+02  0.51100000000E-03 0. -1.
         11   -1    0    0    0    0 -0.00000000000E+00 -0.00000000000E+00 -0.45593999997E+02  0.45594000000E+02  0.51100000000E-03 0.  1.
    9900012    2    1    2    0    0 -0.17010377257E+02 -0.36554033431E+02 -0.52550245403E+01  0.50528861084E+02  0.30000003750E+02 0.  0.
         12    1    1    2    0    0  0.17010377257E+02  0.36554033431E+02  0.52550245403E+01  0.40659138916E+02  0.00000000000E+00 0. -1.
         11    1    3    3    0    0  0.20602753193E+01 -0.39103193324E+01 -0.28296051833E+00  0.44289274761E+01  0.51100000000E-03 0. -1.
        -11    1    3    3    0    0  0.58533471449E+01 -0.42710327584E+01 -0.40981681450E+01  0.83245646149E+01  0.51100000000E-03 0.  1.
        -12    1    3    3    0    0 -0.24923999721E+02 -0.28372681340E+02 -0.87389587692E+00  0.37775368993E+02  0.00000000000E+00 0.  1.
</event>
<event>
 7    1  0.3141443E-011  0.5052885E+02  0.7816164E-02  0.1300439E+00
        -11   -1    0    0    0    0  0.00000000000E+00  0.00000000000E+00  0.45593999997E+02  0.45594000000E+02  0.51100000000E-03 0. -1.
         11   -1    0    0    0    0 -0.00000000000E+00 -0.00000000000E+00 -0.45593999997E+02  0.45594000000E+02  0.51100000000E-03 0.  1.
    9900012    2    1    2    0    0 -0.11247300223E+02  0.38919808078E+02 -0.34515977669E+01  0.50528846660E+02  0.29999959909E+02 0.  0.
         12    1    1    2    0    0  0.11247300223E+02 -0.38919808078E+02  0.34515977669E+01  0.40659153340E+02  0.00000000000E+00 0. -1.
         11    1    3    3    0    0 -0.12670211399E+02  0.21458502876E+02  0.85622975684E+01  0.26349849003E+02  0.51100000000E-03 0. -1.
        -11    1    3    3    0    0  0.11036281012E+01 -0.15741223809E+01 -0.78842613493E+00  0.20778528069E+01  0.51100000000E-03 0.  1.
        -12    1    3    3    0    0  0.31928307396E+00  0.19035427582E+02 -0.11225469200E+02  0.22101144850E+02  0.00000000000E+00 0.  1.
</event>
<event>
 7    1  0.3141443E-011  0.5052886E+02  0.7816164E-02  0.1300439E+00
        -11   -1    0    0    0    0  0.00000000000E+00  0.00000000000E+00  0.45593999997E+02  0.45594000000E+02  0.51100000000E-03 0. -1.
         11   -1    0    0    0    0 -0.00000000000E+00 -0.00000000000E+00 -0.45593999997E+02  0.45594000000E+02  0.51100000000E-03 0.  1.
    9900012    2    1    2    0    0  0.21906811724E+02  0.52755260214E+01 -0.33844144163E+02  0.50528859960E+02  0.30000000333E+02 0.  0.
         12    1    1    2    0    0 -0.21906811724E+02 -0.52755260214E+01  0.33844144163E+02  0.40659140040E+02  0.00000000000E+00 0. -1.
         11    1    3    3    0    0  0.50288689658E+01 -0.13479179457E+01 -0.21957450763E+02  0.22566259109E+02  0.51100000000E-03 0. -1.
        -11    1    3    3    0    0  0.10826865675E+02  0.70444678234E+01 -0.16052551586E+02  0.20604124828E+02  0.51100000000E-03 0.  1.
         12    1    3    3    0    0  0.60510770831E+01 -0.42102385621E+00  0.41658581864E+01  0.73584760230E+01  0.00000000000E+00 0. -1.
</event>
<event>
 7    1  0.3141443E-011  0.5052886E+02  0.7816164E-02  0.1300439E+00
        -11   -1    0    0    0    0  0.00000000000E+00  0.00000000000E+00  0.45593999997E+02  0.45594000000E+02  0.51100000000E-03 0.  1.
         11   -1    0    0    0    0 -0.00000000000E+00 -0.00000000000E+00 -0.45593999997E+02  0.45594000000E+02  0.51100000000E-03 0. -1.
    9900012    2    1    2    0    0 -0.30975061048E+02 -0.35063859286E+01  0.26103958966E+02  0.50528858065E+02  0.29999994573E+02 0.  0.
         12    1    1    2    0    0  0.30975061048E+02  0.35063859286E+01 -0.26103958966E+02  0.40659141935E+02  0.00000000000E+00 0. -1.
         11    1    3    3    0    0  0.24053053515E+01  0.50065261393E+01  0.29746100865E+01  0.63007224384E+01  0.51100000000E-03 0. -1.
        -11    1    3    3    0    0  0.13344176312E+01  0.10302959771E+01  0.12486895199E+01  0.20979528100E+01  0.51100000000E-03 0.  1.
        -12    1    3    3    0    0 -0.34714784031E+02 -0.95432080450E+01  0.21880659360E+02  0.42130182816E+02  0.00000000000E+00 0.  1.
</event>
<event>
 7    1  0.3141443E-011  0.5052886E+02  0.7816164E-02  0.1300439E+00
        -11   -1    0    0    0    0  0.00000000000E+00  0.00000000000E+00  0.45593999997E+02  0.45594000000E+02  0.51100000000E-03 0.  1.
         11   -1    0    0    0    0 -0.00000000000E+00 -0.00000000000E+00 -0.45593999997E+02  0.45594000000E+02  0.51100000000E-03 0. -1.
    9900012    2    1    2    0    0 -0.40089956506E+02  0.66676507417E+01  0.12261717766E+01  0.50528859868E+02  0.30000000055E+02 0.  0.
         12    1    1    2    0    0  0.40089956506E+02 -0.66676507417E+01 -0.12261717766E+01  0.40659140132E+02  0.00000000000E+00 0. -1.
         11    1    3    3    0    0 -0.66028118992E+01  0.10848668944E+02 -0.66460090434E+01  0.14333882213E+02  0.51100000000E-03 0. -1.
        -11    1    3    3    0    0 -0.56809399205E+01 -0.33737871248E+01  0.48853122018E+01  0.82171645666E+01  0.51100000000E-03 0.  1.
        -12    1    3    3    0    0 -0.27806204686E+02 -0.80723107780E+00  0.29868686183E+01  0.27977813088E+02  0.00000000000E+00 0.  1.
</event>
<event>
 7    1  0.3141443E-011  0.5052886E+02  0.7816164E-02  0.1300439E+00
        -11   -1    0    0    0    0  0.00000000000E+00  0.00000000000E+00  0.45593999997E+02  0.45594000000E+02  0.51100000000E-03 0.  1.
         11   -1    0    0    0    0 -0.00000000000E+00 -0.00000000000E+00 -0.45593999997E+02  0.45594000000E+02  0.51100000000E-03 0. -1.
    9900012    2    1    2    0    0 -0.20248384469E+01 -0.25488382605E+02  0.31613419347E+02  0.50528857100E+02  0.29999991640E+02 0.  0.
         12    1    1    2    0    0  0.20248384469E+01  0.25488382605E+02 -0.31613419347E+02  0.40659142900E+02  0.00000000000E+00 0. -1.
         11    1    3    3    0    0  0.48239899540E+01 -0.80335430275E+01  0.24928554047E+02  0.26631588382E+02  0.51100000000E-03 0. -1.
        -11    1    3    3    0    0  0.15302257135E+01 -0.12470506616E+02  0.65004459349E+01  0.14146056822E+02  0.51100000000E-03 0.  1.
        -12    1    3    3    0    0 -0.83790541144E+01 -0.49843329620E+01  0.18441936588E+00  0.97512118955E+01  0.00000000000E+00 0.  1.
</event>
<event>
 7    1  0.3141443E-011  0.5052886E+02  0.7816164E-02  0.1300439E+00
        -11   -1    0    0    0    0  0.00000000000E+00  0.00000000000E+00  0.45593999997E+02  0.45594000000E+02  0.51100000000E-03 0.  1.
         11   -1    0    0    0    0 -0.00000000000E+00 -0.00000000000E+00 -0.45593999997E+02  0.45594000000E+02  0.51100000000E-03 0. -1.
    9900012    2    1    2    0    0 -0.49579350789E+01 -0.22508146982E+02  0.33495787065E+02  0.50528861397E+02  0.30000004703E+02 0.  0.
         12    1    1    2    0    0  0.49579350789E+01  0.22508146982E+02 -0.33495787065E+02  0.40659138603E+02  0.00000000000E+00 0. -1.
         11    1    3    3    0    0 -0.54153803026E+00 -0.14397421013E+02  0.21271955400E+02  0.25691926398E+02  0.51100000000E-03 0. -1.
        -11    1    3    3    0    0 -0.17375530063E+01 -0.10146549715E+02  0.16468057547E+02  0.19420825966E+02  0.51100000000E-03 0.  1.
         12    1    3    3    0    0 -0.26788440423E+01  0.20358237461E+01 -0.42442258812E+01  0.54161090332E+01  0.00000000000E+00 0. -1.
</event>
<event>
 7    1  0.3141443E-011  0.5052886E+02  0.7816164E-02  0.1300439E+00
        -11   -1    0    0    0    0  0.00000000000E+00  0.00000000000E+00  0.45593999997E+02  0.45594000000E+02  0.51100000000E-03 0. -1.
         11   -1    0    0    0    0 -0.00000000000E+00 -0.00000000000E+00 -0.45593999997E+02  0.45594000000E+02  0.51100000000E-03 0.  1.
    9900012    2    1    2    0    0 -0.28700738805E+02  0.10811329368E+01 -0.28779585639E+02  0.50528858274E+02  0.29999995208E+02 0.  0.
         12    1    1    2    0    0  0.28700738805E+02 -0.10811329368E+01  0.28779585639E+02  0.40659141726E+02  0.00000000000E+00 0. -1.
         11    1    3    3    0    0 -0.11731865202E+02  0.43524162576E+01 -0.38908534406E+01  0.13104156942E+02  0.51100000000E-03 0. -1.
        -11    1    3    3    0    0 -0.13728197140E+02  0.68387786211E+01 -0.21239575993E+02  0.26198318236E+02  0.51100000000E-03 0.  1.
        -12    1    3    3    0    0 -0.32406764624E+01 -0.10110061942E+02 -0.36491562053E+01  0.11226383096E+02  0.00000000000E+00 0.  1.
</event>
<event>
 7    1  0.3141443E-011  0.5052886E+02  0.7816164E-02  0.1300439E+00
        -11   -1    0    0    0    0  0.00000000000E+00  0.00000000000E+00  0.45593999997E+02  0.45594000000E+02  0.51100000000E-03 0. -1.
         11   -1    0    0    0    0 -0.00000000000E+00 -0.00000000000E+00 -0.45593999997E+02  0.45594000000E+02  0.51100000000E-03 0.  1.
    9900012    2    1    2    0    0 -0.37213914244E+02  0.80441052977E+01  0.14268244308E+02  0.50528857866E+02  0.29999993971E+02 0.  0.
         12    1    1    2    0    0  0.37213914244E+02 -0.80441052977E+01 -0.14268244308E+02  0.40659142134E+02  0.00000000000E+00 0. -1.
         11    1    3    3    0    0  0.59631296192E+00 -0.28749422301E+00  0.69183434125E+01  0.69499437344E+01  0.51100000000E-03 0. -1.
        -11    1    3    3    0    0 -0.11811398132E+02  0.11812458972E+02  0.34960634165E+01  0.17066510260E+02  0.51100000000E-03 0.  1.
        -12    1    3    3    0    0 -0.25998829074E+02 -0.34808594509E+01  0.38538374793E+01  0.26512403872E+02  0.00000000000E+00 0.  1.
</event>
<event>
 7    1  0.3141443E-011  0.5052886E+02  0.7816164E-02  0.1300439E+00
        -11   -1    0    0    0    0  0.00000000000E+00  0.00000000000E+00  0.45593999997E+02  0.45594000000E+02  0.51100000000E-03 0.  1.
         11   -1    0    0    0    0 -0.00000000000E+00 -0.00000000000E+00 -0.45593999997E+02  0.45594000000E+02  0.51100000000E-03 0. -1.
    9900012    2    1    2    0    0 -0.28417539139E+02 -0.22727934633E+02  0.18139743769E+02  0.50528857764E+02  0.29999993659E+02 0.  0.
         12    1    1    2    0    0  0.28417539139E+02  0.22727934633E+02 -0.18139743769E+02  0.40659142236E+02  0.00000000000E+00 0. -1.
         11    1    3    3    0    0 -0.11568728851E+02 -0.46217197982E+01  0.11168037732E+02  0.16730835250E+02  0.51100000000E-03 0.  1.
        -11    1    3    3    0    0 -0.20544236309E+02 -0.80901191097E+01  0.24910760695E+01  0.22219836475E+02  0.51100000000E-03 0. -1.
        -12    1    3    3    0    0  0.36954260210E+01 -0.10016095725E+02  0.44806299672E+01  0.11578186039E+02  0.00000000000E+00 0.  1.
</event>
<event>
 7    1  0.3141443E-011  0.5052888E+02  0.7816164E-02  0.1300439E+00
        -11   -1    0    0    0    0  0.00000000000E+00  0.00000000000E+00  0.45593999997E+02  0.45594000000E+02  0.51100000000E-03 0. -1.
         11   -1    0    0    0    0 -0.00000000000E+00 -0.00000000000E+00 -0.45593999997E+02  0.45594000000E+02  0.51100000000E-03 0.  1.
    9900012    2    1    2    0    0 -0.23878861977E+02  0.25728584114E+02 -0.20518375000E+02  0.50528882911E+02  0.30000070096E+02 0.  0.
         12    1    1    2    0    0  0.23878861977E+02 -0.25728584114E+02  0.20518375000E+02  0.40659117089E+02  0.00000000000E+00 0. -1.
         11    1    3    3    0    0 -0.15578617201E+02  0.89992831419E+01 -0.34271951142E+01  0.18314641072E+02  0.51100000000E-03 0.  1.
        -11    1    3    3    0    0 -0.10714215929E+02  0.57319009157E+01 -0.17072290695E+02  0.20955004675E+02  0.51100000000E-03 0. -1.
         12    1    3    3    0    0  0.24139711530E+01  0.10997400056E+02 -0.18889190659E-01  0.11259237164E+02  0.00000000000E+00 0. -1.
</event>
<event>
 7    1  0.3141443E-011  0.5052886E+02  0.7816164E-02  0.1300439E+00
        -11   -1    0    0    0    0  0.00000000000E+00  0.00000000000E+00  0.45593999997E+02  0.45594000000E+02  0.51100000000E-03 0. -1.
         11   -1    0    0    0    0 -0.00000000000E+00 -0.00000000000E+00 -0.45593999997E+02  0.45594000000E+02  0.51100000000E-03 0.  1.
    9900012    2    1    2    0    0 -0.90428730438E+00 -0.40513719702E+02 -0.33145501343E+01  0.50528862500E+02  0.30000008056E+02 0.  0.
         12    1    1    2    0    0  0.90428730438E+00  0.40513719702E+02  0.33145501343E+01  0.40659137500E+02  0.00000000000E+00 0. -1.
         11    1    3    3    0    0  0.18090144168E+01 -0.10509102132E+02  0.10769955550E+02  0.15156045117E+02  0.51100000000E-03 0. -1.
        -11    1    3    3    0    0 -0.45302255070E+01 -0.79409938947E+01 -0.15650293110E-01  0.91423504840E+01  0.51100000000E-03 0.  1.
        -12    1    3    3    0    0  0.18169237859E+01 -0.22063623675E+02 -0.14068855391E+02  0.26230466899E+02  0.00000000000E+00 0.  1.
</event>
<event>
 7    1  0.3141443E-011  0.5052886E+02  0.7816164E-02  0.1300439E+00
        -11   -1    0    0    0    0  0.00000000000E+00  0.00000000000E+00  0.45593999997E+02  0.45594000000E+02  0.51100000000E-03 0.  1.
         11   -1    0    0    0    0 -0.00000000000E+00 -0.00000000000E+00 -0.45593999997E+02  0.45594000000E+02  0.51100000000E-03 0. -1.
    9900012    2    1    2    0    0 -0.29525657032E+01  0.78933019306E+00  0.40544112963E+02  0.50528858564E+02  0.29999996091E+02 0.  0.
         12    1    1    2    0    0  0.29525657032E+01 -0.78933019306E+00 -0.40544112963E+02  0.40659141436E+02  0.00000000000E+00 0. -1.
         11    1    3    3    0    0  0.79218567414E+01  0.94264782278E+01  0.21940818516E+02  0.25159765965E+02  0.51100000000E-03 0.  1.
        -11    1    3    3    0    0 -0.33144028909E+00 -0.19506277251E+01 -0.93051775140E+00  0.21864731267E+01  0.51100000000E-03 0. -1.
        -12    1    3    3    0    0 -0.10542982156E+02 -0.66865203096E+01  0.19533812198E+02  0.23182619472E+02  0.00000000000E+00 0.  1.
</event>
<event>
 7    1  0.3141443E-011  0.5052886E+02  0.7816164E-02  0.1300439E+00
        -11   -1    0    0    0    0  0.00000000000E+00  0.00000000000E+00  0.45593999997E+02  0.45594000000E+02  0.51100000000E-03 0.  1.
         11   -1    0    0    0    0 -0.00000000000E+00 -0.00000000000E+00 -0.45593999997E+02  0.45594000000E+02  0.51100000000E-03 0. -1.
    9900012    2    1    2    0    0 -0.26117972185E+02  0.82662049974E+01  0.30044753159E+02  0.50528858242E+02  0.29999995113E+02 0.  0.
         12    1    1    2    0    0  0.26117972185E+02 -0.82662049974E+01 -0.30044753159E+02  0.40659141758E+02  0.00000000000E+00 0. -1.
         11    1    3    3    0    0 -0.71597737272E+01  0.83831822125E+01  0.35950439857E+00  0.11030382927E+02  0.51100000000E-03 0. -1.
        -11    1    3    3    0    0  0.35374955632E+01  0.33598195744E+00  0.38689999099E+01  0.52531818262E+01  0.51100000000E-03 0.  1.
        -12    1    3    3    0    0 -0.22495694021E+02 -0.45295917260E+00  0.25816248850E+02  0.34245293489E+02  0.00000000000E+00 0.  1.
</event>
<event>
 7    1  0.3141443E-011  0.5052885E+02  0.7816164E-02  0.1300439E+00
        -11   -1    0    0    0    0  0.00000000000E+00  0.00000000000E+00  0.45593999997E+02  0.45594000000E+02  0.51100000000E-03 0.  1.
         11   -1    0    0    0    0 -0.00000000000E+00 -0.00000000000E+00 -0.45593999997E+02  0.45594000000E+02  0.51100000000E-03 0. -1.
    9900012    2    1    2    0    0 -0.12622852459E+02 -0.77365038756E+01 -0.37867885786E+02  0.50528847643E+02  0.29999962897E+02 0.  0.
         12    1    1    2    0    0  0.12622852459E+02  0.77365038756E+01  0.37867885786E+02  0.40659152357E+02  0.00000000000E+00 0. -1.
         11    1    3    3    0    0  0.26343483814E+01  0.16215713500E+01 -0.39086603011E+01  0.49846675565E+01  0.51100000000E-03 0. -1.
        -11    1    3    3    0    0 -0.97234937073E+01  0.18817167882E+01 -0.61374580065E+00  0.99228963573E+01  0.51100000000E-03 0.  1.
        -12    1    3    3    0    0 -0.55337071335E+01 -0.11239792014E+02 -0.33345479685E+02  0.35621283730E+02  0.00000000000E+00 0.  1.
</event>
<event>
 7    1  0.3141443E-011  0.5052896E+02  0.7816164E-02  0.1300438E+00
        -11   -1    0    0    0    0  0.00000000000E+00  0.00000000000E+00  0.45593999997E+02  0.45594000000E+02  0.51100000000E-03 0.  1.
         11   -1    0    0    0    0 -0.00000000000E+00 -0.00000000000E+00 -0.45593999997E+02  0.45594000000E+02  0.51100000000E-03 0. -1.
    9900012    2    1    2    0    0 -0.36293140798E+02  0.18101535995E+02 -0.28808955907E+01  0.50528963689E+02  0.30000315627E+02 0.  0.
         12    1    1    2    0    0  0.36293140798E+02 -0.18101535995E+02  0.28808955907E+01  0.40659036311E+02  0.00000000000E+00 0. -1.
         11    1    3    3    0    0 -0.18485524653E+01  0.10257607997E+02 -0.22358888802E+01  0.10659965637E+02  0.51100000000E-03 0. -1.
        -11    1    3    3    0    0 -0.76872208921E+01 -0.23625182525E+01  0.65146928390E+01  0.10349689879E+02  0.51100000000E-03 0.  1.
        -12    1    3    3    0    0 -0.26757367440E+02  0.10206446251E+02 -0.71596995495E+01  0.29519308174E+02  0.00000000000E+00 0.  1.
</event>
<event>
 7    1  0.3141443E-011  0.5052890E+02  0.7816164E-02  0.1300439E+00
        -11   -1    0    0    0    0  0.00000000000E+00  0.00000000000E+00  0.45593999997E+02  0.45594000000E+02  0.51100000000E-03 0. -1.
         11   -1    0    0    0    0 -0.00000000000E+00 -0.00000000000E+00 -0.45593999997E+02  0.45594000000E+02  0.51100000000E-03 0.  1.
    9900012    2    1    2    0    0  0.12684784824E+02  0.35643026092E+02 -0.14894064561E+02  0.50528902197E+02  0.30000128718E+02 0.  0.
         12    1    1    2    0    0 -0.12684784824E+02 -0.35643026092E+02  0.14894064561E+02  0.40659097803E+02  0.00000000000E+00 0. -1.
         11    1    3    3    0    0  0.83044442326E+01  0.33360313087E+01 -0.42076790041E+01  0.98892599201E+01  0.51100000000E-03 0. -1.
        -11    1    3    3    0    0 -0.63318820308E+01  0.16610632961E+01 -0.33638762433E+01  0.73598590317E+01  0.51100000000E-03 0.  1.
        -12    1    3    3    0    0  0.10712222622E+02  0.30645931487E+02 -0.73225093138E+01  0.33279783245E+02  0.00000000000E+00 0.  1.
</event>
<event>
 7    1  0.3141443E-011  0.5052886E+02  0.7816164E-02  0.1300439E+00
        -11   -1    0    0    0    0  0.00000000000E+00  0.00000000000E+00  0.45593999997E+02  0.45594000000E+02  0.51100000000E-03 0.  1.
         11   -1    0    0    0    0 -0.00000000000E+00 -0.00000000000E+00 -0.45593999997E+02  0.45594000000E+02  0.51100000000E-03 0. -1.
    9900012    2    1    2    0    0  0.31370286195E+02 -0.22989797848E+02 -0.11854956532E+02  0.50528860124E+02  0.30000000833E+02 0.  0.
         12    1    1    2    0    0 -0.31370286195E+02  0.22989797848E+02  0.11854956532E+02  0.40659139876E+02  0.00000000000E+00 0. -1.
         11    1    3    3    0    0 -0.33300934678E+01 -0.15353564130E+01 -0.22890045957E+01  0.43227750484E+01  0.51100000000E-03 0. -1.
        -11    1    3    3    0    0  0.12863692999E+02 -0.16538424639E+02 -0.11210074770E+02  0.23762572751E+02  0.51100000000E-03 0.  1.
         12    1    3    3    0    0  0.21836686664E+02 -0.49160167961E+01  0.16441228332E+01  0.22443512325E+02  0.00000000000E+00 0. -1.
</event>
<event>
 7    1  0.3141443E-011  0.5052885E+02  0.7816164E-02  0.1300439E+00
        -11   -1    0    0    0    0  0.00000000000E+00  0.00000000000E+00  0.45593999997E+02  0.45594000000E+02  0.51100000000E-03 0. -1.
         11   -1    0    0    0    0 -0.00000000000E+00 -0.00000000000E+00 -0.45593999997E+02  0.45594000000E+02  0.51100000000E-03 0.  1.
    9900012    2    1    2    0    0 -0.29454834790E+02 -0.27299744256E+02 -0.63484589871E+01  0.50528852684E+02  0.29999978217E+02 0.  0.
         12    1    1    2    0    0  0.29454834790E+02  0.27299744256E+02  0.63484589871E+01  0.40659147316E+02  0.00000000000E+00 0. -1.
         11    1    3    3    0    0 -0.89975302566E+01 -0.62927241621E+01 -0.83012762222E+01  0.13764632769E+02  0.51100000000E-03 0. -1.
        -11    1    3    3    0    0 -0.64573443175E+01 -0.10160146393E+02 -0.97881521458E+01  0.15515598379E+02  0.51100000000E-03 0.  1.
         12    1    3    3    0    0 -0.13999960216E+02 -0.10846873701E+02  0.11740969381E+02  0.21248621535E+02  0.00000000000E+00 0. -1.
</event>
<event>
 7    1  0.3141443E-011  0.5052887E+02  0.7816164E-02  0.1300439E+00
        -11   -1    0    0    0    0  0.00000000000E+00  0.00000000000E+00  0.45593999997E+02  0.45594000000E+02  0.51100000000E-03 0.  1.
         11   -1    0    0    0    0 -0.00000000000E+00 -0.00000000000E+00 -0.45593999997E+02  0.45594000000E+02  0.51100000000E-03 0. -1.
    9900012    2    1    2    0    0  0.14248225715E+01  0.29850913902E+02  0.27569137448E+02  0.50528874090E+02  0.30000043284E+02 0.  0.
         12    1    1    2    0    0 -0.14248225715E+01 -0.29850913902E+02 -0.27569137448E+02  0.40659125910E+02  0.00000000000E+00 0. -1.
         11    1    3    3    0    0  0.58669565266E+01  0.12805159473E+02 -0.61613822666E+00  0.14098684854E+02  0.51100000000E-03 0. -1.
        -11    1    3    3    0    0  0.40332591309E+01  0.27945959499E-01  0.41831560298E+01  0.58109168661E+01  0.51100000000E-03 0.  1.
        -12    1    3    3    0    0 -0.84753930859E+01  0.17017808469E+02  0.24002119644E+02  0.30619272370E+02  0.00000000000E+00 0.  1.
</event>
<event>
 7    1  0.3141443E-011  0.5052886E+02  0.7816164E-02  0.1300439E+00
        -11   -1    0    0    0    0  0.00000000000E+00  0.00000000000E+00  0.45593999997E+02  0.45594000000E+02  0.51100000000E-03 0.  1.
         11   -1    0    0    0    0 -0.00000000000E+00 -0.00000000000E+00 -0.45593999997E+02  0.45594000000E+02  0.51100000000E-03 0. -1.
    9900012    2    1    2    0    0 -0.41163863626E+01  0.19712568749E+02  0.35321891353E+02  0.50528855738E+02  0.29999987502E+02 0.  0.
         12    1    1    2    0    0  0.41163863626E+01 -0.19712568749E+02 -0.35321891353E+02  0.40659144262E+02  0.00000000000E+00 0. -1.
         11    1    3    3    0    0 -0.10891833095E+02  0.83651683419E+00  0.98500952880E+01  0.14709050480E+02  0.51100000000E-03 0. -1.
        -11    1    3    3    0    0 -0.15625510320E+01  0.13968585740E+02  0.20728504608E+02  0.25044637287E+02  0.51100000000E-03 0.  1.
         12    1    3    3    0    0  0.83379977640E+01  0.49074661748E+01  0.47432914573E+01  0.10775167972E+02  0.00000000000E+00 0. -1.
</event>
<event>
 7    1  0.3141443E-011  0.5052886E+02  0.7816164E-02  0.1300439E+00
        -11   -1    0    0    0    0  0.00000000000E+00  0.00000000000E+00  0.45593999997E+02  0.45594000000E+02  0.51100000000E-03 0.  1.
         11   -1    0    0    0    0 -0.00000000000E+00 -0.00000000000E+00 -0.45593999997E+02  0.45594000000E+02  0.51100000000E-03 0. -1.
    9900012    2    1    2    0    0  0.80258464629E+00 -0.83019942643E+01  0.39794453445E+02  0.50528858644E+02  0.29999996333E+02 0.  0.
         12    1    1    2    0    0 -0.80258464629E+00  0.83019942643E+01 -0.39794453445E+02  0.40659141356E+02  0.00000000000E+00 0. -1.
         11    1    3    3    0    0  0.43380452501E+01 -0.61292102128E+00 -0.53032619284E+00  0.44131117029E+01  0.51100000000E-03 0. -1.
        -11    1    3    3    0    0 -0.59010228518E+01  0.54129346151E+01  0.88173075915E+01  0.11910786929E+02  0.51100000000E-03 0.  1.
        -12    1    3    3    0    0  0.23655622480E+01 -0.13102007858E+02  0.31507472046E+02  0.34204960012E+02  0.00000000000E+00 0.  1.
</event>
<event>
 7    1  0.3141443E-011  0.5052886E+02  0.7816164E-02  0.1300439E+00
        -11   -1    0    0    0    0  0.00000000000E+00  0.00000000000E+00  0.45593999997E+02  0.45594000000E+02  0.51100000000E-03 0.  1.
         11   -1    0    0    0    0 -0.00000000000E+00 -0.00000000000E+00 -0.45593999997E+02  0.45594000000E+02  0.51100000000E-03 0. -1.
    9900012    2    1    2    0    0  0.53689173084E+01 -0.36249545507E+02  0.17615634984E+02  0.50528863039E+02  0.30000009694E+02 0.  0.
         12    1    1    2    0    0 -0.53689173084E+01  0.36249545507E+02 -0.17615634984E+02  0.40659136961E+02  0.00000000000E+00 0. -1.
         11    1    3    3    0    0  0.37267183298E+01  0.24283303028E+01  0.73811973580E+01  0.86178473105E+01  0.51100000000E-03 0. -1.
        -11    1    3    3    0    0  0.16672454716E+01 -0.11732702467E+02  0.91009541327E+01  0.14942000570E+02  0.51100000000E-03 0.  1.
        -12    1    3    3    0    0 -0.25046492963E-01 -0.26945173343E+02  0.11334834929E+01  0.26969015159E+02  0.00000000000E+00 0.  1.
</event>
<event>
 7    1  0.3141443E-011  0.5052887E+02  0.7816164E-02  0.1300439E+00
        -11   -1    0    0    0    0  0.00000000000E+00  0.00000000000E+00  0.45593999997E+02  0.45594000000E+02  0.51100000000E-03 0.  1.
         11   -1    0    0    0    0 -0.00000000000E+00 -0.00000000000E+00 -0.45593999997E+02  0.45594000000E+02  0.51100000000E-03 0. -1.
    9900012    2    1    2    0    0 -0.14630837570E+02 -0.34491541588E+02 -0.15793562077E+02  0.50528874920E+02  0.30000045808E+02 0.  0.
         12    1    1    2    0    0  0.14630837570E+02  0.34491541588E+02  0.15793562077E+02  0.40659125080E+02  0.00000000000E+00 0. -1.
         11    1    3    3    0    0 -0.52376495316E+01 -0.12283201480E+02  0.32601742507E+01  0.13745499177E+02  0.51100000000E-03 0. -1.
        -11    1    3    3    0    0 -0.23195602573E+01  0.38222587467E+01 -0.22797181849E+01  0.50186788079E+01  0.51100000000E-03 0.  1.
        -12    1    3    3    0    0 -0.70736277815E+01 -0.26030598855E+02 -0.16774018143E+02  0.31764696935E+02  0.00000000000E+00 0.  1.
</event>
<event>
 7    1  0.3141443E-011  0.5052886E+02  0.7816164E-02  0.1300439E+00
        -11   -1    0    0    0    0  0.00000000000E+00  0.00000000000E+00  0.45593999997E+02  0.45594000000E+02  0.51100000000E-03 0.  1.
         11   -1    0    0    0    0 -0.00000000000E+00 -0.00000000000E+00 -0.45593999997E+02  0.45594000000E+02  0.51100000000E-03 0. -1.
    9900012    2    1    2    0    0  0.25889498816E+02 -0.11844566645E+02  0.29027673989E+02  0.50528858775E+02  0.29999996731E+02 0.  0.
         12    1    1    2    0    0 -0.25889498816E+02  0.11844566645E+02 -0.29027673989E+02  0.40659141225E+02  0.00000000000E+00 0. -1.
         11    1    3    3    0    0  0.26075573709E+00 -0.10037239417E+01  0.71626823853E+01  0.72373665458E+01  0.51100000000E-03 0. -1.
        -11    1    3    3    0    0  0.17140152105E+02  0.62204515082E+01  0.12051414292E+02  0.21856701897E+02  0.51100000000E-03 0.  1.
         12    1    3    3    0    0  0.84885909742E+01 -0.17061294211E+02  0.98135773123E+01  0.21434790331E+02  0.00000000000E+00 0. -1.
</event>
<event>
 7    1  0.3141443E-011  0.5052888E+02  0.7816164E-02  0.1300439E+00
        -11   -1    0    0    0    0  0.00000000000E+00  0.00000000000E+00  0.45593999997E+02  0.45594000000E+02  0.51100000000E-03 0.  1.
         11   -1    0    0    0    0 -0.00000000000E+00 -0.00000000000E+00 -0.45593999997E+02  0.45594000000E+02  0.51100000000E-03 0. -1.
    9900012    2    1    2    0    0 -0.33307265213E+01  0.27424852429E+02  0.29831998803E+02  0.50528875286E+02  0.30000046921E+02 0.  0.
         12    1    1    2    0    0  0.33307265213E+01 -0.27424852429E+02 -0.29831998803E+02  0.40659124714E+02  0.00000000000E+00 0. -1.
         11    1    3    3    0    0 -0.39248094141E+01  0.72910938610E+01  0.14926565158E+01  0.84138102167E+01  0.51100000000E-03 0. -1.
        -11    1    3    3    0    0 -0.33260817481E+01  0.79312005288E+01 -0.23003397990E+01  0.89027144779E+01  0.51100000000E-03 0.  1.
        -12    1    3    3    0    0  0.39201646409E+01  0.12202558039E+02  0.30639682086E+02  0.33212350592E+02  0.00000000000E+00 0.  1.
</event>
<event>
 7    1  0.3141443E-011  0.5052886E+02  0.7816164E-02  0.1300439E+00
        -11   -1    0    0    0    0  0.00000000000E+00  0.00000000000E+00  0.45593999997E+02  0.45594000000E+02  0.51100000000E-03 0. -1.
         11   -1    0    0    0    0 -0.00000000000E+00 -0.00000000000E+00 -0.45593999997E+02  0.45594000000E+02  0.51100000000E-03 0.  1.
    9900012    2    1    2    0    0  0.19413189655E+02  0.28922038785E+02 -0.20971634405E+02  0.50528859457E+02  0.29999998806E+02 0.  0.
         12    1    1    2    0    0 -0.19413189655E+02 -0.28922038785E+02  0.20971634405E+02  0.40659140543E+02  0.00000000000E+00 0. -1.
         11    1    3    3    0    0  0.78158146391E+01  0.31655054839E+01  0.51532391309E+01  0.98824722232E+01  0.51100000000E-03 0. -1.
        -11    1    3    3    0    0 -0.43120295822E+00  0.14020914756E+02 -0.90775652058E+01  0.16708506124E+02  0.51100000000E-03 0.  1.
        -12    1    3    3    0    0  0.12028577974E+02  0.11735618546E+02 -0.17047308330E+02  0.23937881110E+02  0.00000000000E+00 0.  1.
</event>
<event>
 7    1  0.3141443E-011  0.5052884E+02  0.7816164E-02  0.1300439E+00
        -11   -1    0    0    0    0  0.00000000000E+00  0.00000000000E+00  0.45593999997E+02  0.45594000000E+02  0.51100000000E-03 0. -1.
         11   -1    0    0    0    0 -0.00000000000E+00 -0.00000000000E+00 -0.45593999997E+02  0.45594000000E+02  0.51100000000E-03 0.  1.
    9900012    2    1    2    0    0 -0.28605020923E+02 -0.35691998373E+01 -0.28673697859E+02  0.50528839182E+02  0.29999937177E+02 0.  0.
         12    1    1    2    0    0  0.28605020923E+02  0.35691998373E+01  0.28673697859E+02  0.40659160818E+02  0.00000000000E+00 0. -1.
         11    1    3    3    0    0 -0.56323272742E+01  0.38386271982E+01 -0.42390954815E+01  0.80267116588E+01  0.51100000000E-03 0. -1.
        -11    1    3    3    0    0 -0.17888528216E+02 -0.16469142705E+02 -0.18340436472E+02  0.30456587356E+02  0.51100000000E-03 0.  1.
         12    1    3    3    0    0 -0.50841654335E+01  0.90613156694E+01 -0.60941659060E+01  0.12045540167E+02  0.00000000000E+00 0. -1.
</event>
<event>
 7    1  0.3141443E-011  0.5052885E+02  0.7816164E-02  0.1300439E+00
        -11   -1    0    0    0    0  0.00000000000E+00  0.00000000000E+00  0.45593999997E+02  0.45594000000E+02  0.51100000000E-03 0. -1.
         11   -1    0    0    0    0 -0.00000000000E+00 -0.00000000000E+00 -0.45593999997E+02  0.45594000000E+02  0.51100000000E-03 0.  1.
    9900012    2    1    2    0    0 -0.61210664909E+01  0.41163753303E+00 -0.40193649077E+02  0.50528851871E+02  0.29999975747E+02 0.  0.
         12    1    1    2    0    0  0.61210664909E+01 -0.41163753303E+00  0.40193649077E+02  0.40659148129E+02  0.00000000000E+00 0. -1.
         11    1    3    3    0    0 -0.80534260852E+01 -0.35192004043E+01 -0.47971397529E+01  0.10012741546E+02  0.51100000000E-03 0. -1.
        -11    1    3    3    0    0 -0.71165634849E+01 -0.24016429893E+01 -0.21443758929E+02  0.22721095091E+02  0.51100000000E-03 0.  1.
        -12    1    3    3    0    0  0.90489230791E+01  0.63324809266E+01 -0.13952750395E+02  0.17795015234E+02  0.00000000000E+00 0.  1.
</event>
<event>
 7    1  0.3141443E-011  0.5052886E+02  0.7816164E-02  0.1300439E+00
        -11   -1    0    0    0    0  0.00000000000E+00  0.00000000000E+00  0.45593999997E+02  0.45594000000E+02  0.51100000000E-03 0.  1.
         11   -1    0    0    0    0 -0.00000000000E+00 -0.00000000000E+00 -0.45593999997E+02  0.45594000000E+02  0.51100000000E-03 0. -1.
    9900012    2    1    2    0    0  0.21443997688E+02 -0.28447329937E+02  0.19597702407E+02  0.50528861335E+02  0.30000004514E+02 0.  0.
         12    1    1    2    0    0 -0.21443997688E+02  0.28447329937E+02 -0.19597702407E+02  0.40659138665E+02  0.00000000000E+00 0. -1.
         11    1    3    3    0    0  0.18766366381E+02 -0.17265960918E+02 -0.57088484049E+00  0.25507171998E+02  0.51100000000E-03 0.  1.
        -11    1    3    3    0    0 -0.16615304406E+01 -0.41678996918E+00 -0.44362788769E-01  0.17135826801E+01  0.51100000000E-03 0. -1.
        -12    1    3    3    0    0  0.43391617468E+01 -0.10764579049E+02  0.20212950036E+02  0.23308106657E+02  0.00000000000E+00 0.  1.
</event>
<event>
 7    1  0.3141443E-011  0.5052886E+02  0.7816164E-02  0.1300439E+00
        -11   -1    0    0    0    0  0.00000000000E+00  0.00000000000E+00  0.45593999997E+02  0.45594000000E+02  0.51100000000E-03 0. -1.
         11   -1    0    0    0    0 -0.00000000000E+00 -0.00000000000E+00 -0.45593999997E+02  0.45594000000E+02  0.51100000000E-03 0.  1.
    9900012    2    1    2    0    0 -0.17288192643E+02 -0.11499012909E+02 -0.34957932268E+02  0.50528856733E+02  0.29999990525E+02 0.  0.
         12    1    1    2    0    0  0.17288192643E+02  0.11499012909E+02  0.34957932268E+02  0.40659143267E+02  0.00000000000E+00 0. -1.
         11    1    3    3    0    0 -0.50610408648E+00  0.38560675705E+01 -0.42357132000E+01  0.57503621650E+01  0.51100000000E-03 0. -1.
        -11    1    3    3    0    0 -0.20775135643E+02 -0.51937121632E+01 -0.22866392363E+02  0.31328147200E+02  0.51100000000E-03 0.  1.
         12    1    3    3    0    0  0.39930470866E+01 -0.10161368316E+02 -0.78558267054E+01  0.13450347368E+02  0.00000000000E+00 0. -1.
</event>
<event>
 7    1  0.3141443E-011  0.5052886E+02  0.7816164E-02  0.1300439E+00
        -11   -1    0    0    0    0  0.00000000000E+00  0.00000000000E+00  0.45593999997E+02  0.45594000000E+02  0.51100000000E-03 0.  1.
         11   -1    0    0    0    0 -0.00000000000E+00 -0.00000000000E+00 -0.45593999997E+02  0.45594000000E+02  0.51100000000E-03 0. -1.
    9900012    2    1    2    0    0 -0.34658429203E+02 -0.16785098619E+02  0.13046815510E+02  0.50528860248E+02  0.30000001209E+02 0.  0.
         12    1    1    2    0    0  0.34658429203E+02  0.16785098619E+02 -0.13046815510E+02  0.40659139752E+02  0.00000000000E+00 0. -1.
         11    1    3    3    0    0 -0.12911820633E+02  0.26903828850E+01  0.13057984594E+01  0.13253617695E+02  0.51100000000E-03 0. -1.
        -11    1    3    3    0    0 -0.51678708769E+01  0.13740843361E+01  0.90372810603E+01  0.10500830747E+02  0.51100000000E-03 0.  1.
         12    1    3    3    0    0 -0.16578737693E+02 -0.20849565840E+02  0.27037359906E+01  0.26774411805E+02  0.00000000000E+00 0. -1.
</event>
<event>
 7    1  0.3141443E-011  0.5052886E+02  0.7816164E-02  0.1300439E+00
        -11   -1    0    0    0    0  0.00000000000E+00  0.00000000000E+00  0.45593999997E+02  0.45594000000E+02  0.51100000000E-03 0. -1.
         11   -1    0    0    0    0 -0.00000000000E+00 -0.00000000000E+00 -0.45593999997E+02  0.45594000000E+02  0.51100000000E-03 0.  1.
    9900012    2    1    2    0    0 -0.33534502766E+02  0.19643362219E+02 -0.11947417042E+02  0.50528864139E+02  0.30000013036E+02 0.  0.
         12    1    1    2    0    0  0.33534502766E+02 -0.19643362219E+02  0.11947417042E+02  0.40659135861E+02  0.00000000000E+00 0. -1.
         11    1    3    3    0    0 -0.92110399194E+01  0.14202266574E+02 -0.15896258935E+02  0.23221513315E+02  0.51100000000E-03 0. -1.
        -11    1    3    3    0    0 -0.76140127294E+01  0.49971091722E+01 -0.24140786469E+01  0.94218929041E+01  0.51100000000E-03 0.  1.
         12    1    3    3    0    0 -0.16709450117E+02  0.44398647227E+00  0.63629205397E+01  0.17885457919E+02  0.00000000000E+00 0. -1.
</event>
<event>
 7    1  0.3141443E-011  0.5052886E+02  0.7816164E-02  0.1300439E+00
        -11   -1    0    0    0    0  0.00000000000E+00  0.00000000000E+00  0.45593999997E+02  0.45594000000E+02  0.51100000000E-03 0. -1.
         11   -1    0    0    0    0 -0.00000000000E+00 -0.00000000000E+00 -0.45593999997E+02  0.45594000000E+02  0.51100000000E-03 0.  1.
    9900012    2    1    2    0    0 -0.64408859219E+01 -0.81924002516E+01 -0.39300956132E+02  0.50528860975E+02  0.30000003420E+02 0.  0.
         12    1    1    2    0    0  0.64408859219E+01  0.81924002516E+01  0.39300956132E+02  0.40659139025E+02  0.00000000000E+00 0. -1.
         11    1    3    3    0    0 -0.10393677268E+02 -0.27062514722E+01 -0.26616536588E+02  0.28701782948E+02  0.51100000000E-03 0. -1.
        -11    1    3    3    0    0  0.85245902599E+01  0.21248697038E+01 -0.74602240586E+01  0.11525565219E+02  0.51100000000E-03 0.  1.
         12    1    3    3    0    0 -0.45717989143E+01 -0.76110184832E+01 -0.52241954853E+01  0.10301512808E+02  0.00000000000E+00 0. -1.
</event>
<event>
 7    1  0.3141443E-011  0.5052886E+02  0.7816164E-02  0.1300439E+00
        -11   -1    0    0    0    0  0.00000000000E+00  0.00000000000E+00  0.45593999997E+02  0.45594000000E+02  0.51100000000E-03 0. -1.
         11   -1    0    0    0    0 -0.00000000000E+00 -0.00000000000E+00 -0.45593999997E+02  0.45594000000E+02  0.51100000000E-03 0.  1.
    9900012    2    1    2    0    0 -0.40236666225E+02 -0.21664889390E+01  0.54297683523E+01  0.50528863664E+02  0.30000011592E+02 0.  0.
         12    1    1    2    0    0  0.40236666225E+02  0.21664889390E+01 -0.54297683523E+01  0.40659136336E+02  0.00000000000E+00 0. -1.
         11    1    3    3    0    0 -0.85649415938E+01 -0.75794342339E+01  0.19335061993E+01  0.11599331631E+02  0.51100000000E-03 0. -1.
        -11    1    3    3    0    0 -0.58831360954E+01 -0.10682534101E+01 -0.79771117902E+01  0.99692912707E+01  0.51100000000E-03 0.  1.
         12    1    3    3    0    0 -0.25788588536E+02  0.64811987050E+01  0.11473373943E+02  0.28960240762E+02  0.00000000000E+00 0. -1.
</event>
<event>
 7    1  0.3141443E-011  0.5052884E+02  0.7816164E-02  0.1300439E+00
        -11   -1    0    0    0    0  0.00000000000E+00  0.00000000000E+00  0.45593999997E+02  0.45594000000E+02  0.51100000000E-03 0.  1.
         11   -1    0    0    0    0 -0.00000000000E+00 -0.00000000000E+00 -0.45593999997E+02  0.45594000000E+02  0.51100000000E-03 0. -1.
    9900012    2    1    2    0    0  0.25615959575E+02  0.29605617553E+02  0.10977139651E+02  0.50528836573E+02  0.29999929246E+02 0.  0.
         12    1    1    2    0    0 -0.25615959575E+02 -0.29605617553E+02 -0.10977139651E+02  0.40659163427E+02  0.00000000000E+00 0. -1.
         11    1    3    3    0    0 -0.53131380973E+01  0.26425775054E+01  0.61046765755E+01  0.85135027260E+01  0.51100000000E-03 0. -1.
        -11    1    3    3    0    0  0.56669158261E+01  0.17714463452E+01  0.18138489481E+01  0.62082207920E+01  0.51100000000E-03 0.  1.
         12    1    3    3    0    0  0.25262181847E+02  0.25191593703E+02  0.30586141272E+01  0.35807113055E+02  0.00000000000E+00 0. -1.
</event>
<event>
 7    1  0.3141443E-011  0.5052886E+02  0.7816164E-02  0.1300439E+00
        -11   -1    0    0    0    0  0.00000000000E+00  0.00000000000E+00  0.45593999997E+02  0.45594000000E+02  0.51100000000E-03 0. -1.
         11   -1    0    0    0    0 -0.00000000000E+00 -0.00000000000E+00 -0.45593999997E+02  0.45594000000E+02  0.51100000000E-03 0.  1.
    9900012    2    1    2    0    0  0.45376110811E+01 -0.35723261848E+02 -0.18879194002E+02  0.50528864279E+02  0.30000013463E+02 0.  0.
         12    1    1    2    0    0 -0.45376110811E+01  0.35723261848E+02  0.18879194002E+02  0.40659135721E+02  0.00000000000E+00 0. -1.
         11    1    3    3    0    0  0.51347494628E+01 -0.10899285439E+02  0.94249002420E-01  0.12048608146E+02  0.51100000000E-03 0. -1.
        -11    1    3    3    0    0 -0.80237838807E+01 -0.91592392474E+01 -0.17171595445E+02  0.21050806677E+02  0.51100000000E-03 0.  1.
         12    1    3    3    0    0  0.74266454990E+01 -0.15664737162E+02 -0.18018475596E+01  0.17429449456E+02  0.00000000000E+00 0. -1.
</event>
<event>
 7    1  0.3141443E-011  0.5052885E+02  0.7816164E-02  0.1300439E+00
        -11   -1    0    0    0    0  0.00000000000E+00  0.00000000000E+00  0.45593999997E+02  0.45594000000E+02  0.51100000000E-03 0. -1.
         11   -1    0    0    0    0 -0.00000000000E+00 -0.00000000000E+00 -0.45593999997E+02  0.45594000000E+02  0.51100000000E-03 0.  1.
    9900012    2    1    2    0    0  0.28465256567E+02  0.56302201469E+01 -0.28481502017E+02  0.50528853828E+02  0.29999981695E+02 0.  0.
         12    1    1    2    0    0 -0.28465256567E+02 -0.56302201469E+01  0.28481502017E+02  0.40659146172E+02  0.00000000000E+00 0. -1.
         11    1    3    3    0    0  0.10283253280E+02 -0.10545304493E+02 -0.15381338885E+02  0.21296345485E+02  0.51100000000E-03 0.  1.
        -11    1    3    3    0    0  0.57242548272E+01  0.74935423650E+01 -0.40224241078E+00  0.94383298162E+01  0.51100000000E-03 0. -1.
        -12    1    3    3    0    0  0.12457748460E+02  0.86819822746E+01 -0.12697920721E+02  0.19794178527E+02  0.00000000000E+00 0.  1.
</event>
<event>
 7    1  0.3141443E-011  0.5052886E+02  0.7816164E-02  0.1300439E+00
        -11   -1    0    0    0    0  0.00000000000E+00  0.00000000000E+00  0.45593999997E+02  0.45594000000E+02  0.51100000000E-03 0.  1.
         11   -1    0    0    0    0 -0.00000000000E+00 -0.00000000000E+00 -0.45593999997E+02  0.45594000000E+02  0.51100000000E-03 0. -1.
    9900012    2    1    2    0    0 -0.30549483286E+02  0.84166744174E+01  0.25476546726E+02  0.50528858711E+02  0.29999996538E+02 0.  0.
         12    1    1    2    0    0  0.30549483286E+02 -0.84166744174E+01 -0.25476546726E+02  0.40659141289E+02  0.00000000000E+00 0. -1.
         11    1    3    3    0    0  0.48385808926E+00  0.27521475944E+01  0.46603913602E-01  0.27947463602E+01  0.51100000000E-03 0. -1.
        -11    1    3    3    0    0 -0.27351785676E+02  0.73408374939E+01  0.74202841797E+01  0.29275735556E+02  0.51100000000E-03 0.  1.
         12    1    3    3    0    0 -0.36815556991E+01 -0.16763106710E+01  0.18009658633E+02  0.18458376795E+02  0.00000000000E+00 0. -1.
</event>
<event>
 7    1  0.3141443E-011  0.5052886E+02  0.7816164E-02  0.1300439E+00
        -11   -1    0    0    0    0  0.00000000000E+00  0.00000000000E+00  0.45593999997E+02  0.45594000000E+02  0.51100000000E-03 0.  1.
         11   -1    0    0    0    0 -0.00000000000E+00 -0.00000000000E+00 -0.45593999997E+02  0.45594000000E+02  0.51100000000E-03 0. -1.
    9900012    2    1    2    0    0  0.30156913426E+02  0.68786541080E+00  0.27262662154E+02  0.50528864077E+02  0.30000012850E+02 0.  0.
         12    1    1    2    0    0 -0.30156913426E+02 -0.68786541080E+00 -0.27262662154E+02  0.40659135923E+02  0.00000000000E+00 0. -1.
         11    1    3    3    0    0 -0.51752883636E+00  0.67513610172E+01 -0.63012054481E+00  0.68004237988E+01  0.51100000000E-03 0. -1.
        -11    1    3    3    0    0  0.67524894109E+01 -0.21553652606E+00  0.32601045152E+00  0.67637897893E+01  0.51100000000E-03 0.  1.
        -12    1    3    3    0    0  0.23921952852E+02 -0.58479590803E+01  0.27566772248E+02  0.36964650489E+02  0.00000000000E+00 0.  1.
</event>
<event>
 7    1  0.3141443E-011  0.5052885E+02  0.7816164E-02  0.1300439E+00
        -11   -1    0    0    0    0  0.00000000000E+00  0.00000000000E+00  0.45593999997E+02  0.45594000000E+02  0.51100000000E-03 0.  1.
         11   -1    0    0    0    0 -0.00000000000E+00 -0.00000000000E+00 -0.45593999997E+02  0.45594000000E+02  0.51100000000E-03 0. -1.
    9900012    2    1    2    0    0  0.26377083663E+01  0.40229895269E+02 -0.52691660013E+01  0.50528854791E+02  0.29999984624E+02 0.  0.
         12    1    1    2    0    0 -0.26377083663E+01 -0.40229895269E+02  0.52691660013E+01  0.40659145209E+02  0.00000000000E+00 0. -1.
         11    1    3    3    0    0  0.27927339391E+01 -0.23616032428E+00  0.82059617421E+00  0.29203617748E+01  0.51100000000E-03 0. -1.
        -11    1    3    3    0    0  0.83988724520E+01  0.26177401103E+02  0.45224229377E+01  0.27861257984E+02  0.51100000000E-03 0.  1.
         12    1    3    3    0    0 -0.85538980249E+01  0.14288654490E+02 -0.10612185113E+02  0.19747235033E+02  0.00000000000E+00 0. -1.
</event>
<event>
 7    1  0.3141443E-011  0.5052885E+02  0.7816164E-02  0.1300439E+00
        -11   -1    0    0    0    0  0.00000000000E+00  0.00000000000E+00  0.45593999997E+02  0.45594000000E+02  0.51100000000E-03 0.  1.
         11   -1    0    0    0    0 -0.00000000000E+00 -0.00000000000E+00 -0.45593999997E+02  0.45594000000E+02  0.51100000000E-03 0. -1.
    9900012    2    1    2    0    0 -0.32734108794E+02  0.19471336203E+02  0.14230663474E+02  0.50528848570E+02  0.29999965714E+02 0.  0.
         12    1    1    2    0    0  0.32734108794E+02 -0.19471336203E+02 -0.14230663474E+02  0.40659151430E+02  0.00000000000E+00 0. -1.
         11    1    3    3    0    0 -0.42805279428E+01 -0.29131386910E+01 -0.16713294299E+01  0.54408307111E+01  0.51100000000E-03 0. -1.
        -11    1    3    3    0    0 -0.14741842491E+02  0.68483994018E+01  0.18008610601E+02  0.24259689826E+02  0.51100000000E-03 0.  1.
         12    1    3    3    0    0 -0.13711738360E+02  0.15536075492E+02 -0.21066176969E+01  0.20828328034E+02  0.00000000000E+00 0. -1.
</event>
<event>
 7    1  0.3141443E-011  0.5052885E+02  0.7816164E-02  0.1300439E+00
        -11   -1    0    0    0    0  0.00000000000E+00  0.00000000000E+00  0.45593999997E+02  0.45594000000E+02  0.51100000000E-03 0.  1.
         11   -1    0    0    0    0 -0.00000000000E+00 -0.00000000000E+00 -0.45593999997E+02  0.45594000000E+02  0.51100000000E-03 0. -1.
    9900012    2    1    2    0    0 -0.20560808160E+02  0.15417737045E+02  0.31507347695E+02  0.50528850888E+02  0.29999972759E+02 0.  0.
         12    1    1    2    0    0  0.20560808160E+02 -0.15417737045E+02 -0.31507347695E+02  0.40659149112E+02  0.00000000000E+00 0. -1.
         11    1    3    3    0    0  0.53147250278E+01  0.28221389270E+01  0.11501905447E+01  0.61264760503E+01  0.51100000000E-03 0. -1.
        -11    1    3    3    0    0 -0.16273084065E+01  0.27174459989E+01  0.12036141910E+02  0.12445937399E+02  0.51100000000E-03 0.  1.
         12    1    3    3    0    0 -0.24248224781E+02  0.98781521187E+01  0.18321015240E+02  0.31956437439E+02  0.00000000000E+00 0. -1.
</event>
<event>
 7    1  0.3141443E-011  0.5052890E+02  0.7816164E-02  0.1300439E+00
        -11   -1    0    0    0    0  0.00000000000E+00  0.00000000000E+00  0.45593999997E+02  0.45594000000E+02  0.51100000000E-03 0.  1.
         11   -1    0    0    0    0 -0.00000000000E+00 -0.00000000000E+00 -0.45593999997E+02  0.45594000000E+02  0.51100000000E-03 0. -1.
    9900012    2    1    2    0    0  0.12341550708E+02  0.12812470140E+02  0.36560764683E+02  0.50528895494E+02  0.30000108344E+02 0.  0.
         12    1    1    2    0    0 -0.12341550708E+02 -0.12812470140E+02 -0.36560764683E+02  0.40659104506E+02  0.00000000000E+00 0. -1.
         11    1    3    3    0    0  0.68533269706E+01  0.89572576381E+01  0.70334266795E+01  0.13291713437E+02  0.51100000000E-03 0. -1.
        -11    1    3    3    0    0 -0.36449660314E+01  0.10662521822E+02  0.15619445876E+02  0.19259860818E+02  0.51100000000E-03 0.  1.
        -12    1    3    3    0    0  0.91331897693E+01 -0.68073093199E+01  0.13907892127E+02  0.17977321240E+02  0.00000000000E+00 0.  1.
</event>
<event>
 7    1  0.3141443E-011  0.5052891E+02  0.7816164E-02  0.1300439E+00
        -11   -1    0    0    0    0  0.00000000000E+00  0.00000000000E+00  0.45593999997E+02  0.45594000000E+02  0.51100000000E-03 0.  1.
         11   -1    0    0    0    0 -0.00000000000E+00 -0.00000000000E+00 -0.45593999997E+02  0.45594000000E+02  0.51100000000E-03 0. -1.
    9900012    2    1    2    0    0 -0.18583674051E+02  0.16547943579E+01  0.36125760036E+02  0.50528907243E+02  0.30000144056E+02 0.  0.
         12    1    1    2    0    0  0.18583674051E+02 -0.16547943579E+01 -0.36125760036E+02  0.40659092757E+02  0.00000000000E+00 0. -1.
         11    1    3    3    0    0 -0.55980732844E+01  0.62635636259E+01  0.22323349973E+02  0.23851679355E+02  0.51100000000E-03 0. -1.
        -11    1    3    3    0    0 -0.72399409767E+01  0.67874258714E+01  0.45723575306E+01  0.10926680601E+02  0.51100000000E-03 0.  1.
         12    1    3    3    0    0 -0.57456597902E+01 -0.11396195139E+02  0.92300525333E+01  0.15750547287E+02  0.00000000000E+00 0. -1.
</event>
<event>
 7    1  0.3141443E-011  0.5052887E+02  0.7816164E-02  0.1300439E+00
        -11   -1    0    0    0    0  0.00000000000E+00  0.00000000000E+00  0.45593999997E+02  0.45594000000E+02  0.51100000000E-03 0. -1.
         11   -1    0    0    0    0 -0.00000000000E+00 -0.00000000000E+00 -0.45593999997E+02  0.45594000000E+02  0.51100000000E-03 0.  1.
    9900012    2    1    2    0    0  0.16855309622E+02 -0.34338133260E+02 -0.13782449436E+02  0.50528871004E+02  0.30000033905E+02 0.  0.
         12    1    1    2    0    0 -0.16855309622E+02  0.34338133260E+02  0.13782449436E+02  0.40659128996E+02  0.00000000000E+00 0. -1.
         11    1    3    3    0    0 -0.40403967015E+01 -0.75726518839E+01 -0.57267829624E+01  0.10318231700E+02  0.51100000000E-03 0. -1.
        -11    1    3    3    0    0  0.43496130189E+01 -0.35792222678E+01  0.61840816337E+01  0.83649764715E+01  0.51100000000E-03 0.  1.
        -12    1    3    3    0    0  0.16546093305E+02 -0.23186259108E+02 -0.14239748107E+02  0.31845662832E+02  0.00000000000E+00 0.  1.
</event>
<event>
 7    1  0.3141443E-011  0.5052886E+02  0.7816164E-02  0.1300439E+00
        -11   -1    0    0    0    0  0.00000000000E+00  0.00000000000E+00  0.45593999997E+02  0.45594000000E+02  0.51100000000E-03 0.  1.
         11   -1    0    0    0    0 -0.00000000000E+00 -0.00000000000E+00 -0.45593999997E+02  0.45594000000E+02  0.51100000000E-03 0. -1.
    9900012    2    1    2    0    0  0.12447109424E+02  0.17910381620E+02  0.34314039099E+02  0.50528861027E+02  0.30000003577E+02 0.  0.
         12    1    1    2    0    0 -0.12447109424E+02 -0.17910381620E+02 -0.34314039099E+02  0.40659138973E+02  0.00000000000E+00 0. -1.
         11    1    3    3    0    0  0.10957071755E+02  0.12366678915E+02  0.21692451098E+01  0.16664266964E+02  0.51100000000E-03 0. -1.
        -11    1    3    3    0    0 -0.23848287021E+00  0.47921620727E+00 -0.53071911875E+00  0.75378066891E+00  0.51100000000E-03 0.  1.
        -12    1    3    3    0    0  0.17285205389E+01  0.50644864971E+01  0.32675513108E+02  0.33110813394E+02  0.00000000000E+00 0.  1.
</event>
<event>
 7    1  0.3141443E-011  0.5052885E+02  0.7816164E-02  0.1300439E+00
        -11   -1    0    0    0    0  0.00000000000E+00  0.00000000000E+00  0.45593999997E+02  0.45594000000E+02  0.51100000000E-03 0.  1.
         11   -1    0    0    0    0 -0.00000000000E+00 -0.00000000000E+00 -0.45593999997E+02  0.45594000000E+02  0.51100000000E-03 0. -1.
    9900012    2    1    2    0    0 -0.14345717578E+02 -0.17848459771E+02  0.33597603461E+02  0.50528854813E+02  0.29999984688E+02 0.  0.
         12    1    1    2    0    0  0.14345717578E+02  0.17848459771E+02 -0.33597603461E+02  0.40659145187E+02  0.00000000000E+00 0. -1.
         11    1    3    3    0    0 -0.76197266741E+01 -0.53375322124E+01 -0.64752106518E+00  0.93257047185E+01  0.51100000000E-03 0. -1.
        -11    1    3    3    0    0 -0.19706444919E+00 -0.88883387055E+00 -0.22084144579E+01  0.23887140318E+01  0.51100000000E-03 0.  1.
        -12    1    3    3    0    0 -0.65289264549E+01 -0.11622093688E+02  0.36453538984E+02  0.38814436062E+02  0.00000000000E+00 0.  1.
</event>
<event>
 7    1  0.3141443E-011  0.5052886E+02  0.7816164E-02  0.1300439E+00
        -11   -1    0    0    0    0  0.00000000000E+00  0.00000000000E+00  0.45593999997E+02  0.45594000000E+02  0.51100000000E-03 0.  1.
         11   -1    0    0    0    0 -0.00000000000E+00 -0.00000000000E+00 -0.45593999997E+02  0.45594000000E+02  0.51100000000E-03 0. -1.
    9900012    2    1    2    0    0  0.20765684573E+02  0.19229660506E+02  0.29191986744E+02  0.50528860941E+02  0.30000003315E+02 0.  0.
         12    1    1    2    0    0 -0.20765684573E+02 -0.19229660506E+02 -0.29191986744E+02  0.40659139059E+02  0.00000000000E+00 0. -1.
         11    1    3    3    0    0  0.11604334383E+02  0.11921884905E+02  0.17454741700E+01  0.16728376984E+02  0.51100000000E-03 0. -1.
        -11    1    3    3    0    0  0.12132487307E+02  0.73843714438E+01  0.13690435999E+02  0.19726992370E+02  0.51100000000E-03 0.  1.
         12    1    3    3    0    0 -0.29711371172E+01 -0.76595842584E-01  0.13756076575E+02  0.14073491587E+02  0.00000000000E+00 0. -1.
</event>
<event>
 7    1  0.3141443E-011  0.5052885E+02  0.7816164E-02  0.1300439E+00
        -11   -1    0    0    0    0  0.00000000000E+00  0.00000000000E+00  0.45593999997E+02  0.45594000000E+02  0.51100000000E-03 0.  1.
         11   -1    0    0    0    0 -0.00000000000E+00 -0.00000000000E+00 -0.45593999997E+02  0.45594000000E+02  0.51100000000E-03 0. -1.
    9900012    2    1    2    0    0  0.34130723505E+02  0.11553322051E+02  0.18835630760E+02  0.50528849449E+02  0.29999968384E+02 0.  0.
         12    1    1    2    0    0 -0.34130723505E+02 -0.11553322051E+02 -0.18835630760E+02  0.40659150551E+02  0.00000000000E+00 0. -1.
         11    1    3    3    0    0  0.13463467516E+01  0.23134875988E+01 -0.12089553677E+01  0.29370815085E+01  0.51100000000E-03 0. -1.
        -11    1    3    3    0    0  0.36528942908E+02  0.11274353501E+02  0.20370397217E+02  0.43317753865E+02  0.51100000000E-03 0.  1.
         12    1    3    3    0    0 -0.37445661547E+01 -0.20345190488E+01 -0.32581108922E+00  0.42740140749E+01  0.00000000000E+00 0. -1.
</event>
<event>
 7    1  0.3141443E-011  0.5052885E+02  0.7816164E-02  0.1300439E+00
        -11   -1    0    0    0    0  0.00000000000E+00  0.00000000000E+00  0.45593999997E+02  0.45594000000E+02  0.51100000000E-03 0.  1.
         11   -1    0    0    0    0 -0.00000000000E+00 -0.00000000000E+00 -0.45593999997E+02  0.45594000000E+02  0.51100000000E-03 0. -1.
    9900012    2    1    2    0    0 -0.15200963393E+02  0.10342477290E+02  0.36264722722E+02  0.50528852952E+02  0.29999979032E+02 0.  0.
         12    1    1    2    0    0  0.15200963393E+02 -0.10342477290E+02 -0.36264722722E+02  0.40659147048E+02  0.00000000000E+00 0. -1.
         11    1    3    3    0    0 -0.64935579294E+01 -0.32854474103E+01  0.26061149194E+01  0.77299608345E+01  0.51100000000E-03 0. -1.
        -11    1    3    3    0    0 -0.32892336061E+01  0.13064989354E+02  0.62456699321E+01  0.14849962886E+02  0.51100000000E-03 0.  1.
        -12    1    3    3    0    0 -0.54181718574E+01  0.56293534602E+00  0.27412937871E+02  0.27948929231E+02  0.00000000000E+00 0.  1.
</event>
<event>
 7    1  0.3141443E-011  0.5052886E+02  0.7816164E-02  0.1300439E+00
        -11   -1    0    0    0    0  0.00000000000E+00  0.00000000000E+00  0.45593999997E+02  0.45594000000E+02  0.51100000000E-03 0.  1.
         11   -1    0    0    0    0 -0.00000000000E+00 -0.00000000000E+00 -0.45593999997E+02  0.45594000000E+02  0.51100000000E-03 0. -1.
    9900012    2    1    2    0    0  0.21971353980E+02  0.55170131735E+01  0.33763707831E+02  0.50528858389E+02  0.29999995559E+02 0.  0.
         12    1    1    2    0    0 -0.21971353980E+02 -0.55170131735E+01 -0.33763707831E+02  0.40659141611E+02  0.00000000000E+00 0. -1.
         11    1    3    3    0    0 -0.14554253278E+01  0.22007533624E+01 -0.53386770169E+00  0.26919497081E+01  0.51100000000E-03 0. -1.
        -11    1    3    3    0    0  0.15585860315E+02 -0.45993204138E+00  0.35760367371E+02  0.39011978340E+02  0.51100000000E-03 0.  1.
         12    1    3    3    0    0  0.78409189925E+01  0.37761918525E+01 -0.14627918382E+01  0.88249303406E+01  0.00000000000E+00 0. -1.
</event>
<event>
 7    1  0.3141443E-011  0.5052886E+02  0.7816164E-02  0.1300439E+00
        -11   -1    0    0    0    0  0.00000000000E+00  0.00000000000E+00  0.45593999997E+02  0.45594000000E+02  0.51100000000E-03 0.  1.
         11   -1    0    0    0    0 -0.00000000000E+00 -0.00000000000E+00 -0.45593999997E+02  0.45594000000E+02  0.51100000000E-03 0. -1.
    9900012    2    1    2    0    0  0.21717018478E+02  0.55943333532E+01  0.33915189724E+02  0.50528861405E+02  0.30000004727E+02 0.  0.
         12    1    1    2    0    0 -0.21717018478E+02 -0.55943333532E+01 -0.33915189724E+02  0.40659138595E+02  0.00000000000E+00 0. -1.
         11    1    3    3    0    0 -0.34452087091E+01 -0.13184410970E+00  0.67954791992E+01  0.76200645486E+01  0.51100000000E-03 0. -1.
        -11    1    3    3    0    0  0.92209659611E+01 -0.25963563491E+01  0.22331196568E+02  0.24299169121E+02  0.51100000000E-03 0.  1.
         12    1    3    3    0    0  0.15941261226E+02  0.83225338119E+01  0.47885139566E+01  0.18609627735E+02  0.00000000000E+00 0. -1.
</event>
<event>
 7    1  0.3141443E-011  0.5052886E+02  0.7816164E-02  0.1300439E+00
        -11   -1    0    0    0    0  0.00000000000E+00  0.00000000000E+00  0.45593999997E+02  0.45594000000E+02  0.51100000000E-03 0.  1.
         11   -1    0    0    0    0 -0.00000000000E+00 -0.00000000000E+00 -0.45593999997E+02  0.45594000000E+02  0.51100000000E-03 0. -1.
    9900012    2    1    2    0    0 -0.25872418532E+02 -0.23847538516E+02  0.20373477875E+02  0.50528859150E+02  0.29999997872E+02 0.  0.
         12    1    1    2    0    0  0.25872418532E+02  0.23847538516E+02 -0.20373477875E+02  0.40659140850E+02  0.00000000000E+00 0. -1.
         11    1    3    3    0    0 -0.10844234494E+02 -0.30297454884E+01 -0.18577861538E+01  0.11411754867E+02  0.51100000000E-03 0. -1.
        -11    1    3    3    0    0 -0.10750933746E+02 -0.22057834633E+02  0.10726291417E+02  0.26780290755E+02  0.51100000000E-03 0.  1.
        -12    1    3    3    0    0 -0.42772502912E+01  0.12400416051E+01  0.11504972612E+02  0.12336813528E+02  0.00000000000E+00 0.  1.
</event>
<event>
 7    1  0.3141443E-011  0.5052885E+02  0.7816164E-02  0.1300439E+00
        -11   -1    0    0    0    0  0.00000000000E+00  0.00000000000E+00  0.45593999997E+02  0.45594000000E+02  0.51100000000E-03 0.  1.
         11   -1    0    0    0    0 -0.00000000000E+00 -0.00000000000E+00 -0.45593999997E+02  0.45594000000E+02  0.51100000000E-03 0. -1.
    9900012    2    1    2    0    0 -0.36679088077E+02  0.15414939153E+02  0.83779655936E+01  0.50528853934E+02  0.29999982019E+02 0.  0.
         12    1    1    2    0    0  0.36679088077E+02 -0.15414939153E+02 -0.83779655936E+01  0.40659146066E+02  0.00000000000E+00 0. -1.
         11    1    3    3    0    0 -0.86519786875E+01  0.85255263918E-01  0.13678694432E+02  0.16185508497E+02  0.51100000000E-03 0. -1.
        -11    1    3    3    0    0 -0.67262764092E+01 -0.62401809977E+00 -0.36526835615E+01  0.76794720121E+01  0.51100000000E-03 0.  1.
        -12    1    3    3    0    0 -0.21300832981E+02  0.15953701989E+02 -0.16480452770E+01  0.26663873426E+02  0.00000000000E+00 0.  1.
</event>
<event>
 7    1  0.3141443E-011  0.5052886E+02  0.7816164E-02  0.1300439E+00
        -11   -1    0    0    0    0  0.00000000000E+00  0.00000000000E+00  0.45593999997E+02  0.45594000000E+02  0.51100000000E-03 0.  1.
         11   -1    0    0    0    0 -0.00000000000E+00 -0.00000000000E+00 -0.45593999997E+02  0.45594000000E+02  0.51100000000E-03 0. -1.
    9900012    2    1    2    0    0  0.28071154633E+02 -0.28618581563E+02  0.67935682139E+01  0.50528862009E+02  0.30000006563E+02 0.  0.
         12    1    1    2    0    0 -0.28071154633E+02  0.28618581563E+02 -0.67935682139E+01  0.40659137991E+02  0.00000000000E+00 0. -1.
         11    1    3    3    0    0  0.35739949586E+01 -0.51956420946E+00  0.54746705143E+01  0.65586129961E+01  0.51100000000E-03 0. -1.
        -11    1    3    3    0    0  0.23922954399E+02 -0.21562614035E+02  0.94099713487E+01  0.33552967562E+02  0.51100000000E-03 0.  1.
         12    1    3    3    0    0  0.57420527560E+00 -0.65364033178E+01 -0.80910736491E+01  0.10417281451E+02  0.00000000000E+00 0. -1.
</event>
<event>
 7    1  0.3141443E-011  0.5052886E+02  0.7816164E-02  0.1300439E+00
        -11   -1    0    0    0    0  0.00000000000E+00  0.00000000000E+00  0.45593999997E+02  0.45594000000E+02  0.51100000000E-03 0. -1.
         11   -1    0    0    0    0 -0.00000000000E+00 -0.00000000000E+00 -0.45593999997E+02  0.45594000000E+02  0.51100000000E-03 0.  1.
    9900012    2    1    2    0    0  0.24809618943E+02 -0.30767517648E+02  0.95398308992E+01  0.50528859479E+02  0.29999998871E+02 0.  0.
         12    1    1    2    0    0 -0.24809618943E+02  0.30767517648E+02 -0.95398308992E+01  0.40659140521E+02  0.00000000000E+00 0. -1.
         11    1    3    3    0    0  0.67671364425E+00  0.85322844668E+00  0.90456465708E+01  0.91109638505E+01  0.51100000000E-03 0. -1.
        -11    1    3    3    0    0  0.30274493198E+01 -0.12733727565E+02 -0.10646742736E+00  0.13089102439E+02  0.51100000000E-03 0.  1.
        -12    1    3    3    0    0  0.21105455979E+02 -0.18887018530E+02  0.60065175576E+00  0.28328793190E+02  0.00000000000E+00 0.  1.
</event>
<event>
 7    1  0.3141443E-011  0.5052893E+02  0.7816164E-02  0.1300439E+00
        -11   -1    0    0    0    0  0.00000000000E+00  0.00000000000E+00  0.45593999997E+02  0.45594000000E+02  0.51100000000E-03 0.  1.
         11   -1    0    0    0    0 -0.00000000000E+00 -0.00000000000E+00 -0.45593999997E+02  0.45594000000E+02  0.51100000000E-03 0. -1.
    9900012    2    1    2    0    0  0.31355877203E+02  0.15043449598E+02  0.21063320423E+02  0.50528931168E+02  0.30000216778E+02 0.  0.
         12    1    1    2    0    0 -0.31355877203E+02 -0.15043449598E+02 -0.21063320423E+02  0.40659068832E+02  0.00000000000E+00 0. -1.
         11    1    3    3    0    0  0.19966728342E+01  0.39492264901E+01 -0.14813602132E+01  0.46666391139E+01  0.51100000000E-03 0. -1.
        -11    1    3    3    0    0  0.24995616564E+02  0.18504516322E+02  0.15514717789E+02  0.34754919653E+02  0.51100000000E-03 0.  1.
        -12    1    3    3    0    0  0.43635878047E+01 -0.74102932133E+01  0.70299628470E+01  0.11107372402E+02  0.00000000000E+00 0.  1.
</event>
<event>
 7    1  0.3141443E-011  0.5052886E+02  0.7816164E-02  0.1300439E+00
        -11   -1    0    0    0    0  0.00000000000E+00  0.00000000000E+00  0.45593999997E+02  0.45594000000E+02  0.51100000000E-03 0. -1.
         11   -1    0    0    0    0 -0.00000000000E+00 -0.00000000000E+00 -0.45593999997E+02  0.45594000000E+02  0.51100000000E-03 0.  1.
    9900012    2    1    2    0    0  0.31100206448E+02  0.25561495708E+02 -0.57054829461E+01  0.50528862779E+02  0.30000008902E+02 0.  0.
         12    1    1    2    0    0 -0.31100206448E+02 -0.25561495708E+02  0.57054829461E+01  0.40659137221E+02  0.00000000000E+00 0. -1.
         11    1    3    3    0    0  0.10068696644E+02 -0.29604514946E+01 -0.37321034667E+01  0.11138739682E+02  0.51100000000E-03 0.  1.
        -11    1    3    3    0    0 -0.13767854909E+01  0.66587169581E+01 -0.42198260430E+01  0.80025609594E+01  0.51100000000E-03 0. -1.
         12    1    3    3    0    0  0.22408295295E+02  0.21863230245E+02  0.22464465635E+01  0.31387562137E+02  0.00000000000E+00 0. -1.
</event>
<event>
 7    1  0.3994402E-011  0.5052886E+02  0.7816164E-02  0.1300439E+00
        -11   -1    0    0    0    0  0.00000000000E+00  0.00000000000E+00  0.45593999997E+02  0.45594000000E+02  0.51100000000E-03 0.  1.
         11   -1    0    0    0    0 -0.00000000000E+00 -0.00000000000E+00 -0.45593999997E+02  0.45594000000E+02  0.51100000000E-03 0. -1.
    9900012    2    1    2    0    0  0.55443619782E+01  0.30367409531E+02  0.26462164289E+02  0.50528860188E+02  0.30000001028E+02 0.  0.
         12    1    1    2    0    0 -0.55443619782E+01 -0.30367409531E+02 -0.26462164289E+02  0.40659139812E+02  0.00000000000E+00 0. -1.
         11    1    3    3    0    0 -0.40126875966E+01 -0.20370737413E+01  0.40856036790E+01  0.60781155681E+01  0.51100000000E-03 0. -1.
        -11    1    3    3    0    0  0.85872188180E+01  0.54016067826E+01  0.13939939191E+01  0.10240161237E+02  0.51100000000E-03 0.  1.
        -12    1    3    3    0    0  0.96983075682E+00  0.27002876490E+02  0.20982566691E+02  0.34210583383E+02  0.00000000000E+00 0.  1.
</event>
<event>
 7    1  0.3141443E-011  0.5052886E+02  0.7816164E-02  0.1300439E+00
        -11   -1    0    0    0    0  0.00000000000E+00  0.00000000000E+00  0.45593999997E+02  0.45594000000E+02  0.51100000000E-03 0.  1.
         11   -1    0    0    0    0 -0.00000000000E+00 -0.00000000000E+00 -0.45593999997E+02  0.45594000000E+02  0.51100000000E-03 0. -1.
    9900012    2    1    2    0    0 -0.24736431656E+01 -0.34258920919E+02  0.21757135226E+02  0.50528861959E+02  0.30000006409E+02 0.  0.
         12    1    1    2    0    0  0.24736431656E+01  0.34258920919E+02 -0.21757135226E+02  0.40659138041E+02  0.00000000000E+00 0. -1.
         11    1    3    3    0    0 -0.61496931871E+01 -0.12884443274E+01  0.28198071573E+01  0.68869534444E+01  0.51100000000E-03 0. -1.
        -11    1    3    3    0    0 -0.41324983743E+01 -0.28827497923E+02  0.93150201245E+01  0.30575673002E+02  0.51100000000E-03 0.  1.
         12    1    3    3    0    0  0.78085483957E+01 -0.41429786680E+01  0.96223079441E+01  0.13066235512E+02  0.00000000000E+00 0. -1.
</event>
<event>
 7    1  0.3141443E-011  0.5052885E+02  0.7816164E-02  0.1300439E+00
        -11   -1    0    0    0    0  0.00000000000E+00  0.00000000000E+00  0.45593999997E+02  0.45594000000E+02  0.51100000000E-03 0.  1.
         11   -1    0    0    0    0 -0.00000000000E+00 -0.00000000000E+00 -0.45593999997E+02  0.45594000000E+02  0.51100000000E-03 0. -1.
    9900012    2    1    2    0    0  0.38495981170E+02 -0.11023566389E+02  0.70502963704E+01  0.50528852677E+02  0.29999978196E+02 0.  0.
         12    1    1    2    0    0 -0.38495981170E+02  0.11023566389E+02 -0.70502963704E+01  0.40659147323E+02  0.00000000000E+00 0. -1.
         11    1    3    3    0    0  0.20587525037E+02 -0.41343671758E+00  0.44602182829E+01  0.21069187560E+02  0.51100000000E-03 0. -1.
        -11    1    3    3    0    0  0.14696479489E+02 -0.11174909144E+02  0.10262372908E+02  0.21123006456E+02  0.51100000000E-03 0.  1.
         12    1    3    3    0    0  0.32119766435E+01  0.56477947318E+00 -0.76722948204E+01  0.83366586606E+01  0.00000000000E+00 0. -1.
</event>
<event>
 7    1  0.3141443E-011  0.5052885E+02  0.7816164E-02  0.1300439E+00
        -11   -1    0    0    0    0  0.00000000000E+00  0.00000000000E+00  0.45593999997E+02  0.45594000000E+02  0.51100000000E-03 0.  1.
         11   -1    0    0    0    0 -0.00000000000E+00 -0.00000000000E+00 -0.45593999997E+02  0.45594000000E+02  0.51100000000E-03 0. -1.
    9900012    2    1    2    0    0  0.13136962067E+02 -0.35262890103E+02  0.15398538026E+02  0.50528853869E+02  0.29999981820E+02 0.  0.
         12    1    1    2    0    0 -0.13136962067E+02  0.35262890103E+02 -0.15398538026E+02  0.40659146131E+02  0.00000000000E+00 0. -1.
         11    1    3    3    0    0 -0.34489209497E+01 -0.47818024369E+01 -0.16814597704E+01  0.61309051113E+01  0.51100000000E-03 0. -1.
        -11    1    3    3    0    0  0.99182929824E+01 -0.31510336764E+01  0.11873365054E+02  0.15788551133E+02  0.51100000000E-03 0.  1.
         12    1    3    3    0    0  0.66675900346E+01 -0.27330053989E+02  0.52066327422E+01  0.28609397625E+02  0.00000000000E+00 0. -1.
</event>
<event>
 7    1  0.3141443E-011  0.5052894E+02  0.7816164E-02  0.1300439E+00
        -11   -1    0    0    0    0  0.00000000000E+00  0.00000000000E+00  0.45593999997E+02  0.45594000000E+02  0.51100000000E-03 0.  1.
         11   -1    0    0    0    0 -0.00000000000E+00 -0.00000000000E+00 -0.45593999997E+02  0.45594000000E+02  0.51100000000E-03 0. -1.
    9900012    2    1    2    0    0  0.30656222126E+01  0.11266617889E+02  0.38946431202E+02  0.50528939244E+02  0.30000241325E+02 0.  0.
         12    1    1    2    0    0 -0.30656222126E+01 -0.11266617889E+02 -0.38946431202E+02  0.40659060756E+02  0.00000000000E+00 0. -1.
         11    1    3    3    0    0 -0.35664677784E+01  0.11764977882E+02  0.21025082415E+02  0.24355461149E+02  0.51100000000E-03 0. -1.
        -11    1    3    3    0    0 -0.38091403574E+01 -0.60993970841E+01  0.60002723868E+01  0.93656534224E+01  0.51100000000E-03 0.  1.
        -12    1    3    3    0    0  0.10441230348E+02  0.56010370906E+01  0.11921076400E+02  0.16807824672E+02  0.00000000000E+00 0.  1.
</event>
<event>
 7    1  0.3141443E-011  0.5052886E+02  0.7816164E-02  0.1300439E+00
        -11   -1    0    0    0    0  0.00000000000E+00  0.00000000000E+00  0.45593999997E+02  0.45594000000E+02  0.51100000000E-03 0.  1.
         11   -1    0    0    0    0 -0.00000000000E+00 -0.00000000000E+00 -0.45593999997E+02  0.45594000000E+02  0.51100000000E-03 0. -1.
    9900012    2    1    2    0    0 -0.26839682200E+02 -0.29710764279E+02  0.70758425187E+01  0.50528860782E+02  0.30000002832E+02 0.  0.
         12    1    1    2    0    0  0.26839682200E+02  0.29710764279E+02 -0.70758425187E+01  0.40659139218E+02  0.00000000000E+00 0. -1.
         11    1    3    3    0    0 -0.10864449082E+02 -0.17505032282E+02  0.67533584162E+01  0.21681103736E+02  0.51100000000E-03 0. -1.
        -11    1    3    3    0    0  0.58712272733E+00 -0.20263639017E+01  0.77535565585E+01  0.80354529011E+01  0.51100000000E-03 0.  1.
         12    1    3    3    0    0 -0.16562355845E+02 -0.10179368095E+02 -0.74310724559E+01  0.20812304144E+02  0.00000000000E+00 0. -1.
</event>
<event>
 7    1  0.4116440E-011  0.5052886E+02  0.7816164E-02  0.1300439E+00
        -11   -1    0    0    0    0  0.00000000000E+00  0.00000000000E+00  0.45593999997E+02  0.45594000000E+02  0.51100000000E-03 0.  1.
         11   -1    0    0    0    0 -0.00000000000E+00 -0.00000000000E+00 -0.45593999997E+02  0.45594000000E+02  0.51100000000E-03 0. -1.
    9900012    2    1    2    0    0  0.36047610298E+01 -0.17366138880E+02  0.36586729291E+02  0.50528857831E+02  0.29999993864E+02 0.  0.
         12    1    1    2    0    0 -0.36047610298E+01  0.17366138880E+02 -0.36586729291E+02  0.40659142169E+02  0.00000000000E+00 0. -1.
         11    1    3    3    0    0  0.16050703518E+01  0.63475042096E+00 -0.20698379541E+01  0.26950674107E+01  0.51100000000E-03 0. -1.
        -11    1    3    3    0    0  0.92150995516E+01 -0.13156086762E+02  0.12748083096E+02  0.20506445365E+02  0.51100000000E-03 0.  1.
        -12    1    3    3    0    0 -0.72154088736E+01 -0.48448025393E+01  0.25908484149E+02  0.27327345055E+02  0.00000000000E+00 0.  1.
</event>
<event>
 7    1  0.3141443E-011  0.5052886E+02  0.7816164E-02  0.1300439E+00
        -11   -1    0    0    0    0  0.00000000000E+00  0.00000000000E+00  0.45593999997E+02  0.45594000000E+02  0.51100000000E-03 0.  1.
         11   -1    0    0    0    0 -0.00000000000E+00 -0.00000000000E+00 -0.45593999997E+02  0.45594000000E+02  0.51100000000E-03 0. -1.
    9900012    2    1    2    0    0 -0.25751178902E+02  0.31018796119E+02 -0.52798350092E+01  0.50528860988E+02  0.30000003458E+02 0.  0.
         12    1    1    2    0    0  0.25751178902E+02 -0.31018796119E+02  0.52798350092E+01  0.40659139012E+02  0.00000000000E+00 0. -1.
         11    1    3    3    0    0 -0.53644147540E+01  0.40013724690E+01  0.43652987264E+01  0.79902290655E+01  0.51100000000E-03 0. -1.
        -11    1    3    3    0    0 -0.18086648053E+02  0.18994453699E+02  0.40119077134E+01  0.26533215276E+02  0.51100000000E-03 0.  1.
         12    1    3    3    0    0 -0.23001160954E+01  0.80229699509E+01 -0.13657041449E+02  0.16005416646E+02  0.00000000000E+00 0. -1.
</event>
<event>
 7    1  0.3141443E-011  0.5052885E+02  0.7816164E-02  0.1300439E+00
        -11   -1    0    0    0    0  0.00000000000E+00  0.00000000000E+00  0.45593999997E+02  0.45594000000E+02  0.51100000000E-03 0. -1.
         11   -1    0    0    0    0 -0.00000000000E+00 -0.00000000000E+00 -0.45593999997E+02  0.45594000000E+02  0.51100000000E-03 0.  1.
    9900012    2    1    2    0    0 -0.34009559104E+02 -0.35387450268E+01 -0.21999854375E+02  0.50528850731E+02  0.29999972281E+02 0.  0.
         12    1    1    2    0    0  0.34009559104E+02  0.35387450268E+01  0.21999854375E+02  0.40659149269E+02  0.00000000000E+00 0. -1.
         11    1    3    3    0    0  0.24644420999E+00 -0.53880313422E+01 -0.13383928746E+00  0.53953248011E+01  0.51100000000E-03 0. -1.
        -11    1    3    3    0    0 -0.34505948416E+01 -0.49527808310E+01 -0.94864339593E+01  0.11244068314E+02  0.51100000000E-03 0.  1.
        -12    1    3    3    0    0 -0.30805408472E+02  0.68020671463E+01 -0.12379581128E+02  0.33889457616E+02  0.00000000000E+00 0.  1.
</event>
<event>
 7    1  0.3141443E-011  0.5052886E+02  0.7816164E-02  0.1300439E+00
        -11   -1    0    0    0    0  0.00000000000E+00  0.00000000000E+00  0.45593999997E+02  0.45594000000E+02  0.51100000000E-03 0.  1.
         11   -1    0    0    0    0 -0.00000000000E+00 -0.00000000000E+00 -0.45593999997E+02  0.45594000000E+02  0.51100000000E-03 0. -1.
    9900012    2    1    2    0    0 -0.35970701537E+02 -0.31362912346E+01  0.18693251730E+02  0.50528863856E+02  0.30000012176E+02 0.  0.
         12    1    1    2    0    0  0.35970701537E+02  0.31362912346E+01 -0.18693251730E+02  0.40659136144E+02  0.00000000000E+00 0. -1.
         11    1    3    3    0    0 -0.13426116106E+02  0.33440855851E+00 -0.26529330024E+01  0.13689794613E+02  0.51100000000E-03 0. -1.
        -11    1    3    3    0    0 -0.73956989835E+01  0.80892650226E+01  0.82063879362E+01  0.13692237775E+02  0.51100000000E-03 0.  1.
         12    1    3    3    0    0 -0.15148886447E+02 -0.11559964816E+02  0.13139796796E+02  0.23146831467E+02  0.00000000000E+00 0. -1.
</event>
<event>
 7    1  0.3141443E-011  0.5052886E+02  0.7816164E-02  0.1300439E+00
        -11   -1    0    0    0    0  0.00000000000E+00  0.00000000000E+00  0.45593999997E+02  0.45594000000E+02  0.51100000000E-03 0.  1.
         11   -1    0    0    0    0 -0.00000000000E+00 -0.00000000000E+00 -0.45593999997E+02  0.45594000000E+02  0.51100000000E-03 0. -1.
    9900012    2    1    2    0    0  0.18190384754E+02 -0.13219073866E+02  0.33875232951E+02  0.50528863033E+02  0.30000009675E+02 0.  0.
         12    1    1    2    0    0 -0.18190384754E+02  0.13219073866E+02 -0.33875232951E+02  0.40659136967E+02  0.00000000000E+00 0. -1.
         11    1    3    3    0    0  0.57668739879E+01 -0.27987139869E+00  0.61920710626E+01  0.84662215833E+01  0.51100000000E-03 0.  1.
        -11    1    3    3    0    0  0.13926522814E+01 -0.12967166441E+02  0.28147407119E+02  0.31021982749E+02  0.51100000000E-03 0. -1.
         12    1    3    3    0    0  0.11030858485E+02  0.27963973825E-01 -0.46424523028E+00  0.11040658700E+02  0.00000000000E+00 0. -1.
</event>
<event>
 7    1  0.3141443E-011  0.5052884E+02  0.7816164E-02  0.1300439E+00
        -11   -1    0    0    0    0  0.00000000000E+00  0.00000000000E+00  0.45593999997E+02  0.45594000000E+02  0.51100000000E-03 0.  1.
         11   -1    0    0    0    0 -0.00000000000E+00 -0.00000000000E+00 -0.45593999997E+02  0.45594000000E+02  0.51100000000E-03 0. -1.
    9900012    2    1    2    0    0  0.81459584635E+01 -0.39234760600E+02  0.68879986454E+01  0.50528836162E+02  0.29999927998E+02 0.  0.
         12    1    1    2    0    0 -0.81459584635E+01  0.39234760600E+02 -0.68879986454E+01  0.40659163838E+02  0.00000000000E+00 0. -1.
         11    1    3    3    0    0  0.67686379240E+01 -0.31199803446E+01  0.42539409930E+01  0.85816519931E+01  0.51100000000E-03 0. -1.
        -11    1    3    3    0    0  0.64746503848E+01 -0.35785544362E+02  0.39157329995E+00  0.36368662510E+02  0.51100000000E-03 0.  1.
         12    1    3    3    0    0 -0.50973298453E+01 -0.32923589391E+00  0.22424843524E+01  0.55785216587E+01  0.00000000000E+00 0. -1.
</event>
<event>
 7    1  0.4712922E-011  0.5052882E+02  0.7816164E-02  0.1300439E+00
        -11   -1    0    0    0    0  0.00000000000E+00  0.00000000000E+00  0.45593999997E+02  0.45594000000E+02  0.51100000000E-03 0.  1.
         11   -1    0    0    0    0 -0.00000000000E+00 -0.00000000000E+00 -0.45593999997E+02  0.45594000000E+02  0.51100000000E-03 0. -1.
    9900012    2    1    2    0    0 -0.38594561865E+02  0.12770036057E+02 -0.74490811533E+00  0.50528820046E+02  0.29999879010E+02 0.  0.
         12    1    1    2    0    0  0.38594561865E+02 -0.12770036057E+02  0.74490811533E+00  0.40659179954E+02  0.00000000000E+00 0. -1.
         11    1    3    3    0    0  0.11505065744E+01 -0.21155256347E+01  0.40636552616E+01  0.47236012146E+01  0.51100000000E-03 0. -1.
        -11    1    3    3    0    0 -0.10963039432E+02 -0.33657771677E+01 -0.14397466839E+01  0.11558095011E+02  0.51100000000E-03 0.  1.
        -12    1    3    3    0    0 -0.28782029008E+02  0.18251338860E+02 -0.33688166930E+01  0.34247123819E+02  0.00000000000E+00 0.  1.
</event>
<event>
 7    1  0.3141443E-011  0.5052886E+02  0.7816164E-02  0.1300439E+00
        -11   -1    0    0    0    0  0.00000000000E+00  0.00000000000E+00  0.45593999997E+02  0.45594000000E+02  0.51100000000E-03 0. -1.
         11   -1    0    0    0    0 -0.00000000000E+00 -0.00000000000E+00 -0.45593999997E+02  0.45594000000E+02  0.51100000000E-03 0.  1.
    9900012    2    1    2    0    0  0.21802583736E+02 -0.17163879532E+02 -0.29718918079E+02  0.50528861913E+02  0.30000006271E+02 0.  0.
         12    1    1    2    0    0 -0.21802583736E+02  0.17163879532E+02  0.29718918079E+02  0.40659138087E+02  0.00000000000E+00 0. -1.
         11    1    3    3    0    0  0.13050681515E+02 -0.94950666287E+01 -0.69995250898E+01  0.17591757446E+02  0.51100000000E-03 0. -1.
        -11    1    3    3    0    0  0.15190295319E+02 -0.65882608299E+01 -0.19729383032E+02  0.25756529420E+02  0.51100000000E-03 0.  1.
        -12    1    3    3    0    0 -0.64383930981E+01 -0.10805520738E+01 -0.29900099574E+01  0.71805750477E+01  0.00000000000E+00 0.  1.
</event>
<event>
 7    1  0.3141443E-011  0.5052885E+02  0.7816164E-02  0.1300439E+00
        -11   -1    0    0    0    0  0.00000000000E+00  0.00000000000E+00  0.45593999997E+02  0.45594000000E+02  0.51100000000E-03 0.  1.
         11   -1    0    0    0    0 -0.00000000000E+00 -0.00000000000E+00 -0.45593999997E+02  0.45594000000E+02  0.51100000000E-03 0. -1.
    9900012    2    1    2    0    0  0.30041205839E+02  0.17542711155E+02  0.21046273578E+02  0.50528851036E+02  0.29999973208E+02 0.  0.
         12    1    1    2    0    0 -0.30041205839E+02 -0.17542711155E+02 -0.21046273578E+02  0.40659148964E+02  0.00000000000E+00 0. -1.
         11    1    3    3    0    0  0.18866861803E+02  0.12627515648E+02  0.21364476329E+02  0.31174564549E+02  0.51100000000E-03 0. -1.
        -11    1    3    3    0    0  0.14374908240E+02  0.61666110206E+01  0.99979322143E+00  0.15673693411E+02  0.51100000000E-03 0.  1.
         12    1    3    3    0    0 -0.32005642036E+01 -0.12514155130E+01 -0.13179959728E+01  0.36805930761E+01  0.00000000000E+00 0. -1.
</event>
<event>
 7    1  0.3141443E-011  0.5052886E+02  0.7816164E-02  0.1300439E+00
        -11   -1    0    0    0    0  0.00000000000E+00  0.00000000000E+00  0.45593999997E+02  0.45594000000E+02  0.51100000000E-03 0.  1.
         11   -1    0    0    0    0 -0.00000000000E+00 -0.00000000000E+00 -0.45593999997E+02  0.45594000000E+02  0.51100000000E-03 0. -1.
    9900012    2    1    2    0    0 -0.51227613036E+01  0.28233824614E+02  0.28805801335E+02  0.50528859253E+02  0.29999998187E+02 0.  0.
         12    1    1    2    0    0  0.51227613036E+01 -0.28233824614E+02 -0.28805801335E+02  0.40659140747E+02  0.00000000000E+00 0. -1.
         11    1    3    3    0    0 -0.92042296010E+01  0.40583801354E+01  0.27764353253E+01  0.10435367039E+02  0.51100000000E-03 0. -1.
        -11    1    3    3    0    0 -0.98385236878E+00  0.17027632495E+02  0.57440672567E+01  0.17997292651E+02  0.51100000000E-03 0.  1.
        -12    1    3    3    0    0  0.50653206662E+01  0.71478119833E+01  0.20285298753E+02  0.22096199563E+02  0.00000000000E+00 0.  1.
</event>
<event>
 7    1  0.3141443E-011  0.5052886E+02  0.7816164E-02  0.1300439E+00
        -11   -1    0    0    0    0  0.00000000000E+00  0.00000000000E+00  0.45593999997E+02  0.45594000000E+02  0.51100000000E-03 0.  1.
         11   -1    0    0    0    0 -0.00000000000E+00 -0.00000000000E+00 -0.45593999997E+02  0.45594000000E+02  0.51100000000E-03 0. -1.
    9900012    2    1    2    0    0  0.34087422583E+02 -0.19469147925E+02  0.10590839073E+02  0.50528856237E+02  0.29999989017E+02 0.  0.
         12    1    1    2    0    0 -0.34087422583E+02  0.19469147925E+02 -0.10590839073E+02  0.40659143763E+02  0.00000000000E+00 0. -1.
         11    1    3    3    0    0  0.19751526742E+02 -0.11333804076E+02 -0.77821141047E+00  0.22785599328E+02  0.51100000000E-03 0. -1.
        -11    1    3    3    0    0  0.18696623709E+02 -0.45976325031E+01  0.10859285916E+02  0.22104887551E+02  0.51100000000E-03 0.  1.
         12    1    3    3    0    0 -0.43607278679E+01 -0.35377113454E+01  0.50976456773E+00  0.56383693578E+01  0.00000000000E+00 0. -1.
</event>
<event>
 7    1  0.3141443E-011  0.5052887E+02  0.7816164E-02  0.1300439E+00
        -11   -1    0    0    0    0  0.00000000000E+00  0.00000000000E+00  0.45593999997E+02  0.45594000000E+02  0.51100000000E-03 0.  1.
         11   -1    0    0    0    0 -0.00000000000E+00 -0.00000000000E+00 -0.45593999997E+02  0.45594000000E+02  0.51100000000E-03 0. -1.
    9900012    2    1    2    0    0 -0.14099746572E+02  0.30514330007E+02  0.22874396209E+02  0.50528865834E+02  0.30000018189E+02 0.  0.
         12    1    1    2    0    0  0.14099746572E+02 -0.30514330007E+02 -0.22874396209E+02  0.40659134166E+02  0.00000000000E+00 0. -1.
         11    1    3    3    0    0  0.47668767647E+01  0.98458296711E+01  0.10774651203E+02  0.15354366962E+02  0.51100000000E-03 0. -1.
        -11    1    3    3    0    0 -0.73120365173E+01 -0.45311520022E+00 -0.15650004239E+01  0.74913562192E+01  0.51100000000E-03 0.  1.
        -12    1    3    3    0    0 -0.11554586819E+02  0.21121615536E+02  0.13664745430E+02  0.27683142652E+02  0.00000000000E+00 0.  1.
</event>
<event>
 7    1  0.3141443E-011  0.5052886E+02  0.7816164E-02  0.1300439E+00
        -11   -1    0    0    0    0  0.00000000000E+00  0.00000000000E+00  0.45593999997E+02  0.45594000000E+02  0.51100000000E-03 0. -1.
         11   -1    0    0    0    0 -0.00000000000E+00 -0.00000000000E+00 -0.45593999997E+02  0.45594000000E+02  0.51100000000E-03 0.  1.
    9900012    2    1    2    0    0  0.40015020188E+02 -0.22546554555E+01 -0.68469135305E+01  0.50528861584E+02  0.30000005270E+02 0.  0.
         12    1    1    2    0    0 -0.40015020188E+02  0.22546554555E+01  0.68469135305E+01  0.40659138416E+02  0.00000000000E+00 0. -1.
         11    1    3    3    0    0  0.22757444112E+01 -0.40595724092E+01 -0.45985592288E+01  0.65426208825E+01  0.51100000000E-03 0. -1.
        -11    1    3    3    0    0  0.27082909932E+02 -0.90939239896E+01 -0.29929277285E+01  0.28725269025E+02  0.51100000000E-03 0.  1.
        -12    1    3    3    0    0  0.10656365845E+02  0.10898840943E+02  0.74457342678E+00  0.15260971677E+02  0.00000000000E+00 0.  1.
</event>
<event>
 7    1  0.3632233E-011  0.5052886E+02  0.7816164E-02  0.1300439E+00
        -11   -1    0    0    0    0  0.00000000000E+00  0.00000000000E+00  0.45593999997E+02  0.45594000000E+02  0.51100000000E-03 0. -1.
         11   -1    0    0    0    0 -0.00000000000E+00 -0.00000000000E+00 -0.45593999997E+02  0.45594000000E+02  0.51100000000E-03 0.  1.
    9900012    2    1    2    0    0  0.29953980139E+02  0.26325010234E+02  0.79321138071E+01  0.50528861796E+02  0.30000005916E+02 0.  0.
         12    1    1    2    0    0 -0.29953980139E+02 -0.26325010234E+02 -0.79321138071E+01  0.40659138204E+02  0.00000000000E+00 0. -1.
         11    1    3    3    0    0  0.33254004660E+00 -0.29985543616E+01  0.10507728716E+01  0.31946885655E+01  0.51100000000E-03 0. -1.
        -11    1    3    3    0    0  0.20956807411E+02  0.13999138852E+02  0.13422393399E+02  0.28553884329E+02  0.51100000000E-03 0.  1.
        -12    1    3    3    0    0  0.86646326820E+01  0.15324425744E+02 -0.65410524636E+01  0.18780288902E+02  0.00000000000E+00 0.  1.
</event>
<event>
 7    1  0.3141443E-011  0.5052885E+02  0.7816164E-02  0.1300439E+00
        -11   -1    0    0    0    0  0.00000000000E+00  0.00000000000E+00  0.45593999997E+02  0.45594000000E+02  0.51100000000E-03 0. -1.
         11   -1    0    0    0    0 -0.00000000000E+00 -0.00000000000E+00 -0.45593999997E+02  0.45594000000E+02  0.51100000000E-03 0.  1.
    9900012    2    1    2    0    0  0.21156224771E+02 -0.69483266306E+01 -0.34019127626E+02  0.50528854240E+02  0.29999982948E+02 0.  0.
         12    1    1    2    0    0 -0.21156224771E+02  0.69483266306E+01  0.34019127626E+02  0.40659145760E+02  0.00000000000E+00 0. -1.
         11    1    3    3    0    0  0.13518195405E+02  0.59384703824E+01 -0.29936955160E+02  0.33380058748E+02  0.51100000000E-03 0. -1.
        -11    1    3    3    0    0  0.47280275247E+01 -0.26432465814E+01 -0.35705000547E+01  0.64876396067E+01  0.51100000000E-03 0.  1.
         12    1    3    3    0    0  0.29100018408E+01 -0.10243550432E+02 -0.51167241098E+00  0.10661155886E+02  0.00000000000E+00 0. -1.
</event>
<event>
 7    1  0.3141443E-011  0.5052885E+02  0.7816164E-02  0.1300439E+00
        -11   -1    0    0    0    0  0.00000000000E+00  0.00000000000E+00  0.45593999997E+02  0.45594000000E+02  0.51100000000E-03 0. -1.
         11   -1    0    0    0    0 -0.00000000000E+00 -0.00000000000E+00 -0.45593999997E+02  0.45594000000E+02  0.51100000000E-03 0.  1.
    9900012    2    1    2    0    0  0.39989233712E+02 -0.68823040044E+01  0.25809467851E+01  0.50528853334E+02  0.29999980194E+02 0.  0.
         12    1    1    2    0    0 -0.39989233712E+02  0.68823040044E+01 -0.25809467851E+01  0.40659146666E+02  0.00000000000E+00 0. -1.
         11    1    3    3    0    0  0.24054080833E+02  0.26594578042E+01 -0.42999667987E+01  0.24579691521E+02  0.51100000000E-03 0. -1.
        -11    1    3    3    0    0  0.13406145861E+02 -0.11645501557E+02 -0.60936714464E+00  0.17768336499E+02  0.51100000000E-03 0.  1.
         12    1    3    3    0    0  0.25290070188E+01  0.21037397488E+01  0.74902807284E+01  0.81808253142E+01  0.00000000000E+00 0. -1.
</event>
<event>
 7    1  0.4377151E-011  0.5052885E+02  0.7816164E-02  0.1300439E+00
        -11   -1    0    0    0    0  0.00000000000E+00  0.00000000000E+00  0.45593999997E+02  0.45594000000E+02  0.51100000000E-03 0.  1.
         11   -1    0    0    0    0 -0.00000000000E+00 -0.00000000000E+00 -0.45593999997E+02  0.45594000000E+02  0.51100000000E-03 0. -1.
    9900012    2    1    2    0    0 -0.21607990612E+02  0.29800904630E+02  0.17267517580E+02  0.50528851725E+02  0.29999975303E+02 0.  0.
         12    1    1    2    0    0  0.21607990612E+02 -0.29800904630E+02 -0.17267517580E+02  0.40659148275E+02  0.00000000000E+00 0. -1.
         11    1    3    3    0    0 -0.69655560878E+00  0.21212946050E+01 -0.49042808796E+01  0.53886038753E+01  0.51100000000E-03 0. -1.
        -11    1    3    3    0    0  0.17891741246E+00  0.33168332243E+01  0.10262232866E+02  0.10786418207E+02  0.51100000000E-03 0.  1.
        -12    1    3    3    0    0 -0.21090352416E+02  0.24362776801E+02  0.11909565594E+02  0.34353829643E+02  0.00000000000E+00 0.  1.
</event>
<event>
 7    1  0.3141444E-011  0.5052884E+02  0.7816164E-02  0.1300439E+00
        -11   -1    0    0    0    0  0.00000000000E+00  0.00000000000E+00  0.45593999997E+02  0.45594000000E+02  0.51100000000E-03 0. -1.
         11   -1    0    0    0    0 -0.00000000000E+00 -0.00000000000E+00 -0.45593999997E+02  0.45594000000E+02  0.51100000000E-03 0.  1.
    9900012    2    1    2    0    0  0.32494626742E+02 -0.20979086564E+02 -0.12535734852E+02  0.50528837584E+02  0.29999932319E+02 0.  0.
         12    1    1    2    0    0 -0.32494626742E+02  0.20979086564E+02  0.12535734852E+02  0.40659162416E+02  0.00000000000E+00 0. -1.
         11    1    3    3    0    0  0.82870437651E+01 -0.77142482089E+01  0.35831380060E+00  0.11327537633E+02  0.51100000000E-03 0. -1.
        -11    1    3    3    0    0  0.22324472368E+02 -0.16843133417E+02 -0.17564221131E+02  0.33023856135E+02  0.51100000000E-03 0.  1.
         12    1    3    3    0    0  0.18831106089E+01  0.35782950623E+01  0.46701724784E+01  0.61774438157E+01  0.00000000000E+00 0. -1.
</event>
<event>
 7    1  0.3141443E-011  0.5052886E+02  0.7816164E-02  0.1300439E+00
        -11   -1    0    0    0    0  0.00000000000E+00  0.00000000000E+00  0.45593999997E+02  0.45594000000E+02  0.51100000000E-03 0. -1.
         11   -1    0    0    0    0 -0.00000000000E+00 -0.00000000000E+00 -0.45593999997E+02  0.45594000000E+02  0.51100000000E-03 0.  1.
    9900012    2    1    2    0    0 -0.36746971473E+02 -0.53138749988E+01 -0.16570720864E+02  0.50528856257E+02  0.29999989078E+02 0.  0.
         12    1    1    2    0    0  0.36746971473E+02  0.53138749988E+01  0.16570720864E+02  0.40659143743E+02  0.00000000000E+00 0. -1.
         11    1    3    3    0    0 -0.85272948698E+01  0.21598771215E+01  0.31803591878E+01  0.93538501058E+01  0.51100000000E-03 0. -1.
        -11    1    3    3    0    0 -0.23686985989E+02  0.22090140720E+01 -0.75644995066E+01  0.24963467337E+02  0.51100000000E-03 0.  1.
         12    1    3    3    0    0 -0.45326906144E+01 -0.96827661924E+01 -0.12186580545E+02  0.16211538814E+02  0.00000000000E+00 0. -1.
</event>
<event>
 7    1  0.3141443E-011  0.5052884E+02  0.7816164E-02  0.1300439E+00
        -11   -1    0    0    0    0  0.00000000000E+00  0.00000000000E+00  0.45593999997E+02  0.45594000000E+02  0.51100000000E-03 0. -1.
         11   -1    0    0    0    0 -0.00000000000E+00 -0.00000000000E+00 -0.45593999997E+02  0.45594000000E+02  0.51100000000E-03 0.  1.
    9900012    2    1    2    0    0 -0.37184008307E+02  0.16447395473E+02  0.19750020625E-01  0.50528835207E+02  0.29999925095E+02 0.  0.
         12    1    1    2    0    0  0.37184008307E+02 -0.16447395473E+02 -0.19750020625E-01  0.40659164793E+02  0.00000000000E+00 0. -1.
         11    1    3    3    0    0 -0.18786801947E+01  0.10071338081E+01  0.62025357910E+00  0.22200163389E+01  0.51100000000E-03 0. -1.
        -11    1    3    3    0    0 -0.13390482572E+01 -0.57263210790E+01 -0.54206455517E+01  0.79979498494E+01  0.51100000000E-03 0.  1.
        -12    1    3    3    0    0 -0.33966279855E+02  0.21166582744E+02  0.48201419932E+01  0.40310869019E+02  0.00000000000E+00 0.  1.
</event>
<event>
 7    1  0.3141443E-011  0.5052890E+02  0.7816164E-02  0.1300439E+00
        -11   -1    0    0    0    0  0.00000000000E+00  0.00000000000E+00  0.45593999997E+02  0.45594000000E+02  0.51100000000E-03 0. -1.
         11   -1    0    0    0    0 -0.00000000000E+00 -0.00000000000E+00 -0.45593999997E+02  0.45594000000E+02  0.51100000000E-03 0.  1.
    9900012    2    1    2    0    0 -0.37097366692E+02 -0.88059756083E+01 -0.14121008196E+02  0.50528896538E+02  0.30000111516E+02 0.  0.
         12    1    1    2    0    0  0.37097366692E+02  0.88059756083E+01  0.14121008196E+02  0.40659103462E+02  0.00000000000E+00 0. -1.
         11    1    3    3    0    0 -0.13727464974E+02  0.62605404657E+01 -0.83113117564E+01  0.17225433664E+02  0.51100000000E-03 0.  1.
        -11    1    3    3    0    0 -0.59448323207E+01  0.48005348336E-01  0.50571719768E+01  0.78050191863E+01  0.51100000000E-03 0. -1.
         12    1    3    3    0    0 -0.17425069397E+02 -0.15114521422E+02 -0.10866868416E+02  0.25498443687E+02  0.00000000000E+00 0. -1.
</event>
<event>
 7    1  0.3141443E-011  0.5052885E+02  0.7816164E-02  0.1300439E+00
        -11   -1    0    0    0    0  0.00000000000E+00  0.00000000000E+00  0.45593999997E+02  0.45594000000E+02  0.51100000000E-03 0.  1.
         11   -1    0    0    0    0 -0.00000000000E+00 -0.00000000000E+00 -0.45593999997E+02  0.45594000000E+02  0.51100000000E-03 0. -1.
    9900012    2    1    2    0    0 -0.12552211135E+02  0.17395278095E+02  0.34540018801E+02  0.50528848470E+02  0.29999965408E+02 0.  0.
         12    1    1    2    0    0  0.12552211135E+02 -0.17395278095E+02 -0.34540018801E+02  0.40659151530E+02  0.00000000000E+00 0. -1.
         11    1    3    3    0    0 -0.24626705576E+01  0.19530057655E+02  0.15197545969E+02  0.24868721358E+02  0.51100000000E-03 0.  1.
        -11    1    3    3    0    0 -0.44341228508E+01  0.93865738151E+00 -0.72108302424E+00  0.45893882081E+01  0.51100000000E-03 0. -1.
        -12    1    3    3    0    0 -0.56554177270E+01 -0.30734369413E+01  0.20063555857E+02  0.21070738903E+02  0.00000000000E+00 0.  1.
</event>
<event>
 7    1  0.3141443E-011  0.5052885E+02  0.7816164E-02  0.1300439E+00
        -11   -1    0    0    0    0  0.00000000000E+00  0.00000000000E+00  0.45593999997E+02  0.45594000000E+02  0.51100000000E-03 0.  1.
         11   -1    0    0    0    0 -0.00000000000E+00 -0.00000000000E+00 -0.45593999997E+02  0.45594000000E+02  0.51100000000E-03 0. -1.
    9900012    2    1    2    0    0  0.24968243004E+02 -0.31891029612E+02 -0.35658566649E+01  0.50528852663E+02  0.29999978153E+02 0.  0.
         12    1    1    2    0    0 -0.24968243004E+02  0.31891029612E+02  0.35658566649E+01  0.40659147337E+02  0.00000000000E+00 0. -1.
         11    1    3    3    0    0  0.19621826871E+01 -0.88253890722E+01 -0.90085542355E+01  0.12762903386E+02  0.51100000000E-03 0. -1.
        -11    1    3    3    0    0  0.15607200477E+02 -0.14230036556E+02 -0.55520479804E+01  0.21838129136E+02  0.51100000000E-03 0.  1.
        -12    1    3    3    0    0  0.73988598396E+01 -0.88356039842E+01  0.10994745551E+02  0.15927820140E+02  0.00000000000E+00 0.  1.
</event>
<event>
 7    1  0.3141443E-011  0.5052886E+02  0.7816164E-02  0.1300439E+00
        -11   -1    0    0    0    0  0.00000000000E+00  0.00000000000E+00  0.45593999997E+02  0.45594000000E+02  0.51100000000E-03 0.  1.
         11   -1    0    0    0    0 -0.00000000000E+00 -0.00000000000E+00 -0.45593999997E+02  0.45594000000E+02  0.51100000000E-03 0. -1.
    9900012    2    1    2    0    0 -0.32183710868E+02  0.24540409246E+02  0.38913477203E+01  0.50528861811E+02  0.30000005961E+02 0.  0.
         12    1    1    2    0    0  0.32183710868E+02 -0.24540409246E+02 -0.38913477203E+01  0.40659138189E+02  0.00000000000E+00 0. -1.
         11    1    3    3    0    0 -0.15084881733E+02  0.15560702461E+02 -0.13272478368E+01  0.21712915628E+02  0.51100000000E-03 0. -1.
        -11    1    3    3    0    0 -0.21663192389E+02  0.93740371356E+01  0.54621371948E+01  0.24228112177E+02  0.51100000000E-03 0.  1.
         12    1    3    3    0    0  0.45643632536E+01 -0.39433035075E+00 -0.24354163773E+00  0.45878340059E+01  0.00000000000E+00 0. -1.
</event>
<event>
 7    1  0.3141443E-011  0.5052887E+02  0.7816164E-02  0.1300439E+00
        -11   -1    0    0    0    0  0.00000000000E+00  0.00000000000E+00  0.45593999997E+02  0.45594000000E+02  0.51100000000E-03 0.  1.
         11   -1    0    0    0    0 -0.00000000000E+00 -0.00000000000E+00 -0.45593999997E+02  0.45594000000E+02  0.51100000000E-03 0. -1.
    9900012    2    1    2    0    0 -0.28825011413E+00  0.25072242822E+02  0.32007257121E+02  0.50528868717E+02  0.30000026952E+02 0.  0.
         12    1    1    2    0    0  0.28825011413E+00 -0.25072242822E+02 -0.32007257121E+02  0.40659131283E+02  0.00000000000E+00 0. -1.
         11    1    3    3    0    0 -0.15508071194E+01  0.23673777168E+01 -0.35927572088E+01  0.45735527326E+01  0.51100000000E-03 0. -1.
        -11    1    3    3    0    0  0.40462815629E+01  0.13872970745E+02  0.73228424018E+01  0.16200485575E+02  0.51100000000E-03 0.  1.
         12    1    3    3    0    0 -0.27837245577E+01  0.88318943609E+01  0.28277171928E+02  0.29754830409E+02  0.00000000000E+00 0. -1.
</event>
<event>
 7    1  0.3141443E-011  0.5052885E+02  0.7816164E-02  0.1300439E+00
        -11   -1    0    0    0    0  0.00000000000E+00  0.00000000000E+00  0.45593999997E+02  0.45594000000E+02  0.51100000000E-03 0.  1.
         11   -1    0    0    0    0 -0.00000000000E+00 -0.00000000000E+00 -0.45593999997E+02  0.45594000000E+02  0.51100000000E-03 0. -1.
    9900012    2    1    2    0    0 -0.32203860216E+02  0.24806772962E+02  0.83768689329E+00  0.50528851990E+02  0.29999976108E+02 0.  0.
         12    1    1    2    0    0  0.32203860216E+02 -0.24806772962E+02 -0.83768689329E+00  0.40659148010E+02  0.00000000000E+00 0. -1.
         11    1    3    3    0    0 -0.10586932230E+02  0.16493879177E+01  0.68986047566E+01  0.12743404663E+02  0.51100000000E-03 0. -1.
        -11    1    3    3    0    0 -0.14721931740E+02  0.15865782829E+02  0.56438087246E+01  0.22367630990E+02  0.51100000000E-03 0.  1.
         12    1    3    3    0    0 -0.68949962456E+01  0.72916022152E+01 -0.11704726588E+02  0.15417816337E+02  0.00000000000E+00 0. -1.
</event>
<event>
 7    1  0.3141443E-011  0.5052886E+02  0.7816164E-02  0.1300439E+00
        -11   -1    0    0    0    0  0.00000000000E+00  0.00000000000E+00  0.45593999997E+02  0.45594000000E+02  0.51100000000E-03 0. -1.
         11   -1    0    0    0    0 -0.00000000000E+00 -0.00000000000E+00 -0.45593999997E+02  0.45594000000E+02  0.51100000000E-03 0.  1.
    9900012    2    1    2    0    0 -0.16657747844E+02 -0.35323690720E+02  0.11310257973E+02  0.50528860502E+02  0.30000001982E+02 0.  0.
         12    1    1    2    0    0  0.16657747844E+02  0.35323690720E+02 -0.11310257973E+02  0.40659139498E+02  0.00000000000E+00 0. -1.
         11    1    3    3    0    0  0.44919299454E+01 -0.56414706628E+01  0.83708807591E+00  0.72597756564E+01  0.51100000000E-03 0. -1.
        -11    1    3    3    0    0 -0.18871109966E+02 -0.30961597637E+02  0.42351490745E+01  0.36505832514E+02  0.51100000000E-03 0.  1.
        -12    1    3    3    0    0 -0.22785678236E+01  0.12793775803E+01  0.62380208225E+01  0.67632523317E+01  0.00000000000E+00 0.  1.
</event>
<event>
 7    1  0.3141443E-011  0.5052886E+02  0.7816164E-02  0.1300439E+00
        -11   -1    0    0    0    0  0.00000000000E+00  0.00000000000E+00  0.45593999997E+02  0.45594000000E+02  0.51100000000E-03 0. -1.
         11   -1    0    0    0    0 -0.00000000000E+00 -0.00000000000E+00 -0.45593999997E+02  0.45594000000E+02  0.51100000000E-03 0.  1.
    9900012    2    1    2    0    0  0.34279684909E+02 -0.33670115005E+01 -0.21603976979E+02  0.50528863448E+02  0.30000010936E+02 0.  0.
         12    1    1    2    0    0 -0.34279684909E+02  0.33670115005E+01  0.21603976979E+02  0.40659136552E+02  0.00000000000E+00 0. -1.
         11    1    3    3    0    0  0.12011148742E+02 -0.89060357030E+01  0.17272415195E+01  0.15052193514E+02  0.51100000000E-03 0. -1.
        -11    1    3    3    0    0 -0.23365511238E+00  0.36005419294E+01 -0.10676807732E+01  0.37627701752E+01  0.51100000000E-03 0.  1.
        -12    1    3    3    0    0  0.22502191279E+02  0.19384822731E+01 -0.22263537725E+02  0.31713899759E+02  0.00000000000E+00 0.  1.
</event>
<event>
 7    1  0.3141443E-011  0.5052888E+02  0.7816164E-02  0.1300439E+00
        -11   -1    0    0    0    0  0.00000000000E+00  0.00000000000E+00  0.45593999997E+02  0.45594000000E+02  0.51100000000E-03 0.  1.
         11   -1    0    0    0    0 -0.00000000000E+00 -0.00000000000E+00 -0.45593999997E+02  0.45594000000E+02  0.51100000000E-03 0. -1.
    9900012    2    1    2    0    0 -0.18429287886E+02  0.18107879048E+02  0.31394741477E+02  0.50528883827E+02  0.30000072881E+02 0.  0.
         12    1    1    2    0    0  0.18429287886E+02 -0.18107879048E+02 -0.31394741477E+02  0.40659116173E+02  0.00000000000E+00 0. -1.
         11    1    3    3    0    0 -0.97970919435E+01  0.14882950275E+02  0.44383047958E+01  0.18362564341E+02  0.51100000000E-03 0.  1.
        -11    1    3    3    0    0 -0.95128406410E+01 -0.10733112828E+01  0.73346639860E+01  0.12059992961E+02  0.51100000000E-03 0. -1.
        -12    1    3    3    0    0  0.88064469880E+00  0.42982400556E+01  0.19621772695E+02  0.20106326525E+02  0.00000000000E+00 0.  1.
</event>
<event>
 7    1  0.3141443E-011  0.5052886E+02  0.7816164E-02  0.1300439E+00
        -11   -1    0    0    0    0  0.00000000000E+00  0.00000000000E+00  0.45593999997E+02  0.45594000000E+02  0.51100000000E-03 0.  1.
         11   -1    0    0    0    0 -0.00000000000E+00 -0.00000000000E+00 -0.45593999997E+02  0.45594000000E+02  0.51100000000E-03 0. -1.
    9900012    2    1    2    0    0  0.28617003494E+02 -0.15698450771E+02  0.24244412073E+02  0.50528858809E+02  0.29999996836E+02 0.  0.
         12    1    1    2    0    0 -0.28617003494E+02  0.15698450771E+02 -0.24244412073E+02  0.40659141191E+02  0.00000000000E+00 0. -1.
         11    1    3    3    0    0 -0.11467638905E+01  0.43928154407E+00  0.82659614324E+01  0.83566832151E+01  0.51100000000E-03 0. -1.
        -11    1    3    3    0    0  0.47565084528E+01 -0.12712466984E+02  0.77183371830E+01  0.15614221678E+02  0.51100000000E-03 0.  1.
        -12    1    3    3    0    0  0.25007258932E+02 -0.34252653311E+01  0.82601134580E+01  0.26557953916E+02  0.00000000000E+00 0.  1.
</event>
<event>
 7    1  0.3141443E-011  0.5052887E+02  0.7816164E-02  0.1300439E+00
        -11   -1    0    0    0    0  0.00000000000E+00  0.00000000000E+00  0.45593999997E+02  0.45594000000E+02  0.51100000000E-03 0. -1.
         11   -1    0    0    0    0 -0.00000000000E+00 -0.00000000000E+00 -0.45593999997E+02  0.45594000000E+02  0.51100000000E-03 0.  1.
    9900012    2    1    2    0    0  0.33054985981E+02  0.38272304975E+01 -0.23364191862E+02  0.50528865074E+02  0.30000015880E+02 0.  0.
         12    1    1    2    0    0 -0.33054985981E+02 -0.38272304975E+01  0.23364191862E+02  0.40659134926E+02  0.00000000000E+00 0. -1.
         11    1    3    3    0    0  0.35477673608E+00  0.62768713525E+01  0.73264970352E+00  0.63294357061E+01  0.51100000000E-03 0. -1.
        -11    1    3    3    0    0  0.17998996288E+02 -0.52059101060E+01 -0.40195361427E+01  0.19163038342E+02  0.51100000000E-03 0.  1.
         12    1    3    3    0    0  0.14701212957E+02  0.27562692510E+01 -0.20077305423E+02  0.25036391027E+02  0.00000000000E+00 0. -1.
</event>
<event>
 7    1  0.3141443E-011  0.5052893E+02  0.7816164E-02  0.1300439E+00
        -11   -1    0    0    0    0  0.00000000000E+00  0.00000000000E+00  0.45593999997E+02  0.45594000000E+02  0.51100000000E-03 0.  1.
         11   -1    0    0    0    0 -0.00000000000E+00 -0.00000000000E+00 -0.45593999997E+02  0.45594000000E+02  0.51100000000E-03 0. -1.
    9900012    2    1    2    0    0 -0.80897571344E+01 -0.41056253523E-01  0.39846130731E+02  0.50528929790E+02  0.30000212588E+02 0.  0.
         12    1    1    2    0    0  0.80897571344E+01  0.41056253523E-01 -0.39846130731E+02  0.40659070210E+02  0.00000000000E+00 0. -1.
         11    1    3    3    0    0 -0.66200816111E+01  0.80740896298E+01  0.44402045249E+01  0.11346004599E+02  0.51100000000E-03 0. -1.
        -11    1    3    3    0    0  0.20367756064E+01  0.25520210562E+01  0.19147324471E+02  0.19423730357E+02  0.51100000000E-03 0.  1.
        -12    1    3    3    0    0 -0.35064511297E+01 -0.10667166939E+02  0.16258601736E+02  0.19759194833E+02  0.00000000000E+00 0.  1.
</event>
<event>
 7    1  0.3141443E-011  0.5052886E+02  0.7816164E-02  0.1300439E+00
        -11   -1    0    0    0    0  0.00000000000E+00  0.00000000000E+00  0.45593999997E+02  0.45594000000E+02  0.51100000000E-03 0. -1.
         11   -1    0    0    0    0 -0.00000000000E+00 -0.00000000000E+00 -0.45593999997E+02  0.45594000000E+02  0.51100000000E-03 0.  1.
    9900012    2    1    2    0    0  0.14250046492E+02 -0.21456206590E+02  0.31460017214E+02  0.50528864380E+02  0.30000013769E+02 0.  0.
         12    1    1    2    0    0 -0.14250046492E+02  0.21456206590E+02 -0.31460017214E+02  0.40659135620E+02  0.00000000000E+00 0. -1.
         11    1    3    3    0    0  0.42475819956E+00 -0.37585089514E+01 -0.23140152802E+01  0.44341262999E+01  0.51100000000E-03 0. -1.
        -11    1    3    3    0    0  0.86381468823E+01  0.28589962162E+01  0.50896594246E+01  0.10425740945E+02  0.51100000000E-03 0.  1.
         12    1    3    3    0    0  0.51871414100E+01 -0.20556693855E+02  0.28684373069E+02  0.35668997135E+02  0.00000000000E+00 0. -1.
</event>
<event>
 7    1  0.3141443E-011  0.5052889E+02  0.7816164E-02  0.1300439E+00
        -11   -1    0    0    0    0  0.00000000000E+00  0.00000000000E+00  0.45593999997E+02  0.45594000000E+02  0.51100000000E-03 0.  1.
         11   -1    0    0    0    0 -0.00000000000E+00 -0.00000000000E+00 -0.45593999997E+02  0.45594000000E+02  0.51100000000E-03 0. -1.
    9900012    2    1    2    0    0 -0.14249216299E+01 -0.34713502258E+01  0.40485586789E+02  0.50528887716E+02  0.30000084702E+02 0.  0.
         12    1    1    2    0    0  0.14249216299E+01  0.34713502258E+01 -0.40485586789E+02  0.40659112284E+02  0.00000000000E+00 0. -1.
         11    1    3    3    0    0  0.22320725469E+01 -0.18251735212E+01  0.96838284741E+01  0.10103956671E+02  0.51100000000E-03 0. -1.
        -11    1    3    3    0    0 -0.14066381611E+02  0.35934276443E+01  0.16563487346E+02  0.22025551689E+02  0.51100000000E-03 0.  1.
        -12    1    3    3    0    0  0.10409387435E+02 -0.52396043489E+01  0.14238270969E+02  0.18399379356E+02  0.00000000000E+00 0.  1.
</event>
<event>
 7    1  0.3141443E-011  0.5052886E+02  0.7816164E-02  0.1300439E+00
        -11   -1    0    0    0    0  0.00000000000E+00  0.00000000000E+00  0.45593999997E+02  0.45594000000E+02  0.51100000000E-03 0.  1.
         11   -1    0    0    0    0 -0.00000000000E+00 -0.00000000000E+00 -0.45593999997E+02  0.45594000000E+02  0.51100000000E-03 0. -1.
    9900012    2    1    2    0    0  0.24390858478E+02 -0.32521594989E+02 -0.77287267509E+00  0.50528862649E+02  0.30000008509E+02 0.  0.
         12    1    1    2    0    0 -0.24390858478E+02  0.32521594989E+02  0.77287267509E+00  0.40659137351E+02  0.00000000000E+00 0. -1.
         11    1    3    3    0    0  0.11220279374E+02 -0.23123822572E+01 -0.42151012961E+01  0.12206918535E+02  0.51100000000E-03 0. -1.
        -11    1    3    3    0    0  0.16778253709E+02 -0.16451363522E+02  0.49676294287E+01  0.24017379159E+02  0.51100000000E-03 0.  1.
         12    1    3    3    0    0 -0.36076746049E+01 -0.13757849210E+02 -0.15254008077E+01  0.14304564955E+02  0.00000000000E+00 0. -1.
</event>
<event>
 7    1  0.3141443E-011  0.5052883E+02  0.7816164E-02  0.1300439E+00
        -11   -1    0    0    0    0  0.00000000000E+00  0.00000000000E+00  0.45593999997E+02  0.45594000000E+02  0.51100000000E-03 0. -1.
         11   -1    0    0    0    0 -0.00000000000E+00 -0.00000000000E+00 -0.45593999997E+02  0.45594000000E+02  0.51100000000E-03 0.  1.
    9900012    2    1    2    0    0 -0.19438113072E+02 -0.35282265125E+02  0.55217053522E+01  0.50528834955E+02  0.29999924328E+02 0.  0.
         12    1    1    2    0    0  0.19438113072E+02  0.35282265125E+02 -0.55217053522E+01  0.40659165045E+02  0.00000000000E+00 0. -1.
         11    1    3    3    0    0 -0.58287730936E+01 -0.23039890182E+02  0.95745928588E+01  0.25621943019E+02  0.51100000000E-03 0. -1.
        -11    1    3    3    0    0  0.33721650539E+01 -0.33504012744E+01 -0.31783369245E+01  0.57182612494E+01  0.51100000000E-03 0.  1.
         12    1    3    3    0    0 -0.16981505033E+02 -0.88919736686E+01 -0.87455058203E+00  0.19188630686E+02  0.00000000000E+00 0. -1.
</event>
<event>
 7    1  0.3141443E-011  0.5052886E+02  0.7816164E-02  0.1300439E+00
        -11   -1    0    0    0    0  0.00000000000E+00  0.00000000000E+00  0.45593999997E+02  0.45594000000E+02  0.51100000000E-03 0.  1.
         11   -1    0    0    0    0 -0.00000000000E+00 -0.00000000000E+00 -0.45593999997E+02  0.45594000000E+02  0.51100000000E-03 0. -1.
    9900012    2    1    2    0    0 -0.32955400095E+02 -0.13230537037E+02  0.19800506566E+02  0.50528861224E+02  0.30000004178E+02 0.  0.
         12    1    1    2    0    0  0.32955400095E+02  0.13230537037E+02 -0.19800506566E+02  0.40659138776E+02  0.00000000000E+00 0. -1.
         11    1    3    3    0    0 -0.18490894022E+02  0.11418882000E+01  0.10878967876E+02  0.21484157249E+02  0.51100000000E-03 0.  1.
        -11    1    3    3    0    0 -0.66338899485E+01 -0.17785176815E+02  0.73716327482E+01  0.20363250719E+02  0.51100000000E-03 0. -1.
         12    1    3    3    0    0 -0.78306161248E+01  0.34127515779E+01  0.15499059409E+01  0.86814532569E+01  0.00000000000E+00 0. -1.
</event>
<event>
 7    1  0.3141443E-011  0.5052887E+02  0.7816164E-02  0.1300439E+00
        -11   -1    0    0    0    0  0.00000000000E+00  0.00000000000E+00  0.45593999997E+02  0.45594000000E+02  0.51100000000E-03 0. -1.
         11   -1    0    0    0    0 -0.00000000000E+00 -0.00000000000E+00 -0.45593999997E+02  0.45594000000E+02  0.51100000000E-03 0.  1.
    9900012    2    1    2    0    0  0.37518873763E+02 -0.10308302317E+01  0.15634472557E+02  0.50528865337E+02  0.30000016680E+02 0.  0.
         12    1    1    2    0    0 -0.37518873763E+02  0.10308302317E+01 -0.15634472557E+02  0.40659134663E+02  0.00000000000E+00 0. -1.
         11    1    3    3    0    0  0.13554201761E+02  0.15494052926E+01  0.60436304644E+01  0.14921210125E+02  0.51100000000E-03 0. -1.
        -11    1    3    3    0    0  0.19333800531E+02  0.28368162343E+00 -0.50522280347E+01  0.19985027561E+02  0.51100000000E-03 0.  1.
         12    1    3    3    0    0  0.46308714708E+01 -0.28639171478E+01  0.14643070127E+02  0.15622627652E+02  0.00000000000E+00 0. -1.
</event>
<event>
 7    1  0.3141443E-011  0.5052886E+02  0.7816164E-02  0.1300439E+00
        -11   -1    0    0    0    0  0.00000000000E+00  0.00000000000E+00  0.45593999997E+02  0.45594000000E+02  0.51100000000E-03 0. -1.
         11   -1    0    0    0    0 -0.00000000000E+00 -0.00000000000E+00 -0.45593999997E+02  0.45594000000E+02  0.51100000000E-03 0.  1.
    9900012    2    1    2    0    0 -0.23223132616E+02  0.31356353937E+02 -0.11429377681E+02  0.50528862099E+02  0.30000006836E+02 0.  0.
         12    1    1    2    0    0  0.23223132616E+02 -0.31356353937E+02  0.11429377681E+02  0.40659137901E+02  0.00000000000E+00 0. -1.
         11    1    3    3    0    0 -0.11037727564E+02 -0.13201746305E+01 -0.71657160035E+01  0.13225799671E+02  0.51100000000E-03 0. -1.
        -11    1    3    3    0    0  0.53043928571E+00  0.97362789393E+00  0.22695700041E+01  0.25259187193E+01  0.51100000000E-03 0.  1.
        -12    1    3    3    0    0 -0.12715844337E+02  0.31702900673E+02 -0.65332316814E+01  0.34777143708E+02  0.00000000000E+00 0.  1.
</event>
<event>
 7    1  0.3141443E-011  0.5052887E+02  0.7816164E-02  0.1300439E+00
        -11   -1    0    0    0    0  0.00000000000E+00  0.00000000000E+00  0.45593999997E+02  0.45594000000E+02  0.51100000000E-03 0.  1.
         11   -1    0    0    0    0 -0.00000000000E+00 -0.00000000000E+00 -0.45593999997E+02  0.45594000000E+02  0.51100000000E-03 0. -1.
    9900012    2    1    2    0    0 -0.33387240799E+02 -0.15851687733E+02  0.16946419195E+02  0.50528868483E+02  0.30000026241E+02 0.  0.
         12    1    1    2    0    0  0.33387240799E+02  0.15851687733E+02 -0.16946419195E+02  0.40659131517E+02  0.00000000000E+00 0. -1.
         11    1    3    3    0    0 -0.22054690436E+02 -0.16084703912E+02  0.13996770138E+02  0.30676320586E+02  0.51100000000E-03 0. -1.
        -11    1    3    3    0    0 -0.13968914703E+01 -0.61301875075E+01 -0.26125958528E+01  0.68085359665E+01  0.51100000000E-03 0.  1.
        -12    1    3    3    0    0 -0.99356588934E+01  0.63632036865E+01  0.55622449100E+01  0.13044011930E+02  0.00000000000E+00 0.  1.
</event>
<event>
 7    1  0.3141443E-011  0.5052886E+02  0.7816164E-02  0.1300439E+00
        -11   -1    0    0    0    0  0.00000000000E+00  0.00000000000E+00  0.45593999997E+02  0.45594000000E+02  0.51100000000E-03 0.  1.
         11   -1    0    0    0    0 -0.00000000000E+00 -0.00000000000E+00 -0.45593999997E+02  0.45594000000E+02  0.51100000000E-03 0. -1.
    9900012    2    1    2    0    0 -0.48295606385E+01  0.61803155336E+01  0.39895424048E+02  0.50528858149E+02  0.29999994830E+02 0.  0.
         12    1    1    2    0    0  0.48295606385E+01 -0.61803155336E+01 -0.39895424048E+02  0.40659141851E+02  0.00000000000E+00 0. -1.
         11    1    3    3    0    0  0.34052437711E+01 -0.36431843444E+01  0.10960227232E+01  0.51058538344E+01  0.51100000000E-03 0. -1.
        -11    1    3    3    0    0 -0.11635766902E+01  0.13548553449E+02  0.32553472764E+02  0.35279537986E+02  0.51100000000E-03 0.  1.
         12    1    3    3    0    0 -0.70712277194E+01 -0.37250535712E+01  0.62459285614E+01  0.10143466329E+02  0.00000000000E+00 0. -1.
</event>
<event>
 7    1  0.3141443E-011  0.5052881E+02  0.7816164E-02  0.1300439E+00
        -11   -1    0    0    0    0  0.00000000000E+00  0.00000000000E+00  0.45593999997E+02  0.45594000000E+02  0.51100000000E-03 0.  1.
         11   -1    0    0    0    0 -0.00000000000E+00 -0.00000000000E+00 -0.45593999997E+02  0.45594000000E+02  0.51100000000E-03 0. -1.
    9900012    2    1    2    0    0 -0.26306700576E+01 -0.81808189414E+01  0.39740701126E+02  0.50528812238E+02  0.29999855278E+02 0.  0.
         12    1    1    2    0    0  0.26306700576E+01  0.81808189414E+01 -0.39740701126E+02  0.40659187762E+02  0.00000000000E+00 0. -1.
         11    1    3    3    0    0  0.39067283953E+01 -0.11403274549E+01 -0.33096566419E+00  0.40831864997E+01  0.51100000000E-03 0.  1.
        -11    1    3    3    0    0  0.30674926825E+00  0.73848737704E+01  0.14988263774E+02  0.16711627896E+02  0.51100000000E-03 0. -1.
         12    1    3    3    0    0 -0.68441477212E+01 -0.14425365257E+02  0.25083403016E+02  0.29733997842E+02  0.00000000000E+00 0. -1.
</event>
<event>
 7    1  0.3141443E-011  0.5052888E+02  0.7816164E-02  0.1300439E+00
        -11   -1    0    0    0    0  0.00000000000E+00  0.00000000000E+00  0.45593999997E+02  0.45594000000E+02  0.51100000000E-03 0.  1.
         11   -1    0    0    0    0 -0.00000000000E+00 -0.00000000000E+00 -0.45593999997E+02  0.45594000000E+02  0.51100000000E-03 0. -1.
    9900012    2    1    2    0    0 -0.99283666494E+01 -0.21380632978E+02  0.33127941496E+02  0.50528875088E+02  0.30000046318E+02 0.  0.
         12    1    1    2    0    0  0.99283666494E+01  0.21380632978E+02 -0.33127941496E+02  0.40659124912E+02  0.00000000000E+00 0. -1.
         11    1    3    3    0    0  0.39417078283E+01 -0.22896033312E+01  0.26957481034E+01  0.52958853949E+01  0.51100000000E-03 0. -1.
        -11    1    3    3    0    0 -0.54020973213E+01 -0.23030639411E+02  0.18221069873E+02  0.29859678410E+02  0.51100000000E-03 0.  1.
        -12    1    3    3    0    0 -0.84679771564E+01  0.39396097650E+01  0.12211123519E+02  0.15373311283E+02  0.00000000000E+00 0.  1.
</event>
<event>
 7    1  0.3141443E-011  0.5052885E+02  0.7816164E-02  0.1300439E+00
        -11   -1    0    0    0    0  0.00000000000E+00  0.00000000000E+00  0.45593999997E+02  0.45594000000E+02  0.51100000000E-03 0.  1.
         11   -1    0    0    0    0 -0.00000000000E+00 -0.00000000000E+00 -0.45593999997E+02  0.45594000000E+02  0.51100000000E-03 0. -1.
    9900012    2    1    2    0    0  0.11317507378E+02 -0.22413601758E+02  0.31979852750E+02  0.50528849751E+02  0.29999969304E+02 0.  0.
         12    1    1    2    0    0 -0.11317507378E+02  0.22413601758E+02 -0.31979852750E+02  0.40659150249E+02  0.00000000000E+00 0. -1.
         11    1    3    3    0    0 -0.24441571614E+01  0.30248803336E+00  0.42814971473E+00  0.24997431227E+01  0.51100000000E-03 0. -1.
        -11    1    3    3    0    0  0.24124129702E+01 -0.16815398000E+02  0.30850531521E+02  0.35218356600E+02  0.51100000000E-03 0.  1.
         12    1    3    3    0    0  0.11349251570E+02 -0.59006917912E+01  0.70117151476E+00  0.12810750029E+02  0.00000000000E+00 0. -1.
</event>
<event>
 7    1  0.3141443E-011  0.5052886E+02  0.7816164E-02  0.1300439E+00
        -11   -1    0    0    0    0  0.00000000000E+00  0.00000000000E+00  0.45593999997E+02  0.45594000000E+02  0.51100000000E-03 0. -1.
         11   -1    0    0    0    0 -0.00000000000E+00 -0.00000000000E+00 -0.45593999997E+02  0.45594000000E+02  0.51100000000E-03 0.  1.
    9900012    2    1    2    0    0 -0.16529878545E+02  0.36860508007E+02  0.46077748172E+01  0.50528861741E+02  0.30000005747E+02 0.  0.
         12    1    1    2    0    0  0.16529878545E+02 -0.36860508007E+02 -0.46077748172E+01  0.40659138259E+02  0.00000000000E+00 0. -1.
         11    1    3    3    0    0 -0.13296504198E+01 -0.29317493342E+01  0.11972542785E+01  0.34346095071E+01  0.51100000000E-03 0. -1.
        -11    1    3    3    0    0 -0.10544841847E+02  0.86623119875E+01  0.71337488030E+01  0.15398691854E+02  0.51100000000E-03 0.  1.
        -12    1    3    3    0    0 -0.46553862775E+01  0.31129945353E+02 -0.37232282643E+01  0.31695560380E+02  0.00000000000E+00 0.  1.
</event>
<event>
 7    1  0.3141443E-011  0.5052887E+02  0.7816164E-02  0.1300439E+00
        -11   -1    0    0    0    0  0.00000000000E+00  0.00000000000E+00  0.45593999997E+02  0.45594000000E+02  0.51100000000E-03 0.  1.
         11   -1    0    0    0    0 -0.00000000000E+00 -0.00000000000E+00 -0.45593999997E+02  0.45594000000E+02  0.51100000000E-03 0. -1.
    9900012    2    1    2    0    0  0.37751510822E+02 -0.13318608855E+02 -0.71135461482E+01  0.50528874948E+02  0.30000045893E+02 0.  0.
         12    1    1    2    0    0 -0.37751510822E+02  0.13318608855E+02  0.71135461482E+01  0.40659125052E+02  0.00000000000E+00 0. -1.
         11    1    3    3    0    0  0.46134874417E+01  0.23869477671E+01 -0.44488195905E+01  0.68391360586E+01  0.51100000000E-03 0. -1.
        -11    1    3    3    0    0  0.29325988920E+02 -0.27350226261E+01  0.16481977872E+01  0.29499331029E+02  0.51100000000E-03 0.  1.
         12    1    3    3    0    0  0.38120344596E+01 -0.12970533996E+02 -0.43129243450E+01  0.14190407861E+02  0.00000000000E+00 0. -1.
</event>
<event>
 7    1  0.3141443E-011  0.5052886E+02  0.7816164E-02  0.1300439E+00
        -11   -1    0    0    0    0  0.00000000000E+00  0.00000000000E+00  0.45593999997E+02  0.45594000000E+02  0.51100000000E-03 0.  1.
         11   -1    0    0    0    0 -0.00000000000E+00 -0.00000000000E+00 -0.45593999997E+02  0.45594000000E+02  0.51100000000E-03 0. -1.
    9900012    2    1    2    0    0 -0.92945707642E+01  0.21509768883E+02  0.33228095822E+02  0.50528861358E+02  0.30000004585E+02 0.  0.
         12    1    1    2    0    0  0.92945707642E+01 -0.21509768883E+02 -0.33228095822E+02  0.40659138642E+02  0.00000000000E+00 0. -1.
         11    1    3    3    0    0 -0.10567611361E+02  0.19903499930E+02  0.15882465862E+02  0.27569483881E+02  0.51100000000E-03 0. -1.
        -11    1    3    3    0    0 -0.58474510459E+01 -0.20828292060E+01  0.39837549235E+01  0.73757145272E+01  0.51100000000E-03 0.  1.
        -12    1    3    3    0    0  0.71204916422E+01  0.36890981593E+01  0.13361875037E+02  0.15583662950E+02  0.00000000000E+00 0.  1.
</event>
<event>
 7    1  0.3141443E-011  0.5052885E+02  0.7816164E-02  0.1300439E+00
        -11   -1    0    0    0    0  0.00000000000E+00  0.00000000000E+00  0.45593999997E+02  0.45594000000E+02  0.51100000000E-03 0. -1.
         11   -1    0    0    0    0 -0.00000000000E+00 -0.00000000000E+00 -0.45593999997E+02  0.45594000000E+02  0.51100000000E-03 0.  1.
    9900012    2    1    2    0    0 -0.37443947585E+01 -0.27441131875E+02 -0.29767937634E+02  0.50528851932E+02  0.29999975932E+02 0.  0.
         12    1    1    2    0    0  0.37443947585E+01  0.27441131875E+02  0.29767937634E+02  0.40659148068E+02  0.00000000000E+00 0. -1.
         11    1    3    3    0    0 -0.18295877881E+01  0.80055233063E+00 -0.44138892382E+01  0.48446562290E+01  0.51100000000E-03 0. -1.
        -11    1    3    3    0    0 -0.42041370564E+01 -0.56336285285E+01  0.43640440488E+01  0.82738998971E+01  0.51100000000E-03 0.  1.
        -12    1    3    3    0    0  0.22893300860E+01 -0.22608055677E+02 -0.29718092444E+02  0.37410295806E+02  0.00000000000E+00 0.  1.
</event>
<event>
 7    1  0.3141443E-011  0.5052887E+02  0.7816164E-02  0.1300439E+00
        -11   -1    0    0    0    0  0.00000000000E+00  0.00000000000E+00  0.45593999997E+02  0.45594000000E+02  0.51100000000E-03 0. -1.
         11   -1    0    0    0    0 -0.00000000000E+00 -0.00000000000E+00 -0.45593999997E+02  0.45594000000E+02  0.51100000000E-03 0.  1.
    9900012    2    1    2    0    0 -0.21447493839E+01 -0.39390223220E+02 -0.98476182095E+01  0.50528865484E+02  0.30000017124E+02 0.  0.
         12    1    1    2    0    0  0.21447493839E+01  0.39390223220E+02  0.98476182095E+01  0.40659134516E+02  0.00000000000E+00 0. -1.
         11    1    3    3    0    0  0.24428284415E+01 -0.17878029237E-01 -0.17783880627E+01  0.30216543120E+01  0.51100000000E-03 0. -1.
        -11    1    3    3    0    0  0.26308434829E+01 -0.31779926729E+02 -0.14694942310E+02  0.35111627847E+02  0.51100000000E-03 0.  1.
        -12    1    3    3    0    0 -0.72184213083E+01 -0.75924184615E+01  0.66257121633E+01  0.12395583324E+02  0.00000000000E+00 0.  1.
</event>
<event>
 7    1  0.3141443E-011  0.5052886E+02  0.7816164E-02  0.1300439E+00
        -11   -1    0    0    0    0  0.00000000000E+00  0.00000000000E+00  0.45593999997E+02  0.45594000000E+02  0.51100000000E-03 0. -1.
         11   -1    0    0    0    0 -0.00000000000E+00 -0.00000000000E+00 -0.45593999997E+02  0.45594000000E+02  0.51100000000E-03 0.  1.
    9900012    2    1    2    0    0 -0.25895555477E+02  0.50383073843E+01 -0.30938675275E+02  0.50528856348E+02  0.29999989355E+02 0.  0.
         12    1    1    2    0    0  0.25895555477E+02 -0.50383073843E+01  0.30938675275E+02  0.40659143652E+02  0.00000000000E+00 0. -1.
         11    1    3    3    0    0 -0.13922150874E+02  0.19885749916E+01 -0.30097719977E+02  0.33221280281E+02  0.51100000000E-03 0.  1.
        -11    1    3    3    0    0 -0.93558401182E+01  0.68882982136E+01 -0.32635936539E+01  0.12067785232E+02  0.51100000000E-03 0. -1.
        -12    1    3    3    0    0 -0.26175644855E+01 -0.38385658208E+01  0.24226383559E+01  0.52397908355E+01  0.00000000000E+00 0.  1.
</event>
<event>
 7    1  0.3141443E-011  0.5052886E+02  0.7816164E-02  0.1300439E+00
        -11   -1    0    0    0    0  0.00000000000E+00  0.00000000000E+00  0.45593999997E+02  0.45594000000E+02  0.51100000000E-03 0.  1.
         11   -1    0    0    0    0 -0.00000000000E+00 -0.00000000000E+00 -0.45593999997E+02  0.45594000000E+02  0.51100000000E-03 0. -1.
    9900012    2    1    2    0    0  0.24608324422E+02 -0.32274110758E+02 -0.24449635801E+01  0.50528859539E+02  0.29999999056E+02 0.  0.
         12    1    1    2    0    0 -0.24608324422E+02  0.32274110758E+02  0.24449635801E+01  0.40659140461E+02  0.00000000000E+00 0. -1.
         11    1    3    3    0    0 -0.23501993618E+00 -0.12198077078E+02  0.22809519452E+01  0.12411730774E+02  0.51100000000E-03 0. -1.
        -11    1    3    3    0    0 -0.18758280571E+01 -0.75548781164E+01 -0.36305610453E+01  0.85892891451E+01  0.51100000000E-03 0.  1.
        -12    1    3    3    0    0  0.26719172415E+02 -0.12521155564E+02 -0.10953544800E+01  0.29527839620E+02  0.00000000000E+00 0.  1.
</event>
<event>
 7    1  0.3141443E-011  0.5052884E+02  0.7816164E-02  0.1300439E+00
        -11   -1    0    0    0    0  0.00000000000E+00  0.00000000000E+00  0.45593999997E+02  0.45594000000E+02  0.51100000000E-03 0.  1.
         11   -1    0    0    0    0 -0.00000000000E+00 -0.00000000000E+00 -0.45593999997E+02  0.45594000000E+02  0.51100000000E-03 0. -1.
    9900012    2    1    2    0    0  0.62068513570E+00 -0.35835636955E+02  0.19198666459E+02  0.50528844576E+02  0.29999953573E+02 0.  0.
         12    1    1    2    0    0 -0.62068513570E+00  0.35835636955E+02 -0.19198666459E+02  0.40659155424E+02  0.00000000000E+00 0. -1.
         11    1    3    3    0    0  0.72100412164E+01 -0.12035530549E+02 -0.30904354309E+00  0.14033324557E+02  0.51100000000E-03 0. -1.
        -11    1    3    3    0    0  0.27345698122E+01 -0.54574852210E+01  0.13880653169E+02  0.15163592901E+02  0.51100000000E-03 0.  1.
        -12    1    3    3    0    0 -0.93239258929E+01 -0.18342621184E+02  0.56270568332E+01  0.21331927118E+02  0.00000000000E+00 0.  1.
</event>
<event>
 7    1  0.3141443E-011  0.5052885E+02  0.7816164E-02  0.1300439E+00
        -11   -1    0    0    0    0  0.00000000000E+00  0.00000000000E+00  0.45593999997E+02  0.45594000000E+02  0.51100000000E-03 0.  1.
         11   -1    0    0    0    0 -0.00000000000E+00 -0.00000000000E+00 -0.45593999997E+02  0.45594000000E+02  0.51100000000E-03 0. -1.
    9900012    2    1    2    0    0  0.12869829668E+02 -0.12257381800E+02  0.36568979677E+02  0.50528853442E+02  0.29999980521E+02 0.  0.
         12    1    1    2    0    0 -0.12869829668E+02  0.12257381800E+02 -0.36568979677E+02  0.40659146558E+02  0.00000000000E+00 0. -1.
         11    1    3    3    0    0  0.63806603222E-01 -0.41631613920E+01  0.55044084204E-01  0.41640141896E+01  0.51100000000E-03 0. -1.
        -11    1    3    3    0    0  0.16250330713E+02 -0.10666701393E+02  0.15349193021E+02  0.24767912580E+02  0.51100000000E-03 0.  1.
        -12    1    3    3    0    0 -0.34443076483E+01  0.25724809853E+01  0.21164742571E+02  0.21596926672E+02  0.00000000000E+00 0.  1.
</event>
<event>
 7    1  0.3141443E-011  0.5052886E+02  0.7816164E-02  0.1300439E+00
        -11   -1    0    0    0    0  0.00000000000E+00  0.00000000000E+00  0.45593999997E+02  0.45594000000E+02  0.51100000000E-03 0. -1.
         11   -1    0    0    0    0 -0.00000000000E+00 -0.00000000000E+00 -0.45593999997E+02  0.45594000000E+02  0.51100000000E-03 0.  1.
    9900012    2    1    2    0    0  0.21394377753E+02 -0.33269637909E+02 -0.94115671207E+01  0.50528858325E+02  0.29999995366E+02 0.  0.
         12    1    1    2    0    0 -0.21394377753E+02  0.33269637909E+02  0.94115671207E+01  0.40659141675E+02  0.00000000000E+00 0. -1.
         11    1    3    3    0    0  0.29556944385E+01 -0.29452604328E+01 -0.41186172921E+01  0.58629086033E+01  0.51100000000E-03 0.  1.
        -11    1    3    3    0    0  0.46093942550E+01 -0.30163397015E+02 -0.40210954909E+01  0.30777365775E+02  0.51100000000E-03 0. -1.
         12    1    3    3    0    0  0.13829289059E+02 -0.16098046189E+00 -0.12718543377E+01  0.13888583947E+02  0.00000000000E+00 0. -1.
</event>
<event>
 7    1  0.3141443E-011  0.5052886E+02  0.7816164E-02  0.1300439E+00
        -11   -1    0    0    0    0  0.00000000000E+00  0.00000000000E+00  0.45593999997E+02  0.45594000000E+02  0.51100000000E-03 0.  1.
         11   -1    0    0    0    0 -0.00000000000E+00 -0.00000000000E+00 -0.45593999997E+02  0.45594000000E+02  0.51100000000E-03 0. -1.
    9900012    2    1    2    0    0  0.38146752417E+02 -0.12681690946E+02  0.60963708151E+01  0.50528859056E+02  0.29999997587E+02 0.  0.
         12    1    1    2    0    0 -0.38146752417E+02  0.12681690946E+02 -0.60963708151E+01  0.40659140944E+02  0.00000000000E+00 0. -1.
         11    1    3    3    0    0  0.37449170358E+01 -0.72115037307E+01  0.48717940785E+01  0.94744164711E+01  0.51100000000E-03 0.  1.
        -11    1    3    3    0    0  0.99915863097E+01 -0.37084183944E+01 -0.95533165751E+01  0.14312582640E+02  0.51100000000E-03 0. -1.
         12    1    3    3    0    0  0.24410249071E+02 -0.17617688209E+01  0.10777893312E+02  0.26741859945E+02  0.00000000000E+00 0. -1.
</event>
<event>
 7    1  0.3141443E-011  0.5052885E+02  0.7816164E-02  0.1300439E+00
        -11   -1    0    0    0    0  0.00000000000E+00  0.00000000000E+00  0.45593999997E+02  0.45594000000E+02  0.51100000000E-03 0.  1.
         11   -1    0    0    0    0 -0.00000000000E+00 -0.00000000000E+00 -0.45593999997E+02  0.45594000000E+02  0.51100000000E-03 0. -1.
    9900012    2    1    2    0    0  0.52272907417E+01 -0.37689641484E+02  0.14329427544E+02  0.50528854197E+02  0.29999982817E+02 0.  0.
         12    1    1    2    0    0 -0.52272907417E+01  0.37689641484E+02 -0.14329427544E+02  0.40659145803E+02  0.00000000000E+00 0. -1.
         11    1    3    3    0    0 -0.10652306056E+02 -0.13308574167E+02  0.58493413613E+01  0.18022335179E+02  0.51100000000E-03 0. -1.
        -11    1    3    3    0    0  0.73469060795E+00 -0.10707701366E+02  0.10194507674E+01  0.10781183560E+02  0.51100000000E-03 0.  1.
         12    1    3    3    0    0  0.15144906190E+02 -0.13673365951E+02  0.74606354149E+01  0.21725335458E+02  0.00000000000E+00 0. -1.
</event>
<event>
 7    1  0.3141443E-011  0.5052886E+02  0.7816164E-02  0.1300439E+00
        -11   -1    0    0    0    0  0.00000000000E+00  0.00000000000E+00  0.45593999997E+02  0.45594000000E+02  0.51100000000E-03 0. -1.
         11   -1    0    0    0    0 -0.00000000000E+00 -0.00000000000E+00 -0.45593999997E+02  0.45594000000E+02  0.51100000000E-03 0.  1.
    9900012    2    1    2    0    0  0.29575516617E+02  0.89262228416E+01 -0.26434385467E+02  0.50528863605E+02  0.30000011415E+02 0.  0.
         12    1    1    2    0    0 -0.29575516617E+02 -0.89262228416E+01  0.26434385467E+02  0.40659136395E+02  0.00000000000E+00 0. -1.
         11    1    3    3    0    0  0.58490252986E+01  0.22834449163E+01  0.58568565917E+01  0.85865002781E+01  0.51100000000E-03 0. -1.
        -11    1    3    3    0    0  0.16824015158E+02  0.20463273894E+01 -0.14465209554E+02  0.22281768994E+02  0.51100000000E-03 0.  1.
        -12    1    3    3    0    0  0.69024761601E+01  0.45964505359E+01 -0.17826032505E+02  0.19660594333E+02  0.00000000000E+00 0.  1.
</event>
<event>
 7    1  0.3141443E-011  0.5052889E+02  0.7816164E-02  0.1300439E+00
        -11   -1    0    0    0    0  0.00000000000E+00  0.00000000000E+00  0.45593999997E+02  0.45594000000E+02  0.51100000000E-03 0.  1.
         11   -1    0    0    0    0 -0.00000000000E+00 -0.00000000000E+00 -0.45593999997E+02  0.45594000000E+02  0.51100000000E-03 0. -1.
    9900012    2    1    2    0    0 -0.13819684436E+02 -0.29135310956E+02  0.24765155224E+02  0.50528893570E+02  0.30000102496E+02 0.  0.
         12    1    1    2    0    0  0.13819684436E+02  0.29135310956E+02 -0.24765155224E+02  0.40659106430E+02  0.00000000000E+00 0. -1.
         11    1    3    3    0    0 -0.96672159492E+00 -0.36142039537E+01 -0.69012948187E+01  0.78501523104E+01  0.51100000000E-03 0. -1.
        -11    1    3    3    0    0 -0.14721120988E+01 -0.28097226550E+01  0.42374952667E+01  0.52932052507E+01  0.51100000000E-03 0.  1.
         12    1    3    3    0    0 -0.11380850742E+02 -0.22711384347E+02  0.27428954776E+02  0.37385536009E+02  0.00000000000E+00 0. -1.
</event>
<event>
 7    1  0.3141443E-011  0.5052886E+02  0.7816164E-02  0.1300439E+00
        -11   -1    0    0    0    0  0.00000000000E+00  0.00000000000E+00  0.45593999997E+02  0.45594000000E+02  0.51100000000E-03 0.  1.
         11   -1    0    0    0    0 -0.00000000000E+00 -0.00000000000E+00 -0.45593999997E+02  0.45594000000E+02  0.51100000000E-03 0. -1.
    9900012    2    1    2    0    0 -0.21355388035E+02  0.34050763314E+02  0.61366832076E+01  0.50528856365E+02  0.29999989406E+02 0.  0.
         12    1    1    2    0    0  0.21355388035E+02 -0.34050763314E+02 -0.61366832076E+01  0.40659143635E+02  0.00000000000E+00 0. -1.
         11    1    3    3    0    0  0.14867825597E+01  0.84645388220E+01 -0.47012876861E+01  0.97959709073E+01  0.51100000000E-03 0. -1.
        -11    1    3    3    0    0 -0.18540813100E+02  0.12434092421E+02 -0.12498254617E+01  0.22359124954E+02  0.51100000000E-03 0.  1.
         12    1    3    3    0    0 -0.43013574944E+01  0.13152132071E+02  0.12087796355E+02  0.18373760503E+02  0.00000000000E+00 0. -1.
</event>
<event>
 7    1  0.3141443E-011  0.5052886E+02  0.7816164E-02  0.1300439E+00
        -11   -1    0    0    0    0  0.00000000000E+00  0.00000000000E+00  0.45593999997E+02  0.45594000000E+02  0.51100000000E-03 0. -1.
         11   -1    0    0    0    0 -0.00000000000E+00 -0.00000000000E+00 -0.45593999997E+02  0.45594000000E+02  0.51100000000E-03 0.  1.
    9900012    2    1    2    0    0 -0.35926731146E+02  0.47513012784E+01  0.18435312693E+02  0.50528860452E+02  0.30000001830E+02 0.  0.
         12    1    1    2    0    0  0.35926731146E+02 -0.47513012784E+01 -0.18435312693E+02  0.40659139548E+02  0.00000000000E+00 0. -1.
         11    1    3    3    0    0 -0.28716852505E+02  0.15335282836E+02  0.10943796111E+02  0.34345235347E+02  0.51100000000E-03 0.  1.
        -11    1    3    3    0    0 -0.62847318489E+01 -0.47613230476E+01  0.20179609540E+01  0.81388093877E+01  0.51100000000E-03 0. -1.
        -12    1    3    3    0    0 -0.92514679275E+00 -0.58226585102E+01  0.54735556282E+01  0.80448157176E+01  0.00000000000E+00 0.  1.
</event>
<event>
 7    1  0.3141443E-011  0.5052887E+02  0.7816164E-02  0.1300439E+00
        -11   -1    0    0    0    0  0.00000000000E+00  0.00000000000E+00  0.45593999997E+02  0.45594000000E+02  0.51100000000E-03 0. -1.
         11   -1    0    0    0    0 -0.00000000000E+00 -0.00000000000E+00 -0.45593999997E+02  0.45594000000E+02  0.51100000000E-03 0.  1.
    9900012    2    1    2    0    0 -0.33572713100E+02  0.66525466645E+01 -0.21949515439E+02  0.50528872242E+02  0.30000037668E+02 0.  0.
         12    1    1    2    0    0  0.33572713100E+02 -0.66525466645E+01  0.21949515439E+02  0.40659127758E+02  0.00000000000E+00 0. -1.
         11    1    3    3    0    0 -0.66821038890E+01  0.53325616594E+01  0.89413921273E+00  0.85957088962E+01  0.51100000000E-03 0. -1.
        -11    1    3    3    0    0 -0.25330389351E+02 -0.35074763535E+01 -0.88694988190E+01  0.27066566547E+02  0.51100000000E-03 0.  1.
        -12    1    3    3    0    0 -0.15602198596E+01  0.48274613587E+01 -0.13974155832E+02  0.14866596800E+02  0.00000000000E+00 0.  1.
</event>
<event>
 7    1  0.3141443E-011  0.5052886E+02  0.7816164E-02  0.1300439E+00
        -11   -1    0    0    0    0  0.00000000000E+00  0.00000000000E+00  0.45593999997E+02  0.45594000000E+02  0.51100000000E-03 0.  1.
         11   -1    0    0    0    0 -0.00000000000E+00 -0.00000000000E+00 -0.45593999997E+02  0.45594000000E+02  0.51100000000E-03 0. -1.
    9900012    2    1    2    0    0  0.16495117002E+02  0.10034455895E+02  0.35782487300E+02  0.50528860961E+02  0.30000003376E+02 0.  0.
         12    1    1    2    0    0 -0.16495117002E+02 -0.10034455895E+02 -0.35782487300E+02  0.40659139039E+02  0.00000000000E+00 0. -1.
         11    1    3    3    0    0  0.70173121938E+01 -0.59998186324E+01  0.23719924316E+02  0.25453394742E+02  0.51100000000E-03 0. -1.
        -11    1    3    3    0    0  0.10514505436E+01  0.26817908285E+00 -0.20368083130E+01  0.23078250868E+01  0.51100000000E-03 0.  1.
        -12    1    3    3    0    0  0.84263542650E+01  0.15766095444E+02  0.14099371297E+02  0.22767641132E+02  0.00000000000E+00 0.  1.
</event>
<event>
 7    1  0.3141443E-011  0.5052886E+02  0.7816164E-02  0.1300439E+00
        -11   -1    0    0    0    0  0.00000000000E+00  0.00000000000E+00  0.45593999997E+02  0.45594000000E+02  0.51100000000E-03 0.  1.
         11   -1    0    0    0    0 -0.00000000000E+00 -0.00000000000E+00 -0.45593999997E+02  0.45594000000E+02  0.51100000000E-03 0. -1.
    9900012    2    1    2    0    0 -0.32485504992E+02 -0.21003099091E+02  0.12519083174E+02  0.50528860197E+02  0.30000001054E+02 0.  0.
         12    1    1    2    0    0  0.32485504992E+02  0.21003099091E+02 -0.12519083174E+02  0.40659139803E+02  0.00000000000E+00 0. -1.
         11    1    3    3    0    0 -0.19360754670E+02 -0.23204743080E+02  0.10743148951E+01  0.30239925191E+02  0.51100000000E-03 0. -1.
        -11    1    3    3    0    0 -0.94260557815E+01 -0.34149561241E+01  0.70107038757E+01  0.12233659388E+02  0.51100000000E-03 0.  1.
        -12    1    3    3    0    0 -0.36986945406E+01  0.56166001137E+01  0.44340644037E+01  0.80552756177E+01  0.00000000000E+00 0.  1.
</event>
<event>
 7    1  0.3141443E-011  0.5052886E+02  0.7816164E-02  0.1300439E+00
        -11   -1    0    0    0    0  0.00000000000E+00  0.00000000000E+00  0.45593999997E+02  0.45594000000E+02  0.51100000000E-03 0. -1.
         11   -1    0    0    0    0 -0.00000000000E+00 -0.00000000000E+00 -0.45593999997E+02  0.45594000000E+02  0.51100000000E-03 0.  1.
    9900012    2    1    2    0    0 -0.55663590627E+01 -0.28507947346E+01 -0.40175291910E+02  0.50528862480E+02  0.30000007995E+02 0.  0.
         12    1    1    2    0    0  0.55663590627E+01  0.28507947346E+01  0.40175291910E+02  0.40659137520E+02  0.00000000000E+00 0. -1.
         11    1    3    3    0    0  0.61385686649E+01 -0.99066687600E+01 -0.21258515211E+02  0.24243526567E+02  0.51100000000E-03 0. -1.
        -11    1    3    3    0    0 -0.50164824001E+01 -0.30802309964E+01 -0.43446775098E+01  0.73163612258E+01  0.51100000000E-03 0.  1.
         12    1    3    3    0    0 -0.66884453275E+01  0.10136105022E+02 -0.14572099189E+02  0.18968974687E+02  0.00000000000E+00 0. -1.
</event>
<event>
 7    1  0.3141443E-011  0.5052887E+02  0.7816164E-02  0.1300439E+00
        -11   -1    0    0    0    0  0.00000000000E+00  0.00000000000E+00  0.45593999997E+02  0.45594000000E+02  0.51100000000E-03 0.  1.
         11   -1    0    0    0    0 -0.00000000000E+00 -0.00000000000E+00 -0.45593999997E+02  0.45594000000E+02  0.51100000000E-03 0. -1.
    9900012    2    1    2    0    0 -0.39708909450E+02 -0.83542410301E+01  0.25640557661E+01  0.50528865542E+02  0.30000017302E+02 0.  0.
         12    1    1    2    0    0  0.39708909450E+02  0.83542410301E+01 -0.25640557661E+01  0.40659134458E+02  0.00000000000E+00 0. -1.
         11    1    3    3    0    0 -0.53746409843E+01  0.47313250215E+01 -0.36671235224E+01  0.80448739803E+01  0.51100000000E-03 0. -1.
        -11    1    3    3    0    0 -0.12186253162E+02 -0.13840241598E+02 -0.26103453263E+01  0.18624471982E+02  0.51100000000E-03 0.  1.
        -12    1    3    3    0    0 -0.22148015304E+02  0.75467554640E+00  0.88415246148E+01  0.23859519580E+02  0.00000000000E+00 0.  1.
</event>
<event>
 7    1  0.3141443E-011  0.5052889E+02  0.7816164E-02  0.1300439E+00
        -11   -1    0    0    0    0  0.00000000000E+00  0.00000000000E+00  0.45593999997E+02  0.45594000000E+02  0.51100000000E-03 0.  1.
         11   -1    0    0    0    0 -0.00000000000E+00 -0.00000000000E+00 -0.45593999997E+02  0.45594000000E+02  0.51100000000E-03 0. -1.
    9900012    2    1    2    0    0 -0.37011239831E+02  0.51062190109E+01 -0.16039269199E+02  0.50528886596E+02  0.30000081296E+02 0.  0.
         12    1    1    2    0    0  0.37011239831E+02 -0.51062190109E+01  0.16039269199E+02  0.40659113404E+02  0.00000000000E+00 0. -1.
         11    1    3    3    0    0 -0.35923061479E+01 -0.22891721288E+01  0.34018915374E+01  0.54514070468E+01  0.51100000000E-03 0. -1.
        -11    1    3    3    0    0 -0.31797825506E+02 -0.52540023503E+00 -0.11705874894E+02  0.33888128594E+02  0.51100000000E-03 0.  1.
        -12    1    3    3    0    0 -0.16211081771E+01  0.79207913747E+01 -0.77352858426E+01  0.11189350955E+02  0.00000000000E+00 0.  1.
</event>
<event>
 7    1  0.3141443E-011  0.5052884E+02  0.7816164E-02  0.1300439E+00
        -11   -1    0    0    0    0  0.00000000000E+00  0.00000000000E+00  0.45593999997E+02  0.45594000000E+02  0.51100000000E-03 0.  1.
         11   -1    0    0    0    0 -0.00000000000E+00 -0.00000000000E+00 -0.45593999997E+02  0.45594000000E+02  0.51100000000E-03 0. -1.
    9900012    2    1    2    0    0 -0.15477480295E+02  0.49719006557E+01  0.37267885320E+02  0.50528837826E+02  0.29999933057E+02 0.  0.
         12    1    1    2    0    0  0.15477480295E+02 -0.49719006557E+01 -0.37267885320E+02  0.40659162174E+02  0.00000000000E+00 0. -1.
         11    1    3    3    0    0 -0.16320515933E+01 -0.12122234799E+01 -0.29548786598E+00  0.20543591479E+01  0.51100000000E-03 0. -1.
        -11    1    3    3    0    0  0.32746774354E+01 -0.78417911116E+01  0.98926494507E+01  0.13041538006E+02  0.51100000000E-03 0.  1.
         12    1    3    3    0    0 -0.17120106137E+02  0.14025915247E+02  0.27670723736E+02  0.35432940673E+02  0.00000000000E+00 0. -1.
</event>
<event>
 7    1  0.3141443E-011  0.5052885E+02  0.7816164E-02  0.1300439E+00
        -11   -1    0    0    0    0  0.00000000000E+00  0.00000000000E+00  0.45593999997E+02  0.45594000000E+02  0.51100000000E-03 0. -1.
         11   -1    0    0    0    0 -0.00000000000E+00 -0.00000000000E+00 -0.45593999997E+02  0.45594000000E+02  0.51100000000E-03 0.  1.
    9900012    2    1    2    0    0  0.25721128420E+02 -0.31137709095E+02  0.46939305590E+01  0.50528851472E+02  0.29999974536E+02 0.  0.
         12    1    1    2    0    0 -0.25721128420E+02  0.31137709095E+02 -0.46939305590E+01  0.40659148528E+02  0.00000000000E+00 0. -1.
         11    1    3    3    0    0  0.20768432783E+02 -0.12910997346E+02 -0.32817795905E+01  0.24673705240E+02  0.51100000000E-03 0. -1.
        -11    1    3    3    0    0  0.14038286510E+01 -0.10222269975E+02 -0.39601692152E+01  0.11052080293E+02  0.51100000000E-03 0.  1.
        -12    1    3    3    0    0  0.35488669860E+01 -0.80044417742E+01  0.11935879365E+02  0.14803065939E+02  0.00000000000E+00 0.  1.
</event>
<event>
 7    1  0.3141443E-011  0.5052886E+02  0.7816164E-02  0.1300439E+00
        -11   -1    0    0    0    0  0.00000000000E+00  0.00000000000E+00  0.45593999997E+02  0.45594000000E+02  0.51100000000E-03 0. -1.
         11   -1    0    0    0    0 -0.00000000000E+00 -0.00000000000E+00 -0.45593999997E+02  0.45594000000E+02  0.51100000000E-03 0.  1.
    9900012    2    1    2    0    0 -0.35542146285E+02  0.14783116088E+02 -0.13091254409E+02  0.50528860489E+02  0.30000001942E+02 0.  0.
         12    1    1    2    0    0  0.35542146285E+02 -0.14783116088E+02  0.13091254409E+02  0.40659139511E+02  0.00000000000E+00 0. -1.
         11    1    3    3    0    0 -0.15869067435E+02 -0.52880005390E+01 -0.10402312082E+02  0.19697673666E+02  0.51100000000E-03 0. -1.
        -11    1    3    3    0    0 -0.12326376593E+02  0.39215860969E+01 -0.39259781483E+00  0.12941117831E+02  0.51100000000E-03 0.  1.
        -12    1    3    3    0    0 -0.73467022574E+01  0.16149530530E+02 -0.22963445121E+01  0.17890068992E+02  0.00000000000E+00 0.  1.
</event>
<event>
 7    1  0.3141443E-011  0.5052885E+02  0.7816164E-02  0.1300439E+00
        -11   -1    0    0    0    0  0.00000000000E+00  0.00000000000E+00  0.45593999997E+02  0.45594000000E+02  0.51100000000E-03 0. -1.
         11   -1    0    0    0    0 -0.00000000000E+00 -0.00000000000E+00 -0.45593999997E+02  0.45594000000E+02  0.51100000000E-03 0.  1.
    9900012    2    1    2    0    0 -0.31483126266E+02  0.98127554350E+01 -0.23784210933E+02  0.50528854677E+02  0.29999984276E+02 0.  0.
         12    1    1    2    0    0  0.31483126266E+02 -0.98127554350E+01  0.23784210933E+02  0.40659145323E+02  0.00000000000E+00 0. -1.
         11    1    3    3    0    0 -0.11277416473E+02 -0.17713267891E+01 -0.19400597676E+01  0.11579358923E+02  0.51100000000E-03 0. -1.
        -11    1    3    3    0    0 -0.14987565118E+02  0.11691057721E+02 -0.26049230555E+02  0.32247020817E+02  0.51100000000E-03 0.  1.
         12    1    3    3    0    0 -0.52181446751E+01 -0.10697549692E+00  0.42050793901E+01  0.67024749373E+01  0.00000000000E+00 0. -1.
</event>
<event>
 7    1  0.3141443E-011  0.5052886E+02  0.7816164E-02  0.1300439E+00
        -11   -1    0    0    0    0  0.00000000000E+00  0.00000000000E+00  0.45593999997E+02  0.45594000000E+02  0.51100000000E-03 0.  1.
         11   -1    0    0    0    0 -0.00000000000E+00 -0.00000000000E+00 -0.45593999997E+02  0.45594000000E+02  0.51100000000E-03 0. -1.
    9900012    2    1    2    0    0  0.85252852597E+01 -0.33633196750E+02  0.21196540225E+02  0.50528859208E+02  0.29999998050E+02 0.  0.
         12    1    1    2    0    0 -0.85252852597E+01  0.33633196750E+02 -0.21196540225E+02  0.40659140792E+02  0.00000000000E+00 0. -1.
         11    1    3    3    0    0 -0.41476050335E+01 -0.18437849398E+02 -0.25394571103E+01  0.19068449350E+02  0.51100000000E-03 0. -1.
        -11    1    3    3    0    0  0.72992027490E+01 -0.44832205929E+01  0.84030093194E+01  0.11999508054E+02  0.51100000000E-03 0.  1.
        -12    1    3    3    0    0  0.53736875443E+01 -0.10712126759E+02  0.15332988016E+02  0.19460901804E+02  0.00000000000E+00 0.  1.
</event>
<event>
 7    1  0.3141443E-011  0.5052881E+02  0.7816164E-02  0.1300439E+00
        -11   -1    0    0    0    0  0.00000000000E+00  0.00000000000E+00  0.45593999997E+02  0.45594000000E+02  0.51100000000E-03 0.  1.
         11   -1    0    0    0    0 -0.00000000000E+00 -0.00000000000E+00 -0.45593999997E+02  0.45594000000E+02  0.51100000000E-03 0. -1.
    9900012    2    1    2    0    0  0.22044265287E+02  0.27576172676E+02  0.20168668369E+02  0.50528805280E+02  0.29999834128E+02 0.  0.
         12    1    1    2    0    0 -0.22044265287E+02 -0.27576172676E+02 -0.20168668369E+02  0.40659194720E+02  0.00000000000E+00 0. -1.
         11    1    3    3    0    0  0.20645379575E+02  0.20509897654E+02  0.83790393612E+01  0.30283591274E+02  0.51100000000E-03 0. -1.
        -11    1    3    3    0    0  0.38425888369E+01 -0.21655397913E+01 -0.75946183412E+00  0.44756936999E+01  0.51100000000E-03 0.  1.
        -12    1    3    3    0    0 -0.24437031248E+01  0.92318148133E+01  0.12549090842E+02  0.15769520306E+02  0.00000000000E+00 0.  1.
</event>
<event>
 7    1  0.3141443E-011  0.5052887E+02  0.7816164E-02  0.1300439E+00
        -11   -1    0    0    0    0  0.00000000000E+00  0.00000000000E+00  0.45593999997E+02  0.45594000000E+02  0.51100000000E-03 0.  1.
         11   -1    0    0    0    0 -0.00000000000E+00 -0.00000000000E+00 -0.45593999997E+02  0.45594000000E+02  0.51100000000E-03 0. -1.
    9900012    2    1    2    0    0  0.12815920719E+02  0.14853865679E+02  0.35612912845E+02  0.50528871741E+02  0.30000036145E+02 0.  0.
         12    1    1    2    0    0 -0.12815920719E+02 -0.14853865679E+02 -0.35612912845E+02  0.40659128259E+02  0.00000000000E+00 0. -1.
         11    1    3    3    0    0  0.24579811721E+01  0.43865476520E+01 -0.38648403219E+00  0.50430984438E+01  0.51100000000E-03 0. -1.
        -11    1    3    3    0    0  0.16517639024E+02  0.22067280895E+01  0.16611245329E+02  0.23529460670E+02  0.51100000000E-03 0.  1.
        -12    1    3    3    0    0 -0.61596994766E+01  0.82605899375E+01  0.19388151547E+02  0.21956312627E+02  0.00000000000E+00 0.  1.
</event>
<event>
 7    1  0.3141443E-011  0.5052886E+02  0.7816164E-02  0.1300439E+00
        -11   -1    0    0    0    0  0.00000000000E+00  0.00000000000E+00  0.45593999997E+02  0.45594000000E+02  0.51100000000E-03 0.  1.
         11   -1    0    0    0    0 -0.00000000000E+00 -0.00000000000E+00 -0.45593999997E+02  0.45594000000E+02  0.51100000000E-03 0. -1.
    9900012    2    1    2    0    0  0.60563967310E+01 -0.18207222107E+02  0.35846656416E+02  0.50528860137E+02  0.30000000871E+02 0.  0.
         12    1    1    2    0    0 -0.60563967310E+01  0.18207222107E+02 -0.35846656416E+02  0.40659139863E+02  0.00000000000E+00 0. -1.
         11    1    3    3    0    0  0.94566487370E+01 -0.70480300105E+01  0.30501266948E+02  0.32702143937E+02  0.51100000000E-03 0. -1.
        -11    1    3    3    0    0 -0.27815408863E+01 -0.36338502344E+01  0.84920197711E+01  0.96465660876E+01  0.51100000000E-03 0.  1.
         12    1    3    3    0    0 -0.61871111966E+00 -0.75253418622E+01 -0.31466303030E+01  0.81801501121E+01  0.00000000000E+00 0. -1.
</event>
<event>
 7    1  0.3141443E-011  0.5052883E+02  0.7816164E-02  0.1300439E+00
        -11   -1    0    0    0    0  0.00000000000E+00  0.00000000000E+00  0.45593999997E+02  0.45594000000E+02  0.51100000000E-03 0. -1.
         11   -1    0    0    0    0 -0.00000000000E+00 -0.00000000000E+00 -0.45593999997E+02  0.45594000000E+02  0.51100000000E-03 0.  1.
    9900012    2    1    2    0    0  0.45431181095E+01 -0.37266040867E+02 -0.15613157880E+02  0.50528826091E+02  0.29999897385E+02 0.  0.
         12    1    1    2    0    0 -0.45431181095E+01  0.37266040867E+02  0.15613157880E+02  0.40659173909E+02  0.00000000000E+00 0. -1.
         11    1    3    3    0    0  0.45035299492E+00  0.63774517464E+00  0.25048430275E+01  0.26236950244E+01  0.51100000000E-03 0. -1.
        -11    1    3    3    0    0 -0.58736319062E+01 -0.25560714622E+02 -0.18400937182E+02  0.32038167444E+02  0.51100000000E-03 0.  1.
         12    1    3    3    0    0  0.99663970208E+01 -0.12343071419E+02  0.28293627498E+00  0.15866963622E+02  0.00000000000E+00 0. -1.
</event>
<event>
 7    1  0.3141443E-011  0.5052885E+02  0.7816164E-02  0.1300439E+00
        -11   -1    0    0    0    0  0.00000000000E+00  0.00000000000E+00  0.45593999997E+02  0.45594000000E+02  0.51100000000E-03 0.  1.
         11   -1    0    0    0    0 -0.00000000000E+00 -0.00000000000E+00 -0.45593999997E+02  0.45594000000E+02  0.51100000000E-03 0. -1.
    9900012    2    1    2    0    0 -0.15291641526E+02 -0.10699397937E+02  0.36122777189E+02  0.50528850371E+02  0.29999971186E+02 0.  0.
         12    1    1    2    0    0  0.15291641526E+02  0.10699397937E+02 -0.36122777189E+02  0.40659149629E+02  0.00000000000E+00 0. -1.
         11    1    3    3    0    0 -0.10647536215E+02 -0.89450699799E+01  0.18667193316E+02  0.23277637572E+02  0.51100000000E-03 0. -1.
        -11    1    3    3    0    0 -0.75491316722E+01 -0.72379055682E+01  0.20698791842E+01  0.10661194404E+02  0.51100000000E-03 0.  1.
        -12    1    3    3    0    0  0.29050263610E+01  0.54835776107E+01  0.15385704688E+02  0.16590018394E+02  0.00000000000E+00 0.  1.
</event>
<event>
 7    1  0.3141443E-011  0.5052885E+02  0.7816164E-02  0.1300439E+00
        -11   -1    0    0    0    0  0.00000000000E+00  0.00000000000E+00  0.45593999997E+02  0.45594000000E+02  0.51100000000E-03 0.  1.
         11   -1    0    0    0    0 -0.00000000000E+00 -0.00000000000E+00 -0.45593999997E+02  0.45594000000E+02  0.51100000000E-03 0. -1.
    9900012    2    1    2    0    0  0.57177658188E+01 -0.25911979605E+02  0.30806543473E+02  0.50528847848E+02  0.29999963518E+02 0.  0.
         12    1    1    2    0    0 -0.57177658188E+01  0.25911979605E+02 -0.30806543473E+02  0.40659152152E+02  0.00000000000E+00 0. -1.
         11    1    3    3    0    0 -0.46626807935E+01 -0.35119151606E+00 -0.11298509519E+01  0.48104564334E+01  0.51100000000E-03 0. -1.
        -11    1    3    3    0    0  0.13713464174E+01 -0.17935552951E+02  0.94417463245E+01  0.20315295335E+02  0.51100000000E-03 0.  1.
         12    1    3    3    0    0  0.90091001949E+01 -0.76252351379E+01  0.22494648100E+02  0.25403096079E+02  0.00000000000E+00 0. -1.
</event>
<event>
 7    1  0.3141443E-011  0.5052882E+02  0.7816164E-02  0.1300439E+00
        -11   -1    0    0    0    0  0.00000000000E+00  0.00000000000E+00  0.45593999997E+02  0.45594000000E+02  0.51100000000E-03 0. -1.
         11   -1    0    0    0    0 -0.00000000000E+00 -0.00000000000E+00 -0.45593999997E+02  0.45594000000E+02  0.51100000000E-03 0.  1.
    9900012    2    1    2    0    0  0.37406139028E+02 -0.14899906158E+02 -0.56517776154E+01  0.50528818618E+02  0.29999874670E+02 0.  0.
         12    1    1    2    0    0 -0.37406139028E+02  0.14899906158E+02  0.56517776154E+01  0.40659181382E+02  0.00000000000E+00 0. -1.
         11    1    3    3    0    0  0.15795467692E+02  0.75870249620E+01 -0.11414147790E+01  0.17560255561E+02  0.51100000000E-03 0. -1.
        -11    1    3    3    0    0  0.18198492577E+02 -0.13829607546E+02 -0.57809187459E+01  0.23576730027E+02  0.51100000000E-03 0.  1.
        -12    1    3    3    0    0  0.34121787581E+01 -0.86573235739E+01  0.12705559095E+01  0.93918330298E+01  0.00000000000E+00 0.  1.
</event>
<event>
 7    1  0.3141443E-011  0.5052886E+02  0.7816164E-02  0.1300439E+00
        -11   -1    0    0    0    0  0.00000000000E+00  0.00000000000E+00  0.45593999997E+02  0.45594000000E+02  0.51100000000E-03 0. -1.
         11   -1    0    0    0    0 -0.00000000000E+00 -0.00000000000E+00 -0.45593999997E+02  0.45594000000E+02  0.51100000000E-03 0.  1.
    9900012    2    1    2    0    0 -0.45405261259E+01 -0.10977285101E+02 -0.38885070386E+02  0.50528857552E+02  0.29999993016E+02 0.  0.
         12    1    1    2    0    0  0.45405261259E+01  0.10977285101E+02  0.38885070386E+02  0.40659142448E+02  0.00000000000E+00 0. -1.
         11    1    3    3    0    0 -0.50545184963E+01  0.36856262466E+00 -0.94278539082E+01  0.10703664102E+02  0.51100000000E-03 0. -1.
        -11    1    3    3    0    0  0.37187526354E+01 -0.12562173089E+02 -0.32625365169E+02  0.35157527879E+02  0.51100000000E-03 0.  1.
        -12    1    3    3    0    0 -0.32047602650E+01  0.12163253639E+01  0.31681486918E+01  0.46676655707E+01  0.00000000000E+00 0.  1.
</event>
<event>
 7    1  0.3141443E-011  0.5052887E+02  0.7816164E-02  0.1300439E+00
        -11   -1    0    0    0    0  0.00000000000E+00  0.00000000000E+00  0.45593999997E+02  0.45594000000E+02  0.51100000000E-03 0.  1.
         11   -1    0    0    0    0 -0.00000000000E+00 -0.00000000000E+00 -0.45593999997E+02  0.45594000000E+02  0.51100000000E-03 0. -1.
    9900012    2    1    2    0    0  0.26676979302E+01  0.21627634819E+02  0.34326282967E+02  0.50528869384E+02  0.30000028979E+02 0.  0.
         12    1    1    2    0    0 -0.26676979302E+01 -0.21627634819E+02 -0.34326282967E+02  0.40659130616E+02  0.00000000000E+00 0. -1.
         11    1    3    3    0    0 -0.56491522851E+01  0.11210258936E+02 -0.35376320016E+00  0.12558183612E+02  0.51100000000E-03 0. -1.
        -11    1    3    3    0    0  0.27697015819E+01  0.67493402102E+01  0.98012158094E+01  0.12218374349E+02  0.51100000000E-03 0.  1.
        -12    1    3    3    0    0  0.55471486334E+01  0.36680356724E+01  0.24878830358E+02  0.25752311423E+02  0.00000000000E+00 0.  1.
</event>
<event>
 7    1  0.3141443E-011  0.5052887E+02  0.7816164E-02  0.1300439E+00
        -11   -1    0    0    0    0  0.00000000000E+00  0.00000000000E+00  0.45593999997E+02  0.45594000000E+02  0.51100000000E-03 0.  1.
         11   -1    0    0    0    0 -0.00000000000E+00 -0.00000000000E+00 -0.45593999997E+02  0.45594000000E+02  0.51100000000E-03 0. -1.
    9900012    2    1    2    0    0 -0.31427307675E+02  0.15942040262E+02 -0.20281538325E+02  0.50528866804E+02  0.30000021138E+02 0.  0.
         12    1    1    2    0    0  0.31427307675E+02 -0.15942040262E+02  0.20281538325E+02  0.40659133196E+02  0.00000000000E+00 0. -1.
         11    1    3    3    0    0 -0.14251007874E+02  0.18025806678E+02 -0.15116848630E+02  0.27505273032E+02  0.51100000000E-03 0. -1.
        -11    1    3    3    0    0 -0.65135057661E+01  0.34546807471E+01  0.35475232317E+01  0.81820228410E+01  0.51100000000E-03 0.  1.
         12    1    3    3    0    0 -0.10662794035E+02 -0.55384471635E+01 -0.87122129269E+01  0.14841570931E+02  0.00000000000E+00 0. -1.
</event>
<event>
 7    1  0.3141443E-011  0.5052886E+02  0.7816164E-02  0.1300439E+00
        -11   -1    0    0    0    0  0.00000000000E+00  0.00000000000E+00  0.45593999997E+02  0.45594000000E+02  0.51100000000E-03 0.  1.
         11   -1    0    0    0    0 -0.00000000000E+00 -0.00000000000E+00 -0.45593999997E+02  0.45594000000E+02  0.51100000000E-03 0. -1.
    9900012    2    1    2    0    0 -0.34486553254E+02 -0.21476774787E+02 -0.16097030163E+01  0.50528863827E+02  0.30000012087E+02 0.  0.
         12    1    1    2    0    0  0.34486553254E+02  0.21476774787E+02  0.16097030163E+01  0.40659136173E+02  0.00000000000E+00 0. -1.
         11    1    3    3    0    0 -0.38743674743E+01 -0.23860079328E+01  0.10035556075E+02  0.11018899364E+02  0.51100000000E-03 0. -1.
        -11    1    3    3    0    0 -0.99883402920E+01 -0.78854086643E+01  0.11497799686E+01  0.12777660421E+02  0.51100000000E-03 0.  1.
         12    1    3    3    0    0 -0.20623845487E+02 -0.11205358190E+02 -0.12795039060E+02  0.26732304042E+02  0.00000000000E+00 0. -1.
</event>
<event>
 7    1  0.3141443E-011  0.5052886E+02  0.7816164E-02  0.1300439E+00
        -11   -1    0    0    0    0  0.00000000000E+00  0.00000000000E+00  0.45593999997E+02  0.45594000000E+02  0.51100000000E-03 0. -1.
         11   -1    0    0    0    0 -0.00000000000E+00 -0.00000000000E+00 -0.45593999997E+02  0.45594000000E+02  0.51100000000E-03 0.  1.
    9900012    2    1    2    0    0 -0.12519270075E+02 -0.38640412777E+02  0.18308697767E+01  0.50528859491E+02  0.29999998908E+02 0.  0.
         12    1    1    2    0    0  0.12519270075E+02  0.38640412777E+02 -0.18308697767E+01  0.40659140509E+02  0.00000000000E+00 0. -1.
         11    1    3    3    0    0 -0.58093706689E+01 -0.16922877298E+02 -0.27169493361E+00  0.17894311443E+02  0.51100000000E-03 0. -1.
        -11    1    3    3    0    0 -0.14648919968E+02 -0.10208991242E+02  0.45849816300E+01  0.18434652566E+02  0.51100000000E-03 0.  1.
         12    1    3    3    0    0  0.79390205619E+01 -0.11508544237E+02 -0.24824169198E+01  0.14199895482E+02  0.00000000000E+00 0. -1.
</event>
<event>
 7    1  0.3141443E-011  0.5052886E+02  0.7816164E-02  0.1300439E+00
        -11   -1    0    0    0    0  0.00000000000E+00  0.00000000000E+00  0.45593999997E+02  0.45594000000E+02  0.51100000000E-03 0.  1.
         11   -1    0    0    0    0 -0.00000000000E+00 -0.00000000000E+00 -0.45593999997E+02  0.45594000000E+02  0.51100000000E-03 0. -1.
    9900012    2    1    2    0    0 -0.29737260604E+02  0.14908779379E+02  0.23379242222E+02  0.50528864031E+02  0.30000012710E+02 0.  0.
         12    1    1    2    0    0  0.29737260604E+02 -0.14908779379E+02 -0.23379242222E+02  0.40659135969E+02  0.00000000000E+00 0. -1.
         11    1    3    3    0    0 -0.19529243182E-03  0.27987365505E+01  0.11945154492E+02  0.12268644685E+02  0.51100000000E-03 0. -1.
        -11    1    3    3    0    0 -0.18785683813E+02 -0.14953698660E+01  0.79361111690E+01  0.20447980539E+02  0.51100000000E-03 0.  1.
         12    1    3    3    0    0 -0.10951381499E+02  0.13605412694E+02  0.34979765618E+01  0.17812238808E+02  0.00000000000E+00 0. -1.
</event>
<event>
 7    1  0.3141443E-011  0.5052886E+02  0.7816164E-02  0.1300439E+00
        -11   -1    0    0    0    0  0.00000000000E+00  0.00000000000E+00  0.45593999997E+02  0.45594000000E+02  0.51100000000E-03 0.  1.
         11   -1    0    0    0    0 -0.00000000000E+00 -0.00000000000E+00 -0.45593999997E+02  0.45594000000E+02  0.51100000000E-03 0. -1.
    9900012    2    1    2    0    0  0.20462166822E+02  0.28069278537E+02 -0.21132460314E+02  0.50528861451E+02  0.30000004867E+02 0.  0.
         12    1    1    2    0    0 -0.20462166822E+02 -0.28069278537E+02  0.21132460314E+02  0.40659138549E+02  0.00000000000E+00 0. -1.
         11    1    3    3    0    0  0.13415885140E+02  0.18733309824E+01 -0.34627027953E+01  0.13981618432E+02  0.51100000000E-03 0. -1.
        -11    1    3    3    0    0  0.41553838570E+01 -0.63840808122E+00  0.14788249449E+00  0.42067385669E+01  0.51100000000E-03 0.  1.
        -12    1    3    3    0    0  0.28908978251E+01  0.26834355635E+02 -0.17817640013E+02  0.32340504452E+02  0.00000000000E+00 0.  1.
</event>
<event>
 7    1  0.3141443E-011  0.5052887E+02  0.7816164E-02  0.1300439E+00
        -11   -1    0    0    0    0  0.00000000000E+00  0.00000000000E+00  0.45593999997E+02  0.45594000000E+02  0.51100000000E-03 0.  1.
         11   -1    0    0    0    0 -0.00000000000E+00 -0.00000000000E+00 -0.45593999997E+02  0.45594000000E+02  0.51100000000E-03 0. -1.
    9900012    2    1    2    0    0 -0.31339792132E+02  0.18704997932E+02 -0.17919420529E+02  0.50528866333E+02  0.30000019705E+02 0.  0.
         12    1    1    2    0    0  0.31339792132E+02 -0.18704997932E+02  0.17919420529E+02  0.40659133667E+02  0.00000000000E+00 0. -1.
         11    1    3    3    0    0 -0.18094427364E+02  0.15245246725E+02  0.69195403900E-01  0.23660740428E+02  0.51100000000E-03 0. -1.
        -11    1    3    3    0    0  0.46515345375E+00 -0.50527779672E-01  0.21797882604E+01  0.22294389234E+01  0.51100000000E-03 0.  1.
         12    1    3    3    0    0 -0.13710518222E+02  0.35102789861E+01 -0.20168404193E+02  0.24638686982E+02  0.00000000000E+00 0. -1.
</event>
<event>
 7    1  0.3141443E-011  0.5052885E+02  0.7816164E-02  0.1300439E+00
        -11   -1    0    0    0    0  0.00000000000E+00  0.00000000000E+00  0.45593999997E+02  0.45594000000E+02  0.51100000000E-03 0.  1.
         11   -1    0    0    0    0 -0.00000000000E+00 -0.00000000000E+00 -0.45593999997E+02  0.45594000000E+02  0.51100000000E-03 0. -1.
    9900012    2    1    2    0    0  0.31302958715E+02  0.25937487136E+02 -0.73353721196E+00  0.50528849245E+02  0.29999967766E+02 0.  0.
         12    1    1    2    0    0 -0.31302958715E+02 -0.25937487136E+02  0.73353721196E+00  0.40659150755E+02  0.00000000000E+00 0. -1.
         11    1    3    3    0    0  0.13652012849E+01  0.78322707787E+00 -0.40792401331E+01  0.43723471418E+01  0.51100000000E-03 0. -1.
        -11    1    3    3    0    0  0.16745545351E+01  0.76150230106E+01  0.95407087190E+01  0.12321437881E+02  0.51100000000E-03 0.  1.
         12    1    3    3    0    0  0.28263202895E+02  0.17539237048E+02 -0.61950057979E+01  0.33835064222E+02  0.00000000000E+00 0. -1.
</event>
<event>
 7    1  0.3141443E-011  0.5052885E+02  0.7816164E-02  0.1300439E+00
        -11   -1    0    0    0    0  0.00000000000E+00  0.00000000000E+00  0.45593999997E+02  0.45594000000E+02  0.51100000000E-03 0.  1.
         11   -1    0    0    0    0 -0.00000000000E+00 -0.00000000000E+00 -0.45593999997E+02  0.45594000000E+02  0.51100000000E-03 0. -1.
    9900012    2    1    2    0    0 -0.10581046247E+02  0.12566948364E+02  0.37192465086E+02  0.50528853550E+02  0.29999980850E+02 0.  0.
         12    1    1    2    0    0  0.10581046247E+02 -0.12566948364E+02 -0.37192465086E+02  0.40659146450E+02  0.00000000000E+00 0. -1.
         11    1    3    3    0    0 -0.15695449357E+02  0.32769495198E+01  0.15824133857E+02  0.22527510765E+02  0.51100000000E-03 0.  1.
        -11    1    3    3    0    0 -0.36176863243E+00 -0.37509084277E+01  0.29898237871E+01  0.48103260924E+01  0.51100000000E-03 0. -1.
         12    1    3    3    0    0  0.54761717431E+01  0.13040907272E+02  0.18378507442E+02  0.23191016692E+02  0.00000000000E+00 0. -1.
</event>
<event>
 7    1  0.3141443E-011  0.5052886E+02  0.7816164E-02  0.1300439E+00
        -11   -1    0    0    0    0  0.00000000000E+00  0.00000000000E+00  0.45593999997E+02  0.45594000000E+02  0.51100000000E-03 0.  1.
         11   -1    0    0    0    0 -0.00000000000E+00 -0.00000000000E+00 -0.45593999997E+02  0.45594000000E+02  0.51100000000E-03 0. -1.
    9900012    2    1    2    0    0  0.36854585123E+01  0.25878624737E+02  0.31142889166E+02  0.50528863655E+02  0.30000011566E+02 0.  0.
         12    1    1    2    0    0 -0.36854585123E+01 -0.25878624737E+02 -0.31142889166E+02  0.40659136345E+02  0.00000000000E+00 0. -1.
         11    1    3    3    0    0  0.17547431563E+01 -0.24253212468E+01  0.10666727986E+02  0.11078826332E+02  0.51100000000E-03 0. -1.
        -11    1    3    3    0    0  0.99647446415E+01  0.17878582391E+02  0.13856890949E+02  0.24717468946E+02  0.51100000000E-03 0.  1.
         12    1    3    3    0    0 -0.80340292855E+01  0.10425363592E+02  0.66192702310E+01  0.14732568377E+02  0.00000000000E+00 0. -1.
</event>
<event>
 7    1  0.3141443E-011  0.5052887E+02  0.7816164E-02  0.1300439E+00
        -11   -1    0    0    0    0  0.00000000000E+00  0.00000000000E+00  0.45593999997E+02  0.45594000000E+02  0.51100000000E-03 0.  1.
         11   -1    0    0    0    0 -0.00000000000E+00 -0.00000000000E+00 -0.45593999997E+02  0.45594000000E+02  0.51100000000E-03 0. -1.
    9900012    2    1    2    0    0  0.27334757056E+02  0.81369259105E+00  0.30088434107E+02  0.50528869341E+02  0.30000028848E+02 0.  0.
         12    1    1    2    0    0 -0.27334757056E+02 -0.81369259105E+00 -0.30088434107E+02  0.40659130659E+02  0.00000000000E+00 0. -1.
         11    1    3    3    0    0  0.16957408052E+02  0.13400650703E+02  0.15663511118E+02  0.26692259326E+02  0.51100000000E-03 0. -1.
        -11    1    3    3    0    0  0.36457484783E+01 -0.32206317226E+01 -0.59279872487E+00  0.49005470357E+01  0.51100000000E-03 0.  1.
        -12    1    3    3    0    0  0.67316005260E+01 -0.93663263896E+01  0.15017721714E+02  0.18936062979E+02  0.00000000000E+00 0.  1.
</event>
<event>
 7    1  0.3141443E-011  0.5052886E+02  0.7816164E-02  0.1300439E+00
        -11   -1    0    0    0    0  0.00000000000E+00  0.00000000000E+00  0.45593999997E+02  0.45594000000E+02  0.51100000000E-03 0.  1.
         11   -1    0    0    0    0 -0.00000000000E+00 -0.00000000000E+00 -0.45593999997E+02  0.45594000000E+02  0.51100000000E-03 0. -1.
    9900012    2    1    2    0    0  0.24634152101E+02 -0.61375269721E+01  0.31759331883E+02  0.50528857747E+02  0.29999993608E+02 0.  0.
         12    1    1    2    0    0 -0.24634152101E+02  0.61375269721E+01 -0.31759331883E+02  0.40659142253E+02  0.00000000000E+00 0. -1.
         11    1    3    3    0    0  0.77874292893E+01  0.42257565768E+01  0.21014210458E+01  0.91058796530E+01  0.51100000000E-03 0. -1.
        -11    1    3    3    0    0  0.13524961039E+02  0.33234594255E+01  0.19897442104E+02  0.24287407359E+02  0.51100000000E-03 0.  1.
        -12    1    3    3    0    0  0.33217617728E+01 -0.13686742974E+02  0.97604687330E+01  0.17135570735E+02  0.00000000000E+00 0.  1.
</event>
<event>
 7    1  0.3141443E-011  0.5052886E+02  0.7816164E-02  0.1300439E+00
        -11   -1    0    0    0    0  0.00000000000E+00  0.00000000000E+00  0.45593999997E+02  0.45594000000E+02  0.51100000000E-03 0.  1.
         11   -1    0    0    0    0 -0.00000000000E+00 -0.00000000000E+00 -0.45593999997E+02  0.45594000000E+02  0.51100000000E-03 0. -1.
    9900012    2    1    2    0    0 -0.17201959141E+02 -0.15402745447E+02  0.33466606622E+02  0.50528859277E+02  0.29999998257E+02 0.  0.
         12    1    1    2    0    0  0.17201959141E+02  0.15402745447E+02 -0.33466606622E+02  0.40659140723E+02  0.00000000000E+00 0. -1.
         11    1    3    3    0    0 -0.14933914377E+02  0.49739949640E+01  0.17887468723E+02  0.23826958725E+02  0.51100000000E-03 0.  1.
        -11    1    3    3    0    0  0.23612113783E+01 -0.99248442096E+01  0.64182687985E+01  0.12052884567E+02  0.51100000000E-03 0. -1.
        -12    1    3    3    0    0 -0.46292561427E+01 -0.10451896201E+02  0.91608690997E+01  0.14649015984E+02  0.00000000000E+00 0.  1.
</event>
<event>
 7    1  0.3141443E-011  0.5052886E+02  0.7816164E-02  0.1300439E+00
        -11   -1    0    0    0    0  0.00000000000E+00  0.00000000000E+00  0.45593999997E+02  0.45594000000E+02  0.51100000000E-03 0.  1.
         11   -1    0    0    0    0 -0.00000000000E+00 -0.00000000000E+00 -0.45593999997E+02  0.45594000000E+02  0.51100000000E-03 0. -1.
    9900012    2    1    2    0    0 -0.10646642216E+02 -0.17072363945E+02  0.35331979273E+02  0.50528863751E+02  0.30000011858E+02 0.  0.
         12    1    1    2    0    0  0.10646642216E+02  0.17072363945E+02 -0.35331979273E+02  0.40659136249E+02  0.00000000000E+00 0. -1.
         11    1    3    3    0    0 -0.50576960786E+01 -0.77421040658E+01  0.12921633456E+01  0.93375666724E+01  0.51100000000E-03 0.  1.
        -11    1    3    3    0    0 -0.12320700682E+01 -0.14673699806E+02  0.15353253430E+02  0.21273407198E+02  0.51100000000E-03 0. -1.
         12    1    3    3    0    0 -0.43568760689E+01  0.53434399268E+01  0.18686562497E+02  0.19917889881E+02  0.00000000000E+00 0. -1.
</event>
<event>
 7    1  0.3141443E-011  0.5052884E+02  0.7816164E-02  0.1300439E+00
        -11   -1    0    0    0    0  0.00000000000E+00  0.00000000000E+00  0.45593999997E+02  0.45594000000E+02  0.51100000000E-03 0.  1.
         11   -1    0    0    0    0 -0.00000000000E+00 -0.00000000000E+00 -0.45593999997E+02  0.45594000000E+02  0.51100000000E-03 0. -1.
    9900012    2    1    2    0    0 -0.20284928791E+02 -0.40437079172E+01  0.35004815115E+02  0.50528843700E+02  0.29999950911E+02 0.  0.
         12    1    1    2    0    0  0.20284928791E+02  0.40437079172E+01 -0.35004815115E+02  0.40659156300E+02  0.00000000000E+00 0. -1.
         11    1    3    3    0    0 -0.86263464251E+01  0.20849794373E+01  0.41738073346E+01  0.98072248790E+01  0.51100000000E-03 0. -1.
        -11    1    3    3    0    0 -0.70304274174E+01  0.72994093393E+01  0.21382628795E+02  0.23662736546E+02  0.51100000000E-03 0.  1.
        -12    1    3    3    0    0 -0.46281549480E+01 -0.13428096694E+02  0.94483789851E+01  0.17058882275E+02  0.00000000000E+00 0.  1.
</event>
<event>
 7    1  0.3141443E-011  0.5052881E+02  0.7816164E-02  0.1300439E+00
        -11   -1    0    0    0    0  0.00000000000E+00  0.00000000000E+00  0.45593999997E+02  0.45594000000E+02  0.51100000000E-03 0.  1.
         11   -1    0    0    0    0 -0.00000000000E+00 -0.00000000000E+00 -0.45593999997E+02  0.45594000000E+02  0.51100000000E-03 0. -1.
    9900012    2    1    2    0    0  0.23670599820E+02  0.21204685143E+02  0.25362051888E+02  0.50528811077E+02  0.29999851751E+02 0.  0.
         12    1    1    2    0    0 -0.23670599820E+02 -0.21204685143E+02 -0.25362051888E+02  0.40659188923E+02  0.00000000000E+00 0. -1.
         11    1    3    3    0    0  0.90057625056E+01  0.12719392606E+02  0.26617513482E+02  0.30844427873E+02  0.51100000000E-03 0. -1.
        -11    1    3    3    0    0  0.40560369944E+01  0.78191816057E+01 -0.19857614168E+01  0.90296337550E+01  0.51100000000E-03 0.  1.
        -12    1    3    3    0    0  0.10608800320E+02  0.66611093120E+00  0.73029982326E+00  0.10654749450E+02  0.00000000000E+00 0.  1.
</event>
<event>
 7    1  0.3141443E-011  0.5052886E+02  0.7816164E-02  0.1300439E+00
        -11   -1    0    0    0    0  0.00000000000E+00  0.00000000000E+00  0.45593999997E+02  0.45594000000E+02  0.51100000000E-03 0.  1.
         11   -1    0    0    0    0 -0.00000000000E+00 -0.00000000000E+00 -0.45593999997E+02  0.45594000000E+02  0.51100000000E-03 0. -1.
    9900012    2    1    2    0    0 -0.36106734644E+02  0.90977931115E+01  0.16330937042E+02  0.50528860427E+02  0.30000001754E+02 0.  0.
         12    1    1    2    0    0  0.36106734644E+02 -0.90977931115E+01 -0.16330937042E+02  0.40659139573E+02  0.00000000000E+00 0. -1.
         11    1    3    3    0    0 -0.30595527018E+01 -0.46543966184E+01 -0.18248277511E+01  0.58612513338E+01  0.51100000000E-03 0. -1.
        -11    1    3    3    0    0 -0.21173182771E+01  0.80465178949E+01 -0.62076331629E-01  0.83206574650E+01  0.51100000000E-03 0.  1.
        -12    1    3    3    0    0 -0.30929863665E+02  0.57056718350E+01  0.18217841125E+02  0.36346951628E+02  0.00000000000E+00 0.  1.
</event>
<event>
 7    1  0.3141443E-011  0.5052888E+02  0.7816164E-02  0.1300439E+00
        -11   -1    0    0    0    0  0.00000000000E+00  0.00000000000E+00  0.45593999997E+02  0.45594000000E+02  0.51100000000E-03 0. -1.
         11   -1    0    0    0    0 -0.00000000000E+00 -0.00000000000E+00 -0.45593999997E+02  0.45594000000E+02  0.51100000000E-03 0.  1.
    9900012    2    1    2    0    0 -0.21991906306E+02  0.26162004478E+02 -0.22024303806E+02  0.50528875816E+02  0.30000048530E+02 0.  0.
         12    1    1    2    0    0  0.21991906306E+02 -0.26162004478E+02  0.22024303806E+02  0.40659124184E+02  0.00000000000E+00 0. -1.
         11    1    3    3    0    0 -0.14835351027E+01  0.65242835392E+01 -0.13480116735E+02  0.15049275715E+02  0.51100000000E-03 0. -1.
        -11    1    3    3    0    0 -0.18319343310E+01  0.12531751987E+02 -0.89243665312E+01  0.15493389220E+02  0.51100000000E-03 0.  1.
         12    1    3    3    0    0 -0.18676436872E+02  0.71059689520E+01  0.38017945993E+00  0.19986210882E+02  0.00000000000E+00 0. -1.
</event>
<event>
 7    1  0.3141443E-011  0.5052886E+02  0.7816164E-02  0.1300439E+00
        -11   -1    0    0    0    0  0.00000000000E+00  0.00000000000E+00  0.45593999997E+02  0.45594000000E+02  0.51100000000E-03 0.  1.
         11   -1    0    0    0    0 -0.00000000000E+00 -0.00000000000E+00 -0.45593999997E+02  0.45594000000E+02  0.51100000000E-03 0. -1.
    9900012    2    1    2    0    0 -0.38177722029E+02  0.38595109801E+01  0.13443641366E+02  0.50528858624E+02  0.29999996272E+02 0.  0.
         12    1    1    2    0    0  0.38177722029E+02 -0.38595109801E+01 -0.13443641366E+02  0.40659141376E+02  0.00000000000E+00 0. -1.
         11    1    3    3    0    0 -0.13197962685E+02 -0.55610245938E+00 -0.32557124392E+01  0.13604967208E+02  0.51100000000E-03 0. -1.
        -11    1    3    3    0    0 -0.25025863835E+02 -0.28345185461E+01  0.15505014395E+02  0.29575899441E+02  0.51100000000E-03 0.  1.
         12    1    3    3    0    0  0.46104491999E-01  0.72501319855E+01  0.11943394102E+01  0.73479919746E+01  0.00000000000E+00 0. -1.
</event>
<event>
 7    1  0.3141443E-011  0.5052887E+02  0.7816164E-02  0.1300439E+00
        -11   -1    0    0    0    0  0.00000000000E+00  0.00000000000E+00  0.45593999997E+02  0.45594000000E+02  0.51100000000E-03 0.  1.
         11   -1    0    0    0    0 -0.00000000000E+00 -0.00000000000E+00 -0.45593999997E+02  0.45594000000E+02  0.51100000000E-03 0. -1.
    9900012    2    1    2    0    0  0.35502517529E+02 -0.14927936511E+02  0.13034293969E+02  0.50528869923E+02  0.30000030617E+02 0.  0.
         12    1    1    2    0    0 -0.35502517529E+02  0.14927936511E+02 -0.13034293969E+02  0.40659130077E+02  0.00000000000E+00 0. -1.
         11    1    3    3    0    0  0.13684980721E+01 -0.58537595370E+00 -0.16047834780E+01  0.21887855658E+01  0.51100000000E-03 0. -1.
        -11    1    3    3    0    0  0.18108858275E+02 -0.18325401067E+02  0.18077819802E+02  0.31473141586E+02  0.51100000000E-03 0.  1.
        -12    1    3    3    0    0  0.16025161182E+02  0.39828405091E+01 -0.34387423551E+01  0.16866942770E+02  0.00000000000E+00 0.  1.
</event>
<event>
 7    1  0.3141443E-011  0.5052887E+02  0.7816164E-02  0.1300439E+00
        -11   -1    0    0    0    0  0.00000000000E+00  0.00000000000E+00  0.45593999997E+02  0.45594000000E+02  0.51100000000E-03 0. -1.
         11   -1    0    0    0    0 -0.00000000000E+00 -0.00000000000E+00 -0.45593999997E+02  0.45594000000E+02  0.51100000000E-03 0.  1.
    9900012    2    1    2    0    0 -0.72322497048E+01 -0.27079975457E+01 -0.39918998013E+02  0.50528867091E+02  0.30000022011E+02 0.  0.
         12    1    1    2    0    0  0.72322497048E+01  0.27079975457E+01  0.39918998013E+02  0.40659132909E+02  0.00000000000E+00 0. -1.
         11    1    3    3    0    0  0.13308506886E+01  0.76366722449E+01 -0.16035091923E+02  0.17810505320E+02  0.51100000000E-03 0. -1.
        -11    1    3    3    0    0 -0.96146851163E+01 -0.47893958291E+00 -0.19747614752E+02  0.21969065562E+02  0.51100000000E-03 0.  1.
        -12    1    3    3    0    0  0.10515847229E+01 -0.98657302077E+01 -0.41362913385E+01  0.10749296209E+02  0.00000000000E+00 0.  1.
</event>
<event>
 7    1  0.3141443E-011  0.5052886E+02  0.7816164E-02  0.1300439E+00
        -11   -1    0    0    0    0  0.00000000000E+00  0.00000000000E+00  0.45593999997E+02  0.45594000000E+02  0.51100000000E-03 0.  1.
         11   -1    0    0    0    0 -0.00000000000E+00 -0.00000000000E+00 -0.45593999997E+02  0.45594000000E+02  0.51100000000E-03 0. -1.
    9900012    2    1    2    0    0  0.91150911384E+01  0.13385185377E+02  0.37295007045E+02  0.50528860504E+02  0.30000001989E+02 0.  0.
         12    1    1    2    0    0 -0.91150911384E+01 -0.13385185377E+02 -0.37295007045E+02  0.40659139496E+02  0.00000000000E+00 0. -1.
         11    1    3    3    0    0  0.66047407445E+01  0.68935644642E+01  0.14173863969E+02  0.17089243734E+02  0.51100000000E-03 0.  1.
        -11    1    3    3    0    0  0.11251819695E+02 -0.23114580455E+01  0.86552936387E+01  0.14382642073E+02  0.51100000000E-03 0. -1.
        -12    1    3    3    0    0 -0.87414693016E+01  0.88030789580E+01  0.14465849437E+02  0.19056974698E+02  0.00000000000E+00 0.  1.
</event>
<event>
 7    1  0.3141443E-011  0.5052886E+02  0.7816164E-02  0.1300439E+00
        -11   -1    0    0    0    0  0.00000000000E+00  0.00000000000E+00  0.45593999997E+02  0.45594000000E+02  0.51100000000E-03 0. -1.
         11   -1    0    0    0    0 -0.00000000000E+00 -0.00000000000E+00 -0.45593999997E+02  0.45594000000E+02  0.51100000000E-03 0.  1.
    9900012    2    1    2    0    0  0.37603640686E+02  0.63120308706E+01  0.14117011857E+02  0.50528861416E+02  0.30000004761E+02 0.  0.
         12    1    1    2    0    0 -0.37603640686E+02 -0.63120308706E+01 -0.14117011857E+02  0.40659138584E+02  0.00000000000E+00 0. -1.
         11    1    3    3    0    0  0.12197697995E+02 -0.55949785383E+01 -0.16142195030E+01  0.13516409512E+02  0.51100000000E-03 0.  1.
        -11    1    3    3    0    0  0.55362083832E+00  0.55328100198E+00  0.87857224864E+01  0.88205178855E+01  0.51100000000E-03 0. -1.
        -12    1    3    3    0    0  0.24852321853E+02  0.11353728407E+02  0.69455088740E+01  0.28191934019E+02  0.00000000000E+00 0.  1.
</event>
<event>
 7    1  0.3141443E-011  0.5052886E+02  0.7816164E-02  0.1300439E+00
        -11   -1    0    0    0    0  0.00000000000E+00  0.00000000000E+00  0.45593999997E+02  0.45594000000E+02  0.51100000000E-03 0. -1.
         11   -1    0    0    0    0 -0.00000000000E+00 -0.00000000000E+00 -0.45593999997E+02  0.45594000000E+02  0.51100000000E-03 0.  1.
    9900012    2    1    2    0    0  0.13335144558E+02 -0.23048854695E+02 -0.30726043944E+02  0.50528861303E+02  0.30000004415E+02 0.  0.
         12    1    1    2    0    0 -0.13335144558E+02  0.23048854695E+02  0.30726043944E+02  0.40659138697E+02  0.00000000000E+00 0. -1.
         11    1    3    3    0    0  0.21468001750E+01 -0.10512899230E+02 -0.33498187945E+01  0.11240599959E+02  0.51100000000E-03 0. -1.
        -11    1    3    3    0    0  0.12793837424E+02 -0.17725113512E+02 -0.25391732663E+02  0.33505253513E+02  0.51100000000E-03 0.  1.
        -12    1    3    3    0    0 -0.16054930413E+01  0.51891580471E+01 -0.19844924866E+01  0.57830078310E+01  0.00000000000E+00 0.  1.
</event>
<event>
 7    1  0.3141443E-011  0.5052886E+02  0.7816164E-02  0.1300439E+00
        -11   -1    0    0    0    0  0.00000000000E+00  0.00000000000E+00  0.45593999997E+02  0.45594000000E+02  0.51100000000E-03 0.  1.
         11   -1    0    0    0    0 -0.00000000000E+00 -0.00000000000E+00 -0.45593999997E+02  0.45594000000E+02  0.51100000000E-03 0. -1.
    9900012    2    1    2    0    0 -0.26093134286E+02 -0.15432206374E+02  0.27095411044E+02  0.50528856501E+02  0.29999989822E+02 0.  0.
         12    1    1    2    0    0  0.26093134286E+02  0.15432206374E+02 -0.27095411044E+02  0.40659143499E+02  0.00000000000E+00 0. -1.
         11    1    3    3    0    0 -0.41037020499E+01  0.12681442502E+01  0.10329746645E+02  0.11187145586E+02  0.51100000000E-03 0. -1.
        -11    1    3    3    0    0 -0.68232990683E+01 -0.11693175474E+02  0.18878607160E+02  0.23231219757E+02  0.51100000000E-03 0.  1.
         12    1    3    3    0    0 -0.15166133167E+02 -0.50071751502E+01 -0.21129427618E+01  0.16110491158E+02  0.00000000000E+00 0. -1.
</event>
<event>
 7    1  0.3141443E-011  0.5052889E+02  0.7816164E-02  0.1300439E+00
        -11   -1    0    0    0    0  0.00000000000E+00  0.00000000000E+00  0.45593999997E+02  0.45594000000E+02  0.51100000000E-03 0.  1.
         11   -1    0    0    0    0 -0.00000000000E+00 -0.00000000000E+00 -0.45593999997E+02  0.45594000000E+02  0.51100000000E-03 0. -1.
    9900012    2    1    2    0    0  0.28359318343E+02  0.45355115375E+01  0.28780925251E+02  0.50528887121E+02  0.30000082892E+02 0.  0.
         12    1    1    2    0    0 -0.28359318343E+02 -0.45355115375E+01 -0.28780925251E+02  0.40659112879E+02  0.00000000000E+00 0. -1.
         11    1    3    3    0    0  0.10939347560E+02  0.27942942754E+01  0.41483431739E+01  0.12028555894E+02  0.51100000000E-03 0. -1.
        -11    1    3    3    0    0  0.13774394023E+02 -0.10176680817E+02  0.14298039833E+02  0.22309923946E+02  0.51100000000E-03 0.  1.
        -12    1    3    3    0    0  0.36455767604E+01  0.11917898079E+02  0.10334542244E+02  0.16190407281E+02  0.00000000000E+00 0.  1.
</event>
<event>
 7    1  0.3141443E-011  0.5052899E+02  0.7816164E-02  0.1300438E+00
        -11   -1    0    0    0    0  0.00000000000E+00  0.00000000000E+00  0.45593999997E+02  0.45594000000E+02  0.51100000000E-03 0.  1.
         11   -1    0    0    0    0 -0.00000000000E+00 -0.00000000000E+00 -0.45593999997E+02  0.45594000000E+02  0.51100000000E-03 0. -1.
    9900012    2    1    2    0    0  0.31727513927E+02 -0.23991404165E+02  0.84221574060E+01  0.50528986864E+02  0.30000386068E+02 0.  0.
         12    1    1    2    0    0 -0.31727513927E+02  0.23991404165E+02 -0.84221574060E+01  0.40659013136E+02  0.00000000000E+00 0. -1.
         11    1    3    3    0    0  0.13237642925E+02 -0.70895833198E+01 -0.36326160504E+01  0.15449701664E+02  0.51100000000E-03 0. -1.
        -11    1    3    3    0    0  0.21025965602E+02 -0.19632954973E+02  0.86713929919E+01  0.30045585486E+02  0.51100000000E-03 0.  1.
         12    1    3    3    0    0 -0.25360946004E+01  0.27311341276E+01  0.33833804644E+01  0.50336997141E+01  0.00000000000E+00 0. -1.
</event>
<event>
 7    1  0.3141443E-011  0.5052886E+02  0.7816164E-02  0.1300439E+00
        -11   -1    0    0    0    0  0.00000000000E+00  0.00000000000E+00  0.45593999997E+02  0.45594000000E+02  0.51100000000E-03 0.  1.
         11   -1    0    0    0    0 -0.00000000000E+00 -0.00000000000E+00 -0.45593999997E+02  0.45594000000E+02  0.51100000000E-03 0. -1.
    9900012    2    1    2    0    0 -0.31682085393E+02 -0.21938134626E+02  0.12966463655E+02  0.50528862461E+02  0.30000007936E+02 0.  0.
         12    1    1    2    0    0  0.31682085393E+02  0.21938134626E+02 -0.12966463655E+02  0.40659137539E+02  0.00000000000E+00 0. -1.
         11    1    3    3    0    0 -0.47366908926E+01 -0.12108598946E+02  0.28155897226E+01  0.13303456498E+02  0.51100000000E-03 0. -1.
        -11    1    3    3    0    0 -0.11585467879E+02 -0.81653377993E+01  0.15379603924E+02  0.20914780049E+02  0.51100000000E-03 0.  1.
         12    1    3    3    0    0 -0.15359926621E+02 -0.16641978814E+01 -0.52287299922E+01  0.16310625914E+02  0.00000000000E+00 0. -1.
</event>
<event>
 7    1  0.3141443E-011  0.5052886E+02  0.7816164E-02  0.1300439E+00
        -11   -1    0    0    0    0  0.00000000000E+00  0.00000000000E+00  0.45593999997E+02  0.45594000000E+02  0.51100000000E-03 0.  1.
         11   -1    0    0    0    0 -0.00000000000E+00 -0.00000000000E+00 -0.45593999997E+02  0.45594000000E+02  0.51100000000E-03 0. -1.
    9900012    2    1    2    0    0 -0.76571472732E+00 -0.29924536959E+02  0.27515476346E+02  0.50528859948E+02  0.30000000297E+02 0.  0.
         12    1    1    2    0    0  0.76571472732E+00  0.29924536959E+02 -0.27515476346E+02  0.40659140052E+02  0.00000000000E+00 0. -1.
         11    1    3    3    0    0  0.43706710059E+01 -0.46743457567E+01  0.11998756458E+02  0.13598618683E+02  0.51100000000E-03 0. -1.
        -11    1    3    3    0    0  0.60287140086E+01 -0.15050125156E+02  0.14537164526E+02  0.21775693159E+02  0.51100000000E-03 0.  1.
        -12    1    3    3    0    0 -0.11165099742E+02 -0.10200066046E+02  0.97955536210E+00  0.15154548106E+02  0.00000000000E+00 0.  1.
</event>
<event>
 7    1  0.3141443E-011  0.5052887E+02  0.7816164E-02  0.1300439E+00
        -11   -1    0    0    0    0  0.00000000000E+00  0.00000000000E+00  0.45593999997E+02  0.45594000000E+02  0.51100000000E-03 0. -1.
         11   -1    0    0    0    0 -0.00000000000E+00 -0.00000000000E+00 -0.45593999997E+02  0.45594000000E+02  0.51100000000E-03 0.  1.
    9900012    2    1    2    0    0  0.39790317713E+02  0.23956374334E+01  0.80097907155E+01  0.50528865605E+02  0.30000017493E+02 0.  0.
         12    1    1    2    0    0 -0.39790317713E+02 -0.23956374334E+01 -0.80097907155E+01  0.40659134395E+02  0.00000000000E+00 0. -1.
         11    1    3    3    0    0  0.60470271945E+01 -0.29963812053E+01  0.73034664288E+01  0.99441168716E+01  0.51100000000E-03 0. -1.
        -11    1    3    3    0    0  0.31056055720E+02  0.27589554532E+00  0.72113635302E+01  0.31883514227E+02  0.51100000000E-03 0.  1.
         12    1    3    3    0    0  0.26872347986E+01  0.51161230934E+01 -0.65050392435E+01  0.87012345060E+01  0.00000000000E+00 0. -1.
</event>
<event>
 7    1  0.3141443E-011  0.5052886E+02  0.7816164E-02  0.1300439E+00
        -11   -1    0    0    0    0  0.00000000000E+00  0.00000000000E+00  0.45593999997E+02  0.45594000000E+02  0.51100000000E-03 0.  1.
         11   -1    0    0    0    0 -0.00000000000E+00 -0.00000000000E+00 -0.45593999997E+02  0.45594000000E+02  0.51100000000E-03 0. -1.
    9900012    2    1    2    0    0 -0.36252193369E+01 -0.98139943257E+01  0.39290060882E+02  0.50528861003E+02  0.30000003505E+02 0.  0.
         12    1    1    2    0    0  0.36252193369E+01  0.98139943257E+01 -0.39290060882E+02  0.40659138997E+02  0.00000000000E+00 0. -1.
         11    1    3    3    0    0  0.19383519714E+01  0.47970495575E+01  0.22716502964E+02  0.23298248862E+02  0.51100000000E-03 0.  1.
        -11    1    3    3    0    0 -0.65916336132E+01  0.21847401373E+00  0.65948416449E+01  0.93268055179E+01  0.51100000000E-03 0. -1.
         12    1    3    3    0    0  0.10280623049E+01 -0.14829517897E+02  0.99787162727E+01  0.17903806623E+02  0.00000000000E+00 0. -1.
</event>
<event>
 7    1  0.3141443E-011  0.5052886E+02  0.7816164E-02  0.1300439E+00
        -11   -1    0    0    0    0  0.00000000000E+00  0.00000000000E+00  0.45593999997E+02  0.45594000000E+02  0.51100000000E-03 0.  1.
         11   -1    0    0    0    0 -0.00000000000E+00 -0.00000000000E+00 -0.45593999997E+02  0.45594000000E+02  0.51100000000E-03 0. -1.
    9900012    2    1    2    0    0 -0.26524751899E+02 -0.30667241561E+02 -0.30205236307E+01  0.50528859192E+02  0.29999998000E+02 0.  0.
         12    1    1    2    0    0  0.26524751899E+02  0.30667241561E+02  0.30205236307E+01  0.40659140808E+02  0.00000000000E+00 0. -1.
         11    1    3    3    0    0  0.26075320632E+01  0.67165598636E+00 -0.68792681610E+01  0.73874674901E+01  0.51100000000E-03 0. -1.
        -11    1    3    3    0    0 -0.24591013129E+01 -0.12540759416E+01  0.34083034518E+00  0.27813757962E+01  0.51100000000E-03 0.  1.
        -12    1    3    3    0    0 -0.26673182649E+02 -0.30084821606E+02  0.35179141851E+01  0.40360015906E+02  0.00000000000E+00 0.  1.
</event>
<event>
 7    1  0.3141443E-011  0.5052886E+02  0.7816164E-02  0.1300439E+00
        -11   -1    0    0    0    0  0.00000000000E+00  0.00000000000E+00  0.45593999997E+02  0.45594000000E+02  0.51100000000E-03 0. -1.
         11   -1    0    0    0    0 -0.00000000000E+00 -0.00000000000E+00 -0.45593999997E+02  0.45594000000E+02  0.51100000000E-03 0.  1.
    9900012    2    1    2    0    0  0.13064368466E+02  0.23809274929E+02 -0.30258993851E+02  0.50528855826E+02  0.29999987770E+02 0.  0.
         12    1    1    2    0    0 -0.13064368466E+02 -0.23809274929E+02  0.30258993851E+02  0.40659144174E+02  0.00000000000E+00 0. -1.
         11    1    3    3    0    0 -0.44314494398E+01  0.37658686947E+01 -0.33694568786E+00  0.58252076204E+01  0.51100000000E-03 0. -1.
        -11    1    3    3    0    0  0.95902229907E+01  0.14782983149E+02 -0.30463067573E+02  0.35192434613E+02  0.51100000000E-03 0.  1.
         12    1    3    3    0    0  0.79055949155E+01  0.52604230855E+01  0.54101940986E+00  0.95112135928E+01  0.00000000000E+00 0. -1.
</event>
<event>
 7    1  0.3141443E-011  0.5052885E+02  0.7816164E-02  0.1300439E+00
        -11   -1    0    0    0    0  0.00000000000E+00  0.00000000000E+00  0.45593999997E+02  0.45594000000E+02  0.51100000000E-03 0.  1.
         11   -1    0    0    0    0 -0.00000000000E+00 -0.00000000000E+00 -0.45593999997E+02  0.45594000000E+02  0.51100000000E-03 0. -1.
    9900012    2    1    2    0    0 -0.39979409013E+02  0.17351308669E+01  0.71974028337E+01  0.50528850578E+02  0.29999971818E+02 0.  0.
         12    1    1    2    0    0  0.39979409013E+02 -0.17351308669E+01 -0.71974028337E+01  0.40659149422E+02  0.00000000000E+00 0. -1.
         11    1    3    3    0    0 -0.21066275493E+01  0.47818264223E+01  0.12482547579E+01  0.53723257315E+01  0.51100000000E-03 0. -1.
        -11    1    3    3    0    0 -0.53113365351E+01 -0.64928601326E+01  0.89614191648E+01  0.12274956709E+02  0.51100000000E-03 0.  1.
         12    1    3    3    0    0 -0.32561444928E+02  0.34461645773E+01 -0.30122710889E+01  0.32881568138E+02  0.00000000000E+00 0. -1.
</event>
<event>
 7    1  0.3141443E-011  0.5052887E+02  0.7816164E-02  0.1300439E+00
        -11   -1    0    0    0    0  0.00000000000E+00  0.00000000000E+00  0.45593999997E+02  0.45594000000E+02  0.51100000000E-03 0.  1.
         11   -1    0    0    0    0 -0.00000000000E+00 -0.00000000000E+00 -0.45593999997E+02  0.45594000000E+02  0.51100000000E-03 0. -1.
    9900012    2    1    2    0    0  0.17912125071E+02  0.12727957357E+02  0.34209941170E+02  0.50528865751E+02  0.30000017937E+02 0.  0.
         12    1    1    2    0    0 -0.17912125071E+02 -0.12727957357E+02 -0.34209941170E+02  0.40659134249E+02  0.00000000000E+00 0. -1.
         11    1    3    3    0    0  0.47280083828E+01  0.58544384595E+01 -0.25145645863E+01  0.79342011736E+01  0.51100000000E-03 0. -1.
        -11    1    3    3    0    0 -0.15571032977E+01 -0.32641244568E+01  0.49609287214E+01  0.61392094922E+01  0.51100000000E-03 0.  1.
        -12    1    3    3    0    0  0.14741219986E+02  0.10137643354E+02  0.31763577035E+02  0.36455455085E+02  0.00000000000E+00 0.  1.
</event>
<event>
 7    1  0.3141443E-011  0.5052887E+02  0.7816164E-02  0.1300439E+00
        -11   -1    0    0    0    0  0.00000000000E+00  0.00000000000E+00  0.45593999997E+02  0.45594000000E+02  0.51100000000E-03 0.  1.
         11   -1    0    0    0    0 -0.00000000000E+00 -0.00000000000E+00 -0.45593999997E+02  0.45594000000E+02  0.51100000000E-03 0. -1.
    9900012    2    1    2    0    0 -0.15945963476E+02  0.12204421766E+02  0.35354539207E+02  0.50528866901E+02  0.30000021431E+02 0.  0.
         12    1    1    2    0    0  0.15945963476E+02 -0.12204421766E+02 -0.35354539207E+02  0.40659133099E+02  0.00000000000E+00 0. -1.
         11    1    3    3    0    0 -0.76852236975E-01 -0.46897551474E+01  0.86096631663E+01  0.98043872683E+01  0.51100000000E-03 0.  1.
        -11    1    3    3    0    0 -0.65313375060E+01  0.69267285089E+01  0.25249533506E+02  0.26984752732E+02  0.51100000000E-03 0. -1.
         12    1    3    3    0    0 -0.93377737333E+01  0.99674484049E+01  0.14953425346E+01  0.13739726900E+02  0.00000000000E+00 0. -1.
</event>
<event>
 7    1  0.3141443E-011  0.5052885E+02  0.7816164E-02  0.1300439E+00
        -11   -1    0    0    0    0  0.00000000000E+00  0.00000000000E+00  0.45593999997E+02  0.45594000000E+02  0.51100000000E-03 0.  1.
         11   -1    0    0    0    0 -0.00000000000E+00 -0.00000000000E+00 -0.45593999997E+02  0.45594000000E+02  0.51100000000E-03 0. -1.
    9900012    2    1    2    0    0  0.22165601704E+02  0.31936618843E+02  0.11912384901E+02  0.50528850525E+02  0.29999971655E+02 0.  0.
         12    1    1    2    0    0 -0.22165601704E+02 -0.31936618843E+02 -0.11912384901E+02  0.40659149475E+02  0.00000000000E+00 0. -1.
         11    1    3    3    0    0 -0.41479854296E+00  0.34026875153E+01  0.67889700058E+01  0.76052911949E+01  0.51100000000E-03 0. -1.
        -11    1    3    3    0    0  0.66316546753E+01  0.41083329694E+01  0.10681925241E+02  0.13227273742E+02  0.51100000000E-03 0.  1.
         12    1    3    3    0    0  0.15948745572E+02  0.24425598358E+02 -0.55585103461E+01  0.29696285588E+02  0.00000000000E+00 0. -1.
</event>
<event>
 7    1  0.3141443E-011  0.5052886E+02  0.7816164E-02  0.1300439E+00
        -11   -1    0    0    0    0  0.00000000000E+00  0.00000000000E+00  0.45593999997E+02  0.45594000000E+02  0.51100000000E-03 0. -1.
         11   -1    0    0    0    0 -0.00000000000E+00 -0.00000000000E+00 -0.45593999997E+02  0.45594000000E+02  0.51100000000E-03 0.  1.
    9900012    2    1    2    0    0 -0.49729899072E+01  0.32481089074E+02 -0.23946064380E+02  0.50528858650E+02  0.29999996352E+02 0.  0.
         12    1    1    2    0    0  0.49729899072E+01 -0.32481089074E+02  0.23946064380E+02  0.40659141350E+02  0.00000000000E+00 0. -1.
         11    1    3    3    0    0  0.16733486661E+01  0.24079705145E+02 -0.21020773862E+02  0.32007893240E+02  0.51100000000E-03 0. -1.
        -11    1    3    3    0    0 -0.12061817819E+01  0.41989795304E+00 -0.76586273182E+01  0.77643906034E+01  0.51100000000E-03 0.  1.
         12    1    3    3    0    0 -0.54401567913E+01  0.79814859763E+01  0.47333368005E+01  0.10756574807E+02  0.00000000000E+00 0. -1.
</event>
<event>
 7    1  0.3141443E-011  0.5052885E+02  0.7816164E-02  0.1300439E+00
        -11   -1    0    0    0    0  0.00000000000E+00  0.00000000000E+00  0.45593999997E+02  0.45594000000E+02  0.51100000000E-03 0.  1.
         11   -1    0    0    0    0 -0.00000000000E+00 -0.00000000000E+00 -0.45593999997E+02  0.45594000000E+02  0.51100000000E-03 0. -1.
    9900012    2    1    2    0    0 -0.33685977857E+02  0.21885011600E+02  0.62823374619E+01  0.50528848498E+02  0.29999965494E+02 0.  0.
         12    1    1    2    0    0  0.33685977857E+02 -0.21885011600E+02 -0.62823374619E+01  0.40659151502E+02  0.00000000000E+00 0. -1.
         11    1    3    3    0    0 -0.17234841291E+01  0.52412626202E+01  0.34753998738E+01  0.65207082392E+01  0.51100000000E-03 0. -1.
        -11    1    3    3    0    0 -0.16394838081E+02  0.19068043115E+02 -0.61452174923E+01  0.25887152842E+02  0.51100000000E-03 0.  1.
        -12    1    3    3    0    0 -0.15567655646E+02 -0.24242941355E+01  0.89521550805E+01  0.18120987417E+02  0.00000000000E+00 0.  1.
</event>
<event>
 7    1  0.3141443E-011  0.5052883E+02  0.7816164E-02  0.1300439E+00
        -11   -1    0    0    0    0  0.00000000000E+00  0.00000000000E+00  0.45593999997E+02  0.45594000000E+02  0.51100000000E-03 0.  1.
         11   -1    0    0    0    0 -0.00000000000E+00 -0.00000000000E+00 -0.45593999997E+02  0.45594000000E+02  0.51100000000E-03 0. -1.
    9900012    2    1    2    0    0 -0.10798085457E+02  0.38098694408E+02  0.92227245513E+01  0.50528833588E+02  0.29999920174E+02 0.  0.
         12    1    1    2    0    0  0.10798085457E+02 -0.38098694408E+02 -0.92227245513E+01  0.40659166412E+02  0.00000000000E+00 0. -1.
         11    1    3    3    0    0  0.77353453581E+00  0.15869767848E+02  0.63577247744E+00  0.15901323660E+02  0.51100000000E-03 0. -1.
        -11    1    3    3    0    0 -0.10308601805E+02  0.24151474108E+02  0.13261107404E+02  0.29417986719E+02  0.51100000000E-03 0.  1.
         12    1    3    3    0    0 -0.12630181883E+01 -0.19225475473E+01 -0.46741553303E+01  0.52095232092E+01  0.00000000000E+00 0. -1.
</event>
<event>
 7    1  0.3141443E-011  0.5052886E+02  0.7816164E-02  0.1300439E+00
        -11   -1    0    0    0    0  0.00000000000E+00  0.00000000000E+00  0.45593999997E+02  0.45594000000E+02  0.51100000000E-03 0.  1.
         11   -1    0    0    0    0 -0.00000000000E+00 -0.00000000000E+00 -0.45593999997E+02  0.45594000000E+02  0.51100000000E-03 0. -1.
    9900012    2    1    2    0    0  0.26393284018E+01 -0.35097904948E+01  0.40421291196E+02  0.50528862457E+02  0.30000007925E+02 0.  0.
         12    1    1    2    0    0 -0.26393284018E+01  0.35097904948E+01 -0.40421291196E+02  0.40659137543E+02  0.00000000000E+00 0. -1.
         11    1    3    3    0    0  0.97959552516E+00 -0.68752209308E+01  0.53974804501E+01  0.87955139537E+01  0.51100000000E-03 0. -1.
        -11    1    3    3    0    0 -0.89786741078E-01 -0.25563261367E+01  0.35451599552E+02  0.35543758609E+02  0.51100000000E-03 0.  1.
        -12    1    3    3    0    0  0.17495196177E+01  0.59217565727E+01 -0.42778880594E+00  0.61895898944E+01  0.00000000000E+00 0.  1.
</event>
<event>
 7    1  0.3141443E-011  0.5052886E+02  0.7816164E-02  0.1300439E+00
        -11   -1    0    0    0    0  0.00000000000E+00  0.00000000000E+00  0.45593999997E+02  0.45594000000E+02  0.51100000000E-03 0.  1.
         11   -1    0    0    0    0 -0.00000000000E+00 -0.00000000000E+00 -0.45593999997E+02  0.45594000000E+02  0.51100000000E-03 0. -1.
    9900012    2    1    2    0    0  0.22451228773E+02 -0.10578430189E+02  0.32205664678E+02  0.50528859624E+02  0.29999999315E+02 0.  0.
         12    1    1    2    0    0 -0.22451228773E+02  0.10578430189E+02 -0.32205664678E+02  0.40659140376E+02  0.00000000000E+00 0. -1.
         11    1    3    3    0    0  0.13962093610E+02 -0.15431833482E+02  0.12667416697E+02  0.24362778755E+02  0.51100000000E-03 0. -1.
        -11    1    3    3    0    0  0.10392134837E+02 -0.16652684157E+01  0.13145853985E+02  0.16839924662E+02  0.51100000000E-03 0.  1.
        -12    1    3    3    0    0 -0.19029996747E+01  0.65186717085E+01  0.63923939967E+01  0.93261562079E+01  0.00000000000E+00 0.  1.
</event>
<event>
 7    1  0.3141443E-011  0.5052886E+02  0.7816164E-02  0.1300439E+00
        -11   -1    0    0    0    0  0.00000000000E+00  0.00000000000E+00  0.45593999997E+02  0.45594000000E+02  0.51100000000E-03 0.  1.
         11   -1    0    0    0    0 -0.00000000000E+00 -0.00000000000E+00 -0.45593999997E+02  0.45594000000E+02  0.51100000000E-03 0. -1.
    9900012    2    1    2    0    0  0.22611563729E+02  0.27401173600E+02  0.19775204798E+02  0.50528857685E+02  0.29999993421E+02 0.  0.
         12    1    1    2    0    0 -0.22611563729E+02 -0.27401173600E+02 -0.19775204798E+02  0.40659142315E+02  0.00000000000E+00 0. -1.
         11    1    3    3    0    0 -0.47637521161E+01  0.60076473358E+00  0.53267016999E+01  0.71713320764E+01  0.51100000000E-03 0. -1.
        -11    1    3    3    0    0  0.69453609647E+01  0.11085784388E+01  0.65166294198E+01  0.95881929654E+01  0.51100000000E-03 0.  1.
        -12    1    3    3    0    0  0.20429954880E+02  0.25691830428E+02  0.79318736786E+01  0.33769332644E+02  0.00000000000E+00 0.  1.
</event>
<event>
 7    1  0.4381563E-011  0.5052886E+02  0.7816164E-02  0.1300439E+00
        -11   -1    0    0    0    0  0.00000000000E+00  0.00000000000E+00  0.45593999997E+02  0.45594000000E+02  0.51100000000E-03 0. -1.
         11   -1    0    0    0    0 -0.00000000000E+00 -0.00000000000E+00 -0.45593999997E+02  0.45594000000E+02  0.51100000000E-03 0.  1.
    9900012    2    1    2    0    0  0.27050891349E+02 -0.82094216319E+01 -0.29223626893E+02  0.50528859636E+02  0.29999999351E+02 0.  0.
         12    1    1    2    0    0 -0.27050891349E+02  0.82094216319E+01  0.29223626893E+02  0.40659140364E+02  0.00000000000E+00 0. -1.
         11    1    3    3    0    0 -0.44731091160E+01 -0.29587249048E+01 -0.25233572814E+01  0.59270642359E+01  0.51100000000E-03 0. -1.
        -11    1    3    3    0    0  0.37757103409E+01  0.46341858065E+01 -0.67970035518E+01  0.90515702622E+01  0.51100000000E-03 0.  1.
        -12    1    3    3    0    0  0.27748290125E+02 -0.98848825336E+01 -0.19903266060E+02  0.35550225138E+02  0.00000000000E+00 0.  1.
</event>
<event>
 7    1  0.3141443E-011  0.5052886E+02  0.7816164E-02  0.1300439E+00
        -11   -1    0    0    0    0  0.00000000000E+00  0.00000000000E+00  0.45593999997E+02  0.45594000000E+02  0.51100000000E-03 0.  1.
         11   -1    0    0    0    0 -0.00000000000E+00 -0.00000000000E+00 -0.45593999997E+02  0.45594000000E+02  0.51100000000E-03 0. -1.
    9900012    2    1    2    0    0 -0.25463766191E+02  0.85733539288E+01  0.30516553988E+02  0.50528857689E+02  0.29999993431E+02 0.  0.
         12    1    1    2    0    0  0.25463766191E+02 -0.85733539288E+01 -0.30516553988E+02  0.40659142311E+02  0.00000000000E+00 0. -1.
         11    1    3    3    0    0  0.11664581527E+01 -0.45442936862E+01  0.59291938089E+00  0.47289304691E+01  0.51100000000E-03 0. -1.
        -11    1    3    3    0    0 -0.25584101007E+02  0.52098840074E+01  0.26230360711E+02  0.37009741137E+02  0.51100000000E-03 0.  1.
         12    1    3    3    0    0 -0.10461233360E+01  0.79077636076E+01  0.36932738957E+01  0.87901860831E+01  0.00000000000E+00 0. -1.
</event>
<event>
 7    1  0.3141443E-011  0.5052876E+02  0.7816164E-02  0.1300439E+00
        -11   -1    0    0    0    0  0.00000000000E+00  0.00000000000E+00  0.45593999997E+02  0.45594000000E+02  0.51100000000E-03 0.  1.
         11   -1    0    0    0    0 -0.00000000000E+00 -0.00000000000E+00 -0.45593999997E+02  0.45594000000E+02  0.51100000000E-03 0. -1.
    9900012    2    1    2    0    0  0.43630033914E+01 -0.16107901014E+01  0.40392367897E+02  0.50528759627E+02  0.29999695361E+02 0.  0.
         12    1    1    2    0    0 -0.43630033914E+01  0.16107901014E+01 -0.40392367897E+02  0.40659240373E+02  0.00000000000E+00 0. -1.
         11    1    3    3    0    0 -0.29945632807E+01  0.83693416881E+01  0.18321788544E+02  0.20364214329E+02  0.51100000000E-03 0. -1.
        -11    1    3    3    0    0  0.12077059897E+01 -0.11597052494E+01 -0.26908173573E+01  0.31692220393E+01  0.51100000000E-03 0.  1.
        -12    1    3    3    0    0  0.61498606824E+01 -0.88204265402E+01  0.24761396711E+02  0.26995323259E+02  0.00000000000E+00 0.  1.
</event>
<event>
 7    1  0.3141443E-011  0.5052886E+02  0.7816164E-02  0.1300439E+00
        -11   -1    0    0    0    0  0.00000000000E+00  0.00000000000E+00  0.45593999997E+02  0.45594000000E+02  0.51100000000E-03 0.  1.
         11   -1    0    0    0    0 -0.00000000000E+00 -0.00000000000E+00 -0.45593999997E+02  0.45594000000E+02  0.51100000000E-03 0. -1.
    9900012    2    1    2    0    0 -0.10839508789E+02  0.19692990391E+02  0.33880035262E+02  0.50528860675E+02  0.30000002507E+02 0.  0.
         12    1    1    2    0    0  0.10839508789E+02 -0.19692990391E+02 -0.33880035262E+02  0.40659139325E+02  0.00000000000E+00 0. -1.
         11    1    3    3    0    0 -0.20609449661E+01  0.18758430275E+02  0.10547055802E+02  0.21618662930E+02  0.51100000000E-03 0. -1.
        -11    1    3    3    0    0 -0.50806118384E+01 -0.25317360438E+01  0.70333135398E+00  0.57198758118E+01  0.51100000000E-03 0.  1.
        -12    1    3    3    0    0 -0.36979519841E+01  0.34662961596E+01  0.22629648106E+02  0.23190321933E+02  0.00000000000E+00 0.  1.
</event>
<event>
 7    1  0.3141443E-011  0.5052886E+02  0.7816164E-02  0.1300439E+00
        -11   -1    0    0    0    0  0.00000000000E+00  0.00000000000E+00  0.45593999997E+02  0.45594000000E+02  0.51100000000E-03 0.  1.
         11   -1    0    0    0    0 -0.00000000000E+00 -0.00000000000E+00 -0.45593999997E+02  0.45594000000E+02  0.51100000000E-03 0. -1.
    9900012    2    1    2    0    0  0.75378841554E+01 -0.16847401662E+01  0.39918758074E+02  0.50528864580E+02  0.30000014376E+02 0.  0.
         12    1    1    2    0    0 -0.75378841554E+01  0.16847401662E+01 -0.39918758074E+02  0.40659135420E+02  0.00000000000E+00 0. -1.
         11    1    3    3    0    0 -0.23028299211E+01 -0.29560329472E+01  0.23675135008E+01  0.44324120824E+01  0.51100000000E-03 0. -1.
        -11    1    3    3    0    0  0.15138696296E+01  0.32687327005E+01  0.37357929368E+02  0.37531204372E+02  0.51100000000E-03 0.  1.
         12    1    3    3    0    0  0.83268444470E+01 -0.19974399194E+01  0.19331520540E+00  0.85652481251E+01  0.00000000000E+00 0. -1.
</event>
<event>
 7    1  0.3141443E-011  0.5052886E+02  0.7816164E-02  0.1300439E+00
        -11   -1    0    0    0    0  0.00000000000E+00  0.00000000000E+00  0.45593999997E+02  0.45594000000E+02  0.51100000000E-03 0.  1.
         11   -1    0    0    0    0 -0.00000000000E+00 -0.00000000000E+00 -0.45593999997E+02  0.45594000000E+02  0.51100000000E-03 0. -1.
    9900012    2    1    2    0    0  0.25298892354E+02 -0.29934243293E+02  0.10820001974E+02  0.50528864266E+02  0.30000013424E+02 0.  0.
         12    1    1    2    0    0 -0.25298892354E+02  0.29934243293E+02 -0.10820001974E+02  0.40659135734E+02  0.00000000000E+00 0. -1.
         11    1    3    3    0    0 -0.12690253565E+01 -0.80174512736E+00  0.30550051626E+01  0.34038621314E+01  0.51100000000E-03 0. -1.
        -11    1    3    3    0    0  0.70745108708E+01 -0.24832984136E+02  0.83998985484E+01  0.27152975915E+02  0.51100000000E-03 0.  1.
         12    1    3    3    0    0  0.19493406840E+02 -0.42995140299E+01 -0.63490173680E+00  0.19972026220E+02  0.00000000000E+00 0. -1.
</event>
<event>
 7    1  0.3141443E-011  0.5052886E+02  0.7816164E-02  0.1300439E+00
        -11   -1    0    0    0    0  0.00000000000E+00  0.00000000000E+00  0.45593999997E+02  0.45594000000E+02  0.51100000000E-03 0. -1.
         11   -1    0    0    0    0 -0.00000000000E+00 -0.00000000000E+00 -0.45593999997E+02  0.45594000000E+02  0.51100000000E-03 0.  1.
    9900012    2    1    2    0    0 -0.13398185444E+02 -0.18641024580E+02 -0.33558407367E+02  0.50528857417E+02  0.29999992604E+02 0.  0.
         12    1    1    2    0    0  0.13398185444E+02  0.18641024580E+02  0.33558407367E+02  0.40659142583E+02  0.00000000000E+00 0. -1.
         11    1    3    3    0    0  0.21997562190E+01  0.93947351717E+00 -0.43133123424E+01  0.49321599261E+01  0.51100000000E-03 0. -1.
        -11    1    3    3    0    0  0.58670765575E+01 -0.11263679114E+00 -0.34918867402E+01  0.68285099140E+01  0.51100000000E-03 0.  1.
         12    1    3    3    0    0 -0.21465018220E+02 -0.19467861306E+02 -0.25753208285E+02  0.38768187577E+02  0.00000000000E+00 0. -1.
</event>
<event>
 7    1  0.3141443E-011  0.5052886E+02  0.7816164E-02  0.1300439E+00
        -11   -1    0    0    0    0  0.00000000000E+00  0.00000000000E+00  0.45593999997E+02  0.45594000000E+02  0.51100000000E-03 0.  1.
         11   -1    0    0    0    0 -0.00000000000E+00 -0.00000000000E+00 -0.45593999997E+02  0.45594000000E+02  0.51100000000E-03 0. -1.
    9900012    2    1    2    0    0 -0.37503606840E+02 -0.51953889162E+01  0.14820692229E+02  0.50528861911E+02  0.30000006263E+02 0.  0.
         12    1    1    2    0    0  0.37503606840E+02  0.51953889162E+01 -0.14820692229E+02  0.40659138089E+02  0.00000000000E+00 0. -1.
         11    1    3    3    0    0 -0.40085500866E+01 -0.64620990857E+01 -0.57890307906E+01  0.95572002253E+01  0.51100000000E-03 0. -1.
        -11    1    3    3    0    0 -0.11548896624E+02 -0.46550734530E+01  0.95529660445E+01  0.15694135293E+02  0.51100000000E-03 0.  1.
        -12    1    3    3    0    0 -0.21946160130E+02  0.59217836224E+01  0.11056756975E+02  0.25277526393E+02  0.00000000000E+00 0.  1.
</event>
<event>
 7    1  0.3141443E-011  0.5052885E+02  0.7816164E-02  0.1300439E+00
        -11   -1    0    0    0    0  0.00000000000E+00  0.00000000000E+00  0.45593999997E+02  0.45594000000E+02  0.51100000000E-03 0.  1.
         11   -1    0    0    0    0 -0.00000000000E+00 -0.00000000000E+00 -0.45593999997E+02  0.45594000000E+02  0.51100000000E-03 0. -1.
    9900012    2    1    2    0    0  0.21511122736E+02 -0.21126685574E+02  0.27278221262E+02  0.50528848509E+02  0.29999965529E+02 0.  0.
         12    1    1    2    0    0 -0.21511122736E+02  0.21126685574E+02 -0.27278221262E+02  0.40659151491E+02  0.00000000000E+00 0. -1.
         11    1    3    3    0    0 -0.27581742969E+01 -0.27367807988E+00 -0.19886482238E+01  0.34113263055E+01  0.51100000000E-03 0. -1.
        -11    1    3    3    0    0  0.11607058903E+02 -0.17641225520E+02  0.88884909541E+01  0.22911611160E+02  0.51100000000E-03 0.  1.
        -12    1    3    3    0    0  0.12662238130E+02 -0.32117819746E+01  0.20378378532E+02  0.24205911044E+02  0.00000000000E+00 0.  1.
</event>
<event>
 7    1  0.3141443E-011  0.5052888E+02  0.7816164E-02  0.1300439E+00
        -11   -1    0    0    0    0  0.00000000000E+00  0.00000000000E+00  0.45593999997E+02  0.45594000000E+02  0.51100000000E-03 0. -1.
         11   -1    0    0    0    0 -0.00000000000E+00 -0.00000000000E+00 -0.45593999997E+02  0.45594000000E+02  0.51100000000E-03 0.  1.
    9900012    2    1    2    0    0  0.40234358754E+02  0.44016204785E+01  0.38712181076E+01  0.50528877815E+02  0.30000054606E+02 0.  0.
         12    1    1    2    0    0 -0.40234358754E+02 -0.44016204785E+01 -0.38712181076E+01  0.40659122185E+02  0.00000000000E+00 0. -1.
         11    1    3    3    0    0  0.14688951458E+02  0.19893061238E+01 -0.32864583010E+01  0.15182998460E+02  0.51100000000E-03 0. -1.
        -11    1    3    3    0    0  0.14874242263E+02 -0.81345523809E+01  0.10544120705E+02  0.19964781668E+02  0.51100000000E-03 0.  1.
         12    1    3    3    0    0  0.10671165033E+02  0.10546866736E+02 -0.33864442964E+01  0.15381097687E+02  0.00000000000E+00 0. -1.
</event>
<event>
 7    1  0.3141443E-011  0.5052886E+02  0.7816164E-02  0.1300439E+00
        -11   -1    0    0    0    0  0.00000000000E+00  0.00000000000E+00  0.45593999997E+02  0.45594000000E+02  0.51100000000E-03 0. -1.
         11   -1    0    0    0    0 -0.00000000000E+00 -0.00000000000E+00 -0.45593999997E+02  0.45594000000E+02  0.51100000000E-03 0.  1.
    9900012    2    1    2    0    0 -0.98751924449E+01  0.37601137293E+02 -0.11908016266E+02  0.50528858311E+02  0.29999995321E+02 0.  0.
         12    1    1    2    0    0  0.98751924449E+01 -0.37601137293E+02  0.11908016266E+02  0.40659141689E+02  0.00000000000E+00 0. -1.
         11    1    3    3    0    0 -0.11844912153E+02  0.18862920835E+02 -0.49690018720E+01  0.22821102213E+02  0.51100000000E-03 0. -1.
        -11    1    3    3    0    0  0.44113443124E+01  0.20567566358E+02 -0.10082783498E+02  0.23326964395E+02  0.51100000000E-03 0.  1.
         12    1    3    3    0    0 -0.24416246046E+01 -0.18293499008E+01  0.31437691040E+01  0.43807917034E+01  0.00000000000E+00 0. -1.
</event>
<event>
 7    1  0.3141443E-011  0.5052885E+02  0.7816164E-02  0.1300439E+00
        -11   -1    0    0    0    0  0.00000000000E+00  0.00000000000E+00  0.45593999997E+02  0.45594000000E+02  0.51100000000E-03 0.  1.
         11   -1    0    0    0    0 -0.00000000000E+00 -0.00000000000E+00 -0.45593999997E+02  0.45594000000E+02  0.51100000000E-03 0. -1.
    9900012    2    1    2    0    0 -0.29842170382E+02 -0.25747381839E+02  0.99841724105E+01  0.50528849697E+02  0.29999969139E+02 0.  0.
         12    1    1    2    0    0  0.29842170382E+02  0.25747381839E+02 -0.99841724105E+01  0.40659150303E+02  0.00000000000E+00 0. -1.
         11    1    3    3    0    0 -0.17473688964E+02 -0.20547618556E+01  0.81644498966E+01  0.19396136076E+02  0.51100000000E-03 0. -1.
        -11    1    3    3    0    0  0.93995063464E+00  0.19292725435E+01 -0.37003918425E+00  0.21777348327E+01  0.51100000000E-03 0.  1.
         12    1    3    3    0    0 -0.13308432052E+02 -0.25621892527E+02  0.21897616982E+01  0.28954978788E+02  0.00000000000E+00 0. -1.
</event>
<event>
 7    1  0.3141443E-011  0.5052886E+02  0.7816164E-02  0.1300439E+00
        -11   -1    0    0    0    0  0.00000000000E+00  0.00000000000E+00  0.45593999997E+02  0.45594000000E+02  0.51100000000E-03 0.  1.
         11   -1    0    0    0    0 -0.00000000000E+00 -0.00000000000E+00 -0.45593999997E+02  0.45594000000E+02  0.51100000000E-03 0. -1.
    9900012    2    1    2    0    0  0.34191971371E+02  0.17806043631E+02  0.12923596807E+02  0.50528862645E+02  0.30000008496E+02 0.  0.
         12    1    1    2    0    0 -0.34191971371E+02 -0.17806043631E+02 -0.12923596807E+02  0.40659137355E+02  0.00000000000E+00 0. -1.
         11    1    3    3    0    0 -0.17242153750E+01 -0.12070663147E+01 -0.92499150568E+00  0.22990296418E+01  0.51100000000E-03 0. -1.
        -11    1    3    3    0    0  0.61007023005E+01  0.72420151232E+01 -0.53393440669E+01  0.10870784099E+02  0.51100000000E-03 0.  1.
        -12    1    3    3    0    0  0.29815484445E+02  0.11771094823E+02  0.19187932379E+02  0.37359048904E+02  0.00000000000E+00 0.  1.
</event>
<event>
 7    1  0.3141443E-011  0.5052887E+02  0.7816164E-02  0.1300439E+00
        -11   -1    0    0    0    0  0.00000000000E+00  0.00000000000E+00  0.45593999997E+02  0.45594000000E+02  0.51100000000E-03 0. -1.
         11   -1    0    0    0    0 -0.00000000000E+00 -0.00000000000E+00 -0.45593999997E+02  0.45594000000E+02  0.51100000000E-03 0.  1.
    9900012    2    1    2    0    0  0.34181610469E+02 -0.26442999818E+01 -0.21858414041E+02  0.50528867188E+02  0.30000022303E+02 0.  0.
         12    1    1    2    0    0 -0.34181610469E+02  0.26442999818E+01  0.21858414041E+02  0.40659132812E+02  0.00000000000E+00 0. -1.
         11    1    3    3    0    0  0.11670604693E+02 -0.84854138922E+01 -0.77924829109E+01  0.16399025978E+02  0.51100000000E-03 0. -1.
        -11    1    3    3    0    0  0.21995350076E+02 -0.18503310167E+01 -0.57898352770E+01  0.22819757725E+02  0.51100000000E-03 0.  1.
         12    1    3    3    0    0  0.51565569980E+00  0.76914449271E+01 -0.82760958530E+01  0.11310083485E+02  0.00000000000E+00 0. -1.
</event>
<event>
 7    1  0.3141443E-011  0.5052886E+02  0.7816164E-02  0.1300439E+00
        -11   -1    0    0    0    0  0.00000000000E+00  0.00000000000E+00  0.45593999997E+02  0.45594000000E+02  0.51100000000E-03 0.  1.
         11   -1    0    0    0    0 -0.00000000000E+00 -0.00000000000E+00 -0.45593999997E+02  0.45594000000E+02  0.51100000000E-03 0. -1.
    9900012    2    1    2    0    0  0.47370400087E+00 -0.24869754671E+02  0.32162659057E+02  0.50528859201E+02  0.29999998028E+02 0.  0.
         12    1    1    2    0    0 -0.47370400087E+00  0.24869754671E+02 -0.32162659057E+02  0.40659140799E+02  0.00000000000E+00 0. -1.
         11    1    3    3    0    0  0.67265492750E+01 -0.13527471819E+02  0.17862014787E+02  0.23394241417E+02  0.51100000000E-03 0. -1.
        -11    1    3    3    0    0 -0.79581943785E+01 -0.14396321268E+02  0.16256480525E+02  0.23127042248E+02  0.51100000000E-03 0.  1.
         12    1    3    3    0    0  0.17053491044E+01  0.30540384163E+01 -0.19558362553E+01  0.40075755356E+01  0.00000000000E+00 0. -1.
</event>
<event>
 7    1  0.3141443E-011  0.5052886E+02  0.7816164E-02  0.1300439E+00
        -11   -1    0    0    0    0  0.00000000000E+00  0.00000000000E+00  0.45593999997E+02  0.45594000000E+02  0.51100000000E-03 0.  1.
         11   -1    0    0    0    0 -0.00000000000E+00 -0.00000000000E+00 -0.45593999997E+02  0.45594000000E+02  0.51100000000E-03 0. -1.
    9900012    2    1    2    0    0  0.74314996450E+01  0.22578867109E+02  0.32986868263E+02  0.50528857059E+02  0.29999991517E+02 0.  0.
         12    1    1    2    0    0 -0.74314996450E+01 -0.22578867109E+02 -0.32986868263E+02  0.40659142941E+02  0.00000000000E+00 0. -1.
         11    1    3    3    0    0 -0.15798095614E+01  0.16597157203E+02  0.12170173676E+02  0.20641573415E+02  0.51100000000E-03 0.  1.
        -11    1    3    3    0    0  0.12504542396E+02  0.59425533968E+01  0.67675196853E+01  0.15410283721E+02  0.51100000000E-03 0. -1.
         12    1    3    3    0    0 -0.34932331899E+01  0.39156509069E-01  0.14049174901E+02  0.14476999923E+02  0.00000000000E+00 0. -1.
</event>
<event>
 7    1  0.3141443E-011  0.5052886E+02  0.7816164E-02  0.1300439E+00
        -11   -1    0    0    0    0  0.00000000000E+00  0.00000000000E+00  0.45593999997E+02  0.45594000000E+02  0.51100000000E-03 0. -1.
         11   -1    0    0    0    0 -0.00000000000E+00 -0.00000000000E+00 -0.45593999997E+02  0.45594000000E+02  0.51100000000E-03 0.  1.
    9900012    2    1    2    0    0  0.26748832186E+02  0.60398155689E+00 -0.30615370981E+02  0.50528858871E+02  0.29999997024E+02 0.  0.
         12    1    1    2    0    0 -0.26748832186E+02 -0.60398155689E+00  0.30615370981E+02  0.40659141129E+02  0.00000000000E+00 0. -1.
         11    1    3    3    0    0  0.21116496372E+01  0.52854964156E+01 -0.13508955456E+02  0.14659038657E+02  0.51100000000E-03 0. -1.
        -11    1    3    3    0    0  0.18707992254E+02  0.54311216240E+01 -0.81467871465E+01  0.21115307181E+02  0.51100000000E-03 0.  1.
        -12    1    3    3    0    0  0.59291902945E+01 -0.10112636483E+02 -0.89596283781E+01  0.14754513033E+02  0.00000000000E+00 0.  1.
</event>
<event>
 7    1  0.3141443E-011  0.5052887E+02  0.7816164E-02  0.1300439E+00
        -11   -1    0    0    0    0  0.00000000000E+00  0.00000000000E+00  0.45593999997E+02  0.45594000000E+02  0.51100000000E-03 0.  1.
         11   -1    0    0    0    0 -0.00000000000E+00 -0.00000000000E+00 -0.45593999997E+02  0.45594000000E+02  0.51100000000E-03 0. -1.
    9900012    2    1    2    0    0  0.34255707098E+02  0.21808467053E+02  0.20254211465E+01  0.50528867756E+02  0.30000024031E+02 0.  0.
         12    1    1    2    0    0 -0.34255707098E+02 -0.21808467053E+02 -0.20254211465E+01  0.40659132244E+02  0.00000000000E+00 0. -1.
         11    1    3    3    0    0  0.24498877482E+02  0.12254939468E+02  0.28813492025E+01  0.27544159322E+02  0.51100000000E-03 0. -1.
        -11    1    3    3    0    0  0.16300991530E+01  0.13070925556E+02 -0.37033893377E+01  0.13682887524E+02  0.51100000000E-03 0.  1.
         12    1    3    3    0    0  0.81267304629E+01 -0.35173979709E+01  0.28474612817E+01  0.93018209106E+01  0.00000000000E+00 0. -1.
</event>
<event>
 7    1  0.3141443E-011  0.5052886E+02  0.7816164E-02  0.1300439E+00
        -11   -1    0    0    0    0  0.00000000000E+00  0.00000000000E+00  0.45593999997E+02  0.45594000000E+02  0.51100000000E-03 0.  1.
         11   -1    0    0    0    0 -0.00000000000E+00 -0.00000000000E+00 -0.45593999997E+02  0.45594000000E+02  0.51100000000E-03 0. -1.
    9900012    2    1    2    0    0 -0.15534947774E+02  0.30940759039E+02  0.21319022414E+02  0.50528857253E+02  0.29999992105E+02 0.  0.
         12    1    1    2    0    0  0.15534947774E+02 -0.30940759039E+02 -0.21319022414E+02  0.40659142747E+02  0.00000000000E+00 0. -1.
         11    1    3    3    0    0 -0.51547803412E+00  0.22924680054E+02  0.16399036369E+02  0.28191045871E+02  0.51100000000E-03 0. -1.
        -11    1    3    3    0    0  0.10945147562E+00 -0.95285846432E+00  0.46501915104E+01  0.47480733169E+01  0.51100000000E-03 0.  1.
         12    1    3    3    0    0 -0.15128921215E+02  0.89689374494E+01  0.26979453457E+00  0.17589738065E+02  0.00000000000E+00 0. -1.
</event>
<event>
 7    1  0.3737136E-011  0.5052886E+02  0.7816164E-02  0.1300439E+00
        -11   -1    0    0    0    0  0.00000000000E+00  0.00000000000E+00  0.45593999997E+02  0.45594000000E+02  0.51100000000E-03 0. -1.
         11   -1    0    0    0    0 -0.00000000000E+00 -0.00000000000E+00 -0.45593999997E+02  0.45594000000E+02  0.51100000000E-03 0.  1.
    9900012    2    1    2    0    0 -0.28276841925E+02 -0.29045524493E+02 -0.31533626508E+01  0.50528856154E+02  0.29999988766E+02 0.  0.
         12    1    1    2    0    0  0.28276841925E+02  0.29045524493E+02  0.31533626508E+01  0.40659143846E+02  0.00000000000E+00 0. -1.
         11    1    3    3    0    0 -0.31337578819E+01 -0.18573369878E+02 -0.23414864283E+01  0.18980860519E+02  0.51100000000E-03 0. -1.
        -11    1    3    3    0    0 -0.72554894596E+01 -0.55148915307E+00 -0.70822051150E+01  0.10154008919E+02  0.51100000000E-03 0.  1.
        -12    1    3    3    0    0 -0.17887594583E+02 -0.99206654617E+01  0.62703288925E+01  0.21393986716E+02  0.00000000000E+00 0.  1.
</event>
<event>
 7    1  0.3141443E-011  0.5052886E+02  0.7816164E-02  0.1300439E+00
        -11   -1    0    0    0    0  0.00000000000E+00  0.00000000000E+00  0.45593999997E+02  0.45594000000E+02  0.51100000000E-03 0.  1.
         11   -1    0    0    0    0 -0.00000000000E+00 -0.00000000000E+00 -0.45593999997E+02  0.45594000000E+02  0.51100000000E-03 0. -1.
    9900012    2    1    2    0    0  0.17041327437E+02 -0.92906096921E+01  0.35727342662E+02  0.50528864705E+02  0.30000014756E+02 0.  0.
         12    1    1    2    0    0 -0.17041327437E+02  0.92906096921E+01 -0.35727342662E+02  0.40659135295E+02  0.00000000000E+00 0. -1.
         11    1    3    3    0    0  0.47881296538E+01  0.57059927056E+01 -0.69105524791E+00  0.74807817743E+01  0.51100000000E-03 0. -1.
        -11    1    3    3    0    0  0.46235565346E+01  0.10845962307E+01  0.11348238853E+02  0.12301875846E+02  0.51100000000E-03 0.  1.
         12    1    3    3    0    0  0.76296412484E+01 -0.16081198628E+02  0.25070159058E+02  0.30746207084E+02  0.00000000000E+00 0. -1.
</event>
<event>
 7    1  0.3141443E-011  0.5052886E+02  0.7816164E-02  0.1300439E+00
        -11   -1    0    0    0    0  0.00000000000E+00  0.00000000000E+00  0.45593999997E+02  0.45594000000E+02  0.51100000000E-03 0.  1.
         11   -1    0    0    0    0 -0.00000000000E+00 -0.00000000000E+00 -0.45593999997E+02  0.45594000000E+02  0.51100000000E-03 0. -1.
    9900012    2    1    2    0    0 -0.18414421824E+02  0.26630182132E+02  0.24594879712E+02  0.50528860320E+02  0.30000001428E+02 0.  0.
         12    1    1    2    0    0  0.18414421824E+02 -0.26630182132E+02 -0.24594879712E+02  0.40659139680E+02  0.00000000000E+00 0. -1.
         11    1    3    3    0    0 -0.11469078109E+02 -0.22050490764E+01  0.10238159509E+02  0.15531320115E+02  0.51100000000E-03 0. -1.
        -11    1    3    3    0    0 -0.78091431339E+01  0.14707105508E+02  0.31577920828E+01  0.16948549200E+02  0.51100000000E-03 0.  1.
        -12    1    3    3    0    0  0.86379941940E+00  0.14128125701E+02  0.11198928119E+02  0.18048991005E+02  0.00000000000E+00 0.  1.
</event>
<event>
 7    1  0.3141443E-011  0.5052886E+02  0.7816164E-02  0.1300439E+00
        -11   -1    0    0    0    0  0.00000000000E+00  0.00000000000E+00  0.45593999997E+02  0.45594000000E+02  0.51100000000E-03 0. -1.
         11   -1    0    0    0    0 -0.00000000000E+00 -0.00000000000E+00 -0.45593999997E+02  0.45594000000E+02  0.51100000000E-03 0.  1.
    9900012    2    1    2    0    0  0.38313215722E+02  0.12203736019E+02 -0.60276125261E+01  0.50528858537E+02  0.29999996008E+02 0.  0.
         12    1    1    2    0    0 -0.38313215722E+02 -0.12203736019E+02  0.60276125261E+01  0.40659141463E+02  0.00000000000E+00 0. -1.
         11    1    3    3    0    0  0.69110311875E+01  0.69907765706E+01  0.35126074751E+01  0.10438952087E+02  0.51100000000E-03 0. -1.
        -11    1    3    3    0    0  0.40066562205E+01 -0.39523670395E+01  0.51964877608E+01  0.76601556508E+01  0.51100000000E-03 0.  1.
        -12    1    3    3    0    0  0.27395528314E+02  0.91653264883E+01 -0.14736707762E+02  0.32429750799E+02  0.00000000000E+00 0.  1.
</event>
<event>
 7    1  0.3141443E-011  0.5052886E+02  0.7816164E-02  0.1300439E+00
        -11   -1    0    0    0    0  0.00000000000E+00  0.00000000000E+00  0.45593999997E+02  0.45594000000E+02  0.51100000000E-03 0.  1.
         11   -1    0    0    0    0 -0.00000000000E+00 -0.00000000000E+00 -0.45593999997E+02  0.45594000000E+02  0.51100000000E-03 0. -1.
    9900012    2    1    2    0    0 -0.67843223931E+01  0.20836873351E+02  0.34248552504E+02  0.50528859946E+02  0.30000000291E+02 0.  0.
         12    1    1    2    0    0  0.67843223931E+01 -0.20836873351E+02 -0.34248552504E+02  0.40659140054E+02  0.00000000000E+00 0. -1.
         11    1    3    3    0    0  0.14972805773E+01  0.75333183862E+00 -0.42780385690E+01  0.45946678057E+01  0.51100000000E-03 0. -1.
        -11    1    3    3    0    0 -0.71763252384E+01  0.28816642808E+01  0.13192816456E+02  0.15292286920E+02  0.51100000000E-03 0.  1.
        -12    1    3    3    0    0 -0.11052777320E+01  0.17201877232E+02  0.25333774617E+02  0.30641905220E+02  0.00000000000E+00 0.  1.
</event>
<event>
 7    1  0.3141443E-011  0.5052886E+02  0.7816164E-02  0.1300439E+00
        -11   -1    0    0    0    0  0.00000000000E+00  0.00000000000E+00  0.45593999997E+02  0.45594000000E+02  0.51100000000E-03 0.  1.
         11   -1    0    0    0    0 -0.00000000000E+00 -0.00000000000E+00 -0.45593999997E+02  0.45594000000E+02  0.51100000000E-03 0. -1.
    9900012    2    1    2    0    0 -0.26806797095E+02 -0.28894568544E+02  0.99832453854E+01  0.50528860188E+02  0.30000001028E+02 0.  0.
         12    1    1    2    0    0  0.26806797095E+02  0.28894568544E+02 -0.99832453854E+01  0.40659139812E+02  0.00000000000E+00 0. -1.
         11    1    3    3    0    0 -0.21570698634E+02 -0.79929258361E+01  0.47542135205E+01  0.23490092581E+02  0.51100000000E-03 0. -1.
        -11    1    3    3    0    0 -0.32817211084E+01 -0.38991532196E+01  0.82133919413E+01  0.96660693514E+01  0.51100000000E-03 0.  1.
        -12    1    3    3    0    0 -0.19543773523E+01 -0.17002489488E+02 -0.29843600764E+01  0.17372698256E+02  0.00000000000E+00 0.  1.
</event>
<event>
 7    1  0.3141443E-011  0.5052885E+02  0.7816164E-02  0.1300439E+00
        -11   -1    0    0    0    0  0.00000000000E+00  0.00000000000E+00  0.45593999997E+02  0.45594000000E+02  0.51100000000E-03 0.  1.
         11   -1    0    0    0    0 -0.00000000000E+00 -0.00000000000E+00 -0.45593999997E+02  0.45594000000E+02  0.51100000000E-03 0. -1.
    9900012    2    1    2    0    0 -0.37610092326E+02 -0.75719532303E+01  0.13465254375E+02  0.50528848560E+02  0.29999965682E+02 0.  0.
         12    1    1    2    0    0  0.37610092326E+02  0.75719532303E+01 -0.13465254375E+02  0.40659151440E+02  0.00000000000E+00 0. -1.
         11    1    3    3    0    0 -0.29422043448E+01 -0.30646836527E+01  0.10198276140E+02  0.11047791127E+02  0.51100000000E-03 0. -1.
        -11    1    3    3    0    0 -0.10395199816E+02  0.55424318554E+01 -0.36169939184E+01  0.12323204751E+02  0.51100000000E-03 0.  1.
        -12    1    3    3    0    0 -0.24272688165E+02 -0.10049701433E+02  0.68839721532E+01  0.27157852681E+02  0.00000000000E+00 0.  1.
</event>
<event>
 7    1  0.3141443E-011  0.5052888E+02  0.7816164E-02  0.1300439E+00
        -11   -1    0    0    0    0  0.00000000000E+00  0.00000000000E+00  0.45593999997E+02  0.45594000000E+02  0.51100000000E-03 0.  1.
         11   -1    0    0    0    0 -0.00000000000E+00 -0.00000000000E+00 -0.45593999997E+02  0.45594000000E+02  0.51100000000E-03 0. -1.
    9900012    2    1    2    0    0 -0.26940926073E+02  0.15963444035E+02  0.25932968707E+02  0.50528881600E+02  0.30000066111E+02 0.  0.
         12    1    1    2    0    0  0.26940926073E+02 -0.15963444035E+02 -0.25932968707E+02  0.40659118400E+02  0.00000000000E+00 0. -1.
         11    1    3    3    0    0 -0.96104035332E+01  0.89150476971E+01  0.44502848691E+01  0.13843517154E+02  0.51100000000E-03 0. -1.
        -11    1    3    3    0    0 -0.13512437502E+02  0.12092325916E+02  0.46742376768E+01  0.18725886132E+02  0.51100000000E-03 0.  1.
        -12    1    3    3    0    0 -0.38180850376E+01 -0.50439295789E+01  0.16808446161E+02  0.17959478314E+02  0.00000000000E+00 0.  1.
</event>
<event>
 7    1  0.3141443E-011  0.5052886E+02  0.7816164E-02  0.1300439E+00
        -11   -1    0    0    0    0  0.00000000000E+00  0.00000000000E+00  0.45593999997E+02  0.45594000000E+02  0.51100000000E-03 0.  1.
         11   -1    0    0    0    0 -0.00000000000E+00 -0.00000000000E+00 -0.45593999997E+02  0.45594000000E+02  0.51100000000E-03 0. -1.
    9900012    2    1    2    0    0  0.19458747704E+02 -0.30945984191E+01  0.35566081129E+02  0.50528861686E+02  0.30000005580E+02 0.  0.
         12    1    1    2    0    0 -0.19458747704E+02  0.30945984191E+01 -0.35566081129E+02  0.40659138314E+02  0.00000000000E+00 0. -1.
         11    1    3    3    0    0 -0.51153240897E-01  0.58170823305E+01 -0.52609563444E+00  0.58410478830E+01  0.51100000000E-03 0. -1.
        -11    1    3    3    0    0  0.51367982780E+00 -0.71632415466E+01  0.11597414589E+02  0.13640964843E+02  0.51100000000E-03 0.  1.
         12    1    3    3    0    0  0.18996221117E+02 -0.17484392030E+01  0.24494762174E+02  0.31046848960E+02  0.00000000000E+00 0. -1.
</event>
<event>
 7    1  0.3141443E-011  0.5052888E+02  0.7816164E-02  0.1300439E+00
        -11   -1    0    0    0    0  0.00000000000E+00  0.00000000000E+00  0.45593999997E+02  0.45594000000E+02  0.51100000000E-03 0. -1.
         11   -1    0    0    0    0 -0.00000000000E+00 -0.00000000000E+00 -0.45593999997E+02  0.45594000000E+02  0.51100000000E-03 0.  1.
    9900012    2    1    2    0    0 -0.30582625128E+02  0.46239384179E+01 -0.26391032597E+02  0.50528875959E+02  0.30000048966E+02 0.  0.
         12    1    1    2    0    0  0.30582625128E+02 -0.46239384179E+01  0.26391032597E+02  0.40659124041E+02  0.00000000000E+00 0. -1.
         11    1    3    3    0    0 -0.13425664213E+01  0.39960693262E+00  0.29217468618E+01  0.32401813656E+01  0.51100000000E-03 0. -1.
        -11    1    3    3    0    0 -0.25730502330E+02 -0.42062177104E+01 -0.14352316360E+02  0.29761384422E+02  0.51100000000E-03 0.  1.
        -12    1    3    3    0    0 -0.35095563770E+01  0.84305491957E+01 -0.14960463099E+02  0.17527310171E+02  0.00000000000E+00 0.  1.
</event>
<event>
 7    1  0.3141443E-011  0.5052887E+02  0.7816164E-02  0.1300439E+00
        -11   -1    0    0    0    0  0.00000000000E+00  0.00000000000E+00  0.45593999997E+02  0.45594000000E+02  0.51100000000E-03 0.  1.
         11   -1    0    0    0    0 -0.00000000000E+00 -0.00000000000E+00 -0.45593999997E+02  0.45594000000E+02  0.51100000000E-03 0. -1.
    9900012    2    1    2    0    0  0.15822129851E+02 -0.34302856465E+01  0.37296892224E+02  0.50528870371E+02  0.30000031980E+02 0.  0.
         12    1    1    2    0    0 -0.15822129851E+02  0.34302856465E+01 -0.37296892224E+02  0.40659129629E+02  0.00000000000E+00 0. -1.
         11    1    3    3    0    0  0.57045409047E+00 -0.39243828437E+01  0.17005357901E+02  0.17461626390E+02  0.51100000000E-03 0. -1.
        -11    1    3    3    0    0 -0.16839433595E+01  0.63625389284E+01  0.11148720356E+02  0.12946487272E+02  0.51100000000E-03 0.  1.
        -12    1    3    3    0    0  0.16935619120E+02 -0.58684417312E+01  0.91428139669E+01  0.20120756709E+02  0.00000000000E+00 0.  1.
</event>
<event>
 7    1  0.3141443E-011  0.5052886E+02  0.7816164E-02  0.1300439E+00
        -11   -1    0    0    0    0  0.00000000000E+00  0.00000000000E+00  0.45593999997E+02  0.45594000000E+02  0.51100000000E-03 0. -1.
         11   -1    0    0    0    0 -0.00000000000E+00 -0.00000000000E+00 -0.45593999997E+02  0.45594000000E+02  0.51100000000E-03 0.  1.
    9900012    2    1    2    0    0 -0.39466108339E+02  0.11991069742E+01  0.97033197047E+01  0.50528856154E+02  0.29999988767E+02 0.  0.
         12    1    1    2    0    0  0.39466108339E+02 -0.11991069742E+01 -0.97033197047E+01  0.40659143846E+02  0.00000000000E+00 0. -1.
         11    1    3    3    0    0  0.36251078186E+00 -0.21337286763E+01 -0.23220021767E+01  0.31742568423E+01  0.51100000000E-03 0. -1.
        -11    1    3    3    0    0 -0.26766178601E+02 -0.17882807582E+01 -0.27652305589E+01  0.26967995203E+02  0.51100000000E-03 0.  1.
        -12    1    3    3    0    0 -0.13062440520E+02  0.51211164088E+01  0.14790552440E+02  0.20386604109E+02  0.00000000000E+00 0.  1.
</event>
<event>
 7    1  0.3141443E-011  0.5052885E+02  0.7816164E-02  0.1300439E+00
        -11   -1    0    0    0    0  0.00000000000E+00  0.00000000000E+00  0.45593999997E+02  0.45594000000E+02  0.51100000000E-03 0.  1.
         11   -1    0    0    0    0 -0.00000000000E+00 -0.00000000000E+00 -0.45593999997E+02  0.45594000000E+02  0.51100000000E-03 0. -1.
    9900012    2    1    2    0    0 -0.36344410048E+02 -0.14187326759E+02  0.11444208407E+02  0.50528852341E+02  0.29999977176E+02 0.  0.
         12    1    1    2    0    0  0.36344410048E+02  0.14187326759E+02 -0.11444208407E+02  0.40659147659E+02  0.00000000000E+00 0. -1.
         11    1    3    3    0    0 -0.21178122184E+02 -0.77540629355E+00 -0.34090610615E+01  0.21464757435E+02  0.51100000000E-03 0. -1.
        -11    1    3    3    0    0 -0.12567401323E+01 -0.70295158181E+01 -0.78424858269E+00  0.71839080241E+01  0.51100000000E-03 0.  1.
        -12    1    3    3    0    0 -0.13909547731E+02 -0.63824046475E+01  0.15637518052E+02  0.21880186882E+02  0.00000000000E+00 0.  1.
</event>
<event>
 7    1  0.3141443E-011  0.5052887E+02  0.7816164E-02  0.1300439E+00
        -11   -1    0    0    0    0  0.00000000000E+00  0.00000000000E+00  0.45593999997E+02  0.45594000000E+02  0.51100000000E-03 0.  1.
         11   -1    0    0    0    0 -0.00000000000E+00 -0.00000000000E+00 -0.45593999997E+02  0.45594000000E+02  0.51100000000E-03 0. -1.
    9900012    2    1    2    0    0 -0.21127419419E+02  0.11192404209E+02  0.32886574999E+02  0.50528873369E+02  0.30000041092E+02 0.  0.
         12    1    1    2    0    0  0.21127419419E+02 -0.11192404209E+02 -0.32886574999E+02  0.40659126631E+02  0.00000000000E+00 0. -1.
         11    1    3    3    0    0  0.53715305057E+00 -0.53095166694E+00 -0.18968393903E+01  0.20416765185E+01  0.51100000000E-03 0. -1.
        -11    1    3    3    0    0 -0.11842984820E+02 -0.54345328806E+01  0.19703232869E+02  0.23622189205E+02  0.51100000000E-03 0.  1.
        -12    1    3    3    0    0 -0.98215876488E+01  0.17157888757E+02  0.15080181521E+02  0.24865007646E+02  0.00000000000E+00 0.  1.
</event>
<event>
 7    1  0.3141443E-011  0.5052878E+02  0.7816164E-02  0.1300439E+00
        -11   -1    0    0    0    0  0.00000000000E+00  0.00000000000E+00  0.45593999997E+02  0.45594000000E+02  0.51100000000E-03 0.  1.
         11   -1    0    0    0    0 -0.00000000000E+00 -0.00000000000E+00 -0.45593999997E+02  0.45594000000E+02  0.51100000000E-03 0. -1.
    9900012    2    1    2    0    0 -0.17132108055E+02  0.23217063984E+02  0.28646657381E+02  0.50528780067E+02  0.29999757491E+02 0.  0.
         12    1    1    2    0    0  0.17132108055E+02 -0.23217063984E+02 -0.28646657381E+02  0.40659219933E+02  0.00000000000E+00 0. -1.
         11    1    3    3    0    0 -0.12151188326E+01 -0.51368779248E-01  0.19281868096E+02  0.19320186077E+02  0.51100000000E-03 0. -1.
        -11    1    3    3    0    0  0.43311190382E+00  0.16986583624E+01  0.28877128374E+01  0.33781521347E+01  0.51100000000E-03 0.  1.
        -12    1    3    3    0    0 -0.16350101127E+02  0.21569774401E+02  0.64770764482E+01  0.27830441855E+02  0.00000000000E+00 0.  1.
</event>
<event>
 7    1  0.3141443E-011  0.5052879E+02  0.7816164E-02  0.1300439E+00
        -11   -1    0    0    0    0  0.00000000000E+00  0.00000000000E+00  0.45593999997E+02  0.45594000000E+02  0.51100000000E-03 0. -1.
         11   -1    0    0    0    0 -0.00000000000E+00 -0.00000000000E+00 -0.45593999997E+02  0.45594000000E+02  0.51100000000E-03 0.  1.
    9900012    2    1    2    0    0  0.16570560216E+02 -0.11994471625E+02 -0.35138586346E+02  0.50528793591E+02  0.29999798598E+02 0.  0.
         12    1    1    2    0    0 -0.16570560216E+02  0.11994471625E+02  0.35138586346E+02  0.40659206409E+02  0.00000000000E+00 0. -1.
         11    1    3    3    0    0 -0.18446262740E+01 -0.13345507814E+01  0.14325483327E+01  0.26899566661E+01  0.51100000000E-03 0. -1.
        -11    1    3    3    0    0  0.12980783869E+02 -0.34791902636E+01 -0.39645233887E+01  0.14011529563E+02  0.51100000000E-03 0.  1.
         12    1    3    3    0    0  0.54344026215E+01 -0.71807305805E+01 -0.32606611290E+02  0.33827307361E+02  0.00000000000E+00 0. -1.
</event>
<event>
 7    1  0.3141443E-011  0.5052886E+02  0.7816164E-02  0.1300439E+00
        -11   -1    0    0    0    0  0.00000000000E+00  0.00000000000E+00  0.45593999997E+02  0.45594000000E+02  0.51100000000E-03 0.  1.
         11   -1    0    0    0    0 -0.00000000000E+00 -0.00000000000E+00 -0.45593999997E+02  0.45594000000E+02  0.51100000000E-03 0. -1.
    9900012    2    1    2    0    0  0.58998626811E+01  0.13270928768E+02  0.37976835713E+02  0.50528856123E+02  0.29999988671E+02 0.  0.
         12    1    1    2    0    0 -0.58998626811E+01 -0.13270928768E+02 -0.37976835713E+02  0.40659143877E+02  0.00000000000E+00 0. -1.
         11    1    3    3    0    0  0.99105744854E-01 -0.49828225734E+01  0.16059835700E+01  0.52361747712E+01  0.51100000000E-03 0. -1.
        -11    1    3    3    0    0 -0.56870270344E+01  0.49405011260E+01  0.41880589058E+01  0.86192032999E+01  0.51100000000E-03 0.  1.
        -12    1    3    3    0    0  0.11487783971E+02  0.13313250215E+02  0.32182793237E+02  0.36673478052E+02  0.00000000000E+00 0.  1.
</event>
<event>
 7    1  0.3141443E-011  0.5052885E+02  0.7816164E-02  0.1300439E+00
        -11   -1    0    0    0    0  0.00000000000E+00  0.00000000000E+00  0.45593999997E+02  0.45594000000E+02  0.51100000000E-03 0.  1.
         11   -1    0    0    0    0 -0.00000000000E+00 -0.00000000000E+00 -0.45593999997E+02  0.45594000000E+02  0.51100000000E-03 0. -1.
    9900012    2    1    2    0    0  0.23612100203E+01  0.70153424093E+01  0.39979696102E+02  0.50528850448E+02  0.29999971423E+02 0.  0.
         12    1    1    2    0    0 -0.23612100203E+01 -0.70153424093E+01 -0.39979696102E+02  0.40659149552E+02  0.00000000000E+00 0. -1.
         11    1    3    3    0    0  0.17662217980E+01  0.98063698484E+01  0.24757136142E+02  0.26687079631E+02  0.51100000000E-03 0. -1.
        -11    1    3    3    0    0  0.60902466589E+01 -0.15821317695E+01  0.16848278160E+02  0.17984958229E+02  0.51100000000E-03 0.  1.
         12    1    3    3    0    0 -0.54952584366E+01 -0.12088956697E+01 -0.16257181997E+01  0.58568125880E+01  0.00000000000E+00 0. -1.
</event>
<event>
 7    1  0.3141443E-011  0.5052886E+02  0.7816164E-02  0.1300439E+00
        -11   -1    0    0    0    0  0.00000000000E+00  0.00000000000E+00  0.45593999997E+02  0.45594000000E+02  0.51100000000E-03 0.  1.
         11   -1    0    0    0    0 -0.00000000000E+00 -0.00000000000E+00 -0.45593999997E+02  0.45594000000E+02  0.51100000000E-03 0. -1.
    9900012    2    1    2    0    0 -0.36821474515E+02 -0.15830851401E+02 -0.68358778189E+01  0.50528855062E+02  0.29999985445E+02 0.  0.
         12    1    1    2    0    0  0.36821474515E+02  0.15830851401E+02  0.68358778189E+01  0.40659144938E+02  0.00000000000E+00 0. -1.
         11    1    3    3    0    0 -0.21933012621E+02 -0.73009898299E+01 -0.15753586271E+02  0.27973862368E+02  0.51100000000E-03 0. -1.
        -11    1    3    3    0    0 -0.14728086986E+02 -0.32390557814E+01  0.47266686523E+01  0.15803462451E+02  0.51100000000E-03 0.  1.
         12    1    3    3    0    0 -0.16037490832E+00 -0.52908057898E+01  0.41910397996E+01  0.67515302427E+01  0.00000000000E+00 0. -1.
</event>
<event>
 7    1  0.3141443E-011  0.5052886E+02  0.7816164E-02  0.1300439E+00
        -11   -1    0    0    0    0  0.00000000000E+00  0.00000000000E+00  0.45593999997E+02  0.45594000000E+02  0.51100000000E-03 0. -1.
         11   -1    0    0    0    0 -0.00000000000E+00 -0.00000000000E+00 -0.45593999997E+02  0.45594000000E+02  0.51100000000E-03 0.  1.
    9900012    2    1    2    0    0 -0.31911841633E+02 -0.19378691377E+02 -0.16101747464E+02  0.50528860963E+02  0.30000003382E+02 0.  0.
         12    1    1    2    0    0  0.31911841633E+02  0.19378691377E+02  0.16101747464E+02  0.40659139037E+02  0.00000000000E+00 0. -1.
         11    1    3    3    0    0 -0.99649556831E+00 -0.11795534264E+01 -0.11846482838E+02  0.11946694338E+02  0.51100000000E-03 0. -1.
        -11    1    3    3    0    0 -0.29823888551E+01 -0.41784909959E+01  0.37039533698E+01  0.63303792235E+01  0.51100000000E-03 0.  1.
        -12    1    3    3    0    0 -0.27932957209E+02 -0.14020646955E+02 -0.79592179955E+01  0.32251787401E+02  0.00000000000E+00 0.  1.
</event>
<event>
 7    1  0.3141443E-011  0.5052889E+02  0.7816164E-02  0.1300439E+00
        -11   -1    0    0    0    0  0.00000000000E+00  0.00000000000E+00  0.45593999997E+02  0.45594000000E+02  0.51100000000E-03 0.  1.
         11   -1    0    0    0    0 -0.00000000000E+00 -0.00000000000E+00 -0.45593999997E+02  0.45594000000E+02  0.51100000000E-03 0. -1.
    9900012    2    1    2    0    0 -0.21661619931E+02  0.26510866219E+02 -0.21934260485E+02  0.50528885539E+02  0.30000078084E+02 0.  0.
         12    1    1    2    0    0  0.21661619931E+02 -0.26510866219E+02  0.21934260485E+02  0.40659114461E+02  0.00000000000E+00 0. -1.
         11    1    3    3    0    0 -0.51987574356E+01  0.98088656287E+01  0.17273373964E+01  0.11234973010E+02  0.51100000000E-03 0. -1.
        -11    1    3    3    0    0 -0.39416474715E+01  0.12847739042E+02 -0.14636653724E+01  0.13518258019E+02  0.51100000000E-03 0.  1.
         12    1    3    3    0    0 -0.12521215024E+02  0.38542615486E+01 -0.22197932509E+02  0.25775654510E+02  0.00000000000E+00 0. -1.
</event>
<event>
 7    1  0.3141443E-011  0.5052886E+02  0.7816164E-02  0.1300439E+00
        -11   -1    0    0    0    0  0.00000000000E+00  0.00000000000E+00  0.45593999997E+02  0.45594000000E+02  0.51100000000E-03 0.  1.
         11   -1    0    0    0    0 -0.00000000000E+00 -0.00000000000E+00 -0.45593999997E+02  0.45594000000E+02  0.51100000000E-03 0. -1.
    9900012    2    1    2    0    0  0.12843316763E+02 -0.31993681142E+00  0.38576057437E+02  0.50528863851E+02  0.30000012162E+02 0.  0.
         12    1    1    2    0    0 -0.12843316763E+02  0.31993681142E+00 -0.38576057437E+02  0.40659136149E+02  0.00000000000E+00 0. -1.
         11    1    3    3    0    0  0.34571292306E+01  0.18025630877E+01 -0.28664987417E+01  0.48391932695E+01  0.51100000000E-03 0. -1.
        -11    1    3    3    0    0 -0.12306678844E+01 -0.71958074676E+01  0.18899709293E+02  0.20260631781E+02  0.51100000000E-03 0.  1.
        -12    1    3    3    0    0  0.10616855416E+02  0.50733075686E+01  0.22542846886E+02  0.25429038801E+02  0.00000000000E+00 0.  1.
</event>
<event>
 7    1  0.3141443E-011  0.5052886E+02  0.7816164E-02  0.1300439E+00
        -11   -1    0    0    0    0  0.00000000000E+00  0.00000000000E+00  0.45593999997E+02  0.45594000000E+02  0.51100000000E-03 0. -1.
         11   -1    0    0    0    0 -0.00000000000E+00 -0.00000000000E+00 -0.45593999997E+02  0.45594000000E+02  0.51100000000E-03 0.  1.
    9900012    2    1    2    0    0 -0.86333823364E+01  0.39368518184E+02  0.53619043141E+01  0.50528861637E+02  0.30000005431E+02 0.  0.
         12    1    1    2    0    0  0.86333823364E+01 -0.39368518184E+02 -0.53619043141E+01  0.40659138363E+02  0.00000000000E+00 0. -1.
         11    1    3    3    0    0 -0.15963683563E+01  0.17429163942E+00 -0.20623157417E+01  0.26137934089E+01  0.51100000000E-03 0.  1.
        -11    1    3    3    0    0 -0.54399102611E+01  0.39798084524E+02 -0.13197086847E+00  0.40168365314E+02  0.51100000000E-03 0. -1.
         12    1    3    3    0    0 -0.15971037190E+01 -0.60385797927E+00  0.75561909243E+01  0.77467029137E+01  0.00000000000E+00 0. -1.
</event>
<event>
 7    1  0.3141443E-011  0.5052886E+02  0.7816164E-02  0.1300439E+00
        -11   -1    0    0    0    0  0.00000000000E+00  0.00000000000E+00  0.45593999997E+02  0.45594000000E+02  0.51100000000E-03 0. -1.
         11   -1    0    0    0    0 -0.00000000000E+00 -0.00000000000E+00 -0.45593999997E+02  0.45594000000E+02  0.51100000000E-03 0.  1.
    9900012    2    1    2    0    0  0.86449199479E+01  0.15067961911E+02 -0.36761219401E+02  0.50528863648E+02  0.30000011545E+02 0.  0.
         12    1    1    2    0    0 -0.86449199479E+01 -0.15067961911E+02  0.36761219401E+02  0.40659136352E+02  0.00000000000E+00 0. -1.
         11    1    3    3    0    0  0.14750802902E+01  0.27708252017E+01 -0.14849043752E+02  0.15177201150E+02  0.51100000000E-03 0. -1.
        -11    1    3    3    0    0  0.12968823072E+02  0.14331934204E+02 -0.21895136403E+02  0.29206021781E+02  0.51100000000E-03 0.  1.
         12    1    3    3    0    0 -0.57989834141E+01 -0.20347974945E+01 -0.17039245690E-01  0.61456407165E+01  0.00000000000E+00 0. -1.
</event>
<event>
 7    1  0.3141443E-011  0.5052894E+02  0.7816164E-02  0.1300439E+00
        -11   -1    0    0    0    0  0.00000000000E+00  0.00000000000E+00  0.45593999997E+02  0.45594000000E+02  0.51100000000E-03 0.  1.
         11   -1    0    0    0    0 -0.00000000000E+00 -0.00000000000E+00 -0.45593999997E+02  0.45594000000E+02  0.51100000000E-03 0. -1.
    9900012    2    1    2    0    0  0.28703008098E+02  0.26225987700E+02  0.11895130772E+02  0.50528939008E+02  0.30000240607E+02 0.  0.
         12    1    1    2    0    0 -0.28703008098E+02 -0.26225987700E+02 -0.11895130772E+02  0.40659060992E+02  0.00000000000E+00 0. -1.
         11    1    3    3    0    0  0.22344528055E+02  0.19877125613E+02  0.32327838845E+01  0.30080374808E+02  0.51100000000E-03 0. -1.
        -11    1    3    3    0    0  0.13592825544E+01  0.24177198672E+01 -0.48089724719E+01  0.55515074454E+01  0.51100000000E-03 0.  1.
        -12    1    3    3    0    0  0.49991974885E+01  0.39311422188E+01  0.13471319359E+02  0.14897056755E+02  0.00000000000E+00 0.  1.
</event>
<event>
 7    1  0.3141443E-011  0.5052886E+02  0.7816164E-02  0.1300439E+00
        -11   -1    0    0    0    0  0.00000000000E+00  0.00000000000E+00  0.45593999997E+02  0.45594000000E+02  0.51100000000E-03 0.  1.
         11   -1    0    0    0    0 -0.00000000000E+00 -0.00000000000E+00 -0.45593999997E+02  0.45594000000E+02  0.51100000000E-03 0. -1.
    9900012    2    1    2    0    0  0.39791811804E+01  0.10713122821E+01  0.40449774426E+02  0.50528857805E+02  0.29999993785E+02 0.  0.
         12    1    1    2    0    0 -0.39791811804E+01 -0.10713122821E+01 -0.40449774426E+02  0.40659142195E+02  0.00000000000E+00 0. -1.
         11    1    3    3    0    0  0.14014479861E+01  0.92782916908E+01  0.42660639014E+01  0.10307766714E+02  0.51100000000E-03 0. -1.
        -11    1    3    3    0    0 -0.53093664842E+01 -0.58764692806E+01  0.98843750572E+01  0.12665825445E+02  0.51100000000E-03 0.  1.
         12    1    3    3    0    0  0.78870996785E+01 -0.23305101281E+01  0.26299335468E+02  0.27555265646E+02  0.00000000000E+00 0. -1.
</event>
<event>
 7    1  0.3141443E-011  0.5052886E+02  0.7816164E-02  0.1300439E+00
        -11   -1    0    0    0    0  0.00000000000E+00  0.00000000000E+00  0.45593999997E+02  0.45594000000E+02  0.51100000000E-03 0.  1.
         11   -1    0    0    0    0 -0.00000000000E+00 -0.00000000000E+00 -0.45593999997E+02  0.45594000000E+02  0.51100000000E-03 0. -1.
    9900012    2    1    2    0    0 -0.37886129709E+02  0.10939235489E+02  0.99065684520E+01  0.50528858397E+02  0.29999995584E+02 0.  0.
         12    1    1    2    0    0  0.37886129709E+02 -0.10939235489E+02 -0.99065684520E+01  0.40659141603E+02  0.00000000000E+00 0. -1.
         11    1    3    3    0    0 -0.21840772065E+01 -0.73647160718E+00  0.44439636888E+01  0.50061359550E+01  0.51100000000E-03 0. -1.
        -11    1    3    3    0    0 -0.11458164907E+02  0.38829243086E+01  0.14149290209E+02  0.18616365325E+02  0.51100000000E-03 0.  1.
         12    1    3    3    0    0 -0.24243887595E+02  0.77927827877E+01 -0.86866854457E+01  0.26906357117E+02  0.00000000000E+00 0. -1.
</event>
<event>
 7    1  0.3141443E-011  0.5052886E+02  0.7816164E-02  0.1300439E+00
        -11   -1    0    0    0    0  0.00000000000E+00  0.00000000000E+00  0.45593999997E+02  0.45594000000E+02  0.51100000000E-03 0. -1.
         11   -1    0    0    0    0 -0.00000000000E+00 -0.00000000000E+00 -0.45593999997E+02  0.45594000000E+02  0.51100000000E-03 0.  1.
    9900012    2    1    2    0    0  0.26437693638E+02 -0.29419291298E+02 -0.94190840969E+01  0.50528862151E+02  0.30000006996E+02 0.  0.
         12    1    1    2    0    0 -0.26437693638E+02  0.29419291298E+02  0.94190840969E+01  0.40659137849E+02  0.00000000000E+00 0. -1.
         11    1    3    3    0    0  0.13179897361E+02 -0.50645743234E+01 -0.27163662864E+01  0.14378395376E+02  0.51100000000E-03 0. -1.
        -11    1    3    3    0    0  0.67457250036E+01 -0.44633102142E+01  0.73589597569E+01  0.10935274704E+02  0.51100000000E-03 0.  1.
         12    1    3    3    0    0  0.65120712729E+01 -0.19891406760E+02 -0.14061677567E+02  0.25215192071E+02  0.00000000000E+00 0. -1.
</event>
<event>
 7    1  0.3141443E-011  0.5052886E+02  0.7816164E-02  0.1300439E+00
        -11   -1    0    0    0    0  0.00000000000E+00  0.00000000000E+00  0.45593999997E+02  0.45594000000E+02  0.51100000000E-03 0.  1.
         11   -1    0    0    0    0 -0.00000000000E+00 -0.00000000000E+00 -0.45593999997E+02  0.45594000000E+02  0.51100000000E-03 0. -1.
    9900012    2    1    2    0    0  0.68754203770E+01 -0.14719839730E+01  0.40046564990E+02  0.50528861917E+02  0.30000006281E+02 0.  0.
         12    1    1    2    0    0 -0.68754203770E+01  0.14719839730E+01 -0.40046564990E+02  0.40659138083E+02  0.00000000000E+00 0. -1.
         11    1    3    3    0    0 -0.90649943361E+00  0.43884769937E+01  0.95758977231E+01  0.10572525196E+02  0.51100000000E-03 0. -1.
        -11    1    3    3    0    0  0.12912411462E+00 -0.53457884212E+00 -0.41070187126E+01  0.41436759697E+01  0.51100000000E-03 0.  1.
        -12    1    3    3    0    0  0.76527956960E+01 -0.53258821246E+01  0.34577685980E+02  0.35812660751E+02  0.00000000000E+00 0.  1.
</event>
<event>
 7    1  0.3141443E-011  0.5052884E+02  0.7816164E-02  0.1300439E+00
        -11   -1    0    0    0    0  0.00000000000E+00  0.00000000000E+00  0.45593999997E+02  0.45594000000E+02  0.51100000000E-03 0.  1.
         11   -1    0    0    0    0 -0.00000000000E+00 -0.00000000000E+00 -0.45593999997E+02  0.45594000000E+02  0.51100000000E-03 0. -1.
    9900012    2    1    2    0    0 -0.31089698005E+02  0.69262548502E+01  0.25271023184E+02  0.50528844314E+02  0.29999952778E+02 0.  0.
         12    1    1    2    0    0  0.31089698005E+02 -0.69262548502E+01 -0.25271023184E+02  0.40659155686E+02  0.00000000000E+00 0. -1.
         11    1    3    3    0    0 -0.64158935497E+01 -0.78030006027E+01  0.68533813425E+01  0.12207347973E+02  0.51100000000E-03 0. -1.
        -11    1    3    3    0    0 -0.23488432328E+02  0.57416305184E+01  0.10808018721E+02  0.26485581798E+02  0.51100000000E-03 0.  1.
        -12    1    3    3    0    0 -0.11853721270E+01  0.89876249345E+01  0.76096231203E+01  0.11835914543E+02  0.00000000000E+00 0.  1.
</event>
<event>
 7    1  0.3141443E-011  0.5052887E+02  0.7816164E-02  0.1300439E+00
        -11   -1    0    0    0    0  0.00000000000E+00  0.00000000000E+00  0.45593999997E+02  0.45594000000E+02  0.51100000000E-03 0.  1.
         11   -1    0    0    0    0 -0.00000000000E+00 -0.00000000000E+00 -0.45593999997E+02  0.45594000000E+02  0.51100000000E-03 0. -1.
    9900012    2    1    2    0    0  0.26985490335E+02  0.28236936259E+02  0.11297050531E+02  0.50528872997E+02  0.30000039962E+02 0.  0.
         12    1    1    2    0    0 -0.26985490335E+02 -0.28236936259E+02 -0.11297050531E+02  0.40659127003E+02  0.00000000000E+00 0. -1.
         11    1    3    3    0    0  0.11944571888E+02  0.27377090197E+02 -0.15035143727E+01  0.29907163372E+02  0.51100000000E-03 0. -1.
        -11    1    3    3    0    0  0.50239142340E+01  0.28972641206E+01  0.33341647064E+01  0.66895820621E+01  0.51100000000E-03 0.  1.
         12    1    3    3    0    0  0.10017004213E+02 -0.20374180577E+01  0.94664001969E+01  0.13932127563E+02  0.00000000000E+00 0. -1.
</event>
<event>
 7    1  0.3141443E-011  0.5052885E+02  0.7816164E-02  0.1300439E+00
        -11   -1    0    0    0    0  0.00000000000E+00  0.00000000000E+00  0.45593999997E+02  0.45594000000E+02  0.51100000000E-03 0.  1.
         11   -1    0    0    0    0 -0.00000000000E+00 -0.00000000000E+00 -0.45593999997E+02  0.45594000000E+02  0.51100000000E-03 0. -1.
    9900012    2    1    2    0    0  0.13760323331E+02 -0.32612951364E+02  0.20005376291E+02  0.50528853730E+02  0.29999981398E+02 0.  0.
         12    1    1    2    0    0 -0.13760323331E+02  0.32612951364E+02 -0.20005376291E+02  0.40659146270E+02  0.00000000000E+00 0. -1.
         11    1    3    3    0    0  0.50203369694E+01 -0.18652384793E+00  0.34303463443E+01  0.60832434388E+01  0.51100000000E-03 0. -1.
        -11    1    3    3    0    0 -0.75701398446E+01 -0.15184009199E+02  0.34143283962E+01  0.17306611202E+02  0.51100000000E-03 0.  1.
         12    1    3    3    0    0  0.16310126206E+02 -0.17242418317E+02  0.13160701551E+02  0.27138999089E+02  0.00000000000E+00 0. -1.
</event>
<event>
 7    1  0.3141443E-011  0.5052889E+02  0.7816164E-02  0.1300439E+00
        -11   -1    0    0    0    0  0.00000000000E+00  0.00000000000E+00  0.45593999997E+02  0.45594000000E+02  0.51100000000E-03 0.  1.
         11   -1    0    0    0    0 -0.00000000000E+00 -0.00000000000E+00 -0.45593999997E+02  0.45594000000E+02  0.51100000000E-03 0. -1.
    9900012    2    1    2    0    0 -0.31347310335E+02 -0.25360710210E+02  0.52291246352E+01  0.50528889926E+02  0.30000091418E+02 0.  0.
         12    1    1    2    0    0  0.31347310335E+02  0.25360710210E+02 -0.52291246352E+01  0.40659110074E+02  0.00000000000E+00 0. -1.
         11    1    3    3    0    0 -0.80535602649E+01 -0.87749882825E+01  0.91853638317E+01  0.15040982723E+02  0.51100000000E-03 0.  1.
        -11    1    3    3    0    0 -0.16355033187E+02 -0.20463221611E+02  0.83063843517E+00  0.26209168429E+02  0.51100000000E-03 0. -1.
         12    1    3    3    0    0 -0.69387168828E+01  0.38774996831E+01 -0.47868776316E+01  0.92787387738E+01  0.00000000000E+00 0. -1.
</event>
<event>
 7    1  0.3141443E-011  0.5052886E+02  0.7816164E-02  0.1300439E+00
        -11   -1    0    0    0    0  0.00000000000E+00  0.00000000000E+00  0.45593999997E+02  0.45594000000E+02  0.51100000000E-03 0.  1.
         11   -1    0    0    0    0 -0.00000000000E+00 -0.00000000000E+00 -0.45593999997E+02  0.45594000000E+02  0.51100000000E-03 0. -1.
    9900012    2    1    2    0    0  0.21478424094E+02  0.14488452087E+02  0.31335722217E+02  0.50528862868E+02  0.30000009175E+02 0.  0.
         12    1    1    2    0    0 -0.21478424094E+02 -0.14488452087E+02 -0.31335722217E+02  0.40659137132E+02  0.00000000000E+00 0. -1.
         11    1    3    3    0    0  0.31620046196E+01 -0.41821246677E+01  0.11666782585E+02  0.12790709758E+02  0.51100000000E-03 0. -1.
        -11    1    3    3    0    0  0.62807055767E+01 -0.23521504848E+01  0.91105623237E+01  0.11312922724E+02  0.51100000000E-03 0.  1.
        -12    1    3    3    0    0  0.12035713897E+02  0.21022727240E+02  0.10558377308E+02  0.26425230387E+02  0.00000000000E+00 0.  1.
</event>
<event>
 7    1  0.3141443E-011  0.5052886E+02  0.7816164E-02  0.1300439E+00
        -11   -1    0    0    0    0  0.00000000000E+00  0.00000000000E+00  0.45593999997E+02  0.45594000000E+02  0.51100000000E-03 0. -1.
         11   -1    0    0    0    0 -0.00000000000E+00 -0.00000000000E+00 -0.45593999997E+02  0.45594000000E+02  0.51100000000E-03 0.  1.
    9900012    2    1    2    0    0 -0.25083481227E+02 -0.54835945485E+01 -0.31526410076E+02  0.50528863611E+02  0.30000011432E+02 0.  0.
         12    1    1    2    0    0  0.25083481227E+02  0.54835945485E+01  0.31526410076E+02  0.40659136389E+02  0.00000000000E+00 0. -1.
         11    1    3    3    0    0 -0.18074089529E+01  0.92654879136E+01 -0.72647766926E+01  0.11911883732E+02  0.51100000000E-03 0. -1.
        -11    1    3    3    0    0  0.42106828025E+00 -0.33292966486E+01 -0.99935008906E+00  0.35014590577E+01  0.51100000000E-03 0.  1.
         12    1    3    3    0    0 -0.23697140554E+02 -0.11419785814E+02 -0.23262283294E+02  0.35115520821E+02  0.00000000000E+00 0. -1.
</event>
<event>
 7    1  0.3182147E-011  0.5052888E+02  0.7816164E-02  0.1300439E+00
        -11   -1    0    0    0    0  0.00000000000E+00  0.00000000000E+00  0.45593999997E+02  0.45594000000E+02  0.51100000000E-03 0.  1.
         11   -1    0    0    0    0 -0.00000000000E+00 -0.00000000000E+00 -0.45593999997E+02  0.45594000000E+02  0.51100000000E-03 0. -1.
    9900012    2    1    2    0    0  0.49995752894E+01 -0.39647166911E+02  0.75013452087E+01  0.50528883223E+02  0.30000071046E+02 0.  0.
         12    1    1    2    0    0 -0.49995752894E+01  0.39647166911E+02 -0.75013452087E+01  0.40659116777E+02  0.00000000000E+00 0. -1.
         11    1    3    3    0    0 -0.58319901397E+01 -0.10732718172E+02  0.99322076959E+01  0.15743319165E+02  0.51100000000E-03 0. -1.
        -11    1    3    3    0    0  0.34256073845E+01  0.79121509072E+00 -0.22424190076E+01  0.41700420309E+01  0.51100000000E-03 0.  1.
        -12    1    3    3    0    0  0.74059580447E+01 -0.29705663829E+02 -0.18844347949E+00  0.30615522028E+02  0.00000000000E+00 0.  1.
</event>
<event>
 7    1  0.3141443E-011  0.5052886E+02  0.7816164E-02  0.1300439E+00
        -11   -1    0    0    0    0  0.00000000000E+00  0.00000000000E+00  0.45593999997E+02  0.45594000000E+02  0.51100000000E-03 0.  1.
         11   -1    0    0    0    0 -0.00000000000E+00 -0.00000000000E+00 -0.45593999997E+02  0.45594000000E+02  0.51100000000E-03 0. -1.
    9900012    2    1    2    0    0 -0.79249017424E+01 -0.31785591895E+02  0.24083975914E+02  0.50528858155E+02  0.29999994847E+02 0.  0.
         12    1    1    2    0    0  0.79249017424E+01  0.31785591895E+02 -0.24083975914E+02  0.40659141845E+02  0.00000000000E+00 0. -1.
         11    1    3    3    0    0  0.11028018956E+01  0.68001969693E+00 -0.41854345533E-01  0.12962834785E+01  0.51100000000E-03 0. -1.
        -11    1    3    3    0    0 -0.17517609380E+02 -0.16151391046E+02  0.91805816542E+01  0.25534626508E+02  0.51100000000E-03 0.  1.
        -12    1    3    3    0    0  0.84899057418E+01 -0.16314220546E+02  0.14945248605E+02  0.23697948169E+02  0.00000000000E+00 0.  1.
</event>
<event>
 7    1  0.3141443E-011  0.5052885E+02  0.7816164E-02  0.1300439E+00
        -11   -1    0    0    0    0  0.00000000000E+00  0.00000000000E+00  0.45593999997E+02  0.45594000000E+02  0.51100000000E-03 0. -1.
         11   -1    0    0    0    0 -0.00000000000E+00 -0.00000000000E+00 -0.45593999997E+02  0.45594000000E+02  0.51100000000E-03 0.  1.
    9900012    2    1    2    0    0 -0.39731082303E+02  0.68250820684E+01  0.52939266202E+01  0.50528852133E+02  0.29999976542E+02 0.  0.
         12    1    1    2    0    0  0.39731082303E+02 -0.68250820684E+01 -0.52939266202E+01  0.40659147867E+02  0.00000000000E+00 0. -1.
         11    1    3    3    0    0 -0.97124231535E+01 -0.58382436229E+01  0.30060812327E+01  0.11724025621E+02  0.51100000000E-03 0. -1.
        -11    1    3    3    0    0 -0.71252885651E+01 -0.28149042960E+00 -0.78623324046E+01  0.10614388588E+02  0.51100000000E-03 0.  1.
         12    1    3    3    0    0 -0.22893370585E+02  0.12944816121E+02  0.10150177792E+02  0.28190437924E+02  0.00000000000E+00 0. -1.
</event>
<event>
 7    1  0.3221452E-011  0.5052886E+02  0.7816164E-02  0.1300439E+00
        -11   -1    0    0    0    0  0.00000000000E+00  0.00000000000E+00  0.45593999997E+02  0.45594000000E+02  0.51100000000E-03 0.  1.
         11   -1    0    0    0    0 -0.00000000000E+00 -0.00000000000E+00 -0.45593999997E+02  0.45594000000E+02  0.51100000000E-03 0. -1.
    9900012    2    1    2    0    0  0.54092806423E+01 -0.17823660012E+02  0.36141695570E+02  0.50528864102E+02  0.30000012924E+02 0.  0.
         12    1    1    2    0    0 -0.54092806423E+01  0.17823660012E+02 -0.36141695570E+02  0.40659135898E+02  0.00000000000E+00 0. -1.
         11    1    3    3    0    0 -0.11287916014E+01 -0.19214640232E+00 -0.36385252032E+01  0.38144405402E+01  0.51100000000E-03 0. -1.
        -11    1    3    3    0    0  0.78200030660E+01 -0.10554532784E+02  0.11260194542E+02  0.17301519922E+02  0.51100000000E-03 0.  1.
        -12    1    3    3    0    0 -0.12819308224E+01 -0.70769808251E+01  0.28520026232E+02  0.29412903639E+02  0.00000000000E+00 0.  1.
</event>
<event>
 7    1  0.3141443E-011  0.5052888E+02  0.7816164E-02  0.1300439E+00
        -11   -1    0    0    0    0  0.00000000000E+00  0.00000000000E+00  0.45593999997E+02  0.45594000000E+02  0.51100000000E-03 0.  1.
         11   -1    0    0    0    0 -0.00000000000E+00 -0.00000000000E+00 -0.45593999997E+02  0.45594000000E+02  0.51100000000E-03 0. -1.
    9900012    2    1    2    0    0  0.86466389059E+01  0.75821463009E+01  0.38998857221E+02  0.50528878373E+02  0.30000056303E+02 0.  0.
         12    1    1    2    0    0 -0.86466389059E+01 -0.75821463009E+01 -0.38998857221E+02  0.40659121627E+02  0.00000000000E+00 0. -1.
         11    1    3    3    0    0  0.39309828508E+01 -0.71570824443E+01  0.43736882885E+01  0.92631314788E+01  0.51100000000E-03 0. -1.
        -11    1    3    3    0    0  0.10620238822E+01  0.14319743608E+02  0.13126419823E+02  0.19454712780E+02  0.51100000000E-03 0.  1.
         12    1    3    3    0    0  0.36536321729E+01  0.41948513695E+00  0.21498749110E+02  0.21811034114E+02  0.00000000000E+00 0. -1.
</event>
<event>
 7    1  0.3141443E-011  0.5052880E+02  0.7816164E-02  0.1300439E+00
        -11   -1    0    0    0    0  0.00000000000E+00  0.00000000000E+00  0.45593999997E+02  0.45594000000E+02  0.51100000000E-03 0.  1.
         11   -1    0    0    0    0 -0.00000000000E+00 -0.00000000000E+00 -0.45593999997E+02  0.45594000000E+02  0.51100000000E-03 0. -1.
    9900012    2    1    2    0    0  0.34097475288E+01  0.28372149703E+02  0.28923433522E+02  0.50528803456E+02  0.29999828584E+02 0.  0.
         12    1    1    2    0    0 -0.34097475288E+01 -0.28372149703E+02 -0.28923433522E+02  0.40659196544E+02  0.00000000000E+00 0. -1.
         11    1    3    3    0    0  0.12420597535E+02  0.24401950393E+01  0.15130203335E+02  0.19726856013E+02  0.51100000000E-03 0. -1.
        -11    1    3    3    0    0 -0.81605787804E+00  0.47354923276E+01  0.20911965598E+01  0.52406050565E+01  0.51100000000E-03 0.  1.
         12    1    3    3    0    0 -0.81947921281E+01  0.21196462336E+02  0.11702033627E+02  0.25561342386E+02  0.00000000000E+00 0. -1.
</event>
<event>
 7    1  0.3141443E-011  0.5052890E+02  0.7816164E-02  0.1300439E+00
        -11   -1    0    0    0    0  0.00000000000E+00  0.00000000000E+00  0.45593999997E+02  0.45594000000E+02  0.51100000000E-03 0. -1.
         11   -1    0    0    0    0 -0.00000000000E+00 -0.00000000000E+00 -0.45593999997E+02  0.45594000000E+02  0.51100000000E-03 0.  1.
    9900012    2    1    2    0    0 -0.40424561253E+02  0.35377157087E+01  0.25498384678E+01  0.50528901865E+02  0.30000127709E+02 0.  0.
         12    1    1    2    0    0  0.40424561253E+02 -0.35377157087E+01 -0.25498384678E+01  0.40659098135E+02  0.00000000000E+00 0. -1.
         11    1    3    3    0    0 -0.11802563172E+02 -0.55303579795E+01 -0.10655951859E+01  0.13077494032E+02  0.51100000000E-03 0. -1.
        -11    1    3    3    0    0 -0.16575079710E+02 -0.61389325839E+01 -0.21319019098E+00  0.17676685520E+02  0.51100000000E-03 0.  1.
         12    1    3    3    0    0 -0.12046918371E+02  0.15207006272E+02  0.38286238447E+01  0.19774722313E+02  0.00000000000E+00 0. -1.
</event>
<event>
 7    1  0.3141443E-011  0.5052886E+02  0.7816164E-02  0.1300439E+00
        -11   -1    0    0    0    0  0.00000000000E+00  0.00000000000E+00  0.45593999997E+02  0.45594000000E+02  0.51100000000E-03 0.  1.
         11   -1    0    0    0    0 -0.00000000000E+00 -0.00000000000E+00 -0.45593999997E+02  0.45594000000E+02  0.51100000000E-03 0. -1.
    9900012    2    1    2    0    0  0.24837510779E+02  0.25347229965E+02  0.19843933179E+02  0.50528859667E+02  0.29999999443E+02 0.  0.
         12    1    1    2    0    0 -0.24837510779E+02 -0.25347229965E+02 -0.19843933179E+02  0.40659140333E+02  0.00000000000E+00 0. -1.
         11    1    3    3    0    0  0.31942373204E+01 -0.35632367719E+01  0.11991070807E+02  0.12910677276E+02  0.51100000000E-03 0. -1.
        -11    1    3    3    0    0  0.14958064105E+01  0.33292546901E+01 -0.11627969405E+01  0.38305966369E+01  0.51100000000E-03 0.  1.
         12    1    3    3    0    0  0.20147467048E+02  0.25581212047E+02  0.90156593124E+01  0.33787585754E+02  0.00000000000E+00 0. -1.
</event>
<event>
 7    1  0.3141443E-011  0.5052886E+02  0.7816164E-02  0.1300439E+00
        -11   -1    0    0    0    0  0.00000000000E+00  0.00000000000E+00  0.45593999997E+02  0.45594000000E+02  0.51100000000E-03 0.  1.
         11   -1    0    0    0    0 -0.00000000000E+00 -0.00000000000E+00 -0.45593999997E+02  0.45594000000E+02  0.51100000000E-03 0. -1.
    9900012    2    1    2    0    0 -0.26483182997E+02  0.27377699314E+02 -0.14222096071E+02  0.50528863043E+02  0.30000009706E+02 0.  0.
         12    1    1    2    0    0  0.26483182997E+02 -0.27377699314E+02  0.14222096071E+02  0.40659136957E+02  0.00000000000E+00 0. -1.
         11    1    3    3    0    0 -0.11930685342E+02  0.17146915115E+02 -0.10547912891E+02  0.23401205467E+02  0.51100000000E-03 0. -1.
        -11    1    3    3    0    0 -0.16443042723E+02  0.14386384426E+02 -0.49200569365E+01  0.22395282346E+02  0.51100000000E-03 0.  1.
         12    1    3    3    0    0  0.18905450681E+01 -0.41556002270E+01  0.12458737558E+01  0.47323752299E+01  0.00000000000E+00 0. -1.
</event>
<event>
 7    1  0.3141443E-011  0.5052885E+02  0.7816164E-02  0.1300439E+00
        -11   -1    0    0    0    0  0.00000000000E+00  0.00000000000E+00  0.45593999997E+02  0.45594000000E+02  0.51100000000E-03 0.  1.
         11   -1    0    0    0    0 -0.00000000000E+00 -0.00000000000E+00 -0.45593999997E+02  0.45594000000E+02  0.51100000000E-03 0. -1.
    9900012    2    1    2    0    0  0.27260168485E+02 -0.24542262455E+02  0.17542139970E+02  0.50528854572E+02  0.29999983956E+02 0.  0.
         12    1    1    2    0    0 -0.27260168485E+02  0.24542262455E+02 -0.17542139970E+02  0.40659145428E+02  0.00000000000E+00 0. -1.
         11    1    3    3    0    0  0.78976060569E+01 -0.18621819262E+02  0.11849259914E+02  0.23442467763E+02  0.51100000000E-03 0. -1.
        -11    1    3    3    0    0  0.72684045165E+01 -0.10599742928E+01  0.10821907006E+02  0.13079255377E+02  0.51100000000E-03 0.  1.
        -12    1    3    3    0    0  0.12094157911E+02 -0.48604689007E+01 -0.51290269491E+01  0.14007131432E+02  0.00000000000E+00 0.  1.
</event>
<event>
 7    1  0.3141443E-011  0.5052888E+02  0.7816164E-02  0.1300439E+00
        -11   -1    0    0    0    0  0.00000000000E+00  0.00000000000E+00  0.45593999997E+02  0.45594000000E+02  0.51100000000E-03 0.  1.
         11   -1    0    0    0    0 -0.00000000000E+00 -0.00000000000E+00 -0.45593999997E+02  0.45594000000E+02  0.51100000000E-03 0. -1.
    9900012    2    1    2    0    0 -0.18637177713E+02  0.15239579675E+02  0.32765447553E+02  0.50528883739E+02  0.30000072614E+02 0.  0.
         12    1    1    2    0    0  0.18637177713E+02 -0.15239579675E+02 -0.32765447553E+02  0.40659116261E+02  0.00000000000E+00 0. -1.
         11    1    3    3    0    0 -0.39111308273E+01  0.37518069432E+01 -0.43186062057E+00  0.54368652314E+01  0.51100000000E-03 0. -1.
        -11    1    3    3    0    0 -0.21492768046E+02  0.85259792161E+01  0.24729657387E+02  0.33855388856E+02  0.51100000000E-03 0.  1.
        -12    1    3    3    0    0  0.67667211602E+01  0.29617935153E+01  0.84676507870E+01  0.11236629652E+02  0.00000000000E+00 0.  1.
</event>
<event>
 7    1  0.3141443E-011  0.5052886E+02  0.7816164E-02  0.1300439E+00
        -11   -1    0    0    0    0  0.00000000000E+00  0.00000000000E+00  0.45593999997E+02  0.45594000000E+02  0.51100000000E-03 0.  1.
         11   -1    0    0    0    0 -0.00000000000E+00 -0.00000000000E+00 -0.45593999997E+02  0.45594000000E+02  0.51100000000E-03 0. -1.
    9900012    2    1    2    0    0 -0.89433736270E+01 -0.95263181477E+01  0.38502350128E+02  0.50528860380E+02  0.30000001610E+02 0.  0.
         12    1    1    2    0    0  0.89433736270E+01  0.95263181477E+01 -0.38502350128E+02  0.40659139620E+02  0.00000000000E+00 0. -1.
         11    1    3    3    0    0  0.28612771922E+00 -0.12401645407E+01 -0.14790009790E+01  0.19512358434E+01  0.51100000000E-03 0. -1.
        -11    1    3    3    0    0 -0.13977203487E+02 -0.96006431328E+01  0.13590718847E+02  0.21731134460E+02  0.51100000000E-03 0.  1.
        -12    1    3    3    0    0  0.47477021412E+01  0.13144895258E+01  0.26390632260E+02  0.26846490076E+02  0.00000000000E+00 0.  1.
</event>
<event>
 7    1  0.3141443E-011  0.5052887E+02  0.7816164E-02  0.1300439E+00
        -11   -1    0    0    0    0  0.00000000000E+00  0.00000000000E+00  0.45593999997E+02  0.45594000000E+02  0.51100000000E-03 0.  1.
         11   -1    0    0    0    0 -0.00000000000E+00 -0.00000000000E+00 -0.45593999997E+02  0.45594000000E+02  0.51100000000E-03 0. -1.
    9900012    2    1    2    0    0  0.21984176230E+02  0.27940065275E+01  0.34088920328E+02  0.50528868601E+02  0.30000026599E+02 0.  0.
         12    1    1    2    0    0 -0.21984176230E+02 -0.27940065275E+01 -0.34088920328E+02  0.40659131399E+02  0.00000000000E+00 0. -1.
         11    1    3    3    0    0 -0.86190010065E-01 -0.33301020705E+01 -0.17140914123E+01  0.37463473076E+01  0.51100000000E-03 0. -1.
        -11    1    3    3    0    0  0.28271630401E+00 -0.34166808873E+01 -0.41429258990E+00  0.34532992058E+01  0.51100000000E-03 0.  1.
        -12    1    3    3    0    0  0.21787649936E+02  0.95407894853E+01  0.36217304330E+02  0.43329222087E+02  0.00000000000E+00 0.  1.
</event>
<event>
 7    1  0.3141443E-011  0.5052885E+02  0.7816164E-02  0.1300439E+00
        -11   -1    0    0    0    0  0.00000000000E+00  0.00000000000E+00  0.45593999997E+02  0.45594000000E+02  0.51100000000E-03 0.  1.
         11   -1    0    0    0    0 -0.00000000000E+00 -0.00000000000E+00 -0.45593999997E+02  0.45594000000E+02  0.51100000000E-03 0. -1.
    9900012    2    1    2    0    0 -0.32547660011E+02 -0.19144964124E+02  0.15076021792E+02  0.50528852731E+02  0.29999978362E+02 0.  0.
         12    1    1    2    0    0  0.32547660011E+02  0.19144964124E+02 -0.15076021792E+02  0.40659147269E+02  0.00000000000E+00 0. -1.
         11    1    3    3    0    0 -0.16275983740E+02 -0.80565002384E+01  0.42437677560E+01  0.18650051148E+02  0.51100000000E-03 0. -1.
        -11    1    3    3    0    0 -0.10050323138E+02  0.60620997070E+01  0.43588622239E+01  0.12520292656E+02  0.51100000000E-03 0.  1.
         12    1    3    3    0    0 -0.62213531334E+01 -0.17150563592E+02  0.64733918126E+01  0.19358508928E+02  0.00000000000E+00 0. -1.
</event>
<event>
 7    1  0.3141443E-011  0.5052887E+02  0.7816164E-02  0.1300439E+00
        -11   -1    0    0    0    0  0.00000000000E+00  0.00000000000E+00  0.45593999997E+02  0.45594000000E+02  0.51100000000E-03 0. -1.
         11   -1    0    0    0    0 -0.00000000000E+00 -0.00000000000E+00 -0.45593999997E+02  0.45594000000E+02  0.51100000000E-03 0.  1.
    9900012    2    1    2    0    0 -0.75501650249E+01 -0.26238231354E+02 -0.30128316879E+02  0.50528865055E+02  0.30000015822E+02 0.  0.
         12    1    1    2    0    0  0.75501650249E+01  0.26238231354E+02  0.30128316879E+02  0.40659134945E+02  0.00000000000E+00 0. -1.
         11    1    3    3    0    0  0.19231508838E+01 -0.53865297488E+00  0.72608909961E+00  0.21250557618E+01  0.51100000000E-03 0. -1.
        -11    1    3    3    0    0 -0.47984341776E+01 -0.28242825497E+02 -0.32010707093E+02  0.42957741228E+02  0.51100000000E-03 0.  1.
         12    1    3    3    0    0 -0.46748817311E+01  0.25432471177E+01  0.11563011140E+01  0.54460680649E+01  0.00000000000E+00 0. -1.
</event>
<event>
 7    1  0.3141443E-011  0.5052887E+02  0.7816164E-02  0.1300439E+00
        -11   -1    0    0    0    0  0.00000000000E+00  0.00000000000E+00  0.45593999997E+02  0.45594000000E+02  0.51100000000E-03 0.  1.
         11   -1    0    0    0    0 -0.00000000000E+00 -0.00000000000E+00 -0.45593999997E+02  0.45594000000E+02  0.51100000000E-03 0. -1.
    9900012    2    1    2    0    0  0.22890844439E+02 -0.74560577831E+01  0.32765550891E+02  0.50528869636E+02  0.30000029745E+02 0.  0.
         12    1    1    2    0    0 -0.22890844439E+02  0.74560577831E+01 -0.32765550891E+02  0.40659130364E+02  0.00000000000E+00 0. -1.
         11    1    3    3    0    0 -0.50312433504E+01 -0.24798211694E+01  0.59871596351E+01  0.82042064479E+01  0.51100000000E-03 0. -1.
        -11    1    3    3    0    0  0.10390115086E+02 -0.91902337919E+01  0.16549706551E+02  0.21594158373E+02  0.51100000000E-03 0.  1.
        -12    1    3    3    0    0  0.17531972703E+02  0.42139971782E+01  0.10228684705E+02  0.20730504815E+02  0.00000000000E+00 0.  1.
</event>
<event>
 7    1  0.3141443E-011  0.5052886E+02  0.7816164E-02  0.1300439E+00
        -11   -1    0    0    0    0  0.00000000000E+00  0.00000000000E+00  0.45593999997E+02  0.45594000000E+02  0.51100000000E-03 0. -1.
         11   -1    0    0    0    0 -0.00000000000E+00 -0.00000000000E+00 -0.45593999997E+02  0.45594000000E+02  0.51100000000E-03 0.  1.
    9900012    2    1    2    0    0 -0.38822387441E+02  0.59575832071E+01 -0.10511682301E+02  0.50528855530E+02  0.29999986868E+02 0.  0.
         12    1    1    2    0    0  0.38822387441E+02 -0.59575832071E+01  0.10511682301E+02  0.40659144470E+02  0.00000000000E+00 0. -1.
         11    1    3    3    0    0 -0.10489648629E+02 -0.91537356790E+01 -0.10721527683E+02  0.17571987974E+02  0.51100000000E-03 0. -1.
        -11    1    3    3    0    0 -0.54128604672E+01  0.83831391716E+00  0.21552025774E+01  0.58861470481E+01  0.51100000000E-03 0.  1.
        -12    1    3    3    0    0 -0.22919878345E+02  0.14273004969E+02 -0.19453571951E+01  0.27070720508E+02  0.00000000000E+00 0.  1.
</event>
<event>
 7    1  0.3141443E-011  0.5052886E+02  0.7816164E-02  0.1300439E+00
        -11   -1    0    0    0    0  0.00000000000E+00  0.00000000000E+00  0.45593999997E+02  0.45594000000E+02  0.51100000000E-03 0. -1.
         11   -1    0    0    0    0 -0.00000000000E+00 -0.00000000000E+00 -0.45593999997E+02  0.45594000000E+02  0.51100000000E-03 0.  1.
    9900012    2    1    2    0    0  0.13923373711E+01  0.86445349350E+01 -0.39705155669E+02  0.50528856203E+02  0.29999988915E+02 0.  0.
         12    1    1    2    0    0 -0.13923373711E+01 -0.86445349350E+01  0.39705155669E+02  0.40659143797E+02  0.00000000000E+00 0. -1.
         11    1    3    3    0    0 -0.38855476490E+01 -0.28213548928E+01  0.11237593289E+01  0.49315676265E+01  0.51100000000E-03 0. -1.
        -11    1    3    3    0    0 -0.56830251772E+01  0.29940307481E+01 -0.13978318166E+02  0.15383574822E+02  0.51100000000E-03 0.  1.
         12    1    3    3    0    0  0.10960910197E+02  0.84718590796E+01 -0.26850596832E+02  0.30213713755E+02  0.00000000000E+00 0. -1.
</event>
<event>
 7    1  0.3141443E-011  0.5052886E+02  0.7816164E-02  0.1300439E+00
        -11   -1    0    0    0    0  0.00000000000E+00  0.00000000000E+00  0.45593999997E+02  0.45594000000E+02  0.51100000000E-03 0. -1.
         11   -1    0    0    0    0 -0.00000000000E+00 -0.00000000000E+00 -0.45593999997E+02  0.45594000000E+02  0.51100000000E-03 0.  1.
    9900012    2    1    2    0    0 -0.23709381271E+02  0.21821346829E+02 -0.24796362356E+02  0.50528861744E+02  0.30000005757E+02 0.  0.
         12    1    1    2    0    0  0.23709381271E+02 -0.21821346829E+02  0.24796362356E+02  0.40659138256E+02  0.00000000000E+00 0. -1.
         11    1    3    3    0    0  0.47708505972E+01  0.24190846388E+01 -0.83161700385E-01  0.53497571945E+01  0.51100000000E-03 0. -1.
        -11    1    3    3    0    0 -0.53108612015E+01 -0.66981202819E+00  0.64989535905E+00  0.53922406376E+01  0.51100000000E-03 0.  1.
        -12    1    3    3    0    0 -0.23169370666E+02  0.20072074218E+02 -0.25363096015E+02  0.39786863912E+02  0.00000000000E+00 0.  1.
</event>
<event>
 7    1  0.3141443E-011  0.5052888E+02  0.7816164E-02  0.1300439E+00
        -11   -1    0    0    0    0  0.00000000000E+00  0.00000000000E+00  0.45593999997E+02  0.45594000000E+02  0.51100000000E-03 0. -1.
         11   -1    0    0    0    0 -0.00000000000E+00 -0.00000000000E+00 -0.45593999997E+02  0.45594000000E+02  0.51100000000E-03 0.  1.
    9900012    2    1    2    0    0 -0.52878611613E+01 -0.39273627764E+02 -0.90986143934E+01  0.50528879285E+02  0.30000059076E+02 0.  0.
         12    1    1    2    0    0  0.52878611613E+01  0.39273627764E+02  0.90986143934E+01  0.40659120715E+02  0.00000000000E+00 0. -1.
         11    1    3    3    0    0 -0.70265147298E+01 -0.99063611443E+00 -0.29113445906E+01  0.76700193446E+01  0.51100000000E-03 0. -1.
        -11    1    3    3    0    0 -0.70572147223E-01 -0.10928176903E+02  0.64304777423E+01  0.12679947757E+02  0.51100000000E-03 0.  1.
        -12    1    3    3    0    0  0.18092257157E+01 -0.27354814747E+02 -0.12617747545E+02  0.30178912184E+02  0.00000000000E+00 0.  1.
</event>
<event>
 7    1  0.3141443E-011  0.5052886E+02  0.7816164E-02  0.1300439E+00
        -11   -1    0    0    0    0  0.00000000000E+00  0.00000000000E+00  0.45593999997E+02  0.45594000000E+02  0.51100000000E-03 0.  1.
         11   -1    0    0    0    0 -0.00000000000E+00 -0.00000000000E+00 -0.45593999997E+02  0.45594000000E+02  0.51100000000E-03 0. -1.
    9900012    2    1    2    0    0 -0.36987213528E+02 -0.11997953585E+02  0.11881114385E+02  0.50528859160E+02  0.29999997904E+02 0.  0.
         12    1    1    2    0    0  0.36987213528E+02  0.11997953585E+02 -0.11881114385E+02  0.40659140840E+02  0.00000000000E+00 0. -1.
         11    1    3    3    0    0 -0.67784075348E+01 -0.29131552400E+01  0.16097955914E+02  0.17708118676E+02  0.51100000000E-03 0. -1.
        -11    1    3    3    0    0 -0.66075422871E+01 -0.55677663440E+01 -0.35071427115E+00  0.86476955253E+01  0.51100000000E-03 0.  1.
        -12    1    3    3    0    0 -0.23601263706E+02 -0.35170320008E+01 -0.38661272582E+01  0.24173044959E+02  0.00000000000E+00 0.  1.
</event>
<event>
 7    1  0.3141443E-011  0.5052887E+02  0.7816164E-02  0.1300439E+00
        -11   -1    0    0    0    0  0.00000000000E+00  0.00000000000E+00  0.45593999997E+02  0.45594000000E+02  0.51100000000E-03 0.  1.
         11   -1    0    0    0    0 -0.00000000000E+00 -0.00000000000E+00 -0.45593999997E+02  0.45594000000E+02  0.51100000000E-03 0. -1.
    9900012    2    1    2    0    0  0.67647496114E+01 -0.30502649930E+01  0.39976232489E+02  0.50528866735E+02  0.30000020928E+02 0.  0.
         12    1    1    2    0    0 -0.67647496114E+01  0.30502649930E+01 -0.39976232489E+02  0.40659133265E+02  0.00000000000E+00 0. -1.
         11    1    3    3    0    0  0.14174195892E+02 -0.88203309085E+01  0.21621743198E+02  0.27316768581E+02  0.51100000000E-03 0. -1.
        -11    1    3    3    0    0 -0.37727462880E+01 -0.15603204459E+01  0.12809578358E+01  0.42789096375E+01  0.51100000000E-03 0.  1.
        -12    1    3    3    0    0 -0.36366999929E+01  0.73303863614E+01  0.17073531455E+02  0.18933188516E+02  0.00000000000E+00 0.  1.
</event>
<event>
 7    1  0.3141443E-011  0.5052887E+02  0.7816164E-02  0.1300439E+00
        -11   -1    0    0    0    0  0.00000000000E+00  0.00000000000E+00  0.45593999997E+02  0.45594000000E+02  0.51100000000E-03 0.  1.
         11   -1    0    0    0    0 -0.00000000000E+00 -0.00000000000E+00 -0.45593999997E+02  0.45594000000E+02  0.51100000000E-03 0. -1.
    9900012    2    1    2    0    0  0.20803002962E+01 -0.40264297244E+02  0.52558382206E+01  0.50528866742E+02  0.30000020950E+02 0.  0.
         12    1    1    2    0    0 -0.20803002962E+01  0.40264297244E+02 -0.52558382206E+01  0.40659133258E+02  0.00000000000E+00 0. -1.
         11    1    3    3    0    0 -0.80360777427E+01 -0.71054353805E+01  0.18886261443E+01  0.10891862394E+02  0.51100000000E-03 0. -1.
        -11    1    3    3    0    0 -0.16737215353E+01 -0.23722275037E+02  0.54355057864E+01  0.24394515780E+02  0.51100000000E-03 0.  1.
        -12    1    3    3    0    0  0.11790099574E+02 -0.94365868263E+01 -0.20682937101E+01  0.15242488569E+02  0.00000000000E+00 0.  1.
</event>
<event>
 7    1  0.3141443E-011  0.5052886E+02  0.7816164E-02  0.1300439E+00
        -11   -1    0    0    0    0  0.00000000000E+00  0.00000000000E+00  0.45593999997E+02  0.45594000000E+02  0.51100000000E-03 0.  1.
         11   -1    0    0    0    0 -0.00000000000E+00 -0.00000000000E+00 -0.45593999997E+02  0.45594000000E+02  0.51100000000E-03 0. -1.
    9900012    2    1    2    0    0  0.18917221244E+02  0.97950883985E+01  0.34631786246E+02  0.50528860377E+02  0.30000001601E+02 0.  0.
         12    1    1    2    0    0 -0.18917221244E+02 -0.97950883985E+01 -0.34631786246E+02  0.40659139623E+02  0.00000000000E+00 0. -1.
         11    1    3    3    0    0  0.18222158300E+01  0.27316488399E+01 -0.35267374507E+01  0.48187397961E+01  0.51100000000E-03 0. -1.
        -11    1    3    3    0    0  0.21939626902E+01  0.92511979433E+01  0.19798844552E+02  0.21963432827E+02  0.51100000000E-03 0.  1.
         12    1    3    3    0    0  0.14901042724E+02 -0.21877583847E+01  0.18359679145E+02  0.23746687754E+02  0.00000000000E+00 0. -1.
</event>
<event>
 7    1  0.3141443E-011  0.5052881E+02  0.7816164E-02  0.1300439E+00
        -11   -1    0    0    0    0  0.00000000000E+00  0.00000000000E+00  0.45593999997E+02  0.45594000000E+02  0.51100000000E-03 0.  1.
         11   -1    0    0    0    0 -0.00000000000E+00 -0.00000000000E+00 -0.45593999997E+02  0.45594000000E+02  0.51100000000E-03 0. -1.
    9900012    2    1    2    0    0  0.59826103933E+01 -0.91460411756E+01  0.39162837547E+02  0.50528812342E+02  0.29999855594E+02 0.  0.
         12    1    1    2    0    0 -0.59826103933E+01  0.91460411756E+01 -0.39162837547E+02  0.40659187658E+02  0.00000000000E+00 0. -1.
         11    1    3    3    0    0  0.38747077108E+01 -0.44809432454E+00 -0.27997307992E+01  0.48013166087E+01  0.51100000000E-03 0. -1.
        -11    1    3    3    0    0  0.74483014320E+01  0.99035713272E-01  0.12893936231E+02  0.14890956789E+02  0.51100000000E-03 0.  1.
        -12    1    3    3    0    0 -0.53403987496E+01 -0.87969825643E+01  0.29068632115E+02  0.30836538945E+02  0.00000000000E+00 0.  1.
</event>
<event>
 7    1  0.3141443E-011  0.5052886E+02  0.7816164E-02  0.1300439E+00
        -11   -1    0    0    0    0  0.00000000000E+00  0.00000000000E+00  0.45593999997E+02  0.45594000000E+02  0.51100000000E-03 0.  1.
         11   -1    0    0    0    0 -0.00000000000E+00 -0.00000000000E+00 -0.45593999997E+02  0.45594000000E+02  0.51100000000E-03 0. -1.
    9900012    2    1    2    0    0 -0.58507670317E+01  0.24240783788E+02  0.32114145795E+02  0.50528862851E+02  0.30000009123E+02 0.  0.
         12    1    1    2    0    0  0.58507670317E+01 -0.24240783788E+02 -0.32114145795E+02  0.40659137149E+02  0.00000000000E+00 0. -1.
         11    1    3    3    0    0 -0.13877110596E+01  0.67198956440E+01  0.99565962153E+01  0.12092003469E+02  0.51100000000E-03 0. -1.
        -11    1    3    3    0    0  0.13662628786E+00  0.17118399890E+02  0.26856825033E+02  0.31848819957E+02  0.51100000000E-03 0.  1.
         12    1    3    3    0    0 -0.45996822600E+01  0.40248825394E+00 -0.46992754527E+01  0.65880394252E+01  0.00000000000E+00 0. -1.
</event>
<event>
 7    1  0.3141443E-011  0.5052886E+02  0.7816164E-02  0.1300439E+00
        -11   -1    0    0    0    0  0.00000000000E+00  0.00000000000E+00  0.45593999997E+02  0.45594000000E+02  0.51100000000E-03 0.  1.
         11   -1    0    0    0    0 -0.00000000000E+00 -0.00000000000E+00 -0.45593999997E+02  0.45594000000E+02  0.51100000000E-03 0. -1.
    9900012    2    1    2    0    0  0.20629006951E+02  0.12338940751E+02  0.32792684580E+02  0.50528861438E+02  0.30000004827E+02 0.  0.
         12    1    1    2    0    0 -0.20629006951E+02 -0.12338940751E+02 -0.32792684580E+02  0.40659138562E+02  0.00000000000E+00 0. -1.
         11    1    3    3    0    0  0.15435284759E+02  0.12912240332E+02  0.25975669557E+02  0.32858931437E+02  0.51100000000E-03 0. -1.
        -11    1    3    3    0    0  0.12764117935E+01  0.73374516839E+01  0.26158087114E+01  0.78936607323E+01  0.51100000000E-03 0.  1.
         12    1    3    3    0    0  0.39173103985E+01 -0.79107512653E+01  0.42012063116E+01  0.97762692686E+01  0.00000000000E+00 0. -1.
</event>
<event>
 7    1  0.3141443E-011  0.5052889E+02  0.7816164E-02  0.1300439E+00
        -11   -1    0    0    0    0  0.00000000000E+00  0.00000000000E+00  0.45593999997E+02  0.45594000000E+02  0.51100000000E-03 0. -1.
         11   -1    0    0    0    0 -0.00000000000E+00 -0.00000000000E+00 -0.45593999997E+02  0.45594000000E+02  0.51100000000E-03 0.  1.
    9900012    2    1    2    0    0  0.28103511860E+02 -0.29379115378E+02 -0.47287263992E+00  0.50528887764E+02  0.30000084848E+02 0.  0.
         12    1    1    2    0    0 -0.28103511860E+02  0.29379115378E+02  0.47287263992E+00  0.40659112236E+02  0.00000000000E+00 0. -1.
         11    1    3    3    0    0 -0.48139693770E+01 -0.16509363697E+01  0.42901813996E+01  0.66562413390E+01  0.51100000000E-03 0. -1.
        -11    1    3    3    0    0  0.33067287708E+01 -0.25044552703E+01 -0.26401699147E+01  0.49170365876E+01  0.51100000000E-03 0.  1.
        -12    1    3    3    0    0  0.29610752466E+02 -0.25223723738E+02 -0.21228841249E+01  0.38955609838E+02  0.00000000000E+00 0.  1.
</event>
<event>
 7    1  0.3141443E-011  0.5052886E+02  0.7816164E-02  0.1300439E+00
        -11   -1    0    0    0    0  0.00000000000E+00  0.00000000000E+00  0.45593999997E+02  0.45594000000E+02  0.51100000000E-03 0. -1.
         11   -1    0    0    0    0 -0.00000000000E+00 -0.00000000000E+00 -0.45593999997E+02  0.45594000000E+02  0.51100000000E-03 0.  1.
    9900012    2    1    2    0    0 -0.33537198831E+02  0.21638597116E+01 -0.22885355500E+02  0.50528862151E+02  0.30000006993E+02 0.  0.
         12    1    1    2    0    0  0.33537198831E+02 -0.21638597116E+01  0.22885355500E+02  0.40659137849E+02  0.00000000000E+00 0. -1.
         11    1    3    3    0    0 -0.97294528312E+01 -0.66971530412E+01  0.25322156261E+01  0.12079992860E+02  0.51100000000E-03 0. -1.
        -11    1    3    3    0    0 -0.56203875651E+01  0.34889738572E+01  0.14868321951E+00  0.66169329692E+01  0.51100000000E-03 0.  1.
        -12    1    3    3    0    0 -0.18187358435E+02  0.53720388956E+01 -0.25566254346E+02  0.31831936322E+02  0.00000000000E+00 0.  1.
</event>
<event>
 7    1  0.3141443E-011  0.5052886E+02  0.7816164E-02  0.1300439E+00
        -11   -1    0    0    0    0  0.00000000000E+00  0.00000000000E+00  0.45593999997E+02  0.45594000000E+02  0.51100000000E-03 0.  1.
         11   -1    0    0    0    0 -0.00000000000E+00 -0.00000000000E+00 -0.45593999997E+02  0.45594000000E+02  0.51100000000E-03 0. -1.
    9900012    2    1    2    0    0 -0.29634513423E+02 -0.17997801515E+02  0.21237710922E+02  0.50528860678E+02  0.30000002518E+02 0.  0.
         12    1    1    2    0    0  0.29634513423E+02  0.17997801515E+02 -0.21237710922E+02  0.40659139322E+02  0.00000000000E+00 0. -1.
         11    1    3    3    0    0 -0.18011893955E+02 -0.42951297591E+01  0.25328098323E+01  0.18689344274E+02  0.51100000000E-03 0. -1.
        -11    1    3    3    0    0 -0.88957806497E+01 -0.12324502444E+02  0.25669014741E+01  0.15414838867E+02  0.51100000000E-03 0.  1.
         12    1    3    3    0    0 -0.27268388177E+01 -0.13781693119E+01  0.16137999616E+02  0.16424677537E+02  0.00000000000E+00 0. -1.
</event>
<event>
 7    1  0.3141443E-011  0.5052886E+02  0.7816164E-02  0.1300439E+00
        -11   -1    0    0    0    0  0.00000000000E+00  0.00000000000E+00  0.45593999997E+02  0.45594000000E+02  0.51100000000E-03 0.  1.
         11   -1    0    0    0    0 -0.00000000000E+00 -0.00000000000E+00 -0.45593999997E+02  0.45594000000E+02  0.51100000000E-03 0. -1.
    9900012    2    1    2    0    0 -0.32549923096E+02  0.89344771710E+01  0.22668106583E+02  0.50528862873E+02  0.30000009188E+02 0.  0.
         12    1    1    2    0    0  0.32549923096E+02 -0.89344771710E+01 -0.22668106583E+02  0.40659137127E+02  0.00000000000E+00 0. -1.
         11    1    3    3    0    0  0.95947541248E+00  0.49086918375E+01 -0.17000581670E+01  0.52826174058E+01  0.51100000000E-03 0. -1.
        -11    1    3    3    0    0 -0.87275432474E+01  0.92850408963E+01  0.71051966718E+01  0.14589921713E+02  0.51100000000E-03 0.  1.
        -12    1    3    3    0    0 -0.24781855261E+02 -0.52592555629E+01  0.17262968078E+02  0.30656323754E+02  0.00000000000E+00 0.  1.
</event>
<event>
 7    1  0.3141443E-011  0.5052886E+02  0.7816164E-02  0.1300439E+00
        -11   -1    0    0    0    0  0.00000000000E+00  0.00000000000E+00  0.45593999997E+02  0.45594000000E+02  0.51100000000E-03 0.  1.
         11   -1    0    0    0    0 -0.00000000000E+00 -0.00000000000E+00 -0.45593999997E+02  0.45594000000E+02  0.51100000000E-03 0. -1.
    9900012    2    1    2    0    0 -0.16460127246E+01 -0.13655121710E+02  0.38262174240E+02  0.50528859768E+02  0.29999999752E+02 0.  0.
         12    1    1    2    0    0  0.16460127246E+01  0.13655121710E+02 -0.38262174240E+02  0.40659140232E+02  0.00000000000E+00 0. -1.
         11    1    3    3    0    0 -0.72011253155E+01  0.22514052686E+01  0.71100261785E+01  0.10367135767E+02  0.51100000000E-03 0. -1.
        -11    1    3    3    0    0  0.18930397264E+01 -0.92709767243E+01  0.15297450951E+01  0.95851306274E+01  0.51100000000E-03 0.  1.
        -12    1    3    3    0    0  0.36620728645E+01 -0.66355502539E+01  0.29622402967E+02  0.30576593374E+02  0.00000000000E+00 0.  1.
</event>
<event>
 7    1  0.3141443E-011  0.5052886E+02  0.7816164E-02  0.1300439E+00
        -11   -1    0    0    0    0  0.00000000000E+00  0.00000000000E+00  0.45593999997E+02  0.45594000000E+02  0.51100000000E-03 0. -1.
         11   -1    0    0    0    0 -0.00000000000E+00 -0.00000000000E+00 -0.45593999997E+02  0.45594000000E+02  0.51100000000E-03 0.  1.
    9900012    2    1    2    0    0  0.43818358154E+00 -0.24588871803E+01 -0.40582358451E+02  0.50528856521E+02  0.29999989880E+02 0.  0.
         12    1    1    2    0    0 -0.43818358154E+00  0.24588871803E+01  0.40582358451E+02  0.40659143479E+02  0.00000000000E+00 0. -1.
         11    1    3    3    0    0 -0.67786163421E+01  0.67978513956E+01 -0.11306512244E+02  0.14832317503E+02  0.51100000000E-03 0. -1.
        -11    1    3    3    0    0 -0.48863496297E+00 -0.49472321460E+01  0.15123534399E+00  0.49736045705E+01  0.51100000000E-03 0.  1.
        -12    1    3    3    0    0  0.77054348866E+01 -0.43095064299E+01 -0.29427081551E+02  0.30722934447E+02  0.00000000000E+00 0.  1.
</event>
<event>
 7    1  0.3141443E-011  0.5052886E+02  0.7816164E-02  0.1300439E+00
        -11   -1    0    0    0    0  0.00000000000E+00  0.00000000000E+00  0.45593999997E+02  0.45594000000E+02  0.51100000000E-03 0.  1.
         11   -1    0    0    0    0 -0.00000000000E+00 -0.00000000000E+00 -0.45593999997E+02  0.45594000000E+02  0.51100000000E-03 0. -1.
    9900012    2    1    2    0    0  0.15330260525E+02 -0.35535133341E+02  0.12466068432E+02  0.50528862633E+02  0.30000008458E+02 0.  0.
         12    1    1    2    0    0 -0.15330260525E+02  0.35535133341E+02 -0.12466068432E+02  0.40659137367E+02  0.00000000000E+00 0. -1.
         11    1    3    3    0    0  0.10962552853E+01 -0.10312256255E+02  0.13041459079E+02  0.16662054492E+02  0.51100000000E-03 0. -1.
        -11    1    3    3    0    0  0.10709406133E+02 -0.23131536659E+02  0.59365406280E+01  0.26172540626E+02  0.51100000000E-03 0.  1.
        -12    1    3    3    0    0  0.35245991060E+01 -0.20913404265E+01 -0.65119312758E+01  0.76942675140E+01  0.00000000000E+00 0.  1.
</event>
<event>
 7    1  0.3141443E-011  0.5052884E+02  0.7816164E-02  0.1300439E+00
        -11   -1    0    0    0    0  0.00000000000E+00  0.00000000000E+00  0.45593999997E+02  0.45594000000E+02  0.51100000000E-03 0.  1.
         11   -1    0    0    0    0 -0.00000000000E+00 -0.00000000000E+00 -0.45593999997E+02  0.45594000000E+02  0.51100000000E-03 0. -1.
    9900012    2    1    2    0    0 -0.19031616864E+02 -0.15695458785E+02  0.32320537662E+02  0.50528843323E+02  0.29999949765E+02 0.  0.
         12    1    1    2    0    0  0.19031616864E+02  0.15695458785E+02 -0.32320537662E+02  0.40659156677E+02  0.00000000000E+00 0. -1.
         11    1    3    3    0    0 -0.10921011700E+01  0.31437342844E+01  0.16260144448E+02  0.16597230129E+02  0.51100000000E-03 0. -1.
        -11    1    3    3    0    0 -0.50103250353E+01  0.10230449216E-02  0.84938833885E+01  0.98615117140E+01  0.51100000000E-03 0.  1.
         12    1    3    3    0    0 -0.12929190658E+02 -0.18840216115E+02  0.75665098247E+01  0.24070101480E+02  0.00000000000E+00 0. -1.
</event>
<event>
 7    1  0.3141443E-011  0.5052884E+02  0.7816164E-02  0.1300439E+00
        -11   -1    0    0    0    0  0.00000000000E+00  0.00000000000E+00  0.45593999997E+02  0.45594000000E+02  0.51100000000E-03 0.  1.
         11   -1    0    0    0    0 -0.00000000000E+00 -0.00000000000E+00 -0.45593999997E+02  0.45594000000E+02  0.51100000000E-03 0. -1.
    9900012    2    1    2    0    0  0.23086451643E+02  0.24248308707E+02 -0.23069510405E+02  0.50528843160E+02  0.29999949270E+02 0.  0.
         12    1    1    2    0    0 -0.23086451643E+02 -0.24248308707E+02  0.23069510405E+02  0.40659156840E+02  0.00000000000E+00 0. -1.
         11    1    3    3    0    0  0.39460368162E+01  0.13216512083E+02 -0.14955405854E+02  0.20344816605E+02  0.51100000000E-03 0. -1.
        -11    1    3    3    0    0  0.14159678250E+02  0.15986212262E+02 -0.31607012206E+01  0.21588087065E+02  0.51100000000E-03 0.  1.
        -12    1    3    3    0    0  0.49807365764E+01 -0.49544156385E+01 -0.49534033308E+01  0.85959394902E+01  0.00000000000E+00 0.  1.
</event>
<event>
 7    1  0.3141443E-011  0.5052883E+02  0.7816164E-02  0.1300439E+00
        -11   -1    0    0    0    0  0.00000000000E+00  0.00000000000E+00  0.45593999997E+02  0.45594000000E+02  0.51100000000E-03 0.  1.
         11   -1    0    0    0    0 -0.00000000000E+00 -0.00000000000E+00 -0.45593999997E+02  0.45594000000E+02  0.51100000000E-03 0. -1.
    9900012    2    1    2    0    0 -0.53667416641E+01  0.11917522428E+02  0.38501156500E+02  0.50528827496E+02  0.29999901656E+02 0.  0.
         12    1    1    2    0    0  0.53667416641E+01 -0.11917522428E+02 -0.38501156500E+02  0.40659172504E+02  0.00000000000E+00 0. -1.
         11    1    3    3    0    0  0.39102229241E+01  0.25521424587E+01  0.20126948527E+02  0.20661493937E+02  0.51100000000E-03 0. -1.
        -11    1    3    3    0    0 -0.95233983291E+01 -0.38801400123E+01  0.74963430344E+01  0.12725791190E+02  0.51100000000E-03 0.  1.
         12    1    3    3    0    0  0.24643374092E+00  0.13245519981E+02  0.10877864939E+02  0.17141542369E+02  0.00000000000E+00 0. -1.
</event>
<event>
 7    1  0.3141443E-011  0.5052882E+02  0.7816164E-02  0.1300439E+00
        -11   -1    0    0    0    0  0.00000000000E+00  0.00000000000E+00  0.45593999997E+02  0.45594000000E+02  0.51100000000E-03 0.  1.
         11   -1    0    0    0    0 -0.00000000000E+00 -0.00000000000E+00 -0.45593999997E+02  0.45594000000E+02  0.51100000000E-03 0. -1.
    9900012    2    1    2    0    0  0.10665897954E+02  0.35893289647E+01  0.39070754962E+02  0.50528824469E+02  0.29999892456E+02 0.  0.
         12    1    1    2    0    0 -0.10665897954E+02 -0.35893289647E+01 -0.39070754962E+02  0.40659175531E+02  0.00000000000E+00 0. -1.
         11    1    3    3    0    0 -0.52907393062E+01  0.34205218220E+01  0.61198855431E+01  0.87832164531E+01  0.51100000000E-03 0. -1.
        -11    1    3    3    0    0  0.77404582541E+01  0.25447348018E+00  0.32615238378E+02  0.33522130384E+02  0.51100000000E-03 0.  1.
         12    1    3    3    0    0  0.82161790058E+01 -0.85666337470E-01  0.33563104049E+00  0.82234776325E+01  0.00000000000E+00 0. -1.
</event>
<event>
 7    1  0.3141443E-011  0.5052886E+02  0.7816164E-02  0.1300439E+00
        -11   -1    0    0    0    0  0.00000000000E+00  0.00000000000E+00  0.45593999997E+02  0.45594000000E+02  0.51100000000E-03 0. -1.
         11   -1    0    0    0    0 -0.00000000000E+00 -0.00000000000E+00 -0.45593999997E+02  0.45594000000E+02  0.51100000000E-03 0.  1.
    9900012    2    1    2    0    0  0.20884750491E+02 -0.11095172907E+02 -0.33074010312E+02  0.50528858064E+02  0.29999994571E+02 0.  0.
         12    1    1    2    0    0 -0.20884750491E+02  0.11095172907E+02  0.33074010312E+02  0.40659141936E+02  0.00000000000E+00 0. -1.
         11    1    3    3    0    0  0.53548038133E+01 -0.69268384399E+01 -0.40192717755E+01  0.96337718738E+01  0.51100000000E-03 0. -1.
        -11    1    3    3    0    0  0.12548244960E+02 -0.59740064395E+01 -0.32894014108E+02  0.35709429692E+02  0.51100000000E-03 0.  1.
         12    1    3    3    0    0  0.29817017169E+01  0.18056719725E+01  0.38392755717E+01  0.51856564981E+01  0.00000000000E+00 0. -1.
</event>
<event>
 7    1  0.3141443E-011  0.5052883E+02  0.7816164E-02  0.1300439E+00
        -11   -1    0    0    0    0  0.00000000000E+00  0.00000000000E+00  0.45593999997E+02  0.45594000000E+02  0.51100000000E-03 0.  1.
         11   -1    0    0    0    0 -0.00000000000E+00 -0.00000000000E+00 -0.45593999997E+02  0.45594000000E+02  0.51100000000E-03 0. -1.
    9900012    2    1    2    0    0  0.10338656644E+02 -0.35948835831E+02  0.15936165988E+02  0.50528831229E+02  0.29999913003E+02 0.  0.
         12    1    1    2    0    0 -0.10338656644E+02  0.35948835831E+02 -0.15936165988E+02  0.40659168771E+02  0.00000000000E+00 0. -1.
         11    1    3    3    0    0  0.77303513651E+00 -0.35792460298E+01  0.68227627051E+01  0.77432988225E+01  0.51100000000E-03 0. -1.
        -11    1    3    3    0    0 -0.76082924236E+01 -0.13290866763E+02 -0.63332874434E+00  0.15327568577E+02  0.51100000000E-03 0.  1.
        -12    1    3    3    0    0  0.17173913931E+02 -0.19078723038E+02  0.97467320272E+01  0.27457963830E+02  0.00000000000E+00 0.  1.
</event>
<event>
 7    1  0.3141443E-011  0.5052885E+02  0.7816164E-02  0.1300439E+00
        -11   -1    0    0    0    0  0.00000000000E+00  0.00000000000E+00  0.45593999997E+02  0.45594000000E+02  0.51100000000E-03 0.  1.
         11   -1    0    0    0    0 -0.00000000000E+00 -0.00000000000E+00 -0.45593999997E+02  0.45594000000E+02  0.51100000000E-03 0. -1.
    9900012    2    1    2    0    0  0.32166781929E+02  0.23754100089E+02  0.73625413885E+01  0.50528854086E+02  0.29999982480E+02 0.  0.
         12    1    1    2    0    0 -0.32166781929E+02 -0.23754100089E+02 -0.73625413885E+01  0.40659145914E+02  0.00000000000E+00 0. -1.
         11    1    3    3    0    0  0.54030758175E+01  0.25240709801E+01  0.50469008569E+01  0.78125137519E+01  0.51100000000E-03 0. -1.
        -11    1    3    3    0    0  0.19276712655E+02  0.25869778625E+02  0.65864323912E+01  0.32927468606E+02  0.51100000000E-03 0.  1.
         12    1    3    3    0    0  0.74869934574E+01 -0.46397495161E+01 -0.42707918596E+01  0.97888717282E+01  0.00000000000E+00 0. -1.
</event>
<event>
 7    1  0.3141443E-011  0.5052884E+02  0.7816164E-02  0.1300439E+00
        -11   -1    0    0    0    0  0.00000000000E+00  0.00000000000E+00  0.45593999997E+02  0.45594000000E+02  0.51100000000E-03 0. -1.
         11   -1    0    0    0    0 -0.00000000000E+00 -0.00000000000E+00 -0.45593999997E+02  0.45594000000E+02  0.51100000000E-03 0.  1.
    9900012    2    1    2    0    0 -0.25712317560E+02  0.11345759225E+02 -0.29382267013E+02  0.50528841849E+02  0.29999945286E+02 0.  0.
         12    1    1    2    0    0  0.25712317560E+02 -0.11345759225E+02  0.29382267013E+02  0.40659158151E+02  0.00000000000E+00 0. -1.
         11    1    3    3    0    0 -0.41681797713E+01  0.44040167110E+01 -0.20715767376E+02  0.21584997198E+02  0.51100000000E-03 0. -1.
        -11    1    3    3    0    0 -0.11501016810E+02  0.73083777262E+01 -0.12200897823E+02  0.18290644620E+02  0.51100000000E-03 0.  1.
         12    1    3    3    0    0 -0.10043120979E+02 -0.36663521191E+00  0.35343981865E+01  0.10653200032E+02  0.00000000000E+00 0. -1.
</event>
<event>
 7    1  0.3301003E-011  0.5052886E+02  0.7816164E-02  0.1300439E+00
        -11   -1    0    0    0    0  0.00000000000E+00  0.00000000000E+00  0.45593999997E+02  0.45594000000E+02  0.51100000000E-03 0.  1.
         11   -1    0    0    0    0 -0.00000000000E+00 -0.00000000000E+00 -0.45593999997E+02  0.45594000000E+02  0.51100000000E-03 0. -1.
    9900012    2    1    2    0    0 -0.32016539812E+02  0.25061991948E+02 -0.59638684218E-01  0.50528858117E+02  0.29999994731E+02 0.  0.
         12    1    1    2    0    0  0.32016539812E+02 -0.25061991948E+02  0.59638684218E-01  0.40659141883E+02  0.00000000000E+00 0. -1.
         11    1    3    3    0    0  0.62139275897E+00  0.61872346137E+01 -0.15494359459E+01  0.64084907066E+01  0.51100000000E-03 0. -1.
        -11    1    3    3    0    0 -0.15427165101E+02  0.15903181228E+02  0.10442613701E+02  0.24494015134E+02  0.51100000000E-03 0.  1.
        -12    1    3    3    0    0 -0.17210767470E+02  0.29715761062E+01 -0.89528164394E+01  0.19626352276E+02  0.00000000000E+00 0.  1.
</event>
<event>
 7    1  0.3141443E-011  0.5052886E+02  0.7816164E-02  0.1300439E+00
        -11   -1    0    0    0    0  0.00000000000E+00  0.00000000000E+00  0.45593999997E+02  0.45594000000E+02  0.51100000000E-03 0. -1.
         11   -1    0    0    0    0 -0.00000000000E+00 -0.00000000000E+00 -0.45593999997E+02  0.45594000000E+02  0.51100000000E-03 0.  1.
    9900012    2    1    2    0    0  0.27878174387E+02 -0.16444244885E+02 -0.24608120857E+02  0.50528863154E+02  0.30000010043E+02 0.  0.
         12    1    1    2    0    0 -0.27878174387E+02  0.16444244885E+02  0.24608120857E+02  0.40659136846E+02  0.00000000000E+00 0. -1.
         11    1    3    3    0    0  0.15273148056E+02 -0.15982625462E+02 -0.80977771422E+01  0.23543308245E+02  0.51100000000E-03 0. -1.
        -11    1    3    3    0    0  0.89996334815E+01 -0.50906499418E+01 -0.18154214319E+02  0.20892190345E+02  0.51100000000E-03 0.  1.
        -12    1    3    3    0    0  0.36053928495E+01  0.46290305192E+01  0.16438706040E+01  0.60933645640E+01  0.00000000000E+00 0.  1.
</event>
<event>
 7    1  0.3141443E-011  0.5052886E+02  0.7816164E-02  0.1300439E+00
        -11   -1    0    0    0    0  0.00000000000E+00  0.00000000000E+00  0.45593999997E+02  0.45594000000E+02  0.51100000000E-03 0. -1.
         11   -1    0    0    0    0 -0.00000000000E+00 -0.00000000000E+00 -0.45593999997E+02  0.45594000000E+02  0.51100000000E-03 0.  1.
    9900012    2    1    2    0    0  0.24513035328E+02  0.32301698334E+02  0.29794791753E+01  0.50528856964E+02  0.29999991228E+02 0.  0.
         12    1    1    2    0    0 -0.24513035328E+02 -0.32301698334E+02 -0.29794791753E+01  0.40659143036E+02  0.00000000000E+00 0. -1.
         11    1    3    3    0    0  0.21442846066E+02  0.21356708876E+02 -0.60574366870E+01  0.30864173420E+02  0.51100000000E-03 0. -1.
        -11    1    3    3    0    0  0.12049086910E+01  0.11788295436E+02  0.16073089122E+01  0.11958225472E+02  0.51100000000E-03 0.  1.
         12    1    3    3    0    0  0.18652805713E+01 -0.84330597804E+00  0.74296069502E+01  0.77064580721E+01  0.00000000000E+00 0. -1.
</event>
<event>
 7    1  0.3141443E-011  0.5052886E+02  0.7816164E-02  0.1300439E+00
        -11   -1    0    0    0    0  0.00000000000E+00  0.00000000000E+00  0.45593999997E+02  0.45594000000E+02  0.51100000000E-03 0.  1.
         11   -1    0    0    0    0 -0.00000000000E+00 -0.00000000000E+00 -0.45593999997E+02  0.45594000000E+02  0.51100000000E-03 0. -1.
    9900012    2    1    2    0    0  0.29845646837E+02 -0.91520516373E+00  0.27596480259E+02  0.50528856399E+02  0.29999989512E+02 0.  0.
         12    1    1    2    0    0 -0.29845646837E+02  0.91520516373E+00 -0.27596480259E+02  0.40659143601E+02  0.00000000000E+00 0. -1.
         11    1    3    3    0    0  0.21389822075E+02 -0.12291783545E+02  0.19257875723E+02  0.31296616570E+02  0.51100000000E-03 0. -1.
        -11    1    3    3    0    0  0.74532103931E+01  0.57998880450E+01  0.95577060889E+01  0.13436472470E+02  0.51100000000E-03 0.  1.
        -12    1    3    3    0    0  0.10026143690E+01  0.55766903365E+01 -0.12191015526E+01  0.57957673588E+01  0.00000000000E+00 0.  1.
</event>
<event>
 7    1  0.3141443E-011  0.5052888E+02  0.7816164E-02  0.1300439E+00
        -11   -1    0    0    0    0  0.00000000000E+00  0.00000000000E+00  0.45593999997E+02  0.45594000000E+02  0.51100000000E-03 0.  1.
         11   -1    0    0    0    0 -0.00000000000E+00 -0.00000000000E+00 -0.45593999997E+02  0.45594000000E+02  0.51100000000E-03 0. -1.
    9900012    2    1    2    0    0  0.19822601662E+02  0.26914709981E+02  0.23147936547E+02  0.50528879050E+02  0.30000058360E+02 0.  0.
         12    1    1    2    0    0 -0.19822601662E+02 -0.26914709981E+02 -0.23147936547E+02  0.40659120950E+02  0.00000000000E+00 0. -1.
         11    1    3    3    0    0  0.41246070727E+01  0.16650882786E+02 -0.61039628569E+00  0.17164989512E+02  0.51100000000E-03 0. -1.
        -11    1    3    3    0    0  0.41702010261E+01 -0.33540164753E+01  0.36321128656E+01  0.64677853430E+01  0.51100000000E-03 0.  1.
         12    1    3    3    0    0  0.11527793563E+02  0.13617843671E+02  0.20126219968E+02  0.26896104195E+02  0.00000000000E+00 0. -1.
</event>
<event>
 7    1  0.4845597E-011  0.5052887E+02  0.7816164E-02  0.1300439E+00
        -11   -1    0    0    0    0  0.00000000000E+00  0.00000000000E+00  0.45593999997E+02  0.45594000000E+02  0.51100000000E-03 0. -1.
         11   -1    0    0    0    0 -0.00000000000E+00 -0.00000000000E+00 -0.45593999997E+02  0.45594000000E+02  0.51100000000E-03 0.  1.
    9900012    2    1    2    0    0  0.22217340115E+02  0.10054676120E+02 -0.32533959553E+02  0.50528865259E+02  0.30000016441E+02 0.  0.
         12    1    1    2    0    0 -0.22217340115E+02 -0.10054676120E+02  0.32533959553E+02  0.40659134741E+02  0.00000000000E+00 0. -1.
         11    1    3    3    0    0 -0.21410696598E+01 -0.39901788631E+01 -0.11275977017E+01  0.46666029921E+01  0.51100000000E-03 0.  1.
        -11    1    3    3    0    0  0.13331513363E+02  0.91564053749E+01 -0.51589070477E+01  0.16975963305E+02  0.51100000000E-03 0. -1.
        -12    1    3    3    0    0  0.11026896412E+02  0.48884496079E+01 -0.26247454804E+02  0.28886298962E+02  0.00000000000E+00 0.  1.
</event>
<event>
 7    1  0.3141443E-011  0.5052883E+02  0.7816164E-02  0.1300439E+00
        -11   -1    0    0    0    0  0.00000000000E+00  0.00000000000E+00  0.45593999997E+02  0.45594000000E+02  0.51100000000E-03 0. -1.
         11   -1    0    0    0    0 -0.00000000000E+00 -0.00000000000E+00 -0.45593999997E+02  0.45594000000E+02  0.51100000000E-03 0.  1.
    9900012    2    1    2    0    0 -0.25616112182E+02 -0.29023105641E+02  0.12435516910E+02  0.50528831967E+02  0.29999915246E+02 0.  0.
         12    1    1    2    0    0  0.25616112182E+02  0.29023105641E+02 -0.12435516910E+02  0.40659168033E+02  0.00000000000E+00 0. -1.
         11    1    3    3    0    0 -0.80060910887E+00 -0.15495726695E+02  0.80335533674E+01  0.17472735926E+02  0.51100000000E-03 0. -1.
        -11    1    3    3    0    0 -0.69949325659E+01 -0.10440878364E+02 -0.38959526810E+01  0.13157487228E+02  0.51100000000E-03 0.  1.
        -12    1    3    3    0    0 -0.17820570507E+02 -0.30865005814E+01  0.82979162239E+01  0.19898608813E+02  0.00000000000E+00 0.  1.
</event>
<event>
 7    1  0.3141443E-011  0.5052885E+02  0.7816164E-02  0.1300439E+00
        -11   -1    0    0    0    0  0.00000000000E+00  0.00000000000E+00  0.45593999997E+02  0.45594000000E+02  0.51100000000E-03 0.  1.
         11   -1    0    0    0    0 -0.00000000000E+00 -0.00000000000E+00 -0.45593999997E+02  0.45594000000E+02  0.51100000000E-03 0. -1.
    9900012    2    1    2    0    0  0.18373272991E+02 -0.16616151214E+02  0.32241163919E+02  0.50528852291E+02  0.29999977024E+02 0.  0.
         12    1    1    2    0    0 -0.18373272991E+02  0.16616151214E+02 -0.32241163919E+02  0.40659147709E+02  0.00000000000E+00 0. -1.
         11    1    3    3    0    0  0.16038727541E+01 -0.12636352114E+02  0.23362795326E+02  0.26609584894E+02  0.51100000000E-03 0. -1.
        -11    1    3    3    0    0  0.44654294470E+01 -0.79613475211E+01  0.23160421472E+01  0.94173863671E+01  0.51100000000E-03 0.  1.
         12    1    3    3    0    0  0.12303970789E+02  0.39815484210E+01  0.65623264463E+01  0.14501881030E+02  0.00000000000E+00 0. -1.
</event>
<event>
 7    1  0.3141443E-011  0.5052885E+02  0.7816164E-02  0.1300439E+00
        -11   -1    0    0    0    0  0.00000000000E+00  0.00000000000E+00  0.45593999997E+02  0.45594000000E+02  0.51100000000E-03 0. -1.
         11   -1    0    0    0    0 -0.00000000000E+00 -0.00000000000E+00 -0.45593999997E+02  0.45594000000E+02  0.51100000000E-03 0.  1.
    9900012    2    1    2    0    0 -0.30696457716E+02  0.26657416949E+02 -0.52518405114E+00  0.50528853268E+02  0.29999979994E+02 0.  0.
         12    1    1    2    0    0  0.30696457716E+02 -0.26657416949E+02  0.52518405114E+00  0.40659146732E+02  0.00000000000E+00 0. -1.
         11    1    3    3    0    0 -0.98317004484E+01  0.19193112993E+02  0.36267684552E+01  0.21867587196E+02  0.51100000000E-03 0. -1.
        -11    1    3    3    0    0  0.15650143583E+01 -0.19570850304E+01  0.23963513022E+01  0.34672686055E+01  0.51100000000E-03 0.  1.
        -12    1    3    3    0    0 -0.22429771626E+02  0.94213889857E+01 -0.65483038085E+01  0.25193997467E+02  0.00000000000E+00 0.  1.
</event>
<event>
 7    1  0.3141443E-011  0.5052885E+02  0.7816164E-02  0.1300439E+00
        -11   -1    0    0    0    0  0.00000000000E+00  0.00000000000E+00  0.45593999997E+02  0.45594000000E+02  0.51100000000E-03 0.  1.
         11   -1    0    0    0    0 -0.00000000000E+00 -0.00000000000E+00 -0.45593999997E+02  0.45594000000E+02  0.51100000000E-03 0. -1.
    9900012    2    1    2    0    0 -0.26074104853E+02  0.24216515077E+02  0.19668962806E+02  0.50528847965E+02  0.29999963873E+02 0.  0.
         12    1    1    2    0    0  0.26074104853E+02 -0.24216515077E+02 -0.19668962806E+02  0.40659152035E+02  0.00000000000E+00 0. -1.
         11    1    3    3    0    0 -0.41144650607E+01 -0.16357603712E+01  0.26688583081E+01  0.51698490943E+01  0.51100000000E-03 0.  1.
        -11    1    3    3    0    0 -0.27524515498E+02  0.22502715841E+02  0.14114472893E+02  0.38251660342E+02  0.51100000000E-03 0. -1.
         12    1    3    3    0    0  0.55648757063E+01  0.33495596074E+01  0.28856316056E+01  0.71073385281E+01  0.00000000000E+00 0. -1.
</event>
<event>
 7    1  0.3141443E-011  0.5052886E+02  0.7816164E-02  0.1300439E+00
        -11   -1    0    0    0    0  0.00000000000E+00  0.00000000000E+00  0.45593999997E+02  0.45594000000E+02  0.51100000000E-03 0. -1.
         11   -1    0    0    0    0 -0.00000000000E+00 -0.00000000000E+00 -0.45593999997E+02  0.45594000000E+02  0.51100000000E-03 0.  1.
    9900012    2    1    2    0    0  0.32138131721E+02  0.18752024571E+02 -0.16391098301E+02  0.50528855401E+02  0.29999986476E+02 0.  0.
         12    1    1    2    0    0 -0.32138131721E+02 -0.18752024571E+02  0.16391098301E+02  0.40659144599E+02  0.00000000000E+00 0. -1.
         11    1    3    3    0    0  0.13925173460E+02  0.19988835789E+02 -0.12493550929E+02  0.27377962436E+02  0.51100000000E-03 0. -1.
        -11    1    3    3    0    0  0.17536072932E+02  0.36069256278E+01 -0.35165621788E+01  0.18245272708E+02  0.51100000000E-03 0.  1.
        -12    1    3    3    0    0  0.67688532914E+00 -0.48437368461E+01 -0.38098519290E+00  0.49056202565E+01  0.00000000000E+00 0.  1.
</event>
<event>
 7    1  0.3141443E-011  0.5052887E+02  0.7816164E-02  0.1300439E+00
        -11   -1    0    0    0    0  0.00000000000E+00  0.00000000000E+00  0.45593999997E+02  0.45594000000E+02  0.51100000000E-03 0.  1.
         11   -1    0    0    0    0 -0.00000000000E+00 -0.00000000000E+00 -0.45593999997E+02  0.45594000000E+02  0.51100000000E-03 0. -1.
    9900012    2    1    2    0    0 -0.74903813908E+01 -0.32216309452E+02  0.23646750138E+02  0.50528865723E+02  0.30000017851E+02 0.  0.
         12    1    1    2    0    0  0.74903813908E+01  0.32216309452E+02 -0.23646750138E+02  0.40659134277E+02  0.00000000000E+00 0. -1.
         11    1    3    3    0    0 -0.58273139227E+01 -0.35661948297E+01  0.14711639495E-01  0.68319506593E+01  0.51100000000E-03 0. -1.
        -11    1    3    3    0    0 -0.80969966025E+01 -0.75454457695E+01 -0.39701450566E+00  0.11074869147E+02  0.51100000000E-03 0.  1.
        -12    1    3    3    0    0  0.64339291345E+01 -0.21104668853E+02  0.24029053005E+02  0.32622045917E+02  0.00000000000E+00 0.  1.
</event>
<event>
 7    1  0.3141443E-011  0.5052888E+02  0.7816164E-02  0.1300439E+00
        -11   -1    0    0    0    0  0.00000000000E+00  0.00000000000E+00  0.45593999997E+02  0.45594000000E+02  0.51100000000E-03 0. -1.
         11   -1    0    0    0    0 -0.00000000000E+00 -0.00000000000E+00 -0.45593999997E+02  0.45594000000E+02  0.51100000000E-03 0.  1.
    9900012    2    1    2    0    0  0.18009879001E+02  0.69173313260E+01 -0.35790486122E+02  0.50528879115E+02  0.30000058557E+02 0.  0.
         12    1    1    2    0    0 -0.18009879001E+02 -0.69173313260E+01  0.35790486122E+02  0.40659120885E+02  0.00000000000E+00 0. -1.
         11    1    3    3    0    0  0.84367703532E+01 -0.68994807215E+01 -0.92386245803E+01  0.14287550966E+02  0.51100000000E-03 0. -1.
        -11    1    3    3    0    0 -0.20742929300E+01  0.57078015900E+01  0.69265068066E-01  0.60734247391E+01  0.51100000000E-03 0.  1.
        -12    1    3    3    0    0  0.11647401578E+02  0.81090104575E+01 -0.26621126610E+02  0.30167903409E+02  0.00000000000E+00 0.  1.
</event>
<event>
 7    1  0.3141443E-011  0.5052887E+02  0.7816164E-02  0.1300439E+00
        -11   -1    0    0    0    0  0.00000000000E+00  0.00000000000E+00  0.45593999997E+02  0.45594000000E+02  0.51100000000E-03 0.  1.
         11   -1    0    0    0    0 -0.00000000000E+00 -0.00000000000E+00 -0.45593999997E+02  0.45594000000E+02  0.51100000000E-03 0. -1.
    9900012    2    1    2    0    0 -0.37617129792E+02 -0.92614737702E+01 -0.12342667754E+02  0.50528870675E+02  0.30000032903E+02 0.  0.
         12    1    1    2    0    0  0.37617129792E+02  0.92614737702E+01  0.12342667754E+02  0.40659129325E+02  0.00000000000E+00 0. -1.
         11    1    3    3    0    0 -0.18431885648E+02 -0.75390672474E+01  0.14189047363E+01  0.19964599531E+02  0.51100000000E-03 0. -1.
        -11    1    3    3    0    0 -0.44669870383E+01 -0.92239108055E+01 -0.24332405552E+01  0.10533525697E+02  0.51100000000E-03 0.  1.
         12    1    3    3    0    0 -0.14718257106E+02  0.75015042826E+01 -0.11328331935E+02  0.20030745447E+02  0.00000000000E+00 0. -1.
</event>
<event>
 7    1  0.3141443E-011  0.5052885E+02  0.7816164E-02  0.1300439E+00
        -11   -1    0    0    0    0  0.00000000000E+00  0.00000000000E+00  0.45593999997E+02  0.45594000000E+02  0.51100000000E-03 0.  1.
         11   -1    0    0    0    0 -0.00000000000E+00 -0.00000000000E+00 -0.45593999997E+02  0.45594000000E+02  0.51100000000E-03 0. -1.
    9900012    2    1    2    0    0  0.30841428183E+02  0.30466829594E+01  0.26319016496E+02  0.50528848524E+02  0.29999965575E+02 0.  0.
         12    1    1    2    0    0 -0.30841428183E+02 -0.30466829594E+01 -0.26319016496E+02  0.40659151476E+02  0.00000000000E+00 0. -1.
         11    1    3    3    0    0  0.37927195308E+01 -0.79837954561E+01  0.39725986443E+01  0.96905753996E+01  0.51100000000E-03 0. -1.
        -11    1    3    3    0    0  0.16208528998E+02 -0.25813778220E+01  0.13841337552E+02  0.21470038408E+02  0.51100000000E-03 0.  1.
        -12    1    3    3    0    0  0.10840179654E+02  0.13611856237E+02  0.85050802995E+01  0.19368234717E+02  0.00000000000E+00 0.  1.
</event>
<event>
 7    1  0.3141443E-011  0.5052885E+02  0.7816164E-02  0.1300439E+00
        -11   -1    0    0    0    0  0.00000000000E+00  0.00000000000E+00  0.45593999997E+02  0.45594000000E+02  0.51100000000E-03 0. -1.
         11   -1    0    0    0    0 -0.00000000000E+00 -0.00000000000E+00 -0.45593999997E+02  0.45594000000E+02  0.51100000000E-03 0.  1.
    9900012    2    1    2    0    0  0.32186575491E+02 -0.12246778315E+02 -0.21614975551E+02  0.50528851103E+02  0.29999973413E+02 0.  0.
         12    1    1    2    0    0 -0.32186575491E+02  0.12246778315E+02  0.21614975551E+02  0.40659148897E+02  0.00000000000E+00 0. -1.
         11    1    3    3    0    0  0.13702100083E+02 -0.11517212412E+02 -0.97222658393E+01  0.20369491445E+02  0.51100000000E-03 0. -1.
        -11    1    3    3    0    0  0.19124482001E+02 -0.19171335394E+01 -0.10670098971E+01  0.19249927875E+02  0.51100000000E-03 0.  1.
        -12    1    3    3    0    0 -0.64000659249E+00  0.11875676374E+01 -0.10825699815E+02  0.10909431782E+02  0.00000000000E+00 0.  1.
</event>
<event>
 7    1  0.3141443E-011  0.5052885E+02  0.7816164E-02  0.1300439E+00
        -11   -1    0    0    0    0  0.00000000000E+00  0.00000000000E+00  0.45593999997E+02  0.45594000000E+02  0.51100000000E-03 0.  1.
         11   -1    0    0    0    0 -0.00000000000E+00 -0.00000000000E+00 -0.45593999997E+02  0.45594000000E+02  0.51100000000E-03 0. -1.
    9900012    2    1    2    0    0 -0.25866363189E+02  0.23413227659E+01  0.31282831736E+02  0.50528854677E+02  0.29999984277E+02 0.  0.
         12    1    1    2    0    0  0.25866363189E+02 -0.23413227659E+01 -0.31282831736E+02  0.40659145323E+02  0.00000000000E+00 0. -1.
         11    1    3    3    0    0 -0.62644102916E+01  0.98871130882E+00 -0.40614655481E+00  0.63549462341E+01  0.51100000000E-03 0. -1.
        -11    1    3    3    0    0 -0.12438245850E+02 -0.95864781937E+01  0.93138377992E+01  0.18258096801E+02  0.51100000000E-03 0.  1.
        -12    1    3    3    0    0 -0.71637070483E+01  0.10939089651E+02  0.22375140492E+02  0.25915811642E+02  0.00000000000E+00 0.  1.
</event>
<event>
 7    1  0.3141443E-011  0.5052886E+02  0.7816164E-02  0.1300439E+00
        -11   -1    0    0    0    0  0.00000000000E+00  0.00000000000E+00  0.45593999997E+02  0.45594000000E+02  0.51100000000E-03 0.  1.
         11   -1    0    0    0    0 -0.00000000000E+00 -0.00000000000E+00 -0.45593999997E+02  0.45594000000E+02  0.51100000000E-03 0. -1.
    9900012    2    1    2    0    0 -0.33967798768E+02  0.50917094685E+01  0.21758421218E+02  0.50528858933E+02  0.29999997212E+02 0.  0.
         12    1    1    2    0    0  0.33967798768E+02 -0.50917094685E+01 -0.21758421218E+02  0.40659141067E+02  0.00000000000E+00 0. -1.
         11    1    3    3    0    0 -0.13049803795E+02  0.10328293222E+02  0.52579001560E+01  0.17453267152E+02  0.51100000000E-03 0. -1.
        -11    1    3    3    0    0 -0.13031572365E+02  0.63246257741E+01  0.10269220636E+02  0.17756116192E+02  0.51100000000E-03 0.  1.
         12    1    3    3    0    0 -0.78864226074E+01 -0.11561209528E+02  0.62313004260E+01  0.15319475588E+02  0.00000000000E+00 0. -1.
</event>
<event>
 7    1  0.3141443E-011  0.5052884E+02  0.7816164E-02  0.1300439E+00
        -11   -1    0    0    0    0  0.00000000000E+00  0.00000000000E+00  0.45593999997E+02  0.45594000000E+02  0.51100000000E-03 0.  1.
         11   -1    0    0    0    0 -0.00000000000E+00 -0.00000000000E+00 -0.45593999997E+02  0.45594000000E+02  0.51100000000E-03 0. -1.
    9900012    2    1    2    0    0  0.85803601689E+01  0.24066888936E+02  0.31627982871E+02  0.50528843293E+02  0.29999949673E+02 0.  0.
         12    1    1    2    0    0 -0.85803601689E+01 -0.24066888936E+02 -0.31627982871E+02  0.40659156707E+02  0.00000000000E+00 0. -1.
         11    1    3    3    0    0 -0.98838590175E+00  0.13868525564E+02  0.16244600459E+01  0.13998277705E+02  0.51100000000E-03 0. -1.
        -11    1    3    3    0    0  0.30651772831E+01  0.12087284436E+02  0.12043821997E+02  0.17336418470E+02  0.51100000000E-03 0.  1.
         12    1    3    3    0    0  0.65035687876E+01 -0.18889210639E+01  0.17959700828E+02  0.19194147118E+02  0.00000000000E+00 0. -1.
</event>
<event>
 7    1  0.3141443E-011  0.5052892E+02  0.7816164E-02  0.1300439E+00
        -11   -1    0    0    0    0  0.00000000000E+00  0.00000000000E+00  0.45593999997E+02  0.45594000000E+02  0.51100000000E-03 0. -1.
         11   -1    0    0    0    0 -0.00000000000E+00 -0.00000000000E+00 -0.45593999997E+02  0.45594000000E+02  0.51100000000E-03 0.  1.
    9900012    2    1    2    0    0 -0.74214875231E+01 -0.34082623506E+02 -0.20891564405E+02  0.50528915340E+02  0.30000168667E+02 0.  0.
         12    1    1    2    0    0  0.74214875231E+01  0.34082623506E+02  0.20891564405E+02  0.40659084660E+02  0.00000000000E+00 0. -1.
         11    1    3    3    0    0  0.14763034547E+01 -0.85720130818E+01  0.65496257039E+01  0.10888364307E+02  0.51100000000E-03 0. -1.
        -11    1    3    3    0    0 -0.61006205747E+00 -0.57475745510E+01 -0.11701230744E+02  0.13050884649E+02  0.51100000000E-03 0.  1.
        -12    1    3    3    0    0 -0.82877289203E+01 -0.19763035873E+02 -0.15739959365E+02  0.26589666384E+02  0.00000000000E+00 0.  1.
</event>
<event>
 7    1  0.3141443E-011  0.5052887E+02  0.7816164E-02  0.1300439E+00
        -11   -1    0    0    0    0  0.00000000000E+00  0.00000000000E+00  0.45593999997E+02  0.45594000000E+02  0.51100000000E-03 0.  1.
         11   -1    0    0    0    0 -0.00000000000E+00 -0.00000000000E+00 -0.45593999997E+02  0.45594000000E+02  0.51100000000E-03 0. -1.
    9900012    2    1    2    0    0 -0.31967037070E+02 -0.26254529888E+01  0.24987599119E+02  0.50528873445E+02  0.30000041325E+02 0.  0.
         12    1    1    2    0    0  0.31967037070E+02  0.26254529888E+01 -0.24987599119E+02  0.40659126555E+02  0.00000000000E+00 0. -1.
         11    1    3    3    0    0 -0.30385935011E+01 -0.62534994084E+01  0.56613021138E+01  0.89660273924E+01  0.51100000000E-03 0. -1.
        -11    1    3    3    0    0 -0.27314288640E+02 -0.49231599857E+01  0.17030249943E+02  0.32562820540E+02  0.51100000000E-03 0.  1.
        -12    1    3    3    0    0 -0.16141549297E+01  0.85512064054E+01  0.22960470617E+01  0.90000255130E+01  0.00000000000E+00 0.  1.
</event>
<event>
 7    1  0.3141443E-011  0.5052887E+02  0.7816164E-02  0.1300439E+00
        -11   -1    0    0    0    0  0.00000000000E+00  0.00000000000E+00  0.45593999997E+02  0.45594000000E+02  0.51100000000E-03 0.  1.
         11   -1    0    0    0    0 -0.00000000000E+00 -0.00000000000E+00 -0.45593999997E+02  0.45594000000E+02  0.51100000000E-03 0. -1.
    9900012    2    1    2    0    0  0.92454057016E+01  0.31443572900E+02  0.24062187067E+02  0.50528872492E+02  0.30000038427E+02 0.  0.
         12    1    1    2    0    0 -0.92454057016E+01 -0.31443572900E+02 -0.24062187067E+02  0.40659127508E+02  0.00000000000E+00 0. -1.
         11    1    3    3    0    0 -0.67253082946E-01  0.42409969875E+01  0.22396399531E+00  0.42474390587E+01  0.51100000000E-03 0. -1.
        -11    1    3    3    0    0  0.36711515194E+00  0.26067081626E+02  0.67017944570E+01  0.26917309807E+02  0.51100000000E-03 0.  1.
        -12    1    3    3    0    0  0.89455436326E+01  0.11354942858E+01  0.17136428614E+02  0.19364123626E+02  0.00000000000E+00 0.  1.
</event>
<event>
 7    1  0.3141443E-011  0.5052886E+02  0.7816164E-02  0.1300439E+00
        -11   -1    0    0    0    0  0.00000000000E+00  0.00000000000E+00  0.45593999997E+02  0.45594000000E+02  0.51100000000E-03 0.  1.
         11   -1    0    0    0    0 -0.00000000000E+00 -0.00000000000E+00 -0.45593999997E+02  0.45594000000E+02  0.51100000000E-03 0. -1.
    9900012    2    1    2    0    0 -0.31450697107E+02  0.57340442825E+01  0.25122502650E+02  0.50528858940E+02  0.29999997234E+02 0.  0.
         12    1    1    2    0    0  0.31450697107E+02 -0.57340442825E+01 -0.25122502650E+02  0.40659141060E+02  0.00000000000E+00 0. -1.
         11    1    3    3    0    0 -0.23271123024E+01 -0.20527282645E+01 -0.28812672197E+00  0.31164342228E+01  0.51100000000E-03 0. -1.
        -11    1    3    3    0    0 -0.22444592275E+02  0.16270079551E+02  0.12030571087E+02  0.30219362202E+02  0.51100000000E-03 0.  1.
        -12    1    3    3    0    0 -0.66789925291E+01 -0.84833070038E+01  0.13380058285E+02  0.17193062515E+02  0.00000000000E+00 0.  1.
</event>
<event>
 7    1  0.3141443E-011  0.5052886E+02  0.7816164E-02  0.1300439E+00
        -11   -1    0    0    0    0  0.00000000000E+00  0.00000000000E+00  0.45593999997E+02  0.45594000000E+02  0.51100000000E-03 0.  1.
         11   -1    0    0    0    0 -0.00000000000E+00 -0.00000000000E+00 -0.45593999997E+02  0.45594000000E+02  0.51100000000E-03 0. -1.
    9900012    2    1    2    0    0 -0.56515408410E+00 -0.30104393749E+02  0.27323463763E+02  0.50528860877E+02  0.30000003123E+02 0.  0.
         12    1    1    2    0    0  0.56515408410E+00  0.30104393749E+02 -0.27323463763E+02  0.40659139123E+02  0.00000000000E+00 0. -1.
         11    1    3    3    0    0  0.25074442330E+01 -0.23025916634E+01  0.84351392186E+01  0.90961958449E+01  0.51100000000E-03 0. -1.
        -11    1    3    3    0    0 -0.67775222438E+01  0.11683893460E+01  0.44773453903E+00  0.68920539687E+01  0.51100000000E-03 0.  1.
        -12    1    3    3    0    0  0.37049239267E+01 -0.28970191432E+02  0.18440590006E+02  0.34540611064E+02  0.00000000000E+00 0.  1.
</event>
<event>
 7    1  0.3141443E-011  0.5052885E+02  0.7816164E-02  0.1300439E+00
        -11   -1    0    0    0    0  0.00000000000E+00  0.00000000000E+00  0.45593999997E+02  0.45594000000E+02  0.51100000000E-03 0. -1.
         11   -1    0    0    0    0 -0.00000000000E+00 -0.00000000000E+00 -0.45593999997E+02  0.45594000000E+02  0.51100000000E-03 0.  1.
    9900012    2    1    2    0    0  0.61044207844E+01  0.37067696270E+02 -0.15552757413E+02  0.50528851915E+02  0.29999975881E+02 0.  0.
         12    1    1    2    0    0 -0.61044207844E+01 -0.37067696270E+02  0.15552757413E+02  0.40659148085E+02  0.00000000000E+00 0. -1.
         11    1    3    3    0    0 -0.12613083417E+01  0.40873449974E+01 -0.30613138321E+01  0.52601264719E+01  0.51100000000E-03 0. -1.
        -11    1    3    3    0    0  0.11585222067E+02  0.94085796214E+01  0.48609883623E+01  0.15696112543E+02  0.51100000000E-03 0.  1.
        -12    1    3    3    0    0 -0.42194929408E+01  0.23571771651E+02 -0.17352431943E+02  0.29572612901E+02  0.00000000000E+00 0.  1.
</event>
<event>
 7    1  0.3141443E-011  0.5052886E+02  0.7816164E-02  0.1300439E+00
        -11   -1    0    0    0    0  0.00000000000E+00  0.00000000000E+00  0.45593999997E+02  0.45594000000E+02  0.51100000000E-03 0.  1.
         11   -1    0    0    0    0 -0.00000000000E+00 -0.00000000000E+00 -0.45593999997E+02  0.45594000000E+02  0.51100000000E-03 0. -1.
    9900012    2    1    2    0    0  0.79005642761E+01  0.37203947970E+02  0.14374026784E+02  0.50528864416E+02  0.30000013880E+02 0.  0.
         12    1    1    2    0    0 -0.79005642761E+01 -0.37203947970E+02 -0.14374026784E+02  0.40659135584E+02  0.00000000000E+00 0. -1.
         11    1    3    3    0    0  0.30393307428E+01  0.24561193393E+02  0.35034148062E+01  0.24995272909E+02  0.51100000000E-03 0. -1.
        -11    1    3    3    0    0  0.99801213080E+01  0.14140831614E+02  0.60224533208E+01  0.18325825611E+02  0.51100000000E-03 0.  1.
         12    1    3    3    0    0 -0.51188877746E+01 -0.14980770367E+01  0.48481586567E+01  0.72077658964E+01  0.00000000000E+00 0. -1.
</event>
<event>
 7    1  0.3141443E-011  0.5052886E+02  0.7816164E-02  0.1300439E+00
        -11   -1    0    0    0    0  0.00000000000E+00  0.00000000000E+00  0.45593999997E+02  0.45594000000E+02  0.51100000000E-03 0.  1.
         11   -1    0    0    0    0 -0.00000000000E+00 -0.00000000000E+00 -0.45593999997E+02  0.45594000000E+02  0.51100000000E-03 0. -1.
    9900012    2    1    2    0    0  0.32373285372E+02 -0.24668040359E+01  0.24475519285E+02  0.50528858689E+02  0.29999996470E+02 0.  0.
         12    1    1    2    0    0 -0.32373285372E+02  0.24668040359E+01 -0.24475519285E+02  0.40659141311E+02  0.00000000000E+00 0. -1.
         11    1    3    3    0    0  0.16617185770E+02  0.16707039795E+01 -0.26334730630E+01  0.16907314847E+02  0.51100000000E-03 0. -1.
        -11    1    3    3    0    0  0.12054453520E+02  0.97645769530E+00  0.11111403179E+02  0.16423355326E+02  0.51100000000E-03 0.  1.
        -12    1    3    3    0    0  0.37016460816E+01 -0.51139657107E+01  0.15997589169E+02  0.17198188516E+02  0.00000000000E+00 0.  1.
</event>
<event>
 7    1  0.3141443E-011  0.5052886E+02  0.7816164E-02  0.1300439E+00
        -11   -1    0    0    0    0  0.00000000000E+00  0.00000000000E+00  0.45593999997E+02  0.45594000000E+02  0.51100000000E-03 0. -1.
         11   -1    0    0    0    0 -0.00000000000E+00 -0.00000000000E+00 -0.45593999997E+02  0.45594000000E+02  0.51100000000E-03 0.  1.
    9900012    2    1    2    0    0  0.16498004284E+02 -0.17498468056E+02 -0.32783918412E+02  0.50528857902E+02  0.29999994080E+02 0.  0.
         12    1    1    2    0    0 -0.16498004284E+02  0.17498468056E+02  0.32783918412E+02  0.40659142098E+02  0.00000000000E+00 0. -1.
         11    1    3    3    0    0  0.27720734073E+00 -0.59251566149E+01 -0.17365467761E+02  0.18350580253E+02  0.51100000000E-03 0. -1.
        -11    1    3    3    0    0  0.17873393769E+02 -0.40425646240E+01 -0.16160361857E+02  0.24432720462E+02  0.51100000000E-03 0.  1.
         12    1    3    3    0    0 -0.16525968256E+01 -0.75307468176E+01  0.74191120603E+00  0.77455571869E+01  0.00000000000E+00 0. -1.
</event>
<event>
 7    1  0.3141443E-011  0.5052886E+02  0.7816164E-02  0.1300439E+00
        -11   -1    0    0    0    0  0.00000000000E+00  0.00000000000E+00  0.45593999997E+02  0.45594000000E+02  0.51100000000E-03 0. -1.
         11   -1    0    0    0    0 -0.00000000000E+00 -0.00000000000E+00 -0.45593999997E+02  0.45594000000E+02  0.51100000000E-03 0.  1.
    9900012    2    1    2    0    0 -0.19312875818E+02 -0.91883940363E+00 -0.35767782617E+02  0.50528859434E+02  0.29999998737E+02 0.  0.
         12    1    1    2    0    0  0.19312875818E+02  0.91883940363E+00  0.35767782617E+02  0.40659140566E+02  0.00000000000E+00 0. -1.
         11    1    3    3    0    0 -0.32956186002E+01 -0.10536715078E+02 -0.12743385644E+02  0.16860526224E+02  0.51100000000E-03 0.  1.
        -11    1    3    3    0    0 -0.33888152512E+01  0.23452487624E+01 -0.17667925904E+02  0.18142212285E+02  0.51100000000E-03 0. -1.
         12    1    3    3    0    0 -0.12628441967E+02  0.72726269121E+01 -0.53564710683E+01  0.15526120926E+02  0.00000000000E+00 0. -1.
</event>
<event>
 7    1  0.3141443E-011  0.5052897E+02  0.7816164E-02  0.1300438E+00
        -11   -1    0    0    0    0  0.00000000000E+00  0.00000000000E+00  0.45593999997E+02  0.45594000000E+02  0.51100000000E-03 0. -1.
         11   -1    0    0    0    0 -0.00000000000E+00 -0.00000000000E+00 -0.45593999997E+02  0.45594000000E+02  0.51100000000E-03 0.  1.
    9900012    2    1    2    0    0  0.23906369277E+02  0.22387680936E+02 -0.24092192640E+02  0.50528972762E+02  0.30000343206E+02 0.  0.
         12    1    1    2    0    0 -0.23906369277E+02 -0.22387680936E+02  0.24092192640E+02  0.40659027238E+02  0.00000000000E+00 0. -1.
         11    1    3    3    0    0 -0.99032383266E+00  0.90258588138E+01 -0.42396095635E+00  0.90899181390E+01  0.51100000000E-03 0. -1.
        -11    1    3    3    0    0  0.13029278836E+02  0.13010912259E+02 -0.46038989544E+01  0.18980037688E+02  0.51100000000E-03 0.  1.
         12    1    3    3    0    0  0.11867414273E+02  0.35090986351E+00 -0.19064332730E+02  0.22459016935E+02  0.00000000000E+00 0. -1.
</event>
<event>
 7    1  0.3141443E-011  0.5052886E+02  0.7816164E-02  0.1300439E+00
        -11   -1    0    0    0    0  0.00000000000E+00  0.00000000000E+00  0.45593999997E+02  0.45594000000E+02  0.51100000000E-03 0. -1.
         11   -1    0    0    0    0 -0.00000000000E+00 -0.00000000000E+00 -0.45593999997E+02  0.45594000000E+02  0.51100000000E-03 0.  1.
    9900012    2    1    2    0    0 -0.82636757820E+01 -0.39810463153E+02  0.64956788609E-01  0.50528861626E+02  0.30000005400E+02 0.  0.
         12    1    1    2    0    0  0.82636757820E+01  0.39810463153E+02 -0.64956788609E-01  0.40659138374E+02  0.00000000000E+00 0. -1.
         11    1    3    3    0    0 -0.22257374164E+00  0.29486877732E+01  0.58647547689E+00  0.30146728513E+01  0.51100000000E-03 0. -1.
        -11    1    3    3    0    0  0.53798299749E+01 -0.12544511153E+02 -0.41199907064E+01  0.14257687551E+02  0.51100000000E-03 0.  1.
         12    1    3    3    0    0 -0.13420932015E+02 -0.30214639773E+02  0.35984720181E+01  0.33256501224E+02  0.00000000000E+00 0. -1.
</event>
<event>
 7    1  0.3141443E-011  0.5052886E+02  0.7816164E-02  0.1300439E+00
        -11   -1    0    0    0    0  0.00000000000E+00  0.00000000000E+00  0.45593999997E+02  0.45594000000E+02  0.51100000000E-03 0. -1.
         11   -1    0    0    0    0 -0.00000000000E+00 -0.00000000000E+00 -0.45593999997E+02  0.45594000000E+02  0.51100000000E-03 0.  1.
    9900012    2    1    2    0    0  0.11837802309E+02  0.16919783703E+02 -0.35025034543E+02  0.50528859714E+02  0.29999999587E+02 0.  0.
         12    1    1    2    0    0 -0.11837802309E+02 -0.16919783703E+02  0.35025034543E+02  0.40659140286E+02  0.00000000000E+00 0. -1.
         11    1    3    3    0    0  0.12774319959E+02  0.14737430055E+01 -0.99809544324E+01  0.16278041053E+02  0.51100000000E-03 0.  1.
        -11    1    3    3    0    0  0.63297032977E+01  0.14662449817E+02 -0.18511074988E+02  0.24448158948E+02  0.51100000000E-03 0. -1.
         12    1    3    3    0    0 -0.72662209479E+01  0.78359088084E+00 -0.65330051220E+01  0.98026597134E+01  0.00000000000E+00 0. -1.
</event>
<event>
 7    1  0.3141443E-011  0.5052887E+02  0.7816164E-02  0.1300439E+00
        -11   -1    0    0    0    0  0.00000000000E+00  0.00000000000E+00  0.45593999997E+02  0.45594000000E+02  0.51100000000E-03 0.  1.
         11   -1    0    0    0    0 -0.00000000000E+00 -0.00000000000E+00 -0.45593999997E+02  0.45594000000E+02  0.51100000000E-03 0. -1.
    9900012    2    1    2    0    0 -0.25266430198E+01  0.10662463129E+02  0.39154728538E+02  0.50528870498E+02  0.30000032367E+02 0.  0.
         12    1    1    2    0    0  0.25266430198E+01 -0.10662463129E+02 -0.39154728538E+02  0.40659129502E+02  0.00000000000E+00 0. -1.
         11    1    3    3    0    0 -0.30492394392E+01 -0.23616722219E+01  0.35855612748E+00  0.38734893312E+01  0.51100000000E-03 0. -1.
        -11    1    3    3    0    0  0.19025098447E+01 -0.29881858821E+01  0.25645748694E+02  0.25889249215E+02  0.51100000000E-03 0.  1.
         12    1    3    3    0    0 -0.13799134254E+01  0.16012321233E+02  0.13150423717E+02  0.20766131952E+02  0.00000000000E+00 0. -1.
</event>
<event>
 7    1  0.3141443E-011  0.5052886E+02  0.7816164E-02  0.1300439E+00
        -11   -1    0    0    0    0  0.00000000000E+00  0.00000000000E+00  0.45593999997E+02  0.45594000000E+02  0.51100000000E-03 0. -1.
         11   -1    0    0    0    0 -0.00000000000E+00 -0.00000000000E+00 -0.45593999997E+02  0.45594000000E+02  0.51100000000E-03 0.  1.
    9900012    2    1    2    0    0 -0.13852321727E+02 -0.33580665487E+02 -0.18265198500E+02  0.50528863413E+02  0.30000010829E+02 0.  0.
         12    1    1    2    0    0  0.13852321727E+02  0.33580665487E+02  0.18265198500E+02  0.40659136587E+02  0.00000000000E+00 0. -1.
         11    1    3    3    0    0  0.37549490461E+01 -0.45822601776E+01  0.60147545627E+00  0.59547060095E+01  0.51100000000E-03 0. -1.
        -11    1    3    3    0    0 -0.26725326695E+01  0.30153992308E+01 -0.54686218082E+01  0.67927084534E+01  0.51100000000E-03 0.  1.
         12    1    3    3    0    0 -0.14934738104E+02 -0.32013804540E+02 -0.13398052148E+02  0.37781448950E+02  0.00000000000E+00 0. -1.
</event>
<event>
 7    1  0.3141443E-011  0.5052887E+02  0.7816164E-02  0.1300439E+00
        -11   -1    0    0    0    0  0.00000000000E+00  0.00000000000E+00  0.45593999997E+02  0.45594000000E+02  0.51100000000E-03 0. -1.
         11   -1    0    0    0    0 -0.00000000000E+00 -0.00000000000E+00 -0.45593999997E+02  0.45594000000E+02  0.51100000000E-03 0.  1.
    9900012    2    1    2    0    0 -0.36926131002E+02 -0.10285820548E+02 -0.13558294270E+02  0.50528873120E+02  0.30000040336E+02 0.  0.
         12    1    1    2    0    0  0.36926131002E+02  0.10285820548E+02  0.13558294270E+02  0.40659126880E+02  0.00000000000E+00 0. -1.
         11    1    3    3    0    0 -0.31038325582E+02 -0.59267845391E+01 -0.14334418406E+02  0.34698414679E+02  0.51100000000E-03 0.  1.
        -11    1    3    3    0    0  0.45118062917E+00 -0.77828853832E+01 -0.20987300090E+01  0.80735083303E+01  0.51100000000E-03 0. -1.
        -12    1    3    3    0    0 -0.63389860489E+01  0.34238493743E+01  0.28748541451E+01  0.77569501108E+01  0.00000000000E+00 0.  1.
</event>
<event>
 7    1  0.3141443E-011  0.5052886E+02  0.7816164E-02  0.1300439E+00
        -11   -1    0    0    0    0  0.00000000000E+00  0.00000000000E+00  0.45593999997E+02  0.45594000000E+02  0.51100000000E-03 0.  1.
         11   -1    0    0    0    0 -0.00000000000E+00 -0.00000000000E+00 -0.45593999997E+02  0.45594000000E+02  0.51100000000E-03 0. -1.
    9900012    2    1    2    0    0  0.11941205055E+02  0.12433598338E+02  0.36823614853E+02  0.50528863799E+02  0.30000012004E+02 0.  0.
         12    1    1    2    0    0 -0.11941205055E+02 -0.12433598338E+02 -0.36823614853E+02  0.40659136201E+02  0.00000000000E+00 0. -1.
         11    1    3    3    0    0 -0.26460931422E+01  0.11387385464E+02  0.18050879707E+02  0.21506013463E+02  0.51100000000E-03 0. -1.
        -11    1    3    3    0    0  0.43980916792E+01 -0.76043745513E+00  0.18111773455E+02  0.18653627355E+02  0.51100000000E-03 0.  1.
         12    1    3    3    0    0  0.10189206518E+02  0.18066503292E+01  0.66096169051E+00  0.10369222981E+02  0.00000000000E+00 0. -1.
</event>
<event>
 7    1  0.3141443E-011  0.5052887E+02  0.7816164E-02  0.1300439E+00
        -11   -1    0    0    0    0  0.00000000000E+00  0.00000000000E+00  0.45593999997E+02  0.45594000000E+02  0.51100000000E-03 0.  1.
         11   -1    0    0    0    0 -0.00000000000E+00 -0.00000000000E+00 -0.45593999997E+02  0.45594000000E+02  0.51100000000E-03 0. -1.
    9900012    2    1    2    0    0 -0.36756148935E+02  0.14988454954E+02  0.88032062167E+01  0.50528871798E+02  0.30000036318E+02 0.  0.
         12    1    1    2    0    0  0.36756148935E+02 -0.14988454954E+02 -0.88032062167E+01  0.40659128202E+02  0.00000000000E+00 0. -1.
         11    1    3    3    0    0 -0.79261417083E+01 -0.53090575308E+00 -0.54252314772E+01  0.96197047845E+01  0.51100000000E-03 0. -1.
        -11    1    3    3    0    0 -0.15192478577E+02  0.16731147388E+02  0.22388500501E+01  0.22710243241E+02  0.51100000000E-03 0.  1.
        -12    1    3    3    0    0 -0.13637528649E+02 -0.12117866816E+01  0.11989587644E+02  0.18198923773E+02  0.00000000000E+00 0.  1.
</event>
<event>
 7    1  0.3141443E-011  0.5052886E+02  0.7816164E-02  0.1300439E+00
        -11   -1    0    0    0    0  0.00000000000E+00  0.00000000000E+00  0.45593999997E+02  0.45594000000E+02  0.51100000000E-03 0.  1.
         11   -1    0    0    0    0 -0.00000000000E+00 -0.00000000000E+00 -0.45593999997E+02  0.45594000000E+02  0.51100000000E-03 0. -1.
    9900012    2    1    2    0    0 -0.31286038678E+02  0.23889502555E+02  0.10180418551E+02  0.50528862401E+02  0.30000007754E+02 0.  0.
         12    1    1    2    0    0  0.31286038678E+02 -0.23889502555E+02 -0.10180418551E+02  0.40659137599E+02  0.00000000000E+00 0. -1.
         11    1    3    3    0    0  0.22321646325E+01 -0.93692159309E+00  0.26196584555E+01  0.35669302913E+01  0.51100000000E-03 0. -1.
        -11    1    3    3    0    0  0.10112643236E+01  0.65293219027E+00 -0.32345192612E+01  0.34512448608E+01  0.51100000000E-03 0.  1.
        -12    1    3    3    0    0 -0.34529467634E+02  0.24173491957E+02  0.10795279356E+02  0.43510687249E+02  0.00000000000E+00 0.  1.
</event>
<event>
 7    1  0.3141443E-011  0.5052886E+02  0.7816164E-02  0.1300439E+00
        -11   -1    0    0    0    0  0.00000000000E+00  0.00000000000E+00  0.45593999997E+02  0.45594000000E+02  0.51100000000E-03 0. -1.
         11   -1    0    0    0    0 -0.00000000000E+00 -0.00000000000E+00 -0.45593999997E+02  0.45594000000E+02  0.51100000000E-03 0.  1.
    9900012    2    1    2    0    0 -0.29500611711E+02 -0.27253156676E+02  0.63359827618E+01  0.50528864277E+02  0.30000013457E+02 0.  0.
         12    1    1    2    0    0  0.29500611711E+02  0.27253156676E+02 -0.63359827618E+01  0.40659135723E+02  0.00000000000E+00 0. -1.
         11    1    3    3    0    0 -0.10390635888E+02 -0.10996025242E+02  0.32883819128E+01  0.15481968258E+02  0.51100000000E-03 0. -1.
        -11    1    3    3    0    0 -0.17695683074E+02 -0.20612767816E+02 -0.31416457281E+01  0.27347638557E+02  0.51100000000E-03 0.  1.
         12    1    3    3    0    0 -0.14142927493E+01  0.43556363821E+01  0.61892465772E+01  0.76992574621E+01  0.00000000000E+00 0. -1.
</event>
<event>
 7    1  0.3141443E-011  0.5052887E+02  0.7816164E-02  0.1300439E+00
        -11   -1    0    0    0    0  0.00000000000E+00  0.00000000000E+00  0.45593999997E+02  0.45594000000E+02  0.51100000000E-03 0. -1.
         11   -1    0    0    0    0 -0.00000000000E+00 -0.00000000000E+00 -0.45593999997E+02  0.45594000000E+02  0.51100000000E-03 0.  1.
    9900012    2    1    2    0    0 -0.25264419852E+02  0.29971305484E+02  0.10797913141E+02  0.50528868294E+02  0.30000025665E+02 0.  0.
         12    1    1    2    0    0  0.25264419852E+02 -0.29971305484E+02 -0.10797913141E+02  0.40659131706E+02  0.00000000000E+00 0. -1.
         11    1    3    3    0    0 -0.17813927293E+02  0.14208896496E+02  0.12412323254E+02  0.25947919263E+02  0.51100000000E-03 0. -1.
        -11    1    3    3    0    0 -0.25064167942E+01  0.12803044430E+02  0.65420595821E+01  0.14594472092E+02  0.51100000000E-03 0.  1.
         12    1    3    3    0    0 -0.49440757648E+01  0.29593645590E+01 -0.81564696950E+01  0.99864769387E+01  0.00000000000E+00 0. -1.
</event>
<event>
 7    1  0.3141443E-011  0.5052887E+02  0.7816164E-02  0.1300439E+00
        -11   -1    0    0    0    0  0.00000000000E+00  0.00000000000E+00  0.45593999997E+02  0.45594000000E+02  0.51100000000E-03 0. -1.
         11   -1    0    0    0    0 -0.00000000000E+00 -0.00000000000E+00 -0.45593999997E+02  0.45594000000E+02  0.51100000000E-03 0.  1.
    9900012    2    1    2    0    0  0.37076150177E+02  0.13387557570E+02 -0.99648169452E+01  0.50528865892E+02  0.30000018365E+02 0.  0.
         12    1    1    2    0    0 -0.37076150177E+02 -0.13387557570E+02  0.99648169452E+01  0.40659134108E+02  0.00000000000E+00 0. -1.
         11    1    3    3    0    0  0.14087244535E+01  0.43376389061E+01  0.57568728014E+01  0.73444673448E+01  0.51100000000E-03 0. -1.
        -11    1    3    3    0    0  0.15999970295E+02 -0.41562064953E+01 -0.64307587662E+01  0.17737749588E+02  0.51100000000E-03 0.  1.
        -12    1    3    3    0    0  0.19667455429E+02  0.13206125159E+02 -0.92909309805E+01  0.25446648959E+02  0.00000000000E+00 0.  1.
</event>
<event>
 7    1  0.3141443E-011  0.5052886E+02  0.7816164E-02  0.1300439E+00
        -11   -1    0    0    0    0  0.00000000000E+00  0.00000000000E+00  0.45593999997E+02  0.45594000000E+02  0.51100000000E-03 0.  1.
         11   -1    0    0    0    0 -0.00000000000E+00 -0.00000000000E+00 -0.45593999997E+02  0.45594000000E+02  0.51100000000E-03 0. -1.
    9900012    2    1    2    0    0  0.15225138949E+01  0.29365300246E+02  0.28080717567E+02  0.50528860730E+02  0.30000002675E+02 0.  0.
         12    1    1    2    0    0 -0.15225138949E+01 -0.29365300246E+02 -0.28080717567E+02  0.40659139270E+02  0.00000000000E+00 0. -1.
         11    1    3    3    0    0 -0.76360004574E+01 -0.15611332641E+01  0.32363059070E+01  0.84391537632E+01  0.51100000000E-03 0. -1.
        -11    1    3    3    0    0 -0.21776251124E+01  0.78190806754E+01  0.75133284951E+01  0.11060297423E+02  0.51100000000E-03 0.  1.
         12    1    3    3    0    0  0.11336139465E+02  0.23107352835E+02  0.17331083165E+02  0.31029409544E+02  0.00000000000E+00 0. -1.
</event>
<event>
 7    1  0.3141443E-011  0.5052886E+02  0.7816164E-02  0.1300439E+00
        -11   -1    0    0    0    0  0.00000000000E+00  0.00000000000E+00  0.45593999997E+02  0.45594000000E+02  0.51100000000E-03 0.  1.
         11   -1    0    0    0    0 -0.00000000000E+00 -0.00000000000E+00 -0.45593999997E+02  0.45594000000E+02  0.51100000000E-03 0. -1.
    9900012    2    1    2    0    0 -0.27420073242E+02 -0.63777478694E+01  0.29336488461E+02  0.50528860317E+02  0.30000001420E+02 0.  0.
         12    1    1    2    0    0  0.27420073242E+02  0.63777478694E+01 -0.29336488461E+02  0.40659139683E+02  0.00000000000E+00 0. -1.
         11    1    3    3    0    0 -0.68706046040E+01 -0.22444880737E+01 -0.11152817215E+01  0.73134662040E+01  0.51100000000E-03 0. -1.
        -11    1    3    3    0    0  0.48540476050E+01  0.20615314974E+00  0.41117539673E+01  0.63648093626E+01  0.51100000000E-03 0.  1.
         12    1    3    3    0    0 -0.25403516243E+02 -0.43394129454E+01  0.26340016216E+02  0.36850584751E+02  0.00000000000E+00 0. -1.
</event>
<event>
 7    1  0.3141443E-011  0.5052886E+02  0.7816164E-02  0.1300439E+00
        -11   -1    0    0    0    0  0.00000000000E+00  0.00000000000E+00  0.45593999997E+02  0.45594000000E+02  0.51100000000E-03 0.  1.
         11   -1    0    0    0    0 -0.00000000000E+00 -0.00000000000E+00 -0.45593999997E+02  0.45594000000E+02  0.51100000000E-03 0. -1.
    9900012    2    1    2    0    0  0.28924935612E+01  0.67668627951E+01  0.39987604884E+02  0.50528862092E+02  0.30000006814E+02 0.  0.
         12    1    1    2    0    0 -0.28924935612E+01 -0.67668627951E+01 -0.39987604884E+02  0.40659137908E+02  0.00000000000E+00 0. -1.
         11    1    3    3    0    0  0.12017530266E+02  0.84538090812E+01  0.10094276517E+02  0.17826450581E+02  0.51100000000E-03 0. -1.
        -11    1    3    3    0    0 -0.70552408247E+00 -0.43666453012E+01  0.97495151340E+01  0.10705998367E+02  0.51100000000E-03 0.  1.
        -12    1    3    3    0    0 -0.84195126220E+01  0.26796990151E+01  0.20143813234E+02  0.21996413144E+02  0.00000000000E+00 0.  1.
</event>
<event>
 7    1  0.3141443E-011  0.5052886E+02  0.7816164E-02  0.1300439E+00
        -11   -1    0    0    0    0  0.00000000000E+00  0.00000000000E+00  0.45593999997E+02  0.45594000000E+02  0.51100000000E-03 0.  1.
         11   -1    0    0    0    0 -0.00000000000E+00 -0.00000000000E+00 -0.45593999997E+02  0.45594000000E+02  0.51100000000E-03 0. -1.
    9900012    2    1    2    0    0 -0.10010239257E+02  0.32766146131E+02  0.21893838460E+02  0.50528863452E+02  0.30000010950E+02 0.  0.
         12    1    1    2    0    0  0.10010239257E+02 -0.32766146131E+02 -0.21893838460E+02  0.40659136548E+02  0.00000000000E+00 0. -1.
         11    1    3    3    0    0 -0.37671986137E+01  0.14267929096E+02 -0.19530507014E+01  0.14885563254E+02  0.51100000000E-03 0. -1.
        -11    1    3    3    0    0  0.40609862459E+01  0.12194982333E+02  0.62313879091E+01  0.14284236029E+02  0.51100000000E-03 0.  1.
        -12    1    3    3    0    0 -0.10304026889E+02  0.63032347028E+01  0.17615501253E+02  0.21359064170E+02  0.00000000000E+00 0.  1.
</event>
<event>
 7    1  0.3141443E-011  0.5052887E+02  0.7816164E-02  0.1300439E+00
        -11   -1    0    0    0    0  0.00000000000E+00  0.00000000000E+00  0.45593999997E+02  0.45594000000E+02  0.51100000000E-03 0.  1.
         11   -1    0    0    0    0 -0.00000000000E+00 -0.00000000000E+00 -0.45593999997E+02  0.45594000000E+02  0.51100000000E-03 0. -1.
    9900012    2    1    2    0    0 -0.18123783632E+02 -0.25630033628E+02  0.25841730374E+02  0.50528865902E+02  0.30000018395E+02 0.  0.
         12    1    1    2    0    0  0.18123783632E+02  0.25630033628E+02 -0.25841730374E+02  0.40659134098E+02  0.00000000000E+00 0. -1.
         11    1    3    3    0    0 -0.47096072714E+01  0.36305916815E+00 -0.11115964603E+01  0.48526136836E+01  0.51100000000E-03 0. -1.
        -11    1    3    3    0    0 -0.18884678237E+02 -0.24614092289E+02  0.20932648038E+02  0.37425397332E+02  0.51100000000E-03 0.  1.
         12    1    3    3    0    0  0.54705018766E+01 -0.13790005075E+01  0.60206787961E+01  0.82508548859E+01  0.00000000000E+00 0. -1.
</event>
<event>
 7    1  0.3141443E-011  0.5052886E+02  0.7816164E-02  0.1300439E+00
        -11   -1    0    0    0    0  0.00000000000E+00  0.00000000000E+00  0.45593999997E+02  0.45594000000E+02  0.51100000000E-03 0.  1.
         11   -1    0    0    0    0 -0.00000000000E+00 -0.00000000000E+00 -0.45593999997E+02  0.45594000000E+02  0.51100000000E-03 0. -1.
    9900012    2    1    2    0    0  0.24311900638E+02 -0.65692572391E+01  0.31920867397E+02  0.50528862912E+02  0.30000009309E+02 0.  0.
         12    1    1    2    0    0 -0.24311900638E+02  0.65692572391E+01 -0.31920867397E+02  0.40659137088E+02  0.00000000000E+00 0. -1.
         11    1    3    3    0    0  0.94476836014E+01  0.94499057955E+01  0.72398831980E+01  0.15197873337E+02  0.51100000000E-03 0. -1.
        -11    1    3    3    0    0  0.14889058029E+02 -0.75941237104E+01  0.14597498519E+02  0.22191028079E+02  0.51100000000E-03 0.  1.
         12    1    3    3    0    0 -0.24840991659E-01 -0.84250393242E+01  0.10083485680E+02  0.13139961497E+02  0.00000000000E+00 0. -1.
</event>
<event>
 7    1  0.3141443E-011  0.5052885E+02  0.7816164E-02  0.1300439E+00
        -11   -1    0    0    0    0  0.00000000000E+00  0.00000000000E+00  0.45593999997E+02  0.45594000000E+02  0.51100000000E-03 0. -1.
         11   -1    0    0    0    0 -0.00000000000E+00 -0.00000000000E+00 -0.45593999997E+02  0.45594000000E+02  0.51100000000E-03 0.  1.
    9900012    2    1    2    0    0 -0.17928631879E+02 -0.19540388815E+02 -0.30820505090E+02  0.50528853795E+02  0.29999981597E+02 0.  0.
         12    1    1    2    0    0  0.17928631879E+02  0.19540388815E+02  0.30820505090E+02  0.40659146205E+02  0.00000000000E+00 0. -1.
         11    1    3    3    0    0 -0.16631458847E+01 -0.75787791412E+01 -0.83732493730E+01  0.11415570631E+02  0.51100000000E-03 0. -1.
        -11    1    3    3    0    0 -0.15160902388E+02 -0.52394794965E+01 -0.26652743311E+02  0.31107456226E+02  0.51100000000E-03 0.  1.
         12    1    3    3    0    0 -0.11045836068E+01 -0.67221301775E+01  0.42054875940E+01  0.80058269387E+01  0.00000000000E+00 0. -1.
</event>
<event>
 7    1  0.3141443E-011  0.5052887E+02  0.7816164E-02  0.1300439E+00
        -11   -1    0    0    0    0  0.00000000000E+00  0.00000000000E+00  0.45593999997E+02  0.45594000000E+02  0.51100000000E-03 0. -1.
         11   -1    0    0    0    0 -0.00000000000E+00 -0.00000000000E+00 -0.45593999997E+02  0.45594000000E+02  0.51100000000E-03 0.  1.
    9900012    2    1    2    0    0 -0.21608515809E+02 -0.18804328005E+02  0.28855398117E+02  0.50528871780E+02  0.30000036262E+02 0.  0.
         12    1    1    2    0    0  0.21608515809E+02  0.18804328005E+02 -0.28855398117E+02  0.40659128220E+02  0.00000000000E+00 0. -1.
         11    1    3    3    0    0  0.14882213131E+01 -0.11401368117E+02  0.97963587706E+01  0.15105450772E+02  0.51100000000E-03 0. -1.
        -11    1    3    3    0    0 -0.31523888253E+01  0.34097824278E+01  0.99423244070E+01  0.10973330688E+02  0.51100000000E-03 0.  1.
        -12    1    3    3    0    0 -0.19944348296E+02 -0.10812742316E+02  0.91167149392E+01  0.24450090320E+02  0.00000000000E+00 0.  1.
</event>
<event>
 7    1  0.3141443E-011  0.5052886E+02  0.7816164E-02  0.1300439E+00
        -11   -1    0    0    0    0  0.00000000000E+00  0.00000000000E+00  0.45593999997E+02  0.45594000000E+02  0.51100000000E-03 0.  1.
         11   -1    0    0    0    0 -0.00000000000E+00 -0.00000000000E+00 -0.45593999997E+02  0.45594000000E+02  0.51100000000E-03 0. -1.
    9900012    2    1    2    0    0  0.29885303782E+01 -0.12944060683E+02  0.38427664024E+02  0.50528863473E+02  0.30000011013E+02 0.  0.
         12    1    1    2    0    0 -0.29885303782E+01  0.12944060683E+02 -0.38427664024E+02  0.40659136527E+02  0.00000000000E+00 0. -1.
         11    1    3    3    0    0 -0.11802238177E+01 -0.74801704220E+01  0.14826934940E+02  0.16648840133E+02  0.51100000000E-03 0. -1.
        -11    1    3    3    0    0  0.73766317454E+01 -0.44598327262E+00  0.26316463544E+02  0.27334407817E+02  0.51100000000E-03 0.  1.
         12    1    3    3    0    0 -0.32078775495E+01 -0.50179069880E+01 -0.27157344602E+01  0.65456155227E+01  0.00000000000E+00 0. -1.
</event>
<event>
 7    1  0.3141443E-011  0.5052886E+02  0.7816164E-02  0.1300439E+00
        -11   -1    0    0    0    0  0.00000000000E+00  0.00000000000E+00  0.45593999997E+02  0.45594000000E+02  0.51100000000E-03 0.  1.
         11   -1    0    0    0    0 -0.00000000000E+00 -0.00000000000E+00 -0.45593999997E+02  0.45594000000E+02  0.51100000000E-03 0. -1.
    9900012    2    1    2    0    0  0.33297829761E+02  0.23306520024E+02  0.11074680463E+01  0.50528858004E+02  0.29999994389E+02 0.  0.
         12    1    1    2    0    0 -0.33297829761E+02 -0.23306520024E+02 -0.11074680463E+01  0.40659141996E+02  0.00000000000E+00 0. -1.
         11    1    3    3    0    0  0.27067026603E+02  0.41815672326E+01 -0.76259558870E+00  0.27398740590E+02  0.51100000000E-03 0. -1.
        -11    1    3    3    0    0  0.72658691176E+01  0.59223488527E+01 -0.14295640413E+01  0.94821265324E+01  0.51100000000E-03 0.  1.
         12    1    3    3    0    0 -0.10350659596E+01  0.13202603939E+02  0.32996276763E+01  0.13647990882E+02  0.00000000000E+00 0. -1.
</event>
<event>
 7    1  0.3141443E-011  0.5052885E+02  0.7816164E-02  0.1300439E+00
        -11   -1    0    0    0    0  0.00000000000E+00  0.00000000000E+00  0.45593999997E+02  0.45594000000E+02  0.51100000000E-03 0. -1.
         11   -1    0    0    0    0 -0.00000000000E+00 -0.00000000000E+00 -0.45593999997E+02  0.45594000000E+02  0.51100000000E-03 0.  1.
    9900012    2    1    2    0    0 -0.27703900607E+02  0.29522754227E+02 -0.37506363162E+01  0.50528850983E+02  0.29999973049E+02 0.  0.
         12    1    1    2    0    0  0.27703900607E+02 -0.29522754227E+02  0.37506363162E+01  0.40659149017E+02  0.00000000000E+00 0. -1.
         11    1    3    3    0    0 -0.20657128785E+02  0.84713749956E+01 -0.17330779504E+01  0.22393854590E+02  0.51100000000E-03 0. -1.
        -11    1    3    3    0    0  0.51550149159E-01  0.17925921602E+01  0.58764776021E+01  0.61440241975E+01  0.51100000000E-03 0.  1.
        -12    1    3    3    0    0 -0.70983219715E+01  0.19258787071E+02 -0.78940359678E+01  0.21990972196E+02  0.00000000000E+00 0.  1.
</event>
<event>
 7    1  0.3141443E-011  0.5052887E+02  0.7816164E-02  0.1300439E+00
        -11   -1    0    0    0    0  0.00000000000E+00  0.00000000000E+00  0.45593999997E+02  0.45594000000E+02  0.51100000000E-03 0.  1.
         11   -1    0    0    0    0 -0.00000000000E+00 -0.00000000000E+00 -0.45593999997E+02  0.45594000000E+02  0.51100000000E-03 0. -1.
    9900012    2    1    2    0    0  0.31874311794E+02  0.17480326226E+02  0.18210748887E+02  0.50528869017E+02  0.30000027863E+02 0.  0.
         12    1    1    2    0    0 -0.31874311794E+02 -0.17480326226E+02 -0.18210748887E+02  0.40659130983E+02  0.00000000000E+00 0. -1.
         11    1    3    3    0    0  0.91209972332E+01  0.68356305306E+01 -0.53803134182E+01  0.12604213899E+02  0.51100000000E-03 0. -1.
        -11    1    3    3    0    0  0.14146285922E+02  0.69982815136E+01  0.40977245575E+01  0.16305971187E+02  0.51100000000E-03 0.  1.
         12    1    3    3    0    0  0.86070286387E+01  0.36464141819E+01  0.19493337747E+02  0.21618683931E+02  0.00000000000E+00 0. -1.
</event>
<event>
 7    1  0.3141443E-011  0.5052886E+02  0.7816164E-02  0.1300439E+00
        -11   -1    0    0    0    0  0.00000000000E+00  0.00000000000E+00  0.45593999997E+02  0.45594000000E+02  0.51100000000E-03 0.  1.
         11   -1    0    0    0    0 -0.00000000000E+00 -0.00000000000E+00 -0.45593999997E+02  0.45594000000E+02  0.51100000000E-03 0. -1.
    9900012    2    1    2    0    0 -0.26444079905E+02  0.29164010630E+02  0.10165461632E+02  0.50528862181E+02  0.30000007084E+02 0.  0.
         12    1    1    2    0    0  0.26444079905E+02 -0.29164010630E+02 -0.10165461632E+02  0.40659137819E+02  0.00000000000E+00 0. -1.
         11    1    3    3    0    0 -0.26458314549E+01  0.84423327083E+01  0.10667311647E+02  0.13858749716E+02  0.51100000000E-03 0. -1.
        -11    1    3    3    0    0 -0.72703161046E+01  0.15164705970E+02 -0.67863801527E+01  0.18135069872E+02  0.51100000000E-03 0.  1.
        -12    1    3    3    0    0 -0.16527932346E+02  0.55569719515E+01  0.62845301380E+01  0.18535042594E+02  0.00000000000E+00 0.  1.
</event>
<event>
 7    1  0.3141443E-011  0.5052885E+02  0.7816164E-02  0.1300439E+00
        -11   -1    0    0    0    0  0.00000000000E+00  0.00000000000E+00  0.45593999997E+02  0.45594000000E+02  0.51100000000E-03 0. -1.
         11   -1    0    0    0    0 -0.00000000000E+00 -0.00000000000E+00 -0.45593999997E+02  0.45594000000E+02  0.51100000000E-03 0.  1.
    9900012    2    1    2    0    0  0.27611227147E+02  0.16355676159E+02  0.24965537604E+02  0.50528854964E+02  0.29999985149E+02 0.  0.
         12    1    1    2    0    0 -0.27611227147E+02 -0.16355676159E+02 -0.24965537604E+02  0.40659145036E+02  0.00000000000E+00 0. -1.
         11    1    3    3    0    0 -0.41523591650E+01 -0.45270166645E+00  0.24363046354E+01  0.48355564284E+01  0.51100000000E-03 0. -1.
        -11    1    3    3    0    0  0.21919383848E+02  0.38074890361E+01  0.73928641089E+01  0.23443779581E+02  0.51100000000E-03 0.  1.
         12    1    3    3    0    0  0.98442024644E+01  0.13000888789E+02  0.15136368860E+02  0.22249518955E+02  0.00000000000E+00 0. -1.
</event>
<event>
 7    1  0.3141443E-011  0.5052886E+02  0.7816164E-02  0.1300439E+00
        -11   -1    0    0    0    0  0.00000000000E+00  0.00000000000E+00  0.45593999997E+02  0.45594000000E+02  0.51100000000E-03 0.  1.
         11   -1    0    0    0    0 -0.00000000000E+00 -0.00000000000E+00 -0.45593999997E+02  0.45594000000E+02  0.51100000000E-03 0. -1.
    9900012    2    1    2    0    0  0.21544662505E+02 -0.10367763120E+02  0.32886204868E+02  0.50528862463E+02  0.30000007944E+02 0.  0.
         12    1    1    2    0    0 -0.21544662505E+02  0.10367763120E+02 -0.32886204868E+02  0.40659137537E+02  0.00000000000E+00 0. -1.
         11    1    3    3    0    0  0.12193581898E+02 -0.11581852316E+02  0.20371437742E+02  0.26416249138E+02  0.51100000000E-03 0. -1.
        -11    1    3    3    0    0  0.25415969084E+01  0.65933351973E+00  0.16157946959E+02  0.16369901824E+02  0.51100000000E-03 0.  1.
         12    1    3    3    0    0  0.68094836988E+01  0.55475567624E+00 -0.36431798326E+01  0.77427115016E+01  0.00000000000E+00 0. -1.
</event>
<event>
 7    1  0.3141443E-011  0.5052885E+02  0.7816164E-02  0.1300439E+00
        -11   -1    0    0    0    0  0.00000000000E+00  0.00000000000E+00  0.45593999997E+02  0.45594000000E+02  0.51100000000E-03 0.  1.
         11   -1    0    0    0    0 -0.00000000000E+00 -0.00000000000E+00 -0.45593999997E+02  0.45594000000E+02  0.51100000000E-03 0. -1.
    9900012    2    1    2    0    0  0.34019779025E+02  0.20912061814E+02  0.76489725759E+01  0.50528850037E+02  0.29999970174E+02 0.  0.
         12    1    1    2    0    0 -0.34019779025E+02 -0.20912061814E+02 -0.76489725759E+01  0.40659149963E+02  0.00000000000E+00 0. -1.
         11    1    3    3    0    0  0.19095574511E+02  0.17219717400E+02  0.17251351607E+01  0.25770830892E+02  0.51100000000E-03 0.  1.
        -11    1    3    3    0    0  0.56610364785E+01  0.45428767853E+01 -0.61519770604E+01  0.95148245128E+01  0.51100000000E-03 0. -1.
         12    1    3    3    0    0  0.92631680353E+01 -0.85053237205E+00  0.12075814476E+02  0.15243194633E+02  0.00000000000E+00 0. -1.
</event>
<event>
 7    1  0.3141443E-011  0.5052888E+02  0.7816164E-02  0.1300439E+00
        -11   -1    0    0    0    0  0.00000000000E+00  0.00000000000E+00  0.45593999997E+02  0.45594000000E+02  0.51100000000E-03 0. -1.
         11   -1    0    0    0    0 -0.00000000000E+00 -0.00000000000E+00 -0.45593999997E+02  0.45594000000E+02  0.51100000000E-03 0.  1.
    9900012    2    1    2    0    0 -0.13466937493E+02  0.38360054557E+02 -0.55866697747E+00  0.50528876795E+02  0.30000051505E+02 0.  0.
         12    1    1    2    0    0  0.13466937493E+02 -0.38360054557E+02  0.55866697747E+00  0.40659123205E+02  0.00000000000E+00 0. -1.
         11    1    3    3    0    0  0.26652895565E+01  0.85880556816E+01  0.25020016425E+01  0.93337281560E+01  0.51100000000E-03 0.  1.
        -11    1    3    3    0    0 -0.15796670559E+00  0.87967123402E+01 -0.10597391398E+02  0.13773590897E+02  0.51100000000E-03 0. -1.
         12    1    3    3    0    0 -0.15974260344E+02  0.20975286535E+02  0.75367227782E+01  0.27421557742E+02  0.00000000000E+00 0. -1.
</event>
<event>
 7    1  0.3141443E-011  0.5052886E+02  0.7816164E-02  0.1300439E+00
        -11   -1    0    0    0    0  0.00000000000E+00  0.00000000000E+00  0.45593999997E+02  0.45594000000E+02  0.51100000000E-03 0. -1.
         11   -1    0    0    0    0 -0.00000000000E+00 -0.00000000000E+00 -0.45593999997E+02  0.45594000000E+02  0.51100000000E-03 0.  1.
    9900012    2    1    2    0    0 -0.81502005577E+01 -0.27822536341E+02 -0.28506952234E+02  0.50528860520E+02  0.30000002036E+02 0.  0.
         12    1    1    2    0    0  0.81502005577E+01  0.27822536341E+02  0.28506952234E+02  0.40659139480E+02  0.00000000000E+00 0. -1.
         11    1    3    3    0    0  0.13884300811E+01  0.16271980048E+01  0.30956783982E+00  0.21613292080E+01  0.51100000000E-03 0. -1.
        -11    1    3    3    0    0  0.65815200066E+01 -0.16730579473E+02 -0.10311766925E+02  0.20725859029E+02  0.51100000000E-03 0.  1.
         12    1    3    3    0    0 -0.16120150645E+02 -0.12719154873E+02 -0.18504753149E+02  0.27641672283E+02  0.00000000000E+00 0. -1.
</event>
<event>
 7    1  0.3141443E-011  0.5052886E+02  0.7816164E-02  0.1300439E+00
        -11   -1    0    0    0    0  0.00000000000E+00  0.00000000000E+00  0.45593999997E+02  0.45594000000E+02  0.51100000000E-03 0.  1.
         11   -1    0    0    0    0 -0.00000000000E+00 -0.00000000000E+00 -0.45593999997E+02  0.45594000000E+02  0.51100000000E-03 0. -1.
    9900012    2    1    2    0    0  0.30778717367E+02  0.27544492225E+01  0.26424411965E+02  0.50528856121E+02  0.29999988666E+02 0.  0.
         12    1    1    2    0    0 -0.30778717367E+02 -0.27544492225E+01 -0.26424411965E+02  0.40659143879E+02  0.00000000000E+00 0. -1.
         11    1    3    3    0    0  0.24500777771E+02 -0.32022267442E+01  0.12207248610E+02  0.27560103164E+02  0.51100000000E-03 0. -1.
        -11    1    3    3    0    0  0.93358516775E+01  0.67641988870E+01  0.15697885717E+02  0.19476553324E+02  0.51100000000E-03 0.  1.
        -12    1    3    3    0    0 -0.30579120821E+01 -0.80752292030E+00 -0.14807223621E+01  0.34921996338E+01  0.00000000000E+00 0.  1.
</event>
<event>
 7    1  0.3141443E-011  0.5052885E+02  0.7816164E-02  0.1300439E+00
        -11   -1    0    0    0    0  0.00000000000E+00  0.00000000000E+00  0.45593999997E+02  0.45594000000E+02  0.51100000000E-03 0. -1.
         11   -1    0    0    0    0 -0.00000000000E+00 -0.00000000000E+00 -0.45593999997E+02  0.45594000000E+02  0.51100000000E-03 0.  1.
    9900012    2    1    2    0    0 -0.13461065582E+02 -0.43718986490E+01 -0.38116309007E+02  0.50528846090E+02  0.29999958174E+02 0.  0.
         12    1    1    2    0    0  0.13461065582E+02  0.43718986490E+01  0.38116309007E+02  0.40659153910E+02  0.00000000000E+00 0. -1.
         11    1    3    3    0    0 -0.11839404098E+01  0.10369775446E+01  0.14078722471E+01  0.21116680249E+01  0.51100000000E-03 0. -1.
        -11    1    3    3    0    0 -0.18512790778E+02 -0.41624974060E+00 -0.19663150831E+02  0.27009927566E+02  0.51100000000E-03 0.  1.
        -12    1    3    3    0    0  0.62356656064E+01 -0.49926264530E+01 -0.19861030423E+02  0.21407250499E+02  0.00000000000E+00 0.  1.
</event>
<event>
 7    1  0.3141443E-011  0.5052885E+02  0.7816164E-02  0.1300439E+00
        -11   -1    0    0    0    0  0.00000000000E+00  0.00000000000E+00  0.45593999997E+02  0.45594000000E+02  0.51100000000E-03 0.  1.
         11   -1    0    0    0    0 -0.00000000000E+00 -0.00000000000E+00 -0.45593999997E+02  0.45594000000E+02  0.51100000000E-03 0. -1.
    9900012    2    1    2    0    0 -0.20925976006E+02  0.17337273216E+02  0.30243821579E+02  0.50528852713E+02  0.29999978307E+02 0.  0.
         12    1    1    2    0    0  0.20925976006E+02 -0.17337273216E+02 -0.30243821579E+02  0.40659147287E+02  0.00000000000E+00 0. -1.
         11    1    3    3    0    0  0.20256914173E+01  0.85896024234E+01 -0.12355609037E+01  0.89113021786E+01  0.51100000000E-03 0. -1.
        -11    1    3    3    0    0 -0.18744210236E+01  0.10808244075E+01 -0.80370525727E+00  0.23081546688E+01  0.51100000000E-03 0.  1.
        -12    1    3    3    0    0 -0.21077246400E+02  0.76668463849E+01  0.32283087740E+02  0.39309395866E+02  0.00000000000E+00 0.  1.
</event>
<event>
 7    1  0.3141443E-011  0.5052886E+02  0.7816164E-02  0.1300439E+00
        -11   -1    0    0    0    0  0.00000000000E+00  0.00000000000E+00  0.45593999997E+02  0.45594000000E+02  0.51100000000E-03 0.  1.
         11   -1    0    0    0    0 -0.00000000000E+00 -0.00000000000E+00 -0.45593999997E+02  0.45594000000E+02  0.51100000000E-03 0. -1.
    9900012    2    1    2    0    0  0.14891743469E+02 -0.26139304082E+01  0.37743460778E+02  0.50528862193E+02  0.30000007121E+02 0.  0.
         12    1    1    2    0    0 -0.14891743469E+02  0.26139304082E+01 -0.37743460778E+02  0.40659137807E+02  0.00000000000E+00 0. -1.
         11    1    3    3    0    0 -0.89483607263E+00  0.50215526609E+01  0.22092367300E+02  0.22673539995E+02  0.51100000000E-03 0. -1.
        -11    1    3    3    0    0 -0.25946359831E+01 -0.30244769534E+01  0.37857701302E+01  0.54965127551E+01  0.51100000000E-03 0.  1.
         12    1    3    3    0    0  0.18381215524E+02 -0.46110061157E+01  0.11865323348E+02  0.22358809443E+02  0.00000000000E+00 0. -1.
</event>
<event>
 7    1  0.3141443E-011  0.5052888E+02  0.7816164E-02  0.1300439E+00
        -11   -1    0    0    0    0  0.00000000000E+00  0.00000000000E+00  0.45593999997E+02  0.45594000000E+02  0.51100000000E-03 0.  1.
         11   -1    0    0    0    0 -0.00000000000E+00 -0.00000000000E+00 -0.45593999997E+02  0.45594000000E+02  0.51100000000E-03 0. -1.
    9900012    2    1    2    0    0  0.24974290929E+02  0.94062376156E+00  0.32071230931E+02  0.50528882524E+02  0.30000068921E+02 0.  0.
         12    1    1    2    0    0 -0.24974290929E+02 -0.94062376156E+00 -0.32071230931E+02  0.40659117476E+02  0.00000000000E+00 0. -1.
         11    1    3    3    0    0  0.15900750286E+02 -0.53137019235E+01  0.21950775087E+02  0.27620749718E+02  0.51100000000E-03 0.  1.
        -11    1    3    3    0    0 -0.28570320960E+01 -0.38994557837E+01  0.30838231880E+01  0.57339649042E+01  0.51100000000E-03 0. -1.
        -12    1    3    3    0    0  0.11930572740E+02  0.10153781469E+02  0.70366326554E+01  0.17174167903E+02  0.00000000000E+00 0.  1.
</event>
<event>
 7    1  0.3141443E-011  0.5052886E+02  0.7816164E-02  0.1300439E+00
        -11   -1    0    0    0    0  0.00000000000E+00  0.00000000000E+00  0.45593999997E+02  0.45594000000E+02  0.51100000000E-03 0. -1.
         11   -1    0    0    0    0 -0.00000000000E+00 -0.00000000000E+00 -0.45593999997E+02  0.45594000000E+02  0.51100000000E-03 0.  1.
    9900012    2    1    2    0    0  0.16756754100E+02  0.12796502794E+02 -0.34765306839E+02  0.50528857716E+02  0.29999993512E+02 0.  0.
         12    1    1    2    0    0 -0.16756754100E+02 -0.12796502794E+02  0.34765306839E+02  0.40659142284E+02  0.00000000000E+00 0. -1.
         11    1    3    3    0    0  0.89309118696E+01  0.78867909021E+01 -0.64995802928E+01  0.13572295377E+02  0.51100000000E-03 0. -1.
        -11    1    3    3    0    0  0.43254229764E+01  0.13291075012E+02 -0.21444596724E+02  0.25597513313E+02  0.51100000000E-03 0.  1.
         12    1    3    3    0    0  0.35004192536E+01 -0.83813631206E+01 -0.68211298219E+01  0.11359049025E+02  0.00000000000E+00 0. -1.
</event>
<event>
 7    1  0.3141443E-011  0.5052886E+02  0.7816164E-02  0.1300439E+00
        -11   -1    0    0    0    0  0.00000000000E+00  0.00000000000E+00  0.45593999997E+02  0.45594000000E+02  0.51100000000E-03 0.  1.
         11   -1    0    0    0    0 -0.00000000000E+00 -0.00000000000E+00 -0.45593999997E+02  0.45594000000E+02  0.51100000000E-03 0. -1.
    9900012    2    1    2    0    0 -0.24154768951E+02  0.31740513011E+02  0.78900562023E+01  0.50528855688E+02  0.29999987350E+02 0.  0.
         12    1    1    2    0    0  0.24154768951E+02 -0.31740513011E+02 -0.78900562023E+01  0.40659144312E+02  0.00000000000E+00 0. -1.
         11    1    3    3    0    0 -0.18110766834E+02  0.20197708193E+02  0.10476796025E+02  0.29081102916E+02  0.51100000000E-03 0.  1.
        -11    1    3    3    0    0 -0.10384549632E+02  0.12549897960E+02 -0.39999897120E+01  0.16773154975E+02  0.51100000000E-03 0. -1.
         12    1    3    3    0    0  0.43405475143E+01 -0.10070931419E+01  0.14132498890E+01  0.46745977976E+01  0.00000000000E+00 0. -1.
</event>
<event>
 7    1  0.3141443E-011  0.5052887E+02  0.7816164E-02  0.1300439E+00
        -11   -1    0    0    0    0  0.00000000000E+00  0.00000000000E+00  0.45593999997E+02  0.45594000000E+02  0.51100000000E-03 0. -1.
         11   -1    0    0    0    0 -0.00000000000E+00 -0.00000000000E+00 -0.45593999997E+02  0.45594000000E+02  0.51100000000E-03 0.  1.
    9900012    2    1    2    0    0  0.72495873778E+01 -0.15326066989E+02 -0.36955654329E+02  0.50528865315E+02  0.30000016611E+02 0.  0.
         12    1    1    2    0    0 -0.72495873778E+01  0.15326066989E+02  0.36955654329E+02  0.40659134685E+02  0.00000000000E+00 0. -1.
         11    1    3    3    0    0  0.86959844244E+01 -0.86616597623E+01 -0.96987533017E+01  0.15643219324E+02  0.51100000000E-03 0. -1.
        -11    1    3    3    0    0 -0.21304138811E+01 -0.13758244575E+02 -0.13502065426E+02  0.19394167374E+02  0.51100000000E-03 0.  1.
         12    1    3    3    0    0  0.68401683438E+00  0.70938373480E+01 -0.13754835600E+02  0.15491478617E+02  0.00000000000E+00 0. -1.
</event>
<event>
 7    1  0.3141443E-011  0.5052886E+02  0.7816164E-02  0.1300439E+00
        -11   -1    0    0    0    0  0.00000000000E+00  0.00000000000E+00  0.45593999997E+02  0.45594000000E+02  0.51100000000E-03 0.  1.
         11   -1    0    0    0    0 -0.00000000000E+00 -0.00000000000E+00 -0.45593999997E+02  0.45594000000E+02  0.51100000000E-03 0. -1.
    9900012    2    1    2    0    0  0.12811947462E+02  0.34238691750E+02  0.17796958060E+02  0.50528859247E+02  0.29999998168E+02 0.  0.
         12    1    1    2    0    0 -0.12811947462E+02 -0.34238691750E+02 -0.17796958060E+02  0.40659140753E+02  0.00000000000E+00 0. -1.
         11    1    3    3    0    0  0.22292302951E+01 -0.23886829994E+00 -0.93118423189E+00  0.24276799847E+01  0.51100000000E-03 0. -1.
        -11    1    3    3    0    0  0.15202077296E+02  0.32424737009E+02  0.86728450404E+01  0.36846776868E+02  0.51100000000E-03 0.  1.
        -12    1    3    3    0    0 -0.46193601286E+01  0.20528230413E+01  0.10055297252E+02  0.11254402395E+02  0.00000000000E+00 0.  1.
</event>
<event>
 7    1  0.6907377E-011  0.5052886E+02  0.7816164E-02  0.1300439E+00
        -11   -1    0    0    0    0  0.00000000000E+00  0.00000000000E+00  0.45593999997E+02  0.45594000000E+02  0.51100000000E-03 0. -1.
         11   -1    0    0    0    0 -0.00000000000E+00 -0.00000000000E+00 -0.45593999997E+02  0.45594000000E+02  0.51100000000E-03 0.  1.
    9900012    2    1    2    0    0 -0.21331638518E+02 -0.92499985690E+01 -0.33355128675E+02  0.50528857310E+02  0.29999992278E+02 0.  0.
         12    1    1    2    0    0  0.21331638518E+02  0.92499985690E+01  0.33355128675E+02  0.40659142690E+02  0.00000000000E+00 0. -1.
         11    1    3    3    0    0 -0.16326204297E+01 -0.10854305499E+01  0.38383362547E+01  0.43100387946E+01  0.51100000000E-03 0. -1.
        -11    1    3    3    0    0 -0.92035307329E+01 -0.11578253890E+02 -0.13264427039E+02  0.19867208310E+02  0.51100000000E-03 0.  1.
        -12    1    3    3    0    0 -0.10495487355E+02  0.34136858705E+01 -0.23929037890E+02  0.26351610205E+02  0.00000000000E+00 0.  1.
</event>
<event>
 7    1  0.3321396E-011  0.5052886E+02  0.7816164E-02  0.1300439E+00
        -11   -1    0    0    0    0  0.00000000000E+00  0.00000000000E+00  0.45593999997E+02  0.45594000000E+02  0.51100000000E-03 0.  1.
         11   -1    0    0    0    0 -0.00000000000E+00 -0.00000000000E+00 -0.45593999997E+02  0.45594000000E+02  0.51100000000E-03 0. -1.
    9900012    2    1    2    0    0  0.96042551157E+01 -0.32555422006E+02  0.22384557217E+02  0.50528860558E+02  0.30000002153E+02 0.  0.
         12    1    1    2    0    0 -0.96042551157E+01  0.32555422006E+02 -0.22384557217E+02  0.40659139442E+02  0.00000000000E+00 0. -1.
         11    1    3    3    0    0  0.87454444036E+01 -0.30667719235E+00  0.16353314483E+01  0.89023119426E+01  0.51100000000E-03 0. -1.
        -11    1    3    3    0    0  0.77444692599E+01 -0.14997773084E+02  0.13772409312E+02  0.21785069661E+02  0.51100000000E-03 0.  1.
        -12    1    3    3    0    0 -0.68856585478E+01 -0.17250971730E+02  0.69768164568E+01  0.19841478955E+02  0.00000000000E+00 0.  1.
</event>
<event>
 7    1  0.3141443E-011  0.5052883E+02  0.7816164E-02  0.1300439E+00
        -11   -1    0    0    0    0  0.00000000000E+00  0.00000000000E+00  0.45593999997E+02  0.45594000000E+02  0.51100000000E-03 0. -1.
         11   -1    0    0    0    0 -0.00000000000E+00 -0.00000000000E+00 -0.45593999997E+02  0.45594000000E+02  0.51100000000E-03 0.  1.
    9900012    2    1    2    0    0 -0.22311362363E+02 -0.27164033644E+02 -0.20432478854E+02  0.50528833672E+02  0.29999920431E+02 0.  0.
         12    1    1    2    0    0  0.22311362363E+02  0.27164033644E+02  0.20432478854E+02  0.40659166328E+02  0.00000000000E+00 0. -1.
         11    1    3    3    0    0 -0.19183619083E+01 -0.19611404133E+01 -0.93260589118E+01  0.97211912448E+01  0.51100000000E-03 0.  1.
        -11    1    3    3    0    0 -0.33114268275E+01 -0.18327513186E+02 -0.12358731897E+02  0.22351768198E+02  0.51100000000E-03 0. -1.
         12    1    3    3    0    0 -0.17081573627E+02 -0.68753800447E+01  0.12523119541E+01  0.18455874229E+02  0.00000000000E+00 0. -1.
</event>
<event>
 7    1  0.3141443E-011  0.5052886E+02  0.7816164E-02  0.1300439E+00
        -11   -1    0    0    0    0  0.00000000000E+00  0.00000000000E+00  0.45593999997E+02  0.45594000000E+02  0.51100000000E-03 0.  1.
         11   -1    0    0    0    0 -0.00000000000E+00 -0.00000000000E+00 -0.45593999997E+02  0.45594000000E+02  0.51100000000E-03 0. -1.
    9900012    2    1    2    0    0 -0.14492914186E+01 -0.38666676159E+02  0.12488114775E+02  0.50528864477E+02  0.30000014065E+02 0.  0.
         12    1    1    2    0    0  0.14492914186E+01  0.38666676159E+02 -0.12488114775E+02  0.40659135523E+02  0.00000000000E+00 0. -1.
         11    1    3    3    0    0 -0.22253404861E+00  0.11521968507E+01  0.10098425596E+02  0.10166379826E+02  0.51100000000E-03 0. -1.
        -11    1    3    3    0    0 -0.22658486211E+01 -0.54085495432E+01  0.21813167597E+00  0.58680541770E+01  0.51100000000E-03 0.  1.
         12    1    3    3    0    0  0.10390912511E+01 -0.34410323467E+02  0.21715575030E+01  0.34494430474E+02  0.00000000000E+00 0. -1.
</event>
<event>
 7    1  0.3141443E-011  0.5052886E+02  0.7816164E-02  0.1300439E+00
        -11   -1    0    0    0    0  0.00000000000E+00  0.00000000000E+00  0.45593999997E+02  0.45594000000E+02  0.51100000000E-03 0.  1.
         11   -1    0    0    0    0 -0.00000000000E+00 -0.00000000000E+00 -0.45593999997E+02  0.45594000000E+02  0.51100000000E-03 0. -1.
    9900012    2    1    2    0    0  0.20796335280E+02  0.11450328230E+02  0.33008607266E+02  0.50528859191E+02  0.29999997998E+02 0.  0.
         12    1    1    2    0    0 -0.20796335280E+02 -0.11450328230E+02 -0.33008607266E+02  0.40659140809E+02  0.00000000000E+00 0. -1.
         11    1    3    3    0    0  0.14506665719E+02  0.14002357979E+02  0.15197231921E+02  0.25248073938E+02  0.51100000000E-03 0.  1.
        -11    1    3    3    0    0  0.45362668660E+00  0.34124833467E+01 -0.18598441101E+01  0.39127790811E+01  0.51100000000E-03 0. -1.
         12    1    3    3    0    0  0.58360428741E+01 -0.59645130962E+01  0.19671219455E+02  0.21368006172E+02  0.00000000000E+00 0. -1.
</event>
<event>
 7    1  0.3141443E-011  0.5052886E+02  0.7816164E-02  0.1300439E+00
        -11   -1    0    0    0    0  0.00000000000E+00  0.00000000000E+00  0.45593999997E+02  0.45594000000E+02  0.51100000000E-03 0.  1.
         11   -1    0    0    0    0 -0.00000000000E+00 -0.00000000000E+00 -0.45593999997E+02  0.45594000000E+02  0.51100000000E-03 0. -1.
    9900012    2    1    2    0    0 -0.24250199828E+02 -0.18169196532E+02  0.27110399382E+02  0.50528860204E+02  0.30000001077E+02 0.  0.
         12    1    1    2    0    0  0.24250199828E+02  0.18169196532E+02 -0.27110399382E+02  0.40659139796E+02  0.00000000000E+00 0. -1.
         11    1    3    3    0    0 -0.49691752410E+01  0.14225960211E+01 -0.65153266460E+00  0.52097002878E+01  0.51100000000E-03 0. -1.
        -11    1    3    3    0    0  0.49960267384E+01 -0.41980487572E+01  0.23034556383E+01  0.69202459983E+01  0.51100000000E-03 0.  1.
        -12    1    3    3    0    0 -0.24277051325E+02 -0.15393743796E+02  0.25458476408E+02  0.38398913918E+02  0.00000000000E+00 0.  1.
</event>
<event>
 7    1  0.3141443E-011  0.5052887E+02  0.7816164E-02  0.1300439E+00
        -11   -1    0    0    0    0  0.00000000000E+00  0.00000000000E+00  0.45593999997E+02  0.45594000000E+02  0.51100000000E-03 0.  1.
         11   -1    0    0    0    0 -0.00000000000E+00 -0.00000000000E+00 -0.45593999997E+02  0.45594000000E+02  0.51100000000E-03 0. -1.
    9900012    2    1    2    0    0  0.17922746995E+02  0.34938802284E+02  0.10546108578E+02  0.50528866082E+02  0.30000018941E+02 0.  0.
         12    1    1    2    0    0 -0.17922746995E+02 -0.34938802284E+02 -0.10546108578E+02  0.40659133918E+02  0.00000000000E+00 0. -1.
         11    1    3    3    0    0  0.10316346249E+02  0.11683857828E+02  0.40215400009E+01  0.16096966109E+02  0.51100000000E-03 0. -1.
        -11    1    3    3    0    0  0.98810355523E+01  0.26275122495E+02  0.94840345857E+01  0.29630454570E+02  0.51100000000E-03 0.  1.
        -12    1    3    3    0    0 -0.22746348065E+01 -0.30201780396E+01 -0.29594660091E+01  0.48014454025E+01  0.00000000000E+00 0.  1.
</event>
<event>
 7    1  0.3141443E-011  0.5052887E+02  0.7816164E-02  0.1300439E+00
        -11   -1    0    0    0    0  0.00000000000E+00  0.00000000000E+00  0.45593999997E+02  0.45594000000E+02  0.51100000000E-03 0. -1.
         11   -1    0    0    0    0 -0.00000000000E+00 -0.00000000000E+00 -0.45593999997E+02  0.45594000000E+02  0.51100000000E-03 0.  1.
    9900012    2    1    2    0    0  0.35416932158E+02  0.19732507045E+02 -0.30714153454E+01  0.50528874210E+02  0.30000043649E+02 0.  0.
         12    1    1    2    0    0 -0.35416932158E+02 -0.19732507045E+02  0.30714153454E+01  0.40659125790E+02  0.00000000000E+00 0. -1.
         11    1    3    3    0    0  0.18806032966E+02  0.40868314132E+01  0.23487784249E+01  0.19387775202E+02  0.51100000000E-03 0. -1.
        -11    1    3    3    0    0  0.52945943392E+01  0.64633637915E+00 -0.10413093208E+02  0.11699700439E+02  0.51100000000E-03 0.  1.
         12    1    3    3    0    0  0.11316304852E+02  0.14999339253E+02  0.49928994381E+01  0.19441398570E+02  0.00000000000E+00 0. -1.
</event>
<event>
 7    1  0.3141443E-011  0.5052887E+02  0.7816164E-02  0.1300439E+00
        -11   -1    0    0    0    0  0.00000000000E+00  0.00000000000E+00  0.45593999997E+02  0.45594000000E+02  0.51100000000E-03 0. -1.
         11   -1    0    0    0    0 -0.00000000000E+00 -0.00000000000E+00 -0.45593999997E+02  0.45594000000E+02  0.51100000000E-03 0.  1.
    9900012    2    1    2    0    0  0.38857459859E+02  0.11820221936E+02 -0.18829019434E+01  0.50528866302E+02  0.30000019612E+02 0.  0.
         12    1    1    2    0    0 -0.38857459859E+02 -0.11820221936E+02  0.18829019434E+01  0.40659133698E+02  0.00000000000E+00 0. -1.
         11    1    3    3    0    0  0.17539318952E+02  0.44551274811E+01  0.84619303626E+01  0.19976990161E+02  0.51100000000E-03 0. -1.
        -11    1    3    3    0    0  0.12192790622E+02 -0.51603076858E+01 -0.43577129571E+01  0.13938528654E+02  0.51100000000E-03 0.  1.
        -12    1    3    3    0    0  0.91253502849E+01  0.12525402141E+02 -0.59871193490E+01  0.16613347486E+02  0.00000000000E+00 0.  1.
</event>
<event>
 7    1  0.3141443E-011  0.5052886E+02  0.7816164E-02  0.1300439E+00
        -11   -1    0    0    0    0  0.00000000000E+00  0.00000000000E+00  0.45593999997E+02  0.45594000000E+02  0.51100000000E-03 0.  1.
         11   -1    0    0    0    0 -0.00000000000E+00 -0.00000000000E+00 -0.45593999997E+02  0.45594000000E+02  0.51100000000E-03 0. -1.
    9900012    2    1    2    0    0 -0.34239709626E+02  0.14735589350E+02  0.16237933961E+02  0.50528858247E+02  0.29999995127E+02 0.  0.
         12    1    1    2    0    0  0.34239709626E+02 -0.14735589350E+02 -0.16237933961E+02  0.40659141753E+02  0.00000000000E+00 0. -1.
         11    1    3    3    0    0  0.14509850600E+01  0.15176880252E+00 -0.30351398219E+01  0.33675607512E+01  0.51100000000E-03 0. -1.
        -11    1    3    3    0    0 -0.13713852735E+02  0.89767126336E+01 -0.14293732027E+01  0.16452788049E+02  0.51100000000E-03 0.  1.
         12    1    3    3    0    0 -0.21976841951E+02  0.56071079139E+01  0.20702446986E+02  0.30708509447E+02  0.00000000000E+00 0. -1.
</event>
<event>
 7    1  0.3141443E-011  0.5052886E+02  0.7816164E-02  0.1300439E+00
        -11   -1    0    0    0    0  0.00000000000E+00  0.00000000000E+00  0.45593999997E+02  0.45594000000E+02  0.51100000000E-03 0. -1.
         11   -1    0    0    0    0 -0.00000000000E+00 -0.00000000000E+00 -0.45593999997E+02  0.45594000000E+02  0.51100000000E-03 0.  1.
    9900012    2    1    2    0    0 -0.31732867478E+02  0.19120494156E+02  0.16751041749E+02  0.50528861116E+02  0.30000003847E+02 0.  0.
         12    1    1    2    0    0  0.31732867478E+02 -0.19120494156E+02 -0.16751041749E+02  0.40659138884E+02  0.00000000000E+00 0. -1.
         11    1    3    3    0    0 -0.42753465990E+01  0.80460928572E+01  0.14251090435E+02  0.16914838978E+02  0.51100000000E-03 0. -1.
        -11    1    3    3    0    0 -0.21338610979E+02  0.14355859603E+02  0.50647441066E+01  0.26212185269E+02  0.51100000000E-03 0.  1.
         12    1    3    3    0    0 -0.61189098998E+01 -0.32814583040E+01 -0.25647927920E+01  0.74018368685E+01  0.00000000000E+00 0. -1.
</event>
<event>
 7    1  0.3141443E-011  0.5052886E+02  0.7816164E-02  0.1300439E+00
        -11   -1    0    0    0    0  0.00000000000E+00  0.00000000000E+00  0.45593999997E+02  0.45594000000E+02  0.51100000000E-03 0.  1.
         11   -1    0    0    0    0 -0.00000000000E+00 -0.00000000000E+00 -0.45593999997E+02  0.45594000000E+02  0.51100000000E-03 0. -1.
    9900012    2    1    2    0    0  0.15703154488E+02  0.18481234058E+02  0.32634651869E+02  0.50528861104E+02  0.30000003811E+02 0.  0.
         12    1    1    2    0    0 -0.15703154488E+02 -0.18481234058E+02 -0.32634651869E+02  0.40659138896E+02  0.00000000000E+00 0. -1.
         11    1    3    3    0    0  0.18695497765E+02  0.92280958369E+01  0.19465659075E+02  0.28523521398E+02  0.51100000000E-03 0. -1.
        -11    1    3    3    0    0  0.18587171234E+01  0.17693976406E+01 -0.27480858010E+01  0.37599964343E+01  0.51100000000E-03 0.  1.
        -12    1    3    3    0    0 -0.48510604010E+01  0.74837405801E+01  0.15917078595E+02  0.18245343271E+02  0.00000000000E+00 0.  1.
</event>
<event>
 7    1  0.3141443E-011  0.5052886E+02  0.7816164E-02  0.1300439E+00
        -11   -1    0    0    0    0  0.00000000000E+00  0.00000000000E+00  0.45593999997E+02  0.45594000000E+02  0.51100000000E-03 0. -1.
         11   -1    0    0    0    0 -0.00000000000E+00 -0.00000000000E+00 -0.45593999997E+02  0.45594000000E+02  0.51100000000E-03 0.  1.
    9900012    2    1    2    0    0 -0.18278095429E+02  0.35138203390E+02  0.91860350812E+01  0.50528863874E+02  0.30000012232E+02 0.  0.
         12    1    1    2    0    0  0.18278095429E+02 -0.35138203390E+02 -0.91860350812E+01  0.40659136126E+02  0.00000000000E+00 0. -1.
         11    1    3    3    0    0  0.14900037028E+00  0.92768305848E+01 -0.68230589914E+00  0.93030816620E+01  0.51100000000E-03 0. -1.
        -11    1    3    3    0    0 -0.18779757265E+02  0.20399740006E+02  0.16779833629E+02  0.32409743784E+02  0.51100000000E-03 0.  1.
         12    1    3    3    0    0  0.35266146578E+00  0.54616327987E+01 -0.69114926485E+01  0.88160384282E+01  0.00000000000E+00 0. -1.
</event>
<event>
 7    1  0.3141443E-011  0.5052886E+02  0.7816164E-02  0.1300439E+00
        -11   -1    0    0    0    0  0.00000000000E+00  0.00000000000E+00  0.45593999997E+02  0.45594000000E+02  0.51100000000E-03 0.  1.
         11   -1    0    0    0    0 -0.00000000000E+00 -0.00000000000E+00 -0.45593999997E+02  0.45594000000E+02  0.51100000000E-03 0. -1.
    9900012    2    1    2    0    0 -0.29468764710E+02  0.19136579991E+02  0.20458470837E+02  0.50528858146E+02  0.29999994822E+02 0.  0.
         12    1    1    2    0    0  0.29468764710E+02 -0.19136579991E+02 -0.20458470837E+02  0.40659141854E+02  0.00000000000E+00 0. -1.
         11    1    3    3    0    0 -0.17606895928E+02  0.35722637474E+01  0.14281993170E+02  0.22950799151E+02  0.51100000000E-03 0. -1.
        -11    1    3    3    0    0 -0.11787713769E+02  0.16043057664E+02  0.10990112955E+02  0.22740107259E+02  0.51100000000E-03 0.  1.
         12    1    3    3    0    0 -0.74155012866E-01 -0.47874142048E+00 -0.48136352885E+01  0.48379517365E+01  0.00000000000E+00 0. -1.
</event>
<event>
 7    1  0.3141443E-011  0.5052886E+02  0.7816164E-02  0.1300439E+00
        -11   -1    0    0    0    0  0.00000000000E+00  0.00000000000E+00  0.45593999997E+02  0.45594000000E+02  0.51100000000E-03 0. -1.
         11   -1    0    0    0    0 -0.00000000000E+00 -0.00000000000E+00 -0.45593999997E+02  0.45594000000E+02  0.51100000000E-03 0.  1.
    9900012    2    1    2    0    0 -0.21941098242E+02 -0.31591190938E+02 -0.13181439828E+02  0.50528862123E+02  0.30000006909E+02 0.  0.
         12    1    1    2    0    0  0.21941098242E+02  0.31591190938E+02  0.13181439828E+02  0.40659137877E+02  0.00000000000E+00 0. -1.
         11    1    3    3    0    0  0.20584168097E-02 -0.11255915702E+02 -0.71114380074E+01  0.13314210202E+02  0.51100000000E-03 0. -1.
        -11    1    3    3    0    0 -0.16184417647E+02 -0.22448362470E+02 -0.10551786218E+02  0.29617639083E+02  0.51100000000E-03 0.  1.
         12    1    3    3    0    0 -0.57587390124E+01  0.21130872340E+01  0.44817843978E+01  0.75970128379E+01  0.00000000000E+00 0. -1.
</event>
<event>
 7    1  0.3141443E-011  0.5052895E+02  0.7816164E-02  0.1300438E+00
        -11   -1    0    0    0    0  0.00000000000E+00  0.00000000000E+00  0.45593999997E+02  0.45594000000E+02  0.51100000000E-03 0. -1.
         11   -1    0    0    0    0 -0.00000000000E+00 -0.00000000000E+00 -0.45593999997E+02  0.45594000000E+02  0.51100000000E-03 0.  1.
    9900012    2    1    2    0    0  0.17774781630E+02  0.36483628157E+02  0.24820061490E+01  0.50528950084E+02  0.30000274275E+02 0.  0.
         12    1    1    2    0    0 -0.17774781630E+02 -0.36483628157E+02 -0.24820061490E+01  0.40659049916E+02  0.00000000000E+00 0. -1.
         11    1    3    3    0    0 -0.49209888094E+00  0.84201427138E+01  0.92345384503E+01  0.12506704813E+02  0.51100000000E-03 0. -1.
        -11    1    3    3    0    0  0.18432534665E+02  0.20544797454E+02  0.45537674646E+00  0.27605332906E+02  0.51100000000E-03 0.  1.
        -12    1    3    3    0    0 -0.16565415452E+00  0.75186879900E+01 -0.72079090478E+01  0.10416912366E+02  0.00000000000E+00 0.  1.
</event>
<event>
 7    1  0.3141443E-011  0.5052883E+02  0.7816164E-02  0.1300439E+00
        -11   -1    0    0    0    0  0.00000000000E+00  0.00000000000E+00  0.45593999997E+02  0.45594000000E+02  0.51100000000E-03 0.  1.
         11   -1    0    0    0    0 -0.00000000000E+00 -0.00000000000E+00 -0.45593999997E+02  0.45594000000E+02  0.51100000000E-03 0. -1.
    9900012    2    1    2    0    0  0.12183380356E+02 -0.35200587586E+02  0.16298828319E+02  0.50528832179E+02  0.29999915892E+02 0.  0.
         12    1    1    2    0    0 -0.12183380356E+02  0.35200587586E+02 -0.16298828319E+02  0.40659167821E+02  0.00000000000E+00 0. -1.
         11    1    3    3    0    0  0.57020078338E+01 -0.24192923048E+01 -0.35078677946E+01  0.71183569255E+01  0.51100000000E-03 0. -1.
        -11    1    3    3    0    0  0.11423398252E+02 -0.19411483435E+02  0.18406732030E+02  0.29087927067E+02  0.51100000000E-03 0.  1.
         12    1    3    3    0    0 -0.49420257302E+01 -0.13369811846E+02  0.13999640836E+01  0.14322548187E+02  0.00000000000E+00 0. -1.
</event>
<event>
 7    1  0.3141443E-011  0.5052890E+02  0.7816164E-02  0.1300439E+00
        -11   -1    0    0    0    0  0.00000000000E+00  0.00000000000E+00  0.45593999997E+02  0.45594000000E+02  0.51100000000E-03 0.  1.
         11   -1    0    0    0    0 -0.00000000000E+00 -0.00000000000E+00 -0.45593999997E+02  0.45594000000E+02  0.51100000000E-03 0. -1.
    9900012    2    1    2    0    0  0.38470700041E+02 -0.83214129565E+01  0.10194218466E+02  0.50528895664E+02  0.30000108862E+02 0.  0.
         12    1    1    2    0    0 -0.38470700041E+02  0.83214129565E+01 -0.10194218466E+02  0.40659104336E+02  0.00000000000E+00 0. -1.
         11    1    3    3    0    0  0.25602324902E+01 -0.59616125813E+01 -0.22313097364E+01  0.68610755989E+01  0.51100000000E-03 0. -1.
        -11    1    3    3    0    0  0.22647336313E+02 -0.24900144278E+00 -0.34101928715E+01  0.22904000949E+02  0.51100000000E-03 0.  1.
         12    1    3    3    0    0  0.13263131238E+02 -0.21107989325E+01  0.15835721074E+02  0.20763819117E+02  0.00000000000E+00 0. -1.
</event>
<event>
 7    1  0.3141443E-011  0.5052885E+02  0.7816164E-02  0.1300439E+00
        -11   -1    0    0    0    0  0.00000000000E+00  0.00000000000E+00  0.45593999997E+02  0.45594000000E+02  0.51100000000E-03 0.  1.
         11   -1    0    0    0    0 -0.00000000000E+00 -0.00000000000E+00 -0.45593999997E+02  0.45594000000E+02  0.51100000000E-03 0. -1.
    9900012    2    1    2    0    0 -0.11365041367E+02  0.38634680721E+02 -0.56003669732E+01  0.50528845681E+02  0.29999956933E+02 0.  0.
         12    1    1    2    0    0  0.11365041367E+02 -0.38634680721E+02  0.56003669732E+01  0.40659154319E+02  0.00000000000E+00 0. -1.
         11    1    3    3    0    0  0.33805440709E+00  0.96663617564E+01 -0.65227987769E+01  0.11666179089E+02  0.51100000000E-03 0. -1.
        -11    1    3    3    0    0 -0.96154952930E+01  0.32967033094E+02  0.77798387512E+00  0.34349501887E+02  0.51100000000E-03 0.  1.
         12    1    3    3    0    0 -0.20876004808E+01 -0.39987141291E+01  0.14444792862E+00  0.45131647054E+01  0.00000000000E+00 0. -1.
</event>
<event>
 7    1  0.3141443E-011  0.5052890E+02  0.7816164E-02  0.1300439E+00
        -11   -1    0    0    0    0  0.00000000000E+00  0.00000000000E+00  0.45593999997E+02  0.45594000000E+02  0.51100000000E-03 0. -1.
         11   -1    0    0    0    0 -0.00000000000E+00 -0.00000000000E+00 -0.45593999997E+02  0.45594000000E+02  0.51100000000E-03 0.  1.
    9900012    2    1    2    0    0  0.35956948623E+02  0.18877591770E+02  0.19739790259E+01  0.50528902389E+02  0.30000129302E+02 0.  0.
         12    1    1    2    0    0 -0.35956948623E+02 -0.18877591770E+02 -0.19739790259E+01  0.40659097611E+02  0.00000000000E+00 0. -1.
         11    1    3    3    0    0 -0.21408038003E+01 -0.21772076157E+01 -0.37129927325E+01  0.48072434103E+01  0.51100000000E-03 0. -1.
        -11    1    3    3    0    0  0.60719415296E+01  0.56916090938E+01 -0.35066388481E+01  0.90310245426E+01  0.51100000000E-03 0.  1.
        -12    1    3    3    0    0  0.32025810894E+02  0.15363190292E+02  0.91936106066E+01  0.36690634436E+02  0.00000000000E+00 0.  1.
</event>
<event>
 7    1  0.3141443E-011  0.5052887E+02  0.7816164E-02  0.1300439E+00
        -11   -1    0    0    0    0  0.00000000000E+00  0.00000000000E+00  0.45593999997E+02  0.45594000000E+02  0.51100000000E-03 0.  1.
         11   -1    0    0    0    0 -0.00000000000E+00 -0.00000000000E+00 -0.45593999997E+02  0.45594000000E+02  0.51100000000E-03 0. -1.
    9900012    2    1    2    0    0 -0.34795138887E+02  0.19808604498E+01  0.20941330957E+02  0.50528870145E+02  0.30000031294E+02 0.  0.
         12    1    1    2    0    0  0.34795138887E+02 -0.19808604498E+01 -0.20941330957E+02  0.40659129855E+02  0.00000000000E+00 0. -1.
         11    1    3    3    0    0 -0.21704419687E+02 -0.84444970484E+01  0.12439057157E+02  0.26403058679E+02  0.51100000000E-03 0. -1.
        -11    1    3    3    0    0 -0.13166952609E+01 -0.28937861774E+01 -0.17245868605E+01  0.36168888497E+01  0.51100000000E-03 0.  1.
        -12    1    3    3    0    0 -0.11774023939E+02  0.13319143676E+02  0.10226860660E+02  0.20508922617E+02  0.00000000000E+00 0.  1.
</event>
<event>
 7    1  0.3141443E-011  0.5052885E+02  0.7816164E-02  0.1300439E+00
        -11   -1    0    0    0    0  0.00000000000E+00  0.00000000000E+00  0.45593999997E+02  0.45594000000E+02  0.51100000000E-03 0.  1.
         11   -1    0    0    0    0 -0.00000000000E+00 -0.00000000000E+00 -0.45593999997E+02  0.45594000000E+02  0.51100000000E-03 0. -1.
    9900012    2    1    2    0    0  0.15892949982E+02  0.37221418009E+02 -0.38918769130E+01  0.50528849448E+02  0.29999968382E+02 0.  0.
         12    1    1    2    0    0 -0.15892949982E+02 -0.37221418009E+02  0.38918769130E+01  0.40659150552E+02  0.00000000000E+00 0. -1.
         11    1    3    3    0    0 -0.11012918085E+01 -0.59096343802E+00 -0.60418063394E+01  0.61697249158E+01  0.51100000000E-03 0. -1.
        -11    1    3    3    0    0 -0.12165375880E+01  0.53670143989E+01  0.44561031981E+01  0.70810778300E+01  0.51100000000E-03 0.  1.
        -12    1    3    3    0    0  0.18210779379E+02  0.32445367048E+02 -0.23061737718E+01  0.37278046702E+02  0.00000000000E+00 0.  1.
</event>
<event>
 7    1  0.3141443E-011  0.5052886E+02  0.7816164E-02  0.1300439E+00
        -11   -1    0    0    0    0  0.00000000000E+00  0.00000000000E+00  0.45593999997E+02  0.45594000000E+02  0.51100000000E-03 0.  1.
         11   -1    0    0    0    0 -0.00000000000E+00 -0.00000000000E+00 -0.45593999997E+02  0.45594000000E+02  0.51100000000E-03 0. -1.
    9900012    2    1    2    0    0  0.21776399753E+02 -0.13832506038E+02  0.31426357449E+02  0.50528858937E+02  0.29999997224E+02 0.  0.
         12    1    1    2    0    0 -0.21776399753E+02  0.13832506038E+02 -0.31426357449E+02  0.40659141063E+02  0.00000000000E+00 0. -1.
         11    1    3    3    0    0 -0.48586112810E+01  0.20171881855E+01  0.66174071962E+01  0.84537110205E+01  0.51100000000E-03 0. -1.
        -11    1    3    3    0    0  0.16867785477E+02 -0.83940249420E+01  0.63146789736E+01  0.19871009346E+02  0.51100000000E-03 0.  1.
         12    1    3    3    0    0  0.97672255569E+01 -0.74556692816E+01  0.18494271279E+02  0.22204138570E+02  0.00000000000E+00 0. -1.
</event>
<event>
 7    1  0.3141443E-011  0.5052885E+02  0.7816164E-02  0.1300439E+00
        -11   -1    0    0    0    0  0.00000000000E+00  0.00000000000E+00  0.45593999997E+02  0.45594000000E+02  0.51100000000E-03 0.  1.
         11   -1    0    0    0    0 -0.00000000000E+00 -0.00000000000E+00 -0.45593999997E+02  0.45594000000E+02  0.51100000000E-03 0. -1.
    9900012    2    1    2    0    0 -0.22170893938E+02 -0.18777183848E+02  0.28443539278E+02  0.50528854683E+02  0.29999984294E+02 0.  0.
         12    1    1    2    0    0  0.22170893938E+02  0.18777183848E+02 -0.28443539278E+02  0.40659145317E+02  0.00000000000E+00 0. -1.
         11    1    3    3    0    0 -0.13696120140E+02 -0.13727958894E+01  0.22991107818E+01  0.13955435718E+02  0.51100000000E-03 0. -1.
        -11    1    3    3    0    0 -0.11998078167E+02 -0.18172689396E+02  0.20712205929E+02  0.30053219367E+02  0.51100000000E-03 0.  1.
         12    1    3    3    0    0  0.35233043695E+01  0.76830143742E+00  0.54322225667E+01  0.65201995977E+01  0.00000000000E+00 0. -1.
</event>
<event>
 7    1  0.3141443E-011  0.5052886E+02  0.7816164E-02  0.1300439E+00
        -11   -1    0    0    0    0  0.00000000000E+00  0.00000000000E+00  0.45593999997E+02  0.45594000000E+02  0.51100000000E-03 0. -1.
         11   -1    0    0    0    0 -0.00000000000E+00 -0.00000000000E+00 -0.45593999997E+02  0.45594000000E+02  0.51100000000E-03 0.  1.
    9900012    2    1    2    0    0 -0.28468665999E+02 -0.28210211756E+02  0.68472626290E+01  0.50528855929E+02  0.29999988083E+02 0.  0.
         12    1    1    2    0    0  0.28468665999E+02  0.28210211756E+02 -0.68472626290E+01  0.40659144071E+02  0.00000000000E+00 0. -1.
         11    1    3    3    0    0 -0.50251785847E+00  0.51982272682E+00  0.36716057141E+01  0.37421155309E+01  0.51100000000E-03 0. -1.
        -11    1    3    3    0    0 -0.27778603709E+02 -0.14413712722E+02 -0.24778856508E+01  0.31393404658E+02  0.51100000000E-03 0.  1.
         12    1    3    3    0    0 -0.18754443083E+00 -0.14316321761E+02  0.56535425657E+01  0.15393335740E+02  0.00000000000E+00 0. -1.
</event>
<event>
 7    1  0.3141443E-011  0.5052887E+02  0.7816164E-02  0.1300439E+00
        -11   -1    0    0    0    0  0.00000000000E+00  0.00000000000E+00  0.45593999997E+02  0.45594000000E+02  0.51100000000E-03 0.  1.
         11   -1    0    0    0    0 -0.00000000000E+00 -0.00000000000E+00 -0.45593999997E+02  0.45594000000E+02  0.51100000000E-03 0. -1.
    9900012    2    1    2    0    0 -0.21748476721E+02  0.12723077477E+02  0.31910692251E+02  0.50528865477E+02  0.30000017104E+02 0.  0.
         12    1    1    2    0    0  0.21748476721E+02 -0.12723077477E+02 -0.31910692251E+02  0.40659134523E+02  0.00000000000E+00 0. -1.
         11    1    3    3    0    0 -0.18483008411E+01  0.47991312675E+01  0.22883646971E+02  0.23454406321E+02  0.51100000000E-03 0. -1.
        -11    1    3    3    0    0 -0.81562358378E+01  0.71957032344E+01  0.10618903074E+02  0.15200770732E+02  0.51100000000E-03 0.  1.
         12    1    3    3    0    0 -0.11743940042E+02  0.72824297548E+00 -0.15918577943E+01  0.11873688424E+02  0.00000000000E+00 0. -1.
</event>
<event>
 7    1  0.3141443E-011  0.5052883E+02  0.7816164E-02  0.1300439E+00
        -11   -1    0    0    0    0  0.00000000000E+00  0.00000000000E+00  0.45593999997E+02  0.45594000000E+02  0.51100000000E-03 0.  1.
         11   -1    0    0    0    0 -0.00000000000E+00 -0.00000000000E+00 -0.45593999997E+02  0.45594000000E+02  0.51100000000E-03 0. -1.
    9900012    2    1    2    0    0  0.18644776413E+02 -0.31672599280E+02  0.17389280377E+02  0.50528827546E+02  0.29999901808E+02 0.  0.
         12    1    1    2    0    0 -0.18644776413E+02  0.31672599280E+02 -0.17389280377E+02  0.40659172454E+02  0.00000000000E+00 0. -1.
         11    1    3    3    0    0  0.12316032994E+02 -0.20251010098E+02  0.11016856113E+02  0.26137314277E+02  0.51100000000E-03 0. -1.
        -11    1    3    3    0    0  0.87221087182E+01 -0.12206722566E+02 -0.24635186514E+01  0.15203558159E+02  0.51100000000E-03 0.  1.
         12    1    3    3    0    0 -0.23933652995E+01  0.78513338470E+00  0.88359429156E+01  0.91879551096E+01  0.00000000000E+00 0. -1.
</event>
<event>
 7    1  0.3141443E-011  0.5052887E+02  0.7816164E-02  0.1300439E+00
        -11   -1    0    0    0    0  0.00000000000E+00  0.00000000000E+00  0.45593999997E+02  0.45594000000E+02  0.51100000000E-03 0. -1.
         11   -1    0    0    0    0 -0.00000000000E+00 -0.00000000000E+00 -0.45593999997E+02  0.45594000000E+02  0.51100000000E-03 0.  1.
    9900012    2    1    2    0    0  0.27761202793E+02 -0.27191621474E+02 -0.11962297619E+02  0.50528865440E+02  0.30000016991E+02 0.  0.
         12    1    1    2    0    0 -0.27761202793E+02  0.27191621474E+02  0.11962297619E+02  0.40659134560E+02  0.00000000000E+00 0. -1.
         11    1    3    3    0    0  0.85593253147E+01  0.16195560310E+01 -0.56226711733E+01  0.10368193814E+02  0.51100000000E-03 0. -1.
        -11    1    3    3    0    0  0.39661421257E+01 -0.53290265531E+01  0.65631245711E+01  0.93382767020E+01  0.51100000000E-03 0.  1.
         12    1    3    3    0    0  0.15235735352E+02 -0.23482150951E+02 -0.12902751017E+02  0.30822394924E+02  0.00000000000E+00 0. -1.
</event>
<event>
 7    1  0.3141443E-011  0.5052883E+02  0.7816164E-02  0.1300439E+00
        -11   -1    0    0    0    0  0.00000000000E+00  0.00000000000E+00  0.45593999997E+02  0.45594000000E+02  0.51100000000E-03 0.  1.
         11   -1    0    0    0    0 -0.00000000000E+00 -0.00000000000E+00 -0.45593999997E+02  0.45594000000E+02  0.51100000000E-03 0. -1.
    9900012    2    1    2    0    0 -0.33364342718E+01  0.20339630940E+02  0.35047622456E+02  0.50528828584E+02  0.29999904962E+02 0.  0.
         12    1    1    2    0    0  0.33364342718E+01 -0.20339630940E+02 -0.35047622456E+02  0.40659171416E+02  0.00000000000E+00 0. -1.
         11    1    3    3    0    0 -0.13827677744E+01  0.14500714560E+02  0.23533906069E+02  0.27677201893E+02  0.51100000000E-03 0. -1.
        -11    1    3    3    0    0 -0.33972168951E+01 -0.34448406060E+01  0.12500990179E+02  0.13404580006E+02  0.51100000000E-03 0.  1.
         12    1    3    3    0    0  0.14435503977E+01  0.92837569861E+01 -0.98727379145E+00  0.94470466849E+01  0.00000000000E+00 0. -1.
</event>
<event>
 7    1  0.3141443E-011  0.5052886E+02  0.7816164E-02  0.1300439E+00
        -11   -1    0    0    0    0  0.00000000000E+00  0.00000000000E+00  0.45593999997E+02  0.45594000000E+02  0.51100000000E-03 0.  1.
         11   -1    0    0    0    0 -0.00000000000E+00 -0.00000000000E+00 -0.45593999997E+02  0.45594000000E+02  0.51100000000E-03 0. -1.
    9900012    2    1    2    0    0  0.11847157804E+02  0.21879291674E+02  0.32157540664E+02  0.50528856209E+02  0.29999988934E+02 0.  0.
         12    1    1    2    0    0 -0.11847157804E+02 -0.21879291674E+02 -0.32157540664E+02  0.40659143791E+02  0.00000000000E+00 0. -1.
         11    1    3    3    0    0 -0.24349303419E+01  0.20770569103E+00  0.10420009814E+02  0.10702739472E+02  0.51100000000E-03 0. -1.
        -11    1    3    3    0    0  0.11372667042E+02  0.99620177782E+00  0.12694565597E+02  0.17072843043E+02  0.51100000000E-03 0.  1.
         12    1    3    3    0    0  0.29094211040E+01  0.20675384205E+02  0.90429652536E+01  0.22753273694E+02  0.00000000000E+00 0. -1.
</event>
<event>
 7    1  0.3141443E-011  0.5052886E+02  0.7816164E-02  0.1300439E+00
        -11   -1    0    0    0    0  0.00000000000E+00  0.00000000000E+00  0.45593999997E+02  0.45594000000E+02  0.51100000000E-03 0. -1.
         11   -1    0    0    0    0 -0.00000000000E+00 -0.00000000000E+00 -0.45593999997E+02  0.45594000000E+02  0.51100000000E-03 0.  1.
    9900012    2    1    2    0    0 -0.15126650607E+02  0.12630930139E+02 -0.35564164328E+02  0.50528859095E+02  0.29999997705E+02 0.  0.
         12    1    1    2    0    0  0.15126650607E+02 -0.12630930139E+02  0.35564164328E+02  0.40659140905E+02  0.00000000000E+00 0. -1.
         11    1    3    3    0    0 -0.12019485451E+01 -0.36146878815E+01 -0.21024121071E+01  0.43509522768E+01  0.51100000000E-03 0. -1.
        -11    1    3    3    0    0 -0.41437649132E+01  0.14155183167E+02 -0.33022268245E+02  0.36166423634E+02  0.51100000000E-03 0.  1.
         12    1    3    3    0    0 -0.97809371485E+01  0.20904348539E+01 -0.43948397601E+00  0.10011483184E+02  0.00000000000E+00 0. -1.
</event>
<event>
 7    1  0.3141443E-011  0.5052888E+02  0.7816164E-02  0.1300439E+00
        -11   -1    0    0    0    0  0.00000000000E+00  0.00000000000E+00  0.45593999997E+02  0.45594000000E+02  0.51100000000E-03 0.  1.
         11   -1    0    0    0    0 -0.00000000000E+00 -0.00000000000E+00 -0.45593999997E+02  0.45594000000E+02  0.51100000000E-03 0. -1.
    9900012    2    1    2    0    0  0.14375659403E+02 -0.37875452084E+02  0.34574881467E+01  0.50528884440E+02  0.30000074744E+02 0.  0.
         12    1    1    2    0    0 -0.14375659403E+02  0.37875452084E+02 -0.34574881467E+01  0.40659115560E+02  0.00000000000E+00 0. -1.
         11    1    3    3    0    0 -0.17684810311E+01 -0.35656972913E+01  0.37398532653E+01  0.54615222271E+01  0.51100000000E-03 0. -1.
        -11    1    3    3    0    0  0.15877889793E+02 -0.25222137515E+02  0.99111781459E+01  0.31408518870E+02  0.51100000000E-03 0.  1.
         12    1    3    3    0    0  0.26625064091E+00 -0.90876172777E+01 -0.10193543265E+02  0.13658843343E+02  0.00000000000E+00 0. -1.
</event>
<event>
 7    1  0.3141443E-011  0.5052887E+02  0.7816164E-02  0.1300439E+00
        -11   -1    0    0    0    0  0.00000000000E+00  0.00000000000E+00  0.45593999997E+02  0.45594000000E+02  0.51100000000E-03 0. -1.
         11   -1    0    0    0    0 -0.00000000000E+00 -0.00000000000E+00 -0.45593999997E+02  0.45594000000E+02  0.51100000000E-03 0.  1.
    9900012    2    1    2    0    0  0.33036578109E+02 -0.14342823452E+01 -0.23657820526E+02  0.50528866573E+02  0.30000020435E+02 0.  0.
         12    1    1    2    0    0 -0.33036578109E+02  0.14342823452E+01  0.23657820526E+02  0.40659133427E+02  0.00000000000E+00 0. -1.
         11    1    3    3    0    0 -0.12631907367E+01 -0.32906345627E+01 -0.71960191978E+01  0.80129032953E+01  0.51100000000E-03 0. -1.
        -11    1    3    3    0    0  0.15665322435E+02 -0.85239016518E+01 -0.83911123646E+01  0.19709642141E+02  0.51100000000E-03 0.  1.
         12    1    3    3    0    0  0.18634446411E+02  0.10380253869E+02 -0.80706889639E+01  0.22806321136E+02  0.00000000000E+00 0. -1.
</event>
<event>
 7    1  0.3141443E-011  0.5052886E+02  0.7816164E-02  0.1300439E+00
        -11   -1    0    0    0    0  0.00000000000E+00  0.00000000000E+00  0.45593999997E+02  0.45594000000E+02  0.51100000000E-03 0.  1.
         11   -1    0    0    0    0 -0.00000000000E+00 -0.00000000000E+00 -0.45593999997E+02  0.45594000000E+02  0.51100000000E-03 0. -1.
    9900012    2    1    2    0    0  0.15779382879E+01 -0.13317519979E+02  0.38383844365E+02  0.50528859135E+02  0.29999997828E+02 0.  0.
         12    1    1    2    0    0 -0.15779382879E+01  0.13317519979E+02 -0.38383844365E+02  0.40659140865E+02  0.00000000000E+00 0. -1.
         11    1    3    3    0    0 -0.27566329070E+01  0.36435198129E+01  0.16619318219E+02  0.17235892780E+02  0.51100000000E-03 0. -1.
        -11    1    3    3    0    0  0.63022063140E+01 -0.82004709479E+00  0.29689000798E+00  0.63622657599E+01  0.51100000000E-03 0.  1.
         12    1    3    3    0    0 -0.19676351191E+01 -0.16140992697E+02  0.21467636138E+02  0.26930700596E+02  0.00000000000E+00 0. -1.
</event>
<event>
 7    1  0.3141443E-011  0.5052885E+02  0.7816164E-02  0.1300439E+00
        -11   -1    0    0    0    0  0.00000000000E+00  0.00000000000E+00  0.45593999997E+02  0.45594000000E+02  0.51100000000E-03 0. -1.
         11   -1    0    0    0    0 -0.00000000000E+00 -0.00000000000E+00 -0.45593999997E+02  0.45594000000E+02  0.51100000000E-03 0.  1.
    9900012    2    1    2    0    0 -0.11683953131E+00  0.33289558299E+02 -0.23344329824E+02  0.50528854926E+02  0.29999985032E+02 0.  0.
         12    1    1    2    0    0  0.11683953131E+00 -0.33289558299E+02  0.23344329824E+02  0.40659145074E+02  0.00000000000E+00 0. -1.
         11    1    3    3    0    0 -0.41828443281E+01  0.14764949279E+02 -0.60928119677E+01  0.16511277110E+02  0.51100000000E-03 0.  1.
        -11    1    3    3    0    0 -0.74690823548E+01  0.14830526697E+02 -0.13307050656E+02  0.21279316501E+02  0.51100000000E-03 0. -1.
         12    1    3    3    0    0  0.11535087152E+02  0.36940823235E+01 -0.39444672007E+01  0.12738261314E+02  0.00000000000E+00 0. -1.
</event>
<event>
 7    1  0.3141443E-011  0.5052885E+02  0.7816164E-02  0.1300439E+00
        -11   -1    0    0    0    0  0.00000000000E+00  0.00000000000E+00  0.45593999997E+02  0.45594000000E+02  0.51100000000E-03 0.  1.
         11   -1    0    0    0    0 -0.00000000000E+00 -0.00000000000E+00 -0.45593999997E+02  0.45594000000E+02  0.51100000000E-03 0. -1.
    9900012    2    1    2    0    0 -0.19781531511E+02 -0.18791441255E+02  0.30145299844E+02  0.50528851508E+02  0.29999974645E+02 0.  0.
         12    1    1    2    0    0  0.19781531511E+02  0.18791441255E+02 -0.30145299844E+02  0.40659148492E+02  0.00000000000E+00 0. -1.
         11    1    3    3    0    0  0.17501803518E+01  0.23133607995E+01  0.23131941563E+01  0.37102071261E+01  0.51100000000E-03 0. -1.
        -11    1    3    3    0    0  0.13581467216E+01 -0.13325509603E+02  0.11378683885E+02  0.17575215957E+02  0.51100000000E-03 0.  1.
        -12    1    3    3    0    0 -0.22889858584E+02 -0.77792924515E+01  0.16453421803E+02  0.29243428425E+02  0.00000000000E+00 0.  1.
</event>
<event>
 7    1  0.3141443E-011  0.5052889E+02  0.7816164E-02  0.1300439E+00
        -11   -1    0    0    0    0  0.00000000000E+00  0.00000000000E+00  0.45593999997E+02  0.45594000000E+02  0.51100000000E-03 0.  1.
         11   -1    0    0    0    0 -0.00000000000E+00 -0.00000000000E+00 -0.45593999997E+02  0.45594000000E+02  0.51100000000E-03 0. -1.
    9900012    2    1    2    0    0  0.89628645088E+01  0.11627428911E+02  0.37916130773E+02  0.50528892581E+02  0.30000099490E+02 0.  0.
         12    1    1    2    0    0 -0.89628645088E+01 -0.11627428911E+02 -0.37916130773E+02  0.40659107419E+02  0.00000000000E+00 0. -1.
         11    1    3    3    0    0 -0.24742537274E+01  0.55532064421E+00  0.45371079838E+01  0.51976592465E+01  0.51100000000E-03 0. -1.
        -11    1    3    3    0    0  0.10108973051E+02  0.31432683976E+01  0.35476890509E+02  0.37022712391E+02  0.51100000000E-03 0.  1.
         12    1    3    3    0    0  0.13281451853E+01  0.79288398692E+01 -0.20978677194E+01  0.83085209437E+01  0.00000000000E+00 0. -1.
</event>
<event>
 7    1  0.3141443E-011  0.5052887E+02  0.7816164E-02  0.1300439E+00
        -11   -1    0    0    0    0  0.00000000000E+00  0.00000000000E+00  0.45593999997E+02  0.45594000000E+02  0.51100000000E-03 0.  1.
         11   -1    0    0    0    0 -0.00000000000E+00 -0.00000000000E+00 -0.45593999997E+02  0.45594000000E+02  0.51100000000E-03 0. -1.
    9900012    2    1    2    0    0 -0.17793952885E+02 -0.35204063342E+02  0.98597337030E+01  0.50528865925E+02  0.30000018465E+02 0.  0.
         12    1    1    2    0    0  0.17793952885E+02  0.35204063342E+02 -0.98597337030E+01  0.40659134075E+02  0.00000000000E+00 0. -1.
         11    1    3    3    0    0  0.18277859349E+01 -0.55670092091E+01 -0.45182563199E+01  0.73991238259E+01  0.51100000000E-03 0.  1.
        -11    1    3    3    0    0 -0.28419441961E+01  0.85903444877E+00  0.69229035745E+01  0.75326742370E+01  0.51100000000E-03 0. -1.
        -12    1    3    3    0    0 -0.16779794624E+02 -0.30496088581E+02  0.74550864484E+01  0.35597067862E+02  0.00000000000E+00 0.  1.
</event>
<event>
 7    1  0.3377843E-011  0.5052886E+02  0.7816164E-02  0.1300439E+00
        -11   -1    0    0    0    0  0.00000000000E+00  0.00000000000E+00  0.45593999997E+02  0.45594000000E+02  0.51100000000E-03 0. -1.
         11   -1    0    0    0    0 -0.00000000000E+00 -0.00000000000E+00 -0.45593999997E+02  0.45594000000E+02  0.51100000000E-03 0.  1.
    9900012    2    1    2    0    0  0.95896963749E+00  0.12897352435E+02 -0.38547430476E+02  0.50528859344E+02  0.29999998462E+02 0.  0.
         12    1    1    2    0    0 -0.95896963749E+00 -0.12897352435E+02  0.38547430476E+02  0.40659140656E+02  0.00000000000E+00 0. -1.
         11    1    3    3    0    0  0.46871837399E+01 -0.16958758887E+01  0.11056961356E+01  0.51057076539E+01  0.51100000000E-03 0. -1.
        -11    1    3    3    0    0  0.25146363926E+01  0.97765388264E+01 -0.82260046195E+01  0.13021952998E+02  0.51100000000E-03 0.  1.
        -12    1    3    3    0    0 -0.62428504950E+01  0.48166894969E+01 -0.31427121992E+02  0.32401198693E+02  0.00000000000E+00 0.  1.
</event>
<event>
 7    1  0.3141443E-011  0.5052885E+02  0.7816164E-02  0.1300439E+00
        -11   -1    0    0    0    0  0.00000000000E+00  0.00000000000E+00  0.45593999997E+02  0.45594000000E+02  0.51100000000E-03 0. -1.
         11   -1    0    0    0    0 -0.00000000000E+00 -0.00000000000E+00 -0.45593999997E+02  0.45594000000E+02  0.51100000000E-03 0.  1.
    9900012    2    1    2    0    0 -0.99394860169E+01  0.26915826002E+02 -0.28808178653E+02  0.50528853071E+02  0.29999979396E+02 0.  0.
         12    1    1    2    0    0  0.99394860169E+01 -0.26915826002E+02  0.28808178653E+02  0.40659146929E+02  0.00000000000E+00 0. -1.
         11    1    3    3    0    0 -0.24769523871E+01 -0.19048686184E+01 -0.36498450686E+01  0.48047046597E+01  0.51100000000E-03 0. -1.
        -11    1    3    3    0    0 -0.44260127216E+01  0.13418768830E+02 -0.26434545916E+02  0.29973958089E+02  0.51100000000E-03 0.  1.
         12    1    3    3    0    0 -0.30365209082E+01  0.15401925790E+02  0.12762123307E+01  0.15750190322E+02  0.00000000000E+00 0. -1.
</event>
<event>
 7    1  0.3141443E-011  0.5052886E+02  0.7816164E-02  0.1300439E+00
        -11   -1    0    0    0    0  0.00000000000E+00  0.00000000000E+00  0.45593999997E+02  0.45594000000E+02  0.51100000000E-03 0.  1.
         11   -1    0    0    0    0 -0.00000000000E+00 -0.00000000000E+00 -0.45593999997E+02  0.45594000000E+02  0.51100000000E-03 0. -1.
    9900012    2    1    2    0    0 -0.35561754391E+02 -0.82423821850E+01  0.17905032287E+02  0.50528863012E+02  0.30000009611E+02 0.  0.
         12    1    1    2    0    0  0.35561754391E+02  0.82423821850E+01 -0.17905032287E+02  0.40659136988E+02  0.00000000000E+00 0. -1.
         11    1    3    3    0    0 -0.13537398815E+02 -0.56297456352E+01 -0.29022643973E+01  0.14945846965E+02  0.51100000000E-03 0. -1.
        -11    1    3    3    0    0 -0.14852977385E+02 -0.99874317388E+01  0.16785723325E+02  0.24538138433E+02  0.51100000000E-03 0.  1.
         12    1    3    3    0    0 -0.71713781905E+01  0.73747951890E+01  0.40215733591E+01  0.11044877614E+02  0.00000000000E+00 0. -1.
</event>
<event>
 7    1  0.3141443E-011  0.5052885E+02  0.7816164E-02  0.1300439E+00
        -11   -1    0    0    0    0  0.00000000000E+00  0.00000000000E+00  0.45593999997E+02  0.45594000000E+02  0.51100000000E-03 0.  1.
         11   -1    0    0    0    0 -0.00000000000E+00 -0.00000000000E+00 -0.45593999997E+02  0.45594000000E+02  0.51100000000E-03 0. -1.
    9900012    2    1    2    0    0  0.20784031690E+02  0.79945829477E+00  0.34936388853E+02  0.50528851301E+02  0.29999974013E+02 0.  0.
         12    1    1    2    0    0 -0.20784031690E+02 -0.79945829477E+00 -0.34936388853E+02  0.40659148699E+02  0.00000000000E+00 0. -1.
         11    1    3    3    0    0 -0.29308138824E+01  0.11421141129E+01  0.16026407484E+01  0.35302340276E+01  0.51100000000E-03 0. -1.
        -11    1    3    3    0    0  0.69190117445E+01  0.69865775838E+01  0.25006050146E+02  0.26869825716E+02  0.51100000000E-03 0.  1.
         12    1    3    3    0    0  0.16795833828E+02 -0.73292334019E+01  0.83276979587E+01  0.20128791557E+02  0.00000000000E+00 0. -1.
</event>
<event>
 7    1  0.3141443E-011  0.5052886E+02  0.7816164E-02  0.1300439E+00
        -11   -1    0    0    0    0  0.00000000000E+00  0.00000000000E+00  0.45593999997E+02  0.45594000000E+02  0.51100000000E-03 0.  1.
         11   -1    0    0    0    0 -0.00000000000E+00 -0.00000000000E+00 -0.45593999997E+02  0.45594000000E+02  0.51100000000E-03 0. -1.
    9900012    2    1    2    0    0  0.18570455561E+02 -0.35892630137E+02 -0.44747236807E+01  0.50528857487E+02  0.29999992818E+02 0.  0.
         12    1    1    2    0    0 -0.18570455561E+02  0.35892630137E+02  0.44747236807E+01  0.40659142513E+02  0.00000000000E+00 0. -1.
         11    1    3    3    0    0  0.88840528137E+00  0.33870813387E+01  0.47295844054E+00  0.35334507053E+01  0.51100000000E-03 0. -1.
        -11    1    3    3    0    0  0.20694089799E+02 -0.26724994762E+02 -0.29224939458E+01  0.33926562879E+02  0.51100000000E-03 0.  1.
        -12    1    3    3    0    0 -0.30120395197E+01 -0.12554716713E+02 -0.20251881754E+01  0.13068843903E+02  0.00000000000E+00 0.  1.
</event>
<event>
 7    1  0.3141443E-011  0.5052887E+02  0.7816164E-02  0.1300439E+00
        -11   -1    0    0    0    0  0.00000000000E+00  0.00000000000E+00  0.45593999997E+02  0.45594000000E+02  0.51100000000E-03 0.  1.
         11   -1    0    0    0    0 -0.00000000000E+00 -0.00000000000E+00 -0.45593999997E+02  0.45594000000E+02  0.51100000000E-03 0. -1.
    9900012    2    1    2    0    0  0.84659730815E+01  0.24736238092E+02  0.31138575256E+02  0.50528867642E+02  0.30000023683E+02 0.  0.
         12    1    1    2    0    0 -0.84659730815E+01 -0.24736238092E+02 -0.31138575256E+02  0.40659132358E+02  0.00000000000E+00 0. -1.
         11    1    3    3    0    0 -0.35700468869E+01  0.81645910703E+01  0.11286411001E+02  0.14380154925E+02  0.51100000000E-03 0. -1.
        -11    1    3    3    0    0  0.14708059969E+02  0.17648789216E+02  0.22557231661E+02  0.32196824212E+02  0.51100000000E-03 0.  1.
         12    1    3    3    0    0 -0.26720400009E+01 -0.10771421951E+01 -0.27050674065E+01  0.39518885041E+01  0.00000000000E+00 0. -1.
</event>
<event>
 7    1  0.3141443E-011  0.5052885E+02  0.7816164E-02  0.1300439E+00
        -11   -1    0    0    0    0  0.00000000000E+00  0.00000000000E+00  0.45593999997E+02  0.45594000000E+02  0.51100000000E-03 0. -1.
         11   -1    0    0    0    0 -0.00000000000E+00 -0.00000000000E+00 -0.45593999997E+02  0.45594000000E+02  0.51100000000E-03 0.  1.
    9900012    2    1    2    0    0  0.37291418838E+02  0.12927461304E+02 -0.97671693195E+01  0.50528846403E+02  0.29999959126E+02 0.  0.
         12    1    1    2    0    0 -0.37291418838E+02 -0.12927461304E+02  0.97671693195E+01  0.40659153597E+02  0.00000000000E+00 0. -1.
         11    1    3    3    0    0  0.11603116123E+01 -0.41229883743E+01  0.67681255163E+00  0.43362923867E+01  0.51100000000E-03 0. -1.
        -11    1    3    3    0    0  0.11621056591E+02  0.62738086563E+01 -0.13926270478E+02  0.19192463131E+02  0.51100000000E-03 0.  1.
         12    1    3    3    0    0  0.24510050635E+02  0.10776641022E+02  0.34822886072E+01  0.27000090885E+02  0.00000000000E+00 0. -1.
</event>
<event>
 7    1  0.3141443E-011  0.5052886E+02  0.7816164E-02  0.1300439E+00
        -11   -1    0    0    0    0  0.00000000000E+00  0.00000000000E+00  0.45593999997E+02  0.45594000000E+02  0.51100000000E-03 0.  1.
         11   -1    0    0    0    0 -0.00000000000E+00 -0.00000000000E+00 -0.45593999997E+02  0.45594000000E+02  0.51100000000E-03 0. -1.
    9900012    2    1    2    0    0 -0.31830547506E+02  0.14020988321E+02  0.21056917324E+02  0.50528860373E+02  0.30000001590E+02 0.  0.
         12    1    1    2    0    0  0.31830547506E+02 -0.14020988321E+02 -0.21056917324E+02  0.40659139627E+02  0.00000000000E+00 0. -1.
         11    1    3    3    0    0 -0.22328380942E+02  0.14126496741E+02  0.98860465213E+01  0.28210785557E+02  0.51100000000E-03 0. -1.
        -11    1    3    3    0    0 -0.13404593076E+02 -0.28725271962E+01  0.10921861318E+02  0.17527737530E+02  0.51100000000E-03 0.  1.
        -12    1    3    3    0    0  0.39024265122E+01  0.27670187760E+01  0.24900948542E+00  0.47903372860E+01  0.00000000000E+00 0.  1.
</event>
<event>
 7    1  0.3141443E-011  0.5052887E+02  0.7816164E-02  0.1300439E+00
        -11   -1    0    0    0    0  0.00000000000E+00  0.00000000000E+00  0.45593999997E+02  0.45594000000E+02  0.51100000000E-03 0. -1.
         11   -1    0    0    0    0 -0.00000000000E+00 -0.00000000000E+00 -0.45593999997E+02  0.45594000000E+02  0.51100000000E-03 0.  1.
    9900012    2    1    2    0    0 -0.81753771317E+01 -0.64962921509E+01 -0.39295368203E+02  0.50528873532E+02  0.30000041588E+02 0.  0.
         12    1    1    2    0    0  0.81753771317E+01  0.64962921509E+01  0.39295368203E+02  0.40659126468E+02  0.00000000000E+00 0. -1.
         11    1    3    3    0    0 -0.50471466124E+01  0.50490729238E+01 -0.45456997730E+00  0.71535627797E+01  0.51100000000E-03 0. -1.
        -11    1    3    3    0    0 -0.83334537686E+01 -0.24537339953E+01 -0.14994439671E+02  0.17329180117E+02  0.51100000000E-03 0.  1.
        -12    1    3    3    0    0  0.52052232493E+01 -0.90916310795E+01 -0.23846358555E+02  0.26046130635E+02  0.00000000000E+00 0.  1.
</event>
<event>
 7    1  0.3141443E-011  0.5052885E+02  0.7816164E-02  0.1300439E+00
        -11   -1    0    0    0    0  0.00000000000E+00  0.00000000000E+00  0.45593999997E+02  0.45594000000E+02  0.51100000000E-03 0. -1.
         11   -1    0    0    0    0 -0.00000000000E+00 -0.00000000000E+00 -0.45593999997E+02  0.45594000000E+02  0.51100000000E-03 0.  1.
    9900012    2    1    2    0    0 -0.12222816675E+02 -0.38393459762E+02 -0.54507878812E+01  0.50528854799E+02  0.29999984647E+02 0.  0.
         12    1    1    2    0    0  0.12222816675E+02  0.38393459762E+02  0.54507878812E+01  0.40659145201E+02  0.00000000000E+00 0. -1.
         11    1    3    3    0    0  0.20800479349E+01 -0.11172183761E+02 -0.72357853347E+01  0.13472226210E+02  0.51100000000E-03 0. -1.
        -11    1    3    3    0    0  0.10476548130E+01  0.46782574317E+00  0.50968181768E+01  0.52243657339E+01  0.51100000000E-03 0.  1.
        -12    1    3    3    0    0 -0.15350519423E+02 -0.27689101744E+02 -0.33118207233E+01  0.31832262855E+02  0.00000000000E+00 0.  1.
</event>
<event>
 7    1  0.3141443E-011  0.5052889E+02  0.7816164E-02  0.1300439E+00
        -11   -1    0    0    0    0  0.00000000000E+00  0.00000000000E+00  0.45593999997E+02  0.45594000000E+02  0.51100000000E-03 0. -1.
         11   -1    0    0    0    0 -0.00000000000E+00 -0.00000000000E+00 -0.45593999997E+02  0.45594000000E+02  0.51100000000E-03 0.  1.
    9900012    2    1    2    0    0  0.46552135536E+01  0.40102166145E+02  0.48278950353E+01  0.50528888927E+02  0.30000088382E+02 0.  0.
         12    1    1    2    0    0 -0.46552135536E+01 -0.40102166145E+02 -0.48278950353E+01  0.40659111073E+02  0.00000000000E+00 0. -1.
         11    1    3    3    0    0 -0.11176895704E+01 -0.18230702198E+01  0.25623942517E+01  0.33374660394E+01  0.51100000000E-03 0. -1.
        -11    1    3    3    0    0 -0.11231513041E+01  0.20520694399E+02 -0.85240022617E+01  0.22249022052E+02  0.51100000000E-03 0.  1.
         12    1    3    3    0    0  0.68960544281E+01  0.21404541966E+02  0.10789503045E+02  0.24942400835E+02  0.00000000000E+00 0. -1.
</event>
<event>
 7    1  0.3141443E-011  0.5052896E+02  0.7816164E-02  0.1300438E+00
        -11   -1    0    0    0    0  0.00000000000E+00  0.00000000000E+00  0.45593999997E+02  0.45594000000E+02  0.51100000000E-03 0.  1.
         11   -1    0    0    0    0 -0.00000000000E+00 -0.00000000000E+00 -0.45593999997E+02  0.45594000000E+02  0.51100000000E-03 0. -1.
    9900012    2    1    2    0    0  0.21361135014E+02 -0.32587772157E+02  0.11614509507E+02  0.50528956549E+02  0.30000293926E+02 0.  0.
         12    1    1    2    0    0 -0.21361135014E+02  0.32587772157E+02 -0.11614509507E+02  0.40659043451E+02  0.00000000000E+00 0. -1.
         11    1    3    3    0    0 -0.29490478560E+01 -0.72737387878E+01 -0.40662232210E+00  0.78593575554E+01  0.51100000000E-03 0. -1.
        -11    1    3    3    0    0  0.72279434423E+01 -0.10218362871E+01 -0.46091307091E+01  0.86331571258E+01  0.51100000000E-03 0.  1.
        -12    1    3    3    0    0  0.17082239428E+02 -0.24292197082E+02  0.16630262539E+02  0.34036441868E+02  0.00000000000E+00 0.  1.
</event>
<event>
 7    1  0.3141443E-011  0.5052887E+02  0.7816164E-02  0.1300439E+00
        -11   -1    0    0    0    0  0.00000000000E+00  0.00000000000E+00  0.45593999997E+02  0.45594000000E+02  0.51100000000E-03 0.  1.
         11   -1    0    0    0    0 -0.00000000000E+00 -0.00000000000E+00 -0.45593999997E+02  0.45594000000E+02  0.51100000000E-03 0. -1.
    9900012    2    1    2    0    0 -0.43607796295E+01 -0.12085596973E+02  0.38575730593E+02  0.50528867644E+02  0.30000023689E+02 0.  0.
         12    1    1    2    0    0  0.43607796295E+01  0.12085596973E+02 -0.38575730593E+02  0.40659132356E+02  0.00000000000E+00 0. -1.
         11    1    3    3    0    0 -0.64842771651E+01 -0.93148576466E+01  0.29502706578E+02  0.31610474830E+02  0.51100000000E-03 0. -1.
        -11    1    3    3    0    0  0.57408873013E+01 -0.72504273384E+01  0.93537579760E+01  0.13153679034E+02  0.51100000000E-03 0.  1.
         12    1    3    3    0    0 -0.36173897657E+01  0.44796880115E+01 -0.28073396069E+00  0.57647137790E+01  0.00000000000E+00 0. -1.
</event>
<event>
 7    1  0.3141443E-011  0.5052886E+02  0.7816164E-02  0.1300439E+00
        -11   -1    0    0    0    0  0.00000000000E+00  0.00000000000E+00  0.45593999997E+02  0.45594000000E+02  0.51100000000E-03 0.  1.
         11   -1    0    0    0    0 -0.00000000000E+00 -0.00000000000E+00 -0.45593999997E+02  0.45594000000E+02  0.51100000000E-03 0. -1.
    9900012    2    1    2    0    0  0.83894242503E+01  0.34574835883E+02  0.19681566462E+02  0.50528858666E+02  0.29999996402E+02 0.  0.
         12    1    1    2    0    0 -0.83894242503E+01 -0.34574835883E+02 -0.19681566462E+02  0.40659141334E+02  0.00000000000E+00 0. -1.
         11    1    3    3    0    0  0.71262701416E+01  0.73775677011E+01  0.12184750834E+02  0.15927347063E+02  0.51100000000E-03 0. -1.
        -11    1    3    3    0    0 -0.71155115448E+01  0.71175834078E+01  0.79712720012E+01  0.12838678892E+02  0.51100000000E-03 0.  1.
         12    1    3    3    0    0  0.83786656535E+01  0.20079684774E+02 -0.47445637362E+00  0.21762832711E+02  0.00000000000E+00 0. -1.
</event>
<event>
 7    1  0.3141443E-011  0.5052886E+02  0.7816164E-02  0.1300439E+00
        -11   -1    0    0    0    0  0.00000000000E+00  0.00000000000E+00  0.45593999997E+02  0.45594000000E+02  0.51100000000E-03 0. -1.
         11   -1    0    0    0    0 -0.00000000000E+00 -0.00000000000E+00 -0.45593999997E+02  0.45594000000E+02  0.51100000000E-03 0.  1.
    9900012    2    1    2    0    0  0.29905086625E+02  0.23819919450E+02 -0.13837024169E+02  0.50528855807E+02  0.29999987711E+02 0.  0.
         12    1    1    2    0    0 -0.29905086625E+02 -0.23819919450E+02  0.13837024169E+02  0.40659144193E+02  0.00000000000E+00 0. -1.
         11    1    3    3    0    0  0.16487424518E+02  0.23461982713E+02 -0.10872964083E+01  0.28696376319E+02  0.51100000000E-03 0. -1.
        -11    1    3    3    0    0  0.93518609135E+01  0.46773702070E+01 -0.38615404733E+01  0.11146595430E+02  0.51100000000E-03 0.  1.
         12    1    3    3    0    0  0.40658011930E+01 -0.43194334702E+01 -0.88881872877E+01  0.10685884058E+02  0.00000000000E+00 0. -1.
</event>
<event>
 7    1  0.3141443E-011  0.5052886E+02  0.7816164E-02  0.1300439E+00
        -11   -1    0    0    0    0  0.00000000000E+00  0.00000000000E+00  0.45593999997E+02  0.45594000000E+02  0.51100000000E-03 0. -1.
         11   -1    0    0    0    0 -0.00000000000E+00 -0.00000000000E+00 -0.45593999997E+02  0.45594000000E+02  0.51100000000E-03 0.  1.
    9900012    2    1    2    0    0 -0.33721958704E+02  0.22021331553E+02  0.55728261069E+01  0.50528856710E+02  0.29999990457E+02 0.  0.
         12    1    1    2    0    0  0.33721958704E+02 -0.22021331553E+02 -0.55728261069E+01  0.40659143290E+02  0.00000000000E+00 0. -1.
         11    1    3    3    0    0 -0.28416369641E+02  0.11625366437E+02  0.84809894626E+00  0.30714141376E+02  0.51100000000E-03 0.  1.
        -11    1    3    3    0    0 -0.95977573841E+01  0.28140138043E+01  0.21476654105E+00  0.10004086436E+02  0.51100000000E-03 0. -1.
         12    1    3    3    0    0  0.42921683209E+01  0.75819513117E+01  0.45099606196E+01  0.98106288982E+01  0.00000000000E+00 0. -1.
</event>
<event>
 7    1  0.3141443E-011  0.5052887E+02  0.7816164E-02  0.1300439E+00
        -11   -1    0    0    0    0  0.00000000000E+00  0.00000000000E+00  0.45593999997E+02  0.45594000000E+02  0.51100000000E-03 0.  1.
         11   -1    0    0    0    0 -0.00000000000E+00 -0.00000000000E+00 -0.45593999997E+02  0.45594000000E+02  0.51100000000E-03 0. -1.
    9900012    2    1    2    0    0 -0.56058530613E+01  0.39535364619E+02  0.76612308589E+01  0.50528866925E+02  0.30000021505E+02 0.  0.
         12    1    1    2    0    0  0.56058530613E+01 -0.39535364619E+02 -0.76612308589E+01  0.40659133075E+02  0.00000000000E+00 0. -1.
         11    1    3    3    0    0 -0.15087032817E+02  0.29619465048E+02  0.66796862940E+01  0.33905006683E+02  0.51100000000E-03 0.  1.
        -11    1    3    3    0    0  0.83157771133E+01  0.11614357310E+02 -0.12629890970E+00  0.14285005999E+02  0.51100000000E-03 0. -1.
        -12    1    3    3    0    0  0.11654026424E+01 -0.16984577379E+01  0.11078434747E+01  0.23388542431E+01  0.00000000000E+00 0.  1.
</event>
<event>
 7    1  0.3141443E-011  0.5052886E+02  0.7816164E-02  0.1300439E+00
        -11   -1    0    0    0    0  0.00000000000E+00  0.00000000000E+00  0.45593999997E+02  0.45594000000E+02  0.51100000000E-03 0.  1.
         11   -1    0    0    0    0 -0.00000000000E+00 -0.00000000000E+00 -0.45593999997E+02  0.45594000000E+02  0.51100000000E-03 0. -1.
    9900012    2    1    2    0    0  0.24209835701E+02 -0.19588350105E+02  0.26140888635E+02  0.50528860029E+02  0.30000000545E+02 0.  0.
         12    1    1    2    0    0 -0.24209835701E+02  0.19588350105E+02 -0.26140888635E+02  0.40659139971E+02  0.00000000000E+00 0. -1.
         11    1    3    3    0    0 -0.35958211850E+01 -0.13115273536E+01 -0.32311783332E+01  0.50090465835E+01  0.51100000000E-03 0. -1.
        -11    1    3    3    0    0  0.54202689331E+01 -0.30801940674E+00  0.82702770948E+01  0.98930114095E+01  0.51100000000E-03 0.  1.
        -12    1    3    3    0    0  0.22385387953E+02 -0.17968803345E+02  0.21101789873E+02  0.35626802036E+02  0.00000000000E+00 0.  1.
</event>
<event>
 7    1  0.3141443E-011  0.5052886E+02  0.7816164E-02  0.1300439E+00
        -11   -1    0    0    0    0  0.00000000000E+00  0.00000000000E+00  0.45593999997E+02  0.45594000000E+02  0.51100000000E-03 0.  1.
         11   -1    0    0    0    0 -0.00000000000E+00 -0.00000000000E+00 -0.45593999997E+02  0.45594000000E+02  0.51100000000E-03 0. -1.
    9900012    2    1    2    0    0 -0.18695423352E+02 -0.35252804608E+02  0.78029929732E+01  0.50528858514E+02  0.29999995938E+02 0.  0.
         12    1    1    2    0    0  0.18695423352E+02  0.35252804608E+02 -0.78029929732E+01  0.40659141486E+02  0.00000000000E+00 0. -1.
         11    1    3    3    0    0 -0.18045727988E+01 -0.17486769628E+01  0.44899483917E+01  0.51452882258E+01  0.51100000000E-03 0. -1.
        -11    1    3    3    0    0 -0.92013206199E+01 -0.33311747290E+02  0.91240931738E+01  0.35743333437E+02  0.51100000000E-03 0.  1.
        -12    1    3    3    0    0 -0.76895299337E+01 -0.19238035536E+00 -0.58110485923E+01  0.96402368510E+01  0.00000000000E+00 0.  1.
</event>
<event>
 7    1  0.3141443E-011  0.5052886E+02  0.7816164E-02  0.1300439E+00
        -11   -1    0    0    0    0  0.00000000000E+00  0.00000000000E+00  0.45593999997E+02  0.45594000000E+02  0.51100000000E-03 0.  1.
         11   -1    0    0    0    0 -0.00000000000E+00 -0.00000000000E+00 -0.45593999997E+02  0.45594000000E+02  0.51100000000E-03 0. -1.
    9900012    2    1    2    0    0 -0.24075121760E+01 -0.39824242783E+02  0.78357885669E+01  0.50528855757E+02  0.29999987558E+02 0.  0.
         12    1    1    2    0    0  0.24075121760E+01  0.39824242783E+02 -0.78357885669E+01  0.40659144243E+02  0.00000000000E+00 0. -1.
         11    1    3    3    0    0 -0.37425686196E+01 -0.10976810108E+02 -0.12029944164E+01  0.11659518680E+02  0.51100000000E-03 0. -1.
        -11    1    3    3    0    0 -0.43658678954E+01 -0.26537777307E+02 -0.12041181015E+01  0.26921447352E+02  0.51100000000E-03 0.  1.
        -12    1    3    3    0    0  0.57009243389E+01 -0.23096553685E+01  0.10242901085E+02  0.11947889725E+02  0.00000000000E+00 0.  1.
</event>
<event>
 7    1  0.3141443E-011  0.5052886E+02  0.7816164E-02  0.1300439E+00
        -11   -1    0    0    0    0  0.00000000000E+00  0.00000000000E+00  0.45593999997E+02  0.45594000000E+02  0.51100000000E-03 0. -1.
         11   -1    0    0    0    0 -0.00000000000E+00 -0.00000000000E+00 -0.45593999997E+02  0.45594000000E+02  0.51100000000E-03 0.  1.
    9900012    2    1    2    0    0 -0.21602916116E+02  0.28439381896E+02  0.19434030501E+02  0.50528856270E+02  0.29999989118E+02 0.  0.
         12    1    1    2    0    0  0.21602916116E+02 -0.28439381896E+02 -0.19434030501E+02  0.40659143730E+02  0.00000000000E+00 0. -1.
         11    1    3    3    0    0  0.23763716005E+01  0.21686132480E+01  0.24885224570E+01  0.40672803792E+01  0.51100000000E-03 0. -1.
        -11    1    3    3    0    0 -0.18133225028E+02  0.30665971031E+02  0.16112773006E+02  0.39100346334E+02  0.51100000000E-03 0.  1.
         12    1    3    3    0    0 -0.58460626883E+01 -0.43952023831E+01  0.83273503765E+00  0.73612295568E+01  0.00000000000E+00 0. -1.
</event>
<event>
 7    1  0.3141443E-011  0.5052889E+02  0.7816164E-02  0.1300439E+00
        -11   -1    0    0    0    0  0.00000000000E+00  0.00000000000E+00  0.45593999997E+02  0.45594000000E+02  0.51100000000E-03 0.  1.
         11   -1    0    0    0    0 -0.00000000000E+00 -0.00000000000E+00 -0.45593999997E+02  0.45594000000E+02  0.51100000000E-03 0. -1.
    9900012    2    1    2    0    0 -0.98832856397E+01  0.28112176640E+02 -0.27662063989E+02  0.50528885467E+02  0.30000077867E+02 0.  0.
         12    1    1    2    0    0  0.98832856397E+01 -0.28112176640E+02  0.27662063989E+02  0.40659114533E+02  0.00000000000E+00 0. -1.
         11    1    3    3    0    0 -0.88005094093E+01  0.63376320840E+00 -0.12079526402E+02  0.14958796075E+02  0.51100000000E-03 0. -1.
        -11    1    3    3    0    0 -0.81805279600E+01  0.14611901574E+02 -0.50501953886E+01  0.17490945630E+02  0.51100000000E-03 0.  1.
        -12    1    3    3    0    0  0.70977517296E+01  0.12866511857E+02 -0.10532342198E+02  0.18079143762E+02  0.00000000000E+00 0.  1.
</event>
<event>
 7    1  0.3141443E-011  0.5052886E+02  0.7816164E-02  0.1300439E+00
        -11   -1    0    0    0    0  0.00000000000E+00  0.00000000000E+00  0.45593999997E+02  0.45594000000E+02  0.51100000000E-03 0. -1.
         11   -1    0    0    0    0 -0.00000000000E+00 -0.00000000000E+00 -0.45593999997E+02  0.45594000000E+02  0.51100000000E-03 0.  1.
    9900012    2    1    2    0    0  0.25367983203E+02  0.64687721443E+01 -0.31109260854E+02  0.50528859629E+02  0.29999999327E+02 0.  0.
         12    1    1    2    0    0 -0.25367983203E+02 -0.64687721443E+01  0.31109260854E+02  0.40659140371E+02  0.00000000000E+00 0. -1.
         11    1    3    3    0    0  0.40895096428E+01  0.14779069405E+01 -0.85683223365E+01  0.96085610768E+01  0.51100000000E-03 0. -1.
        -11    1    3    3    0    0 -0.48311067098E+01  0.63031354356E+01 -0.41831283381E+01  0.89759496052E+01  0.51100000000E-03 0.  1.
         12    1    3    3    0    0  0.26109580270E+02 -0.13122702318E+01 -0.18357810179E+02  0.31944348947E+02  0.00000000000E+00 0. -1.
</event>
<event>
 7    1  0.3141443E-011  0.5052886E+02  0.7816164E-02  0.1300439E+00
        -11   -1    0    0    0    0  0.00000000000E+00  0.00000000000E+00  0.45593999997E+02  0.45594000000E+02  0.51100000000E-03 0.  1.
         11   -1    0    0    0    0 -0.00000000000E+00 -0.00000000000E+00 -0.45593999997E+02  0.45594000000E+02  0.51100000000E-03 0. -1.
    9900012    2    1    2    0    0 -0.37531008245E+02  0.15230671314E+02  0.35518558865E+01  0.50528860698E+02  0.30000002577E+02 0.  0.
         12    1    1    2    0    0  0.37531008245E+02 -0.15230671314E+02 -0.35518558865E+01  0.40659139302E+02  0.00000000000E+00 0. -1.
         11    1    3    3    0    0 -0.17994789311E+02  0.48241812806E+01 -0.44910037041E+01  0.19163879615E+02  0.51100000000E-03 0. -1.
        -11    1    3    3    0    0 -0.20092334037E+02  0.22969568202E+01  0.10614168987E+02  0.22839406324E+02  0.51100000000E-03 0.  1.
         12    1    3    3    0    0  0.55611510375E+00  0.81095332131E+01 -0.25713093966E+01  0.85255747581E+01  0.00000000000E+00 0. -1.
</event>
<event>
 7    1  0.3141443E-011  0.5052886E+02  0.7816164E-02  0.1300439E+00
        -11   -1    0    0    0    0  0.00000000000E+00  0.00000000000E+00  0.45593999997E+02  0.45594000000E+02  0.51100000000E-03 0. -1.
         11   -1    0    0    0    0 -0.00000000000E+00 -0.00000000000E+00 -0.45593999997E+02  0.45594000000E+02  0.51100000000E-03 0.  1.
    9900012    2    1    2    0    0  0.39891487923E+01 -0.35994106608E+02 -0.18484500988E+02  0.50528858403E+02  0.29999995603E+02 0.  0.
         12    1    1    2    0    0 -0.39891487923E+01  0.35994106608E+02  0.18484500988E+02  0.40659141597E+02  0.00000000000E+00 0. -1.
         11    1    3    3    0    0  0.92185932110E+01 -0.65423045291E+01 -0.10174674670E+02  0.15208820278E+02  0.51100000000E-03 0. -1.
        -11    1    3    3    0    0 -0.24266184062E+01 -0.49511410734E+01 -0.91076589370E+01  0.10646676777E+02  0.51100000000E-03 0.  1.
        -12    1    3    3    0    0 -0.28028260125E+01 -0.24500661005E+02  0.79783261853E+00  0.24673361349E+02  0.00000000000E+00 0.  1.
</event>
<event>
 7    1  0.3141443E-011  0.5052886E+02  0.7816164E-02  0.1300439E+00
        -11   -1    0    0    0    0  0.00000000000E+00  0.00000000000E+00  0.45593999997E+02  0.45594000000E+02  0.51100000000E-03 0.  1.
         11   -1    0    0    0    0 -0.00000000000E+00 -0.00000000000E+00 -0.45593999997E+02  0.45594000000E+02  0.51100000000E-03 0. -1.
    9900012    2    1    2    0    0 -0.63596177139E+00 -0.22821930408E+02  0.33644024789E+02  0.50528863771E+02  0.30000011919E+02 0.  0.
         12    1    1    2    0    0  0.63596177139E+00  0.22821930408E+02 -0.33644024789E+02  0.40659136229E+02  0.00000000000E+00 0. -1.
         11    1    3    3    0    0  0.17885972685E+01 -0.85666037384E+01  0.15773095465E+02  0.18038190614E+02  0.51100000000E-03 0. -1.
        -11    1    3    3    0    0 -0.91458032462E+01 -0.50216632280E+00  0.13950849999E+02  0.16689041434E+02  0.51100000000E-03 0.  1.
         12    1    3    3    0    0  0.67212442063E+01 -0.13753160347E+02  0.39200793238E+01  0.15801631723E+02  0.00000000000E+00 0. -1.
</event>
<event>
 7    1  0.3141443E-011  0.5052887E+02  0.7816164E-02  0.1300439E+00
        -11   -1    0    0    0    0  0.00000000000E+00  0.00000000000E+00  0.45593999997E+02  0.45594000000E+02  0.51100000000E-03 0. -1.
         11   -1    0    0    0    0 -0.00000000000E+00 -0.00000000000E+00 -0.45593999997E+02  0.45594000000E+02  0.51100000000E-03 0.  1.
    9900012    2    1    2    0    0 -0.34273298305E+02 -0.18280289315E+02 -0.12014032958E+02  0.50528868897E+02  0.30000027499E+02 0.  0.
         12    1    1    2    0    0  0.34273298305E+02  0.18280289315E+02  0.12014032958E+02  0.40659131103E+02  0.00000000000E+00 0. -1.
         11    1    3    3    0    0 -0.24791800919E+02 -0.19720589468E+02 -0.64245231266E+01  0.32323513724E+02  0.51100000000E-03 0. -1.
        -11    1    3    3    0    0 -0.11035342845E+02 -0.79197727991E+00  0.96817649362E+00  0.11106006739E+02  0.51100000000E-03 0.  1.
         12    1    3    3    0    0  0.15538454586E+01  0.22322774333E+01 -0.65576863248E+01  0.70993484337E+01  0.00000000000E+00 0. -1.
</event>
<event>
 7    1  0.3141443E-011  0.5052886E+02  0.7816164E-02  0.1300439E+00
        -11   -1    0    0    0    0  0.00000000000E+00  0.00000000000E+00  0.45593999997E+02  0.45594000000E+02  0.51100000000E-03 0.  1.
         11   -1    0    0    0    0 -0.00000000000E+00 -0.00000000000E+00 -0.45593999997E+02  0.45594000000E+02  0.51100000000E-03 0. -1.
    9900012    2    1    2    0    0 -0.33284000120E+02 -0.22821654022E+02 -0.49510312205E+01  0.50528864908E+02  0.30000015374E+02 0.  0.
         12    1    1    2    0    0  0.33284000120E+02  0.22821654022E+02  0.49510312205E+01  0.40659135092E+02  0.00000000000E+00 0. -1.
         11    1    3    3    0    0 -0.15339314774E+02 -0.35150340718E+01 -0.47057613488E+00  0.15743934846E+02  0.51100000000E-03 0. -1.
        -11    1    3    3    0    0 -0.12989519747E+02 -0.14894453737E+02  0.74607538720E+01  0.21124280438E+02  0.51100000000E-03 0.  1.
        -12    1    3    3    0    0 -0.49551655986E+01 -0.44121662125E+01 -0.11941208958E+02  0.13660649625E+02  0.00000000000E+00 0.  1.
</event>
<event>
 7    1  0.3141443E-011  0.5052886E+02  0.7816164E-02  0.1300439E+00
        -11   -1    0    0    0    0  0.00000000000E+00  0.00000000000E+00  0.45593999997E+02  0.45594000000E+02  0.51100000000E-03 0. -1.
         11   -1    0    0    0    0 -0.00000000000E+00 -0.00000000000E+00 -0.45593999997E+02  0.45594000000E+02  0.51100000000E-03 0.  1.
    9900012    2    1    2    0    0 -0.32733091019E+02  0.95197746204E+01 -0.22160430760E+02  0.50528855297E+02  0.29999986162E+02 0.  0.
         12    1    1    2    0    0  0.32733091019E+02 -0.95197746204E+01  0.22160430760E+02  0.40659144703E+02  0.00000000000E+00 0. -1.
         11    1    3    3    0    0 -0.29300466760E+02  0.15086132507E+01 -0.18227927648E+02  0.34540564744E+02  0.51100000000E-03 0. -1.
        -11    1    3    3    0    0 -0.66300721821E+01  0.98863213637E+00  0.10759116740E+01  0.67891705556E+01  0.51100000000E-03 0.  1.
         12    1    3    3    0    0  0.31974479229E+01  0.70225292334E+01 -0.50084147865E+01  0.91991199974E+01  0.00000000000E+00 0. -1.
</event>
<event>
 7    1  0.3141443E-011  0.5052886E+02  0.7816164E-02  0.1300439E+00
        -11   -1    0    0    0    0  0.00000000000E+00  0.00000000000E+00  0.45593999997E+02  0.45594000000E+02  0.51100000000E-03 0.  1.
         11   -1    0    0    0    0 -0.00000000000E+00 -0.00000000000E+00 -0.45593999997E+02  0.45594000000E+02  0.51100000000E-03 0. -1.
    9900012    2    1    2    0    0 -0.11363947429E+02  0.35343346507E+02  0.16579339194E+02  0.50528856729E+02  0.29999990512E+02 0.  0.
         12    1    1    2    0    0  0.11363947429E+02 -0.35343346507E+02 -0.16579339194E+02  0.40659143271E+02  0.00000000000E+00 0. -1.
         11    1    3    3    0    0 -0.11232830693E+02  0.52532765593E+01 -0.47726870894E-01  0.12400632166E+02  0.51100000000E-03 0.  1.
        -11    1    3    3    0    0  0.57749852863E+01  0.91432382411E+01  0.12374655471E+00  0.10815016138E+02  0.51100000000E-03 0. -1.
        -12    1    3    3    0    0 -0.59061020220E+01  0.20946831706E+02  0.16503319510E+02  0.27313208425E+02  0.00000000000E+00 0.  1.
</event>
<event>
 7    1  0.3141443E-011  0.5052884E+02  0.7816164E-02  0.1300439E+00
        -11   -1    0    0    0    0  0.00000000000E+00  0.00000000000E+00  0.45593999997E+02  0.45594000000E+02  0.51100000000E-03 0. -1.
         11   -1    0    0    0    0 -0.00000000000E+00 -0.00000000000E+00 -0.45593999997E+02  0.45594000000E+02  0.51100000000E-03 0.  1.
    9900012    2    1    2    0    0 -0.30566795966E+02  0.25893288050E+02 -0.69552815830E+01  0.50528839611E+02  0.29999938482E+02 0.  0.
         12    1    1    2    0    0  0.30566795966E+02 -0.25893288050E+02  0.69552815830E+01  0.40659160389E+02  0.00000000000E+00 0. -1.
         11    1    3    3    0    0  0.16728724271E+01  0.50036036535E+01 -0.64425850825E+01  0.83271516430E+01  0.51100000000E-03 0. -1.
        -11    1    3    3    0    0 -0.59518607561E+01  0.13226651663E+02  0.22623530994E+01  0.14679482365E+02  0.51100000000E-03 0.  1.
         12    1    3    3    0    0 -0.26287807637E+02  0.76630327328E+01 -0.27750495998E+01  0.27522205604E+02  0.00000000000E+00 0. -1.
</event>
<event>
 7    1  0.3141443E-011  0.5052885E+02  0.7816164E-02  0.1300439E+00
        -11   -1    0    0    0    0  0.00000000000E+00  0.00000000000E+00  0.45593999997E+02  0.45594000000E+02  0.51100000000E-03 0.  1.
         11   -1    0    0    0    0 -0.00000000000E+00 -0.00000000000E+00 -0.45593999997E+02  0.45594000000E+02  0.51100000000E-03 0. -1.
    9900012    2    1    2    0    0 -0.28066547660E+02 -0.20308854593E+02  0.21283471250E+02  0.50528845792E+02  0.29999957270E+02 0.  0.
         12    1    1    2    0    0  0.28066547660E+02  0.20308854593E+02 -0.21283471250E+02  0.40659154208E+02  0.00000000000E+00 0. -1.
         11    1    3    3    0    0  0.19748505895E+01 -0.52187393313E+01  0.39584303483E+01  0.68413775033E+01  0.51100000000E-03 0. -1.
        -11    1    3    3    0    0 -0.13948118809E+02 -0.18590449638E+02  0.70981613665E+01  0.24301002677E+02  0.51100000000E-03 0.  1.
        -12    1    3    3    0    0 -0.16093279440E+02  0.35003343760E+01  0.10226879536E+02  0.19386465612E+02  0.00000000000E+00 0.  1.
</event>
<event>
 7    1  0.3141443E-011  0.5052885E+02  0.7816164E-02  0.1300439E+00
        -11   -1    0    0    0    0  0.00000000000E+00  0.00000000000E+00  0.45593999997E+02  0.45594000000E+02  0.51100000000E-03 0.  1.
         11   -1    0    0    0    0 -0.00000000000E+00 -0.00000000000E+00 -0.45593999997E+02  0.45594000000E+02  0.51100000000E-03 0. -1.
    9900012    2    1    2    0    0  0.11051680644E+02  0.40567948741E+01  0.38917463969E+02  0.50528853041E+02  0.29999979303E+02 0.  0.
         12    1    1    2    0    0 -0.11051680644E+02 -0.40567948741E+01 -0.38917463969E+02  0.40659146959E+02  0.00000000000E+00 0. -1.
         11    1    3    3    0    0  0.45438082843E+01 -0.61518288935E+01  0.13801930374E+01  0.77714944213E+01  0.51100000000E-03 0. -1.
        -11    1    3    3    0    0 -0.38816195389E+01  0.25828410358E+01  0.22236510179E+01  0.51655263208E+01  0.51100000000E-03 0.  1.
        -12    1    3    3    0    0  0.10389491898E+02  0.76257827318E+01  0.35313619913E+02  0.37591832299E+02  0.00000000000E+00 0.  1.
</event>
<event>
 7    1  0.3141443E-011  0.5052888E+02  0.7816164E-02  0.1300439E+00
        -11   -1    0    0    0    0  0.00000000000E+00  0.00000000000E+00  0.45593999997E+02  0.45594000000E+02  0.51100000000E-03 0.  1.
         11   -1    0    0    0    0 -0.00000000000E+00 -0.00000000000E+00 -0.45593999997E+02  0.45594000000E+02  0.51100000000E-03 0. -1.
    9900012    2    1    2    0    0  0.33213281403E+02  0.70304896709E+01 -0.22374406246E+02  0.50528881694E+02  0.30000066398E+02 0.  0.
         12    1    1    2    0    0 -0.33213281403E+02 -0.70304896709E+01  0.22374406246E+02  0.40659118306E+02  0.00000000000E+00 0. -1.
         11    1    3    3    0    0 -0.19495269821E+01 -0.31684136641E+01 -0.31954607580E+01  0.49041278855E+01  0.51100000000E-03 0. -1.
        -11    1    3    3    0    0  0.21336843273E+02 -0.26664027943E+01 -0.15177483811E+02  0.26319699842E+02  0.51100000000E-03 0.  1.
         12    1    3    3    0    0  0.13825965112E+02  0.12865306129E+02 -0.40014616771E+01  0.19305053966E+02  0.00000000000E+00 0. -1.
</event>
<event>
 7    1  0.3141443E-011  0.5052886E+02  0.7816164E-02  0.1300439E+00
        -11   -1    0    0    0    0  0.00000000000E+00  0.00000000000E+00  0.45593999997E+02  0.45594000000E+02  0.51100000000E-03 0.  1.
         11   -1    0    0    0    0 -0.00000000000E+00 -0.00000000000E+00 -0.45593999997E+02  0.45594000000E+02  0.51100000000E-03 0. -1.
    9900012    2    1    2    0    0  0.21084921977E+02 -0.14413101357E+02  0.31636286732E+02  0.50528855103E+02  0.29999985572E+02 0.  0.
         12    1    1    2    0    0 -0.21084921977E+02  0.14413101357E+02 -0.31636286732E+02  0.40659144897E+02  0.00000000000E+00 0. -1.
         11    1    3    3    0    0  0.16958608006E+02 -0.33284823767E+01  0.20516855607E+02  0.26825632233E+02  0.51100000000E-03 0. -1.
        -11    1    3    3    0    0  0.64784144713E+01 -0.14688738714E+02  0.10878929689E+02  0.19392782433E+02  0.51100000000E-03 0.  1.
         12    1    3    3    0    0 -0.23521005004E+01  0.36041197340E+01  0.24050143704E+00  0.43104404371E+01  0.00000000000E+00 0. -1.
</event>
<event>
 7    1  0.3141443E-011  0.5052886E+02  0.7816164E-02  0.1300439E+00
        -11   -1    0    0    0    0  0.00000000000E+00  0.00000000000E+00  0.45593999997E+02  0.45594000000E+02  0.51100000000E-03 0. -1.
         11   -1    0    0    0    0 -0.00000000000E+00 -0.00000000000E+00 -0.45593999997E+02  0.45594000000E+02  0.51100000000E-03 0.  1.
    9900012    2    1    2    0    0 -0.28122598783E+02 -0.28776005400E+02 -0.58503480832E+01  0.50528860538E+02  0.30000002091E+02 0.  0.
         12    1    1    2    0    0  0.28122598783E+02  0.28776005400E+02  0.58503480832E+01  0.40659139462E+02  0.00000000000E+00 0. -1.
         11    1    3    3    0    0  0.10271655438E+01 -0.14957589953E+01 -0.17845524761E+01  0.25449934828E+01  0.51100000000E-03 0.  1.
        -11    1    3    3    0    0 -0.29177747309E+02 -0.22768150544E+02  0.54914162558E+01  0.37415040692E+02  0.51100000000E-03 0. -1.
         12    1    3    3    0    0  0.27982982133E-01 -0.45120958601E+01 -0.95572118628E+01  0.10568826363E+02  0.00000000000E+00 0. -1.
</event>
<event>
 7    1  0.3141443E-011  0.5052883E+02  0.7816164E-02  0.1300439E+00
        -11   -1    0    0    0    0  0.00000000000E+00  0.00000000000E+00  0.45593999997E+02  0.45594000000E+02  0.51100000000E-03 0.  1.
         11   -1    0    0    0    0 -0.00000000000E+00 -0.00000000000E+00 -0.45593999997E+02  0.45594000000E+02  0.51100000000E-03 0. -1.
    9900012    2    1    2    0    0  0.25439692485E+02 -0.14168194542E+02  0.28376962968E+02  0.50528834765E+02  0.29999923752E+02 0.  0.
         12    1    1    2    0    0 -0.25439692485E+02  0.14168194542E+02 -0.28376962968E+02  0.40659165235E+02  0.00000000000E+00 0. -1.
         11    1    3    3    0    0  0.65917023975E-01  0.85019894934E+00 -0.41558493376E+01  0.42424364798E+01  0.51100000000E-03 0. -1.
        -11    1    3    3    0    0  0.10713768508E+02 -0.50910250969E+01  0.36532632742E+01  0.12411676156E+02  0.51100000000E-03 0.  1.
        -12    1    3    3    0    0  0.14660006953E+02 -0.99273683949E+01  0.28879549031E+02  0.33874722129E+02  0.00000000000E+00 0.  1.
</event>
<event>
 7    1  0.3141443E-011  0.5052886E+02  0.7816164E-02  0.1300439E+00
        -11   -1    0    0    0    0  0.00000000000E+00  0.00000000000E+00  0.45593999997E+02  0.45594000000E+02  0.51100000000E-03 0.  1.
         11   -1    0    0    0    0 -0.00000000000E+00 -0.00000000000E+00 -0.45593999997E+02  0.45594000000E+02  0.51100000000E-03 0. -1.
    9900012    2    1    2    0    0 -0.13799643089E+02 -0.24832062545E+02  0.29087872834E+02  0.50528858031E+02  0.29999994471E+02 0.  0.
         12    1    1    2    0    0  0.13799643089E+02  0.24832062545E+02 -0.29087872834E+02  0.40659141969E+02  0.00000000000E+00 0. -1.
         11    1    3    3    0    0 -0.16197285509E+02 -0.19154600552E+02  0.27374122853E+02  0.37129413979E+02  0.51100000000E-03 0. -1.
        -11    1    3    3    0    0  0.12082715266E+00 -0.90558595420E+01  0.21314184968E+01  0.93040924498E+01  0.51100000000E-03 0.  1.
         12    1    3    3    0    0  0.22768152670E+01  0.33783975485E+01 -0.41766851587E+00  0.40953516022E+01  0.00000000000E+00 0. -1.
</event>
<event>
 7    1  0.3141443E-011  0.5052886E+02  0.7816164E-02  0.1300439E+00
        -11   -1    0    0    0    0  0.00000000000E+00  0.00000000000E+00  0.45593999997E+02  0.45594000000E+02  0.51100000000E-03 0.  1.
         11   -1    0    0    0    0 -0.00000000000E+00 -0.00000000000E+00 -0.45593999997E+02  0.45594000000E+02  0.51100000000E-03 0. -1.
    9900012    2    1    2    0    0 -0.32879372697E+02  0.35349279424E+01  0.23656221261E+02  0.50528859959E+02  0.30000000333E+02 0.  0.
         12    1    1    2    0    0  0.32879372697E+02 -0.35349279424E+01 -0.23656221261E+02  0.40659140041E+02  0.00000000000E+00 0. -1.
         11    1    3    3    0    0 -0.56836601152E+01 -0.41873648319E+01  0.52013160047E+01  0.87687915350E+01  0.51100000000E-03 0. -1.
        -11    1    3    3    0    0 -0.14784499198E+02  0.42148181608E+01  0.23357141578E+02  0.27962513685E+02  0.51100000000E-03 0.  1.
         12    1    3    3    0    0 -0.12411213384E+02  0.35074746135E+01 -0.49022363217E+01  0.13797554739E+02  0.00000000000E+00 0. -1.
</event>
<event>
 7    1  0.3141443E-011  0.5052886E+02  0.7816164E-02  0.1300439E+00
        -11   -1    0    0    0    0  0.00000000000E+00  0.00000000000E+00  0.45593999997E+02  0.45594000000E+02  0.51100000000E-03 0.  1.
         11   -1    0    0    0    0 -0.00000000000E+00 -0.00000000000E+00 -0.45593999997E+02  0.45594000000E+02  0.51100000000E-03 0. -1.
    9900012    2    1    2    0    0 -0.33494145571E+01  0.12502981534E+02  0.38543776097E+02  0.50528858335E+02  0.29999995395E+02 0.  0.
         12    1    1    2    0    0  0.33494145571E+01 -0.12502981534E+02 -0.38543776097E+02  0.40659141665E+02  0.00000000000E+00 0. -1.
         11    1    3    3    0    0  0.12973505437E+00 -0.15076434562E+01 -0.13333282033E+00  0.15190779695E+01  0.51100000000E-03 0. -1.
        -11    1    3    3    0    0  0.10599150798E+02  0.84951487336E+01  0.25765949054E+02  0.29127198296E+02  0.51100000000E-03 0.  1.
        -12    1    3    3    0    0 -0.14078300409E+02  0.55154762564E+01  0.12911159863E+02  0.19882582070E+02  0.00000000000E+00 0.  1.
</event>
<event>
 7    1  0.3141443E-011  0.5052886E+02  0.7816164E-02  0.1300439E+00
        -11   -1    0    0    0    0  0.00000000000E+00  0.00000000000E+00  0.45593999997E+02  0.45594000000E+02  0.51100000000E-03 0.  1.
         11   -1    0    0    0    0 -0.00000000000E+00 -0.00000000000E+00 -0.45593999997E+02  0.45594000000E+02  0.51100000000E-03 0. -1.
    9900012    2    1    2    0    0  0.13698871457E+02  0.20122770454E+02  0.32566557198E+02  0.50528860589E+02  0.30000002246E+02 0.  0.
         12    1    1    2    0    0 -0.13698871457E+02 -0.20122770454E+02 -0.32566557198E+02  0.40659139411E+02  0.00000000000E+00 0. -1.
         11    1    3    3    0    0  0.54870510721E+01 -0.21342507089E+01  0.84625582602E+01  0.10309105108E+02  0.51100000000E-03 0.  1.
        -11    1    3    3    0    0  0.87260688879E+00  0.16956317442E+02  0.29810775432E+01  0.17238473469E+02  0.51100000000E-03 0. -1.
         12    1    3    3    0    0  0.73392134960E+01  0.53007037207E+01  0.21122921394E+02  0.22981282012E+02  0.00000000000E+00 0. -1.
</event>
<event>
 7    1  0.3141443E-011  0.5052886E+02  0.7816164E-02  0.1300439E+00
        -11   -1    0    0    0    0  0.00000000000E+00  0.00000000000E+00  0.45593999997E+02  0.45594000000E+02  0.51100000000E-03 0. -1.
         11   -1    0    0    0    0 -0.00000000000E+00 -0.00000000000E+00 -0.45593999997E+02  0.45594000000E+02  0.51100000000E-03 0.  1.
    9900012    2    1    2    0    0 -0.22794573257E+02 -0.33648306941E+02 -0.11680414977E+01  0.50528862640E+02  0.30000008479E+02 0.  0.
         12    1    1    2    0    0  0.22794573257E+02  0.33648306941E+02  0.11680414977E+01  0.40659137360E+02  0.00000000000E+00 0. -1.
         11    1    3    3    0    0 -0.14276441578E+01 -0.18372492844E+01  0.25680637261E+01  0.34653433216E+01  0.51100000000E-03 0. -1.
        -11    1    3    3    0    0 -0.18066119229E+02 -0.12845699123E+02 -0.13001934047E+02  0.25699162227E+02  0.51100000000E-03 0.  1.
        -12    1    3    3    0    0 -0.33008098695E+01 -0.18965358534E+02  0.92658288234E+01  0.21364357091E+02  0.00000000000E+00 0.  1.
</event>
<event>
 7    1  0.3141443E-011  0.5052886E+02  0.7816164E-02  0.1300439E+00
        -11   -1    0    0    0    0  0.00000000000E+00  0.00000000000E+00  0.45593999997E+02  0.45594000000E+02  0.51100000000E-03 0.  1.
         11   -1    0    0    0    0 -0.00000000000E+00 -0.00000000000E+00 -0.45593999997E+02  0.45594000000E+02  0.51100000000E-03 0. -1.
    9900012    2    1    2    0    0  0.17878465302E+02  0.19810959447E+02  0.30676566381E+02  0.50528863749E+02  0.30000011851E+02 0.  0.
         12    1    1    2    0    0 -0.17878465302E+02 -0.19810959447E+02 -0.30676566381E+02  0.40659136251E+02  0.00000000000E+00 0. -1.
         11    1    3    3    0    0 -0.19068524606E+01  0.18645117813E+01 -0.32367184240E+01  0.41939047326E+01  0.51100000000E-03 0. -1.
        -11    1    3    3    0    0  0.19520366088E+01  0.12316287377E+02  0.17263160372E+02  0.21295964124E+02  0.51100000000E-03 0.  1.
         12    1    3    3    0    0  0.17833281154E+02  0.56301602883E+01  0.16650124434E+02  0.25038994892E+02  0.00000000000E+00 0. -1.
</event>
<event>
 7    1  0.3141443E-011  0.5052886E+02  0.7816164E-02  0.1300439E+00
        -11   -1    0    0    0    0  0.00000000000E+00  0.00000000000E+00  0.45593999997E+02  0.45594000000E+02  0.51100000000E-03 0.  1.
         11   -1    0    0    0    0 -0.00000000000E+00 -0.00000000000E+00 -0.45593999997E+02  0.45594000000E+02  0.51100000000E-03 0. -1.
    9900012    2    1    2    0    0 -0.32980078476E+02  0.21294961865E+02  0.10583229682E+02  0.50528859237E+02  0.29999998136E+02 0.  0.
         12    1    1    2    0    0  0.32980078476E+02 -0.21294961865E+02 -0.10583229682E+02  0.40659140763E+02  0.00000000000E+00 0. -1.
         11    1    3    3    0    0 -0.19781973850E+02  0.11040984320E+02  0.93409482374E+01  0.24504757464E+02  0.51100000000E-03 0. -1.
        -11    1    3    3    0    0 -0.12790985050E+02 -0.21114955173E+01 -0.22738453103E+01  0.13161993945E+02  0.51100000000E-03 0.  1.
         12    1    3    3    0    0 -0.40711957625E+00  0.12365473062E+02  0.35161267549E+01  0.12862107827E+02  0.00000000000E+00 0. -1.
</event>
<event>
 7    1  0.3141443E-011  0.5052886E+02  0.7816164E-02  0.1300439E+00
        -11   -1    0    0    0    0  0.00000000000E+00  0.00000000000E+00  0.45593999997E+02  0.45594000000E+02  0.51100000000E-03 0.  1.
         11   -1    0    0    0    0 -0.00000000000E+00 -0.00000000000E+00 -0.45593999997E+02  0.45594000000E+02  0.51100000000E-03 0. -1.
    9900012    2    1    2    0    0  0.73190194504E+01  0.94400538590E+01  0.38864935812E+02  0.50528857139E+02  0.29999991758E+02 0.  0.
         12    1    1    2    0    0 -0.73190194504E+01 -0.94400538590E+01 -0.38864935812E+02  0.40659142861E+02  0.00000000000E+00 0. -1.
         11    1    3    3    0    0 -0.38259896888E+01  0.58480357740E+01  0.10476433168E+02  0.12593386029E+02  0.51100000000E-03 0. -1.
        -11    1    3    3    0    0  0.11145876009E+02  0.18107563145E+01  0.31986239818E+02  0.33920921692E+02  0.51100000000E-03 0.  1.
         12    1    3    3    0    0 -0.86687023753E-03  0.17812617705E+01 -0.35977371743E+01  0.40145494171E+01  0.00000000000E+00 0. -1.
</event>
<event>
 7    1  0.3141443E-011  0.5052885E+02  0.7816164E-02  0.1300439E+00
        -11   -1    0    0    0    0  0.00000000000E+00  0.00000000000E+00  0.45593999997E+02  0.45594000000E+02  0.51100000000E-03 0.  1.
         11   -1    0    0    0    0 -0.00000000000E+00 -0.00000000000E+00 -0.45593999997E+02  0.45594000000E+02  0.51100000000E-03 0. -1.
    9900012    2    1    2    0    0 -0.26559713820E+02 -0.88164957288E+01  0.29496056084E+02  0.50528851956E+02  0.29999976005E+02 0.  0.
         12    1    1    2    0    0  0.26559713820E+02  0.88164957288E+01 -0.29496056084E+02  0.40659148044E+02  0.00000000000E+00 0. -1.
         11    1    3    3    0    0  0.28883107395E+01 -0.26875301138E+00  0.59996372248E+01  0.66640989037E+01  0.51100000000E-03 0. -1.
        -11    1    3    3    0    0 -0.23567079599E+02 -0.72865655290E+01  0.27264249942E+02  0.36767385047E+02  0.51100000000E-03 0.  1.
         12    1    3    3    0    0 -0.58809449604E+01 -0.12611771885E+01 -0.37678310825E+01  0.70973680047E+01  0.00000000000E+00 0. -1.
</event>
<event>
 7    1  0.3141443E-011  0.5052883E+02  0.7816164E-02  0.1300439E+00
        -11   -1    0    0    0    0  0.00000000000E+00  0.00000000000E+00  0.45593999997E+02  0.45594000000E+02  0.51100000000E-03 0. -1.
         11   -1    0    0    0    0 -0.00000000000E+00 -0.00000000000E+00 -0.45593999997E+02  0.45594000000E+02  0.51100000000E-03 0.  1.
    9900012    2    1    2    0    0 -0.74655357598E+01 -0.22418650246E+02 -0.33088332625E+02  0.50528833027E+02  0.29999918470E+02 0.  0.
         12    1    1    2    0    0  0.74655357598E+01  0.22418650246E+02  0.33088332625E+02  0.40659166973E+02  0.00000000000E+00 0. -1.
         11    1    3    3    0    0 -0.59292949405E+01 -0.27229549689E+01 -0.26298225275E+01  0.70346989304E+01  0.51100000000E-03 0. -1.
        -11    1    3    3    0    0  0.55922880773E+01 -0.43591836791E+01  0.15812236267E+01  0.72647392731E+01  0.51100000000E-03 0.  1.
         12    1    3    3    0    0 -0.71285288966E+01 -0.15336511598E+02 -0.32039733724E+02  0.36229394824E+02  0.00000000000E+00 0. -1.
</event>
<event>
 7    1  0.3141443E-011  0.5052886E+02  0.7816164E-02  0.1300439E+00
        -11   -1    0    0    0    0  0.00000000000E+00  0.00000000000E+00  0.45593999997E+02  0.45594000000E+02  0.51100000000E-03 0.  1.
         11   -1    0    0    0    0 -0.00000000000E+00 -0.00000000000E+00 -0.45593999997E+02  0.45594000000E+02  0.51100000000E-03 0. -1.
    9900012    2    1    2    0    0  0.82528066697E+01  0.15473224688E+02  0.36682912760E+02  0.50528860945E+02  0.30000003328E+02 0.  0.
         12    1    1    2    0    0 -0.82528066697E+01 -0.15473224688E+02 -0.36682912760E+02  0.40659139055E+02  0.00000000000E+00 0. -1.
         11    1    3    3    0    0  0.32443524599E+01  0.71558172928E+01 -0.98862323981E+00  0.79188963993E+01  0.51100000000E-03 0. -1.
        -11    1    3    3    0    0  0.70747813384E+01  0.39262619431E+01  0.48539989930E+01  0.94355376274E+01  0.51100000000E-03 0.  1.
         12    1    3    3    0    0 -0.20663271286E+01  0.43911454519E+01  0.32817537006E+02  0.33174426918E+02  0.00000000000E+00 0. -1.
</event>
<event>
 7    1  0.3141443E-011  0.5052885E+02  0.7816164E-02  0.1300439E+00
        -11   -1    0    0    0    0  0.00000000000E+00  0.00000000000E+00  0.45593999997E+02  0.45594000000E+02  0.51100000000E-03 0.  1.
         11   -1    0    0    0    0 -0.00000000000E+00 -0.00000000000E+00 -0.45593999997E+02  0.45594000000E+02  0.51100000000E-03 0. -1.
    9900012    2    1    2    0    0  0.34146313966E+02 -0.96375151131E+01  0.19857331926E+02  0.50528854827E+02  0.29999984732E+02 0.  0.
         12    1    1    2    0    0 -0.34146313966E+02  0.96375151131E+01 -0.19857331926E+02  0.40659145173E+02  0.00000000000E+00 0. -1.
         11    1    3    3    0    0  0.13066831967E+02 -0.54631379354E+01 -0.29327747800E+01  0.14463372426E+02  0.51100000000E-03 0. -1.
        -11    1    3    3    0    0  0.21105470999E+02 -0.62875668724E+01  0.12017906083E+02  0.25087934753E+02  0.51100000000E-03 0.  1.
         12    1    3    3    0    0 -0.25989000764E-01  0.21131896947E+01  0.10772200623E+02  0.10977547648E+02  0.00000000000E+00 0. -1.
</event>
<event>
 7    1  0.3141443E-011  0.5052886E+02  0.7816164E-02  0.1300439E+00
        -11   -1    0    0    0    0  0.00000000000E+00  0.00000000000E+00  0.45593999997E+02  0.45594000000E+02  0.51100000000E-03 0. -1.
         11   -1    0    0    0    0 -0.00000000000E+00 -0.00000000000E+00 -0.45593999997E+02  0.45594000000E+02  0.51100000000E-03 0.  1.
    9900012    2    1    2    0    0  0.35600642331E+02  0.10412797625E+02 -0.16653334440E+02  0.50528860354E+02  0.30000001533E+02 0.  0.
         12    1    1    2    0    0 -0.35600642331E+02 -0.10412797625E+02  0.16653334440E+02  0.40659139646E+02  0.00000000000E+00 0. -1.
         11    1    3    3    0    0  0.91949570193E+01 -0.46592306231E+01 -0.22622880602E+01  0.10553369704E+02  0.51100000000E-03 0. -1.
        -11    1    3    3    0    0  0.24672326451E+02  0.42215598807E+01 -0.14614870322E+02  0.28985163362E+02  0.51100000000E-03 0.  1.
        -12    1    3    3    0    0  0.17333588607E+01  0.10850468368E+02  0.22382394268E+00  0.10990327288E+02  0.00000000000E+00 0.  1.
</event>
<event>
 7    1  0.3141443E-011  0.5052886E+02  0.7816164E-02  0.1300439E+00
        -11   -1    0    0    0    0  0.00000000000E+00  0.00000000000E+00  0.45593999997E+02  0.45594000000E+02  0.51100000000E-03 0. -1.
         11   -1    0    0    0    0 -0.00000000000E+00 -0.00000000000E+00 -0.45593999997E+02  0.45594000000E+02  0.51100000000E-03 0.  1.
    9900012    2    1    2    0    0  0.10277366147E+02 -0.29162259695E+02 -0.26402722025E+02  0.50528863563E+02  0.30000011287E+02 0.  0.
         12    1    1    2    0    0 -0.10277366147E+02  0.29162259695E+02  0.26402722025E+02  0.40659136437E+02  0.00000000000E+00 0. -1.
         11    1    3    3    0    0  0.79547828712E+01 -0.36842560276E+01 -0.92287284410E+01  0.12728776135E+02  0.51100000000E-03 0. -1.
        -11    1    3    3    0    0  0.11657329949E+02 -0.14087967637E+02 -0.13183139729E+02  0.22542390003E+02  0.51100000000E-03 0.  1.
         12    1    3    3    0    0 -0.93347466726E+01 -0.11390036030E+02 -0.39908538547E+01  0.15257697425E+02  0.00000000000E+00 0. -1.
</event>
<event>
 7    1  0.3141443E-011  0.5052885E+02  0.7816164E-02  0.1300439E+00
        -11   -1    0    0    0    0  0.00000000000E+00  0.00000000000E+00  0.45593999997E+02  0.45594000000E+02  0.51100000000E-03 0.  1.
         11   -1    0    0    0    0 -0.00000000000E+00 -0.00000000000E+00 -0.45593999997E+02  0.45594000000E+02  0.51100000000E-03 0. -1.
    9900012    2    1    2    0    0  0.25617355882E+02  0.11304440698E+02  0.29480959692E+02  0.50528852367E+02  0.29999977254E+02 0.  0.
         12    1    1    2    0    0 -0.25617355882E+02 -0.11304440698E+02 -0.29480959692E+02  0.40659147633E+02  0.00000000000E+00 0. -1.
         11    1    3    3    0    0  0.94104445010E+01  0.29615431654E+01 -0.26645976365E+01  0.10218966898E+02  0.51100000000E-03 0. -1.
        -11    1    3    3    0    0  0.10057828614E+02  0.10994508784E+02  0.12161935337E+02  0.19234131414E+02  0.51100000000E-03 0.  1.
         12    1    3    3    0    0  0.61490827665E+01 -0.26516112518E+01  0.19983621991E+02  0.21075754055E+02  0.00000000000E+00 0. -1.
</event>
<event>
 7    1  0.3141443E-011  0.5052887E+02  0.7816164E-02  0.1300439E+00
        -11   -1    0    0    0    0  0.00000000000E+00  0.00000000000E+00  0.45593999997E+02  0.45594000000E+02  0.51100000000E-03 0.  1.
         11   -1    0    0    0    0 -0.00000000000E+00 -0.00000000000E+00 -0.45593999997E+02  0.45594000000E+02  0.51100000000E-03 0. -1.
    9900012    2    1    2    0    0 -0.15762034464E+00  0.34476280246E+02  0.21552876223E+02  0.50528865512E+02  0.30000017211E+02 0.  0.
         12    1    1    2    0    0  0.15762034464E+00 -0.34476280246E+02 -0.21552876223E+02  0.40659134488E+02  0.00000000000E+00 0. -1.
         11    1    3    3    0    0  0.31122192563E+01  0.47873330397E+01  0.73940909090E+01  0.93422185247E+01  0.51100000000E-03 0. -1.
        -11    1    3    3    0    0 -0.63053583562E+01 -0.12873486665E+01  0.64716973617E+01  0.91267561374E+01  0.51100000000E-03 0.  1.
        -12    1    3    3    0    0  0.30355187552E+01  0.30976295873E+02  0.76870879527E+01  0.32059890850E+02  0.00000000000E+00 0.  1.
</event>
<event>
 7    1  0.3141443E-011  0.5052886E+02  0.7816164E-02  0.1300439E+00
        -11   -1    0    0    0    0  0.00000000000E+00  0.00000000000E+00  0.45593999997E+02  0.45594000000E+02  0.51100000000E-03 0.  1.
         11   -1    0    0    0    0 -0.00000000000E+00 -0.00000000000E+00 -0.45593999997E+02  0.45594000000E+02  0.51100000000E-03 0. -1.
    9900012    2    1    2    0    0  0.15107459409E+02 -0.26019550075E+02  0.27347998427E+02  0.50528864079E+02  0.30000012853E+02 0.  0.
         12    1    1    2    0    0 -0.15107459409E+02  0.26019550075E+02 -0.27347998427E+02  0.40659135921E+02  0.00000000000E+00 0. -1.
         11    1    3    3    0    0 -0.29524819698E+01 -0.85181075933E+01  0.10129021353E+02  0.13559955036E+02  0.51100000000E-03 0. -1.
        -11    1    3    3    0    0  0.10180144354E+02 -0.21288117358E+02  0.14959117679E+02  0.27939120990E+02  0.51100000000E-03 0.  1.
        -12    1    3    3    0    0  0.78797970251E+01  0.37866748766E+01  0.22598593953E+01  0.90297880520E+01  0.00000000000E+00 0.  1.
</event>
<event>
 7    1  0.3141443E-011  0.5052887E+02  0.7816164E-02  0.1300439E+00
        -11   -1    0    0    0    0  0.00000000000E+00  0.00000000000E+00  0.45593999997E+02  0.45594000000E+02  0.51100000000E-03 0.  1.
         11   -1    0    0    0    0 -0.00000000000E+00 -0.00000000000E+00 -0.45593999997E+02  0.45594000000E+02  0.51100000000E-03 0. -1.
    9900012    2    1    2    0    0 -0.19431028959E+02  0.24245654212E+02  0.26224958399E+02  0.50528867230E+02  0.30000022432E+02 0.  0.
         12    1    1    2    0    0  0.19431028959E+02 -0.24245654212E+02 -0.26224958399E+02  0.40659132770E+02  0.00000000000E+00 0. -1.
         11    1    3    3    0    0  0.18695667688E+01  0.71923419983E+01 -0.44375686208E+00  0.74445942628E+01  0.51100000000E-03 0. -1.
        -11    1    3    3    0    0 -0.13140862857E+02  0.13545405625E+02  0.47887378511E+01  0.19470292773E+02  0.51100000000E-03 0.  1.
         12    1    3    3    0    0 -0.81597328698E+01  0.35079065889E+01  0.21879977410E+02  0.23613980194E+02  0.00000000000E+00 0. -1.
</event>
<event>
 7    1  0.3141443E-011  0.5052900E+02  0.7816164E-02  0.1300438E+00
        -11   -1    0    0    0    0  0.00000000000E+00  0.00000000000E+00  0.45593999997E+02  0.45594000000E+02  0.51100000000E-03 0.  1.
         11   -1    0    0    0    0 -0.00000000000E+00 -0.00000000000E+00 -0.45593999997E+02  0.45594000000E+02  0.51100000000E-03 0. -1.
    9900012    2    1    2    0    0  0.22734397218E+02 -0.33620678671E+02  0.24394726532E+01  0.50529004956E+02  0.30000441061E+02 0.  0.
         12    1    1    2    0    0 -0.22734397218E+02  0.33620678671E+02 -0.24394726532E+01  0.40658995044E+02  0.00000000000E+00 0. -1.
         11    1    3    3    0    0  0.12362768809E+02 -0.74438235759E+01 -0.69154069091E+01  0.16002231564E+02  0.51100000000E-03 0. -1.
        -11    1    3    3    0    0  0.53474436488E+01 -0.10619652450E+02 -0.48771874849E+01  0.12851425203E+02  0.51100000000E-03 0.  1.
         12    1    3    3    0    0  0.50241847602E+01 -0.15557202645E+02  0.14232067047E+02  0.21675348188E+02  0.00000000000E+00 0. -1.
</event>
<event>
 7    1  0.3141443E-011  0.5052895E+02  0.7816164E-02  0.1300438E+00
        -11   -1    0    0    0    0  0.00000000000E+00  0.00000000000E+00  0.45593999997E+02  0.45594000000E+02  0.51100000000E-03 0.  1.
         11   -1    0    0    0    0 -0.00000000000E+00 -0.00000000000E+00 -0.45593999997E+02  0.45594000000E+02  0.51100000000E-03 0. -1.
    9900012    2    1    2    0    0 -0.34001203955E+01  0.85480634033E+01  0.39604652212E+02  0.50528945861E+02  0.30000261438E+02 0.  0.
         12    1    1    2    0    0  0.34001203955E+01 -0.85480634033E+01 -0.39604652212E+02  0.40659054139E+02  0.00000000000E+00 0. -1.
         11    1    3    3    0    0 -0.36103189254E+01 -0.59146814252E+00 -0.95750009649E+00  0.37816721173E+01  0.51100000000E-03 0. -1.
        -11    1    3    3    0    0 -0.64589783994E+01  0.48588494063E+01  0.34322286299E+01  0.87810599102E+01  0.51100000000E-03 0.  1.
        -12    1    3    3    0    0  0.66691769293E+01  0.42806821395E+01  0.37129923678E+02  0.37966213834E+02  0.00000000000E+00 0.  1.
</event>
<event>
 7    1  0.3141443E-011  0.5052881E+02  0.7816164E-02  0.1300439E+00
        -11   -1    0    0    0    0  0.00000000000E+00  0.00000000000E+00  0.45593999997E+02  0.45594000000E+02  0.51100000000E-03 0. -1.
         11   -1    0    0    0    0 -0.00000000000E+00 -0.00000000000E+00 -0.45593999997E+02  0.45594000000E+02  0.51100000000E-03 0.  1.
    9900012    2    1    2    0    0  0.27135460276E+01  0.33998328093E+02 -0.22134130646E+02  0.50528814265E+02  0.29999861441E+02 0.  0.
         12    1    1    2    0    0 -0.27135460276E+01 -0.33998328093E+02  0.22134130646E+02  0.40659185735E+02  0.00000000000E+00 0. -1.
         11    1    3    3    0    0 -0.32511018479E+01  0.46801415605E+01  0.27951201434E+01  0.63471320397E+01  0.51100000000E-03 0. -1.
        -11    1    3    3    0    0  0.10772361430E+02  0.11713413311E+02 -0.39908679104E+01  0.16406548970E+02  0.51100000000E-03 0.  1.
        -12    1    3    3    0    0 -0.48077135541E+01  0.17604773221E+02 -0.20938382879E+02  0.27775133256E+02  0.00000000000E+00 0.  1.
</event>
<event>
 7    1  0.3141443E-011  0.5052888E+02  0.7816164E-02  0.1300439E+00
        -11   -1    0    0    0    0  0.00000000000E+00  0.00000000000E+00  0.45593999997E+02  0.45594000000E+02  0.51100000000E-03 0.  1.
         11   -1    0    0    0    0 -0.00000000000E+00 -0.00000000000E+00 -0.45593999997E+02  0.45594000000E+02  0.51100000000E-03 0. -1.
    9900012    2    1    2    0    0 -0.78819014457E+01 -0.14875985216E+01  0.39860089817E+02  0.50528879498E+02  0.30000059723E+02 0.  0.
         12    1    1    2    0    0  0.78819014457E+01  0.14875985216E+01 -0.39860089817E+02  0.40659120502E+02  0.00000000000E+00 0. -1.
         11    1    3    3    0    0 -0.88733419811E+00  0.43895045103E+01 -0.46720434770E+00  0.45025983597E+01  0.51100000000E-03 0. -1.
        -11    1    3    3    0    0 -0.83973143551E+01  0.59271806905E+01  0.17773532945E+02  0.20531557002E+02  0.51100000000E-03 0.  1.
         12    1    3    3    0    0  0.14027471076E+01 -0.11804283722E+02  0.22553761220E+02  0.25494724137E+02  0.00000000000E+00 0. -1.
</event>
<event>
 7    1  0.3141443E-011  0.5052886E+02  0.7816164E-02  0.1300439E+00
        -11   -1    0    0    0    0  0.00000000000E+00  0.00000000000E+00  0.45593999997E+02  0.45594000000E+02  0.51100000000E-03 0.  1.
         11   -1    0    0    0    0 -0.00000000000E+00 -0.00000000000E+00 -0.45593999997E+02  0.45594000000E+02  0.51100000000E-03 0. -1.
    9900012    2    1    2    0    0 -0.36014674397E+02  0.83557768831E+01  0.16920097264E+02  0.50528862396E+02  0.30000007738E+02 0.  0.
         12    1    1    2    0    0  0.36014674397E+02 -0.83557768831E+01 -0.16920097264E+02  0.40659137604E+02  0.00000000000E+00 0. -1.
         11    1    3    3    0    0  0.20705087672E+01  0.39281645582E+01  0.85653270637E+01  0.96479174603E+01  0.51100000000E-03 0. -1.
        -11    1    3    3    0    0 -0.22507336107E+02  0.31881297015E-01 -0.33462026251E+00  0.22509845980E+02  0.51100000000E-03 0.  1.
        -12    1    3    3    0    0 -0.15577847057E+02  0.43957310279E+01  0.86893904632E+01  0.18371098956E+02  0.00000000000E+00 0.  1.
</event>
<event>
 7    1  0.3141443E-011  0.5052886E+02  0.7816164E-02  0.1300439E+00
        -11   -1    0    0    0    0  0.00000000000E+00  0.00000000000E+00  0.45593999997E+02  0.45594000000E+02  0.51100000000E-03 0. -1.
         11   -1    0    0    0    0 -0.00000000000E+00 -0.00000000000E+00 -0.45593999997E+02  0.45594000000E+02  0.51100000000E-03 0.  1.
    9900012    2    1    2    0    0 -0.27693631253E+02 -0.19492322560E+01 -0.29705707554E+02  0.50528858596E+02  0.29999996189E+02 0.  0.
         12    1    1    2    0    0  0.27693631253E+02  0.19492322560E+01  0.29705707554E+02  0.40659141404E+02  0.00000000000E+00 0. -1.
         11    1    3    3    0    0 -0.13022932368E+02 -0.35035501926E+01  0.35828025112E+00  0.13490737430E+02  0.51100000000E-03 0. -1.
        -11    1    3    3    0    0 -0.55110890499E+01  0.60299542414E+01 -0.40911606729E+01  0.91361943161E+01  0.51100000000E-03 0.  1.
         12    1    3    3    0    0 -0.91596098353E+01 -0.44756363049E+01 -0.25972827133E+02  0.27901926850E+02  0.00000000000E+00 0. -1.
</event>
<event>
 7    1  0.3141443E-011  0.5052888E+02  0.7816164E-02  0.1300439E+00
        -11   -1    0    0    0    0  0.00000000000E+00  0.00000000000E+00  0.45593999997E+02  0.45594000000E+02  0.51100000000E-03 0.  1.
         11   -1    0    0    0    0 -0.00000000000E+00 -0.00000000000E+00 -0.45593999997E+02  0.45594000000E+02  0.51100000000E-03 0. -1.
    9900012    2    1    2    0    0  0.26983107975E+02 -0.17378309849E+02  0.24961379016E+02  0.50528877880E+02  0.30000054803E+02 0.  0.
         12    1    1    2    0    0 -0.26983107975E+02  0.17378309849E+02 -0.24961379016E+02  0.40659122120E+02  0.00000000000E+00 0. -1.
         11    1    3    3    0    0  0.90060500447E+01 -0.46223715166E+00  0.11839612003E+02  0.14882842915E+02  0.51100000000E-03 0. -1.
        -11    1    3    3    0    0  0.21616783700E+02 -0.94172955620E+01  0.51976158738E+01  0.24145103112E+02  0.51100000000E-03 0.  1.
         12    1    3    3    0    0 -0.36397257699E+01 -0.74987771356E+01  0.79241511388E+01  0.11500931853E+02  0.00000000000E+00 0. -1.
</event>
<event>
 7    1  0.3141443E-011  0.5052886E+02  0.7816164E-02  0.1300439E+00
        -11   -1    0    0    0    0  0.00000000000E+00  0.00000000000E+00  0.45593999997E+02  0.45594000000E+02  0.51100000000E-03 0.  1.
         11   -1    0    0    0    0 -0.00000000000E+00 -0.00000000000E+00 -0.45593999997E+02  0.45594000000E+02  0.51100000000E-03 0. -1.
    9900012    2    1    2    0    0  0.13479382368E+02  0.32879053052E+02  0.19759557243E+02  0.50528856120E+02  0.29999988662E+02 0.  0.
         12    1    1    2    0    0 -0.13479382368E+02 -0.32879053052E+02 -0.19759557243E+02  0.40659143880E+02  0.00000000000E+00 0. -1.
         11    1    3    3    0    0  0.38590181763E+01 -0.17314026360E+00  0.11402229410E+01  0.40276677436E+01  0.51100000000E-03 0. -1.
        -11    1    3    3    0    0  0.14239324282E+02  0.29646481526E+02  0.22252043018E+02  0.39709263927E+02  0.51100000000E-03 0.  1.
         12    1    3    3    0    0 -0.46189600904E+01  0.34057117897E+01 -0.36327087160E+01  0.67919244494E+01  0.00000000000E+00 0. -1.
</event>
<event>
 7    1  0.3141443E-011  0.5052886E+02  0.7816164E-02  0.1300439E+00
        -11   -1    0    0    0    0  0.00000000000E+00  0.00000000000E+00  0.45593999997E+02  0.45594000000E+02  0.51100000000E-03 0.  1.
         11   -1    0    0    0    0 -0.00000000000E+00 -0.00000000000E+00 -0.45593999997E+02  0.45594000000E+02  0.51100000000E-03 0. -1.
    9900012    2    1    2    0    0 -0.37129419665E+01 -0.33863937355E+02  0.22194894130E+02  0.50528861831E+02  0.30000006021E+02 0.  0.
         12    1    1    2    0    0  0.37129419665E+01  0.33863937355E+02 -0.22194894130E+02  0.40659138169E+02  0.00000000000E+00 0. -1.
         11    1    3    3    0    0  0.30170508788E+01  0.26446665308E+01  0.13462692551E+01  0.42319378815E+01  0.51100000000E-03 0. -1.
        -11    1    3    3    0    0  0.22648525115E+00 -0.89212262022E+01  0.14688148710E+02  0.17186660098E+02  0.51100000000E-03 0.  1.
        -12    1    3    3    0    0 -0.69564780964E+01 -0.27587377683E+02  0.61604761646E+01  0.29110263852E+02  0.00000000000E+00 0.  1.
</event>
<event>
 7    1  0.3141443E-011  0.5052886E+02  0.7816164E-02  0.1300439E+00
        -11   -1    0    0    0    0  0.00000000000E+00  0.00000000000E+00  0.45593999997E+02  0.45594000000E+02  0.51100000000E-03 0.  1.
         11   -1    0    0    0    0 -0.00000000000E+00 -0.00000000000E+00 -0.45593999997E+02  0.45594000000E+02  0.51100000000E-03 0. -1.
    9900012    2    1    2    0    0  0.23254087222E+02  0.43467871667E+01  0.33068391590E+02  0.50528860147E+02  0.30000000903E+02 0.  0.
         12    1    1    2    0    0 -0.23254087222E+02 -0.43467871667E+01 -0.33068391590E+02  0.40659139853E+02  0.00000000000E+00 0. -1.
         11    1    3    3    0    0  0.14173269430E+02  0.57756515784E+01  0.20987029807E+02  0.25974894376E+02  0.51100000000E-03 0. -1.
        -11    1    3    3    0    0  0.12737067562E+02 -0.55019671707E+01  0.12989056105E+02  0.19005791527E+02  0.51100000000E-03 0.  1.
         12    1    3    3    0    0 -0.36562497695E+01  0.40731027590E+01 -0.90769432084E+00  0.55481742441E+01  0.00000000000E+00 0. -1.
</event>
<event>
 7    1  0.3141443E-011  0.5052875E+02  0.7816164E-02  0.1300439E+00
        -11   -1    0    0    0    0  0.00000000000E+00  0.00000000000E+00  0.45593999997E+02  0.45594000000E+02  0.51100000000E-03 0. -1.
         11   -1    0    0    0    0 -0.00000000000E+00 -0.00000000000E+00 -0.45593999997E+02  0.45594000000E+02  0.51100000000E-03 0.  1.
    9900012    2    1    2    0    0 -0.11820678875E+00 -0.39471715760E+02  0.97542117641E+01  0.50528745641E+02  0.29999652849E+02 0.  0.
         12    1    1    2    0    0  0.11820678875E+00  0.39471715760E+02 -0.97542117641E+01  0.40659254359E+02  0.00000000000E+00 0. -1.
         11    1    3    3    0    0 -0.20458740150E+01 -0.40107807635E+01  0.61886502458E+01  0.76531924675E+01  0.51100000000E-03 0. -1.
        -11    1    3    3    0    0  0.71901580412E+01 -0.30760829437E+02  0.10194551873E+02  0.33194214683E+02  0.51100000000E-03 0.  1.
         12    1    3    3    0    0 -0.52624908149E+01 -0.47001055597E+01 -0.66289903542E+01  0.96813384904E+01  0.00000000000E+00 0. -1.
</event>
<event>
 7    1  0.3141443E-011  0.5052886E+02  0.7816164E-02  0.1300439E+00
        -11   -1    0    0    0    0  0.00000000000E+00  0.00000000000E+00  0.45593999997E+02  0.45594000000E+02  0.51100000000E-03 0.  1.
         11   -1    0    0    0    0 -0.00000000000E+00 -0.00000000000E+00 -0.45593999997E+02  0.45594000000E+02  0.51100000000E-03 0. -1.
    9900012    2    1    2    0    0  0.27403553649E+01 -0.38352552301E+02 -0.13218841509E+02  0.50528860973E+02  0.30000003414E+02 0.  0.
         12    1    1    2    0    0 -0.27403553649E+01  0.38352552301E+02  0.13218841509E+02  0.40659139027E+02  0.00000000000E+00 0. -1.
         11    1    3    3    0    0 -0.59287747752E+01 -0.20774817585E+01 -0.40864697323E+01  0.74943669463E+01  0.51100000000E-03 0. -1.
        -11    1    3    3    0    0  0.34698625699E+01 -0.21757233596E+02 -0.14870224534E+02  0.26580834034E+02  0.51100000000E-03 0.  1.
         12    1    3    3    0    0  0.51992675702E+01 -0.14517836947E+02  0.57378527575E+01  0.16453659993E+02  0.00000000000E+00 0. -1.
</event>
<event>
 7    1  0.3141443E-011  0.5052886E+02  0.7816164E-02  0.1300439E+00
        -11   -1    0    0    0    0  0.00000000000E+00  0.00000000000E+00  0.45593999997E+02  0.45594000000E+02  0.51100000000E-03 0.  1.
         11   -1    0    0    0    0 -0.00000000000E+00 -0.00000000000E+00 -0.45593999997E+02  0.45594000000E+02  0.51100000000E-03 0. -1.
    9900012    2    1    2    0    0  0.23629488238E+02  0.26015294422E+02 -0.20445477283E+02  0.50528858352E+02  0.29999995447E+02 0.  0.
         12    1    1    2    0    0 -0.23629488238E+02 -0.26015294422E+02  0.20445477283E+02  0.40659141648E+02  0.00000000000E+00 0. -1.
         11    1    3    3    0    0 -0.15920300000E+01  0.44628159134E+01 -0.11699374717E+02  0.12622466258E+02  0.51100000000E-03 0. -1.
        -11    1    3    3    0    0  0.54345518834E+01 -0.17144018345E+01 -0.40811893398E+01  0.70092534917E+01  0.51100000000E-03 0.  1.
        -12    1    3    3    0    0  0.19786966354E+02  0.23266880343E+02 -0.46649132258E+01  0.30897138602E+02  0.00000000000E+00 0.  1.
</event>
<event>
 7    1  0.3141443E-011  0.5052887E+02  0.7816164E-02  0.1300439E+00
        -11   -1    0    0    0    0  0.00000000000E+00  0.00000000000E+00  0.45593999997E+02  0.45594000000E+02  0.51100000000E-03 0.  1.
         11   -1    0    0    0    0 -0.00000000000E+00 -0.00000000000E+00 -0.45593999997E+02  0.45594000000E+02  0.51100000000E-03 0. -1.
    9900012    2    1    2    0    0  0.34114345549E+02 -0.72717142248E+01  0.20892547242E+02  0.50528869042E+02  0.30000027939E+02 0.  0.
         12    1    1    2    0    0 -0.34114345549E+02  0.72717142248E+01 -0.20892547242E+02  0.40659130958E+02  0.00000000000E+00 0. -1.
         11    1    3    3    0    0 -0.74401875639E-01  0.47195827402E+00 -0.44704843486E+01  0.44959438190E+01  0.51100000000E-03 0. -1.
        -11    1    3    3    0    0  0.16455877100E+02  0.36050989389E+01  0.75747536973E+01  0.18470774843E+02  0.51100000000E-03 0.  1.
        -12    1    3    3    0    0  0.17732870325E+02 -0.11348771438E+02  0.17788277894E+02  0.27562150379E+02  0.00000000000E+00 0.  1.
</event>
<event>
 7    1  0.3141443E-011  0.5052886E+02  0.7816164E-02  0.1300439E+00
        -11   -1    0    0    0    0  0.00000000000E+00  0.00000000000E+00  0.45593999997E+02  0.45594000000E+02  0.51100000000E-03 0.  1.
         11   -1    0    0    0    0 -0.00000000000E+00 -0.00000000000E+00 -0.45593999997E+02  0.45594000000E+02  0.51100000000E-03 0. -1.
    9900012    2    1    2    0    0  0.77950503181E+01 -0.13004414282E+02  0.37726494707E+02  0.50528855848E+02  0.29999987837E+02 0.  0.
         12    1    1    2    0    0 -0.77950503181E+01  0.13004414282E+02 -0.37726494707E+02  0.40659144152E+02  0.00000000000E+00 0. -1.
         11    1    3    3    0    0 -0.41141439022E+01  0.27082465672E+00  0.97248563723E+00  0.42361839689E+01  0.51100000000E-03 0. -1.
        -11    1    3    3    0    0 -0.21087724516E+01 -0.13584905814E+02  0.14428785702E+02  0.19929536982E+02  0.51100000000E-03 0.  1.
         12    1    3    3    0    0  0.14017966672E+02  0.30966687589E+00  0.22325223368E+02  0.26363134897E+02  0.00000000000E+00 0. -1.
</event>
<event>
 7    1  0.3141443E-011  0.5052886E+02  0.7816164E-02  0.1300439E+00
        -11   -1    0    0    0    0  0.00000000000E+00  0.00000000000E+00  0.45593999997E+02  0.45594000000E+02  0.51100000000E-03 0. -1.
         11   -1    0    0    0    0 -0.00000000000E+00 -0.00000000000E+00 -0.45593999997E+02  0.45594000000E+02  0.51100000000E-03 0.  1.
    9900012    2    1    2    0    0  0.18859473683E+02 -0.75856430438E+01  0.35212833277E+02  0.50528863814E+02  0.30000012050E+02 0.  0.
         12    1    1    2    0    0 -0.18859473683E+02  0.75856430438E+01 -0.35212833277E+02  0.40659136186E+02  0.00000000000E+00 0. -1.
         11    1    3    3    0    0  0.62086184716E+01 -0.37281724918E+01  0.16756084748E+02  0.18254111586E+02  0.51100000000E-03 0. -1.
        -11    1    3    3    0    0  0.16467418815E+02 -0.34482296881E+01  0.21553664859E+02  0.27342762105E+02  0.51100000000E-03 0.  1.
         12    1    3    3    0    0 -0.38165636039E+01 -0.40924086394E+00 -0.30969163298E+01  0.49319901238E+01  0.00000000000E+00 0. -1.
</event>
<event>
 7    1  0.3141443E-011  0.5052886E+02  0.7816164E-02  0.1300439E+00
        -11   -1    0    0    0    0  0.00000000000E+00  0.00000000000E+00  0.45593999997E+02  0.45594000000E+02  0.51100000000E-03 0.  1.
         11   -1    0    0    0    0 -0.00000000000E+00 -0.00000000000E+00 -0.45593999997E+02  0.45594000000E+02  0.51100000000E-03 0. -1.
    9900012    2    1    2    0    0 -0.24331628811E+02  0.22287192506E+02  0.23757498332E+02  0.50528857886E+02  0.29999994031E+02 0.  0.
         12    1    1    2    0    0  0.24331628811E+02 -0.22287192506E+02 -0.23757498332E+02  0.40659142114E+02  0.00000000000E+00 0. -1.
         11    1    3    3    0    0 -0.11136091023E+02  0.25061850722E+02  0.15282426330E+02  0.31395245495E+02  0.51100000000E-03 0.  1.
        -11    1    3    3    0    0  0.14707652768E+01 -0.92452121050E+00 -0.53978399712E+00  0.18191363316E+01  0.51100000000E-03 0. -1.
        -12    1    3    3    0    0 -0.14666303065E+02 -0.18501370051E+01  0.90148559989E+01  0.17314476060E+02  0.00000000000E+00 0.  1.
</event>
<event>
 7    1  0.3141443E-011  0.5052885E+02  0.7816164E-02  0.1300439E+00
        -11   -1    0    0    0    0  0.00000000000E+00  0.00000000000E+00  0.45593999997E+02  0.45594000000E+02  0.51100000000E-03 0.  1.
         11   -1    0    0    0    0 -0.00000000000E+00 -0.00000000000E+00 -0.45593999997E+02  0.45594000000E+02  0.51100000000E-03 0. -1.
    9900012    2    1    2    0    0 -0.10809898281E+02  0.12570905584E+02  0.37125254622E+02  0.50528854672E+02  0.29999984262E+02 0.  0.
         12    1    1    2    0    0  0.10809898281E+02 -0.12570905584E+02 -0.37125254622E+02  0.40659145328E+02  0.00000000000E+00 0. -1.
         11    1    3    3    0    0 -0.49636611537E+01 -0.76010567661E+00 -0.81227256506E+00  0.50867946361E+01  0.51100000000E-03 0. -1.
        -11    1    3    3    0    0  0.64882972477E+01  0.61624444316E+01  0.69572275112E+01  0.11334757935E+02  0.51100000000E-03 0.  1.
        -12    1    3    3    0    0 -0.12334534375E+02  0.71685668294E+01  0.30980299675E+02  0.34107302101E+02  0.00000000000E+00 0.  1.
</event>
<event>
 7    1  0.3141443E-011  0.5052887E+02  0.7816164E-02  0.1300439E+00
        -11   -1    0    0    0    0  0.00000000000E+00  0.00000000000E+00  0.45593999997E+02  0.45594000000E+02  0.51100000000E-03 0.  1.
         11   -1    0    0    0    0 -0.00000000000E+00 -0.00000000000E+00 -0.45593999997E+02  0.45594000000E+02  0.51100000000E-03 0. -1.
    9900012    2    1    2    0    0  0.11774415474E+02  0.34684806544E+02  0.17649144613E+02  0.50528868549E+02  0.30000026442E+02 0.  0.
         12    1    1    2    0    0 -0.11774415474E+02 -0.34684806544E+02 -0.17649144613E+02  0.40659131451E+02  0.00000000000E+00 0. -1.
         11    1    3    3    0    0  0.10092530686E+02  0.18742626156E+02  0.11028600461E+02  0.23974470573E+02  0.51100000000E-03 0. -1.
        -11    1    3    3    0    0  0.47965055599E+01  0.31065586151E+01  0.11201036093E+02  0.12574592710E+02  0.51100000000E-03 0.  1.
         12    1    3    3    0    0 -0.31146207723E+01  0.12835621773E+02 -0.45804919405E+01  0.13979805266E+02  0.00000000000E+00 0. -1.
</event>
<event>
 7    1  0.3141443E-011  0.5052886E+02  0.7816164E-02  0.1300439E+00
        -11   -1    0    0    0    0  0.00000000000E+00  0.00000000000E+00  0.45593999997E+02  0.45594000000E+02  0.51100000000E-03 0.  1.
         11   -1    0    0    0    0 -0.00000000000E+00 -0.00000000000E+00 -0.45593999997E+02  0.45594000000E+02  0.51100000000E-03 0. -1.
    9900012    2    1    2    0    0  0.10525557916E+02  0.69916768561E+01  0.38645759686E+02  0.50528860112E+02  0.30000000797E+02 0.  0.
         12    1    1    2    0    0 -0.10525557916E+02 -0.69916768561E+01 -0.38645759686E+02  0.40659139888E+02  0.00000000000E+00 0. -1.
         11    1    3    3    0    0 -0.49610704810E+01 -0.20459243859E+01  0.10730093789E+02  0.11997205504E+02  0.51100000000E-03 0. -1.
        -11    1    3    3    0    0  0.91364180181E+01  0.14768299648E+01  0.27085539169E+02  0.28623095452E+02  0.51100000000E-03 0.  1.
         12    1    3    3    0    0  0.63502103789E+01  0.75607712773E+01  0.83012672784E+00  0.99085591560E+01  0.00000000000E+00 0. -1.
</event>
<event>
 7    1  0.3141443E-011  0.5052886E+02  0.7816164E-02  0.1300439E+00
        -11   -1    0    0    0    0  0.00000000000E+00  0.00000000000E+00  0.45593999997E+02  0.45594000000E+02  0.51100000000E-03 0.  1.
         11   -1    0    0    0    0 -0.00000000000E+00 -0.00000000000E+00 -0.45593999997E+02  0.45594000000E+02  0.51100000000E-03 0. -1.
    9900012    2    1    2    0    0 -0.11186462541E+02 -0.35601682677E+02  0.16141526312E+02  0.50528860495E+02  0.30000001960E+02 0.  0.
         12    1    1    2    0    0  0.11186462541E+02  0.35601682677E+02 -0.16141526312E+02  0.40659139505E+02  0.00000000000E+00 0. -1.
         11    1    3    3    0    0 -0.65739216550E+00 -0.93123484058E+01  0.43391883589E+01  0.10294685676E+02  0.51100000000E-03 0. -1.
        -11    1    3    3    0    0  0.18434991590E+01  0.40416468640E+01  0.51624036646E+01  0.68105660836E+01  0.51100000000E-03 0.  1.
         12    1    3    3    0    0 -0.12372569535E+02 -0.30330981135E+02  0.66399342887E+01  0.33423608735E+02  0.00000000000E+00 0. -1.
</event>
<event>
 7    1  0.3141443E-011  0.5052886E+02  0.7816164E-02  0.1300439E+00
        -11   -1    0    0    0    0  0.00000000000E+00  0.00000000000E+00  0.45593999997E+02  0.45594000000E+02  0.51100000000E-03 0. -1.
         11   -1    0    0    0    0 -0.00000000000E+00 -0.00000000000E+00 -0.45593999997E+02  0.45594000000E+02  0.51100000000E-03 0.  1.
    9900012    2    1    2    0    0  0.62831309548E+01  0.32456147740E+02 -0.23670375756E+02  0.50528856512E+02  0.29999989855E+02 0.  0.
         12    1    1    2    0    0 -0.62831309548E+01 -0.32456147740E+02  0.23670375756E+02  0.40659143488E+02  0.00000000000E+00 0. -1.
         11    1    3    3    0    0 -0.29388755880E+01  0.21245388392E+00 -0.38070803869E+01  0.48141445458E+01  0.51100000000E-03 0. -1.
        -11    1    3    3    0    0 -0.21873369524E+01  0.23824815918E+02 -0.20521168867E+02  0.31520226338E+02  0.51100000000E-03 0.  1.
        -12    1    3    3    0    0  0.11409343495E+02  0.84188779376E+01  0.65787349761E+00  0.14194485629E+02  0.00000000000E+00 0.  1.
</event>
<event>
 7    1  0.3141443E-011  0.5052887E+02  0.7816164E-02  0.1300439E+00
        -11   -1    0    0    0    0  0.00000000000E+00  0.00000000000E+00  0.45593999997E+02  0.45594000000E+02  0.51100000000E-03 0. -1.
         11   -1    0    0    0    0 -0.00000000000E+00 -0.00000000000E+00 -0.45593999997E+02  0.45594000000E+02  0.51100000000E-03 0.  1.
    9900012    2    1    2    0    0 -0.31533624407E+02  0.21353918604E+02  0.14240992822E+02  0.50528865915E+02  0.30000018435E+02 0.  0.
         12    1    1    2    0    0  0.31533624407E+02 -0.21353918604E+02 -0.14240992822E+02  0.40659134085E+02  0.00000000000E+00 0. -1.
         11    1    3    3    0    0 -0.20063880708E+02  0.35252066370E+00  0.12956910833E+01  0.20108764147E+02  0.51100000000E-03 0. -1.
        -11    1    3    3    0    0 -0.78861346718E+01  0.87000754240E+01 -0.62226844382E+00  0.11758811620E+02  0.51100000000E-03 0.  1.
         12    1    3    3    0    0 -0.35836090277E+01  0.12301322516E+02  0.13567570183E+02  0.18661290147E+02  0.00000000000E+00 0. -1.
</event>
<event>
 7    1  0.3141443E-011  0.5052886E+02  0.7816164E-02  0.1300439E+00
        -11   -1    0    0    0    0  0.00000000000E+00  0.00000000000E+00  0.45593999997E+02  0.45594000000E+02  0.51100000000E-03 0.  1.
         11   -1    0    0    0    0 -0.00000000000E+00 -0.00000000000E+00 -0.45593999997E+02  0.45594000000E+02  0.51100000000E-03 0. -1.
    9900012    2    1    2    0    0  0.15970845360E+02  0.26657214471E+02  0.26220044861E+02  0.50528859117E+02  0.29999997771E+02 0.  0.
         12    1    1    2    0    0 -0.15970845360E+02 -0.26657214471E+02 -0.26220044861E+02  0.40659140883E+02  0.00000000000E+00 0. -1.
         11    1    3    3    0    0 -0.10957822096E+01  0.49445375594E+01  0.16337111932E+02  0.17104105264E+02  0.51100000000E-03 0. -1.
        -11    1    3    3    0    0  0.29652624659E+01  0.14884173946E+02  0.91889063161E+01  0.17741685802E+02  0.51100000000E-03 0.  1.
        -12    1    3    3    0    0  0.14101365104E+02  0.68285029656E+01  0.69402661221E+00  0.15683068051E+02  0.00000000000E+00 0.  1.
</event>
<event>
 7    1  0.3141443E-011  0.5052886E+02  0.7816164E-02  0.1300439E+00
        -11   -1    0    0    0    0  0.00000000000E+00  0.00000000000E+00  0.45593999997E+02  0.45594000000E+02  0.51100000000E-03 0. -1.
         11   -1    0    0    0    0 -0.00000000000E+00 -0.00000000000E+00 -0.45593999997E+02  0.45594000000E+02  0.51100000000E-03 0.  1.
    9900012    2    1    2    0    0  0.29762252618E+02  0.10653236403E+02 -0.25571126039E+02  0.50528860638E+02  0.30000002395E+02 0.  0.
         12    1    1    2    0    0 -0.29762252618E+02 -0.10653236403E+02  0.25571126039E+02  0.40659139362E+02  0.00000000000E+00 0. -1.
         11    1    3    3    0    0 -0.14089221762E+01  0.58533089996E+01 -0.44209196234E+01  0.74693251717E+01  0.51100000000E-03 0. -1.
        -11    1    3    3    0    0  0.57131759012E+01 -0.65107398353E+01 -0.10886267350E+01  0.87301329034E+01  0.51100000000E-03 0.  1.
         12    1    3    3    0    0  0.25457998893E+02  0.11310667239E+02 -0.20061579681E+02  0.34329402563E+02  0.00000000000E+00 0. -1.
</event>
<event>
 7    1  0.3141443E-011  0.5052882E+02  0.7816164E-02  0.1300439E+00
        -11   -1    0    0    0    0  0.00000000000E+00  0.00000000000E+00  0.45593999997E+02  0.45594000000E+02  0.51100000000E-03 0.  1.
         11   -1    0    0    0    0 -0.00000000000E+00 -0.00000000000E+00 -0.45593999997E+02  0.45594000000E+02  0.51100000000E-03 0. -1.
    9900012    2    1    2    0    0 -0.21341194065E+02  0.33970260513E+02  0.66138773498E+01  0.50528824688E+02  0.29999893122E+02 0.  0.
         12    1    1    2    0    0  0.21341194065E+02 -0.33970260513E+02 -0.66138773498E+01  0.40659175312E+02  0.00000000000E+00 0. -1.
         11    1    3    3    0    0  0.35036617383E+01 -0.15170203908E+01  0.30171376730E+01  0.48662219886E+01  0.51100000000E-03 0. -1.
        -11    1    3    3    0    0  0.10160438858E+01  0.51316911144E+01  0.24286726789E+01  0.57675861601E+01  0.51100000000E-03 0.  1.
        -12    1    3    3    0    0 -0.25860899690E+02  0.30355589789E+02  0.11680669978E+01  0.39895016540E+02  0.00000000000E+00 0.  1.
</event>
<event>
 7    1  0.3141443E-011  0.5052887E+02  0.7816164E-02  0.1300439E+00
        -11   -1    0    0    0    0  0.00000000000E+00  0.00000000000E+00  0.45593999997E+02  0.45594000000E+02  0.51100000000E-03 0.  1.
         11   -1    0    0    0    0 -0.00000000000E+00 -0.00000000000E+00 -0.45593999997E+02  0.45594000000E+02  0.51100000000E-03 0. -1.
    9900012    2    1    2    0    0 -0.39453919550E+02 -0.50752040139E+01  0.84139829474E+01  0.50528873439E+02  0.30000041306E+02 0.  0.
         12    1    1    2    0    0  0.39453919550E+02  0.50752040139E+01 -0.84139829474E+01  0.40659126561E+02  0.00000000000E+00 0. -1.
         11    1    3    3    0    0 -0.52810522783E+01 -0.26148584294E+01 -0.46746130173E+01  0.75219016807E+01  0.51100000000E-03 0. -1.
        -11    1    3    3    0    0 -0.12193791155E+02 -0.11832995109E+02  0.67796070421E+01  0.18294026016E+02  0.51100000000E-03 0.  1.
         12    1    3    3    0    0 -0.21979076117E+02  0.93726495242E+01  0.63089889226E+01  0.24712945742E+02  0.00000000000E+00 0. -1.
</event>
<event>
 7    1  0.3141443E-011  0.5052886E+02  0.7816164E-02  0.1300439E+00
        -11   -1    0    0    0    0  0.00000000000E+00  0.00000000000E+00  0.45593999997E+02  0.45594000000E+02  0.51100000000E-03 0.  1.
         11   -1    0    0    0    0 -0.00000000000E+00 -0.00000000000E+00 -0.45593999997E+02  0.45594000000E+02  0.51100000000E-03 0. -1.
    9900012    2    1    2    0    0 -0.15881009750E+02 -0.51908564580E+01  0.37067698648E+02  0.50528859029E+02  0.29999997505E+02 0.  0.
         12    1    1    2    0    0  0.15881009750E+02  0.51908564580E+01 -0.37067698648E+02  0.40659140971E+02  0.00000000000E+00 0. -1.
         11    1    3    3    0    0 -0.21565219452E+02 -0.58810798242E+01  0.27414622815E+02  0.35372409224E+02  0.51100000000E-03 0.  1.
        -11    1    3    3    0    0  0.19727719622E+01  0.23882001077E+00  0.11003316492E+02  0.11181316483E+02  0.51100000000E-03 0. -1.
        -12    1    3    3    0    0  0.37114377402E+01  0.45140335538E+00 -0.13502406597E+01  0.39751333220E+01  0.00000000000E+00 0.  1.
</event>
<event>
 7    1  0.3141443E-011  0.5052886E+02  0.7816164E-02  0.1300439E+00
        -11   -1    0    0    0    0  0.00000000000E+00  0.00000000000E+00  0.45593999997E+02  0.45594000000E+02  0.51100000000E-03 0.  1.
         11   -1    0    0    0    0 -0.00000000000E+00 -0.00000000000E+00 -0.45593999997E+02  0.45594000000E+02  0.51100000000E-03 0. -1.
    9900012    2    1    2    0    0 -0.19394407911E+02  0.65732732339E+01  0.35125700895E+02  0.50528857823E+02  0.29999993839E+02 0.  0.
         12    1    1    2    0    0  0.19394407911E+02 -0.65732732339E+01 -0.35125700895E+02  0.40659142177E+02  0.00000000000E+00 0. -1.
         11    1    3    3    0    0  0.11620978572E+01 -0.12564892075E+01  0.37361730473E+00  0.17518066987E+01  0.51100000000E-03 0. -1.
        -11    1    3    3    0    0 -0.56768148707E+01  0.25171388117E+01  0.32174781740E+02  0.32768564130E+02  0.51100000000E-03 0.  1.
         12    1    3    3    0    0 -0.14879690897E+02  0.53126236297E+01  0.25773018504E+01  0.16008486995E+02  0.00000000000E+00 0. -1.
</event>
<event>
 7    1  0.3141443E-011  0.5052887E+02  0.7816164E-02  0.1300439E+00
        -11   -1    0    0    0    0  0.00000000000E+00  0.00000000000E+00  0.45593999997E+02  0.45594000000E+02  0.51100000000E-03 0. -1.
         11   -1    0    0    0    0 -0.00000000000E+00 -0.00000000000E+00 -0.45593999997E+02  0.45594000000E+02  0.51100000000E-03 0.  1.
    9900012    2    1    2    0    0  0.18847669673E+02 -0.45794439257E+01 -0.35734560521E+02  0.50528870958E+02  0.30000033765E+02 0.  0.
         12    1    1    2    0    0 -0.18847669673E+02  0.45794439257E+01  0.35734560521E+02  0.40659129042E+02  0.00000000000E+00 0. -1.
         11    1    3    3    0    0  0.74974775768E+01  0.24571044570E+01 -0.50521696244E+01  0.93687752937E+01  0.51100000000E-03 0. -1.
        -11    1    3    3    0    0  0.16876629571E+02 -0.11175791773E+02 -0.25327682671E+02  0.32422375871E+02  0.51100000000E-03 0.  1.
         12    1    3    3    0    0 -0.55264374741E+01  0.41392433901E+01 -0.53547082261E+01  0.87377197932E+01  0.00000000000E+00 0. -1.
</event>
<event>
 7    1  0.3141443E-011  0.5052885E+02  0.7816164E-02  0.1300439E+00
        -11   -1    0    0    0    0  0.00000000000E+00  0.00000000000E+00  0.45593999997E+02  0.45594000000E+02  0.51100000000E-03 0. -1.
         11   -1    0    0    0    0 -0.00000000000E+00 -0.00000000000E+00 -0.45593999997E+02  0.45594000000E+02  0.51100000000E-03 0.  1.
    9900012    2    1    2    0    0 -0.32259768538E+02 -0.16823316363E+02 -0.18150750267E+02  0.50528851278E+02  0.29999973943E+02 0.  0.
         12    1    1    2    0    0  0.32259768538E+02  0.16823316363E+02  0.18150750267E+02  0.40659148722E+02  0.00000000000E+00 0. -1.
         11    1    3    3    0    0  0.67759736728E+00 -0.71503649683E+00 -0.10881115675E+02  0.10925616411E+02  0.51100000000E-03 0. -1.
        -11    1    3    3    0    0 -0.10352397068E+02  0.55603282394E+00 -0.48083513440E+01  0.11428103100E+02  0.51100000000E-03 0.  1.
        -12    1    3    3    0    0 -0.22584968837E+02 -0.16664312690E+02 -0.24612832486E+01  0.28175131766E+02  0.00000000000E+00 0.  1.
</event>
<event>
 7    1  0.3141443E-011  0.5052886E+02  0.7816164E-02  0.1300439E+00
        -11   -1    0    0    0    0  0.00000000000E+00  0.00000000000E+00  0.45593999997E+02  0.45594000000E+02  0.51100000000E-03 0.  1.
         11   -1    0    0    0    0 -0.00000000000E+00 -0.00000000000E+00 -0.45593999997E+02  0.45594000000E+02  0.51100000000E-03 0. -1.
    9900012    2    1    2    0    0  0.36973142094E+02  0.11699219044E+02 -0.12218039202E+02  0.50528862719E+02  0.30000008721E+02 0.  0.
         12    1    1    2    0    0 -0.36973142094E+02 -0.11699219044E+02  0.12218039202E+02  0.40659137281E+02  0.00000000000E+00 0. -1.
         11    1    3    3    0    0 -0.41928503770E+00  0.69155073008E+01  0.14828265969E+01  0.70851122890E+01  0.51100000000E-03 0.  1.
        -11    1    3    3    0    0  0.32004355371E+01  0.13006416153E+01 -0.78551026478E+01  0.85812058656E+01  0.51100000000E-03 0. -1.
        -12    1    3    3    0    0  0.34191991594E+02  0.34830701278E+01 -0.58457631508E+01  0.34862544564E+02  0.00000000000E+00 0.  1.
</event>
<event>
 7    1  0.3141443E-011  0.5052885E+02  0.7816164E-02  0.1300439E+00
        -11   -1    0    0    0    0  0.00000000000E+00  0.00000000000E+00  0.45593999997E+02  0.45594000000E+02  0.51100000000E-03 0.  1.
         11   -1    0    0    0    0 -0.00000000000E+00 -0.00000000000E+00 -0.45593999997E+02  0.45594000000E+02  0.51100000000E-03 0. -1.
    9900012    2    1    2    0    0 -0.98540694996E+01  0.36607661083E+02 -0.14694992263E+02  0.50528851789E+02  0.29999975498E+02 0.  0.
         12    1    1    2    0    0  0.98540694996E+01 -0.36607661083E+02  0.14694992263E+02  0.40659148211E+02  0.00000000000E+00 0. -1.
         11    1    3    3    0    0 -0.46822565283E+01  0.73547448835E+01 -0.12484384746E+02  0.15227464045E+02  0.51100000000E-03 0. -1.
        -11    1    3    3    0    0 -0.88305971919E+01  0.72120595328E+01  0.40482333853E+01  0.12098819912E+02  0.51100000000E-03 0.  1.
        -12    1    3    3    0    0  0.36587842206E+01  0.22040856666E+02 -0.62588409022E+01  0.23202567832E+02  0.00000000000E+00 0.  1.
</event>
<event>
 7    1  0.3141443E-011  0.5052886E+02  0.7816164E-02  0.1300439E+00
        -11   -1    0    0    0    0  0.00000000000E+00  0.00000000000E+00  0.45593999997E+02  0.45594000000E+02  0.51100000000E-03 0.  1.
         11   -1    0    0    0    0 -0.00000000000E+00 -0.00000000000E+00 -0.45593999997E+02  0.45594000000E+02  0.51100000000E-03 0. -1.
    9900012    2    1    2    0    0 -0.52822217721E+01 -0.22807233594E+02  0.33242955781E+02  0.50528857361E+02  0.29999992435E+02 0.  0.
         12    1    1    2    0    0  0.52822217721E+01  0.22807233594E+02 -0.33242955781E+02  0.40659142639E+02  0.00000000000E+00 0. -1.
         11    1    3    3    0    0  0.10657093841E+02 -0.67576895465E+01  0.11228103862E+02  0.16891131808E+02  0.51100000000E-03 0.  1.
        -11    1    3    3    0    0 -0.91539807961E+01 -0.63021438471E+01  0.35196683931E+01  0.11657634723E+02  0.51100000000E-03 0. -1.
        -12    1    3    3    0    0 -0.67853348169E+01 -0.97474002006E+01  0.18495183526E+02  0.21980090830E+02  0.00000000000E+00 0.  1.
</event>
<event>
 7    1  0.3141443E-011  0.5052886E+02  0.7816164E-02  0.1300439E+00
        -11   -1    0    0    0    0  0.00000000000E+00  0.00000000000E+00  0.45593999997E+02  0.45594000000E+02  0.51100000000E-03 0.  1.
         11   -1    0    0    0    0 -0.00000000000E+00 -0.00000000000E+00 -0.45593999997E+02  0.45594000000E+02  0.51100000000E-03 0. -1.
    9900012    2    1    2    0    0 -0.89505235434E+01  0.11525800473E+02  0.37950093282E+02  0.50528861687E+02  0.30000005583E+02 0.  0.
         12    1    1    2    0    0  0.89505235434E+01 -0.11525800473E+02 -0.37950093282E+02  0.40659138313E+02  0.00000000000E+00 0. -1.
         11    1    3    3    0    0  0.35934012161E+01  0.84187645278E+01  0.55335361724E+01  0.10696174611E+02  0.51100000000E-03 0. -1.
        -11    1    3    3    0    0 -0.38653043359E+00 -0.16938121255E+01 -0.22158523799E+01  0.28157427658E+01  0.51100000000E-03 0.  1.
        -12    1    3    3    0    0 -0.12157394326E+02  0.48008480711E+01  0.34632409490E+02  0.37016944310E+02  0.00000000000E+00 0.  1.
</event>
<event>
 7    1  0.3141443E-011  0.5052896E+02  0.7816164E-02  0.1300438E+00
        -11   -1    0    0    0    0  0.00000000000E+00  0.00000000000E+00  0.45593999997E+02  0.45594000000E+02  0.51100000000E-03 0. -1.
         11   -1    0    0    0    0 -0.00000000000E+00 -0.00000000000E+00 -0.45593999997E+02  0.45594000000E+02  0.51100000000E-03 0.  1.
    9900012    2    1    2    0    0 -0.74268857501E+01  0.14529317564E+02 -0.37241080626E+02  0.50528956885E+02  0.30000294947E+02 0.  0.
         12    1    1    2    0    0  0.74268857501E+01 -0.14529317564E+02  0.37241080626E+02  0.40659043115E+02  0.00000000000E+00 0. -1.
         11    1    3    3    0    0 -0.48378917887E+01  0.53748575523E+01 -0.11970378746E+01  0.73298833962E+01  0.51100000000E-03 0. -1.
        -11    1    3    3    0    0 -0.75865351729E+00 -0.72405712840E+01 -0.99862722344E+01  0.12358279050E+02  0.51100000000E-03 0.  1.
        -12    1    3    3    0    0 -0.18303404441E+01  0.16395031295E+02 -0.26057770517E+02  0.30840794439E+02  0.00000000000E+00 0.  1.
</event>
<event>
 7    1  0.3141443E-011  0.5052886E+02  0.7816164E-02  0.1300439E+00
        -11   -1    0    0    0    0  0.00000000000E+00  0.00000000000E+00  0.45593999997E+02  0.45594000000E+02  0.51100000000E-03 0. -1.
         11   -1    0    0    0    0 -0.00000000000E+00 -0.00000000000E+00 -0.45593999997E+02  0.45594000000E+02  0.51100000000E-03 0.  1.
    9900012    2    1    2    0    0  0.22856657434E+02  0.16892589086E+02 -0.29075406298E+02  0.50528860727E+02  0.30000002665E+02 0.  0.
         12    1    1    2    0    0 -0.22856657434E+02 -0.16892589086E+02  0.29075406298E+02  0.40659139273E+02  0.00000000000E+00 0. -1.
         11    1    3    3    0    0 -0.30469077943E+01 -0.27260413277E+00 -0.56409199314E+01  0.64170038222E+01  0.51100000000E-03 0. -1.
        -11    1    3    3    0    0  0.52626684499E+01 -0.67804712054E+00  0.30224699129E+01  0.61066154084E+01  0.51100000000E-03 0.  1.
         12    1    3    3    0    0  0.20640896779E+02  0.17843240339E+02 -0.26456956279E+02  0.38005241496E+02  0.00000000000E+00 0. -1.
</event>
<event>
 7    1  0.3141443E-011  0.5052886E+02  0.7816164E-02  0.1300439E+00
        -11   -1    0    0    0    0  0.00000000000E+00  0.00000000000E+00  0.45593999997E+02  0.45594000000E+02  0.51100000000E-03 0.  1.
         11   -1    0    0    0    0 -0.00000000000E+00 -0.00000000000E+00 -0.45593999997E+02  0.45594000000E+02  0.51100000000E-03 0. -1.
    9900012    2    1    2    0    0 -0.67669717453E+00  0.39759232011E+02 -0.84800547554E+01  0.50528858619E+02  0.29999996260E+02 0.  0.
         12    1    1    2    0    0  0.67669717453E+00 -0.39759232011E+02  0.84800547554E+01  0.40659141381E+02  0.00000000000E+00 0. -1.
         11    1    3    3    0    0  0.58492085665E+01  0.13607766089E+02  0.77587370579E+00  0.14831942525E+02  0.51100000000E-03 0. -1.
        -11    1    3    3    0    0 -0.42226256118E+01  0.11118776970E+02  0.67027485900E+01  0.13652274803E+02  0.51100000000E-03 0.  1.
         12    1    3    3    0    0 -0.23032801293E+01  0.15032688952E+02 -0.15958677051E+02  0.22044641292E+02  0.00000000000E+00 0. -1.
</event>
<event>
 7    1  0.3141443E-011  0.5052886E+02  0.7816164E-02  0.1300439E+00
        -11   -1    0    0    0    0  0.00000000000E+00  0.00000000000E+00  0.45593999997E+02  0.45594000000E+02  0.51100000000E-03 0. -1.
         11   -1    0    0    0    0 -0.00000000000E+00 -0.00000000000E+00 -0.45593999997E+02  0.45594000000E+02  0.51100000000E-03 0.  1.
    9900012    2    1    2    0    0 -0.36557859010E+02 -0.91512788537E+01 -0.15262452694E+02  0.50528862992E+02  0.30000009549E+02 0.  0.
         12    1    1    2    0    0  0.36557859010E+02  0.91512788537E+01  0.15262452694E+02  0.40659137008E+02  0.00000000000E+00 0. -1.
         11    1    3    3    0    0 -0.21937067752E+00 -0.21594008280E+01 -0.43303434432E+01  0.48438631305E+01  0.51100000000E-03 0. -1.
        -11    1    3    3    0    0 -0.20757235454E+02 -0.15859723297E+02 -0.91056621250E+01  0.27664177735E+02  0.51100000000E-03 0.  1.
        -12    1    3    3    0    0 -0.15581252878E+02  0.88678452711E+01 -0.18264471261E+01  0.18020822126E+02  0.00000000000E+00 0.  1.
</event>
<event>
 7    1  0.3141443E-011  0.5052886E+02  0.7816164E-02  0.1300439E+00
        -11   -1    0    0    0    0  0.00000000000E+00  0.00000000000E+00  0.45593999997E+02  0.45594000000E+02  0.51100000000E-03 0.  1.
         11   -1    0    0    0    0 -0.00000000000E+00 -0.00000000000E+00 -0.45593999997E+02  0.45594000000E+02  0.51100000000E-03 0. -1.
    9900012    2    1    2    0    0 -0.36525326645E+02 -0.63957624061E+00 -0.17850971299E+02  0.50528859323E+02  0.29999998398E+02 0.  0.
         12    1    1    2    0    0  0.36525326645E+02  0.63957624061E+00  0.17850971299E+02  0.40659140677E+02  0.00000000000E+00 0. -1.
         11    1    3    3    0    0 -0.18488356784E+02 -0.64466322884E+01 -0.55253775900E+01  0.20344734017E+02  0.51100000000E-03 0. -1.
        -11    1    3    3    0    0 -0.14341064790E+02 -0.40369721872E+01 -0.13104912672E+01  0.14955957721E+02  0.51100000000E-03 0.  1.
         12    1    3    3    0    0 -0.36959050711E+01  0.98440282350E+01 -0.11015102442E+02  0.15228167585E+02  0.00000000000E+00 0. -1.
</event>
<event>
 7    1  0.3141443E-011  0.5052887E+02  0.7816164E-02  0.1300439E+00
        -11   -1    0    0    0    0  0.00000000000E+00  0.00000000000E+00  0.45593999997E+02  0.45594000000E+02  0.51100000000E-03 0.  1.
         11   -1    0    0    0    0 -0.00000000000E+00 -0.00000000000E+00 -0.45593999997E+02  0.45594000000E+02  0.51100000000E-03 0. -1.
    9900012    2    1    2    0    0 -0.39365974674E+02 -0.83445266645E+01  0.58184313523E+01  0.50528865347E+02  0.30000016709E+02 0.  0.
         12    1    1    2    0    0  0.39365974674E+02  0.83445266645E+01 -0.58184313523E+01  0.40659134653E+02  0.00000000000E+00 0. -1.
         11    1    3    3    0    0 -0.17847949660E+02  0.78647252923E+00  0.65890887067E+00  0.17877416124E+02  0.51100000000E-03 0. -1.
        -11    1    3    3    0    0  0.43086691484E+00  0.55158103254E+01 -0.82599099536E+00  0.55939316433E+01  0.51100000000E-03 0.  1.
        -12    1    3    3    0    0 -0.21948891929E+02 -0.14646809519E+02  0.59855134770E+01  0.27057517580E+02  0.00000000000E+00 0.  1.
</event>
<event>
 7    1  0.3141443E-011  0.5052886E+02  0.7816164E-02  0.1300439E+00
        -11   -1    0    0    0    0  0.00000000000E+00  0.00000000000E+00  0.45593999997E+02  0.45594000000E+02  0.51100000000E-03 0. -1.
         11   -1    0    0    0    0 -0.00000000000E+00 -0.00000000000E+00 -0.45593999997E+02  0.45594000000E+02  0.51100000000E-03 0.  1.
    9900012    2    1    2    0    0 -0.29701088829E+02  0.22619217435E+02 -0.16105339046E+02  0.50528860551E+02  0.30000002130E+02 0.  0.
         12    1    1    2    0    0  0.29701088829E+02 -0.22619217435E+02  0.16105339046E+02  0.40659139449E+02  0.00000000000E+00 0. -1.
         11    1    3    3    0    0 -0.18907931868E+02  0.32183206539E+01 -0.80906158592E+01  0.20816472819E+02  0.51100000000E-03 0.  1.
        -11    1    3    3    0    0 -0.61392300005E+01  0.70239264666E+00  0.36607009359E+01  0.71822163733E+01  0.51100000000E-03 0. -1.
         12    1    3    3    0    0 -0.46539269598E+01  0.18698504134E+02 -0.11675424122E+02  0.22530171359E+02  0.00000000000E+00 0. -1.
</event>
<event>
 7    1  0.3141443E-011  0.5052887E+02  0.7816164E-02  0.1300439E+00
        -11   -1    0    0    0    0  0.00000000000E+00  0.00000000000E+00  0.45593999997E+02  0.45594000000E+02  0.51100000000E-03 0.  1.
         11   -1    0    0    0    0 -0.00000000000E+00 -0.00000000000E+00 -0.45593999997E+02  0.45594000000E+02  0.51100000000E-03 0. -1.
    9900012    2    1    2    0    0  0.34705668836E+02 -0.63314245987E+00  0.21172635866E+02  0.50528870297E+02  0.30000031754E+02 0.  0.
         12    1    1    2    0    0 -0.34705668836E+02  0.63314245987E+00 -0.21172635866E+02  0.40659129703E+02  0.00000000000E+00 0. -1.
         11    1    3    3    0    0  0.66379081794E+01 -0.34337758080E+01 -0.17844635956E+01  0.76835507340E+01  0.51100000000E-03 0. -1.
        -11    1    3    3    0    0  0.29100285902E+02  0.14105621222E+01  0.11603005137E+02  0.31359943456E+02  0.51100000000E-03 0.  1.
        -12    1    3    3    0    0 -0.10325252455E+01  0.13900712259E+01  0.11354094324E+02  0.11485376107E+02  0.00000000000E+00 0.  1.
</event>
<event>
 7    1  0.3141443E-011  0.5052888E+02  0.7816164E-02  0.1300439E+00
        -11   -1    0    0    0    0  0.00000000000E+00  0.00000000000E+00  0.45593999997E+02  0.45594000000E+02  0.51100000000E-03 0.  1.
         11   -1    0    0    0    0 -0.00000000000E+00 -0.00000000000E+00 -0.45593999997E+02  0.45594000000E+02  0.51100000000E-03 0. -1.
    9900012    2    1    2    0    0  0.51891593655E+01  0.38066134568E+02  0.13311883412E+02  0.50528877828E+02  0.30000054646E+02 0.  0.
         12    1    1    2    0    0 -0.51891593655E+01 -0.38066134568E+02 -0.13311883412E+02  0.40659122172E+02  0.00000000000E+00 0. -1.
         11    1    3    3    0    0  0.43670606208E+01  0.10472298300E-01 -0.95873426758E-01  0.43681254687E+01  0.51100000000E-03 0. -1.
        -11    1    3    3    0    0 -0.43154174957E+01  0.10040884024E+02  0.13890747133E+02  0.17674700459E+02  0.51100000000E-03 0.  1.
        -12    1    3    3    0    0  0.51375162403E+01  0.28014778245E+02 -0.48299029408E+00  0.28486051901E+02  0.00000000000E+00 0.  1.
</event>
<event>
 7    1  0.3141443E-011  0.5052886E+02  0.7816164E-02  0.1300439E+00
        -11   -1    0    0    0    0  0.00000000000E+00  0.00000000000E+00  0.45593999997E+02  0.45594000000E+02  0.51100000000E-03 0.  1.
         11   -1    0    0    0    0 -0.00000000000E+00 -0.00000000000E+00 -0.45593999997E+02  0.45594000000E+02  0.51100000000E-03 0. -1.
    9900012    2    1    2    0    0 -0.13700780875E+02  0.12684111541E+02  0.36118797561E+02  0.50528860567E+02  0.30000002180E+02 0.  0.
         12    1    1    2    0    0  0.13700780875E+02 -0.12684111541E+02 -0.36118797561E+02  0.40659139433E+02  0.00000000000E+00 0. -1.
         11    1    3    3    0    0  0.66730089548E+01 -0.11942131291E+01  0.87637072787E+01  0.11079610058E+02  0.51100000000E-03 0. -1.
        -11    1    3    3    0    0 -0.11967145470E+01  0.83894836921E+01  0.84108797220E+01  0.11939784767E+02  0.51100000000E-03 0.  1.
         12    1    3    3    0    0 -0.19177075283E+02  0.54888409777E+01  0.18944210560E+02  0.27509465742E+02  0.00000000000E+00 0. -1.
</event>
<event>
 7    1  0.3141443E-011  0.5052886E+02  0.7816164E-02  0.1300439E+00
        -11   -1    0    0    0    0  0.00000000000E+00  0.00000000000E+00  0.45593999997E+02  0.45594000000E+02  0.51100000000E-03 0.  1.
         11   -1    0    0    0    0 -0.00000000000E+00 -0.00000000000E+00 -0.45593999997E+02  0.45594000000E+02  0.51100000000E-03 0. -1.
    9900012    2    1    2    0    0  0.38449255273E+00  0.32193578565E+02  0.24831259265E+02  0.50528858690E+02  0.29999996474E+02 0.  0.
         12    1    1    2    0    0 -0.38449255273E+00 -0.32193578565E+02 -0.24831259265E+02  0.40659141310E+02  0.00000000000E+00 0. -1.
         11    1    3    3    0    0  0.45729193556E+01  0.20495652829E+02  0.14172694907E+02  0.25334732237E+02  0.51100000000E-03 0. -1.
        -11    1    3    3    0    0 -0.76336831264E+00  0.36119697130E+01  0.14964957516E+02  0.15413598221E+02  0.51100000000E-03 0.  1.
         12    1    3    3    0    0 -0.34250584902E+01  0.80859560234E+01 -0.43063931581E+01  0.97805282325E+01  0.00000000000E+00 0. -1.
</event>
<event>
 7    1  0.3141443E-011  0.5052884E+02  0.7816164E-02  0.1300439E+00
        -11   -1    0    0    0    0  0.00000000000E+00  0.00000000000E+00  0.45593999997E+02  0.45594000000E+02  0.51100000000E-03 0. -1.
         11   -1    0    0    0    0 -0.00000000000E+00 -0.00000000000E+00 -0.45593999997E+02  0.45594000000E+02  0.51100000000E-03 0.  1.
    9900012    2    1    2    0    0  0.23956245723E+02  0.28693507436E+02 -0.15998388516E+02  0.50528837279E+02  0.29999931393E+02 0.  0.
         12    1    1    2    0    0 -0.23956245723E+02 -0.28693507436E+02  0.15998388516E+02  0.40659162721E+02  0.00000000000E+00 0. -1.
         11    1    3    3    0    0 -0.31191153563E+01  0.21058035786E+01 -0.57766976447E+00  0.38074915542E+01  0.51100000000E-03 0. -1.
        -11    1    3    3    0    0  0.74152408370E+01  0.16453771337E+02 -0.16669382199E+02  0.24567879254E+02  0.51100000000E-03 0.  1.
         12    1    3    3    0    0  0.19660120242E+02  0.10133932520E+02  0.12486634480E+01  0.22153466471E+02  0.00000000000E+00 0. -1.
</event>
<event>
 7    1  0.3141443E-011  0.5052885E+02  0.7816164E-02  0.1300439E+00
        -11   -1    0    0    0    0  0.00000000000E+00  0.00000000000E+00  0.45593999997E+02  0.45594000000E+02  0.51100000000E-03 0.  1.
         11   -1    0    0    0    0 -0.00000000000E+00 -0.00000000000E+00 -0.45593999997E+02  0.45594000000E+02  0.51100000000E-03 0. -1.
    9900012    2    1    2    0    0  0.22049252156E+02 -0.10365910094E+02  0.32550652779E+02  0.50528848398E+02  0.29999965189E+02 0.  0.
         12    1    1    2    0    0 -0.22049252156E+02  0.10365910094E+02 -0.32550652779E+02  0.40659151602E+02  0.00000000000E+00 0. -1.
         11    1    3    3    0    0 -0.24792904552E+01  0.33793880860E+01  0.96894933325E+01  0.10557150482E+02  0.51100000000E-03 0. -1.
        -11    1    3    3    0    0  0.37292363433E+01  0.37982599071E+01  0.20049437673E+01  0.56880384841E+01  0.51100000000E-03 0.  1.
        -12    1    3    3    0    0  0.20799306268E+02 -0.17543558087E+02  0.20856215679E+02  0.34283659432E+02  0.00000000000E+00 0.  1.
</event>
<event>
 7    1  0.3141443E-011  0.5052885E+02  0.7816164E-02  0.1300439E+00
        -11   -1    0    0    0    0  0.00000000000E+00  0.00000000000E+00  0.45593999997E+02  0.45594000000E+02  0.51100000000E-03 0.  1.
         11   -1    0    0    0    0 -0.00000000000E+00 -0.00000000000E+00 -0.45593999997E+02  0.45594000000E+02  0.51100000000E-03 0. -1.
    9900012    2    1    2    0    0 -0.22313652759E+02 -0.33494034464E+02  0.57807342499E+01  0.50528851797E+02  0.29999975521E+02 0.  0.
         12    1    1    2    0    0  0.22313652759E+02  0.33494034464E+02 -0.57807342499E+01  0.40659148203E+02  0.00000000000E+00 0. -1.
         11    1    3    3    0    0 -0.15952581536E+02 -0.38102769010E+01  0.59486778052E+01  0.17446771496E+02  0.51100000000E-03 0. -1.
        -11    1    3    3    0    0  0.79428114931E+00 -0.12904161945E+02  0.53980643544E+01  0.14010259708E+02  0.51100000000E-03 0.  1.
        -12    1    3    3    0    0 -0.71553523723E+01 -0.16779595618E+02 -0.55660079097E+01  0.19071820593E+02  0.00000000000E+00 0.  1.
</event>
<event>
 7    1  0.3141443E-011  0.5052874E+02  0.7816164E-02  0.1300439E+00
        -11   -1    0    0    0    0  0.00000000000E+00  0.00000000000E+00  0.45593999997E+02  0.45594000000E+02  0.51100000000E-03 0. -1.
         11   -1    0    0    0    0 -0.00000000000E+00 -0.00000000000E+00 -0.45593999997E+02  0.45594000000E+02  0.51100000000E-03 0.  1.
    9900012    2    1    2    0    0 -0.31199851907E+02 -0.25982547842E+02  0.21569050612E+01  0.50528735486E+02  0.29999621982E+02 0.  0.
         12    1    1    2    0    0  0.31199851907E+02  0.25982547842E+02 -0.21569050612E+01  0.40659264514E+02  0.00000000000E+00 0. -1.
         11    1    3    3    0    0 -0.11555326196E+02 -0.14352055915E+02  0.62156342311E+01  0.19445852556E+02  0.51100000000E-03 0. -1.
        -11    1    3    3    0    0 -0.22517603383E+02 -0.12874378023E+02  0.23605522619E-01  0.25938246453E+02  0.51100000000E-03 0.  1.
         12    1    3    3    0    0  0.28730776729E+01  0.12438860961E+01 -0.40823346925E+01  0.51446364766E+01  0.00000000000E+00 0. -1.
</event>
<event>
 7    1  0.3141443E-011  0.5052877E+02  0.7816164E-02  0.1300439E+00
        -11   -1    0    0    0    0  0.00000000000E+00  0.00000000000E+00  0.45593999997E+02  0.45594000000E+02  0.51100000000E-03 0.  1.
         11   -1    0    0    0    0 -0.00000000000E+00 -0.00000000000E+00 -0.45593999997E+02  0.45594000000E+02  0.51100000000E-03 0. -1.
    9900012    2    1    2    0    0 -0.23255493355E+02  0.25784993465E+01  0.33252167772E+02  0.50528766220E+02  0.29999715401E+02 0.  0.
         12    1    1    2    0    0  0.23255493355E+02 -0.25784993465E+01 -0.33252167772E+02  0.40659233780E+02  0.00000000000E+00 0. -1.
         11    1    3    3    0    0 -0.83343620039E+00  0.50528351938E+01 -0.20443036553E+01  0.55140672005E+01  0.51100000000E-03 0. -1.
        -11    1    3    3    0    0 -0.94405961551E+01  0.64811763044E+01  0.99905369184E+01  0.15196753937E+02  0.51100000000E-03 0.  1.
        -12    1    3    3    0    0 -0.12981460999E+02 -0.89555121516E+01  0.25305934509E+02  0.29817945082E+02  0.00000000000E+00 0.  1.
</event>
<event>
 7    1  0.3141443E-011  0.5052887E+02  0.7816164E-02  0.1300439E+00
        -11   -1    0    0    0    0  0.00000000000E+00  0.00000000000E+00  0.45593999997E+02  0.45594000000E+02  0.51100000000E-03 0.  1.
         11   -1    0    0    0    0 -0.00000000000E+00 -0.00000000000E+00 -0.45593999997E+02  0.45594000000E+02  0.51100000000E-03 0. -1.
    9900012    2    1    2    0    0 -0.35294747977E+02 -0.45681277877E+01  0.19661579788E+02  0.50528871308E+02  0.30000034828E+02 0.  0.
         12    1    1    2    0    0  0.35294747977E+02  0.45681277877E+01 -0.19661579788E+02  0.40659128692E+02  0.00000000000E+00 0. -1.
         11    1    3    3    0    0 -0.91541006341E+00  0.30576210906E+01 -0.16939795678E+01  0.36133902855E+01  0.51100000000E-03 0. -1.
        -11    1    3    3    0    0 -0.21991015873E+02  0.38016233567E+01  0.39075479424E+01  0.22656699902E+02  0.51100000000E-03 0.  1.
         12    1    3    3    0    0 -0.12388322040E+02 -0.11427372235E+02  0.17448011413E+02  0.24258781120E+02  0.00000000000E+00 0. -1.
</event>
<event>
 7    1  0.3141443E-011  0.5052886E+02  0.7816164E-02  0.1300439E+00
        -11   -1    0    0    0    0  0.00000000000E+00  0.00000000000E+00  0.45593999997E+02  0.45594000000E+02  0.51100000000E-03 0. -1.
         11   -1    0    0    0    0 -0.00000000000E+00 -0.00000000000E+00 -0.45593999997E+02  0.45594000000E+02  0.51100000000E-03 0.  1.
    9900012    2    1    2    0    0 -0.18496538346E+02  0.33648410922E+02 -0.13372653260E+02  0.50528863959E+02  0.30000012490E+02 0.  0.
         12    1    1    2    0    0  0.18496538346E+02 -0.33648410922E+02  0.13372653260E+02  0.40659136041E+02  0.00000000000E+00 0. -1.
         11    1    3    3    0    0 -0.15172152020E+02  0.33895204390E+02 -0.10942118231E+02  0.38714455042E+02  0.51100000000E-03 0.  1.
        -11    1    3    3    0    0  0.15127072953E+01  0.45197821627E+01 -0.84053397446E+00  0.48397532770E+01  0.51100000000E-03 0. -1.
         12    1    3    3    0    0 -0.48370936213E+01 -0.47665756304E+01 -0.15900010552E+01  0.69746556400E+01  0.00000000000E+00 0. -1.
</event>
<event>
 7    1  0.3141443E-011  0.5052886E+02  0.7816164E-02  0.1300439E+00
        -11   -1    0    0    0    0  0.00000000000E+00  0.00000000000E+00  0.45593999997E+02  0.45594000000E+02  0.51100000000E-03 0.  1.
         11   -1    0    0    0    0 -0.00000000000E+00 -0.00000000000E+00 -0.45593999997E+02  0.45594000000E+02  0.51100000000E-03 0. -1.
    9900012    2    1    2    0    0 -0.11523291493E+02 -0.31830373834E+02  0.22521256781E+02  0.50528856474E+02  0.29999989738E+02 0.  0.
         12    1    1    2    0    0  0.11523291493E+02  0.31830373834E+02 -0.22521256781E+02  0.40659143526E+02  0.00000000000E+00 0. -1.
         11    1    3    3    0    0 -0.64447941705E+01 -0.37378909786E+01  0.22119848320E+01  0.77717487109E+01  0.51100000000E-03 0. -1.
        -11    1    3    3    0    0 -0.94625765799E+01 -0.27458972348E+02  0.86803479965E+01  0.30313098811E+02  0.51100000000E-03 0.  1.
        -12    1    3    3    0    0  0.43840792575E+01 -0.63351050784E+00  0.11628923953E+02  0.12444008952E+02  0.00000000000E+00 0.  1.
</event>
<event>
 7    1  0.3141443E-011  0.5052887E+02  0.7816164E-02  0.1300439E+00
        -11   -1    0    0    0    0  0.00000000000E+00  0.00000000000E+00  0.45593999997E+02  0.45594000000E+02  0.51100000000E-03 0.  1.
         11   -1    0    0    0    0 -0.00000000000E+00 -0.00000000000E+00 -0.45593999997E+02  0.45594000000E+02  0.51100000000E-03 0. -1.
    9900012    2    1    2    0    0 -0.29660664978E+02  0.12104680047E+02  0.25037701586E+02  0.50528870316E+02  0.30000031812E+02 0.  0.
         12    1    1    2    0    0  0.29660664978E+02 -0.12104680047E+02 -0.25037701586E+02  0.40659129684E+02  0.00000000000E+00 0. -1.
         11    1    3    3    0    0 -0.42464421371E+01  0.87505975321E+01  0.28420856850E+01  0.10133246237E+02  0.51100000000E-03 0. -1.
        -11    1    3    3    0    0 -0.74470224271E+01  0.11688242877E+02  0.77257723294E+01  0.15866969558E+02  0.51100000000E-03 0.  1.
        -12    1    3    3    0    0 -0.17967200413E+02 -0.83341603625E+01  0.14469843572E+02  0.24528654522E+02  0.00000000000E+00 0.  1.
</event>
<event>
 7    1  0.3141443E-011  0.5052886E+02  0.7816164E-02  0.1300439E+00
        -11   -1    0    0    0    0  0.00000000000E+00  0.00000000000E+00  0.45593999997E+02  0.45594000000E+02  0.51100000000E-03 0.  1.
         11   -1    0    0    0    0 -0.00000000000E+00 -0.00000000000E+00 -0.45593999997E+02  0.45594000000E+02  0.51100000000E-03 0. -1.
    9900012    2    1    2    0    0 -0.23871875606E+01  0.28024720818E+02  0.29361230710E+02  0.50528861910E+02  0.30000006263E+02 0.  0.
         12    1    1    2    0    0  0.23871875606E+01 -0.28024720818E+02 -0.29361230710E+02  0.40659138090E+02  0.00000000000E+00 0. -1.
         11    1    3    3    0    0 -0.40999145338E+01  0.32186838421E+01  0.13778886039E+02  0.14731833749E+02  0.51100000000E-03 0. -1.
        -11    1    3    3    0    0  0.35603662275E+01  0.15738322487E+02  0.19871095508E+02  0.25597488926E+02  0.51100000000E-03 0.  1.
         12    1    3    3    0    0 -0.18476392543E+01  0.90677144887E+01 -0.42887508374E+01  0.10199539235E+02  0.00000000000E+00 0. -1.
</event>
<event>
 7    1  0.3141443E-011  0.5052886E+02  0.7816164E-02  0.1300439E+00
        -11   -1    0    0    0    0  0.00000000000E+00  0.00000000000E+00  0.45593999997E+02  0.45594000000E+02  0.51100000000E-03 0.  1.
         11   -1    0    0    0    0 -0.00000000000E+00 -0.00000000000E+00 -0.45593999997E+02  0.45594000000E+02  0.51100000000E-03 0. -1.
    9900012    2    1    2    0    0  0.26676483943E+02  0.21322916081E+02  0.22064999970E+02  0.50528858722E+02  0.29999996573E+02 0.  0.
         12    1    1    2    0    0 -0.26676483943E+02 -0.21322916081E+02 -0.22064999970E+02  0.40659141278E+02  0.00000000000E+00 0. -1.
         11    1    3    3    0    0 -0.25190774109E+01 -0.85275735278E+00  0.26985847899E+01  0.37888396950E+01  0.51100000000E-03 0. -1.
        -11    1    3    3    0    0  0.13200911946E+02  0.29044268115E+01 -0.21941419599E+01  0.13693576250E+02  0.51100000000E-03 0.  1.
         12    1    3    3    0    0  0.15994649408E+02  0.19271246622E+02  0.21560557140E+02  0.33046442777E+02  0.00000000000E+00 0. -1.
</event>
<event>
 7    1  0.3141443E-011  0.5052886E+02  0.7816164E-02  0.1300439E+00
        -11   -1    0    0    0    0  0.00000000000E+00  0.00000000000E+00  0.45593999997E+02  0.45594000000E+02  0.51100000000E-03 0.  1.
         11   -1    0    0    0    0 -0.00000000000E+00 -0.00000000000E+00 -0.45593999997E+02  0.45594000000E+02  0.51100000000E-03 0. -1.
    9900012    2    1    2    0    0 -0.31409325985E+02 -0.20548838978E+02 -0.15632181747E+02  0.50528860211E+02  0.30000001098E+02 0.  0.
         12    1    1    2    0    0  0.31409325985E+02  0.20548838978E+02  0.15632181747E+02  0.40659139789E+02  0.00000000000E+00 0. -1.
         11    1    3    3    0    0 -0.70097805727E+01 -0.12302227962E+02  0.69411742587E+00  0.14176164353E+02  0.51100000000E-03 0. -1.
        -11    1    3    3    0    0 -0.24695422747E+02 -0.77411953936E+00 -0.10384141932E+02  0.26800999415E+02  0.51100000000E-03 0.  1.
         12    1    3    3    0    0  0.29587733479E+00 -0.74724914770E+01 -0.59421572406E+01  0.95516964432E+01  0.00000000000E+00 0. -1.
</event>
<event>
 7    1  0.3141443E-011  0.5052886E+02  0.7816164E-02  0.1300439E+00
        -11   -1    0    0    0    0  0.00000000000E+00  0.00000000000E+00  0.45593999997E+02  0.45594000000E+02  0.51100000000E-03 0. -1.
         11   -1    0    0    0    0 -0.00000000000E+00 -0.00000000000E+00 -0.45593999997E+02  0.45594000000E+02  0.51100000000E-03 0.  1.
    9900012    2    1    2    0    0 -0.10011761459E+02  0.29343933587E+02 -0.26303305639E+02  0.50528859657E+02  0.29999999414E+02 0.  0.
         12    1    1    2    0    0  0.10011761459E+02 -0.29343933587E+02  0.26303305639E+02  0.40659140343E+02  0.00000000000E+00 0. -1.
         11    1    3    3    0    0 -0.30922979128E+01  0.79993893124E+01  0.37376992988E+01  0.93553691569E+01  0.51100000000E-03 0. -1.
        -11    1    3    3    0    0  0.33711870374E+01  0.35785934458E+01 -0.16025923148E+00  0.49190361224E+01  0.51100000000E-03 0.  1.
        -12    1    3    3    0    0 -0.10290650584E+02  0.17765950829E+02 -0.29880745706E+02  0.36254454378E+02  0.00000000000E+00 0.  1.
</event>
<event>
 7    1  0.3141443E-011  0.5052889E+02  0.7816164E-02  0.1300439E+00
        -11   -1    0    0    0    0  0.00000000000E+00  0.00000000000E+00  0.45593999997E+02  0.45594000000E+02  0.51100000000E-03 0. -1.
         11   -1    0    0    0    0 -0.00000000000E+00 -0.00000000000E+00 -0.45593999997E+02  0.45594000000E+02  0.51100000000E-03 0.  1.
    9900012    2    1    2    0    0 -0.23236855897E+02 -0.23554512893E+02 -0.23630425121E+02  0.50528886126E+02  0.30000079868E+02 0.  0.
         12    1    1    2    0    0  0.23236855897E+02  0.23554512893E+02  0.23630425121E+02  0.40659113874E+02  0.00000000000E+00 0. -1.
         11    1    3    3    0    0 -0.64841191255E+01 -0.20003465525E+02 -0.16259056043E+02  0.26580807691E+02  0.51100000000E-03 0. -1.
        -11    1    3    3    0    0 -0.47484135766E+01 -0.65223591059E+00 -0.10207889112E+02  0.11277138093E+02  0.51100000000E-03 0.  1.
        -12    1    3    3    0    0 -0.12004323195E+02 -0.28988114577E+01  0.28365200339E+01  0.12670940342E+02  0.00000000000E+00 0.  1.
</event>
<event>
 7    1  0.3141443E-011  0.5052886E+02  0.7816164E-02  0.1300439E+00
        -11   -1    0    0    0    0  0.00000000000E+00  0.00000000000E+00  0.45593999997E+02  0.45594000000E+02  0.51100000000E-03 0.  1.
         11   -1    0    0    0    0 -0.00000000000E+00 -0.00000000000E+00 -0.45593999997E+02  0.45594000000E+02  0.51100000000E-03 0. -1.
    9900012    2    1    2    0    0  0.31914716699E+02  0.22423376391E+02  0.11480788617E+02  0.50528862552E+02  0.30000008212E+02 0.  0.
         12    1    1    2    0    0 -0.31914716699E+02 -0.22423376391E+02 -0.11480788617E+02  0.40659137448E+02  0.00000000000E+00 0. -1.
         11    1    3    3    0    0  0.13382074878E+00  0.53917349633E+00 -0.29229612204E+01  0.29752846266E+01  0.51100000000E-03 0. -1.
        -11    1    3    3    0    0  0.11745097342E+02 -0.29980213970E+01  0.91291747779E+01  0.15174889662E+02  0.51100000000E-03 0.  1.
        -12    1    3    3    0    0  0.20035798608E+02  0.24882224292E+02  0.52745750598E+01  0.32378688263E+02  0.00000000000E+00 0.  1.
</event>
<event>
 7    1  0.3141443E-011  0.5052887E+02  0.7816164E-02  0.1300439E+00
        -11   -1    0    0    0    0  0.00000000000E+00  0.00000000000E+00  0.45593999997E+02  0.45594000000E+02  0.51100000000E-03 0.  1.
         11   -1    0    0    0    0 -0.00000000000E+00 -0.00000000000E+00 -0.45593999997E+02  0.45594000000E+02  0.51100000000E-03 0. -1.
    9900012    2    1    2    0    0 -0.30522207849E+02 -0.19982985557E+01  0.26787436714E+02  0.50528866527E+02  0.30000020295E+02 0.  0.
         12    1    1    2    0    0  0.30522207849E+02  0.19982985557E+01 -0.26787436714E+02  0.40659133473E+02  0.00000000000E+00 0. -1.
         11    1    3    3    0    0 -0.26734043810E+02  0.29803815214E+01  0.13861311990E+02  0.30260993751E+02  0.51100000000E-03 0. -1.
        -11    1    3    3    0    0 -0.31605820518E+01  0.11779469290E+01  0.13628428450E+02  0.14039618946E+02  0.51100000000E-03 0.  1.
         12    1    3    3    0    0 -0.62758198645E+00 -0.61566270061E+01 -0.70230372602E+00  0.62282538296E+01  0.00000000000E+00 0. -1.
</event>
<event>
 7    1  0.3141443E-011  0.5052886E+02  0.7816164E-02  0.1300439E+00
        -11   -1    0    0    0    0  0.00000000000E+00  0.00000000000E+00  0.45593999997E+02  0.45594000000E+02  0.51100000000E-03 0.  1.
         11   -1    0    0    0    0 -0.00000000000E+00 -0.00000000000E+00 -0.45593999997E+02  0.45594000000E+02  0.51100000000E-03 0. -1.
    9900012    2    1    2    0    0 -0.11850404987E+02  0.20019958607E+02  0.33345683706E+02  0.50528862493E+02  0.30000008034E+02 0.  0.
         12    1    1    2    0    0  0.11850404987E+02 -0.20019958607E+02 -0.33345683706E+02  0.40659137507E+02  0.00000000000E+00 0. -1.
         11    1    3    3    0    0  0.49945672163E+01  0.14277929497E+01  0.32465603924E+01  0.61257202865E+01  0.51100000000E-03 0.  1.
        -11    1    3    3    0    0 -0.45744455165E+01  0.62718398884E+01 -0.18935230786E+01  0.79904291049E+01  0.51100000000E-03 0. -1.
        -12    1    3    3    0    0 -0.12270526687E+02  0.12320325768E+02  0.31992646393E+02  0.36412713102E+02  0.00000000000E+00 0.  1.
</event>
<event>
 7    1  0.3141443E-011  0.5052887E+02  0.7816164E-02  0.1300439E+00
        -11   -1    0    0    0    0  0.00000000000E+00  0.00000000000E+00  0.45593999997E+02  0.45594000000E+02  0.51100000000E-03 0. -1.
         11   -1    0    0    0    0 -0.00000000000E+00 -0.00000000000E+00 -0.45593999997E+02  0.45594000000E+02  0.51100000000E-03 0.  1.
    9900012    2    1    2    0    0 -0.21830552677E+02  0.20915741769E+02 -0.27186833348E+02  0.50528865830E+02  0.30000018177E+02 0.  0.
         12    1    1    2    0    0  0.21830552677E+02 -0.20915741769E+02  0.27186833348E+02  0.40659134170E+02  0.00000000000E+00 0. -1.
         11    1    3    3    0    0 -0.23017422075E+02  0.87334623157E+01 -0.19326296739E+02  0.31298256004E+02  0.51100000000E-03 0. -1.
        -11    1    3    3    0    0 -0.51255957616E+01  0.91761865698E+01 -0.40172201857E+01  0.11252208235E+02  0.51100000000E-03 0.  1.
        -12    1    3    3    0    0  0.63124651595E+01  0.30060928839E+01 -0.38433164235E+01  0.79784015910E+01  0.00000000000E+00 0.  1.
</event>
<event>
 7    1  0.3141443E-011  0.5052886E+02  0.7816164E-02  0.1300439E+00
        -11   -1    0    0    0    0  0.00000000000E+00  0.00000000000E+00  0.45593999997E+02  0.45594000000E+02  0.51100000000E-03 0.  1.
         11   -1    0    0    0    0 -0.00000000000E+00 -0.00000000000E+00 -0.45593999997E+02  0.45594000000E+02  0.51100000000E-03 0. -1.
    9900012    2    1    2    0    0 -0.72610134923E+01 -0.36091137409E+01  0.39842408836E+02  0.50528861289E+02  0.30000004373E+02 0.  0.
         12    1    1    2    0    0  0.72610134923E+01  0.36091137409E+01 -0.39842408836E+02  0.40659138711E+02  0.00000000000E+00 0. -1.
         11    1    3    3    0    0  0.50145752285E+01 -0.81258100035E+01  0.55745098211E+01  0.11056668257E+02  0.51100000000E-03 0. -1.
        -11    1    3    3    0    0 -0.65156973199E+01 -0.50324320942E+01  0.17425706563E+02  0.19272647297E+02  0.51100000000E-03 0.  1.
         12    1    3    3    0    0 -0.57598914009E+01  0.95491283568E+01  0.16842192452E+02  0.20199545735E+02  0.00000000000E+00 0. -1.
</event>
<event>
 7    1  0.3141443E-011  0.5052886E+02  0.7816164E-02  0.1300439E+00
        -11   -1    0    0    0    0  0.00000000000E+00  0.00000000000E+00  0.45593999997E+02  0.45594000000E+02  0.51100000000E-03 0.  1.
         11   -1    0    0    0    0 -0.00000000000E+00 -0.00000000000E+00 -0.45593999997E+02  0.45594000000E+02  0.51100000000E-03 0. -1.
    9900012    2    1    2    0    0 -0.25353269725E+02 -0.45600488835E+01  0.31457642811E+02  0.50528860525E+02  0.30000002053E+02 0.  0.
         12    1    1    2    0    0  0.25353269725E+02  0.45600488835E+01 -0.31457642811E+02  0.40659139475E+02  0.00000000000E+00 0. -1.
         11    1    3    3    0    0 -0.18258740619E+01 -0.14334817628E+01 -0.16630612984E+01  0.28556013723E+01  0.51100000000E-03 0. -1.
        -11    1    3    3    0    0 -0.25134727249E+02  0.18517734249E+01  0.16195307586E+02  0.29957829807E+02  0.51100000000E-03 0.  1.
         12    1    3    3    0    0  0.16073315857E+01 -0.49783405455E+01  0.16925396524E+02  0.17715429346E+02  0.00000000000E+00 0. -1.
</event>
<event>
 7    1  0.3141443E-011  0.5052886E+02  0.7816164E-02  0.1300439E+00
        -11   -1    0    0    0    0  0.00000000000E+00  0.00000000000E+00  0.45593999997E+02  0.45594000000E+02  0.51100000000E-03 0. -1.
         11   -1    0    0    0    0 -0.00000000000E+00 -0.00000000000E+00 -0.45593999997E+02  0.45594000000E+02  0.51100000000E-03 0.  1.
    9900012    2    1    2    0    0 -0.12644683699E+02  0.78886450533E+01 -0.37829183340E+02  0.50528857624E+02  0.29999993233E+02 0.  0.
         12    1    1    2    0    0  0.12644683699E+02 -0.78886450533E+01  0.37829183340E+02  0.40659142376E+02  0.00000000000E+00 0. -1.
         11    1    3    3    0    0 -0.13075960733E+01 -0.49445130786E+01 -0.75806332053E+01  0.91446168388E+01  0.51100000000E-03 0. -1.
        -11    1    3    3    0    0 -0.11560055131E+02 -0.67241744403E+00 -0.47242549273E+01  0.12506222640E+02  0.51100000000E-03 0.  1.
         12    1    3    3    0    0  0.22296750465E+00  0.13505575576E+02 -0.25524295207E+02  0.28878018145E+02  0.00000000000E+00 0. -1.
</event>
<event>
 7    1  0.3141443E-011  0.5052887E+02  0.7816164E-02  0.1300439E+00
        -11   -1    0    0    0    0  0.00000000000E+00  0.00000000000E+00  0.45593999997E+02  0.45594000000E+02  0.51100000000E-03 0. -1.
         11   -1    0    0    0    0 -0.00000000000E+00 -0.00000000000E+00 -0.45593999997E+02  0.45594000000E+02  0.51100000000E-03 0.  1.
    9900012    2    1    2    0    0 -0.20394626718E+02  0.29676932720E+02  0.18881311217E+02  0.50528867595E+02  0.30000023543E+02 0.  0.
         12    1    1    2    0    0  0.20394626718E+02 -0.29676932720E+02 -0.18881311217E+02  0.40659132405E+02  0.00000000000E+00 0. -1.
         11    1    3    3    0    0  0.37730450055E+01  0.29985534945E+01  0.64859350845E+01  0.80805040595E+01  0.51100000000E-03 0. -1.
        -11    1    3    3    0    0 -0.30555720670E+01  0.14705684693E+02 -0.37209967176E+00  0.15024384892E+02  0.51100000000E-03 0.  1.
         12    1    3    3    0    0 -0.21112099656E+02  0.11972694532E+02  0.12767475805E+02  0.27423978644E+02  0.00000000000E+00 0. -1.
</event>
<event>
 7    1  0.3141443E-011  0.5052886E+02  0.7816164E-02  0.1300439E+00
        -11   -1    0    0    0    0  0.00000000000E+00  0.00000000000E+00  0.45593999997E+02  0.45594000000E+02  0.51100000000E-03 0. -1.
         11   -1    0    0    0    0 -0.00000000000E+00 -0.00000000000E+00 -0.45593999997E+02  0.45594000000E+02  0.51100000000E-03 0.  1.
    9900012    2    1    2    0    0  0.24924370754E+02  0.30513851218E+02 -0.10042227767E+02  0.50528859427E+02  0.29999998713E+02 0.  0.
         12    1    1    2    0    0 -0.24924370754E+02 -0.30513851218E+02  0.10042227767E+02  0.40659140573E+02  0.00000000000E+00 0. -1.
         11    1    3    3    0    0  0.13382337883E+02  0.64637254173E+01 -0.49486020678E+01  0.15663823805E+02  0.51100000000E-03 0. -1.
        -11    1    3    3    0    0  0.12455432660E+02  0.25010540482E+02 -0.10081887764E+02  0.29703693358E+02  0.51100000000E-03 0.  1.
        -12    1    3    3    0    0 -0.91339978871E+00 -0.96041468150E+00  0.49882620653E+01  0.51613422640E+01  0.00000000000E+00 0.  1.
</event>
<event>
 7    1  0.3141443E-011  0.5052887E+02  0.7816164E-02  0.1300439E+00
        -11   -1    0    0    0    0  0.00000000000E+00  0.00000000000E+00  0.45593999997E+02  0.45594000000E+02  0.51100000000E-03 0.  1.
         11   -1    0    0    0    0 -0.00000000000E+00 -0.00000000000E+00 -0.45593999997E+02  0.45594000000E+02  0.51100000000E-03 0. -1.
    9900012    2    1    2    0    0  0.39624413461E+02  0.62270867857E+01  0.66554050777E+01  0.50528866110E+02  0.30000019027E+02 0.  0.
         12    1    1    2    0    0 -0.39624413461E+02 -0.62270867857E+01 -0.66554050777E+01  0.40659133890E+02  0.00000000000E+00 0. -1.
         11    1    3    3    0    0  0.11354580872E+02 -0.70751973347E+01 -0.60532632734E+01  0.14684240553E+02  0.51100000000E-03 0.  1.
        -11    1    3    3    0    0  0.12070286908E+01  0.50951587774E+01  0.19843305184E+01  0.55995650808E+01  0.51100000000E-03 0. -1.
        -12    1    3    3    0    0  0.27062803898E+02  0.82071253431E+01  0.10724337833E+02  0.30245060476E+02  0.00000000000E+00 0.  1.
</event>
<event>
 7    1  0.3708887E-011  0.5052885E+02  0.7816164E-02  0.1300439E+00
        -11   -1    0    0    0    0  0.00000000000E+00  0.00000000000E+00  0.45593999997E+02  0.45594000000E+02  0.51100000000E-03 0.  1.
         11   -1    0    0    0    0 -0.00000000000E+00 -0.00000000000E+00 -0.45593999997E+02  0.45594000000E+02  0.51100000000E-03 0. -1.
    9900012    2    1    2    0    0  0.36240044873E+02  0.10846237187E+02  0.14905864268E+02  0.50528849700E+02  0.29999969148E+02 0.  0.
         12    1    1    2    0    0 -0.36240044873E+02 -0.10846237187E+02 -0.14905864268E+02  0.40659150300E+02  0.00000000000E+00 0. -1.
         11    1    3    3    0    0  0.76195740533E+01 -0.10053014299E+01 -0.64974592177E+01  0.10064070561E+02  0.51100000000E-03 0. -1.
        -11    1    3    3    0    0  0.33571369908E+01  0.80591236807E+01  0.65482754669E+01  0.10913283426E+02  0.51100000000E-03 0.  1.
        -12    1    3    3    0    0  0.25263333829E+02  0.37924149359E+01  0.14855048019E+02  0.29551495713E+02  0.00000000000E+00 0.  1.
</event>
<event>
 7    1  0.3141443E-011  0.5052888E+02  0.7816164E-02  0.1300439E+00
        -11   -1    0    0    0    0  0.00000000000E+00  0.00000000000E+00  0.45593999997E+02  0.45594000000E+02  0.51100000000E-03 0.  1.
         11   -1    0    0    0    0 -0.00000000000E+00 -0.00000000000E+00 -0.45593999997E+02  0.45594000000E+02  0.51100000000E-03 0. -1.
    9900012    2    1    2    0    0 -0.12710632164E+02 -0.36495252963E+02 -0.12637246523E+02  0.50528884681E+02  0.30000075477E+02 0.  0.
         12    1    1    2    0    0  0.12710632164E+02  0.36495252963E+02  0.12637246523E+02  0.40659115319E+02  0.00000000000E+00 0. -1.
         11    1    3    3    0    0 -0.73945914836E+01 -0.21098096462E+02 -0.95418982341E+01  0.24307560134E+02  0.51100000000E-03 0.  1.
        -11    1    3    3    0    0 -0.58854988383E+00 -0.34121307946E+01  0.83176133148E+01  0.90095348959E+01  0.51100000000E-03 0. -1.
         12    1    3    3    0    0 -0.47274907966E+01 -0.11985025707E+02 -0.11412961604E+02  0.17211789651E+02  0.00000000000E+00 0. -1.
</event>
<event>
 7    1  0.3141443E-011  0.5052887E+02  0.7816164E-02  0.1300439E+00
        -11   -1    0    0    0    0  0.00000000000E+00  0.00000000000E+00  0.45593999997E+02  0.45594000000E+02  0.51100000000E-03 0. -1.
         11   -1    0    0    0    0 -0.00000000000E+00 -0.00000000000E+00 -0.45593999997E+02  0.45594000000E+02  0.51100000000E-03 0.  1.
    9900012    2    1    2    0    0  0.12815947192E+02  0.18946828453E+02 -0.33614496351E+02  0.50528866023E+02  0.30000018762E+02 0.  0.
         12    1    1    2    0    0 -0.12815947192E+02 -0.18946828453E+02  0.33614496351E+02  0.40659133977E+02  0.00000000000E+00 0. -1.
         11    1    3    3    0    0 -0.37273743705E+01  0.14711679894E+02 -0.26801207017E+02  0.30799862708E+02  0.51100000000E-03 0.  1.
        -11    1    3    3    0    0  0.13358625418E+01 -0.83857471654E+00  0.10278752677E+01  0.18826216064E+01  0.51100000000E-03 0. -1.
        -12    1    3    3    0    0  0.15207459021E+02  0.50737232757E+01 -0.78411646013E+01  0.17846381708E+02  0.00000000000E+00 0.  1.
</event>
<event>
 7    1  0.3141443E-011  0.5052886E+02  0.7816164E-02  0.1300439E+00
        -11   -1    0    0    0    0  0.00000000000E+00  0.00000000000E+00  0.45593999997E+02  0.45594000000E+02  0.51100000000E-03 0.  1.
         11   -1    0    0    0    0 -0.00000000000E+00 -0.00000000000E+00 -0.45593999997E+02  0.45594000000E+02  0.51100000000E-03 0. -1.
    9900012    2    1    2    0    0  0.38331818807E+02  0.12827928322E+02 -0.43911217991E+01  0.50528855534E+02  0.29999986881E+02 0.  0.
         12    1    1    2    0    0 -0.38331818807E+02 -0.12827928322E+02  0.43911217991E+01  0.40659144466E+02  0.00000000000E+00 0. -1.
         11    1    3    3    0    0  0.20653934331E+02 -0.28864601165E+01  0.40745546875E+01  0.21248968246E+02  0.51100000000E-03 0. -1.
        -11    1    3    3    0    0 -0.10604979716E+01  0.21006701332E+01  0.26880743508E+01  0.35725641958E+01  0.51100000000E-03 0.  1.
        -12    1    3    3    0    0  0.18738382447E+02  0.13613718305E+02 -0.11153750837E+02  0.25707323092E+02  0.00000000000E+00 0.  1.
</event>
<event>
 7    1  0.3141443E-011  0.5052886E+02  0.7816164E-02  0.1300439E+00
        -11   -1    0    0    0    0  0.00000000000E+00  0.00000000000E+00  0.45593999997E+02  0.45594000000E+02  0.51100000000E-03 0. -1.
         11   -1    0    0    0    0 -0.00000000000E+00 -0.00000000000E+00 -0.45593999997E+02  0.45594000000E+02  0.51100000000E-03 0.  1.
    9900012    2    1    2    0    0 -0.21543410472E+02  0.19464255099E+02 -0.28463838264E+02  0.50528857731E+02  0.29999993559E+02 0.  0.
         12    1    1    2    0    0  0.21543410472E+02 -0.19464255099E+02  0.28463838264E+02  0.40659142269E+02  0.00000000000E+00 0. -1.
         11    1    3    3    0    0 -0.14614206836E+01  0.68101656308E+01 -0.15344127556E+02  0.16851004630E+02  0.51100000000E-03 0.  1.
        -11    1    3    3    0    0 -0.14203754994E+02  0.80460722910E+00 -0.14579122330E+02  0.20370195309E+02  0.51100000000E-03 0. -1.
        -12    1    3    3    0    0 -0.58782347939E+01  0.11849482239E+02  0.14594116218E+01  0.13307657792E+02  0.00000000000E+00 0.  1.
</event>
<event>
 7    1  0.3141443E-011  0.5052886E+02  0.7816164E-02  0.1300439E+00
        -11   -1    0    0    0    0  0.00000000000E+00  0.00000000000E+00  0.45593999997E+02  0.45594000000E+02  0.51100000000E-03 0.  1.
         11   -1    0    0    0    0 -0.00000000000E+00 -0.00000000000E+00 -0.45593999997E+02  0.45594000000E+02  0.51100000000E-03 0. -1.
    9900012    2    1    2    0    0  0.24255980202E+02 -0.63778300193E+01  0.32002130080E+02  0.50528860548E+02  0.30000002121E+02 0.  0.
         12    1    1    2    0    0 -0.24255980202E+02  0.63778300193E+01 -0.32002130080E+02  0.40659139452E+02  0.00000000000E+00 0. -1.
         11    1    3    3    0    0 -0.13463452867E+00  0.19488913165E+00  0.90070328645E+01  0.90101470306E+01  0.51100000000E-03 0. -1.
        -11    1    3    3    0    0  0.35140234651E+01 -0.18654307021E+01  0.19417667280E+02  0.19821049303E+02  0.51100000000E-03 0.  1.
         12    1    3    3    0    0  0.20876591265E+02 -0.47072884488E+01  0.35774299358E+01  0.21697664214E+02  0.00000000000E+00 0. -1.
</event>
<event>
 7    1  0.3141443E-011  0.5052886E+02  0.7816164E-02  0.1300439E+00
        -11   -1    0    0    0    0  0.00000000000E+00  0.00000000000E+00  0.45593999997E+02  0.45594000000E+02  0.51100000000E-03 0.  1.
         11   -1    0    0    0    0 -0.00000000000E+00 -0.00000000000E+00 -0.45593999997E+02  0.45594000000E+02  0.51100000000E-03 0. -1.
    9900012    2    1    2    0    0 -0.20592607353E+02  0.34595216180E+02  0.56816284488E+01  0.50528863733E+02  0.30000011802E+02 0.  0.
         12    1    1    2    0    0  0.20592607353E+02 -0.34595216180E+02 -0.56816284488E+01  0.40659136267E+02  0.00000000000E+00 0. -1.
         11    1    3    3    0    0 -0.77004943286E+01  0.34003630263E+01  0.31854964711E+01  0.90004149707E+01  0.51100000000E-03 0. -1.
        -11    1    3    3    0    0 -0.52955923988E+01  0.76208187557E+00 -0.69496442688E+01  0.87704973271E+01  0.51100000000E-03 0.  1.
        -12    1    3    3    0    0 -0.75965206257E+01  0.30432771279E+02  0.94457762466E+01  0.32757951435E+02  0.00000000000E+00 0.  1.
</event>
<event>
 7    1  0.3141443E-011  0.5052886E+02  0.7816164E-02  0.1300439E+00
        -11   -1    0    0    0    0  0.00000000000E+00  0.00000000000E+00  0.45593999997E+02  0.45594000000E+02  0.51100000000E-03 0. -1.
         11   -1    0    0    0    0 -0.00000000000E+00 -0.00000000000E+00 -0.45593999997E+02  0.45594000000E+02  0.51100000000E-03 0.  1.
    9900012    2    1    2    0    0 -0.11891126581E+02 -0.37851698079E+02 -0.88890699303E+01  0.50528861998E+02  0.30000006529E+02 0.  0.
         12    1    1    2    0    0  0.11891126581E+02  0.37851698079E+02  0.88890699303E+01  0.40659138002E+02  0.00000000000E+00 0. -1.
         11    1    3    3    0    0  0.53227730972E+01 -0.43822846201E+00 -0.31045917374E+01  0.61775762032E+01  0.51100000000E-03 0. -1.
        -11    1    3    3    0    0 -0.60121945466E+01 -0.29349559387E+02 -0.59682225562E+01  0.30547713502E+02  0.51100000000E-03 0.  1.
        -12    1    3    3    0    0 -0.11201705131E+02 -0.80639102307E+01  0.18374436334E+00  0.13803572293E+02  0.00000000000E+00 0.  1.
</event>
<event>
 7    1  0.3141443E-011  0.5052886E+02  0.7816164E-02  0.1300439E+00
        -11   -1    0    0    0    0  0.00000000000E+00  0.00000000000E+00  0.45593999997E+02  0.45594000000E+02  0.51100000000E-03 0.  1.
         11   -1    0    0    0    0 -0.00000000000E+00 -0.00000000000E+00 -0.45593999997E+02  0.45594000000E+02  0.51100000000E-03 0. -1.
    9900012    2    1    2    0    0 -0.23337267224E+02 -0.40840658407E+01  0.33043276486E+02  0.50528858885E+02  0.29999997068E+02 0.  0.
         12    1    1    2    0    0  0.23337267224E+02  0.40840658407E+01 -0.33043276486E+02  0.40659141115E+02  0.00000000000E+00 0. -1.
         11    1    3    3    0    0 -0.75612222674E+01 -0.13340922627E+02  0.14349656549E+02  0.21001546182E+02  0.51100000000E-03 0. -1.
        -11    1    3    3    0    0 -0.22415315310E+01  0.39532802777E+01  0.13245382353E+02  0.14003322552E+02  0.51100000000E-03 0.  1.
        -12    1    3    3    0    0 -0.13534513425E+02  0.53035765088E+01  0.54482375845E+01  0.15523990151E+02  0.00000000000E+00 0.  1.
</event>
<event>
 7    1  0.4216896E-011  0.5052891E+02  0.7816164E-02  0.1300439E+00
        -11   -1    0    0    0    0  0.00000000000E+00  0.00000000000E+00  0.45593999997E+02  0.45594000000E+02  0.51100000000E-03 0. -1.
         11   -1    0    0    0    0 -0.00000000000E+00 -0.00000000000E+00 -0.45593999997E+02  0.45594000000E+02  0.51100000000E-03 0.  1.
    9900012    2    1    2    0    0  0.32987432517E+02  0.13021866987E+02 -0.19885209610E+02  0.50528913867E+02  0.30000164191E+02 0.  0.
         12    1    1    2    0    0 -0.32987432517E+02 -0.13021866987E+02  0.19885209610E+02  0.40659086133E+02  0.00000000000E+00 0. -1.
         11    1    3    3    0    0  0.99172306690E+01 -0.49096273686E+01  0.32023923618E+01  0.11520035683E+02  0.51100000000E-03 0. -1.
        -11    1    3    3    0    0  0.11289655986E+02  0.10634144948E+02 -0.51503149678E+01  0.16342188212E+02  0.51100000000E-03 0.  1.
        -12    1    3    3    0    0  0.11780545863E+02  0.72973494083E+01 -0.17937287004E+02  0.22666689972E+02  0.00000000000E+00 0.  1.
</event>
<event>
 7    1  0.3141443E-011  0.5052889E+02  0.7816164E-02  0.1300439E+00
        -11   -1    0    0    0    0  0.00000000000E+00  0.00000000000E+00  0.45593999997E+02  0.45594000000E+02  0.51100000000E-03 0.  1.
         11   -1    0    0    0    0 -0.00000000000E+00 -0.00000000000E+00 -0.45593999997E+02  0.45594000000E+02  0.51100000000E-03 0. -1.
    9900012    2    1    2    0    0 -0.67108608511E+01  0.29703688596E+02  0.26941025284E+02  0.50528885241E+02  0.30000077179E+02 0.  0.
         12    1    1    2    0    0  0.67108608511E+01 -0.29703688596E+02 -0.26941025284E+02  0.40659114759E+02  0.00000000000E+00 0. -1.
         11    1    3    3    0    0 -0.13193300806E+02  0.18043745107E+02  0.28872996851E+02  0.36514242031E+02  0.51100000000E-03 0.  1.
        -11    1    3    3    0    0  0.11705100285E+01  0.51535732308E+01  0.39302636565E+00  0.52994226815E+01  0.51100000000E-03 0. -1.
        -12    1    3    3    0    0  0.53119299266E+01  0.65063702583E+01 -0.23249979325E+01  0.87152205290E+01  0.00000000000E+00 0.  1.
</event>
<event>
 7    1  0.3141443E-011  0.5052887E+02  0.7816164E-02  0.1300439E+00
        -11   -1    0    0    0    0  0.00000000000E+00  0.00000000000E+00  0.45593999997E+02  0.45594000000E+02  0.51100000000E-03 0.  1.
         11   -1    0    0    0    0 -0.00000000000E+00 -0.00000000000E+00 -0.45593999997E+02  0.45594000000E+02  0.51100000000E-03 0. -1.
    9900012    2    1    2    0    0  0.24758081172E+02 -0.32167175523E+02  0.23399508388E+01  0.50528866532E+02  0.30000020310E+02 0.  0.
         12    1    1    2    0    0 -0.24758081172E+02  0.32167175523E+02 -0.23399508388E+01  0.40659133468E+02  0.00000000000E+00 0. -1.
         11    1    3    3    0    0 -0.26936648671E+01  0.11126342893E+01  0.27709369976E+01  0.40214273068E+01  0.51100000000E-03 0. -1.
        -11    1    3    3    0    0  0.24687877178E+02 -0.26016615967E+02  0.60696260666E+01  0.36375760429E+02  0.51100000000E-03 0.  1.
         12    1    3    3    0    0  0.27638688615E+01 -0.72631938451E+01 -0.65006122254E+01  0.10131678796E+02  0.00000000000E+00 0. -1.
</event>
<event>
 7    1  0.3141443E-011  0.5052893E+02  0.7816164E-02  0.1300439E+00
        -11   -1    0    0    0    0  0.00000000000E+00  0.00000000000E+00  0.45593999997E+02  0.45594000000E+02  0.51100000000E-03 0. -1.
         11   -1    0    0    0    0 -0.00000000000E+00 -0.00000000000E+00 -0.45593999997E+02  0.45594000000E+02  0.51100000000E-03 0.  1.
    9900012    2    1    2    0    0  0.39671041821E+02 -0.12121893517E+00 -0.89080672770E+01  0.50528930707E+02  0.30000215375E+02 0.  0.
         12    1    1    2    0    0 -0.39671041821E+02  0.12121893517E+00  0.89080672770E+01  0.40659069293E+02  0.00000000000E+00 0. -1.
         11    1    3    3    0    0  0.10642816752E+02  0.58491423745E+01  0.74982371158E+01  0.14272546200E+02  0.51100000000E-03 0. -1.
        -11    1    3    3    0    0  0.86787520512E+01 -0.77029500265E+01 -0.35977082791E+01  0.12149060927E+02  0.51100000000E-03 0.  1.
        -12    1    3    3    0    0  0.20349473018E+02  0.17325887169E+01 -0.12808596114E+02  0.24107323580E+02  0.00000000000E+00 0.  1.
</event>
<event>
 7    1  0.3141443E-011  0.5052886E+02  0.7816164E-02  0.1300439E+00
        -11   -1    0    0    0    0  0.00000000000E+00  0.00000000000E+00  0.45593999997E+02  0.45594000000E+02  0.51100000000E-03 0.  1.
         11   -1    0    0    0    0 -0.00000000000E+00 -0.00000000000E+00 -0.45593999997E+02  0.45594000000E+02  0.51100000000E-03 0. -1.
    9900012    2    1    2    0    0 -0.33928774916E+02 -0.22107708017E+02  0.36405049747E+01  0.50528858377E+02  0.29999995522E+02 0.  0.
         12    1    1    2    0    0  0.33928774916E+02  0.22107708017E+02 -0.36405049747E+01  0.40659141623E+02  0.00000000000E+00 0. -1.
         11    1    3    3    0    0 -0.74405755039E+01 -0.50909051499E+01 -0.74299654878E+01  0.11682630975E+02  0.51100000000E-03 0. -1.
        -11    1    3    3    0    0 -0.25627891016E+02 -0.70345353925E+01  0.11166616515E+02  0.28826494944E+02  0.51100000000E-03 0.  1.
         12    1    3    3    0    0 -0.86030839606E+00 -0.99822674749E+01 -0.96146052011E-01  0.10019732459E+02  0.00000000000E+00 0. -1.
</event>
<event>
 7    1  0.3141443E-011  0.5052886E+02  0.7816164E-02  0.1300439E+00
        -11   -1    0    0    0    0  0.00000000000E+00  0.00000000000E+00  0.45593999997E+02  0.45594000000E+02  0.51100000000E-03 0.  1.
         11   -1    0    0    0    0 -0.00000000000E+00 -0.00000000000E+00 -0.45593999997E+02  0.45594000000E+02  0.51100000000E-03 0. -1.
    9900012    2    1    2    0    0  0.36880434944E+02 -0.13213339302E+02 -0.10881492943E+02  0.50528859505E+02  0.29999998950E+02 0.  0.
         12    1    1    2    0    0 -0.36880434944E+02  0.13213339302E+02  0.10881492943E+02  0.40659140495E+02  0.00000000000E+00 0. -1.
         11    1    3    3    0    0  0.38487211414E+01 -0.89779106660E+01 -0.40004267612E+01  0.10555517462E+02  0.51100000000E-03 0. -1.
        -11    1    3    3    0    0  0.87643550269E+01  0.49712187262E+01  0.52063723067E+01  0.11341659822E+02  0.51100000000E-03 0.  1.
         12    1    3    3    0    0  0.24267358775E+02 -0.92066473627E+01 -0.12087438488E+02  0.28631682221E+02  0.00000000000E+00 0. -1.
</event>
<event>
 7    1  0.3141443E-011  0.5052886E+02  0.7816164E-02  0.1300439E+00
        -11   -1    0    0    0    0  0.00000000000E+00  0.00000000000E+00  0.45593999997E+02  0.45594000000E+02  0.51100000000E-03 0.  1.
         11   -1    0    0    0    0 -0.00000000000E+00 -0.00000000000E+00 -0.45593999997E+02  0.45594000000E+02  0.51100000000E-03 0. -1.
    9900012    2    1    2    0    0 -0.11682931941E+02  0.38162828171E+02  0.77636105296E+01  0.50528855872E+02  0.29999987910E+02 0.  0.
         12    1    1    2    0    0  0.11682931941E+02 -0.38162828171E+02 -0.77636105296E+01  0.40659144128E+02  0.00000000000E+00 0. -1.
         11    1    3    3    0    0  0.25035676489E+01  0.15571843422E+02 -0.44569732922E+01  0.16389471307E+02  0.51100000000E-03 0. -1.
        -11    1    3    3    0    0  0.12524374003E+01  0.12318121678E+02  0.90249971298E+01  0.15321726227E+02  0.51100000000E-03 0.  1.
        -12    1    3    3    0    0 -0.15438936990E+02  0.10272863071E+02  0.31955866920E+01  0.18817658339E+02  0.00000000000E+00 0.  1.
</event>
<event>
 7    1  0.3141443E-011  0.5052887E+02  0.7816164E-02  0.1300439E+00
        -11   -1    0    0    0    0  0.00000000000E+00  0.00000000000E+00  0.45593999997E+02  0.45594000000E+02  0.51100000000E-03 0. -1.
         11   -1    0    0    0    0 -0.00000000000E+00 -0.00000000000E+00 -0.45593999997E+02  0.45594000000E+02  0.51100000000E-03 0.  1.
    9900012    2    1    2    0    0  0.24342494447E+02 -0.80079620469E+01 -0.31567072400E+02  0.50528873694E+02  0.30000042080E+02 0.  0.
         12    1    1    2    0    0 -0.24342494447E+02  0.80079620469E+01  0.31567072400E+02  0.40659126306E+02  0.00000000000E+00 0. -1.
         11    1    3    3    0    0  0.49180633387E+01  0.44787535886E+01  0.91852838142E-01  0.66524445068E+01  0.51100000000E-03 0. -1.
        -11    1    3    3    0    0 -0.37167991409E+01 -0.11979338032E+01 -0.80319144813E+01  0.89309177438E+01  0.51100000000E-03 0.  1.
        -12    1    3    3    0    0  0.23141230249E+02 -0.11288781832E+02 -0.23627010757E+02  0.34945511443E+02  0.00000000000E+00 0.  1.
</event>
<event>
 7    1  0.3141443E-011  0.5052886E+02  0.7816164E-02  0.1300439E+00
        -11   -1    0    0    0    0  0.00000000000E+00  0.00000000000E+00  0.45593999997E+02  0.45594000000E+02  0.51100000000E-03 0.  1.
         11   -1    0    0    0    0 -0.00000000000E+00 -0.00000000000E+00 -0.45593999997E+02  0.45594000000E+02  0.51100000000E-03 0. -1.
    9900012    2    1    2    0    0 -0.56318368141E+01 -0.38882042389E+02  0.10470683651E+02  0.50528855612E+02  0.29999987120E+02 0.  0.
         12    1    1    2    0    0  0.56318368141E+01  0.38882042389E+02 -0.10470683651E+02  0.40659144388E+02  0.00000000000E+00 0. -1.
         11    1    3    3    0    0 -0.51283829013E+01 -0.94932078419E+01  0.44665476300E+01  0.11677814620E+02  0.51100000000E-03 0. -1.
        -11    1    3    3    0    0  0.89716176392E+01 -0.25563558658E+02  0.83833765919E+01  0.28359591987E+02  0.51100000000E-03 0.  1.
         12    1    3    3    0    0 -0.94750715520E+01 -0.38252758888E+01 -0.23792405707E+01  0.10491449006E+02  0.00000000000E+00 0. -1.
</event>
<event>
 7    1  0.3141443E-011  0.5052886E+02  0.7816164E-02  0.1300439E+00
        -11   -1    0    0    0    0  0.00000000000E+00  0.00000000000E+00  0.45593999997E+02  0.45594000000E+02  0.51100000000E-03 0.  1.
         11   -1    0    0    0    0 -0.00000000000E+00 -0.00000000000E+00 -0.45593999997E+02  0.45594000000E+02  0.51100000000E-03 0. -1.
    9900012    2    1    2    0    0  0.21483159031E+02 -0.13903818698E+02  0.31596253449E+02  0.50528861687E+02  0.30000005584E+02 0.  0.
         12    1    1    2    0    0 -0.21483159031E+02  0.13903818698E+02 -0.31596253449E+02  0.40659138313E+02  0.00000000000E+00 0. -1.
         11    1    3    3    0    0  0.15417224298E+02 -0.85127557542E+01  0.21254669956E+02  0.27602876857E+02  0.51100000000E-03 0. -1.
        -11    1    3    3    0    0  0.16200343901E+01  0.70401437875E+01  0.42994281898E+01  0.84067365245E+01  0.51100000000E-03 0.  1.
         12    1    3    3    0    0  0.44459003430E+01 -0.12431206731E+02  0.60421553027E+01  0.14519248305E+02  0.00000000000E+00 0. -1.
</event>
<event>
 7    1  0.3141443E-011  0.5052886E+02  0.7816164E-02  0.1300439E+00
        -11   -1    0    0    0    0  0.00000000000E+00  0.00000000000E+00  0.45593999997E+02  0.45594000000E+02  0.51100000000E-03 0. -1.
         11   -1    0    0    0    0 -0.00000000000E+00 -0.00000000000E+00 -0.45593999997E+02  0.45594000000E+02  0.51100000000E-03 0.  1.
    9900012    2    1    2    0    0 -0.31366131673E+02 -0.21730293529E+02 -0.14040159347E+02  0.50528856533E+02  0.29999989919E+02 0.  0.
         12    1    1    2    0    0  0.31366131673E+02  0.21730293529E+02  0.14040159347E+02  0.40659143467E+02  0.00000000000E+00 0. -1.
         11    1    3    3    0    0  0.27378512689E+00 -0.14704687630E+00  0.30592950169E+01  0.30750394048E+01  0.51100000000E-03 0. -1.
        -11    1    3    3    0    0  0.30139159766E+01 -0.16154209863E+01  0.98734826271E+00  0.35592318455E+01  0.51100000000E-03 0.  1.
        -12    1    3    3    0    0 -0.34653832776E+02 -0.19967825666E+02 -0.18086802627E+02  0.43894585283E+02  0.00000000000E+00 0.  1.
</event>
<event>
 7    1  0.3141443E-011  0.5052886E+02  0.7816164E-02  0.1300439E+00
        -11   -1    0    0    0    0  0.00000000000E+00  0.00000000000E+00  0.45593999997E+02  0.45594000000E+02  0.51100000000E-03 0. -1.
         11   -1    0    0    0    0 -0.00000000000E+00 -0.00000000000E+00 -0.45593999997E+02  0.45594000000E+02  0.51100000000E-03 0.  1.
    9900012    2    1    2    0    0 -0.12151325072E+02  0.40768809548E+01 -0.38586137298E+02  0.50528860180E+02  0.30000001004E+02 0.  0.
         12    1    1    2    0    0  0.12151325072E+02 -0.40768809548E+01  0.38586137298E+02  0.40659139820E+02  0.00000000000E+00 0. -1.
         11    1    3    3    0    0 -0.29071986284E+01 -0.77309895119E+01 -0.73804595401E+01  0.11076605346E+02  0.51100000000E-03 0. -1.
        -11    1    3    3    0    0 -0.11288753621E+02 -0.65022873649E+00 -0.17330514594E+02  0.20693126687E+02  0.51100000000E-03 0.  1.
         12    1    3    3    0    0  0.20446271777E+01  0.12458099203E+02 -0.13875163164E+02  0.18759128148E+02  0.00000000000E+00 0. -1.
</event>
<event>
 7    1  0.3141443E-011  0.5052886E+02  0.7816164E-02  0.1300439E+00
        -11   -1    0    0    0    0  0.00000000000E+00  0.00000000000E+00  0.45593999997E+02  0.45594000000E+02  0.51100000000E-03 0. -1.
         11   -1    0    0    0    0 -0.00000000000E+00 -0.00000000000E+00 -0.45593999997E+02  0.45594000000E+02  0.51100000000E-03 0.  1.
    9900012    2    1    2    0    0  0.70389472285E+01  0.35127762029E+02 -0.19226527166E+02  0.50528858468E+02  0.29999995799E+02 0.  0.
         12    1    1    2    0    0 -0.70389472285E+01 -0.35127762029E+02  0.19226527166E+02  0.40659141532E+02  0.00000000000E+00 0. -1.
         11    1    3    3    0    0  0.64673046296E+01  0.65488733610E+01 -0.30236874216E+01  0.96879542399E+01  0.51100000000E-03 0. -1.
        -11    1    3    3    0    0  0.48434672730E+01  0.31780056174E+02 -0.14105607075E+02  0.35105545101E+02  0.51100000000E-03 0.  1.
        -12    1    3    3    0    0 -0.42718246741E+01 -0.32011675056E+01 -0.20972326696E+01  0.57353591270E+01  0.00000000000E+00 0.  1.
</event>
<event>
 7    1  0.3141443E-011  0.5052885E+02  0.7816164E-02  0.1300439E+00
        -11   -1    0    0    0    0  0.00000000000E+00  0.00000000000E+00  0.45593999997E+02  0.45594000000E+02  0.51100000000E-03 0. -1.
         11   -1    0    0    0    0 -0.00000000000E+00 -0.00000000000E+00 -0.45593999997E+02  0.45594000000E+02  0.51100000000E-03 0.  1.
    9900012    2    1    2    0    0  0.67886672871E+01 -0.40016205615E+02 -0.24048752062E+01  0.50528854164E+02  0.29999982718E+02 0.  0.
         12    1    1    2    0    0 -0.67886672871E+01  0.40016205615E+02  0.24048752062E+01  0.40659145836E+02  0.00000000000E+00 0. -1.
         11    1    3    3    0    0 -0.49362305039E+01 -0.81854138283E+01 -0.15977222243E+01  0.96912376761E+01  0.51100000000E-03 0. -1.
        -11    1    3    3    0    0  0.11021971165E+02 -0.27855325371E+02  0.81220149480E+01  0.31038204313E+02  0.51100000000E-03 0.  1.
         12    1    3    3    0    0  0.70292662576E+00 -0.39754664156E+01 -0.89291679299E+01  0.97994121754E+01  0.00000000000E+00 0. -1.
</event>
<event>
 7    1  0.3141443E-011  0.5052885E+02  0.7816164E-02  0.1300439E+00
        -11   -1    0    0    0    0  0.00000000000E+00  0.00000000000E+00  0.45593999997E+02  0.45594000000E+02  0.51100000000E-03 0.  1.
         11   -1    0    0    0    0 -0.00000000000E+00 -0.00000000000E+00 -0.45593999997E+02  0.45594000000E+02  0.51100000000E-03 0. -1.
    9900012    2    1    2    0    0  0.55268270802E+01  0.19112582204E+02  0.35458849483E+02  0.50528848229E+02  0.29999964678E+02 0.  0.
         12    1    1    2    0    0 -0.55268270802E+01 -0.19112582204E+02 -0.35458849483E+02  0.40659151771E+02  0.00000000000E+00 0. -1.
         11    1    3    3    0    0 -0.64575862567E+01  0.45917466090E+01  0.21806484812E+02  0.23201451189E+02  0.51100000000E-03 0. -1.
        -11    1    3    3    0    0 -0.10200621694E+00  0.10325884672E+02  0.90505307361E+01  0.13731220135E+02  0.51100000000E-03 0.  1.
         12    1    3    3    0    0  0.12086419554E+02  0.41949509226E+01  0.46018339349E+01  0.13596176905E+02  0.00000000000E+00 0. -1.
</event>
<event>
 7    1  0.3141443E-011  0.5052887E+02  0.7816164E-02  0.1300439E+00
        -11   -1    0    0    0    0  0.00000000000E+00  0.00000000000E+00  0.45593999997E+02  0.45594000000E+02  0.51100000000E-03 0.  1.
         11   -1    0    0    0    0 -0.00000000000E+00 -0.00000000000E+00 -0.45593999997E+02  0.45594000000E+02  0.51100000000E-03 0. -1.
    9900012    2    1    2    0    0 -0.37223952401E+01  0.18599629094E+02  0.35963346666E+02  0.50528871477E+02  0.30000035343E+02 0.  0.
         12    1    1    2    0    0  0.37223952401E+01 -0.18599629094E+02 -0.35963346666E+02  0.40659128523E+02  0.00000000000E+00 0. -1.
         11    1    3    3    0    0 -0.61301442239E+01  0.61783883419E-01 -0.23501381092E+01  0.65654881652E+01  0.51100000000E-03 0. -1.
        -11    1    3    3    0    0  0.30068444646E+01  0.11082436197E+02  0.12006382218E+02  0.16613690737E+02  0.51100000000E-03 0.  1.
        -12    1    3    3    0    0 -0.59909548071E+00  0.74554090138E+01  0.26307102558E+02  0.27349692575E+02  0.00000000000E+00 0.  1.
</event>
<event>
 7    1  0.3141443E-011  0.5052886E+02  0.7816164E-02  0.1300439E+00
        -11   -1    0    0    0    0  0.00000000000E+00  0.00000000000E+00  0.45593999997E+02  0.45594000000E+02  0.51100000000E-03 0.  1.
         11   -1    0    0    0    0 -0.00000000000E+00 -0.00000000000E+00 -0.45593999997E+02  0.45594000000E+02  0.51100000000E-03 0. -1.
    9900012    2    1    2    0    0  0.40051993922E+02  0.69555901759E+01 -0.78965148224E+00  0.50528855871E+02  0.29999987907E+02 0.  0.
         12    1    1    2    0    0 -0.40051993922E+02 -0.69555901759E+01  0.78965148224E+00  0.40659144129E+02  0.00000000000E+00 0. -1.
         11    1    3    3    0    0  0.49213574008E+01 -0.73216047498E+01 -0.34456638249E+01  0.94709162299E+01  0.51100000000E-03 0. -1.
        -11    1    3    3    0    0  0.20485441466E+02  0.14353454303E+01  0.57738526880E+01  0.21331922175E+02  0.51100000000E-03 0.  1.
         12    1    3    3    0    0  0.14645195055E+02  0.12841849495E+02 -0.31178403454E+01  0.19726017466E+02  0.00000000000E+00 0. -1.
</event>
<event>
 7    1  0.3141443E-011  0.5052887E+02  0.7816164E-02  0.1300439E+00
        -11   -1    0    0    0    0  0.00000000000E+00  0.00000000000E+00  0.45593999997E+02  0.45594000000E+02  0.51100000000E-03 0.  1.
         11   -1    0    0    0    0 -0.00000000000E+00 -0.00000000000E+00 -0.45593999997E+02  0.45594000000E+02  0.51100000000E-03 0. -1.
    9900012    2    1    2    0    0  0.51961446056E+01 -0.40084143045E+02  0.44075736893E+01  0.50528866362E+02  0.30000019793E+02 0.  0.
         12    1    1    2    0    0 -0.51961446056E+01  0.40084143045E+02 -0.44075736893E+01  0.40659133638E+02  0.00000000000E+00 0. -1.
         11    1    3    3    0    0  0.95715261273E+01 -0.12031985329E+02  0.78419827779E+00  0.15394731260E+02  0.51100000000E-03 0.  1.
        -11    1    3    3    0    0 -0.59083726245E+01 -0.14812237945E+02 -0.76410764113E+01  0.17683249390E+02  0.51100000000E-03 0. -1.
        -12    1    3    3    0    0  0.15329911029E+01 -0.13239919771E+02  0.11264451823E+02  0.17450885712E+02  0.00000000000E+00 0.  1.
</event>
<event>
 7    1  0.3141443E-011  0.5052886E+02  0.7816164E-02  0.1300439E+00
        -11   -1    0    0    0    0  0.00000000000E+00  0.00000000000E+00  0.45593999997E+02  0.45594000000E+02  0.51100000000E-03 0.  1.
         11   -1    0    0    0    0 -0.00000000000E+00 -0.00000000000E+00 -0.45593999997E+02  0.45594000000E+02  0.51100000000E-03 0. -1.
    9900012    2    1    2    0    0  0.18574939491E+02  0.19894214182E+02  0.30205258720E+02  0.50528858477E+02  0.29999995828E+02 0.  0.
         12    1    1    2    0    0 -0.18574939491E+02 -0.19894214182E+02 -0.30205258720E+02  0.40659141523E+02  0.00000000000E+00 0. -1.
         11    1    3    3    0    0 -0.27278499862E+01  0.10111077651E+02  0.14236916486E+01  0.10568914560E+02  0.51100000000E-03 0. -1.
        -11    1    3    3    0    0  0.31236527905E+01 -0.39608551911E+00  0.14161129007E+02  0.14506952317E+02  0.51100000000E-03 0.  1.
         12    1    3    3    0    0  0.18179136687E+02  0.10179222051E+02  0.14620438064E+02  0.25452991601E+02  0.00000000000E+00 0. -1.
</event>
<event>
 7    1  0.3141443E-011  0.5052886E+02  0.7816164E-02  0.1300439E+00
        -11   -1    0    0    0    0  0.00000000000E+00  0.00000000000E+00  0.45593999997E+02  0.45594000000E+02  0.51100000000E-03 0.  1.
         11   -1    0    0    0    0 -0.00000000000E+00 -0.00000000000E+00 -0.45593999997E+02  0.45594000000E+02  0.51100000000E-03 0. -1.
    9900012    2    1    2    0    0 -0.20295431594E+02 -0.30613155058E+02  0.17438352320E+02  0.50528856651E+02  0.29999990277E+02 0.  0.
         12    1    1    2    0    0  0.20295431594E+02  0.30613155058E+02 -0.17438352320E+02  0.40659143349E+02  0.00000000000E+00 0. -1.
         11    1    3    3    0    0 -0.14516751163E+01 -0.33832542978E+00 -0.25334085292E+01  0.29393849317E+01  0.51100000000E-03 0. -1.
        -11    1    3    3    0    0 -0.55402598949E+01 -0.22307301967E+02  0.89125093049E+00  0.23002272263E+02  0.51100000000E-03 0.  1.
         12    1    3    3    0    0 -0.13303496583E+02 -0.79675276610E+01  0.19080509919E+02  0.24587199457E+02  0.00000000000E+00 0. -1.
</event>
<event>
 7    1  0.3141443E-011  0.5052886E+02  0.7816164E-02  0.1300439E+00
        -11   -1    0    0    0    0  0.00000000000E+00  0.00000000000E+00  0.45593999997E+02  0.45594000000E+02  0.51100000000E-03 0.  1.
         11   -1    0    0    0    0 -0.00000000000E+00 -0.00000000000E+00 -0.45593999997E+02  0.45594000000E+02  0.51100000000E-03 0. -1.
    9900012    2    1    2    0    0 -0.31401440596E+02  0.15570525597E+02  0.20607615631E+02  0.50528861287E+02  0.30000004369E+02 0.  0.
         12    1    1    2    0    0  0.31401440596E+02 -0.15570525597E+02 -0.20607615631E+02  0.40659138713E+02  0.00000000000E+00 0. -1.
         11    1    3    3    0    0 -0.54626550396E+01  0.11754326748E+02  0.10154976409E+02  0.16465975328E+02  0.51100000000E-03 0. -1.
        -11    1    3    3    0    0 -0.19825690160E+02  0.10951582153E+01  0.15897657360E+02  0.25436054561E+02  0.51100000000E-03 0.  1.
         12    1    3    3    0    0 -0.61130953963E+01  0.27210406339E+01 -0.54450181379E+01  0.86268313985E+01  0.00000000000E+00 0. -1.
</event>
<event>
 7    1  0.3141443E-011  0.5052886E+02  0.7816164E-02  0.1300439E+00
        -11   -1    0    0    0    0  0.00000000000E+00  0.00000000000E+00  0.45593999997E+02  0.45594000000E+02  0.51100000000E-03 0. -1.
         11   -1    0    0    0    0 -0.00000000000E+00 -0.00000000000E+00 -0.45593999997E+02  0.45594000000E+02  0.51100000000E-03 0.  1.
    9900012    2    1    2    0    0 -0.30254166881E+02 -0.21399421573E+02 -0.16730674660E+02  0.50528864103E+02  0.30000012926E+02 0.  0.
         12    1    1    2    0    0  0.30254166881E+02  0.21399421573E+02  0.16730674660E+02  0.40659135897E+02  0.00000000000E+00 0. -1.
         11    1    3    3    0    0 -0.21650831748E+01 -0.13518183705E+02 -0.72816988277E+01  0.15506515208E+02  0.51100000000E-03 0. -1.
        -11    1    3    3    0    0 -0.27919574945E+02 -0.11024883600E+02 -0.65095841005E+01  0.30715230895E+02  0.51100000000E-03 0.  1.
         12    1    3    3    0    0 -0.16950876148E+00  0.31436457319E+01 -0.29393917317E+01  0.43071179993E+01  0.00000000000E+00 0. -1.
</event>
<event>
 7    1  0.3141443E-011  0.5052885E+02  0.7816164E-02  0.1300439E+00
        -11   -1    0    0    0    0  0.00000000000E+00  0.00000000000E+00  0.45593999997E+02  0.45594000000E+02  0.51100000000E-03 0. -1.
         11   -1    0    0    0    0 -0.00000000000E+00 -0.00000000000E+00 -0.45593999997E+02  0.45594000000E+02  0.51100000000E-03 0.  1.
    9900012    2    1    2    0    0 -0.17286386176E+02  0.43954729227E+01 -0.36538019437E+02  0.50528853506E+02  0.29999980718E+02 0.  0.
         12    1    1    2    0    0  0.17286386176E+02 -0.43954729227E+01  0.36538019437E+02  0.40659146494E+02  0.00000000000E+00 0. -1.
         11    1    3    3    0    0 -0.41860216658E+01 -0.62942950040E+01 -0.21203190636E+02  0.22510358069E+02  0.51100000000E-03 0. -1.
        -11    1    3    3    0    0 -0.10451291339E+02 -0.63134851052E+00 -0.11993871778E+02  0.15921088282E+02  0.51100000000E-03 0.  1.
         12    1    3    3    0    0 -0.26490731704E+01  0.11321116437E+02 -0.33409570224E+01  0.12097407155E+02  0.00000000000E+00 0. -1.
</event>
<event>
 7    1  0.3141443E-011  0.5052886E+02  0.7816164E-02  0.1300439E+00
        -11   -1    0    0    0    0  0.00000000000E+00  0.00000000000E+00  0.45593999997E+02  0.45594000000E+02  0.51100000000E-03 0.  1.
         11   -1    0    0    0    0 -0.00000000000E+00 -0.00000000000E+00 -0.45593999997E+02  0.45594000000E+02  0.51100000000E-03 0. -1.
    9900012    2    1    2    0    0 -0.34336225902E+02  0.17976377903E+02  0.12289791402E+02  0.50528861490E+02  0.30000004986E+02 0.  0.
         12    1    1    2    0    0  0.34336225902E+02 -0.17976377903E+02 -0.12289791402E+02  0.40659138510E+02  0.00000000000E+00 0. -1.
         11    1    3    3    0    0 -0.10938460329E+02  0.15799520624E+01  0.96810472625E+01  0.14692475600E+02  0.51100000000E-03 0. -1.
        -11    1    3    3    0    0 -0.14752709403E+02  0.18327001776E+02  0.87022607678E+01  0.25084871368E+02  0.51100000000E-03 0.  1.
         12    1    3    3    0    0 -0.86450561697E+01 -0.19305759358E+01 -0.60935166287E+01  0.10751514522E+02  0.00000000000E+00 0. -1.
</event>
<event>
 7    1  0.3141443E-011  0.5052885E+02  0.7816164E-02  0.1300439E+00
        -11   -1    0    0    0    0  0.00000000000E+00  0.00000000000E+00  0.45593999997E+02  0.45594000000E+02  0.51100000000E-03 0.  1.
         11   -1    0    0    0    0 -0.00000000000E+00 -0.00000000000E+00 -0.45593999997E+02  0.45594000000E+02  0.51100000000E-03 0. -1.
    9900012    2    1    2    0    0  0.21536826483E+02  0.28099773602E+02  0.19993347968E+02  0.50528854234E+02  0.29999982931E+02 0.  0.
         12    1    1    2    0    0 -0.21536826483E+02 -0.28099773602E+02 -0.19993347968E+02  0.40659145766E+02  0.00000000000E+00 0. -1.
         11    1    3    3    0    0  0.24299019497E+01  0.95618816882E+01 -0.23135886744E+01  0.10133444514E+02  0.51100000000E-03 0. -1.
        -11    1    3    3    0    0  0.85268781476E+01  0.11402583423E+02 -0.51545043478E+00  0.14247534842E+02  0.51100000000E-03 0.  1.
        -12    1    3    3    0    0  0.10580046386E+02  0.71353084910E+01  0.22822387077E+02  0.26147874879E+02  0.00000000000E+00 0.  1.
</event>
<event>
 7    1  0.3141443E-011  0.5052885E+02  0.7816164E-02  0.1300439E+00
        -11   -1    0    0    0    0  0.00000000000E+00  0.00000000000E+00  0.45593999997E+02  0.45594000000E+02  0.51100000000E-03 0.  1.
         11   -1    0    0    0    0 -0.00000000000E+00 -0.00000000000E+00 -0.45593999997E+02  0.45594000000E+02  0.51100000000E-03 0. -1.
    9900012    2    1    2    0    0  0.19282649386E+01  0.18592516669E+01  0.40570817755E+02  0.50528852496E+02  0.29999977647E+02 0.  0.
         12    1    1    2    0    0 -0.19282649386E+01 -0.18592516669E+01 -0.40570817755E+02  0.40659147504E+02  0.00000000000E+00 0. -1.
         11    1    3    3    0    0 -0.27992733039E+01 -0.55378192018E+01  0.21777186161E+01  0.65761562614E+01  0.51100000000E-03 0. -1.
        -11    1    3    3    0    0 -0.94131688607E+00 -0.55626802283E+01  0.19814230232E+02  0.20601776835E+02  0.51100000000E-03 0.  1.
         12    1    3    3    0    0  0.56688551285E+01  0.12959751097E+02  0.18578868907E+02  0.23350919400E+02  0.00000000000E+00 0. -1.
</event>
<event>
 7    1  0.3141443E-011  0.5052884E+02  0.7816164E-02  0.1300439E+00
        -11   -1    0    0    0    0  0.00000000000E+00  0.00000000000E+00  0.45593999997E+02  0.45594000000E+02  0.51100000000E-03 0.  1.
         11   -1    0    0    0    0 -0.00000000000E+00 -0.00000000000E+00 -0.45593999997E+02  0.45594000000E+02  0.51100000000E-03 0. -1.
    9900012    2    1    2    0    0 -0.24589104502E+02 -0.28556275824E+02  0.15267047689E+02  0.50528835051E+02  0.29999924621E+02 0.  0.
         12    1    1    2    0    0  0.24589104502E+02  0.28556275824E+02 -0.15267047689E+02  0.40659164949E+02  0.00000000000E+00 0. -1.
         11    1    3    3    0    0  0.33831666946E+01 -0.85579733642E+01 -0.29392020152E+01  0.96604158158E+01  0.51100000000E-03 0. -1.
        -11    1    3    3    0    0 -0.76774806959E+01 -0.12609982673E+02  0.51760637189E+01  0.15644392246E+02  0.51100000000E-03 0.  1.
        -12    1    3    3    0    0 -0.20294790501E+02 -0.73883197872E+01  0.13030185986E+02  0.25224026990E+02  0.00000000000E+00 0.  1.
</event>
<event>
 7    1  0.3141443E-011  0.5052877E+02  0.7816164E-02  0.1300439E+00
        -11   -1    0    0    0    0  0.00000000000E+00  0.00000000000E+00  0.45593999997E+02  0.45594000000E+02  0.51100000000E-03 0.  1.
         11   -1    0    0    0    0 -0.00000000000E+00 -0.00000000000E+00 -0.45593999997E+02  0.45594000000E+02  0.51100000000E-03 0. -1.
    9900012    2    1    2    0    0 -0.17440270797E+00 -0.29307617553E+02  0.28181662063E+02  0.50528770549E+02  0.29999728559E+02 0.  0.
         12    1    1    2    0    0  0.17440270797E+00  0.29307617553E+02 -0.28181662063E+02  0.40659229451E+02  0.00000000000E+00 0. -1.
         11    1    3    3    0    0  0.12147115074E+02 -0.23455047325E+02  0.15057590526E+02  0.30404320126E+02  0.51100000000E-03 0. -1.
        -11    1    3    3    0    0 -0.32169855460E+01 -0.51804334121E+01  0.58672712559E+01  0.84623140211E+01  0.51100000000E-03 0.  1.
         12    1    3    3    0    0 -0.91045322357E+01 -0.67213681624E+00  0.72568002809E+01  0.11662136402E+02  0.00000000000E+00 0. -1.
</event>
<event>
 7    1  0.3141443E-011  0.5052887E+02  0.7816164E-02  0.1300439E+00
        -11   -1    0    0    0    0  0.00000000000E+00  0.00000000000E+00  0.45593999997E+02  0.45594000000E+02  0.51100000000E-03 0. -1.
         11   -1    0    0    0    0 -0.00000000000E+00 -0.00000000000E+00 -0.45593999997E+02  0.45594000000E+02  0.51100000000E-03 0.  1.
    9900012    2    1    2    0    0  0.54848138747E+01 -0.17234238140E+02 -0.36415140988E+02  0.50528872603E+02  0.30000038763E+02 0.  0.
         12    1    1    2    0    0 -0.54848138747E+01  0.17234238140E+02  0.36415140988E+02  0.40659127397E+02  0.00000000000E+00 0. -1.
         11    1    3    3    0    0  0.35116848775E+01 -0.60007883839E+01  0.10348070244E+01  0.70293824583E+01  0.51100000000E-03 0. -1.
        -11    1    3    3    0    0 -0.62087957522E+01  0.19643380564E+01 -0.12906047774E+02  0.14455927438E+02  0.51100000000E-03 0.  1.
        -12    1    3    3    0    0  0.81819247495E+01 -0.13197787813E+02 -0.24543900239E+02  0.29043562707E+02  0.00000000000E+00 0.  1.
</event>
<event>
 7    1  0.3141443E-011  0.5052886E+02  0.7816164E-02  0.1300439E+00
        -11   -1    0    0    0    0  0.00000000000E+00  0.00000000000E+00  0.45593999997E+02  0.45594000000E+02  0.51100000000E-03 0. -1.
         11   -1    0    0    0    0 -0.00000000000E+00 -0.00000000000E+00 -0.45593999997E+02  0.45594000000E+02  0.51100000000E-03 0.  1.
    9900012    2    1    2    0    0 -0.10252973189E+02  0.32595908078E+02 -0.22035167593E+02  0.50528864576E+02  0.30000014364E+02 0.  0.
         12    1    1    2    0    0  0.10252973189E+02 -0.32595908078E+02  0.22035167593E+02  0.40659135424E+02  0.00000000000E+00 0. -1.
         11    1    3    3    0    0 -0.10263106784E+02  0.20224393973E+02 -0.22087681794E+02  0.31657908329E+02  0.51100000000E-03 0. -1.
        -11    1    3    3    0    0 -0.58825538349E+01  0.10681958977E+02 -0.20995829616E+01  0.12374042835E+02  0.51100000000E-03 0.  1.
        -12    1    3    3    0    0  0.58926874304E+01  0.16895551276E+01  0.21520971631E+01  0.64969134119E+01  0.00000000000E+00 0.  1.
</event>
<event>
 7    1  0.3141443E-011  0.5052884E+02  0.7816164E-02  0.1300439E+00
        -11   -1    0    0    0    0  0.00000000000E+00  0.00000000000E+00  0.45593999997E+02  0.45594000000E+02  0.51100000000E-03 0.  1.
         11   -1    0    0    0    0 -0.00000000000E+00 -0.00000000000E+00 -0.45593999997E+02  0.45594000000E+02  0.51100000000E-03 0. -1.
    9900012    2    1    2    0    0 -0.27199788444E+02  0.24044623995E+02  0.18308320640E+02  0.50528843109E+02  0.29999949113E+02 0.  0.
         12    1    1    2    0    0  0.27199788444E+02 -0.24044623995E+02 -0.18308320640E+02  0.40659156891E+02  0.00000000000E+00 0. -1.
         11    1    3    3    0    0 -0.22855627877E+01  0.10985895411E+02 -0.23061588796E+01  0.11455656432E+02  0.51100000000E-03 0. -1.
        -11    1    3    3    0    0 -0.17231350239E+02  0.15639696137E+02  0.90874009213E+01  0.24982001162E+02  0.51100000000E-03 0.  1.
         12    1    3    3    0    0 -0.76828754172E+01 -0.25809675531E+01  0.11527078599E+02  0.14091185515E+02  0.00000000000E+00 0. -1.
</event>
<event>
 7    1  0.3141443E-011  0.5052886E+02  0.7816164E-02  0.1300439E+00
        -11   -1    0    0    0    0  0.00000000000E+00  0.00000000000E+00  0.45593999997E+02  0.45594000000E+02  0.51100000000E-03 0. -1.
         11   -1    0    0    0    0 -0.00000000000E+00 -0.00000000000E+00 -0.45593999997E+02  0.45594000000E+02  0.51100000000E-03 0.  1.
    9900012    2    1    2    0    0 -0.14216936421E+02  0.35542529224E+02  0.13703022282E+02  0.50528862227E+02  0.30000007224E+02 0.  0.
         12    1    1    2    0    0  0.14216936421E+02 -0.35542529224E+02 -0.13703022282E+02  0.40659137773E+02  0.00000000000E+00 0. -1.
         11    1    3    3    0    0  0.30452072859E+01  0.59389484267E+01  0.20415937717E+01  0.69794341618E+01  0.51100000000E-03 0. -1.
        -11    1    3    3    0    0 -0.20853271429E+01 -0.14833799257E+01  0.84243266547E+01  0.88044468960E+01  0.51100000000E-03 0.  1.
        -12    1    3    3    0    0 -0.15176816564E+02  0.31086960723E+02  0.32371018552E+01  0.34744981169E+02  0.00000000000E+00 0.  1.
</event>
<event>
 7    1  0.3141443E-011  0.5052886E+02  0.7816164E-02  0.1300439E+00
        -11   -1    0    0    0    0  0.00000000000E+00  0.00000000000E+00  0.45593999997E+02  0.45594000000E+02  0.51100000000E-03 0.  1.
         11   -1    0    0    0    0 -0.00000000000E+00 -0.00000000000E+00 -0.45593999997E+02  0.45594000000E+02  0.51100000000E-03 0. -1.
    9900012    2    1    2    0    0 -0.40593662751E+02  0.22340350779E+01  0.57387463430E+00  0.50528859572E+02  0.29999999155E+02 0.  0.
         12    1    1    2    0    0  0.40593662751E+02 -0.22340350779E+01 -0.57387463430E+00  0.40659140428E+02  0.00000000000E+00 0. -1.
         11    1    3    3    0    0 -0.24660594554E+02 -0.11860820139E+01 -0.53643330076E+01  0.25265149577E+02  0.51100000000E-03 0. -1.
        -11    1    3    3    0    0 -0.15854170624E+02  0.94940956728E+01  0.46045690324E+01  0.19044543445E+02  0.51100000000E-03 0.  1.
         12    1    3    3    0    0 -0.78897573451E-01 -0.60739785809E+01  0.13336386095E+01  0.62191665494E+01  0.00000000000E+00 0. -1.
</event>
<event>
 7    1  0.3141443E-011  0.5052887E+02  0.7816164E-02  0.1300439E+00
        -11   -1    0    0    0    0  0.00000000000E+00  0.00000000000E+00  0.45593999997E+02  0.45594000000E+02  0.51100000000E-03 0.  1.
         11   -1    0    0    0    0 -0.00000000000E+00 -0.00000000000E+00 -0.45593999997E+02  0.45594000000E+02  0.51100000000E-03 0. -1.
    9900012    2    1    2    0    0 -0.27837196397E+02 -0.29308402864E+02  0.43901237591E+01  0.50528866115E+02  0.30000019042E+02 0.  0.
         12    1    1    2    0    0  0.27837196397E+02  0.29308402864E+02 -0.43901237591E+01  0.40659133885E+02  0.00000000000E+00 0. -1.
         11    1    3    3    0    0 -0.78638470118E+01 -0.17057437127E+02  0.80165995539E+01  0.20422098811E+02  0.51100000000E-03 0.  1.
        -11    1    3    3    0    0  0.35281006533E+01 -0.22317692861E+01 -0.16271469602E+01  0.44806133349E+01  0.51100000000E-03 0. -1.
        -12    1    3    3    0    0 -0.23501450039E+02 -0.10019196451E+02 -0.19993288347E+01  0.25626153969E+02  0.00000000000E+00 0.  1.
</event>
<event>
 7    1  0.3141443E-011  0.5052887E+02  0.7816164E-02  0.1300439E+00
        -11   -1    0    0    0    0  0.00000000000E+00  0.00000000000E+00  0.45593999997E+02  0.45594000000E+02  0.51100000000E-03 0.  1.
         11   -1    0    0    0    0 -0.00000000000E+00 -0.00000000000E+00 -0.45593999997E+02  0.45594000000E+02  0.51100000000E-03 0. -1.
    9900012    2    1    2    0    0 -0.79517785340E+01 -0.28007541002E+01  0.39775495256E+02  0.50528867837E+02  0.30000024278E+02 0.  0.
         12    1    1    2    0    0  0.79517785340E+01  0.28007541002E+01 -0.39775495256E+02  0.40659132163E+02  0.00000000000E+00 0. -1.
         11    1    3    3    0    0 -0.91959093244E+01  0.21497463827E+01  0.42701013996E+01  0.10364358351E+02  0.51100000000E-03 0. -1.
        -11    1    3    3    0    0 -0.78497032867E+01 -0.56256942229E+01  0.18186807123E+02  0.20591897212E+02  0.51100000000E-03 0.  1.
         12    1    3    3    0    0  0.90938340771E+01  0.67519374005E+00  0.17318586733E+02  0.19572612274E+02  0.00000000000E+00 0. -1.
</event>
<event>
 7    1  0.3141443E-011  0.5052886E+02  0.7816164E-02  0.1300439E+00
        -11   -1    0    0    0    0  0.00000000000E+00  0.00000000000E+00  0.45593999997E+02  0.45594000000E+02  0.51100000000E-03 0.  1.
         11   -1    0    0    0    0 -0.00000000000E+00 -0.00000000000E+00 -0.45593999997E+02  0.45594000000E+02  0.51100000000E-03 0. -1.
    9900012    2    1    2    0    0 -0.15016882952E+02  0.23371392450E+01  0.37712021077E+02  0.50528861702E+02  0.30000005630E+02 0.  0.
         12    1    1    2    0    0  0.15016882952E+02 -0.23371392450E+01 -0.37712021077E+02  0.40659138298E+02  0.00000000000E+00 0. -1.
         11    1    3    3    0    0  0.28713605499E+01  0.18843231999E+01  0.85570183818E+01  0.92205178367E+01  0.51100000000E-03 0. -1.
        -11    1    3    3    0    0 -0.88209051553E+01 -0.10197909132E+02  0.21458340747E+02  0.25342969563E+02  0.51100000000E-03 0.  1.
        -12    1    3    3    0    0 -0.90673383462E+01  0.10650725177E+02  0.76966619482E+01  0.15965374303E+02  0.00000000000E+00 0.  1.
</event>
<event>
 7    1  0.3141443E-011  0.5052886E+02  0.7816164E-02  0.1300439E+00
        -11   -1    0    0    0    0  0.00000000000E+00  0.00000000000E+00  0.45593999997E+02  0.45594000000E+02  0.51100000000E-03 0. -1.
         11   -1    0    0    0    0 -0.00000000000E+00 -0.00000000000E+00 -0.45593999997E+02  0.45594000000E+02  0.51100000000E-03 0.  1.
    9900012    2    1    2    0    0 -0.38535328309E+01  0.15550911464E+02 -0.37369574505E+02  0.50528860052E+02  0.30000000613E+02 0.  0.
         12    1    1    2    0    0  0.38535328309E+01 -0.15550911464E+02  0.37369574505E+02  0.40659139948E+02  0.00000000000E+00 0. -1.
         11    1    3    3    0    0 -0.29716769119E+01  0.55043391483E+01  0.29565447162E+01  0.69187983096E+01  0.51100000000E-03 0. -1.
        -11    1    3    3    0    0  0.31181912934E+01  0.35397637429E+01 -0.31853656672E+01  0.56920645633E+01  0.51100000000E-03 0.  1.
        -12    1    3    3    0    0 -0.40000472123E+01  0.65068085728E+01 -0.37140753554E+02  0.37917997179E+02  0.00000000000E+00 0.  1.
</event>
<event>
 7    1  0.3141443E-011  0.5052884E+02  0.7816164E-02  0.1300439E+00
        -11   -1    0    0    0    0  0.00000000000E+00  0.00000000000E+00  0.45593999997E+02  0.45594000000E+02  0.51100000000E-03 0.  1.
         11   -1    0    0    0    0 -0.00000000000E+00 -0.00000000000E+00 -0.45593999997E+02  0.45594000000E+02  0.51100000000E-03 0. -1.
    9900012    2    1    2    0    0 -0.25723705159E+02  0.62656854686E+01  0.30857733050E+02  0.50528837312E+02  0.29999931494E+02 0.  0.
         12    1    1    2    0    0  0.25723705159E+02 -0.62656854686E+01 -0.30857733050E+02  0.40659162688E+02  0.00000000000E+00 0. -1.
         11    1    3    3    0    0 -0.10361960111E+02  0.59356402135E+01  0.19701652298E+02  0.23038167150E+02  0.51100000000E-03 0. -1.
        -11    1    3    3    0    0 -0.78859433632E+01 -0.89234241576E+01  0.99783995630E+01  0.15536539496E+02  0.51100000000E-03 0.  1.
         12    1    3    3    0    0 -0.74758016845E+01  0.92534694127E+01  0.11776811893E+01  0.11954130666E+02  0.00000000000E+00 0. -1.
</event>
<event>
 7    1  0.3141443E-011  0.5052886E+02  0.7816164E-02  0.1300439E+00
        -11   -1    0    0    0    0  0.00000000000E+00  0.00000000000E+00  0.45593999997E+02  0.45594000000E+02  0.51100000000E-03 0. -1.
         11   -1    0    0    0    0 -0.00000000000E+00 -0.00000000000E+00 -0.45593999997E+02  0.45594000000E+02  0.51100000000E-03 0.  1.
    9900012    2    1    2    0    0 -0.12750176297E+02  0.38588691177E+02 -0.12295356556E+01  0.50528857851E+02  0.29999993924E+02 0.  0.
         12    1    1    2    0    0  0.12750176297E+02 -0.38588691177E+02  0.12295356556E+01  0.40659142149E+02  0.00000000000E+00 0. -1.
         11    1    3    3    0    0 -0.86843382684E+01  0.21399024689E+02  0.82134154483E+01  0.24511144045E+02  0.51100000000E-03 0. -1.
        -11    1    3    3    0    0  0.18319582290E+01  0.17871720590E+02 -0.89191193829E+01  0.20057546177E+02  0.51100000000E-03 0.  1.
         12    1    3    3    0    0 -0.58977962575E+01 -0.68205410234E+00 -0.52383172109E+00  0.59601676290E+01  0.00000000000E+00 0. -1.
</event>
<event>
 7    1  0.3141443E-011  0.5052885E+02  0.7816164E-02  0.1300439E+00
        -11   -1    0    0    0    0  0.00000000000E+00  0.00000000000E+00  0.45593999997E+02  0.45594000000E+02  0.51100000000E-03 0.  1.
         11   -1    0    0    0    0 -0.00000000000E+00 -0.00000000000E+00 -0.45593999997E+02  0.45594000000E+02  0.51100000000E-03 0. -1.
    9900012    2    1    2    0    0  0.98289515325E+01  0.34901490354E+02 -0.18396847949E+02  0.50528851809E+02  0.29999975558E+02 0.  0.
         12    1    1    2    0    0 -0.98289515325E+01 -0.34901490354E+02  0.18396847949E+02  0.40659148191E+02  0.00000000000E+00 0. -1.
         11    1    3    3    0    0  0.17453344467E+02  0.27998136256E+02 -0.14513813920E+02  0.36043940707E+02  0.51100000000E-03 0. -1.
        -11    1    3    3    0    0  0.12946022891E+01  0.52187546266E+00  0.16829374655E+01  0.21864646943E+01  0.51100000000E-03 0.  1.
         12    1    3    3    0    0 -0.89189952236E+01  0.63814786357E+01 -0.55659714942E+01  0.12298446408E+02  0.00000000000E+00 0. -1.
</event>
<event>
 7    1  0.3141443E-011  0.5052887E+02  0.7816164E-02  0.1300439E+00
        -11   -1    0    0    0    0  0.00000000000E+00  0.00000000000E+00  0.45593999997E+02  0.45594000000E+02  0.51100000000E-03 0. -1.
         11   -1    0    0    0    0 -0.00000000000E+00 -0.00000000000E+00 -0.45593999997E+02  0.45594000000E+02  0.51100000000E-03 0.  1.
    9900012    2    1    2    0    0  0.34447694787E+02  0.18076769777E+02 -0.11821672172E+02  0.50528865545E+02  0.30000017310E+02 0.  0.
         12    1    1    2    0    0 -0.34447694787E+02 -0.18076769777E+02  0.11821672172E+02  0.40659134455E+02  0.00000000000E+00 0. -1.
         11    1    3    3    0    0  0.33357626872E+01  0.17110552109E+01  0.28107769725E+01  0.46856685851E+01  0.51100000000E-03 0. -1.
        -11    1    3    3    0    0  0.79118432086E+01  0.13312349306E+02  0.39273942910E+01  0.15976242774E+02  0.51100000000E-03 0.  1.
         12    1    3    3    0    0  0.23200088891E+02  0.30533652594E+01 -0.18559843435E+02  0.29866954185E+02  0.00000000000E+00 0. -1.
</event>
<event>
 7    1  0.3141443E-011  0.5052886E+02  0.7816164E-02  0.1300439E+00
        -11   -1    0    0    0    0  0.00000000000E+00  0.00000000000E+00  0.45593999997E+02  0.45594000000E+02  0.51100000000E-03 0.  1.
         11   -1    0    0    0    0 -0.00000000000E+00 -0.00000000000E+00 -0.45593999997E+02  0.45594000000E+02  0.51100000000E-03 0. -1.
    9900012    2    1    2    0    0 -0.13455266821E+02  0.60453330974E+01  0.37888983442E+02  0.50528864204E+02  0.30000013233E+02 0.  0.
         12    1    1    2    0    0  0.13455266821E+02 -0.60453330974E+01 -0.37888983442E+02  0.40659135796E+02  0.00000000000E+00 0. -1.
         11    1    3    3    0    0 -0.20344470627E+01 -0.34251259961E+01 -0.15325613878E+00  0.39867217918E+01  0.51100000000E-03 0. -1.
        -11    1    3    3    0    0 -0.81884298813E+01 -0.20272688150E+01  0.32123361274E+02  0.33212505816E+02  0.51100000000E-03 0.  1.
        -12    1    3    3    0    0 -0.32323898766E+01  0.11497727909E+02  0.59188783063E+01  0.13329636596E+02  0.00000000000E+00 0.  1.
</event>
<event>
 7    1  0.3141443E-011  0.5052884E+02  0.7816164E-02  0.1300439E+00
        -11   -1    0    0    0    0  0.00000000000E+00  0.00000000000E+00  0.45593999997E+02  0.45594000000E+02  0.51100000000E-03 0. -1.
         11   -1    0    0    0    0 -0.00000000000E+00 -0.00000000000E+00 -0.45593999997E+02  0.45594000000E+02  0.51100000000E-03 0.  1.
    9900012    2    1    2    0    0  0.12261712557E+02 -0.38718794847E+02  0.19164332232E+01  0.50528838848E+02  0.29999936163E+02 0.  0.
         12    1    1    2    0    0 -0.12261712557E+02  0.38718794847E+02 -0.19164332232E+01  0.40659161152E+02  0.00000000000E+00 0. -1.
         11    1    3    3    0    0 -0.26817028710E+00  0.36238412012E+01  0.41431321815E+01  0.55108697034E+01  0.51100000000E-03 0. -1.
        -11    1    3    3    0    0 -0.90701242994E+00 -0.10903564113E+01 -0.75682760469E+00  0.16075873028E+01  0.51100000000E-03 0.  1.
        -12    1    3    3    0    0  0.13436895274E+02 -0.41252279637E+02 -0.14698713536E+01  0.43410381842E+02  0.00000000000E+00 0.  1.
</event>
<event>
 7    1  0.3141443E-011  0.5052885E+02  0.7816164E-02  0.1300439E+00
        -11   -1    0    0    0    0  0.00000000000E+00  0.00000000000E+00  0.45593999997E+02  0.45594000000E+02  0.51100000000E-03 0. -1.
         11   -1    0    0    0    0 -0.00000000000E+00 -0.00000000000E+00 -0.45593999997E+02  0.45594000000E+02  0.51100000000E-03 0.  1.
    9900012    2    1    2    0    0  0.12025065697E+01 -0.15110916572E+02 -0.37727722253E+02  0.50528845458E+02  0.29999956253E+02 0.  0.
         12    1    1    2    0    0 -0.12025065697E+01  0.15110916572E+02  0.37727722253E+02  0.40659154542E+02  0.00000000000E+00 0. -1.
         11    1    3    3    0    0 -0.51517977241E+01 -0.12528879688E+02 -0.40534738831E+01  0.14140173153E+02  0.51100000000E-03 0. -1.
        -11    1    3    3    0    0 -0.91183900447E-01 -0.59785770610E+01 -0.20256045783E+02  0.21120111013E+02  0.51100000000E-03 0.  1.
        -12    1    3    3    0    0  0.64454881942E+01  0.33965401770E+01 -0.13418202587E+02  0.15268561291E+02  0.00000000000E+00 0.  1.
</event>
<event>
 7    1  0.3141443E-011  0.5052884E+02  0.7816164E-02  0.1300439E+00
        -11   -1    0    0    0    0  0.00000000000E+00  0.00000000000E+00  0.45593999997E+02  0.45594000000E+02  0.51100000000E-03 0. -1.
         11   -1    0    0    0    0 -0.00000000000E+00 -0.00000000000E+00 -0.45593999997E+02  0.45594000000E+02  0.51100000000E-03 0.  1.
    9900012    2    1    2    0    0 -0.38740603028E+02  0.82278604452E+01 -0.91997404921E+01  0.50528840692E+02  0.29999941768E+02 0.  0.
         12    1    1    2    0    0  0.38740603028E+02 -0.82278604452E+01  0.91997404921E+01  0.40659159308E+02  0.00000000000E+00 0. -1.
         11    1    3    3    0    0 -0.29353724676E+01 -0.47725618694E+01 -0.42382030585E+01  0.70253913590E+01  0.51100000000E-03 0. -1.
        -11    1    3    3    0    0 -0.94281031389E+01  0.50218455327E+01 -0.10955896744E+02  0.15301625243E+02  0.51100000000E-03 0.  1.
         12    1    3    3    0    0 -0.26377127422E+02  0.79785767818E+01  0.59943593104E+01  0.28201824090E+02  0.00000000000E+00 0. -1.
</event>
<event>
 7    1  0.3141443E-011  0.5052886E+02  0.7816164E-02  0.1300439E+00
        -11   -1    0    0    0    0  0.00000000000E+00  0.00000000000E+00  0.45593999997E+02  0.45594000000E+02  0.51100000000E-03 0.  1.
         11   -1    0    0    0    0 -0.00000000000E+00 -0.00000000000E+00 -0.45593999997E+02  0.45594000000E+02  0.51100000000E-03 0. -1.
    9900012    2    1    2    0    0 -0.59371580624E+01 -0.24545183669E+02  0.31866124579E+02  0.50528858557E+02  0.29999996069E+02 0.  0.
         12    1    1    2    0    0  0.59371580624E+01  0.24545183669E+02 -0.31866124579E+02  0.40659141443E+02  0.00000000000E+00 0. -1.
         11    1    3    3    0    0 -0.14628809391E+01 -0.46858672016E+01 -0.25531059336E+01  0.55331475891E+01  0.51100000000E-03 0. -1.
        -11    1    3    3    0    0  0.53364999654E+01  0.58068653377E+00  0.11829041631E+02  0.12990059850E+02  0.51100000000E-03 0.  1.
        -12    1    3    3    0    0 -0.98107770886E+01 -0.20440003001E+02  0.22590188882E+02  0.32005651118E+02  0.00000000000E+00 0.  1.
</event>
<event>
 7    1  0.3141443E-011  0.5052887E+02  0.7816164E-02  0.1300439E+00
        -11   -1    0    0    0    0  0.00000000000E+00  0.00000000000E+00  0.45593999997E+02  0.45594000000E+02  0.51100000000E-03 0. -1.
         11   -1    0    0    0    0 -0.00000000000E+00 -0.00000000000E+00 -0.45593999997E+02  0.45594000000E+02  0.51100000000E-03 0.  1.
    9900012    2    1    2    0    0 -0.17569273924E+02  0.35088712541E+02 -0.10642747974E+02  0.50528865498E+02  0.30000017168E+02 0.  0.
         12    1    1    2    0    0  0.17569273924E+02 -0.35088712541E+02  0.10642747974E+02  0.40659134502E+02  0.00000000000E+00 0. -1.
         11    1    3    3    0    0 -0.22575352721E+02  0.28075544467E+02 -0.84757616613E+00  0.36036108742E+02  0.51100000000E-03 0. -1.
        -11    1    3    3    0    0  0.33996962625E+01  0.21992839441E+01 -0.74524617319E+00  0.41170592252E+01  0.51100000000E-03 0.  1.
        -12    1    3    3    0    0  0.16063825353E+01  0.48138841296E+01 -0.90499256348E+01  0.10375697531E+02  0.00000000000E+00 0.  1.
</event>
<event>
 7    1  0.3141443E-011  0.5052886E+02  0.7816164E-02  0.1300439E+00
        -11   -1    0    0    0    0  0.00000000000E+00  0.00000000000E+00  0.45593999997E+02  0.45594000000E+02  0.51100000000E-03 0.  1.
         11   -1    0    0    0    0 -0.00000000000E+00 -0.00000000000E+00 -0.45593999997E+02  0.45594000000E+02  0.51100000000E-03 0. -1.
    9900012    2    1    2    0    0 -0.53636544990E+00 -0.61189523684E+01  0.40192489391E+02  0.50528862411E+02  0.30000007785E+02 0.  0.
         12    1    1    2    0    0  0.53636544990E+00  0.61189523684E+01 -0.40192489391E+02  0.40659137589E+02  0.00000000000E+00 0. -1.
         11    1    3    3    0    0 -0.23747011750E+01 -0.10313028532E+02  0.14877509836E+02  0.18257548092E+02  0.51100000000E-03 0. -1.
        -11    1    3    3    0    0 -0.78940982665E+01  0.54787253676E+01  0.16414931439E+02  0.19020599189E+02  0.51100000000E-03 0.  1.
        -12    1    3    3    0    0  0.97324339916E+01 -0.12846492042E+01  0.89000481163E+01  0.13250715130E+02  0.00000000000E+00 0.  1.
</event>
<event>
 7    1  0.3141443E-011  0.5052887E+02  0.7816164E-02  0.1300439E+00
        -11   -1    0    0    0    0  0.00000000000E+00  0.00000000000E+00  0.45593999997E+02  0.45594000000E+02  0.51100000000E-03 0.  1.
         11   -1    0    0    0    0 -0.00000000000E+00 -0.00000000000E+00 -0.45593999997E+02  0.45594000000E+02  0.51100000000E-03 0. -1.
    9900012    2    1    2    0    0 -0.39978174351E+02  0.30540984947E+01 -0.67515233066E+01  0.50528868073E+02  0.30000024995E+02 0.  0.
         12    1    1    2    0    0  0.39978174351E+02 -0.30540984947E+01  0.67515233066E+01  0.40659131927E+02  0.00000000000E+00 0. -1.
         11    1    3    3    0    0 -0.89276963166E+01  0.24736480786E+01  0.98614330893E+01  0.13530356949E+02  0.51100000000E-03 0. -1.
        -11    1    3    3    0    0 -0.20674423827E+02  0.57302714833E+01 -0.11420495362E+02  0.24304228570E+02  0.51100000000E-03 0.  1.
        -12    1    3    3    0    0 -0.10376054208E+02 -0.51498210672E+01 -0.51924610342E+01  0.12694282553E+02  0.00000000000E+00 0.  1.
</event>
<event>
 7    1  0.3141443E-011  0.5052899E+02  0.7816164E-02  0.1300438E+00
        -11   -1    0    0    0    0  0.00000000000E+00  0.00000000000E+00  0.45593999997E+02  0.45594000000E+02  0.51100000000E-03 0.  1.
         11   -1    0    0    0    0 -0.00000000000E+00 -0.00000000000E+00 -0.45593999997E+02  0.45594000000E+02  0.51100000000E-03 0. -1.
    9900012    2    1    2    0    0 -0.29745002192E+02  0.48486587285E+01  0.27292497475E+02  0.50528990356E+02  0.30000396682E+02 0.  0.
         12    1    1    2    0    0  0.29745002192E+02 -0.48486587285E+01 -0.27292497475E+02  0.40659009644E+02  0.00000000000E+00 0. -1.
         11    1    3    3    0    0 -0.61327389721E+01  0.66621896352E+01  0.18035241416E+00  0.90569191942E+01  0.51100000000E-03 0. -1.
        -11    1    3    3    0    0 -0.17409160565E+02  0.83434778536E+01  0.18866857540E+02  0.26993532706E+02  0.51100000000E-03 0.  1.
         12    1    3    3    0    0 -0.62031026548E+01 -0.10157008760E+02  0.82452875206E+01  0.14478538455E+02  0.00000000000E+00 0. -1.
</event>
<event>
 7    1  0.3141443E-011  0.5052883E+02  0.7816164E-02  0.1300439E+00
        -11   -1    0    0    0    0  0.00000000000E+00  0.00000000000E+00  0.45593999997E+02  0.45594000000E+02  0.51100000000E-03 0.  1.
         11   -1    0    0    0    0 -0.00000000000E+00 -0.00000000000E+00 -0.45593999997E+02  0.45594000000E+02  0.51100000000E-03 0. -1.
    9900012    2    1    2    0    0  0.38097822278E+02 -0.11661576747E+02 -0.81075315653E+01  0.50528825111E+02  0.29999894408E+02 0.  0.
         12    1    1    2    0    0 -0.38097822278E+02  0.11661576747E+02  0.81075315653E+01  0.40659174889E+02  0.00000000000E+00 0. -1.
         11    1    3    3    0    0  0.12238054645E+02 -0.78447626887E+01  0.49805938843E+01  0.15366085996E+02  0.51100000000E-03 0. -1.
        -11    1    3    3    0    0 -0.57350978521E-01  0.18386499760E+01  0.34449695031E+01  0.39053473607E+01  0.51100000000E-03 0.  1.
         12    1    3    3    0    0  0.25917118612E+02 -0.56554640345E+01 -0.16533094953E+02  0.31257391755E+02  0.00000000000E+00 0. -1.
</event>
<event>
 7    1  0.3141443E-011  0.5052887E+02  0.7816164E-02  0.1300439E+00
        -11   -1    0    0    0    0  0.00000000000E+00  0.00000000000E+00  0.45593999997E+02  0.45594000000E+02  0.51100000000E-03 0. -1.
         11   -1    0    0    0    0 -0.00000000000E+00 -0.00000000000E+00 -0.45593999997E+02  0.45594000000E+02  0.51100000000E-03 0.  1.
    9900012    2    1    2    0    0  0.23575706761E+02  0.18623341820E+02 -0.27395662585E+02  0.50528866484E+02  0.30000020164E+02 0.  0.
         12    1    1    2    0    0 -0.23575706761E+02 -0.18623341820E+02  0.27395662585E+02  0.40659133516E+02  0.00000000000E+00 0. -1.
         11    1    3    3    0    0 -0.11273864281E+01  0.24268435196E+01 -0.70220527107E+00  0.27665252810E+01  0.51100000000E-03 0. -1.
        -11    1    3    3    0    0  0.29019816387E+02  0.16812701544E+02 -0.18063677949E+02  0.38093478939E+02  0.51100000000E-03 0.  1.
        -12    1    3    3    0    0 -0.43167231975E+01 -0.61620324335E+00 -0.86297793644E+01  0.96688622640E+01  0.00000000000E+00 0.  1.
</event>
<event>
 7    1  0.3141443E-011  0.5052887E+02  0.7816164E-02  0.1300439E+00
        -11   -1    0    0    0    0  0.00000000000E+00  0.00000000000E+00  0.45593999997E+02  0.45594000000E+02  0.51100000000E-03 0.  1.
         11   -1    0    0    0    0 -0.00000000000E+00 -0.00000000000E+00 -0.45593999997E+02  0.45594000000E+02  0.51100000000E-03 0. -1.
    9900012    2    1    2    0    0 -0.11909096875E+02  0.20078707073E+02  0.33289400257E+02  0.50528865288E+02  0.30000016529E+02 0.  0.
         12    1    1    2    0    0  0.11909096875E+02 -0.20078707073E+02 -0.33289400257E+02  0.40659134712E+02  0.00000000000E+00 0. -1.
         11    1    3    3    0    0  0.27471252465E+01  0.30621054703E+01  0.45151755594E+01  0.61081910272E+01  0.51100000000E-03 0. -1.
        -11    1    3    3    0    0 -0.82914645424E+01 -0.14319789730E+01  0.22339477911E+02  0.23871556749E+02  0.51100000000E-03 0.  1.
         12    1    3    3    0    0 -0.63647575787E+01  0.18448580576E+02  0.64347467866E+01  0.20549117512E+02  0.00000000000E+00 0. -1.
</event>
<event>
 7    1  0.3141443E-011  0.5052887E+02  0.7816164E-02  0.1300439E+00
        -11   -1    0    0    0    0  0.00000000000E+00  0.00000000000E+00  0.45593999997E+02  0.45594000000E+02  0.51100000000E-03 0. -1.
         11   -1    0    0    0    0 -0.00000000000E+00 -0.00000000000E+00 -0.45593999997E+02  0.45594000000E+02  0.51100000000E-03 0.  1.
    9900012    2    1    2    0    0  0.35909597627E+02 -0.16150448508E+01 -0.19001517278E+02  0.50528865350E+02  0.30000016718E+02 0.  0.
         12    1    1    2    0    0 -0.35909597627E+02  0.16150448508E+01  0.19001517278E+02  0.40659134650E+02  0.00000000000E+00 0. -1.
         11    1    3    3    0    0  0.63647937919E+00  0.52493493595E+01 -0.56647548623E+01  0.77492078698E+01  0.51100000000E-03 0. -1.
        -11    1    3    3    0    0  0.97135805909E+01 -0.19751768960E+01 -0.13509726068E+02  0.16756123369E+02  0.51100000000E-03 0.  1.
        -12    1    3    3    0    0  0.25559537657E+02 -0.48892173143E+01  0.17296365283E+00  0.26023534111E+02  0.00000000000E+00 0.  1.
</event>
<event>
 7    1  0.3141443E-011  0.5052884E+02  0.7816164E-02  0.1300439E+00
        -11   -1    0    0    0    0  0.00000000000E+00  0.00000000000E+00  0.45593999997E+02  0.45594000000E+02  0.51100000000E-03 0.  1.
         11   -1    0    0    0    0 -0.00000000000E+00 -0.00000000000E+00 -0.45593999997E+02  0.45594000000E+02  0.51100000000E-03 0. -1.
    9900012    2    1    2    0    0 -0.51566391472E+01  0.40311200379E+02 -0.12584223102E+01  0.50528838302E+02  0.29999934502E+02 0.  0.
         12    1    1    2    0    0  0.51566391472E+01 -0.40311200379E+02  0.12584223102E+01  0.40659161698E+02  0.00000000000E+00 0. -1.
         11    1    3    3    0    0  0.19912333716E+01  0.49249623417E+01  0.11622782442E+01  0.54379366846E+01  0.51100000000E-03 0. -1.
        -11    1    3    3    0    0 -0.15798578611E+02  0.31050419727E+02  0.92936897281E+00  0.34850930809E+02  0.51100000000E-03 0.  1.
         12    1    3    3    0    0  0.86507060918E+01  0.43358183107E+01 -0.33500695272E+01  0.10239970808E+02  0.00000000000E+00 0. -1.
</event>
<event>
 7    1  0.3141443E-011  0.5052886E+02  0.7816164E-02  0.1300439E+00
        -11   -1    0    0    0    0  0.00000000000E+00  0.00000000000E+00  0.45593999997E+02  0.45594000000E+02  0.51100000000E-03 0.  1.
         11   -1    0    0    0    0 -0.00000000000E+00 -0.00000000000E+00 -0.45593999997E+02  0.45594000000E+02  0.51100000000E-03 0. -1.
    9900012    2    1    2    0    0 -0.38706398692E+02 -0.57240224950E+01 -0.11055121946E+02  0.50528862595E+02  0.30000008345E+02 0.  0.
         12    1    1    2    0    0  0.38706398692E+02  0.57240224950E+01  0.11055121946E+02  0.40659137405E+02  0.00000000000E+00 0. -1.
         11    1    3    3    0    0 -0.12463331730E+02  0.68804375811E+01  0.30282542695E+01  0.14554909251E+02  0.51100000000E-03 0. -1.
        -11    1    3    3    0    0 -0.20156493031E+02 -0.42262083102E+01 -0.30113655661E+01  0.20813778389E+02  0.51100000000E-03 0.  1.
        -12    1    3    3    0    0 -0.60865739316E+01 -0.83782517659E+01 -0.11072010649E+02  0.15160174956E+02  0.00000000000E+00 0.  1.
</event>
<event>
 7    1  0.3141443E-011  0.5052885E+02  0.7816164E-02  0.1300439E+00
        -11   -1    0    0    0    0  0.00000000000E+00  0.00000000000E+00  0.45593999997E+02  0.45594000000E+02  0.51100000000E-03 0. -1.
         11   -1    0    0    0    0 -0.00000000000E+00 -0.00000000000E+00 -0.45593999997E+02  0.45594000000E+02  0.51100000000E-03 0.  1.
    9900012    2    1    2    0    0 -0.37717267776E+02  0.14971438162E+02 -0.25357462175E+01  0.50528852715E+02  0.29999978311E+02 0.  0.
         12    1    1    2    0    0  0.37717267776E+02 -0.14971438162E+02  0.25357462175E+01  0.40659147285E+02  0.00000000000E+00 0. -1.
         11    1    3    3    0    0 -0.13740162539E+02  0.30991607298E+01  0.18056240778E+01  0.14200603593E+02  0.51100000000E-03 0. -1.
        -11    1    3    3    0    0 -0.14016377324E+02  0.99066742414E+01 -0.14124925199E+02  0.22228687320E+02  0.51100000000E-03 0.  1.
         12    1    3    3    0    0 -0.99607279122E+01  0.19656031906E+01  0.97835549037E+01  0.14099561802E+02  0.00000000000E+00 0. -1.
</event>
<event>
 7    1  0.3695056E-011  0.5052886E+02  0.7816164E-02  0.1300439E+00
        -11   -1    0    0    0    0  0.00000000000E+00  0.00000000000E+00  0.45593999997E+02  0.45594000000E+02  0.51100000000E-03 0. -1.
         11   -1    0    0    0    0 -0.00000000000E+00 -0.00000000000E+00 -0.45593999997E+02  0.45594000000E+02  0.51100000000E-03 0.  1.
    9900012    2    1    2    0    0 -0.27827578696E+02 -0.12834870443E+02 -0.26721851772E+02  0.50528863297E+02  0.30000010477E+02 0.  0.
         12    1    1    2    0    0  0.27827578696E+02  0.12834870443E+02  0.26721851772E+02  0.40659136703E+02  0.00000000000E+00 0. -1.
         11    1    3    3    0    0 -0.63364798562E+01 -0.43682798788E+01  0.28634790608E+01  0.82117208099E+01  0.51100000000E-03 0. -1.
        -11    1    3    3    0    0 -0.22864238104E+02 -0.11383264268E+02 -0.20735787777E+02  0.32898707945E+02  0.51100000000E-03 0.  1.
        -12    1    3    3    0    0  0.13731392641E+01  0.29166737036E+01 -0.88495430558E+01  0.94184345423E+01  0.00000000000E+00 0.  1.
</event>
<event>
 7    1  0.3141443E-011  0.5052889E+02  0.7816164E-02  0.1300439E+00
        -11   -1    0    0    0    0  0.00000000000E+00  0.00000000000E+00  0.45593999997E+02  0.45594000000E+02  0.51100000000E-03 0. -1.
         11   -1    0    0    0    0 -0.00000000000E+00 -0.00000000000E+00 -0.45593999997E+02  0.45594000000E+02  0.51100000000E-03 0.  1.
    9900012    2    1    2    0    0  0.15988805865E+02  0.34845427591E+02 -0.13539470184E+02  0.50528892904E+02  0.30000100470E+02 0.  0.
         12    1    1    2    0    0 -0.15988805865E+02 -0.34845427591E+02  0.13539470184E+02  0.40659107096E+02  0.00000000000E+00 0. -1.
         11    1    3    3    0    0  0.22781290382E+01  0.90608870575E-01 -0.10523772059E+02  0.10767908827E+02  0.51100000000E-03 0. -1.
        -11    1    3    3    0    0 -0.58619053773E+00  0.34249122059E+01  0.32500707835E+01  0.47577939556E+01  0.51100000000E-03 0.  1.
        -12    1    3    3    0    0  0.14296867365E+02  0.31329906515E+02 -0.62657689080E+01  0.35003190121E+02  0.00000000000E+00 0.  1.
</event>
<event>
 7    1  0.3141443E-011  0.5052885E+02  0.7816164E-02  0.1300439E+00
        -11   -1    0    0    0    0  0.00000000000E+00  0.00000000000E+00  0.45593999997E+02  0.45594000000E+02  0.51100000000E-03 0. -1.
         11   -1    0    0    0    0 -0.00000000000E+00 -0.00000000000E+00 -0.45593999997E+02  0.45594000000E+02  0.51100000000E-03 0.  1.
    9900012    2    1    2    0    0 -0.41848280891E+01 -0.37358860976E+02  0.15490930062E+02  0.50528853504E+02  0.29999980712E+02 0.  0.
         12    1    1    2    0    0  0.41848280891E+01  0.37358860976E+02 -0.15490930062E+02  0.40659146496E+02  0.00000000000E+00 0. -1.
         11    1    3    3    0    0 -0.68685906483E+00  0.33551077545E-01  0.34321046708E+01  0.35003205257E+01  0.51100000000E-03 0. -1.
        -11    1    3    3    0    0 -0.14656698373E+02 -0.21133929478E+02  0.74789104513E+01  0.26784246940E+02  0.51100000000E-03 0.  1.
         12    1    3    3    0    0  0.11158729349E+02 -0.16258482576E+02  0.45799149396E+01  0.20244286039E+02  0.00000000000E+00 0. -1.
</event>
<event>
 7    1  0.3141443E-011  0.5052886E+02  0.7816164E-02  0.1300439E+00
        -11   -1    0    0    0    0  0.00000000000E+00  0.00000000000E+00  0.45593999997E+02  0.45594000000E+02  0.51100000000E-03 0.  1.
         11   -1    0    0    0    0 -0.00000000000E+00 -0.00000000000E+00 -0.45593999997E+02  0.45594000000E+02  0.51100000000E-03 0. -1.
    9900012    2    1    2    0    0  0.15083783763E+02  0.29639349066E+02  0.23391327460E+02  0.50528859010E+02  0.29999997448E+02 0.  0.
         12    1    1    2    0    0 -0.15083783763E+02 -0.29639349066E+02 -0.23391327460E+02  0.40659140990E+02  0.00000000000E+00 0. -1.
         11    1    3    3    0    0  0.73537730583E+01  0.20574588277E+02  0.19201177132E+02  0.29087400442E+02  0.51100000000E-03 0. -1.
        -11    1    3    3    0    0  0.78638926913E+01 -0.32797941973E+01  0.30242896560E+01  0.90412491627E+01  0.51100000000E-03 0.  1.
         12    1    3    3    0    0 -0.13388198643E+00  0.12344554986E+02  0.11658606724E+01  0.12400209406E+02  0.00000000000E+00 0. -1.
</event>
<event>
 7    1  0.3141443E-011  0.5052887E+02  0.7816164E-02  0.1300439E+00
        -11   -1    0    0    0    0  0.00000000000E+00  0.00000000000E+00  0.45593999997E+02  0.45594000000E+02  0.51100000000E-03 0.  1.
         11   -1    0    0    0    0 -0.00000000000E+00 -0.00000000000E+00 -0.45593999997E+02  0.45594000000E+02  0.51100000000E-03 0. -1.
    9900012    2    1    2    0    0  0.67489683918E+01  0.36140725208E+01  0.39931879118E+02  0.50528867392E+02  0.30000022925E+02 0.  0.
         12    1    1    2    0    0 -0.67489683918E+01 -0.36140725208E+01 -0.39931879118E+02  0.40659132608E+02  0.00000000000E+00 0. -1.
         11    1    3    3    0    0 -0.20976881701E+01 -0.58394550871E+01  0.36842436415E+01  0.72161750840E+01  0.51100000000E-03 0. -1.
        -11    1    3    3    0    0  0.83156393098E+01  0.36329051911E+00  0.30112392335E+01  0.88515195935E+01  0.51100000000E-03 0.  1.
        -12    1    3    3    0    0  0.53101725206E+00  0.90902370887E+01  0.33236396243E+02  0.34461172715E+02  0.00000000000E+00 0.  1.
</event>
<event>
 7    1  0.3141443E-011  0.5052886E+02  0.7816164E-02  0.1300439E+00
        -11   -1    0    0    0    0  0.00000000000E+00  0.00000000000E+00  0.45593999997E+02  0.45594000000E+02  0.51100000000E-03 0.  1.
         11   -1    0    0    0    0 -0.00000000000E+00 -0.00000000000E+00 -0.45593999997E+02  0.45594000000E+02  0.51100000000E-03 0. -1.
    9900012    2    1    2    0    0 -0.31221754127E+02 -0.56825106528E+01  0.25418038945E+02  0.50528861274E+02  0.30000004329E+02 0.  0.
         12    1    1    2    0    0  0.31221754127E+02  0.56825106528E+01 -0.25418038945E+02  0.40659138726E+02  0.00000000000E+00 0. -1.
         11    1    3    3    0    0 -0.30771734677E+02 -0.78730833106E+00  0.16847728355E+02  0.35090817324E+02  0.51100000000E-03 0.  1.
        -11    1    3    3    0    0 -0.83980831778E+00 -0.68532538636E+01  0.27942787202E+00  0.69101698045E+01  0.51100000000E-03 0. -1.
        -12    1    3    3    0    0  0.38978886788E+00  0.19580515419E+01  0.82908827178E+01  0.85278741455E+01  0.00000000000E+00 0.  1.
</event>
<event>
 7    1  0.3141443E-011  0.5052885E+02  0.7816164E-02  0.1300439E+00
        -11   -1    0    0    0    0  0.00000000000E+00  0.00000000000E+00  0.45593999997E+02  0.45594000000E+02  0.51100000000E-03 0. -1.
         11   -1    0    0    0    0 -0.00000000000E+00 -0.00000000000E+00 -0.45593999997E+02  0.45594000000E+02  0.51100000000E-03 0.  1.
    9900012    2    1    2    0    0 -0.12356815085E+02 -0.38615442881E+02 -0.30533478114E+01  0.50528852926E+02  0.29999978954E+02 0.  0.
         12    1    1    2    0    0  0.12356815085E+02  0.38615442881E+02  0.30533478114E+01  0.40659147074E+02  0.00000000000E+00 0. -1.
         11    1    3    3    0    0 -0.15329021416E+02 -0.17122904037E+02  0.19247620144E+01  0.23062468413E+02  0.51100000000E-03 0.  1.
        -11    1    3    3    0    0  0.31663985472E+01 -0.90350279071E+01  0.56269837831E+01  0.11104987879E+02  0.51100000000E-03 0. -1.
        -12    1    3    3    0    0 -0.19419221683E+00 -0.12457510936E+02 -0.10605093609E+02  0.16361396634E+02  0.00000000000E+00 0.  1.
</event>
<event>
 7    1  0.3141443E-011  0.5052886E+02  0.7816164E-02  0.1300439E+00
        -11   -1    0    0    0    0  0.00000000000E+00  0.00000000000E+00  0.45593999997E+02  0.45594000000E+02  0.51100000000E-03 0.  1.
         11   -1    0    0    0    0 -0.00000000000E+00 -0.00000000000E+00 -0.45593999997E+02  0.45594000000E+02  0.51100000000E-03 0. -1.
    9900012    2    1    2    0    0  0.25952161566E+02 -0.21897116184E+02  0.22364425381E+02  0.50528856997E+02  0.29999991327E+02 0.  0.
         12    1    1    2    0    0 -0.25952161566E+02  0.21897116184E+02 -0.22364425381E+02  0.40659143003E+02  0.00000000000E+00 0. -1.
         11    1    3    3    0    0  0.54155278446E+00  0.60731096632E+01  0.30880489234E+01  0.68346168008E+01  0.51100000000E-03 0. -1.
        -11    1    3    3    0    0  0.89380500326E+01 -0.15367742513E+02  0.13002988676E+02  0.22025756811E+02  0.51100000000E-03 0.  1.
        -12    1    3    3    0    0  0.16472558749E+02 -0.12602483335E+02  0.62733877820E+01  0.21668483385E+02  0.00000000000E+00 0.  1.
</event>
<event>
 7    1  0.3141443E-011  0.5052878E+02  0.7816164E-02  0.1300439E+00
        -11   -1    0    0    0    0  0.00000000000E+00  0.00000000000E+00  0.45593999997E+02  0.45594000000E+02  0.51100000000E-03 0.  1.
         11   -1    0    0    0    0 -0.00000000000E+00 -0.00000000000E+00 -0.45593999997E+02  0.45594000000E+02  0.51100000000E-03 0. -1.
    9900012    2    1    2    0    0  0.24802211126E+02  0.27316016267E+02  0.17083835353E+02  0.50528783925E+02  0.29999769219E+02 0.  0.
         12    1    1    2    0    0 -0.24802211126E+02 -0.27316016267E+02 -0.17083835353E+02  0.40659216075E+02  0.00000000000E+00 0. -1.
         11    1    3    3    0    0  0.10257652938E+01  0.15817912110E+02 -0.37344790311E+01  0.16285111969E+02  0.51100000000E-03 0.  1.
        -11    1    3    3    0    0  0.10771247859E+02  0.30111346841E+01  0.56289321152E+01  0.12520846200E+02  0.51100000000E-03 0. -1.
        -12    1    3    3    0    0  0.13005197973E+02  0.84869694728E+01  0.15189382269E+02  0.21722825757E+02  0.00000000000E+00 0.  1.
</event>
<event>
 7    1  0.3141443E-011  0.5052886E+02  0.7816164E-02  0.1300439E+00
        -11   -1    0    0    0    0  0.00000000000E+00  0.00000000000E+00  0.45593999997E+02  0.45594000000E+02  0.51100000000E-03 0.  1.
         11   -1    0    0    0    0 -0.00000000000E+00 -0.00000000000E+00 -0.45593999997E+02  0.45594000000E+02  0.51100000000E-03 0. -1.
    9900012    2    1    2    0    0 -0.61336317719E+01  0.17154562115E+02  0.36349207023E+02  0.50528864603E+02  0.30000014447E+02 0.  0.
         12    1    1    2    0    0  0.61336317719E+01 -0.17154562115E+02 -0.36349207023E+02  0.40659135397E+02  0.00000000000E+00 0. -1.
         11    1    3    3    0    0  0.37645389490E+00  0.28785797774E+00 -0.22591356225E+01  0.23083053897E+01  0.51100000000E-03 0. -1.
        -11    1    3    3    0    0  0.40195461133E+01 -0.24860363295E+01  0.15872151771E+02  0.16560867420E+02  0.51100000000E-03 0.  1.
         12    1    3    3    0    0 -0.10529631780E+02  0.19352740466E+02  0.22736190874E+02  0.31659691793E+02  0.00000000000E+00 0. -1.
</event>
<event>
 7    1  0.3141443E-011  0.5052886E+02  0.7816164E-02  0.1300439E+00
        -11   -1    0    0    0    0  0.00000000000E+00  0.00000000000E+00  0.45593999997E+02  0.45594000000E+02  0.51100000000E-03 0.  1.
         11   -1    0    0    0    0 -0.00000000000E+00 -0.00000000000E+00 -0.45593999997E+02  0.45594000000E+02  0.51100000000E-03 0. -1.
    9900012    2    1    2    0    0  0.35390653363E+02  0.44454674324E+01  0.19516792042E+02  0.50528859603E+02  0.29999999250E+02 0.  0.
         12    1    1    2    0    0 -0.35390653363E+02 -0.44454674324E+01 -0.19516792042E+02  0.40659140397E+02  0.00000000000E+00 0. -1.
         11    1    3    3    0    0 -0.76507185325E+00 -0.45341096585E+01 -0.32129951437E+01  0.56095296942E+01  0.51100000000E-03 0. -1.
        -11    1    3    3    0    0  0.77740487030E+01  0.13161026606E+01  0.10373942795E+02  0.13030220598E+02  0.51100000000E-03 0.  1.
        -12    1    3    3    0    0  0.28381676513E+02  0.76634744303E+01  0.12355844391E+02  0.31889109311E+02  0.00000000000E+00 0.  1.
</event>
<event>
 7    1  0.3141443E-011  0.5052886E+02  0.7816164E-02  0.1300439E+00
        -11   -1    0    0    0    0  0.00000000000E+00  0.00000000000E+00  0.45593999997E+02  0.45594000000E+02  0.51100000000E-03 0. -1.
         11   -1    0    0    0    0 -0.00000000000E+00 -0.00000000000E+00 -0.45593999997E+02  0.45594000000E+02  0.51100000000E-03 0.  1.
    9900012    2    1    2    0    0 -0.36969263833E+02 -0.12321288653E+02 -0.11602801268E+02  0.50528860563E+02  0.30000002169E+02 0.  0.
         12    1    1    2    0    0  0.36969263833E+02  0.12321288653E+02  0.11602801268E+02  0.40659139437E+02  0.00000000000E+00 0. -1.
         11    1    3    3    0    0 -0.11036426093E+02  0.47950946609E+01 -0.11067471485E+02  0.16348839685E+02  0.51100000000E-03 0. -1.
        -11    1    3    3    0    0  0.12701111411E+00 -0.86249703621E+00  0.31297010633E+01  0.32488554857E+01  0.51100000000E-03 0.  1.
        -12    1    3    3    0    0 -0.26059848855E+02 -0.16253886278E+02 -0.36650308463E+01  0.30931165393E+02  0.00000000000E+00 0.  1.
</event>
<event>
 7    1  0.3141443E-011  0.5052887E+02  0.7816164E-02  0.1300439E+00
        -11   -1    0    0    0    0  0.00000000000E+00  0.00000000000E+00  0.45593999997E+02  0.45594000000E+02  0.51100000000E-03 0. -1.
         11   -1    0    0    0    0 -0.00000000000E+00 -0.00000000000E+00 -0.45593999997E+02  0.45594000000E+02  0.51100000000E-03 0.  1.
    9900012    2    1    2    0    0 -0.24664919644E+02  0.31950196243E+02 -0.48980865475E+01  0.50528873683E+02  0.30000042048E+02 0.  0.
         12    1    1    2    0    0  0.24664919644E+02 -0.31950196243E+02  0.48980865475E+01  0.40659126317E+02  0.00000000000E+00 0. -1.
         11    1    3    3    0    0 -0.91911117830E+01  0.75661679000E+00  0.25055250622E+01  0.95564983583E+01  0.51100000000E-03 0. -1.
        -11    1    3    3    0    0 -0.19066726718E+02  0.21887090199E+02 -0.85662700635E+00  0.29039948265E+02  0.51100000000E-03 0.  1.
         12    1    3    3    0    0  0.35929188574E+01  0.93064892543E+01 -0.65469846033E+01  0.11932427060E+02  0.00000000000E+00 0. -1.
</event>
<event>
 7    1  0.3141443E-011  0.5052886E+02  0.7816164E-02  0.1300439E+00
        -11   -1    0    0    0    0  0.00000000000E+00  0.00000000000E+00  0.45593999997E+02  0.45594000000E+02  0.51100000000E-03 0.  1.
         11   -1    0    0    0    0 -0.00000000000E+00 -0.00000000000E+00 -0.45593999997E+02  0.45594000000E+02  0.51100000000E-03 0. -1.
    9900012    2    1    2    0    0  0.36882083089E+02  0.27154388693E+00  0.17111511886E+02  0.50528860461E+02  0.30000001856E+02 0.  0.
         12    1    1    2    0    0 -0.36882083089E+02 -0.27154388693E+00 -0.17111511886E+02  0.40659139539E+02  0.00000000000E+00 0. -1.
         11    1    3    3    0    0  0.15272985423E+02 -0.28049603184E+01  0.38583494327E+01  0.16000585825E+02  0.51100000000E-03 0. -1.
        -11    1    3    3    0    0  0.34092034841E+01 -0.86673139271E+01  0.35844558177E+00  0.93205945413E+01  0.51100000000E-03 0.  1.
        -12    1    3    3    0    0  0.18199894182E+02  0.11743818132E+02  0.12894716871E+02  0.25207680094E+02  0.00000000000E+00 0.  1.
</event>
<event>
 7    1  0.3141443E-011  0.5052884E+02  0.7816164E-02  0.1300439E+00
        -11   -1    0    0    0    0  0.00000000000E+00  0.00000000000E+00  0.45593999997E+02  0.45594000000E+02  0.51100000000E-03 0.  1.
         11   -1    0    0    0    0 -0.00000000000E+00 -0.00000000000E+00 -0.45593999997E+02  0.45594000000E+02  0.51100000000E-03 0. -1.
    9900012    2    1    2    0    0  0.52917718628E+01  0.25327174568E+02  0.31363966595E+02  0.50528843324E+02  0.29999949767E+02 0.  0.
         12    1    1    2    0    0 -0.52917718628E+01 -0.25327174568E+02 -0.31363966595E+02  0.40659156676E+02  0.00000000000E+00 0. -1.
         11    1    3    3    0    0  0.33309385916E+01  0.60473589855E+01  0.13835931683E+02  0.15462816962E+02  0.51100000000E-03 0. -1.
        -11    1    3    3    0    0  0.67782025279E+01  0.15207586123E+01 -0.29395616317E+01  0.75430603281E+01  0.51100000000E-03 0.  1.
         12    1    3    3    0    0 -0.48173692566E+01  0.17759056970E+02  0.20467596544E+02  0.27522966034E+02  0.00000000000E+00 0. -1.
</event>
<event>
 7    1  0.3141443E-011  0.5052886E+02  0.7816164E-02  0.1300439E+00
        -11   -1    0    0    0    0  0.00000000000E+00  0.00000000000E+00  0.45593999997E+02  0.45594000000E+02  0.51100000000E-03 0. -1.
         11   -1    0    0    0    0 -0.00000000000E+00 -0.00000000000E+00 -0.45593999997E+02  0.45594000000E+02  0.51100000000E-03 0.  1.
    9900012    2    1    2    0    0  0.20888551718E+02 -0.26881552082E+02 -0.22230970004E+02  0.50528862496E+02  0.30000008043E+02 0.  0.
         12    1    1    2    0    0 -0.20888551718E+02  0.26881552082E+02  0.22230970004E+02  0.40659137504E+02  0.00000000000E+00 0. -1.
         11    1    3    3    0    0  0.35078875221E+01 -0.75022307059E+01  0.18220291091E+01  0.84798897851E+01  0.51100000000E-03 0. -1.
        -11    1    3    3    0    0 -0.97865021201E-01 -0.16476451479E+02 -0.14341619788E+02  0.21844108801E+02  0.51100000000E-03 0.  1.
         12    1    3    3    0    0  0.17478529217E+02 -0.29028698976E+01 -0.97113793249E+01  0.20204863910E+02  0.00000000000E+00 0. -1.
</event>
<event>
 7    1  0.3141443E-011  0.5052886E+02  0.7816164E-02  0.1300439E+00
        -11   -1    0    0    0    0  0.00000000000E+00  0.00000000000E+00  0.45593999997E+02  0.45594000000E+02  0.51100000000E-03 0. -1.
         11   -1    0    0    0    0 -0.00000000000E+00 -0.00000000000E+00 -0.45593999997E+02  0.45594000000E+02  0.51100000000E-03 0.  1.
    9900012    2    1    2    0    0  0.36730823606E+02 -0.17230559823E+02 -0.26684013708E+01  0.50528856373E+02  0.29999989432E+02 0.  0.
         12    1    1    2    0    0 -0.36730823606E+02  0.17230559823E+02  0.26684013708E+01  0.40659143627E+02  0.00000000000E+00 0. -1.
         11    1    3    3    0    0  0.53160797820E+01  0.22000906253E+01 -0.13817920085E+01  0.59169631082E+01  0.51100000000E-03 0. -1.
        -11    1    3    3    0    0 -0.24146055202E+01  0.16919106232E+01 -0.36113187567E+01  0.46620279706E+01  0.51100000000E-03 0.  1.
        -12    1    3    3    0    0  0.33829349344E+02 -0.21122561071E+02  0.23247093944E+01  0.39949865294E+02  0.00000000000E+00 0.  1.
</event>
<event>
 7    1  0.3141443E-011  0.5052886E+02  0.7816164E-02  0.1300439E+00
        -11   -1    0    0    0    0  0.00000000000E+00  0.00000000000E+00  0.45593999997E+02  0.45594000000E+02  0.51100000000E-03 0.  1.
         11   -1    0    0    0    0 -0.00000000000E+00 -0.00000000000E+00 -0.45593999997E+02  0.45594000000E+02  0.51100000000E-03 0. -1.
    9900012    2    1    2    0    0 -0.21108873634E+02  0.32987106857E+02  0.10928490717E+02  0.50528859893E+02  0.30000000132E+02 0.  0.
         12    1    1    2    0    0  0.21108873634E+02 -0.32987106857E+02 -0.10928490717E+02  0.40659140107E+02  0.00000000000E+00 0. -1.
         11    1    3    3    0    0  0.27912354992E+01  0.62036126848E+00 -0.42467737086E+01  0.51196612103E+01  0.51100000000E-03 0. -1.
        -11    1    3    3    0    0 -0.33993107585E+01  0.14661215935E+02  0.16743280142E+01  0.15142983223E+02  0.51100000000E-03 0.  1.
        -12    1    3    3    0    0 -0.20500798374E+02  0.17705529653E+02  0.13500936411E+02  0.30266215460E+02  0.00000000000E+00 0.  1.
</event>
<event>
 7    1  0.3141443E-011  0.5052886E+02  0.7816164E-02  0.1300439E+00
        -11   -1    0    0    0    0  0.00000000000E+00  0.00000000000E+00  0.45593999997E+02  0.45594000000E+02  0.51100000000E-03 0.  1.
         11   -1    0    0    0    0 -0.00000000000E+00 -0.00000000000E+00 -0.45593999997E+02  0.45594000000E+02  0.51100000000E-03 0. -1.
    9900012    2    1    2    0    0 -0.52746377136E+01  0.26952297492E+02  0.29981953905E+02  0.50528859538E+02  0.29999999053E+02 0.  0.
         12    1    1    2    0    0  0.52746377136E+01 -0.26952297492E+02 -0.29981953905E+02  0.40659140462E+02  0.00000000000E+00 0. -1.
         11    1    3    3    0    0 -0.46628247734E+01  0.19758402180E+00  0.39245096373E+01  0.60977660227E+01  0.51100000000E-03 0. -1.
        -11    1    3    3    0    0 -0.31502635963E+01  0.22774827379E+02  0.30333165449E+02  0.38062026343E+02  0.51100000000E-03 0.  1.
         12    1    3    3    0    0  0.25384506561E+01  0.39798860906E+01 -0.42757211817E+01  0.63690671727E+01  0.00000000000E+00 0. -1.
</event>
<event>
 7    1  0.3429960E-011  0.5052885E+02  0.7816164E-02  0.1300439E+00
        -11   -1    0    0    0    0  0.00000000000E+00  0.00000000000E+00  0.45593999997E+02  0.45594000000E+02  0.51100000000E-03 0.  1.
         11   -1    0    0    0    0 -0.00000000000E+00 -0.00000000000E+00 -0.45593999997E+02  0.45594000000E+02  0.51100000000E-03 0. -1.
    9900012    2    1    2    0    0  0.19149047945E+02 -0.35289316004E+02 -0.64143861172E+01  0.50528853298E+02  0.29999980085E+02 0.  0.
         12    1    1    2    0    0 -0.19149047945E+02  0.35289316004E+02  0.64143861172E+01  0.40659146702E+02  0.00000000000E+00 0. -1.
         11    1    3    3    0    0 -0.19471654933E+01 -0.13725998948E+02 -0.83363710887E+01  0.16176822425E+02  0.51100000000E-03 0.  1.
        -11    1    3    3    0    0  0.33540707495E+01 -0.85021308277E+01  0.72727357293E+01  0.11680269879E+02  0.51100000000E-03 0. -1.
        -12    1    3    3    0    0  0.17742142689E+02 -0.13061186228E+02 -0.53507507578E+01  0.22671760994E+02  0.00000000000E+00 0.  1.
</event>
<event>
 7    1  0.3141443E-011  0.5052885E+02  0.7816164E-02  0.1300439E+00
        -11   -1    0    0    0    0  0.00000000000E+00  0.00000000000E+00  0.45593999997E+02  0.45594000000E+02  0.51100000000E-03 0.  1.
         11   -1    0    0    0    0 -0.00000000000E+00 -0.00000000000E+00 -0.45593999997E+02  0.45594000000E+02  0.51100000000E-03 0. -1.
    9900012    2    1    2    0    0  0.11086560460E+02  0.37422254073E+02  0.11394266351E+02  0.50528853078E+02  0.29999979415E+02 0.  0.
         12    1    1    2    0    0 -0.11086560460E+02 -0.37422254073E+02 -0.11394266351E+02  0.40659146922E+02  0.00000000000E+00 0. -1.
         11    1    3    3    0    0  0.78619726653E+01  0.26722857593E+02  0.51353146351E+01  0.28324780472E+02  0.51100000000E-03 0. -1.
        -11    1    3    3    0    0 -0.30505031261E+01  0.96327978794E+01  0.10486953808E+02  0.14562711448E+02  0.51100000000E-03 0.  1.
         12    1    3    3    0    0  0.62750909209E+01  0.10665986006E+01 -0.42280020917E+01  0.76413611568E+01  0.00000000000E+00 0. -1.
</event>
<event>
 7    1  0.3141443E-011  0.5052886E+02  0.7816164E-02  0.1300439E+00
        -11   -1    0    0    0    0  0.00000000000E+00  0.00000000000E+00  0.45593999997E+02  0.45594000000E+02  0.51100000000E-03 0.  1.
         11   -1    0    0    0    0 -0.00000000000E+00 -0.00000000000E+00 -0.45593999997E+02  0.45594000000E+02  0.51100000000E-03 0. -1.
    9900012    2    1    2    0    0 -0.22642921680E+02  0.32554994177E+02  0.89797699248E+01  0.50528858150E+02  0.29999994833E+02 0.  0.
         12    1    1    2    0    0  0.22642921680E+02 -0.32554994177E+02 -0.89797699248E+01  0.40659141850E+02  0.00000000000E+00 0. -1.
         11    1    3    3    0    0 -0.12445696319E+02  0.49658327956E+01  0.50311013604E+01  0.14313169927E+02  0.51100000000E-03 0. -1.
        -11    1    3    3    0    0 -0.14264503225E+02  0.12435856719E+02  0.71007145716E+01  0.20212538987E+02  0.51100000000E-03 0.  1.
         12    1    3    3    0    0  0.40672778644E+01  0.15153304663E+02 -0.31520460072E+01  0.16003149236E+02  0.00000000000E+00 0. -1.
</event>
<event>
 7    1  0.3141443E-011  0.5052887E+02  0.7816164E-02  0.1300439E+00
        -11   -1    0    0    0    0  0.00000000000E+00  0.00000000000E+00  0.45593999997E+02  0.45594000000E+02  0.51100000000E-03 0.  1.
         11   -1    0    0    0    0 -0.00000000000E+00 -0.00000000000E+00 -0.45593999997E+02  0.45594000000E+02  0.51100000000E-03 0. -1.
    9900012    2    1    2    0    0  0.10068212585E+02 -0.27076225810E+02  0.28612481892E+02  0.50528867830E+02  0.30000024256E+02 0.  0.
         12    1    1    2    0    0 -0.10068212585E+02  0.27076225810E+02 -0.28612481892E+02  0.40659132170E+02  0.00000000000E+00 0. -1.
         11    1    3    3    0    0  0.26679134138E+01 -0.23425525003E+02  0.18372534362E+02  0.29890182382E+02  0.51100000000E-03 0. -1.
        -11    1    3    3    0    0 -0.17321766439E+01 -0.64847047751E+01  0.86445516259E+01  0.10944409761E+02  0.51100000000E-03 0.  1.
         12    1    3    3    0    0  0.91324758153E+01  0.28340039682E+01  0.15953959039E+01  0.96942756872E+01  0.00000000000E+00 0. -1.
</event>
<event>
 7    1  0.3141443E-011  0.5052886E+02  0.7816164E-02  0.1300439E+00
        -11   -1    0    0    0    0  0.00000000000E+00  0.00000000000E+00  0.45593999997E+02  0.45594000000E+02  0.51100000000E-03 0.  1.
         11   -1    0    0    0    0 -0.00000000000E+00 -0.00000000000E+00 -0.45593999997E+02  0.45594000000E+02  0.51100000000E-03 0. -1.
    9900012    2    1    2    0    0 -0.52274739434E+01 -0.33329124993E+02  0.22693803127E+02  0.50528858876E+02  0.29999997038E+02 0.  0.
         12    1    1    2    0    0  0.52274739434E+01  0.33329124993E+02 -0.22693803127E+02  0.40659141124E+02  0.00000000000E+00 0. -1.
         11    1    3    3    0    0 -0.40367310413E+01 -0.17167458760E+02  0.92195243878E+01  0.19900162512E+02  0.51100000000E-03 0. -1.
        -11    1    3    3    0    0  0.73278298749E+01 -0.15556141755E+02  0.13850996399E+02  0.22080324692E+02  0.51100000000E-03 0.  1.
         12    1    3    3    0    0 -0.85185727770E+01 -0.60552447717E+00 -0.37671766011E+00  0.85483716721E+01  0.00000000000E+00 0. -1.
</event>
<event>
 7    1  0.3141443E-011  0.5052897E+02  0.7816164E-02  0.1300438E+00
        -11   -1    0    0    0    0  0.00000000000E+00  0.00000000000E+00  0.45593999997E+02  0.45594000000E+02  0.51100000000E-03 0.  1.
         11   -1    0    0    0    0 -0.00000000000E+00 -0.00000000000E+00 -0.45593999997E+02  0.45594000000E+02  0.51100000000E-03 0. -1.
    9900012    2    1    2    0    0 -0.10222181018E+02  0.83761243275E+01  0.38451325774E+02  0.50528967826E+02  0.30000328204E+02 0.  0.
         12    1    1    2    0    0  0.10222181018E+02 -0.83761243275E+01 -0.38451325774E+02  0.40659032174E+02  0.00000000000E+00 0. -1.
         11    1    3    3    0    0 -0.31789966741E+01  0.13431566663E+01  0.63162379664E+01  0.71975656992E+01  0.51100000000E-03 0. -1.
        -11    1    3    3    0    0 -0.64331246378E+01  0.17196136332E+02  0.16567631631E+02  0.24730115557E+02  0.51100000000E-03 0.  1.
         12    1    3    3    0    0 -0.61005970566E+00 -0.10163168670E+02  0.15567456176E+02  0.18601286570E+02  0.00000000000E+00 0. -1.
</event>
<event>
 7    1  0.3141443E-011  0.5052885E+02  0.7816164E-02  0.1300439E+00
        -11   -1    0    0    0    0  0.00000000000E+00  0.00000000000E+00  0.45593999997E+02  0.45594000000E+02  0.51100000000E-03 0. -1.
         11   -1    0    0    0    0 -0.00000000000E+00 -0.00000000000E+00 -0.45593999997E+02  0.45594000000E+02  0.51100000000E-03 0.  1.
    9900012    2    1    2    0    0  0.35838090930E+02  0.12091432327E+01 -0.19166007272E+02  0.50528848218E+02  0.29999964644E+02 0.  0.
         12    1    1    2    0    0 -0.35838090930E+02 -0.12091432327E+01  0.19166007272E+02  0.40659151782E+02  0.00000000000E+00 0. -1.
         11    1    3    3    0    0  0.80479177730E+01  0.68487383235E+01 -0.19167197583E+02  0.21887340189E+02  0.51100000000E-03 0. -1.
        -11    1    3    3    0    0  0.10298243675E+02 -0.10206902223E+01 -0.16314232968E+01  0.10476505790E+02  0.51100000000E-03 0.  1.
         12    1    3    3    0    0  0.17491929482E+02 -0.46189048685E+01  0.16326136073E+01  0.18165002240E+02  0.00000000000E+00 0. -1.
</event>
<event>
 7    1  0.3141443E-011  0.5052887E+02  0.7816164E-02  0.1300439E+00
        -11   -1    0    0    0    0  0.00000000000E+00  0.00000000000E+00  0.45593999997E+02  0.45594000000E+02  0.51100000000E-03 0.  1.
         11   -1    0    0    0    0 -0.00000000000E+00 -0.00000000000E+00 -0.45593999997E+02  0.45594000000E+02  0.51100000000E-03 0. -1.
    9900012    2    1    2    0    0 -0.33035476798E+02  0.21551481389E+02  0.98669043807E+01  0.50528869668E+02  0.30000029842E+02 0.  0.
         12    1    1    2    0    0  0.33035476798E+02 -0.21551481389E+02 -0.98669043807E+01  0.40659130332E+02  0.00000000000E+00 0. -1.
         11    1    3    3    0    0 -0.99194170076E+01  0.77854801125E+01 -0.76303436465E+01  0.14738747531E+02  0.51100000000E-03 0. -1.
        -11    1    3    3    0    0 -0.32501904887E+01 -0.31974651057E+01  0.41604987433E+00  0.45782768673E+01  0.51100000000E-03 0.  1.
        -12    1    3    3    0    0 -0.19865869302E+02  0.16963466382E+02  0.17081198153E+02  0.31211845270E+02  0.00000000000E+00 0.  1.
</event>
<event>
 7    1  0.3141443E-011  0.5052886E+02  0.7816164E-02  0.1300439E+00
        -11   -1    0    0    0    0  0.00000000000E+00  0.00000000000E+00  0.45593999997E+02  0.45594000000E+02  0.51100000000E-03 0.  1.
         11   -1    0    0    0    0 -0.00000000000E+00 -0.00000000000E+00 -0.45593999997E+02  0.45594000000E+02  0.51100000000E-03 0. -1.
    9900012    2    1    2    0    0  0.32324643355E+02  0.16964767735E+02  0.17901950596E+02  0.50528858993E+02  0.29999997394E+02 0.  0.
         12    1    1    2    0    0 -0.32324643355E+02 -0.16964767735E+02 -0.17901950596E+02  0.40659141007E+02  0.00000000000E+00 0. -1.
         11    1    3    3    0    0  0.80090818213E+01  0.96627213420E+01 -0.36384049464E+01  0.13067194273E+02  0.51100000000E-03 0. -1.
        -11    1    3    3    0    0  0.34059092237E+01  0.55695688991E+01 -0.10707411185E+01  0.66156482801E+01  0.51100000000E-03 0.  1.
        -12    1    3    3    0    0  0.20909652310E+02  0.17324774943E+01  0.22611096661E+02  0.30846016439E+02  0.00000000000E+00 0.  1.
</event>
<event>
 7    1  0.3141443E-011  0.5052885E+02  0.7816164E-02  0.1300439E+00
        -11   -1    0    0    0    0  0.00000000000E+00  0.00000000000E+00  0.45593999997E+02  0.45594000000E+02  0.51100000000E-03 0.  1.
         11   -1    0    0    0    0 -0.00000000000E+00 -0.00000000000E+00 -0.45593999997E+02  0.45594000000E+02  0.51100000000E-03 0. -1.
    9900012    2    1    2    0    0 -0.12113950684E+02 -0.27381348333E+02  0.27507820136E+02  0.50528853350E+02  0.29999980242E+02 0.  0.
         12    1    1    2    0    0  0.12113950684E+02  0.27381348333E+02 -0.27507820136E+02  0.40659146650E+02  0.00000000000E+00 0. -1.
         11    1    3    3    0    0 -0.64328371046E+01 -0.19545850557E+01 -0.24645072134E+01  0.71606977328E+01  0.51100000000E-03 0. -1.
        -11    1    3    3    0    0  0.26049494551E+01 -0.76626116007E+01  0.67922948730E+00  0.81217443425E+01  0.51100000000E-03 0.  1.
        -12    1    3    3    0    0 -0.82860630341E+01 -0.17764151677E+02  0.29293097862E+02  0.35246411275E+02  0.00000000000E+00 0.  1.
</event>
<event>
 7    1  0.3141443E-011  0.5052886E+02  0.7816164E-02  0.1300439E+00
        -11   -1    0    0    0    0  0.00000000000E+00  0.00000000000E+00  0.45593999997E+02  0.45594000000E+02  0.51100000000E-03 0.  1.
         11   -1    0    0    0    0 -0.00000000000E+00 -0.00000000000E+00 -0.45593999997E+02  0.45594000000E+02  0.51100000000E-03 0. -1.
    9900012    2    1    2    0    0 -0.34753377533E+02  0.72657891267E+01  0.19813551892E+02  0.50528858591E+02  0.29999996172E+02 0.  0.
         12    1    1    2    0    0  0.34753377533E+02 -0.72657891267E+01 -0.19813551892E+02  0.40659141409E+02  0.00000000000E+00 0. -1.
         11    1    3    3    0    0 -0.12534965205E+02  0.62091782370E+01 -0.29237094830E+01  0.14290812590E+02  0.51100000000E-03 0. -1.
        -11    1    3    3    0    0 -0.22465005087E+02  0.36954206823E+01  0.13151139637E+02  0.26292300424E+02  0.51100000000E-03 0.  1.
         12    1    3    3    0    0  0.24659275884E+00 -0.26388097925E+01  0.95861217382E+01  0.99457455774E+01  0.00000000000E+00 0. -1.
</event>
<event>
 7    1  0.3141443E-011  0.5052887E+02  0.7816164E-02  0.1300439E+00
        -11   -1    0    0    0    0  0.00000000000E+00  0.00000000000E+00  0.45593999997E+02  0.45594000000E+02  0.51100000000E-03 0. -1.
         11   -1    0    0    0    0 -0.00000000000E+00 -0.00000000000E+00 -0.45593999997E+02  0.45594000000E+02  0.51100000000E-03 0.  1.
    9900012    2    1    2    0    0  0.72099092413E+01 -0.38530511118E+02 -0.10797320980E+02  0.50528865496E+02  0.30000017162E+02 0.  0.
         12    1    1    2    0    0 -0.72099092413E+01  0.38530511118E+02  0.10797320980E+02  0.40659134504E+02  0.00000000000E+00 0. -1.
         11    1    3    3    0    0  0.19492044694E+01 -0.94745378850E+01 -0.41515173558E+01  0.10526222628E+02  0.51100000000E-03 0. -1.
        -11    1    3    3    0    0  0.93021511253E+01 -0.43408632370E+01 -0.10477288886E+02  0.14667879596E+02  0.51100000000E-03 0.  1.
         12    1    3    3    0    0 -0.40414463535E+01 -0.24715109996E+02  0.38314852611E+01  0.25334763272E+02  0.00000000000E+00 0. -1.
</event>
<event>
 7    1  0.3141443E-011  0.5052878E+02  0.7816164E-02  0.1300439E+00
        -11   -1    0    0    0    0  0.00000000000E+00  0.00000000000E+00  0.45593999997E+02  0.45594000000E+02  0.51100000000E-03 0.  1.
         11   -1    0    0    0    0 -0.00000000000E+00 -0.00000000000E+00 -0.45593999997E+02  0.45594000000E+02  0.51100000000E-03 0. -1.
    9900012    2    1    2    0    0  0.35237163072E+01  0.31956167524E+02  0.24890935927E+02  0.50528783200E+02  0.29999767014E+02 0.  0.
         12    1    1    2    0    0 -0.35237163072E+01 -0.31956167524E+02 -0.24890935927E+02  0.40659216800E+02  0.00000000000E+00 0. -1.
         11    1    3    3    0    0 -0.86754863767E+00  0.49324191896E+01  0.10007999843E+02  0.11191133133E+02  0.51100000000E-03 0.  1.
        -11    1    3    3    0    0 -0.37403702365E+01  0.27548783881E+02  0.14040041450E+02  0.31145603655E+02  0.51100000000E-03 0. -1.
        -12    1    3    3    0    0  0.81316351813E+01 -0.52503554656E+00  0.84289463457E+00  0.81920464118E+01  0.00000000000E+00 0.  1.
</event>
<event>
 7    1  0.3141443E-011  0.5052886E+02  0.7816164E-02  0.1300439E+00
        -11   -1    0    0    0    0  0.00000000000E+00  0.00000000000E+00  0.45593999997E+02  0.45594000000E+02  0.51100000000E-03 0.  1.
         11   -1    0    0    0    0 -0.00000000000E+00 -0.00000000000E+00 -0.45593999997E+02  0.45594000000E+02  0.51100000000E-03 0. -1.
    9900012    2    1    2    0    0 -0.84097479619E+01  0.88304434575E+01  0.38787431103E+02  0.50528863216E+02  0.30000010233E+02 0.  0.
         12    1    1    2    0    0  0.84097479619E+01 -0.88304434575E+01 -0.38787431103E+02  0.40659136784E+02  0.00000000000E+00 0. -1.
         11    1    3    3    0    0 -0.24067256516E+00  0.94433252498E+01  0.96907432683E+01  0.13533100916E+02  0.51100000000E-03 0. -1.
        -11    1    3    3    0    0  0.38743646090E+01  0.12908403254E+01  0.23007038541E+02  0.23366659850E+02  0.51100000000E-03 0.  1.
         12    1    3    3    0    0 -0.12043440006E+02 -0.19037221177E+01  0.60896492936E+01  0.13629102450E+02  0.00000000000E+00 0. -1.
</event>
<event>
 7    1  0.3141443E-011  0.5052886E+02  0.7816164E-02  0.1300439E+00
        -11   -1    0    0    0    0  0.00000000000E+00  0.00000000000E+00  0.45593999997E+02  0.45594000000E+02  0.51100000000E-03 0. -1.
         11   -1    0    0    0    0 -0.00000000000E+00 -0.00000000000E+00 -0.45593999997E+02  0.45594000000E+02  0.51100000000E-03 0.  1.
    9900012    2    1    2    0    0 -0.24021386453E+02 -0.17940698116E+02 -0.27463972466E+02  0.50528862778E+02  0.30000008900E+02 0.  0.
         12    1    1    2    0    0  0.24021386453E+02  0.17940698116E+02  0.27463972466E+02  0.40659137222E+02  0.00000000000E+00 0. -1.
         11    1    3    3    0    0  0.31384291923E+00 -0.38853547284E+01 -0.10151102139E+02  0.10873792054E+02  0.51100000000E-03 0. -1.
        -11    1    3    3    0    0 -0.16377471129E+02 -0.11983743298E+02 -0.22209340197E+02  0.30084654830E+02  0.51100000000E-03 0.  1.
         12    1    3    3    0    0 -0.79577582434E+01 -0.20716000887E+01  0.48964698696E+01  0.95704158933E+01  0.00000000000E+00 0. -1.
</event>
<event>
 7    1  0.3141443E-011  0.5052887E+02  0.7816164E-02  0.1300439E+00
        -11   -1    0    0    0    0  0.00000000000E+00  0.00000000000E+00  0.45593999997E+02  0.45594000000E+02  0.51100000000E-03 0.  1.
         11   -1    0    0    0    0 -0.00000000000E+00 -0.00000000000E+00 -0.45593999997E+02  0.45594000000E+02  0.51100000000E-03 0. -1.
    9900012    2    1    2    0    0 -0.32666028455E+01  0.10778790637E+02  0.39068039282E+02  0.50528871688E+02  0.30000035984E+02 0.  0.
         12    1    1    2    0    0  0.32666028455E+01 -0.10778790637E+02 -0.39068039282E+02  0.40659128312E+02  0.00000000000E+00 0. -1.
         11    1    3    3    0    0 -0.28978203530E+01  0.69291926813E+01  0.23162571228E+02  0.24349862015E+02  0.51100000000E-03 0.  1.
        -11    1    3    3    0    0 -0.17363420947E+01  0.18624737891E+01  0.20676570006E+02  0.20832768418E+02  0.51100000000E-03 0. -1.
         12    1    3    3    0    0  0.13675596023E+01  0.19871241670E+01 -0.47711019521E+01  0.53462412551E+01  0.00000000000E+00 0. -1.
</event>
<event>
 7    1  0.3141443E-011  0.5052885E+02  0.7816164E-02  0.1300439E+00
        -11   -1    0    0    0    0  0.00000000000E+00  0.00000000000E+00  0.45593999997E+02  0.45594000000E+02  0.51100000000E-03 0. -1.
         11   -1    0    0    0    0 -0.00000000000E+00 -0.00000000000E+00 -0.45593999997E+02  0.45594000000E+02  0.51100000000E-03 0.  1.
    9900012    2    1    2    0    0  0.16892579480E+02  0.33878777265E+02 -0.14833599248E+02  0.50528850266E+02  0.29999970867E+02 0.  0.
         12    1    1    2    0    0 -0.16892579480E+02 -0.33878777265E+02  0.14833599248E+02  0.40659149734E+02  0.00000000000E+00 0. -1.
         11    1    3    3    0    0  0.12806166351E+02  0.78471348055E+01  0.46137622688E+01  0.15711849790E+02  0.51100000000E-03 0. -1.
        -11    1    3    3    0    0  0.64023071964E+01  0.62000704503E+01 -0.58855075828E+01  0.10680337579E+02  0.51100000000E-03 0.  1.
         12    1    3    3    0    0 -0.23158940677E+01  0.19831572010E+02 -0.13561853934E+02  0.24136662897E+02  0.00000000000E+00 0. -1.
</event>
<event>
 7    1  0.3141443E-011  0.5052885E+02  0.7816164E-02  0.1300439E+00
        -11   -1    0    0    0    0  0.00000000000E+00  0.00000000000E+00  0.45593999997E+02  0.45594000000E+02  0.51100000000E-03 0.  1.
         11   -1    0    0    0    0 -0.00000000000E+00 -0.00000000000E+00 -0.45593999997E+02  0.45594000000E+02  0.51100000000E-03 0. -1.
    9900012    2    1    2    0    0 -0.57192191387E+00  0.40470026827E+02  0.38750642524E+01  0.50528852333E+02  0.29999977152E+02 0.  0.
         12    1    1    2    0    0  0.57192191387E+00 -0.40470026827E+02 -0.38750642524E+01  0.40659147667E+02  0.00000000000E+00 0. -1.
         11    1    3    3    0    0 -0.64905415931E+01  0.30359765575E+01  0.86321231992E+00  0.72173000215E+01  0.51100000000E-03 0. -1.
        -11    1    3    3    0    0 -0.22314521512E+01  0.30424128411E+02 -0.35584315367E+01  0.30712691245E+02  0.51100000000E-03 0.  1.
         12    1    3    3    0    0  0.81500718304E+01  0.70099218583E+01  0.65702834692E+01  0.12598861066E+02  0.00000000000E+00 0. -1.
</event>
<event>
 7    1  0.3141443E-011  0.5052886E+02  0.7816164E-02  0.1300439E+00
        -11   -1    0    0    0    0  0.00000000000E+00  0.00000000000E+00  0.45593999997E+02  0.45594000000E+02  0.51100000000E-03 0. -1.
         11   -1    0    0    0    0 -0.00000000000E+00 -0.00000000000E+00 -0.45593999997E+02  0.45594000000E+02  0.51100000000E-03 0.  1.
    9900012    2    1    2    0    0 -0.36147046976E+02 -0.14339659225E+02 -0.11871430587E+02  0.50528859626E+02  0.29999999319E+02 0.  0.
         12    1    1    2    0    0  0.36147046976E+02  0.14339659225E+02  0.11871430587E+02  0.40659140374E+02  0.00000000000E+00 0. -1.
         11    1    3    3    0    0 -0.14586835240E+02 -0.16844749539E+01 -0.14155845755E+00  0.14684456315E+02  0.51100000000E-03 0. -1.
        -11    1    3    3    0    0 -0.16382180987E+02  0.18039162864E+01 -0.12157560245E+02  0.20480142559E+02  0.51100000000E-03 0.  1.
         12    1    3    3    0    0 -0.51780307491E+01 -0.14459100557E+02  0.42768811558E+00  0.15364260753E+02  0.00000000000E+00 0. -1.
</event>
<event>
 7    1  0.3141443E-011  0.5052887E+02  0.7816164E-02  0.1300439E+00
        -11   -1    0    0    0    0  0.00000000000E+00  0.00000000000E+00  0.45593999997E+02  0.45594000000E+02  0.51100000000E-03 0. -1.
         11   -1    0    0    0    0 -0.00000000000E+00 -0.00000000000E+00 -0.45593999997E+02  0.45594000000E+02  0.51100000000E-03 0.  1.
    9900012    2    1    2    0    0 -0.29347344941E+02  0.20622538493E+00 -0.28139934781E+02  0.50528866789E+02  0.30000021091E+02 0.  0.
         12    1    1    2    0    0  0.29347344941E+02 -0.20622538493E+00  0.28139934781E+02  0.40659133211E+02  0.00000000000E+00 0. -1.
         11    1    3    3    0    0 -0.71418050179E+01 -0.40523149270E+01 -0.14177424603E+00  0.82125961413E+01  0.51100000000E-03 0. -1.
        -11    1    3    3    0    0 -0.10463375181E+02 -0.89258221962E+01 -0.15274981263E+02  0.20554259289E+02  0.51100000000E-03 0.  1.
         12    1    3    3    0    0 -0.11742164742E+02  0.13184362508E+02 -0.12723179272E+02  0.21762011358E+02  0.00000000000E+00 0. -1.
</event>
<event>
 7    1  0.3141443E-011  0.5052886E+02  0.7816164E-02  0.1300439E+00
        -11   -1    0    0    0    0  0.00000000000E+00  0.00000000000E+00  0.45593999997E+02  0.45594000000E+02  0.51100000000E-03 0.  1.
         11   -1    0    0    0    0 -0.00000000000E+00 -0.00000000000E+00 -0.45593999997E+02  0.45594000000E+02  0.51100000000E-03 0. -1.
    9900012    2    1    2    0    0  0.27668773424E+02  0.17472013560E+02  0.24131580654E+02  0.50528862460E+02  0.30000007934E+02 0.  0.
         12    1    1    2    0    0 -0.27668773424E+02 -0.17472013560E+02 -0.24131580654E+02  0.40659137540E+02  0.00000000000E+00 0. -1.
         11    1    3    3    0    0  0.92541974231E+01  0.11703821529E+02 -0.35476558931E+01  0.15336409975E+02  0.51100000000E-03 0. -1.
        -11    1    3    3    0    0  0.14782021771E+02  0.83473692730E+01  0.19308592404E+02  0.25710085225E+02  0.51100000000E-03 0.  1.
        -12    1    3    3    0    0  0.36325542295E+01 -0.25791772418E+01  0.83706441436E+01  0.94823672600E+01  0.00000000000E+00 0.  1.
</event>
<event>
 7    1  0.3141443E-011  0.5052886E+02  0.7816164E-02  0.1300439E+00
        -11   -1    0    0    0    0  0.00000000000E+00  0.00000000000E+00  0.45593999997E+02  0.45594000000E+02  0.51100000000E-03 0.  1.
         11   -1    0    0    0    0 -0.00000000000E+00 -0.00000000000E+00 -0.45593999997E+02  0.45594000000E+02  0.51100000000E-03 0. -1.
    9900012    2    1    2    0    0  0.20114495514E+02 -0.83488621456E+01  0.34334664432E+02  0.50528860676E+02  0.30000002512E+02 0.  0.
         12    1    1    2    0    0 -0.20114495514E+02  0.83488621456E+01 -0.34334664432E+02  0.40659139324E+02  0.00000000000E+00 0. -1.
         11    1    3    3    0    0 -0.96588912238E+00  0.72838731952E+01  0.65975999739E-01  0.73479319277E+01  0.51100000000E-03 0. -1.
        -11    1    3    3    0    0  0.25376764318E+01 -0.23408310978E+01  0.48094744858E+01  0.59203325069E+01  0.51100000000E-03 0.  1.
         12    1    3    3    0    0  0.18542708205E+02 -0.13291904243E+02  0.29459213946E+02  0.37260596242E+02  0.00000000000E+00 0. -1.
</event>
<event>
 7    1  0.3141443E-011  0.5052885E+02  0.7816164E-02  0.1300439E+00
        -11   -1    0    0    0    0  0.00000000000E+00  0.00000000000E+00  0.45593999997E+02  0.45594000000E+02  0.51100000000E-03 0. -1.
         11   -1    0    0    0    0 -0.00000000000E+00 -0.00000000000E+00 -0.45593999997E+02  0.45594000000E+02  0.51100000000E-03 0.  1.
    9900012    2    1    2    0    0  0.97916282279E+01  0.33275558485E+02  0.21213846981E+02  0.50528854908E+02  0.29999984979E+02 0.  0.
         12    1    1    2    0    0 -0.97916282279E+01 -0.33275558485E+02 -0.21213846981E+02  0.40659145092E+02  0.00000000000E+00 0. -1.
         11    1    3    3    0    0  0.41682756049E+01  0.84718747000E+01  0.18164243332E+02  0.20471612504E+02  0.51100000000E-03 0. -1.
        -11    1    3    3    0    0 -0.50646279720E+00 -0.48175370641E-01 -0.35799969336E+01  0.36159651183E+01  0.51100000000E-03 0.  1.
        -12    1    3    3    0    0  0.61298154202E+01  0.24851859156E+02  0.66296005831E+01  0.26441277285E+02  0.00000000000E+00 0.  1.
</event>
<event>
 7    1  0.4410065E-011  0.5052886E+02  0.7816164E-02  0.1300439E+00
        -11   -1    0    0    0    0  0.00000000000E+00  0.00000000000E+00  0.45593999997E+02  0.45594000000E+02  0.51100000000E-03 0.  1.
         11   -1    0    0    0    0 -0.00000000000E+00 -0.00000000000E+00 -0.45593999997E+02  0.45594000000E+02  0.51100000000E-03 0. -1.
    9900012    2    1    2    0    0 -0.24134903948E+02 -0.26797597878E+02  0.18776598756E+02  0.50528862018E+02  0.30000006588E+02 0.  0.
         12    1    1    2    0    0  0.24134903948E+02  0.26797597878E+02 -0.18776598756E+02  0.40659137982E+02  0.00000000000E+00 0. -1.
         11    1    3    3    0    0 -0.37270357103E+01 -0.59112872471E+01 -0.42197680206E+01  0.81633666163E+01  0.51100000000E-03 0. -1.
        -11    1    3    3    0    0  0.39526530147E+01 -0.87876118631E+00  0.29101715301E+01  0.49864602348E+01  0.51100000000E-03 0.  1.
        -12    1    3    3    0    0 -0.24360521253E+02 -0.20007549445E+02  0.20086195247E+02  0.37379035166E+02  0.00000000000E+00 0.  1.
</event>
<event>
 7    1  0.3141443E-011  0.5052886E+02  0.7816164E-02  0.1300439E+00
        -11   -1    0    0    0    0  0.00000000000E+00  0.00000000000E+00  0.45593999997E+02  0.45594000000E+02  0.51100000000E-03 0.  1.
         11   -1    0    0    0    0 -0.00000000000E+00 -0.00000000000E+00 -0.45593999997E+02  0.45594000000E+02  0.51100000000E-03 0. -1.
    9900012    2    1    2    0    0 -0.70162096230E+01  0.17737502169E+02  0.35907090116E+02  0.50528864479E+02  0.30000014070E+02 0.  0.
         12    1    1    2    0    0  0.70162096230E+01 -0.17737502169E+02 -0.35907090116E+02  0.40659135521E+02  0.00000000000E+00 0. -1.
         11    1    3    3    0    0 -0.37714768944E+00  0.93675370104E+01  0.18159524208E+01  0.95493807902E+01  0.51100000000E-03 0. -1.
        -11    1    3    3    0    0 -0.37587250061E+01  0.14997706456E+02  0.21913399780E+02  0.26818954170E+02  0.51100000000E-03 0.  1.
        -12    1    3    3    0    0 -0.28803369274E+01 -0.66277412965E+01  0.12177737916E+02  0.14160529519E+02  0.00000000000E+00 0.  1.
</event>
<event>
 7    1  0.3141443E-011  0.5052890E+02  0.7816164E-02  0.1300439E+00
        -11   -1    0    0    0    0  0.00000000000E+00  0.00000000000E+00  0.45593999997E+02  0.45594000000E+02  0.51100000000E-03 0.  1.
         11   -1    0    0    0    0 -0.00000000000E+00 -0.00000000000E+00 -0.45593999997E+02  0.45594000000E+02  0.51100000000E-03 0. -1.
    9900012    2    1    2    0    0  0.45533269968E+00 -0.38538509084E+02 -0.12951392692E+02  0.50528897908E+02  0.30000115682E+02 0.  0.
         12    1    1    2    0    0 -0.45533269968E+00  0.38538509084E+02  0.12951392692E+02  0.40659102092E+02  0.00000000000E+00 0. -1.
         11    1    3    3    0    0 -0.23565200683E+01 -0.52172581016E-01 -0.41615178281E+01  0.47826916799E+01  0.51100000000E-03 0. -1.
        -11    1    3    3    0    0  0.12754994043E+02 -0.19761534864E+02 -0.26212823694E+01  0.23665993635E+02  0.51100000000E-03 0.  1.
         12    1    3    3    0    0 -0.99431412746E+01 -0.18724801638E+02 -0.61685924944E+01  0.22080212593E+02  0.00000000000E+00 0. -1.
</event>
<event>
 7    1  0.3141443E-011  0.5052885E+02  0.7816164E-02  0.1300439E+00
        -11   -1    0    0    0    0  0.00000000000E+00  0.00000000000E+00  0.45593999997E+02  0.45594000000E+02  0.51100000000E-03 0. -1.
         11   -1    0    0    0    0 -0.00000000000E+00 -0.00000000000E+00 -0.45593999997E+02  0.45594000000E+02  0.51100000000E-03 0.  1.
    9900012    2    1    2    0    0  0.11425492343E+02  0.26743142792E+02 -0.28415291738E+02  0.50528851384E+02  0.29999974266E+02 0.  0.
         12    1    1    2    0    0 -0.11425492343E+02 -0.26743142792E+02  0.28415291738E+02  0.40659148616E+02  0.00000000000E+00 0. -1.
         11    1    3    3    0    0  0.21378233214E+01  0.23244826073E+02 -0.50977367157E+01  0.23893077399E+02  0.51100000000E-03 0. -1.
        -11    1    3    3    0    0  0.39971378624E+01  0.58494486372E+01 -0.12946427628E+02  0.14758155340E+02  0.51100000000E-03 0.  1.
        -12    1    3    3    0    0  0.52905311595E+01 -0.23511319187E+01 -0.10371127394E+02  0.11877618645E+02  0.00000000000E+00 0.  1.
</event>
<event>
 7    1  0.3141443E-011  0.5052887E+02  0.7816164E-02  0.1300439E+00
        -11   -1    0    0    0    0  0.00000000000E+00  0.00000000000E+00  0.45593999997E+02  0.45594000000E+02  0.51100000000E-03 0. -1.
         11   -1    0    0    0    0 -0.00000000000E+00 -0.00000000000E+00 -0.45593999997E+02  0.45594000000E+02  0.51100000000E-03 0.  1.
    9900012    2    1    2    0    0  0.16023301367E+02 -0.80772686115E+01 -0.36485289247E+02  0.50528870811E+02  0.30000033318E+02 0.  0.
         12    1    1    2    0    0 -0.16023301367E+02  0.80772686115E+01  0.36485289247E+02  0.40659129189E+02  0.00000000000E+00 0. -1.
         11    1    3    3    0    0 -0.46466495515E+01 -0.46125485583E+01 -0.36526987054E+00  0.65574673920E+01  0.51100000000E-03 0. -1.
        -11    1    3    3    0    0  0.60793564740E+01 -0.62270043226E+01 -0.65841405805E+01  0.10912610385E+02  0.51100000000E-03 0.  1.
        -12    1    3    3    0    0  0.14590594445E+02  0.27622842694E+01 -0.29535878796E+02  0.33058793034E+02  0.00000000000E+00 0.  1.
</event>
<event>
 7    1  0.3141443E-011  0.5052885E+02  0.7816164E-02  0.1300439E+00
        -11   -1    0    0    0    0  0.00000000000E+00  0.00000000000E+00  0.45593999997E+02  0.45594000000E+02  0.51100000000E-03 0.  1.
         11   -1    0    0    0    0 -0.00000000000E+00 -0.00000000000E+00 -0.45593999997E+02  0.45594000000E+02  0.51100000000E-03 0. -1.
    9900012    2    1    2    0    0 -0.27924624968E+02  0.13461916212E+02 -0.26308901495E+02  0.50528853851E+02  0.29999981765E+02 0.  0.
         12    1    1    2    0    0  0.27924624968E+02 -0.13461916212E+02  0.26308901495E+02  0.40659146149E+02  0.00000000000E+00 0. -1.
         11    1    3    3    0    0 -0.87758688981E+01  0.30313559511E+01 -0.15050749266E+02  0.17684175060E+02  0.51100000000E-03 0. -1.
        -11    1    3    3    0    0  0.31756544081E+01  0.74598547222E+01 -0.12642730392E+01  0.82056443973E+01  0.51100000000E-03 0.  1.
        -12    1    3    3    0    0 -0.22324410478E+02  0.29707055388E+01 -0.99938791898E+01  0.24639034393E+02  0.00000000000E+00 0.  1.
</event>
<event>
 7    1  0.3141443E-011  0.5052886E+02  0.7816164E-02  0.1300439E+00
        -11   -1    0    0    0    0  0.00000000000E+00  0.00000000000E+00  0.45593999997E+02  0.45594000000E+02  0.51100000000E-03 0.  1.
         11   -1    0    0    0    0 -0.00000000000E+00 -0.00000000000E+00 -0.45593999997E+02  0.45594000000E+02  0.51100000000E-03 0. -1.
    9900012    2    1    2    0    0  0.13870932409E+01  0.40337578556E+02  0.49113622780E+01  0.50528858951E+02  0.29999997267E+02 0.  0.
         12    1    1    2    0    0 -0.13870932409E+01 -0.40337578556E+02 -0.49113622780E+01  0.40659141049E+02  0.00000000000E+00 0. -1.
         11    1    3    3    0    0 -0.30058532142E+01  0.20563314757E+02 -0.77887480096E+01  0.22193459919E+02  0.51100000000E-03 0. -1.
        -11    1    3    3    0    0  0.95872763545E+01  0.13970886456E+02  0.57393482743E+01  0.17889708079E+02  0.51100000000E-03 0.  1.
        -12    1    3    3    0    0 -0.51943298994E+01  0.58033773424E+01  0.69607620134E+01  0.10445690953E+02  0.00000000000E+00 0.  1.
</event>
<event>
 7    1  0.3141443E-011  0.5052883E+02  0.7816164E-02  0.1300439E+00
        -11   -1    0    0    0    0  0.00000000000E+00  0.00000000000E+00  0.45593999997E+02  0.45594000000E+02  0.51100000000E-03 0.  1.
         11   -1    0    0    0    0 -0.00000000000E+00 -0.00000000000E+00 -0.45593999997E+02  0.45594000000E+02  0.51100000000E-03 0. -1.
    9900012    2    1    2    0    0  0.20648128495E+02 -0.23652418270E+02  0.25833813811E+02  0.50528830845E+02  0.29999911836E+02 0.  0.
         12    1    1    2    0    0 -0.20648128495E+02  0.23652418270E+02 -0.25833813811E+02  0.40659169155E+02  0.00000000000E+00 0. -1.
         11    1    3    3    0    0  0.75589728286E+01 -0.16027443681E+02  0.17599691691E+02  0.24975311190E+02  0.51100000000E-03 0. -1.
        -11    1    3    3    0    0  0.16446990384E+02 -0.87615511972E+01  0.10457643301E+02  0.21368916111E+02  0.51100000000E-03 0.  1.
         12    1    3    3    0    0 -0.33578347172E+01  0.11365766087E+01 -0.22235211812E+01  0.41846035438E+01  0.00000000000E+00 0. -1.
</event>
<event>
 7    1  0.3141443E-011  0.5052885E+02  0.7816164E-02  0.1300439E+00
        -11   -1    0    0    0    0  0.00000000000E+00  0.00000000000E+00  0.45593999997E+02  0.45594000000E+02  0.51100000000E-03 0. -1.
         11   -1    0    0    0    0 -0.00000000000E+00 -0.00000000000E+00 -0.45593999997E+02  0.45594000000E+02  0.51100000000E-03 0.  1.
    9900012    2    1    2    0    0  0.36935207319E+02 -0.15490408645E+02 -0.70002834571E+01  0.50528852589E+02  0.29999977931E+02 0.  0.
         12    1    1    2    0    0 -0.36935207319E+02  0.15490408645E+02  0.70002834571E+01  0.40659147411E+02  0.00000000000E+00 0. -1.
         11    1    3    3    0    0  0.87220483554E+01 -0.70738175473E+01  0.17158925002E+01  0.11360339323E+02  0.51100000000E-03 0. -1.
        -11    1    3    3    0    0  0.16296747478E+02 -0.16785134732E+02 -0.74484348005E+01  0.24552065240E+02  0.51100000000E-03 0.  1.
        -12    1    3    3    0    0  0.11916411486E+02  0.83685436342E+01 -0.12677411568E+01  0.14616448026E+02  0.00000000000E+00 0.  1.
</event>
<event>
 7    1  0.4619766E-011  0.5052886E+02  0.7816164E-02  0.1300439E+00
        -11   -1    0    0    0    0  0.00000000000E+00  0.00000000000E+00  0.45593999997E+02  0.45594000000E+02  0.51100000000E-03 0.  1.
         11   -1    0    0    0    0 -0.00000000000E+00 -0.00000000000E+00 -0.45593999997E+02  0.45594000000E+02  0.51100000000E-03 0. -1.
    9900012    2    1    2    0    0 -0.40597215161E+02 -0.24530760717E+00 -0.22296402538E+01  0.50528863877E+02  0.30000012240E+02 0.  0.
         12    1    1    2    0    0  0.40597215161E+02  0.24530760717E+00  0.22296402538E+01  0.40659136123E+02  0.00000000000E+00 0. -1.
         11    1    3    3    0    0  0.43741627041E+00  0.11209337407E+01 -0.52054852718E+01  0.53427429865E+01  0.51100000000E-03 0. -1.
        -11    1    3    3    0    0 -0.10552185085E+02 -0.84510531451E+01 -0.13801165990E+01  0.13589467665E+02  0.51100000000E-03 0.  1.
        -12    1    3    3    0    0 -0.30482446346E+02  0.70848117973E+01  0.43559616169E+01  0.31596653225E+02  0.00000000000E+00 0.  1.
</event>
<event>
 7    1  0.3141443E-011  0.5052885E+02  0.7816164E-02  0.1300439E+00
        -11   -1    0    0    0    0  0.00000000000E+00  0.00000000000E+00  0.45593999997E+02  0.45594000000E+02  0.51100000000E-03 0.  1.
         11   -1    0    0    0    0 -0.00000000000E+00 -0.00000000000E+00 -0.45593999997E+02  0.45594000000E+02  0.51100000000E-03 0. -1.
    9900012    2    1    2    0    0 -0.10339460818E+02  0.61858751731E+01  0.38832933931E+02  0.50528852698E+02  0.29999978260E+02 0.  0.
         12    1    1    2    0    0  0.10339460818E+02 -0.61858751731E+01 -0.38832933931E+02  0.40659147302E+02  0.00000000000E+00 0. -1.
         11    1    3    3    0    0 -0.18305227428E+02 -0.32434169477E+01  0.18886272595E+02  0.26500799940E+02  0.51100000000E-03 0. -1.
        -11    1    3    3    0    0  0.12441821483E+01  0.38932693171E+01  0.33460888355E+01  0.52822197938E+01  0.51100000000E-03 0.  1.
        -12    1    3    3    0    0  0.67215844619E+01  0.55360228037E+01  0.16600572501E+02  0.18745832964E+02  0.00000000000E+00 0.  1.
</event>
<event>
 7    1  0.3141443E-011  0.5052885E+02  0.7816164E-02  0.1300439E+00
        -11   -1    0    0    0    0  0.00000000000E+00  0.00000000000E+00  0.45593999997E+02  0.45594000000E+02  0.51100000000E-03 0. -1.
         11   -1    0    0    0    0 -0.00000000000E+00 -0.00000000000E+00 -0.45593999997E+02  0.45594000000E+02  0.51100000000E-03 0.  1.
    9900012    2    1    2    0    0 -0.83641613338E+01  0.38512777335E+02 -0.99986446506E+01  0.50528854562E+02  0.29999983928E+02 0.  0.
         12    1    1    2    0    0  0.83641613338E+01 -0.38512777335E+02  0.99986446506E+01  0.40659145438E+02  0.00000000000E+00 0. -1.
         11    1    3    3    0    0 -0.18741725160E+01  0.21449105094E+02  0.62276214942E+01  0.22413386662E+02  0.51100000000E-03 0. -1.
        -11    1    3    3    0    0  0.36019474423E+01  0.18620888877E+01 -0.58715674729E+01  0.71355942467E+01  0.51100000000E-03 0.  1.
        -12    1    3    3    0    0 -0.10091936260E+02  0.15201583354E+02 -0.10354698672E+02  0.20979873653E+02  0.00000000000E+00 0.  1.
</event>
<event>
 7    1  0.3141443E-011  0.5052885E+02  0.7816164E-02  0.1300439E+00
        -11   -1    0    0    0    0  0.00000000000E+00  0.00000000000E+00  0.45593999997E+02  0.45594000000E+02  0.51100000000E-03 0.  1.
         11   -1    0    0    0    0 -0.00000000000E+00 -0.00000000000E+00 -0.45593999997E+02  0.45594000000E+02  0.51100000000E-03 0. -1.
    9900012    2    1    2    0    0  0.11200992515E+02 -0.36885068490E+02  0.12930424111E+02  0.50528851232E+02  0.29999973805E+02 0.  0.
         12    1    1    2    0    0 -0.11200992515E+02  0.36885068490E+02 -0.12930424111E+02  0.40659148768E+02  0.00000000000E+00 0. -1.
         11    1    3    3    0    0 -0.28167608872E+01 -0.11132097340E+01 -0.29718165654E+01  0.42432383585E+01  0.51100000000E-03 0. -1.
        -11    1    3    3    0    0 -0.10209391701E+01 -0.74183093509E+01  0.11735873364E+02  0.13921363234E+02  0.51100000000E-03 0.  1.
         12    1    3    3    0    0  0.15038692572E+02 -0.28353549406E+02  0.41663673127E+01  0.32364249640E+02  0.00000000000E+00 0. -1.
</event>
<event>
 7    1  0.3141443E-011  0.5052885E+02  0.7816164E-02  0.1300439E+00
        -11   -1    0    0    0    0  0.00000000000E+00  0.00000000000E+00  0.45593999997E+02  0.45594000000E+02  0.51100000000E-03 0. -1.
         11   -1    0    0    0    0 -0.00000000000E+00 -0.00000000000E+00 -0.45593999997E+02  0.45594000000E+02  0.51100000000E-03 0.  1.
    9900012    2    1    2    0    0 -0.29307698954E+02  0.18183780032E+01 -0.28123276433E+02  0.50528851043E+02  0.29999973231E+02 0.  0.
         12    1    1    2    0    0  0.29307698954E+02 -0.18183780032E+01  0.28123276433E+02  0.40659148957E+02  0.00000000000E+00 0. -1.
         11    1    3    3    0    0 -0.24388014389E+00 -0.55742480880E+01 -0.84498764675E+00  0.56432015430E+01  0.51100000000E-03 0. -1.
        -11    1    3    3    0    0 -0.85962568561E+01 -0.17637099669E+01 -0.19098245284E+02  0.21017832380E+02  0.51100000000E-03 0.  1.
        -12    1    3    3    0    0 -0.20467561954E+02  0.91563360580E+01 -0.81800435025E+01  0.23867817120E+02  0.00000000000E+00 0.  1.
</event>
<event>
 7    1  0.3141443E-011  0.5052886E+02  0.7816164E-02  0.1300439E+00
        -11   -1    0    0    0    0  0.00000000000E+00  0.00000000000E+00  0.45593999997E+02  0.45594000000E+02  0.51100000000E-03 0. -1.
         11   -1    0    0    0    0 -0.00000000000E+00 -0.00000000000E+00 -0.45593999997E+02  0.45594000000E+02  0.51100000000E-03 0.  1.
    9900012    2    1    2    0    0  0.26534416747E+02 -0.90101516530E+01 -0.29460265338E+02  0.50528864019E+02  0.30000012673E+02 0.  0.
         12    1    1    2    0    0 -0.26534416747E+02  0.90101516530E+01  0.29460265338E+02  0.40659135981E+02  0.00000000000E+00 0. -1.
         11    1    3    3    0    0  0.17197498647E+02  0.45376999604E+01 -0.12384604678E+02  0.21673096547E+02  0.51100000000E-03 0. -1.
        -11    1    3    3    0    0  0.68891464197E+01 -0.67619933194E+01  0.69349932685E+00  0.96781110564E+01  0.51100000000E-03 0.  1.
        -12    1    3    3    0    0  0.24477716804E+01 -0.67858582940E+01 -0.17769159986E+02  0.19177656416E+02  0.00000000000E+00 0.  1.
</event>
<event>
 7    1  0.3141443E-011  0.5052886E+02  0.7816164E-02  0.1300439E+00
        -11   -1    0    0    0    0  0.00000000000E+00  0.00000000000E+00  0.45593999997E+02  0.45594000000E+02  0.51100000000E-03 0.  1.
         11   -1    0    0    0    0 -0.00000000000E+00 -0.00000000000E+00 -0.45593999997E+02  0.45594000000E+02  0.51100000000E-03 0. -1.
    9900012    2    1    2    0    0  0.25726113507E+01  0.77960476510E+01  0.39821718265E+02  0.50528856702E+02  0.29999990433E+02 0.  0.
         12    1    1    2    0    0 -0.25726113507E+01 -0.77960476510E+01 -0.39821718265E+02  0.40659143298E+02  0.00000000000E+00 0. -1.
         11    1    3    3    0    0  0.41450748713E+01 -0.72330985495E+01  0.56044192864E+01  0.10045341015E+02  0.51100000000E-03 0. -1.
        -11    1    3    3    0    0  0.68042545724E+01  0.56172491818E+01  0.16937305683E+02  0.19097740513E+02  0.51100000000E-03 0.  1.
         12    1    3    3    0    0 -0.83767180929E+01  0.94118970187E+01  0.17279993295E+02  0.21385775174E+02  0.00000000000E+00 0. -1.
</event>
<event>
 7    1  0.3141443E-011  0.5052884E+02  0.7816164E-02  0.1300439E+00
        -11   -1    0    0    0    0  0.00000000000E+00  0.00000000000E+00  0.45593999997E+02  0.45594000000E+02  0.51100000000E-03 0. -1.
         11   -1    0    0    0    0 -0.00000000000E+00 -0.00000000000E+00 -0.45593999997E+02  0.45594000000E+02  0.51100000000E-03 0.  1.
    9900012    2    1    2    0    0  0.48773144941E+01 -0.82317929545E+01 -0.39517297833E+02  0.50528838180E+02  0.29999934131E+02 0.  0.
         12    1    1    2    0    0 -0.48773144941E+01  0.82317929545E+01  0.39517297833E+02  0.40659161820E+02  0.00000000000E+00 0. -1.
         11    1    3    3    0    0 -0.72863650127E+01  0.38314489561E+01 -0.56640100085E+01  0.99926035566E+01  0.51100000000E-03 0. -1.
        -11    1    3    3    0    0  0.84139552200E+01 -0.16583613942E+01 -0.24808144883E+02  0.26248597253E+02  0.51100000000E-03 0.  1.
         12    1    3    3    0    0  0.37497242869E+01 -0.10404880516E+02 -0.90451429419E+01  0.14287637370E+02  0.00000000000E+00 0. -1.
</event>
<event>
 7    1  0.3141443E-011  0.5052886E+02  0.7816164E-02  0.1300439E+00
        -11   -1    0    0    0    0  0.00000000000E+00  0.00000000000E+00  0.45593999997E+02  0.45594000000E+02  0.51100000000E-03 0.  1.
         11   -1    0    0    0    0 -0.00000000000E+00 -0.00000000000E+00 -0.45593999997E+02  0.45594000000E+02  0.51100000000E-03 0. -1.
    9900012    2    1    2    0    0  0.17793370991E+01  0.39563193037E+02 -0.92061795154E+01  0.50528855578E+02  0.29999987016E+02 0.  0.
         12    1    1    2    0    0 -0.17793370991E+01 -0.39563193037E+02  0.92061795154E+01  0.40659144422E+02  0.00000000000E+00 0. -1.
         11    1    3    3    0    0 -0.35698268852E+01  0.24925311203E+01  0.39349144547E+01  0.58685541152E+01  0.51100000000E-03 0. -1.
        -11    1    3    3    0    0  0.51098206679E+01  0.34405476187E+02 -0.38543933008E+01  0.34995762699E+02  0.51100000000E-03 0.  1.
         12    1    3    3    0    0  0.23934331647E+00  0.26651857298E+01 -0.92867006693E+01  0.96645387639E+01  0.00000000000E+00 0. -1.
</event>
<event>
 7    1  0.3141443E-011  0.5052886E+02  0.7816164E-02  0.1300439E+00
        -11   -1    0    0    0    0  0.00000000000E+00  0.00000000000E+00  0.45593999997E+02  0.45594000000E+02  0.51100000000E-03 0.  1.
         11   -1    0    0    0    0 -0.00000000000E+00 -0.00000000000E+00 -0.45593999997E+02  0.45594000000E+02  0.51100000000E-03 0. -1.
    9900012    2    1    2    0    0 -0.13376293973E+02 -0.21139371259E+02  0.32052576102E+02  0.50528857209E+02  0.29999991974E+02 0.  0.
         12    1    1    2    0    0  0.13376293973E+02  0.21139371259E+02 -0.32052576102E+02  0.40659142791E+02  0.00000000000E+00 0. -1.
         11    1    3    3    0    0 -0.39767065853E+01 -0.15817797026E+02  0.80538444936E+01  0.18190143194E+02  0.51100000000E-03 0. -1.
        -11    1    3    3    0    0 -0.10678519563E+02 -0.95093557769E+01  0.24027017583E+02  0.27959903461E+02  0.51100000000E-03 0.  1.
        -12    1    3    3    0    0  0.12789321754E+01  0.41877815442E+01 -0.28285974732E-01  0.43788105540E+01  0.00000000000E+00 0.  1.
</event>
<event>
 7    1  0.3141443E-011  0.5052886E+02  0.7816164E-02  0.1300439E+00
        -11   -1    0    0    0    0  0.00000000000E+00  0.00000000000E+00  0.45593999997E+02  0.45594000000E+02  0.51100000000E-03 0.  1.
         11   -1    0    0    0    0 -0.00000000000E+00 -0.00000000000E+00 -0.45593999997E+02  0.45594000000E+02  0.51100000000E-03 0. -1.
    9900012    2    1    2    0    0 -0.17362458223E+02  0.14668047742E+02  0.33712893596E+02  0.50528858657E+02  0.29999996374E+02 0.  0.
         12    1    1    2    0    0  0.17362458223E+02 -0.14668047742E+02 -0.33712893596E+02  0.40659141343E+02  0.00000000000E+00 0. -1.
         11    1    3    3    0    0 -0.16014199349E+01  0.79321621600E+01  0.22013055726E+02  0.23453323112E+02  0.51100000000E-03 0. -1.
        -11    1    3    3    0    0 -0.99377457416E+01  0.99504655456E+01  0.52745251212E+00  0.14072979834E+02  0.51100000000E-03 0.  1.
         12    1    3    3    0    0 -0.58232925466E+01 -0.32145799636E+01  0.11172385358E+02  0.13002555711E+02  0.00000000000E+00 0. -1.
</event>
<event>
 7    1  0.3141443E-011  0.5052889E+02  0.7816164E-02  0.1300439E+00
        -11   -1    0    0    0    0  0.00000000000E+00  0.00000000000E+00  0.45593999997E+02  0.45594000000E+02  0.51100000000E-03 0. -1.
         11   -1    0    0    0    0 -0.00000000000E+00 -0.00000000000E+00 -0.45593999997E+02  0.45594000000E+02  0.51100000000E-03 0.  1.
    9900012    2    1    2    0    0 -0.29191643804E+02 -0.21909467133E+02 -0.17916083057E+02  0.50528894622E+02  0.30000105694E+02 0.  0.
         12    1    1    2    0    0  0.29191643804E+02  0.21909467133E+02  0.17916083057E+02  0.40659105378E+02  0.00000000000E+00 0. -1.
         11    1    3    3    0    0 -0.61497344581E+01 -0.17556142722E+02 -0.31998898347E+01  0.18875292750E+02  0.51100000000E-03 0. -1.
        -11    1    3    3    0    0 -0.17121418200E+02 -0.51161702217E+01 -0.24823526866E+01  0.18041070757E+02  0.51100000000E-03 0.  1.
         12    1    3    3    0    0 -0.59204911455E+01  0.76284581050E+00 -0.12233840536E+02  0.13612531116E+02  0.00000000000E+00 0. -1.
</event>
<event>
 7    1  0.3141443E-011  0.5052886E+02  0.7816164E-02  0.1300439E+00
        -11   -1    0    0    0    0  0.00000000000E+00  0.00000000000E+00  0.45593999997E+02  0.45594000000E+02  0.51100000000E-03 0. -1.
         11   -1    0    0    0    0 -0.00000000000E+00 -0.00000000000E+00 -0.45593999997E+02  0.45594000000E+02  0.51100000000E-03 0.  1.
    9900012    2    1    2    0    0 -0.19313654447E+02 -0.20049186750E+02 -0.29634078695E+02  0.50528858869E+02  0.29999997017E+02 0.  0.
         12    1    1    2    0    0  0.19313654447E+02  0.20049186750E+02  0.29634078695E+02  0.40659141131E+02  0.00000000000E+00 0. -1.
         11    1    3    3    0    0  0.26504970506E+01  0.95669147726E+00 -0.15258993498E+01  0.32044909556E+01  0.51100000000E-03 0. -1.
        -11    1    3    3    0    0 -0.78684990880E+01 -0.20436017069E+02 -0.24301785345E+02  0.32712701551E+02  0.51100000000E-03 0.  1.
        -12    1    3    3    0    0 -0.14095652410E+02 -0.56986115829E+00 -0.38063939998E+01  0.14611666362E+02  0.00000000000E+00 0.  1.
</event>
<event>
 7    1  0.3141443E-011  0.5052886E+02  0.7816164E-02  0.1300439E+00
        -11   -1    0    0    0    0  0.00000000000E+00  0.00000000000E+00  0.45593999997E+02  0.45594000000E+02  0.51100000000E-03 0.  1.
         11   -1    0    0    0    0 -0.00000000000E+00 -0.00000000000E+00 -0.45593999997E+02  0.45594000000E+02  0.51100000000E-03 0. -1.
    9900012    2    1    2    0    0  0.27046261510E+01 -0.94794282298E+01  0.39446051036E+02  0.50528861980E+02  0.30000006473E+02 0.  0.
         12    1    1    2    0    0 -0.27046261510E+01  0.94794282298E+01 -0.39446051036E+02  0.40659138020E+02  0.00000000000E+00 0. -1.
         11    1    3    3    0    0 -0.39606428057E+00  0.12063462505E+01 -0.31634414409E+01  0.34087387993E+01  0.51100000000E-03 0. -1.
        -11    1    3    3    0    0  0.24804459100E+01 -0.76479843902E+01  0.51841925013E+01  0.95666153522E+01  0.51100000000E-03 0.  1.
        -12    1    3    3    0    0  0.62024452164E+00 -0.30377900902E+01  0.37425299976E+02  0.37553507828E+02  0.00000000000E+00 0.  1.
</event>
<event>
 7    1  0.3141443E-011  0.5052887E+02  0.7816164E-02  0.1300439E+00
        -11   -1    0    0    0    0  0.00000000000E+00  0.00000000000E+00  0.45593999997E+02  0.45594000000E+02  0.51100000000E-03 0.  1.
         11   -1    0    0    0    0 -0.00000000000E+00 -0.00000000000E+00 -0.45593999997E+02  0.45594000000E+02  0.51100000000E-03 0. -1.
    9900012    2    1    2    0    0 -0.28005711521E+02  0.15251067593E+02  0.25224002306E+02  0.50528865321E+02  0.30000016630E+02 0.  0.
         12    1    1    2    0    0  0.28005711521E+02 -0.15251067593E+02 -0.25224002306E+02  0.40659134679E+02  0.00000000000E+00 0. -1.
         11    1    3    3    0    0  0.32201462179E+01  0.71021351544E+01  0.84877094022E+01  0.11526095461E+02  0.51100000000E-03 0. -1.
        -11    1    3    3    0    0 -0.78410637145E+01  0.60740520610E+01 -0.41691076151E+00  0.99272455122E+01  0.51100000000E-03 0.  1.
        -12    1    3    3    0    0 -0.23384794024E+02  0.20748803776E+01  0.17153203665E+02  0.29075524348E+02  0.00000000000E+00 0.  1.
</event>
<event>
 7    1  0.3141443E-011  0.5052886E+02  0.7816164E-02  0.1300439E+00
        -11   -1    0    0    0    0  0.00000000000E+00  0.00000000000E+00  0.45593999997E+02  0.45594000000E+02  0.51100000000E-03 0.  1.
         11   -1    0    0    0    0 -0.00000000000E+00 -0.00000000000E+00 -0.45593999997E+02  0.45594000000E+02  0.51100000000E-03 0. -1.
    9900012    2    1    2    0    0  0.25540749392E+02 -0.21220418220E+02  0.23463374773E+02  0.50528856076E+02  0.29999988528E+02 0.  0.
         12    1    1    2    0    0 -0.25540749392E+02  0.21220418220E+02 -0.23463374773E+02  0.40659143924E+02  0.00000000000E+00 0. -1.
         11    1    3    3    0    0  0.14583649937E+02 -0.11907469745E+02  0.12918002436E+01  0.18871656773E+02  0.51100000000E-03 0. -1.
        -11    1    3    3    0    0  0.21963940889E+01 -0.12920692863E+02  0.12279772900E+02  0.17959990918E+02  0.51100000000E-03 0.  1.
         12    1    3    3    0    0  0.87607053657E+01  0.36077443877E+01  0.98918016295E+01  0.13697208385E+02  0.00000000000E+00 0. -1.
</event>
<event>
 7    1  0.3141443E-011  0.5052884E+02  0.7816164E-02  0.1300439E+00
        -11   -1    0    0    0    0  0.00000000000E+00  0.00000000000E+00  0.45593999997E+02  0.45594000000E+02  0.51100000000E-03 0.  1.
         11   -1    0    0    0    0 -0.00000000000E+00 -0.00000000000E+00 -0.45593999997E+02  0.45594000000E+02  0.51100000000E-03 0. -1.
    9900012    2    1    2    0    0  0.13679957515E+02  0.64789436203E+01  0.37736575584E+02  0.50528842546E+02  0.29999947403E+02 0.  0.
         12    1    1    2    0    0 -0.13679957515E+02 -0.64789436203E+01 -0.37736575584E+02  0.40659157454E+02  0.00000000000E+00 0. -1.
         11    1    3    3    0    0  0.17964832955E+02  0.46659569983E+01  0.21748446057E+02  0.28591979364E+02  0.51100000000E-03 0. -1.
        -11    1    3    3    0    0  0.12753237247E-01  0.23362675108E+01  0.17265602549E+02  0.17422954404E+02  0.51100000000E-03 0.  1.
         12    1    3    3    0    0 -0.42976286773E+01 -0.52328088885E+00 -0.12774730217E+01  0.45139087782E+01  0.00000000000E+00 0. -1.
</event>
<event>
 7    1  0.3901020E-011  0.5052885E+02  0.7816164E-02  0.1300439E+00
        -11   -1    0    0    0    0  0.00000000000E+00  0.00000000000E+00  0.45593999997E+02  0.45594000000E+02  0.51100000000E-03 0.  1.
         11   -1    0    0    0    0 -0.00000000000E+00 -0.00000000000E+00 -0.45593999997E+02  0.45594000000E+02  0.51100000000E-03 0. -1.
    9900012    2    1    2    0    0 -0.39826609671E+02  0.66999096126E+01 -0.47030748414E+01  0.50528849250E+02  0.29999967782E+02 0.  0.
         12    1    1    2    0    0  0.39826609671E+02 -0.66999096126E+01  0.47030748414E+01  0.40659150750E+02  0.00000000000E+00 0. -1.
         11    1    3    3    0    0 -0.45980979520E+01 -0.79340348661E+01  0.45948652249E+01  0.10256909902E+02  0.51100000000E-03 0. -1.
        -11    1    3    3    0    0 -0.96014743689E+01  0.85166597831E+01 -0.32575965219E+01  0.13241364706E+02  0.51100000000E-03 0.  1.
        -12    1    3    3    0    0 -0.25627037350E+02  0.61172846956E+01 -0.60403435444E+01  0.27030574643E+02  0.00000000000E+00 0.  1.
</event>
<event>
 7    1  0.3141443E-011  0.5052886E+02  0.7816164E-02  0.1300439E+00
        -11   -1    0    0    0    0  0.00000000000E+00  0.00000000000E+00  0.45593999997E+02  0.45594000000E+02  0.51100000000E-03 0. -1.
         11   -1    0    0    0    0 -0.00000000000E+00 -0.00000000000E+00 -0.45593999997E+02  0.45594000000E+02  0.51100000000E-03 0.  1.
    9900012    2    1    2    0    0 -0.31330290891E+01  0.40096895561E+02  0.59656141265E+01  0.50528862567E+02  0.30000008259E+02 0.  0.
         12    1    1    2    0    0  0.31330290891E+01 -0.40096895561E+02 -0.59656141265E+01  0.40659137433E+02  0.00000000000E+00 0. -1.
         11    1    3    3    0    0 -0.22653888077E+01  0.82205110196E+01  0.39057509620E+01  0.93788953886E+01  0.51100000000E-03 0. -1.
        -11    1    3    3    0    0 -0.80881176415E+01  0.26192569179E+02  0.98237975649E+01  0.29120015901E+02  0.51100000000E-03 0.  1.
         12    1    3    3    0    0  0.72204773601E+01  0.56838153618E+01 -0.77639344004E+01  0.12029951278E+02  0.00000000000E+00 0. -1.
</event>
<event>
 7    1  0.3141443E-011  0.5052887E+02  0.7816164E-02  0.1300439E+00
        -11   -1    0    0    0    0  0.00000000000E+00  0.00000000000E+00  0.45593999997E+02  0.45594000000E+02  0.51100000000E-03 0.  1.
         11   -1    0    0    0    0 -0.00000000000E+00 -0.00000000000E+00 -0.45593999997E+02  0.45594000000E+02  0.51100000000E-03 0. -1.
    9900012    2    1    2    0    0  0.47572536402E+01 -0.37428338121E+02 -0.15154302495E+02  0.50528870142E+02  0.30000031282E+02 0.  0.
         12    1    1    2    0    0 -0.47572536402E+01  0.37428338121E+02  0.15154302495E+02  0.40659129858E+02  0.00000000000E+00 0. -1.
         11    1    3    3    0    0 -0.35519796140E+01 -0.42527206999E+01  0.15728568178E+01  0.57598673041E+01  0.51100000000E-03 0. -1.
        -11    1    3    3    0    0 -0.20277579078E+01 -0.25897160021E+02 -0.30677546606E+01  0.26156945889E+02  0.51100000000E-03 0.  1.
        -12    1    3    3    0    0  0.10336991162E+02 -0.72784574000E+01 -0.13659404652E+02  0.18612056949E+02  0.00000000000E+00 0.  1.
</event>
<event>
 7    1  0.3141443E-011  0.5052886E+02  0.7816164E-02  0.1300439E+00
        -11   -1    0    0    0    0  0.00000000000E+00  0.00000000000E+00  0.45593999997E+02  0.45594000000E+02  0.51100000000E-03 0.  1.
         11   -1    0    0    0    0 -0.00000000000E+00 -0.00000000000E+00 -0.45593999997E+02  0.45594000000E+02  0.51100000000E-03 0. -1.
    9900012    2    1    2    0    0  0.24939199306E+02  0.17962534228E+02  0.26618587637E+02  0.50528861966E+02  0.30000006431E+02 0.  0.
         12    1    1    2    0    0 -0.24939199306E+02 -0.17962534228E+02 -0.26618587637E+02  0.40659138034E+02  0.00000000000E+00 0. -1.
         11    1    3    3    0    0  0.15452501949E+02  0.19775092228E+01  0.74856562196E+01  0.17283674624E+02  0.51100000000E-03 0. -1.
        -11    1    3    3    0    0  0.70201968094E+01  0.18145435068E+01  0.17283964108E+02  0.18743296053E+02  0.51100000000E-03 0.  1.
        -12    1    3    3    0    0  0.24665005481E+01  0.14170481498E+02  0.18489673094E+01  0.14501891289E+02  0.00000000000E+00 0.  1.
</event>
<event>
 7    1  0.3141443E-011  0.5052888E+02  0.7816164E-02  0.1300439E+00
        -11   -1    0    0    0    0  0.00000000000E+00  0.00000000000E+00  0.45593999997E+02  0.45594000000E+02  0.51100000000E-03 0.  1.
         11   -1    0    0    0    0 -0.00000000000E+00 -0.00000000000E+00 -0.45593999997E+02  0.45594000000E+02  0.51100000000E-03 0. -1.
    9900012    2    1    2    0    0  0.35304552347E+02  0.20158903504E+02  0.60936240621E+00  0.50528878890E+02  0.30000057873E+02 0.  0.
         12    1    1    2    0    0 -0.35304552347E+02 -0.20158903504E+02 -0.60936240621E+00  0.40659121110E+02  0.00000000000E+00 0. -1.
         11    1    3    3    0    0 -0.28238422463E+01  0.46469425784E+01 -0.23301499683E+00  0.54426516156E+01  0.51100000000E-03 0. -1.
        -11    1    3    3    0    0  0.94011170796E-01 -0.21542441461E+01  0.22621847491E+01  0.31252337579E+01  0.51100000000E-03 0.  1.
        -12    1    3    3    0    0  0.38034383422E+02  0.17666205072E+02 -0.14198073460E+01  0.41960993516E+02  0.00000000000E+00 0.  1.
</event>
<event>
 7    1  0.3141443E-011  0.5052886E+02  0.7816164E-02  0.1300439E+00
        -11   -1    0    0    0    0  0.00000000000E+00  0.00000000000E+00  0.45593999997E+02  0.45594000000E+02  0.51100000000E-03 0.  1.
         11   -1    0    0    0    0 -0.00000000000E+00 -0.00000000000E+00 -0.45593999997E+02  0.45594000000E+02  0.51100000000E-03 0. -1.
    9900012    2    1    2    0    0 -0.16186284174E+01  0.31906814410E+02  0.25149576143E+02  0.50528856577E+02  0.29999990051E+02 0.  0.
         12    1    1    2    0    0  0.16186284174E+01 -0.31906814410E+02 -0.25149576143E+02  0.40659143423E+02  0.00000000000E+00 0. -1.
         11    1    3    3    0    0 -0.55727854663E+01 -0.39482021525E+00  0.51744327933E+01  0.76148917162E+01  0.51100000000E-03 0. -1.
        -11    1    3    3    0    0 -0.69280430807E+01  0.59597902042E+01  0.24713300728E+01  0.94670139324E+01  0.51100000000E-03 0.  1.
        -12    1    3    3    0    0  0.10882200130E+02  0.26341844421E+02  0.17503813277E+02  0.33446950928E+02  0.00000000000E+00 0.  1.
</event>
<event>
 7    1  0.3141443E-011  0.5052891E+02  0.7816164E-02  0.1300439E+00
        -11   -1    0    0    0    0  0.00000000000E+00  0.00000000000E+00  0.45593999997E+02  0.45594000000E+02  0.51100000000E-03 0. -1.
         11   -1    0    0    0    0 -0.00000000000E+00 -0.00000000000E+00 -0.45593999997E+02  0.45594000000E+02  0.51100000000E-03 0.  1.
    9900012    2    1    2    0    0 -0.26382183889E+02 -0.26743679561E+01 -0.30821897411E+02  0.50528914536E+02  0.30000166224E+02 0.  0.
         12    1    1    2    0    0  0.26382183889E+02  0.26743679561E+01  0.30821897411E+02  0.40659085464E+02  0.00000000000E+00 0. -1.
         11    1    3    3    0    0  0.26841230423E+01 -0.59430524777E+01 -0.42484831253E+01  0.77829299359E+01  0.51100000000E-03 0. -1.
        -11    1    3    3    0    0 -0.46398706780E+01  0.25642412489E+01  0.15169568842E+01  0.55140630701E+01  0.51100000000E-03 0.  1.
        -12    1    3    3    0    0 -0.24426436254E+02  0.70444327268E+00 -0.28090371170E+02  0.37231921530E+02  0.00000000000E+00 0.  1.
</event>
<event>
 7    1  0.3141443E-011  0.5052884E+02  0.7816164E-02  0.1300439E+00
        -11   -1    0    0    0    0  0.00000000000E+00  0.00000000000E+00  0.45593999997E+02  0.45594000000E+02  0.51100000000E-03 0.  1.
         11   -1    0    0    0    0 -0.00000000000E+00 -0.00000000000E+00 -0.45593999997E+02  0.45594000000E+02  0.51100000000E-03 0. -1.
    9900012    2    1    2    0    0 -0.93058457953E+01 -0.33019037528E+02  0.21824572584E+02  0.50528836534E+02  0.29999929130E+02 0.  0.
         12    1    1    2    0    0  0.93058457953E+01  0.33019037528E+02 -0.21824572584E+02  0.40659163466E+02  0.00000000000E+00 0. -1.
         11    1    3    3    0    0  0.79832647746E+01 -0.15426762042E+02  0.57656103052E+01  0.18301906076E+02  0.51100000000E-03 0. -1.
        -11    1    3    3    0    0 -0.46649115233E+01 -0.13028536106E+02  0.11674687527E+02  0.18105316393E+02  0.51100000000E-03 0.  1.
         12    1    3    3    0    0 -0.12624199047E+02 -0.45637393800E+01  0.43842747518E+01  0.14121614065E+02  0.00000000000E+00 0. -1.
</event>
<event>
 7    1  0.3141443E-011  0.5052886E+02  0.7816164E-02  0.1300439E+00
        -11   -1    0    0    0    0  0.00000000000E+00  0.00000000000E+00  0.45593999997E+02  0.45594000000E+02  0.51100000000E-03 0.  1.
         11   -1    0    0    0    0 -0.00000000000E+00 -0.00000000000E+00 -0.45593999997E+02  0.45594000000E+02  0.51100000000E-03 0. -1.
    9900012    2    1    2    0    0  0.29900554034E+02  0.14353699405E+02  0.23517953132E+02  0.50528856654E+02  0.29999990284E+02 0.  0.
         12    1    1    2    0    0 -0.29900554034E+02 -0.14353699405E+02 -0.23517953132E+02  0.40659143346E+02  0.00000000000E+00 0. -1.
         11    1    3    3    0    0 -0.19613541988E+01  0.11872426787E+02  0.44930177866E+01  0.12844790275E+02  0.51100000000E-03 0. -1.
        -11    1    3    3    0    0  0.75455504964E+01  0.11839475680E+01  0.76401346947E+01  0.10803181131E+02  0.51100000000E-03 0.  1.
        -12    1    3    3    0    0  0.24316357737E+02  0.12973250499E+01  0.11384800650E+02  0.26880885248E+02  0.00000000000E+00 0.  1.
</event>
<event>
 7    1  0.3141443E-011  0.5052889E+02  0.7816164E-02  0.1300439E+00
        -11   -1    0    0    0    0  0.00000000000E+00  0.00000000000E+00  0.45593999997E+02  0.45594000000E+02  0.51100000000E-03 0.  1.
         11   -1    0    0    0    0 -0.00000000000E+00 -0.00000000000E+00 -0.45593999997E+02  0.45594000000E+02  0.51100000000E-03 0. -1.
    9900012    2    1    2    0    0 -0.26142206151E+02  0.42341387097E+01  0.30851591099E+02  0.50528886060E+02  0.30000079668E+02 0.  0.
         12    1    1    2    0    0  0.26142206151E+02 -0.42341387097E+01 -0.30851591099E+02  0.40659113940E+02  0.00000000000E+00 0. -1.
         11    1    3    3    0    0 -0.47235061092E+01  0.12414914547E+01  0.29162663181E+01  0.56883583304E+01  0.51100000000E-03 0. -1.
        -11    1    3    3    0    0 -0.19502693368E+02  0.92417599436E+01  0.66631069632E+01  0.22586769803E+02  0.51100000000E-03 0.  1.
         12    1    3    3    0    0 -0.19160066736E+01 -0.62491126886E+01  0.21272217818E+02  0.22253757927E+02  0.00000000000E+00 0. -1.
</event>
<event>
 7    1  0.3141443E-011  0.5052886E+02  0.7816164E-02  0.1300439E+00
        -11   -1    0    0    0    0  0.00000000000E+00  0.00000000000E+00  0.45593999997E+02  0.45594000000E+02  0.51100000000E-03 0. -1.
         11   -1    0    0    0    0 -0.00000000000E+00 -0.00000000000E+00 -0.45593999997E+02  0.45594000000E+02  0.51100000000E-03 0.  1.
    9900012    2    1    2    0    0  0.26159498921E+02 -0.43516867797E+01 -0.30820589406E+02  0.50528864582E+02  0.30000014383E+02 0.  0.
         12    1    1    2    0    0 -0.26159498921E+02  0.43516867797E+01  0.30820589406E+02  0.40659135418E+02  0.00000000000E+00 0. -1.
         11    1    3    3    0    0  0.26069835465E+00 -0.61972788551E+01  0.11482823066E+01  0.63081519763E+01  0.51100000000E-03 0. -1.
        -11    1    3    3    0    0  0.11483969257E+02  0.79126976612E+01 -0.96163342544E+01  0.16940077300E+02  0.51100000000E-03 0.  1.
        -12    1    3    3    0    0  0.14414831309E+02 -0.60671055858E+01 -0.22352537458E+02  0.27280635305E+02  0.00000000000E+00 0.  1.
</event>
<event>
 7    1  0.3141443E-011  0.5052887E+02  0.7816164E-02  0.1300439E+00
        -11   -1    0    0    0    0  0.00000000000E+00  0.00000000000E+00  0.45593999997E+02  0.45594000000E+02  0.51100000000E-03 0.  1.
         11   -1    0    0    0    0 -0.00000000000E+00 -0.00000000000E+00 -0.45593999997E+02  0.45594000000E+02  0.51100000000E-03 0. -1.
    9900012    2    1    2    0    0  0.12479233561E+02  0.22752377137E+01  0.38629744496E+02  0.50528866503E+02  0.30000020221E+02 0.  0.
         12    1    1    2    0    0 -0.12479233561E+02 -0.22752377137E+01 -0.38629744496E+02  0.40659133497E+02  0.00000000000E+00 0. -1.
         11    1    3    3    0    0 -0.30368916786E+01  0.40379062203E+01  0.15955253484E+02  0.16736113997E+02  0.51100000000E-03 0. -1.
        -11    1    3    3    0    0 -0.89737330456E+00  0.25888673792E+01 -0.23101945421E+01  0.35839241396E+01  0.51100000000E-03 0.  1.
        -12    1    3    3    0    0  0.16413498544E+02 -0.43515358859E+01  0.24984685554E+02  0.30208828366E+02  0.00000000000E+00 0.  1.
</event>
<event>
 7    1  0.3141443E-011  0.5052884E+02  0.7816164E-02  0.1300439E+00
        -11   -1    0    0    0    0  0.00000000000E+00  0.00000000000E+00  0.45593999997E+02  0.45594000000E+02  0.51100000000E-03 0.  1.
         11   -1    0    0    0    0 -0.00000000000E+00 -0.00000000000E+00 -0.45593999997E+02  0.45594000000E+02  0.51100000000E-03 0. -1.
    9900012    2    1    2    0    0 -0.12182664983E+02 -0.37626531899E+02  0.94336661312E+01  0.50528840079E+02  0.29999939903E+02 0.  0.
         12    1    1    2    0    0  0.12182664983E+02  0.37626531899E+02 -0.94336661312E+01  0.40659159921E+02  0.00000000000E+00 0. -1.
         11    1    3    3    0    0  0.61069512073E+01 -0.40653570913E+01 -0.19172553005E+01  0.75827336414E+01  0.51100000000E-03 0. -1.
        -11    1    3    3    0    0  0.42624244599E+00 -0.14813884053E+02  0.25907238796E+01  0.15044756357E+02  0.51100000000E-03 0.  1.
         12    1    3    3    0    0 -0.18715858637E+02 -0.18747290755E+02  0.87601975521E+01  0.27901350080E+02  0.00000000000E+00 0. -1.
</event>
<event>
 7    1  0.3141443E-011  0.5052890E+02  0.7816164E-02  0.1300439E+00
        -11   -1    0    0    0    0  0.00000000000E+00  0.00000000000E+00  0.45593999997E+02  0.45594000000E+02  0.51100000000E-03 0.  1.
         11   -1    0    0    0    0 -0.00000000000E+00 -0.00000000000E+00 -0.45593999997E+02  0.45594000000E+02  0.51100000000E-03 0. -1.
    9900012    2    1    2    0    0  0.15470649862E+02 -0.25735239056E+01  0.37512648104E+02  0.50528895236E+02  0.30000107558E+02 0.  0.
         12    1    1    2    0    0 -0.15470649862E+02  0.25735239056E+01 -0.37512648104E+02  0.40659104764E+02  0.00000000000E+00 0. -1.
         11    1    3    3    0    0 -0.31806522781E+01  0.14401370594E+01  0.25724084455E+01  0.43367994115E+01  0.51100000000E-03 0. -1.
        -11    1    3    3    0    0  0.36079316868E+01  0.11023511459E+01  0.28975282850E+02  0.29219845406E+02  0.51100000000E-03 0.  1.
        -12    1    3    3    0    0  0.15043370453E+02 -0.51160121108E+01  0.59649568091E+01  0.16972250418E+02  0.00000000000E+00 0.  1.
</event>
<event>
 7    1  0.3141443E-011  0.5052886E+02  0.7816164E-02  0.1300439E+00
        -11   -1    0    0    0    0  0.00000000000E+00  0.00000000000E+00  0.45593999997E+02  0.45594000000E+02  0.51100000000E-03 0.  1.
         11   -1    0    0    0    0 -0.00000000000E+00 -0.00000000000E+00 -0.45593999997E+02  0.45594000000E+02  0.51100000000E-03 0. -1.
    9900012    2    1    2    0    0 -0.13375196275E+02  0.46617189694E+01  0.38112181591E+02  0.50528857303E+02  0.29999992260E+02 0.  0.
         12    1    1    2    0    0  0.13375196275E+02 -0.46617189694E+01 -0.38112181591E+02  0.40659142697E+02  0.00000000000E+00 0. -1.
         11    1    3    3    0    0 -0.43349220423E+01  0.82918628006E+01  0.70373843285E+01  0.11707745994E+02  0.51100000000E-03 0. -1.
        -11    1    3    3    0    0 -0.14678261142E+02  0.25504295343E+01  0.20276587128E+02  0.25161399540E+02  0.51100000000E-03 0.  1.
         12    1    3    3    0    0  0.56379869090E+01 -0.61805733655E+01  0.10798210135E+02  0.13659711770E+02  0.00000000000E+00 0. -1.
</event>
<event>
 7    1  0.3141443E-011  0.5052886E+02  0.7816164E-02  0.1300439E+00
        -11   -1    0    0    0    0  0.00000000000E+00  0.00000000000E+00  0.45593999997E+02  0.45594000000E+02  0.51100000000E-03 0. -1.
         11   -1    0    0    0    0 -0.00000000000E+00 -0.00000000000E+00 -0.45593999997E+02  0.45594000000E+02  0.51100000000E-03 0.  1.
    9900012    2    1    2    0    0  0.32391714287E+02  0.42748860176E+01  0.24200567623E+02  0.50528864764E+02  0.30000014936E+02 0.  0.
         12    1    1    2    0    0 -0.32391714287E+02 -0.42748860176E+01 -0.24200567623E+02  0.40659135236E+02  0.00000000000E+00 0. -1.
         11    1    3    3    0    0  0.38374576559E+01 -0.62199889148E+01  0.26292527772E+01  0.77670659704E+01  0.51100000000E-03 0. -1.
        -11    1    3    3    0    0  0.17153568001E+02 -0.75045046356E+00  0.17187707936E+01  0.17255788721E+02  0.51100000000E-03 0.  1.
        -12    1    3    3    0    0  0.11400688630E+02  0.11245325396E+02  0.19852544052E+02  0.25506010073E+02  0.00000000000E+00 0.  1.
</event>
<event>
 7    1  0.3141443E-011  0.5052888E+02  0.7816164E-02  0.1300439E+00
        -11   -1    0    0    0    0  0.00000000000E+00  0.00000000000E+00  0.45593999997E+02  0.45594000000E+02  0.51100000000E-03 0.  1.
         11   -1    0    0    0    0 -0.00000000000E+00 -0.00000000000E+00 -0.45593999997E+02  0.45594000000E+02  0.51100000000E-03 0. -1.
    9900012    2    1    2    0    0  0.15181951722E+02 -0.36390936722E+02  0.99182650092E+01  0.50528881535E+02  0.30000065913E+02 0.  0.
         12    1    1    2    0    0 -0.15181951722E+02  0.36390936722E+02 -0.99182650092E+01  0.40659118465E+02  0.00000000000E+00 0. -1.
         11    1    3    3    0    0  0.23351786754E+02 -0.33250103475E+02  0.82376733431E+01  0.41457624004E+02  0.51100000000E-03 0.  1.
        -11    1    3    3    0    0 -0.18551337959E+01 -0.15108470810E+01  0.44377451483E+00  0.24333344168E+01  0.51100000000E-03 0. -1.
        -12    1    3    3    0    0 -0.63147012360E+01 -0.16299861655E+01  0.12368171513E+01  0.66379231139E+01  0.00000000000E+00 0.  1.
</event>
<event>
 7    1  0.3141443E-011  0.5052886E+02  0.7816164E-02  0.1300439E+00
        -11   -1    0    0    0    0  0.00000000000E+00  0.00000000000E+00  0.45593999997E+02  0.45594000000E+02  0.51100000000E-03 0. -1.
         11   -1    0    0    0    0 -0.00000000000E+00 -0.00000000000E+00 -0.45593999997E+02  0.45594000000E+02  0.51100000000E-03 0.  1.
    9900012    2    1    2    0    0 -0.25999368290E+02 -0.27236660481E+02  0.15341543137E+02  0.50528858697E+02  0.29999996497E+02 0.  0.
         12    1    1    2    0    0  0.25999368290E+02  0.27236660481E+02 -0.15341543137E+02  0.40659141303E+02  0.00000000000E+00 0. -1.
         11    1    3    3    0    0 -0.22428628273E+02 -0.14590668798E+02  0.54098748772E+01  0.27298309996E+02  0.51100000000E-03 0. -1.
        -11    1    3    3    0    0 -0.47908040340E+01  0.14105760361E+01 -0.13408938499E+01  0.51710274244E+01  0.51100000000E-03 0.  1.
         12    1    3    3    0    0  0.12200640170E+01 -0.14056567719E+02  0.11272562110E+02  0.18059521277E+02  0.00000000000E+00 0. -1.
</event>
<event>
 7    1  0.3141443E-011  0.5052889E+02  0.7816164E-02  0.1300439E+00
        -11   -1    0    0    0    0  0.00000000000E+00  0.00000000000E+00  0.45593999997E+02  0.45594000000E+02  0.51100000000E-03 0. -1.
         11   -1    0    0    0    0 -0.00000000000E+00 -0.00000000000E+00 -0.45593999997E+02  0.45594000000E+02  0.51100000000E-03 0.  1.
    9900012    2    1    2    0    0 -0.70057677725E+01  0.22460858623E+02 -0.33160100698E+02  0.50528889945E+02  0.30000091477E+02 0.  0.
         12    1    1    2    0    0  0.70057677725E+01 -0.22460858623E+02  0.33160100698E+02  0.40659110055E+02  0.00000000000E+00 0. -1.
         11    1    3    3    0    0  0.26304055711E+01  0.95215875332E+01 -0.15989790895E+02  0.18795027953E+02  0.51100000000E-03 0. -1.
        -11    1    3    3    0    0 -0.83081252243E+01  0.17561088681E+02 -0.18413394101E+02  0.26766954683E+02  0.51100000000E-03 0.  1.
         12    1    3    3    0    0 -0.13280481192E+01 -0.46218175907E+01  0.12430842989E+01  0.49669073096E+01  0.00000000000E+00 0. -1.
</event>
<event>
 7    1  0.3141443E-011  0.5052895E+02  0.7816164E-02  0.1300438E+00
        -11   -1    0    0    0    0  0.00000000000E+00  0.00000000000E+00  0.45593999997E+02  0.45594000000E+02  0.51100000000E-03 0.  1.
         11   -1    0    0    0    0 -0.00000000000E+00 -0.00000000000E+00 -0.45593999997E+02  0.45594000000E+02  0.51100000000E-03 0. -1.
    9900012    2    1    2    0    0  0.19560647493E+01  0.41387818589E+01  0.40400531925E+02  0.50528945849E+02  0.30000261402E+02 0.  0.
         12    1    1    2    0    0 -0.19560647493E+01 -0.41387818589E+01 -0.40400531925E+02  0.40659054151E+02  0.00000000000E+00 0. -1.
         11    1    3    3    0    0 -0.68859629442E+01 -0.28178664068E+01  0.14363183476E+02  0.16175842994E+02  0.51100000000E-03 0. -1.
        -11    1    3    3    0    0  0.10254483437E+02 -0.42600669902E+01  0.12970151476E+02  0.17074174384E+02  0.51100000000E-03 0.  1.
        -12    1    3    3    0    0 -0.14124557436E+01  0.11216715256E+02  0.13067196974E+02  0.17278928471E+02  0.00000000000E+00 0.  1.
</event>
<event>
 7    1  0.3141443E-011  0.5052886E+02  0.7816164E-02  0.1300439E+00
        -11   -1    0    0    0    0  0.00000000000E+00  0.00000000000E+00  0.45593999997E+02  0.45594000000E+02  0.51100000000E-03 0. -1.
         11   -1    0    0    0    0 -0.00000000000E+00 -0.00000000000E+00 -0.45593999997E+02  0.45594000000E+02  0.51100000000E-03 0.  1.
    9900012    2    1    2    0    0  0.25473206891E+02 -0.11629254840E+02 -0.29479512137E+02  0.50528862365E+02  0.30000007644E+02 0.  0.
         12    1    1    2    0    0 -0.25473206891E+02  0.11629254840E+02  0.29479512137E+02  0.40659137635E+02  0.00000000000E+00 0. -1.
         11    1    3    3    0    0 -0.38397541371E+00  0.20177850762E+01 -0.25851941912E+01  0.33018363072E+01  0.51100000000E-03 0. -1.
        -11    1    3    3    0    0  0.27559303174E+02 -0.13015334254E+02 -0.12867217272E+02  0.33082917009E+02  0.51100000000E-03 0.  1.
        -12    1    3    3    0    0 -0.17021208697E+01 -0.63170566217E+00 -0.14027100673E+02  0.14144109049E+02  0.00000000000E+00 0.  1.
</event>
<event>
 7    1  0.3141443E-011  0.5052885E+02  0.7816164E-02  0.1300439E+00
        -11   -1    0    0    0    0  0.00000000000E+00  0.00000000000E+00  0.45593999997E+02  0.45594000000E+02  0.51100000000E-03 0.  1.
         11   -1    0    0    0    0 -0.00000000000E+00 -0.00000000000E+00 -0.45593999997E+02  0.45594000000E+02  0.51100000000E-03 0. -1.
    9900012    2    1    2    0    0  0.51097001534E+00  0.21437042364E+02  0.34545027138E+02  0.50528846349E+02  0.29999958961E+02 0.  0.
         12    1    1    2    0    0 -0.51097001534E+00 -0.21437042364E+02 -0.34545027138E+02  0.40659153651E+02  0.00000000000E+00 0. -1.
         11    1    3    3    0    0 -0.58420976678E+01  0.11795724430E+01  0.90601417453E+01  0.10844706774E+02  0.51100000000E-03 0. -1.
        -11    1    3    3    0    0  0.67104129920E+01 -0.27606925124E+01  0.78105736731E+01  0.10660962763E+02  0.51100000000E-03 0.  1.
        -12    1    3    3    0    0 -0.35734530891E+00  0.23018162433E+02  0.17674311720E+02  0.29023176812E+02  0.00000000000E+00 0.  1.
</event>
<event>
 7    1  0.3141443E-011  0.5052886E+02  0.7816164E-02  0.1300439E+00
        -11   -1    0    0    0    0  0.00000000000E+00  0.00000000000E+00  0.45593999997E+02  0.45594000000E+02  0.51100000000E-03 0.  1.
         11   -1    0    0    0    0 -0.00000000000E+00 -0.00000000000E+00 -0.45593999997E+02  0.45594000000E+02  0.51100000000E-03 0. -1.
    9900012    2    1    2    0    0 -0.98881879140E+01  0.39410603004E+02  0.14812412029E+01  0.50528856319E+02  0.29999989268E+02 0.  0.
         12    1    1    2    0    0  0.98881879140E+01 -0.39410603004E+02 -0.14812412029E+01  0.40659143681E+02  0.00000000000E+00 0. -1.
         11    1    3    3    0    0 -0.53380443772E+01  0.84572329331E+00 -0.41916257984E-01  0.54047870352E+01  0.51100000000E-03 0. -1.
        -11    1    3    3    0    0 -0.12982427050E+02  0.24387069816E+02 -0.35764700916E+01  0.27857920326E+02  0.51100000000E-03 0.  1.
         12    1    3    3    0    0  0.84322835136E+01  0.14177809895E+02  0.50996275525E+01  0.17266148958E+02  0.00000000000E+00 0. -1.
</event>
<event>
 7    1  0.3141443E-011  0.5052885E+02  0.7816164E-02  0.1300439E+00
        -11   -1    0    0    0    0  0.00000000000E+00  0.00000000000E+00  0.45593999997E+02  0.45594000000E+02  0.51100000000E-03 0. -1.
         11   -1    0    0    0    0 -0.00000000000E+00 -0.00000000000E+00 -0.45593999997E+02  0.45594000000E+02  0.51100000000E-03 0.  1.
    9900012    2    1    2    0    0 -0.90168534919E+00  0.39106358885E+02 -0.11092598751E+02  0.50528854796E+02  0.29999984636E+02 0.  0.
         12    1    1    2    0    0  0.90168534919E+00 -0.39106358885E+02  0.11092598751E+02  0.40659145204E+02  0.00000000000E+00 0. -1.
         11    1    3    3    0    0  0.31340240143E+01 -0.18805519312E+01  0.29847620226E+01  0.47188331906E+01  0.51100000000E-03 0. -1.
        -11    1    3    3    0    0  0.10458843361E+01  0.33052250909E+02 -0.64604191325E+01  0.33693948713E+02  0.51100000000E-03 0.  1.
        -12    1    3    3    0    0 -0.50815936996E+01  0.79346599067E+01 -0.76169416416E+01  0.12116072892E+02  0.00000000000E+00 0.  1.
</event>
<event>
 7    1  0.3141443E-011  0.5052886E+02  0.7816164E-02  0.1300439E+00
        -11   -1    0    0    0    0  0.00000000000E+00  0.00000000000E+00  0.45593999997E+02  0.45594000000E+02  0.51100000000E-03 0.  1.
         11   -1    0    0    0    0 -0.00000000000E+00 -0.00000000000E+00 -0.45593999997E+02  0.45594000000E+02  0.51100000000E-03 0. -1.
    9900012    2    1    2    0    0  0.27830607753E+02  0.26273450631E+02  0.13723294266E+02  0.50528859066E+02  0.29999997619E+02 0.  0.
         12    1    1    2    0    0 -0.27830607753E+02 -0.26273450631E+02 -0.13723294266E+02  0.40659140934E+02  0.00000000000E+00 0. -1.
         11    1    3    3    0    0  0.82868821657E+01  0.26446670561E+01  0.30442756063E+01  0.92159803653E+01  0.51100000000E-03 0. -1.
        -11    1    3    3    0    0  0.16917500483E+02  0.19245743802E+02 -0.38497560861E+01  0.25911794597E+02  0.51100000000E-03 0.  1.
         12    1    3    3    0    0  0.26262251041E+01  0.43830397728E+01  0.14528774746E+02  0.15401084104E+02  0.00000000000E+00 0. -1.
</event>
<event>
 7    1  0.3141443E-011  0.5052886E+02  0.7816164E-02  0.1300439E+00
        -11   -1    0    0    0    0  0.00000000000E+00  0.00000000000E+00  0.45593999997E+02  0.45594000000E+02  0.51100000000E-03 0. -1.
         11   -1    0    0    0    0 -0.00000000000E+00 -0.00000000000E+00 -0.45593999997E+02  0.45594000000E+02  0.51100000000E-03 0.  1.
    9900012    2    1    2    0    0 -0.23153777796E+02  0.82795699238E+01 -0.32380815994E+02  0.50528856516E+02  0.29999989867E+02 0.  0.
         12    1    1    2    0    0  0.23153777796E+02 -0.82795699238E+01  0.32380815994E+02  0.40659143484E+02  0.00000000000E+00 0. -1.
         11    1    3    3    0    0 -0.20027918781E+01  0.95587114150E+01 -0.15298168485E+02  0.18149768552E+02  0.51100000000E-03 0. -1.
        -11    1    3    3    0    0  0.26575226661E+01 -0.55158348729E+00  0.51684635151E+00  0.27629334911E+01  0.51100000000E-03 0.  1.
        -12    1    3    3    0    0 -0.23808508584E+02 -0.72755800391E+00 -0.17599493861E+02  0.29616154474E+02  0.00000000000E+00 0.  1.
</event>
<event>
 7    1  0.3141443E-011  0.5052884E+02  0.7816164E-02  0.1300439E+00
        -11   -1    0    0    0    0  0.00000000000E+00  0.00000000000E+00  0.45593999997E+02  0.45594000000E+02  0.51100000000E-03 0. -1.
         11   -1    0    0    0    0 -0.00000000000E+00 -0.00000000000E+00 -0.45593999997E+02  0.45594000000E+02  0.51100000000E-03 0.  1.
    9900012    2    1    2    0    0 -0.22616834691E+02 -0.33531387915E+02 -0.41583457624E+01  0.50528843265E+02  0.29999949588E+02 0.  0.
         12    1    1    2    0    0  0.22616834691E+02  0.33531387915E+02  0.41583457624E+01  0.40659156735E+02  0.00000000000E+00 0. -1.
         11    1    3    3    0    0 -0.67031476429E+01 -0.23375063558E+01 -0.33820556486E+01  0.78634868193E+01  0.51100000000E-03 0. -1.
        -11    1    3    3    0    0 -0.18154896294E+02 -0.28286250002E+02 -0.80108357277E+01  0.34552650954E+02  0.51100000000E-03 0.  1.
        -12    1    3    3    0    0  0.22412092460E+01 -0.29076315565E+01  0.72345456139E+01  0.81127054915E+01  0.00000000000E+00 0.  1.
</event>
<event>
 7    1  0.3141443E-011  0.5052886E+02  0.7816164E-02  0.1300439E+00
        -11   -1    0    0    0    0  0.00000000000E+00  0.00000000000E+00  0.45593999997E+02  0.45594000000E+02  0.51100000000E-03 0.  1.
         11   -1    0    0    0    0 -0.00000000000E+00 -0.00000000000E+00 -0.45593999997E+02  0.45594000000E+02  0.51100000000E-03 0. -1.
    9900012    2    1    2    0    0  0.16700120300E+02 -0.34528160946E+02 -0.13493612694E+02  0.50528862037E+02  0.30000006648E+02 0.  0.
         12    1    1    2    0    0 -0.16700120300E+02  0.34528160946E+02  0.13493612694E+02  0.40659137963E+02  0.00000000000E+00 0. -1.
         11    1    3    3    0    0 -0.55846541614E+01 -0.10172520754E+02  0.10257661418E+01  0.11649924336E+02  0.51100000000E-03 0. -1.
        -11    1    3    3    0    0  0.12650470403E+02 -0.15944969240E+02 -0.11629842320E+01  0.20386980602E+02  0.51100000000E-03 0.  1.
         12    1    3    3    0    0  0.96343040578E+01 -0.84106709520E+01 -0.13356394604E+02  0.18491957099E+02  0.00000000000E+00 0. -1.
</event>
<event>
 7    1  0.3141443E-011  0.5052886E+02  0.7816164E-02  0.1300439E+00
        -11   -1    0    0    0    0  0.00000000000E+00  0.00000000000E+00  0.45593999997E+02  0.45594000000E+02  0.51100000000E-03 0.  1.
         11   -1    0    0    0    0 -0.00000000000E+00 -0.00000000000E+00 -0.45593999997E+02  0.45594000000E+02  0.51100000000E-03 0. -1.
    9900012    2    1    2    0    0  0.17789712040E+02 -0.28692372153E+02  0.22659206171E+02  0.50528859594E+02  0.29999999223E+02 0.  0.
         12    1    1    2    0    0 -0.17789712040E+02  0.28692372153E+02 -0.22659206171E+02  0.40659140406E+02  0.00000000000E+00 0. -1.
         11    1    3    3    0    0  0.16439762989E+01 -0.13655585996E+02  0.46349554444E+01  0.14514148242E+02  0.51100000000E-03 0. -1.
        -11    1    3    3    0    0  0.63707751629E+01 -0.31191119820E+01 -0.47340233615E+01  0.85279899848E+01  0.51100000000E-03 0.  1.
        -12    1    3    3    0    0  0.97749605780E+01 -0.11917674175E+02  0.22758274088E+02  0.27486721367E+02  0.00000000000E+00 0.  1.
</event>
<event>
 7    1  0.3141443E-011  0.5052886E+02  0.7816164E-02  0.1300439E+00
        -11   -1    0    0    0    0  0.00000000000E+00  0.00000000000E+00  0.45593999997E+02  0.45594000000E+02  0.51100000000E-03 0.  1.
         11   -1    0    0    0    0 -0.00000000000E+00 -0.00000000000E+00 -0.45593999997E+02  0.45594000000E+02  0.51100000000E-03 0. -1.
    9900012    2    1    2    0    0  0.26016951642E+02  0.36971019894E+01  0.31026038626E+02  0.50528863159E+02  0.30000010058E+02 0.  0.
         12    1    1    2    0    0 -0.26016951642E+02 -0.36971019894E+01 -0.31026038626E+02  0.40659136841E+02  0.00000000000E+00 0. -1.
         11    1    3    3    0    0  0.94300452678E-01 -0.73986351832E+01  0.15734005510E+01  0.75646734697E+01  0.51100000000E-03 0. -1.
        -11    1    3    3    0    0  0.18825477299E+02  0.94568995194E+01  0.12459916169E+02  0.24476132359E+02  0.51100000000E-03 0.  1.
         12    1    3    3    0    0  0.70971738894E+01  0.16388376531E+01  0.16992721906E+02  0.18488057330E+02  0.00000000000E+00 0. -1.
</event>
<event>
 7    1  0.3141443E-011  0.5052885E+02  0.7816164E-02  0.1300439E+00
        -11   -1    0    0    0    0  0.00000000000E+00  0.00000000000E+00  0.45593999997E+02  0.45594000000E+02  0.51100000000E-03 0. -1.
         11   -1    0    0    0    0 -0.00000000000E+00 -0.00000000000E+00 -0.45593999997E+02  0.45594000000E+02  0.51100000000E-03 0.  1.
    9900012    2    1    2    0    0  0.83486152398E+01 -0.17961830801E+00 -0.39792400170E+02  0.50528846659E+02  0.29999959904E+02 0.  0.
         12    1    1    2    0    0 -0.83486152398E+01  0.17961830801E+00  0.39792400170E+02  0.40659153341E+02  0.00000000000E+00 0. -1.
         11    1    3    3    0    0 -0.24445075917E+01 -0.98046713345E+01 -0.88186542844E+01  0.13411780679E+02  0.51100000000E-03 0. -1.
        -11    1    3    3    0    0 -0.18871120263E+01  0.14455088556E+01 -0.14829745769E+02  0.15019056145E+02  0.51100000000E-03 0.  1.
        -12    1    3    3    0    0  0.12680234858E+02  0.81795441709E+01 -0.16144000117E+02  0.22098009835E+02  0.00000000000E+00 0.  1.
</event>
<event>
 7    1  0.3141443E-011  0.5052887E+02  0.7816164E-02  0.1300439E+00
        -11   -1    0    0    0    0  0.00000000000E+00  0.00000000000E+00  0.45593999997E+02  0.45594000000E+02  0.51100000000E-03 0.  1.
         11   -1    0    0    0    0 -0.00000000000E+00 -0.00000000000E+00 -0.45593999997E+02  0.45594000000E+02  0.51100000000E-03 0. -1.
    9900012    2    1    2    0    0  0.26447396044E+02  0.19777588601E+02  0.23718079345E+02  0.50528867494E+02  0.30000023233E+02 0.  0.
         12    1    1    2    0    0 -0.26447396044E+02 -0.19777588601E+02 -0.23718079345E+02  0.40659132506E+02  0.00000000000E+00 0. -1.
         11    1    3    3    0    0  0.10913027019E+02  0.10312462874E+02 -0.31129794139E+01  0.15334004380E+02  0.51100000000E-03 0. -1.
        -11    1    3    3    0    0  0.12755102401E+02  0.75468261451E+01  0.96505286344E+01  0.17685585241E+02  0.51100000000E-03 0.  1.
         12    1    3    3    0    0  0.27792666234E+01  0.19182995823E+01  0.17180530125E+02  0.17509277872E+02  0.00000000000E+00 0. -1.
</event>
<event>
 7    1  0.3141443E-011  0.5052885E+02  0.7816164E-02  0.1300439E+00
        -11   -1    0    0    0    0  0.00000000000E+00  0.00000000000E+00  0.45593999997E+02  0.45594000000E+02  0.51100000000E-03 0.  1.
         11   -1    0    0    0    0 -0.00000000000E+00 -0.00000000000E+00 -0.45593999997E+02  0.45594000000E+02  0.51100000000E-03 0. -1.
    9900012    2    1    2    0    0 -0.24298560630E+02 -0.18585492428E+02  0.26782942024E+02  0.50528848989E+02  0.29999966986E+02 0.  0.
         12    1    1    2    0    0  0.24298560630E+02  0.18585492428E+02 -0.26782942024E+02  0.40659151011E+02  0.00000000000E+00 0. -1.
         11    1    3    3    0    0 -0.95452565075E+01 -0.88258165970E+01  0.15255865044E+02  0.20043661814E+02  0.51100000000E-03 0.  1.
        -11    1    3    3    0    0 -0.30954889090E+00 -0.11946646329E+02  0.12088225571E+00  0.11951267373E+02  0.51100000000E-03 0. -1.
         12    1    3    3    0    0 -0.14443755232E+02  0.21869704980E+01  0.11406194724E+02  0.18533919802E+02  0.00000000000E+00 0. -1.
</event>
<event>
 7    1  0.3141443E-011  0.5052891E+02  0.7816164E-02  0.1300439E+00
        -11   -1    0    0    0    0  0.00000000000E+00  0.00000000000E+00  0.45593999997E+02  0.45594000000E+02  0.51100000000E-03 0. -1.
         11   -1    0    0    0    0 -0.00000000000E+00 -0.00000000000E+00 -0.45593999997E+02  0.45594000000E+02  0.51100000000E-03 0.  1.
    9900012    2    1    2    0    0 -0.10874672762E+02  0.64310150570E+01 -0.38646407810E+02  0.50528913698E+02  0.30000163675E+02 0.  0.
         12    1    1    2    0    0  0.10874672762E+02 -0.64310150570E+01  0.38646407810E+02  0.40659086302E+02  0.00000000000E+00 0. -1.
         11    1    3    3    0    0 -0.14017426742E+02  0.24299132687E+01 -0.22750804730E+02  0.26832663809E+02  0.51100000000E-03 0. -1.
        -11    1    3    3    0    0  0.41367444364E+01 -0.33821984416E+00 -0.18211282376E+02  0.18678272223E+02  0.51100000000E-03 0.  1.
         12    1    3    3    0    0 -0.99399045668E+00  0.43393216325E+01  0.23156792958E+01  0.50179776663E+01  0.00000000000E+00 0. -1.
</event>
<event>
 7    1  0.3141443E-011  0.5052887E+02  0.7816164E-02  0.1300439E+00
        -11   -1    0    0    0    0  0.00000000000E+00  0.00000000000E+00  0.45593999997E+02  0.45594000000E+02  0.51100000000E-03 0.  1.
         11   -1    0    0    0    0 -0.00000000000E+00 -0.00000000000E+00 -0.45593999997E+02  0.45594000000E+02  0.51100000000E-03 0. -1.
    9900012    2    1    2    0    0  0.39792470965E+02  0.66213214337E+01  0.50874328694E+01  0.50528872903E+02  0.30000039677E+02 0.  0.
         12    1    1    2    0    0 -0.39792470965E+02 -0.66213214337E+01 -0.50874328694E+01  0.40659127097E+02  0.00000000000E+00 0. -1.
         11    1    3    3    0    0  0.89728127395E+01  0.90038870250E+01  0.87890240199E+01  0.15454070451E+02  0.51100000000E-03 0. -1.
        -11    1    3    3    0    0  0.15218727515E+02  0.64810398847E+01 -0.44057692090E+01  0.17117953959E+02  0.51100000000E-03 0.  1.
         12    1    3    3    0    0  0.15600930711E+02 -0.88636054761E+01  0.70417805843E+00  0.17956848494E+02  0.00000000000E+00 0. -1.
</event>
<event>
 7    1  0.3141443E-011  0.5052885E+02  0.7816164E-02  0.1300439E+00
        -11   -1    0    0    0    0  0.00000000000E+00  0.00000000000E+00  0.45593999997E+02  0.45594000000E+02  0.51100000000E-03 0. -1.
         11   -1    0    0    0    0 -0.00000000000E+00 -0.00000000000E+00 -0.45593999997E+02  0.45594000000E+02  0.51100000000E-03 0.  1.
    9900012    2    1    2    0    0 -0.16113922877E+02 -0.32551042302E+02 -0.18273959919E+02  0.50528850027E+02  0.29999970142E+02 0.  0.
         12    1    1    2    0    0  0.16113922877E+02  0.32551042302E+02  0.18273959919E+02  0.40659149973E+02  0.00000000000E+00 0. -1.
         11    1    3    3    0    0 -0.11101864753E+02 -0.17479929852E+02 -0.55722641626E+01  0.21444101212E+02  0.51100000000E-03 0. -1.
        -11    1    3    3    0    0 -0.93653315942E+01 -0.23345122891E+01  0.12099193152E+01  0.97274502573E+01  0.51100000000E-03 0.  1.
        -12    1    3    3    0    0  0.43532734708E+01 -0.12736600161E+02 -0.13911615072E+02  0.19357298558E+02  0.00000000000E+00 0.  1.
</event>
<event>
 7    1  0.3141443E-011  0.5052893E+02  0.7816164E-02  0.1300439E+00
        -11   -1    0    0    0    0  0.00000000000E+00  0.00000000000E+00  0.45593999997E+02  0.45594000000E+02  0.51100000000E-03 0. -1.
         11   -1    0    0    0    0 -0.00000000000E+00 -0.00000000000E+00 -0.45593999997E+02  0.45594000000E+02  0.51100000000E-03 0.  1.
    9900012    2    1    2    0    0  0.38237557984E+02  0.51894118249E+00 -0.13812317539E+02  0.50528926519E+02  0.30000202647E+02 0.  0.
         12    1    1    2    0    0 -0.38237557984E+02 -0.51894118249E+00  0.13812317539E+02  0.40659073481E+02  0.00000000000E+00 0. -1.
         11    1    3    3    0    0  0.11223732876E+02  0.12677685429E+01 -0.91104220182E+01  0.14511347503E+02  0.51100000000E-03 0. -1.
        -11    1    3    3    0    0  0.13274577151E+02 -0.12043319624E+02 -0.23689593578E+01  0.18079488787E+02  0.51100000000E-03 0.  1.
         12    1    3    3    0    0  0.13739247957E+02  0.11294492264E+02 -0.23329361634E+01  0.17938090229E+02  0.00000000000E+00 0. -1.
</event>
<event>
 7    1  0.3141443E-011  0.5052887E+02  0.7816164E-02  0.1300439E+00
        -11   -1    0    0    0    0  0.00000000000E+00  0.00000000000E+00  0.45593999997E+02  0.45594000000E+02  0.51100000000E-03 0. -1.
         11   -1    0    0    0    0 -0.00000000000E+00 -0.00000000000E+00 -0.45593999997E+02  0.45594000000E+02  0.51100000000E-03 0.  1.
    9900012    2    1    2    0    0  0.17657810649E+02 -0.13760486267E+02  0.33941357705E+02  0.50528867913E+02  0.30000024508E+02 0.  0.
         12    1    1    2    0    0 -0.17657810649E+02  0.13760486267E+02 -0.33941357705E+02  0.40659132087E+02  0.00000000000E+00 0. -1.
         11    1    3    3    0    0  0.81973728258E+01  0.39472772109E+01 -0.91156543452E-01  0.90986937745E+01  0.51100000000E-03 0. -1.
        -11    1    3    3    0    0  0.10561766236E+01 -0.59721889091E+01  0.21540914012E+01  0.64360437733E+01  0.51100000000E-03 0.  1.
         12    1    3    3    0    0  0.84042611992E+01 -0.11735574569E+02  0.31878422847E+02  0.34994130365E+02  0.00000000000E+00 0. -1.
</event>
<event>
 7    1  0.3141443E-011  0.5052886E+02  0.7816164E-02  0.1300439E+00
        -11   -1    0    0    0    0  0.00000000000E+00  0.00000000000E+00  0.45593999997E+02  0.45594000000E+02  0.51100000000E-03 0.  1.
         11   -1    0    0    0    0 -0.00000000000E+00 -0.00000000000E+00 -0.45593999997E+02  0.45594000000E+02  0.51100000000E-03 0. -1.
    9900012    2    1    2    0    0  0.15110941879E+02  0.35383287298E+02 -0.13147176219E+02  0.50528858014E+02  0.29999994420E+02 0.  0.
         12    1    1    2    0    0 -0.15110941879E+02 -0.35383287298E+02  0.13147176219E+02  0.40659141986E+02  0.00000000000E+00 0. -1.
         11    1    3    3    0    0 -0.13498301673E+01  0.99649867454E+01 -0.10790539482E+02  0.14749872708E+02  0.51100000000E-03 0. -1.
        -11    1    3    3    0    0 -0.18852065582E+01  0.27531675726E+01  0.47129783512E+01  0.57746082681E+01  0.51100000000E-03 0.  1.
        -12    1    3    3    0    0  0.18345978605E+02  0.22665132980E+02 -0.70696150887E+01  0.30004377038E+02  0.00000000000E+00 0.  1.
</event>
<event>
 7    1  0.3141443E-011  0.5052887E+02  0.7816164E-02  0.1300439E+00
        -11   -1    0    0    0    0  0.00000000000E+00  0.00000000000E+00  0.45593999997E+02  0.45594000000E+02  0.51100000000E-03 0.  1.
         11   -1    0    0    0    0 -0.00000000000E+00 -0.00000000000E+00 -0.45593999997E+02  0.45594000000E+02  0.51100000000E-03 0. -1.
    9900012    2    1    2    0    0  0.30859496619E+02  0.16490844468E+02  0.20710109286E+02  0.50528866838E+02  0.30000021239E+02 0.  0.
         12    1    1    2    0    0 -0.30859496619E+02 -0.16490844468E+02 -0.20710109286E+02  0.40659133162E+02  0.00000000000E+00 0. -1.
         11    1    3    3    0    0  0.18510102975E+01 -0.48068345809E+01  0.47653527466E+01  0.70171564661E+01  0.51100000000E-03 0. -1.
        -11    1    3    3    0    0  0.52511789331E+01  0.85889752398E+01  0.12950277378E+02  0.16402897923E+02  0.51100000000E-03 0.  1.
         12    1    3    3    0    0  0.23757307389E+02  0.12708703809E+02  0.29944791612E+01  0.27108812448E+02  0.00000000000E+00 0. -1.
</event>
<event>
 7    1  0.3141443E-011  0.5052886E+02  0.7816164E-02  0.1300439E+00
        -11   -1    0    0    0    0  0.00000000000E+00  0.00000000000E+00  0.45593999997E+02  0.45594000000E+02  0.51100000000E-03 0.  1.
         11   -1    0    0    0    0 -0.00000000000E+00 -0.00000000000E+00 -0.45593999997E+02  0.45594000000E+02  0.51100000000E-03 0. -1.
    9900012    2    1    2    0    0 -0.34160849721E+02  0.10672883010E+02  0.19294848653E+02  0.50528864865E+02  0.30000015243E+02 0.  0.
         12    1    1    2    0    0  0.34160849721E+02 -0.10672883010E+02 -0.19294848653E+02  0.40659135135E+02  0.00000000000E+00 0. -1.
         11    1    3    3    0    0 -0.18760933248E+02  0.79877334141E+01 -0.23087101099E+01  0.20520883121E+02  0.51100000000E-03 0. -1.
        -11    1    3    3    0    0 -0.14510234800E+02  0.22354980439E+01  0.86992108777E+01  0.17065187828E+02  0.51100000000E-03 0.  1.
         12    1    3    3    0    0 -0.88968167250E+00  0.44965155200E+00  0.12904347885E+02  0.12942793916E+02  0.00000000000E+00 0. -1.
</event>
<event>
 7    1  0.3141443E-011  0.5052885E+02  0.7816164E-02  0.1300439E+00
        -11   -1    0    0    0    0  0.00000000000E+00  0.00000000000E+00  0.45593999997E+02  0.45594000000E+02  0.51100000000E-03 0. -1.
         11   -1    0    0    0    0 -0.00000000000E+00 -0.00000000000E+00 -0.45593999997E+02  0.45594000000E+02  0.51100000000E-03 0.  1.
    9900012    2    1    2    0    0  0.73303611248E+01  0.39778590788E+02 -0.41347054919E+01  0.50528852581E+02  0.29999977906E+02 0.  0.
         12    1    1    2    0    0 -0.73303611248E+01 -0.39778590788E+02  0.41347054919E+01  0.40659147419E+02  0.00000000000E+00 0. -1.
         11    1    3    3    0    0  0.20951732136E+01  0.11025644040E+02  0.11660317870E+01  0.11283359769E+02  0.51100000000E-03 0. -1.
        -11    1    3    3    0    0 -0.39749842157E+01  0.22574260327E+02 -0.12416327009E+02  0.26068427369E+02  0.51100000000E-03 0.  1.
         12    1    3    3    0    0  0.92101721268E+01  0.61786864209E+01  0.71155897299E+01  0.13177065443E+02  0.00000000000E+00 0. -1.
</event>
<event>
 7    1  0.3141443E-011  0.5052886E+02  0.7816164E-02  0.1300439E+00
        -11   -1    0    0    0    0  0.00000000000E+00  0.00000000000E+00  0.45593999997E+02  0.45594000000E+02  0.51100000000E-03 0. -1.
         11   -1    0    0    0    0 -0.00000000000E+00 -0.00000000000E+00 -0.45593999997E+02  0.45594000000E+02  0.51100000000E-03 0.  1.
    9900012    2    1    2    0    0 -0.21672724317E+02  0.29790448815E+02 -0.17204302597E+02  0.50528857759E+02  0.29999993645E+02 0.  0.
         12    1    1    2    0    0  0.21672724317E+02 -0.29790448815E+02  0.17204302597E+02  0.40659142241E+02  0.00000000000E+00 0. -1.
         11    1    3    3    0    0  0.71275457819E+00  0.40407938463E+01 -0.20526451461E+01  0.45879610236E+01  0.51100000000E-03 0. -1.
        -11    1    3    3    0    0 -0.19988789850E+02  0.14841443918E+02 -0.21672813363E+02  0.33008044725E+02  0.51100000000E-03 0.  1.
         12    1    3    3    0    0 -0.23966890451E+01  0.10908211050E+02  0.65211559123E+01  0.12932852010E+02  0.00000000000E+00 0. -1.
</event>
<event>
 7    1  0.3141443E-011  0.5052875E+02  0.7816164E-02  0.1300439E+00
        -11   -1    0    0    0    0  0.00000000000E+00  0.00000000000E+00  0.45593999997E+02  0.45594000000E+02  0.51100000000E-03 0.  1.
         11   -1    0    0    0    0 -0.00000000000E+00 -0.00000000000E+00 -0.45593999997E+02  0.45594000000E+02  0.51100000000E-03 0. -1.
    9900012    2    1    2    0    0 -0.10293656957E+02 -0.38062851099E+02  0.99214350292E+01  0.50528746682E+02  0.29999656014E+02 0.  0.
         12    1    1    2    0    0  0.10293656957E+02  0.38062851099E+02 -0.99214350292E+01  0.40659253318E+02  0.00000000000E+00 0. -1.
         11    1    3    3    0    0  0.48271274575E+01 -0.10774748134E+02 -0.25422976268E+01  0.12077236204E+02  0.51100000000E-03 0. -1.
        -11    1    3    3    0    0 -0.11244527539E+01  0.28836007344E+01  0.70750342962E+00  0.31749186691E+01  0.51100000000E-03 0.  1.
        -12    1    3    3    0    0 -0.13996331660E+02 -0.30171703699E+02  0.11756229226E+02  0.35276591809E+02  0.00000000000E+00 0.  1.
</event>
<event>
 7    1  0.3141443E-011  0.5052886E+02  0.7816164E-02  0.1300439E+00
        -11   -1    0    0    0    0  0.00000000000E+00  0.00000000000E+00  0.45593999997E+02  0.45594000000E+02  0.51100000000E-03 0. -1.
         11   -1    0    0    0    0 -0.00000000000E+00 -0.00000000000E+00 -0.45593999997E+02  0.45594000000E+02  0.51100000000E-03 0.  1.
    9900012    2    1    2    0    0  0.37145577344E+02  0.42594258851E+01 -0.15975890743E+02  0.50528859452E+02  0.29999998789E+02 0.  0.
         12    1    1    2    0    0 -0.37145577344E+02 -0.42594258851E+01  0.15975890743E+02  0.40659140548E+02  0.00000000000E+00 0. -1.
         11    1    3    3    0    0 -0.10980625861E+01 -0.33728517764E+01 -0.24835156403E+01  0.43300947732E+01  0.51100000000E-03 0. -1.
        -11    1    3    3    0    0  0.32203201022E+02  0.12899195145E+02 -0.59569351062E+01  0.35198302055E+02  0.51100000000E-03 0.  1.
         12    1    3    3    0    0  0.60404389085E+01 -0.52669174838E+01 -0.75354399963E+01  0.11000462623E+02  0.00000000000E+00 0. -1.
</event>
<event>
 7    1  0.3141443E-011  0.5052886E+02  0.7816164E-02  0.1300439E+00
        -11   -1    0    0    0    0  0.00000000000E+00  0.00000000000E+00  0.45593999997E+02  0.45594000000E+02  0.51100000000E-03 0.  1.
         11   -1    0    0    0    0 -0.00000000000E+00 -0.00000000000E+00 -0.45593999997E+02  0.45594000000E+02  0.51100000000E-03 0. -1.
    9900012    2    1    2    0    0 -0.34755967703E+02 -0.76493753270E+01  0.19664066613E+02  0.50528858966E+02  0.29999997314E+02 0.  0.
         12    1    1    2    0    0  0.34755967703E+02  0.76493753270E+01 -0.19664066613E+02  0.40659141034E+02  0.00000000000E+00 0. -1.
         11    1    3    3    0    0 -0.14396815633E+02 -0.97701439329E+01  0.91668159711E+01  0.19666075565E+02  0.51100000000E-03 0.  1.
        -11    1    3    3    0    0 -0.21470003084E+02  0.14747312049E+01  0.14966012764E+02  0.26212924348E+02  0.51100000000E-03 0. -1.
         12    1    3    3    0    0  0.11108510142E+01  0.64603740096E+00 -0.44687621227E+01  0.46498590526E+01  0.00000000000E+00 0. -1.
</event>
<event>
 7    1  0.3141443E-011  0.5052886E+02  0.7816164E-02  0.1300439E+00
        -11   -1    0    0    0    0  0.00000000000E+00  0.00000000000E+00  0.45593999997E+02  0.45594000000E+02  0.51100000000E-03 0.  1.
         11   -1    0    0    0    0 -0.00000000000E+00 -0.00000000000E+00 -0.45593999997E+02  0.45594000000E+02  0.51100000000E-03 0. -1.
    9900012    2    1    2    0    0 -0.11819625687E+02  0.17992951316E+02  0.34492256260E+02  0.50528860925E+02  0.30000003267E+02 0.  0.
         12    1    1    2    0    0  0.11819625687E+02 -0.17992951316E+02 -0.34492256260E+02  0.40659139075E+02  0.00000000000E+00 0. -1.
         11    1    3    3    0    0 -0.15528363451E+01  0.14699456643E+02  0.10774214013E+02  0.18291227794E+02  0.51100000000E-03 0. -1.
        -11    1    3    3    0    0 -0.50712891660E+01  0.27885405342E+01 -0.19014575129E+01  0.60917545134E+01  0.51100000000E-03 0.  1.
         12    1    3    3    0    0 -0.51955001761E+01  0.50495413813E+00  0.25619499760E+02  0.26145878618E+02  0.00000000000E+00 0. -1.
</event>
<event>
 7    1  0.3141443E-011  0.5052886E+02  0.7816164E-02  0.1300439E+00
        -11   -1    0    0    0    0  0.00000000000E+00  0.00000000000E+00  0.45593999997E+02  0.45594000000E+02  0.51100000000E-03 0.  1.
         11   -1    0    0    0    0 -0.00000000000E+00 -0.00000000000E+00 -0.45593999997E+02  0.45594000000E+02  0.51100000000E-03 0. -1.
    9900012    2    1    2    0    0  0.23228798380E+02  0.92612135644E+01  0.32059609416E+02  0.50528859493E+02  0.29999998915E+02 0.  0.
         12    1    1    2    0    0 -0.23228798380E+02 -0.92612135644E+01 -0.32059609416E+02  0.40659140507E+02  0.00000000000E+00 0. -1.
         11    1    3    3    0    0  0.25798214322E+01 -0.46583413509E+01  0.84121108093E+01  0.99558641660E+01  0.51100000000E-03 0. -1.
        -11    1    3    3    0    0  0.19427844008E+02  0.27827205328E+01  0.21598556357E+02  0.29183596306E+02  0.51100000000E-03 0.  1.
         12    1    3    3    0    0  0.12211329405E+01  0.11136834383E+02  0.20489422491E+01  0.11389399021E+02  0.00000000000E+00 0. -1.
</event>
<event>
 7    1  0.3141443E-011  0.5052887E+02  0.7816164E-02  0.1300439E+00
        -11   -1    0    0    0    0  0.00000000000E+00  0.00000000000E+00  0.45593999997E+02  0.45594000000E+02  0.51100000000E-03 0.  1.
         11   -1    0    0    0    0 -0.00000000000E+00 -0.00000000000E+00 -0.45593999997E+02  0.45594000000E+02  0.51100000000E-03 0. -1.
    9900012    2    1    2    0    0 -0.15697555802E+02 -0.47114977573E+01  0.37209586324E+02  0.50528870845E+02  0.30000033420E+02 0.  0.
         12    1    1    2    0    0  0.15697555802E+02  0.47114977573E+01 -0.37209586324E+02  0.40659129155E+02  0.00000000000E+00 0. -1.
         11    1    3    3    0    0 -0.18600683549E+01 -0.78150850641E+00 -0.33649199722E+01  0.39234291776E+01  0.51100000000E-03 0. -1.
        -11    1    3    3    0    0  0.41803583617E+00  0.23554476188E+01  0.22981369317E+02  0.23105545295E+02  0.51100000000E-03 0.  1.
         12    1    3    3    0    0 -0.14255523284E+02 -0.62854368696E+01  0.17593136979E+02  0.23499896372E+02  0.00000000000E+00 0. -1.
</event>
<event>
 7    1  0.3141443E-011  0.5052886E+02  0.7816164E-02  0.1300439E+00
        -11   -1    0    0    0    0  0.00000000000E+00  0.00000000000E+00  0.45593999997E+02  0.45594000000E+02  0.51100000000E-03 0.  1.
         11   -1    0    0    0    0 -0.00000000000E+00 -0.00000000000E+00 -0.45593999997E+02  0.45594000000E+02  0.51100000000E-03 0. -1.
    9900012    2    1    2    0    0 -0.36503587838E+02 -0.25439493916E+01  0.17725183449E+02  0.50528859185E+02  0.29999997977E+02 0.  0.
         12    1    1    2    0    0  0.36503587838E+02  0.25439493916E+01 -0.17725183449E+02  0.40659140815E+02  0.00000000000E+00 0. -1.
         11    1    3    3    0    0 -0.17714496186E+02 -0.71134132718E+01  0.12068230079E+02  0.22584202466E+02  0.51100000000E-03 0. -1.
        -11    1    3    3    0    0 -0.22113683605E+02  0.26785058377E+01  0.77496013641E+01  0.23584862044E+02  0.51100000000E-03 0.  1.
         12    1    3    3    0    0  0.33245919530E+01  0.18909580425E+01 -0.20926479945E+01  0.43597946742E+01  0.00000000000E+00 0. -1.
</event>
<event>
 7    1  0.3141443E-011  0.5052886E+02  0.7816164E-02  0.1300439E+00
        -11   -1    0    0    0    0  0.00000000000E+00  0.00000000000E+00  0.45593999997E+02  0.45594000000E+02  0.51100000000E-03 0.  1.
         11   -1    0    0    0    0 -0.00000000000E+00 -0.00000000000E+00 -0.45593999997E+02  0.45594000000E+02  0.51100000000E-03 0. -1.
    9900012    2    1    2    0    0  0.14597116587E+01  0.25011849429E+02  0.32022530636E+02  0.50528857875E+02  0.29999993997E+02 0.  0.
         12    1    1    2    0    0 -0.14597116587E+01 -0.25011849429E+02 -0.32022530636E+02  0.40659142125E+02  0.00000000000E+00 0. -1.
         11    1    3    3    0    0 -0.90795529668E+01  0.37840023987E+01  0.31255850641E+01  0.10321154901E+02  0.51100000000E-03 0. -1.
        -11    1    3    3    0    0  0.53026361767E+01  0.54758728750E+01  0.19936615691E+02  0.21344127521E+02  0.51100000000E-03 0.  1.
         12    1    3    3    0    0  0.52366284488E+01  0.15751974156E+02  0.89603298813E+01  0.18863575454E+02  0.00000000000E+00 0. -1.
</event>
<event>
 7    1  0.3141443E-011  0.5052886E+02  0.7816164E-02  0.1300439E+00
        -11   -1    0    0    0    0  0.00000000000E+00  0.00000000000E+00  0.45593999997E+02  0.45594000000E+02  0.51100000000E-03 0.  1.
         11   -1    0    0    0    0 -0.00000000000E+00 -0.00000000000E+00 -0.45593999997E+02  0.45594000000E+02  0.51100000000E-03 0. -1.
    9900012    2    1    2    0    0  0.16899010576E+02  0.34320061455E+02  0.13773970207E+02  0.50528862872E+02  0.30000009184E+02 0.  0.
         12    1    1    2    0    0 -0.16899010576E+02 -0.34320061455E+02 -0.13773970207E+02  0.40659137128E+02  0.00000000000E+00 0. -1.
         11    1    3    3    0    0 -0.17068731703E+01  0.32114522195E+01 -0.48267672937E+01  0.60435522788E+01  0.51100000000E-03 0. -1.
        -11    1    3    3    0    0  0.65913639271E+01 -0.34475366687E+00  0.17204593568E+01  0.68209173995E+01  0.51100000000E-03 0.  1.
        -12    1    3    3    0    0  0.12014519819E+02  0.31453362903E+02  0.16880278144E+02  0.37664393193E+02  0.00000000000E+00 0.  1.
</event>
<event>
 7    1  0.3141443E-011  0.5052886E+02  0.7816164E-02  0.1300439E+00
        -11   -1    0    0    0    0  0.00000000000E+00  0.00000000000E+00  0.45593999997E+02  0.45594000000E+02  0.51100000000E-03 0. -1.
         11   -1    0    0    0    0 -0.00000000000E+00 -0.00000000000E+00 -0.45593999997E+02  0.45594000000E+02  0.51100000000E-03 0.  1.
    9900012    2    1    2    0    0 -0.31242198567E+02  0.14028578833E+02 -0.21915509869E+02  0.50528861197E+02  0.30000004095E+02 0.  0.
         12    1    1    2    0    0  0.31242198567E+02 -0.14028578833E+02  0.21915509869E+02  0.40659138803E+02  0.00000000000E+00 0. -1.
         11    1    3    3    0    0  0.35461132492E+01  0.24905307287E+01 -0.46199971397E+01  0.63341957910E+01  0.51100000000E-03 0. -1.
        -11    1    3    3    0    0 -0.11114970703E+02  0.11733572964E+02 -0.11457101435E+02  0.19811221108E+02  0.51100000000E-03 0.  1.
        -12    1    3    3    0    0 -0.23673341113E+02 -0.19552485945E+00 -0.58384112942E+01  0.24383444298E+02  0.00000000000E+00 0.  1.
</event>
<event>
 7    1  0.3141443E-011  0.5052886E+02  0.7816164E-02  0.1300439E+00
        -11   -1    0    0    0    0  0.00000000000E+00  0.00000000000E+00  0.45593999997E+02  0.45594000000E+02  0.51100000000E-03 0.  1.
         11   -1    0    0    0    0 -0.00000000000E+00 -0.00000000000E+00 -0.45593999997E+02  0.45594000000E+02  0.51100000000E-03 0. -1.
    9900012    2    1    2    0    0  0.18318925219E+00  0.30726554701E+02  0.26627261775E+02  0.50528858449E+02  0.29999995740E+02 0.  0.
         12    1    1    2    0    0 -0.18318925219E+00 -0.30726554701E+02 -0.26627261775E+02  0.40659141551E+02  0.00000000000E+00 0. -1.
         11    1    3    3    0    0  0.67071427664E+01  0.37169034424E+01  0.10813043777E+02  0.13256057154E+02  0.51100000000E-03 0. -1.
        -11    1    3    3    0    0 -0.14750332487E+00  0.12592202393E+02 -0.27789202658E+01  0.12896034911E+02  0.51100000000E-03 0.  1.
        -12    1    3    3    0    0 -0.63764501893E+01  0.14417448866E+02  0.18593138263E+02  0.24376766383E+02  0.00000000000E+00 0.  1.
</event>
<event>
 7    1  0.3141443E-011  0.5052884E+02  0.7816164E-02  0.1300439E+00
        -11   -1    0    0    0    0  0.00000000000E+00  0.00000000000E+00  0.45593999997E+02  0.45594000000E+02  0.51100000000E-03 0.  1.
         11   -1    0    0    0    0 -0.00000000000E+00 -0.00000000000E+00 -0.45593999997E+02  0.45594000000E+02  0.51100000000E-03 0. -1.
    9900012    2    1    2    0    0 -0.36227007955E+02  0.12347624876E+02  0.13722514629E+02  0.50528839246E+02  0.29999937373E+02 0.  0.
         12    1    1    2    0    0  0.36227007955E+02 -0.12347624876E+02 -0.13722514629E+02  0.40659160754E+02  0.00000000000E+00 0. -1.
         11    1    3    3    0    0  0.46016058358E+00 -0.53883064064E+00  0.36492943777E+00  0.79703198031E+00  0.51100000000E-03 0. -1.
        -11    1    3    3    0    0 -0.33720504385E+02  0.18129505882E+02  0.38524919527E+01  0.38478475724E+02  0.51100000000E-03 0.  1.
        -12    1    3    3    0    0 -0.29666641538E+01 -0.52430503653E+01  0.95050932381E+01  0.11253331542E+02  0.00000000000E+00 0.  1.
</event>
<event>
 7    1  0.3141443E-011  0.5052884E+02  0.7816164E-02  0.1300439E+00
        -11   -1    0    0    0    0  0.00000000000E+00  0.00000000000E+00  0.45593999997E+02  0.45594000000E+02  0.51100000000E-03 0. -1.
         11   -1    0    0    0    0 -0.00000000000E+00 -0.00000000000E+00 -0.45593999997E+02  0.45594000000E+02  0.51100000000E-03 0.  1.
    9900012    2    1    2    0    0  0.71606181526E+01 -0.74878845697E+01 -0.39316970050E+02  0.50528843570E+02  0.29999950515E+02 0.  0.
         12    1    1    2    0    0 -0.71606181526E+01  0.74878845697E+01  0.39316970050E+02  0.40659156430E+02  0.00000000000E+00 0. -1.
         11    1    3    3    0    0 -0.34569937250E+01  0.38638212086E+01  0.26799165806E+00  0.51915064997E+01  0.51100000000E-03 0. -1.
        -11    1    3    3    0    0  0.94873060241E+01 -0.20009276674E+01 -0.86273497617E+01  0.12978592038E+02  0.51100000000E-03 0.  1.
         12    1    3    3    0    0  0.11303058535E+01 -0.93507781109E+01 -0.30957611947E+02  0.32358745032E+02  0.00000000000E+00 0. -1.
</event>
<event>
 7    1  0.3141443E-011  0.5052886E+02  0.7816164E-02  0.1300439E+00
        -11   -1    0    0    0    0  0.00000000000E+00  0.00000000000E+00  0.45593999997E+02  0.45594000000E+02  0.51100000000E-03 0. -1.
         11   -1    0    0    0    0 -0.00000000000E+00 -0.00000000000E+00 -0.45593999997E+02  0.45594000000E+02  0.51100000000E-03 0.  1.
    9900012    2    1    2    0    0 -0.39861888950E+02  0.43664428160E+01 -0.67178312142E+01  0.50528864867E+02  0.30000015249E+02 0.  0.
         12    1    1    2    0    0  0.39861888950E+02 -0.43664428160E+01  0.67178312142E+01  0.40659135133E+02  0.00000000000E+00 0. -1.
         11    1    3    3    0    0 -0.35195073649E+02  0.20074710418E+01  0.29396138052E+01  0.35374630439E+02  0.51100000000E-03 0. -1.
        -11    1    3    3    0    0 -0.73592701974E+01 -0.43013254723E+00 -0.42771219545E+01  0.85227721031E+01  0.51100000000E-03 0.  1.
         12    1    3    3    0    0  0.26924548955E+01  0.27891043214E+01 -0.53803230649E+01  0.66314623246E+01  0.00000000000E+00 0. -1.
</event>
<event>
 7    1  0.3141443E-011  0.5052886E+02  0.7816164E-02  0.1300439E+00
        -11   -1    0    0    0    0  0.00000000000E+00  0.00000000000E+00  0.45593999997E+02  0.45594000000E+02  0.51100000000E-03 0.  1.
         11   -1    0    0    0    0 -0.00000000000E+00 -0.00000000000E+00 -0.45593999997E+02  0.45594000000E+02  0.51100000000E-03 0. -1.
    9900012    2    1    2    0    0 -0.14709853600E+02  0.20612871567E+02  0.31810306943E+02  0.50528857179E+02  0.29999991880E+02 0.  0.
         12    1    1    2    0    0  0.14709853600E+02 -0.20612871567E+02 -0.31810306943E+02  0.40659142821E+02  0.00000000000E+00 0. -1.
         11    1    3    3    0    0 -0.10543410477E+02 -0.16186207224E+01  0.18316687091E+02  0.21196331376E+02  0.51100000000E-03 0. -1.
        -11    1    3    3    0    0 -0.31531249326E+01  0.81073959048E+01  0.12376968835E+02  0.15128166545E+02  0.51100000000E-03 0.  1.
         12    1    3    3    0    0 -0.10133181900E+01  0.14124096385E+02  0.11166510166E+01  0.14204359258E+02  0.00000000000E+00 0. -1.
</event>
<event>
 7    1  0.3141443E-011  0.5052887E+02  0.7816164E-02  0.1300439E+00
        -11   -1    0    0    0    0  0.00000000000E+00  0.00000000000E+00  0.45593999997E+02  0.45594000000E+02  0.51100000000E-03 0. -1.
         11   -1    0    0    0    0 -0.00000000000E+00 -0.00000000000E+00 -0.45593999997E+02  0.45594000000E+02  0.51100000000E-03 0.  1.
    9900012    2    1    2    0    0  0.48168365981E+01  0.39546707341E+02 -0.81253221092E+01  0.50528870205E+02  0.30000031475E+02 0.  0.
         12    1    1    2    0    0 -0.48168365981E+01 -0.39546707341E+02  0.81253221092E+01  0.40659129795E+02  0.00000000000E+00 0. -1.
         11    1    3    3    0    0  0.81385158711E+01  0.12474075272E+02 -0.11721819626E+01  0.14940281299E+02  0.51100000000E-03 0. -1.
        -11    1    3    3    0    0  0.16493822867E+01  0.19482224286E+02 -0.14044062678E+02  0.24073080855E+02  0.51100000000E-03 0.  1.
         12    1    3    3    0    0 -0.49710615597E+01  0.75904077823E+01  0.70909225314E+01  0.11515508051E+02  0.00000000000E+00 0. -1.
</event>
<event>
 7    1  0.3141443E-011  0.5052887E+02  0.7816164E-02  0.1300439E+00
        -11   -1    0    0    0    0  0.00000000000E+00  0.00000000000E+00  0.45593999997E+02  0.45594000000E+02  0.51100000000E-03 0. -1.
         11   -1    0    0    0    0 -0.00000000000E+00 -0.00000000000E+00 -0.45593999997E+02  0.45594000000E+02  0.51100000000E-03 0.  1.
    9900012    2    1    2    0    0 -0.21589418049E+01  0.11805885331E+02 -0.38847460151E+02  0.50528866729E+02  0.30000020909E+02 0.  0.
         12    1    1    2    0    0  0.21589418049E+01 -0.11805885331E+02  0.38847460151E+02  0.40659133271E+02  0.00000000000E+00 0. -1.
         11    1    3    3    0    0 -0.71099141890E+01 -0.27913934399E+01 -0.15565516853E+01  0.77952299852E+01  0.51100000000E-03 0. -1.
        -11    1    3    3    0    0 -0.41084165406E+01  0.59368721611E+01 -0.74830541612E+01  0.10398155479E+02  0.51100000000E-03 0.  1.
         12    1    3    3    0    0  0.90593889247E+01  0.86604066093E+01 -0.29807854305E+02  0.32335481264E+02  0.00000000000E+00 0. -1.
</event>
<event>
 7    1  0.3512455E-011  0.5052887E+02  0.7816164E-02  0.1300439E+00
        -11   -1    0    0    0    0  0.00000000000E+00  0.00000000000E+00  0.45593999997E+02  0.45594000000E+02  0.51100000000E-03 0.  1.
         11   -1    0    0    0    0 -0.00000000000E+00 -0.00000000000E+00 -0.45593999997E+02  0.45594000000E+02  0.51100000000E-03 0. -1.
    9900012    2    1    2    0    0  0.30404875124E+02  0.25270427137E+02  0.94928369607E+01  0.50528869752E+02  0.30000030097E+02 0.  0.
         12    1    1    2    0    0 -0.30404875124E+02 -0.25270427137E+02 -0.94928369607E+01  0.40659130248E+02  0.00000000000E+00 0. -1.
         11    1    3    3    0    0 -0.22937949286E+01 -0.18698186481E+00 -0.32759099066E+01  0.40035038865E+01  0.51100000000E-03 0. -1.
        -11    1    3    3    0    0  0.77707252700E+01  0.10631876915E+02  0.11517492981E+02  0.17494959926E+02  0.51100000000E-03 0.  1.
        -12    1    3    3    0    0  0.24927944783E+02  0.14825532086E+02  0.12512538859E+01  0.29030405940E+02  0.00000000000E+00 0.  1.
</event>
<event>
 7    1  0.3141443E-011  0.5052887E+02  0.7816164E-02  0.1300439E+00
        -11   -1    0    0    0    0  0.00000000000E+00  0.00000000000E+00  0.45593999997E+02  0.45594000000E+02  0.51100000000E-03 0. -1.
         11   -1    0    0    0    0 -0.00000000000E+00 -0.00000000000E+00 -0.45593999997E+02  0.45594000000E+02  0.51100000000E-03 0.  1.
    9900012    2    1    2    0    0  0.52226221478E+01  0.32245355376E+02 -0.24210037737E+02  0.50528872456E+02  0.30000038316E+02 0.  0.
         12    1    1    2    0    0 -0.52226221478E+01 -0.32245355376E+02  0.24210037737E+02  0.40659127544E+02  0.00000000000E+00 0. -1.
         11    1    3    3    0    0  0.18636493607E+01  0.10762313928E+02  0.10082320325E+01  0.10968916178E+02  0.51100000000E-03 0. -1.
        -11    1    3    3    0    0  0.70765268022E+01  0.24615206212E+02 -0.20889685170E+02  0.33050938795E+02  0.51100000000E-03 0.  1.
        -12    1    3    3    0    0 -0.37175540151E+01 -0.31321647639E+01 -0.43285845996E+01  0.65090174834E+01  0.00000000000E+00 0.  1.
</event>
<event>
 7    1  0.3141443E-011  0.5052887E+02  0.7816164E-02  0.1300439E+00
        -11   -1    0    0    0    0  0.00000000000E+00  0.00000000000E+00  0.45593999997E+02  0.45594000000E+02  0.51100000000E-03 0. -1.
         11   -1    0    0    0    0 -0.00000000000E+00 -0.00000000000E+00 -0.45593999997E+02  0.45594000000E+02  0.51100000000E-03 0.  1.
    9900012    2    1    2    0    0 -0.16765617245E+02  0.37024622755E+02 -0.11208890084E+01  0.50528868136E+02  0.30000025186E+02 0.  0.
         12    1    1    2    0    0  0.16765617245E+02 -0.37024622755E+02  0.11208890084E+01  0.40659131864E+02  0.00000000000E+00 0. -1.
         11    1    3    3    0    0 -0.13462031073E+02  0.20379159082E+02 -0.41712058004E+01  0.24777719096E+02  0.51100000000E-03 0.  1.
        -11    1    3    3    0    0  0.45424674686E+01  0.35894720220E+01  0.78740833778E+01  0.97734082797E+01  0.51100000000E-03 0. -1.
         12    1    3    3    0    0 -0.78460536401E+01  0.13055991651E+02 -0.48237665859E+01  0.15977740760E+02  0.00000000000E+00 0. -1.
</event>
<event>
 7    1  0.3141443E-011  0.5052884E+02  0.7816164E-02  0.1300439E+00
        -11   -1    0    0    0    0  0.00000000000E+00  0.00000000000E+00  0.45593999997E+02  0.45594000000E+02  0.51100000000E-03 0.  1.
         11   -1    0    0    0    0 -0.00000000000E+00 -0.00000000000E+00 -0.45593999997E+02  0.45594000000E+02  0.51100000000E-03 0. -1.
    9900012    2    1    2    0    0 -0.37571595569E+02  0.47406152948E+01 -0.14800975062E+02  0.50528842486E+02  0.29999947220E+02 0.  0.
         12    1    1    2    0    0  0.37571595569E+02 -0.47406152948E+01  0.14800975062E+02  0.40659157514E+02  0.00000000000E+00 0. -1.
         11    1    3    3    0    0 -0.18939430883E+02 -0.44729165449E+00 -0.10268116385E+02  0.21548464594E+02  0.51100000000E-03 0.  1.
        -11    1    3    3    0    0 -0.31812912183E+00 -0.63630723784E+01 -0.35777581442E+01  0.73068632004E+01  0.51100000000E-03 0. -1.
         12    1    3    3    0    0 -0.18314035564E+02  0.11550979328E+02 -0.95510053301E+00  0.21673514692E+02  0.00000000000E+00 0. -1.
</event>
<event>
 7    1  0.3141443E-011  0.5052887E+02  0.7816164E-02  0.1300439E+00
        -11   -1    0    0    0    0  0.00000000000E+00  0.00000000000E+00  0.45593999997E+02  0.45594000000E+02  0.51100000000E-03 0.  1.
         11   -1    0    0    0    0 -0.00000000000E+00 -0.00000000000E+00 -0.45593999997E+02  0.45594000000E+02  0.51100000000E-03 0. -1.
    9900012    2    1    2    0    0  0.11852400207E+02 -0.11170602968E+02  0.37254573234E+02  0.50528868330E+02  0.30000025774E+02 0.  0.
         12    1    1    2    0    0 -0.11852400207E+02  0.11170602968E+02 -0.37254573234E+02  0.40659131670E+02  0.00000000000E+00 0. -1.
         11    1    3    3    0    0  0.15342250935E+01  0.47928014371E+01  0.16231676711E+01  0.52876711133E+01  0.51100000000E-03 0. -1.
        -11    1    3    3    0    0  0.49553361142E+01 -0.13122401651E+02  0.64559931174E+01  0.15441263824E+02  0.51100000000E-03 0.  1.
         12    1    3    3    0    0  0.53628389995E+01 -0.28410027536E+01  0.29175412446E+02  0.29799933392E+02  0.00000000000E+00 0. -1.
</event>
<event>
 7    1  0.3141443E-011  0.5052884E+02  0.7816164E-02  0.1300439E+00
        -11   -1    0    0    0    0  0.00000000000E+00  0.00000000000E+00  0.45593999997E+02  0.45594000000E+02  0.51100000000E-03 0.  1.
         11   -1    0    0    0    0 -0.00000000000E+00 -0.00000000000E+00 -0.45593999997E+02  0.45594000000E+02  0.51100000000E-03 0. -1.
    9900012    2    1    2    0    0 -0.27835964616E+02 -0.13816938325E+02  0.26218672012E+02  0.50528837775E+02  0.29999932900E+02 0.  0.
         12    1    1    2    0    0  0.27835964616E+02  0.13816938325E+02 -0.26218672012E+02  0.40659162225E+02  0.00000000000E+00 0. -1.
         11    1    3    3    0    0 -0.73360952074E+01  0.22307120838E+01  0.23429648649E+01  0.80177212418E+01  0.51100000000E-03 0.  1.
        -11    1    3    3    0    0 -0.12582487722E+02 -0.21842468759E+02  0.15352643726E+02  0.29514676152E+02  0.51100000000E-03 0. -1.
         12    1    3    3    0    0 -0.79173816864E+01  0.57948183496E+01  0.85230634216E+01  0.12996440380E+02  0.00000000000E+00 0. -1.
</event>
<event>
 7    1  0.3141443E-011  0.5052886E+02  0.7816164E-02  0.1300439E+00
        -11   -1    0    0    0    0  0.00000000000E+00  0.00000000000E+00  0.45593999997E+02  0.45594000000E+02  0.51100000000E-03 0.  1.
         11   -1    0    0    0    0 -0.00000000000E+00 -0.00000000000E+00 -0.45593999997E+02  0.45594000000E+02  0.51100000000E-03 0. -1.
    9900012    2    1    2    0    0  0.15594314633E+02 -0.37368089193E+02  0.36890333601E+01  0.50528859503E+02  0.29999998946E+02 0.  0.
         12    1    1    2    0    0 -0.15594314633E+02  0.37368089193E+02 -0.36890333601E+01  0.40659140497E+02  0.00000000000E+00 0. -1.
         11    1    3    3    0    0  0.17545918516E+01  0.10817700393E+01 -0.58878565631E+01  0.62382428738E+01  0.51100000000E-03 0. -1.
        -11    1    3    3    0    0  0.51049834278E+01 -0.11078765181E+02 -0.35477186725E+01  0.12703786907E+02  0.51100000000E-03 0.  1.
        -12    1    3    3    0    0  0.87347393536E+01 -0.27371094051E+02  0.13124608596E+02  0.31586829722E+02  0.00000000000E+00 0.  1.
</event>
<event>
 7    1  0.3141443E-011  0.5052885E+02  0.7816164E-02  0.1300439E+00
        -11   -1    0    0    0    0  0.00000000000E+00  0.00000000000E+00  0.45593999997E+02  0.45594000000E+02  0.51100000000E-03 0.  1.
         11   -1    0    0    0    0 -0.00000000000E+00 -0.00000000000E+00 -0.45593999997E+02  0.45594000000E+02  0.51100000000E-03 0. -1.
    9900012    2    1    2    0    0  0.16010558362E+02 -0.37258038926E+02  0.29440283461E+01  0.50528846706E+02  0.29999960048E+02 0.  0.
         12    1    1    2    0    0 -0.16010558362E+02  0.37258038926E+02 -0.29440283461E+01  0.40659153294E+02  0.00000000000E+00 0. -1.
         11    1    3    3    0    0  0.41689437566E+01 -0.50609035089E+00 -0.52196543798E+01  0.66993291900E+01  0.51100000000E-03 0. -1.
        -11    1    3    3    0    0  0.10524011684E+02 -0.10394994275E+02  0.91990704105E+01  0.17419346273E+02  0.51100000000E-03 0.  1.
         12    1    3    3    0    0  0.13176029213E+01 -0.26356954300E+02 -0.10353876845E+01  0.26410171243E+02  0.00000000000E+00 0. -1.
</event>
<event>
 7    1  0.3141443E-011  0.5052886E+02  0.7816164E-02  0.1300439E+00
        -11   -1    0    0    0    0  0.00000000000E+00  0.00000000000E+00  0.45593999997E+02  0.45594000000E+02  0.51100000000E-03 0.  1.
         11   -1    0    0    0    0 -0.00000000000E+00 -0.00000000000E+00 -0.45593999997E+02  0.45594000000E+02  0.51100000000E-03 0. -1.
    9900012    2    1    2    0    0 -0.21591195130E+02  0.17807780528E+02  0.29493545969E+02  0.50528855785E+02  0.29999987644E+02 0.  0.
         12    1    1    2    0    0  0.21591195130E+02 -0.17807780528E+02 -0.29493545969E+02  0.40659144215E+02  0.00000000000E+00 0. -1.
         11    1    3    3    0    0  0.34113206300E+01 -0.77398162503E+00 -0.29001984543E+01  0.45439308239E+01  0.51100000000E-03 0. -1.
        -11    1    3    3    0    0 -0.12939236376E+02  0.39396136478E+01  0.15612364874E+02  0.20656483992E+02  0.51100000000E-03 0.  1.
        -12    1    3    3    0    0 -0.12063279384E+02  0.14642148506E+02  0.16781379549E+02  0.25328440969E+02  0.00000000000E+00 0.  1.
</event>
<event>
 7    1  0.3141443E-011  0.5052885E+02  0.7816164E-02  0.1300439E+00
        -11   -1    0    0    0    0  0.00000000000E+00  0.00000000000E+00  0.45593999997E+02  0.45594000000E+02  0.51100000000E-03 0.  1.
         11   -1    0    0    0    0 -0.00000000000E+00 -0.00000000000E+00 -0.45593999997E+02  0.45594000000E+02  0.51100000000E-03 0. -1.
    9900012    2    1    2    0    0 -0.19507441365E+02 -0.53784743118E+01  0.35266101584E+02  0.50528853729E+02  0.29999981396E+02 0.  0.
         12    1    1    2    0    0  0.19507441365E+02  0.53784743118E+01 -0.35266101584E+02  0.40659146271E+02  0.00000000000E+00 0. -1.
         11    1    3    3    0    0 -0.11441733588E+02  0.24467122953E+01  0.33346382740E+01  0.12166325708E+02  0.51100000000E-03 0. -1.
        -11    1    3    3    0    0  0.30390330541E+01  0.35551377707E+01  0.11908789816E+02  0.12794295667E+02  0.51100000000E-03 0.  1.
         12    1    3    3    0    0 -0.11104740831E+02 -0.11380324378E+02  0.20022673494E+02  0.25568232354E+02  0.00000000000E+00 0. -1.
</event>
<event>
 7    1  0.3141443E-011  0.5052885E+02  0.7816164E-02  0.1300439E+00
        -11   -1    0    0    0    0  0.00000000000E+00  0.00000000000E+00  0.45593999997E+02  0.45594000000E+02  0.51100000000E-03 0. -1.
         11   -1    0    0    0    0 -0.00000000000E+00 -0.00000000000E+00 -0.45593999997E+02  0.45594000000E+02  0.51100000000E-03 0.  1.
    9900012    2    1    2    0    0  0.30447104863E+02 -0.24058576206E+02 -0.12137756931E+02  0.50528850637E+02  0.29999971995E+02 0.  0.
         12    1    1    2    0    0 -0.30447104863E+02  0.24058576206E+02  0.12137756931E+02  0.40659149363E+02  0.00000000000E+00 0. -1.
         11    1    3    3    0    0  0.20136845880E+02 -0.11142024690E+02  0.20252036687E+01  0.23102786116E+02  0.51100000000E-03 0. -1.
        -11    1    3    3    0    0  0.11112209790E+02 -0.16307829666E+02 -0.10435067301E+02  0.22323018269E+02  0.51100000000E-03 0.  1.
         12    1    3    3    0    0 -0.80195080615E+00  0.33912781498E+01 -0.37278932994E+01  0.51030462507E+01  0.00000000000E+00 0. -1.
</event>
<event>
 7    1  0.3141443E-011  0.5052888E+02  0.7816164E-02  0.1300439E+00
        -11   -1    0    0    0    0  0.00000000000E+00  0.00000000000E+00  0.45593999997E+02  0.45594000000E+02  0.51100000000E-03 0. -1.
         11   -1    0    0    0    0 -0.00000000000E+00 -0.00000000000E+00 -0.45593999997E+02  0.45594000000E+02  0.51100000000E-03 0.  1.
    9900012    2    1    2    0    0 -0.65654754972E+01 -0.37791880171E+02 -0.13484531384E+02  0.50528877260E+02  0.30000052919E+02 0.  0.
         12    1    1    2    0    0  0.65654754972E+01  0.37791880171E+02  0.13484531384E+02  0.40659122740E+02  0.00000000000E+00 0. -1.
         11    1    3    3    0    0 -0.29069130749E+01  0.35437480837E+01  0.89656805236E+00  0.46703456659E+01  0.51100000000E-03 0. -1.
        -11    1    3    3    0    0 -0.73488303983E+01 -0.14384163605E+02 -0.74413434504E+01  0.17784348834E+02  0.51100000000E-03 0.  1.
        -12    1    3    3    0    0  0.36902679760E+01 -0.26951464650E+02 -0.69397559860E+01  0.28074182760E+02  0.00000000000E+00 0.  1.
</event>
<event>
 7    1  0.3141443E-011  0.5052886E+02  0.7816164E-02  0.1300439E+00
        -11   -1    0    0    0    0  0.00000000000E+00  0.00000000000E+00  0.45593999997E+02  0.45594000000E+02  0.51100000000E-03 0.  1.
         11   -1    0    0    0    0 -0.00000000000E+00 -0.00000000000E+00 -0.45593999997E+02  0.45594000000E+02  0.51100000000E-03 0. -1.
    9900012    2    1    2    0    0  0.37729549088E+02 -0.14324985359E+02 -0.49438233414E+01  0.50528862415E+02  0.30000007796E+02 0.  0.
         12    1    1    2    0    0 -0.37729549088E+02  0.14324985359E+02  0.49438233414E+01  0.40659137585E+02  0.00000000000E+00 0. -1.
         11    1    3    3    0    0 -0.27165845951E+01 -0.31162458376E+01 -0.41849087961E+01  0.58825404270E+01  0.51100000000E-03 0. -1.
        -11    1    3    3    0    0  0.46645613630E+01  0.15068137636E+01  0.40640604410E+01  0.63675119126E+01  0.51100000000E-03 0.  1.
        -12    1    3    3    0    0  0.35781572320E+02 -0.12715553285E+02 -0.48229749864E+01  0.38278810075E+02  0.00000000000E+00 0.  1.
</event>
<event>
 7    1  0.3141443E-011  0.5052886E+02  0.7816164E-02  0.1300439E+00
        -11   -1    0    0    0    0  0.00000000000E+00  0.00000000000E+00  0.45593999997E+02  0.45594000000E+02  0.51100000000E-03 0. -1.
         11   -1    0    0    0    0 -0.00000000000E+00 -0.00000000000E+00 -0.45593999997E+02  0.45594000000E+02  0.51100000000E-03 0.  1.
    9900012    2    1    2    0    0  0.39397350886E+02 -0.92590725988E+01 -0.39094305369E+01  0.50528864134E+02  0.30000013022E+02 0.  0.
         12    1    1    2    0    0 -0.39397350886E+02  0.92590725988E+01  0.39094305369E+01  0.40659135866E+02  0.00000000000E+00 0. -1.
         11    1    3    3    0    0 -0.52240678197E+00  0.16922487374E+01 -0.20128869576E+00  0.17824511312E+01  0.51100000000E-03 0. -1.
        -11    1    3    3    0    0  0.28340829911E+02  0.32510220749E+01 -0.85736114634E+01  0.29787222065E+02  0.51100000000E-03 0.  1.
         12    1    3    3    0    0  0.11578927757E+02 -0.14202343411E+02  0.48654696223E+01  0.18959190938E+02  0.00000000000E+00 0. -1.
</event>
<event>
 7    1  0.3141443E-011  0.5052881E+02  0.7816164E-02  0.1300439E+00
        -11   -1    0    0    0    0  0.00000000000E+00  0.00000000000E+00  0.45593999997E+02  0.45594000000E+02  0.51100000000E-03 0.  1.
         11   -1    0    0    0    0 -0.00000000000E+00 -0.00000000000E+00 -0.45593999997E+02  0.45594000000E+02  0.51100000000E-03 0. -1.
    9900012    2    1    2    0    0  0.58227069335E+01  0.89663488172E+01  0.39228442723E+02  0.50528806137E+02  0.29999836734E+02 0.  0.
         12    1    1    2    0    0 -0.58227069335E+01 -0.89663488172E+01 -0.39228442723E+02  0.40659193863E+02  0.00000000000E+00 0. -1.
         11    1    3    3    0    0  0.49890952827E+01  0.79504130141E+01  0.18001143552E+02  0.20301263711E+02  0.51100000000E-03 0. -1.
        -11    1    3    3    0    0 -0.50429865590E+01 -0.23413796349E+01  0.22640795773E+02  0.23313502644E+02  0.51100000000E-03 0.  1.
         12    1    3    3    0    0  0.58765982098E+01  0.33573154380E+01 -0.14134966019E+01  0.69140397824E+01  0.00000000000E+00 0. -1.
</event>
<event>
 7    1  0.3141443E-011  0.5052886E+02  0.7816164E-02  0.1300439E+00
        -11   -1    0    0    0    0  0.00000000000E+00  0.00000000000E+00  0.45593999997E+02  0.45594000000E+02  0.51100000000E-03 0.  1.
         11   -1    0    0    0    0 -0.00000000000E+00 -0.00000000000E+00 -0.45593999997E+02  0.45594000000E+02  0.51100000000E-03 0. -1.
    9900012    2    1    2    0    0  0.35762334813E+02  0.21414586803E+01  0.19225899560E+02  0.50528860186E+02  0.30000001021E+02 0.  0.
         12    1    1    2    0    0 -0.35762334813E+02 -0.21414586803E+01 -0.19225899560E+02  0.40659139814E+02  0.00000000000E+00 0. -1.
         11    1    3    3    0    0  0.99328527494E+01  0.10336866274E+02  0.62529629181E+01  0.15640073964E+02  0.51100000000E-03 0. -1.
        -11    1    3    3    0    0  0.10994578660E+02  0.15204129749E+01  0.13080730248E+02  0.17155113512E+02  0.51100000000E-03 0.  1.
         12    1    3    3    0    0  0.14834903403E+02 -0.97158205681E+01 -0.10779360592E+00  0.17733672709E+02  0.00000000000E+00 0. -1.
</event>
<event>
 7    1  0.3141443E-011  0.5052887E+02  0.7816164E-02  0.1300439E+00
        -11   -1    0    0    0    0  0.00000000000E+00  0.00000000000E+00  0.45593999997E+02  0.45594000000E+02  0.51100000000E-03 0.  1.
         11   -1    0    0    0    0 -0.00000000000E+00 -0.00000000000E+00 -0.45593999997E+02  0.45594000000E+02  0.51100000000E-03 0. -1.
    9900012    2    1    2    0    0 -0.16997592191E+02 -0.36094221509E+02  0.78392550437E+01  0.50528869583E+02  0.30000029585E+02 0.  0.
         12    1    1    2    0    0  0.16997592191E+02  0.36094221509E+02 -0.78392550437E+01  0.40659130417E+02  0.00000000000E+00 0. -1.
         11    1    3    3    0    0 -0.12744641150E+01 -0.46978256448E+01  0.87248145256E+01  0.99908064407E+01  0.51100000000E-03 0. -1.
        -11    1    3    3    0    0 -0.11890605305E+02 -0.29875689666E+02  0.58091305319E+01  0.32675515686E+02  0.51100000000E-03 0.  1.
        -12    1    3    3    0    0 -0.38325227705E+01 -0.15207061980E+01 -0.66946900138E+01  0.78625474567E+01  0.00000000000E+00 0.  1.
</event>
<event>
 7    1  0.3141443E-011  0.5052886E+02  0.7816164E-02  0.1300439E+00
        -11   -1    0    0    0    0  0.00000000000E+00  0.00000000000E+00  0.45593999997E+02  0.45594000000E+02  0.51100000000E-03 0. -1.
         11   -1    0    0    0    0 -0.00000000000E+00 -0.00000000000E+00 -0.45593999997E+02  0.45594000000E+02  0.51100000000E-03 0.  1.
    9900012    2    1    2    0    0 -0.69342596008E+01 -0.36733717828E+02 -0.15991112988E+02  0.50528859868E+02  0.30000000055E+02 0.  0.
         12    1    1    2    0    0  0.69342596008E+01  0.36733717828E+02  0.15991112988E+02  0.40659140132E+02  0.00000000000E+00 0. -1.
         11    1    3    3    0    0 -0.50900151336E+00 -0.12559267722E+02 -0.10996976263E+02  0.16701130963E+02  0.51100000000E-03 0. -1.
        -11    1    3    3    0    0  0.13930598354E+01 -0.25436186462E+02 -0.46898505352E+01  0.25902411002E+02  0.51100000000E-03 0.  1.
         12    1    3    3    0    0 -0.78183179229E+01  0.12617363555E+01 -0.30428618948E+00  0.79253179027E+01  0.00000000000E+00 0. -1.
</event>
<event>
 7    1  0.3141443E-011  0.5052885E+02  0.7816164E-02  0.1300439E+00
        -11   -1    0    0    0    0  0.00000000000E+00  0.00000000000E+00  0.45593999997E+02  0.45594000000E+02  0.51100000000E-03 0. -1.
         11   -1    0    0    0    0 -0.00000000000E+00 -0.00000000000E+00 -0.45593999997E+02  0.45594000000E+02  0.51100000000E-03 0.  1.
    9900012    2    1    2    0    0 -0.36859903431E+01  0.93008082651E+01 -0.39409074636E+02  0.50528846998E+02  0.29999960934E+02 0.  0.
         12    1    1    2    0    0  0.36859903431E+01 -0.93008082651E+01  0.39409074636E+02  0.40659153002E+02  0.00000000000E+00 0. -1.
         11    1    3    3    0    0 -0.23225775568E+01 -0.50129387406E-01  0.32624635830E+01  0.40050653371E+01  0.51100000000E-03 0. -1.
        -11    1    3    3    0    0 -0.77052170449E+01  0.26811803318E+01 -0.12072958946E+02  0.14571047857E+02  0.51100000000E-03 0.  1.
         12    1    3    3    0    0  0.63418042586E+01  0.66697573206E+01 -0.30598579273E+02  0.31952733804E+02  0.00000000000E+00 0. -1.
</event>
<event>
 7    1  0.3141443E-011  0.5052886E+02  0.7816164E-02  0.1300439E+00
        -11   -1    0    0    0    0  0.00000000000E+00  0.00000000000E+00  0.45593999997E+02  0.45594000000E+02  0.51100000000E-03 0. -1.
         11   -1    0    0    0    0 -0.00000000000E+00 -0.00000000000E+00 -0.45593999997E+02  0.45594000000E+02  0.51100000000E-03 0.  1.
    9900012    2    1    2    0    0 -0.26293921547E+02 -0.27112948062E+02 -0.15056011846E+02  0.50528858892E+02  0.29999997087E+02 0.  0.
         12    1    1    2    0    0  0.26293921547E+02  0.27112948062E+02  0.15056011846E+02  0.40659141108E+02  0.00000000000E+00 0. -1.
         11    1    3    3    0    0 -0.19298973009E+02 -0.69628477496E+01  0.73441393306E+00  0.20529758208E+02  0.51100000000E-03 0. -1.
        -11    1    3    3    0    0 -0.72128567408E+01 -0.21349224466E+02 -0.11037968272E+02  0.25092856185E+02  0.51100000000E-03 0.  1.
        -12    1    3    3    0    0  0.21790820286E+00  0.11991241540E+01 -0.47524575074E+01  0.49062444988E+01  0.00000000000E+00 0.  1.
</event>
<event>
 7    1  0.3141443E-011  0.5052887E+02  0.7816164E-02  0.1300439E+00
        -11   -1    0    0    0    0  0.00000000000E+00  0.00000000000E+00  0.45593999997E+02  0.45594000000E+02  0.51100000000E-03 0. -1.
         11   -1    0    0    0    0 -0.00000000000E+00 -0.00000000000E+00 -0.45593999997E+02  0.45594000000E+02  0.51100000000E-03 0.  1.
    9900012    2    1    2    0    0 -0.32220085341E+01  0.85284764578E+01 -0.39623834256E+02  0.50528874446E+02  0.30000044365E+02 0.  0.
         12    1    1    2    0    0  0.32220085341E+01 -0.85284764578E+01  0.39623834256E+02  0.40659125554E+02  0.00000000000E+00 0. -1.
         11    1    3    3    0    0  0.26332387058E+01  0.39599834205E+01 -0.16006381785E+02  0.16697894264E+02  0.51100000000E-03 0. -1.
        -11    1    3    3    0    0 -0.13522292054E+02  0.78560241957E+01 -0.17604962235E+02  0.23547912733E+02  0.51100000000E-03 0.  1.
         12    1    3    3    0    0  0.76670448137E+01 -0.32875311584E+01 -0.60124902368E+01  0.10283067448E+02  0.00000000000E+00 0. -1.
</event>
<event>
 7    1  0.3141443E-011  0.5052880E+02  0.7816164E-02  0.1300439E+00
        -11   -1    0    0    0    0  0.00000000000E+00  0.00000000000E+00  0.45593999997E+02  0.45594000000E+02  0.51100000000E-03 0.  1.
         11   -1    0    0    0    0 -0.00000000000E+00 -0.00000000000E+00 -0.45593999997E+02  0.45594000000E+02  0.51100000000E-03 0. -1.
    9900012    2    1    2    0    0  0.24308981388E+01 -0.40837385807E+00  0.40584415015E+02  0.50528797142E+02  0.29999809391E+02 0.  0.
         12    1    1    2    0    0 -0.24308981388E+01  0.40837385807E+00 -0.40584415015E+02  0.40659202858E+02  0.00000000000E+00 0. -1.
         11    1    3    3    0    0  0.88588946261E+01  0.24417098848E+01  0.14532786007E+02  0.17194296454E+02  0.51100000000E-03 0. -1.
        -11    1    3    3    0    0 -0.34211382356E+01  0.75391109211E+01  0.18121656094E+02  0.19923272827E+02  0.51100000000E-03 0.  1.
         12    1    3    3    0    0 -0.30068582517E+01 -0.10389194664E+02  0.79299729147E+01  0.13411227861E+02  0.00000000000E+00 0. -1.
</event>
<event>
 7    1  0.3141443E-011  0.5052891E+02  0.7816164E-02  0.1300439E+00
        -11   -1    0    0    0    0  0.00000000000E+00  0.00000000000E+00  0.45593999997E+02  0.45594000000E+02  0.51100000000E-03 0.  1.
         11   -1    0    0    0    0 -0.00000000000E+00 -0.00000000000E+00 -0.45593999997E+02  0.45594000000E+02  0.51100000000E-03 0. -1.
    9900012    2    1    2    0    0  0.37096487032E+02  0.13283122251E+02 -0.10028493691E+02  0.50528912793E+02  0.30000160924E+02 0.  0.
         12    1    1    2    0    0 -0.37096487032E+02 -0.13283122251E+02  0.10028493691E+02  0.40659087207E+02  0.00000000000E+00 0. -1.
         11    1    3    3    0    0  0.15669076645E+02  0.32431102586E+01  0.48044077581E+01  0.16706886641E+02  0.51100000000E-03 0. -1.
        -11    1    3    3    0    0  0.42813840328E+01 -0.56944104717E+01 -0.34255875418E+01  0.79051382103E+01  0.51100000000E-03 0.  1.
         12    1    3    3    0    0  0.17146026354E+02  0.15734422464E+02 -0.11407313908E+02  0.25916887942E+02  0.00000000000E+00 0. -1.
</event>
<event>
 7    1  0.3141443E-011  0.5052886E+02  0.7816164E-02  0.1300439E+00
        -11   -1    0    0    0    0  0.00000000000E+00  0.00000000000E+00  0.45593999997E+02  0.45594000000E+02  0.51100000000E-03 0.  1.
         11   -1    0    0    0    0 -0.00000000000E+00 -0.00000000000E+00 -0.45593999997E+02  0.45594000000E+02  0.51100000000E-03 0. -1.
    9900012    2    1    2    0    0  0.30128799739E+02  0.20832205647E+02  0.17647675458E+02  0.50528858163E+02  0.29999994872E+02 0.  0.
         12    1    1    2    0    0 -0.30128799739E+02 -0.20832205647E+02 -0.17647675458E+02  0.40659141837E+02  0.00000000000E+00 0. -1.
         11    1    3    3    0    0  0.14136894374E+02 -0.34052405121E+01  0.69321377456E+01  0.16109065133E+02  0.51100000000E-03 0. -1.
        -11    1    3    3    0    0  0.15144979743E+02  0.97732230992E+01  0.78022619366E+01  0.19640814463E+02  0.51100000000E-03 0.  1.
        -12    1    3    3    0    0  0.84692562218E+00  0.14464223060E+02  0.29132757756E+01  0.14778978567E+02  0.00000000000E+00 0.  1.
</event>
<event>
 7    1  0.3141443E-011  0.5052886E+02  0.7816164E-02  0.1300439E+00
        -11   -1    0    0    0    0  0.00000000000E+00  0.00000000000E+00  0.45593999997E+02  0.45594000000E+02  0.51100000000E-03 0.  1.
         11   -1    0    0    0    0 -0.00000000000E+00 -0.00000000000E+00 -0.45593999997E+02  0.45594000000E+02  0.51100000000E-03 0. -1.
    9900012    2    1    2    0    0  0.38077177159E+02 -0.95438607966E+01  0.10592857490E+02  0.50528864137E+02  0.30000013031E+02 0.  0.
         12    1    1    2    0    0 -0.38077177159E+02  0.95438607966E+01 -0.10592857490E+02  0.40659135863E+02  0.00000000000E+00 0. -1.
         11    1    3    3    0    0  0.11323528085E+02 -0.74788494957E+01 -0.30141730005E+01  0.13901104892E+02  0.51100000000E-03 0. -1.
        -11    1    3    3    0    0  0.28974284296E+02 -0.64857350994E+00  0.74392230922E+01  0.29921093538E+02  0.51100000000E-03 0.  1.
         12    1    3    3    0    0 -0.22206352217E+01 -0.14164377909E+01  0.61678073980E+01  0.67066657067E+01  0.00000000000E+00 0. -1.
</event>
<event>
 7    1  0.3141443E-011  0.5052885E+02  0.7816164E-02  0.1300439E+00
        -11   -1    0    0    0    0  0.00000000000E+00  0.00000000000E+00  0.45593999997E+02  0.45594000000E+02  0.51100000000E-03 0.  1.
         11   -1    0    0    0    0 -0.00000000000E+00 -0.00000000000E+00 -0.45593999997E+02  0.45594000000E+02  0.51100000000E-03 0. -1.
    9900012    2    1    2    0    0  0.32606438399E+02 -0.24289574383E+02 -0.56523291066E-01  0.50528850432E+02  0.29999971372E+02 0.  0.
         12    1    1    2    0    0 -0.32606438399E+02  0.24289574383E+02  0.56523291066E-01  0.40659149568E+02  0.00000000000E+00 0. -1.
         11    1    3    3    0    0  0.19360061084E+01 -0.40290426257E+01  0.88843870116E+01  0.99455335184E+01  0.51100000000E-03 0. -1.
        -11    1    3    3    0    0  0.49396462226E+01  0.20452808436E+01 -0.25989635936E+01  0.59445681556E+01  0.51100000000E-03 0.  1.
         12    1    3    3    0    0  0.25730786068E+02 -0.22305812601E+02 -0.63419467091E+01  0.34638748758E+02  0.00000000000E+00 0. -1.
</event>
<event>
 7    1  0.3141443E-011  0.5052885E+02  0.7816164E-02  0.1300439E+00
        -11   -1    0    0    0    0  0.00000000000E+00  0.00000000000E+00  0.45593999997E+02  0.45594000000E+02  0.51100000000E-03 0. -1.
         11   -1    0    0    0    0 -0.00000000000E+00 -0.00000000000E+00 -0.45593999997E+02  0.45594000000E+02  0.51100000000E-03 0.  1.
    9900012    2    1    2    0    0 -0.21942622788E+02  0.20462308696E+02 -0.27440506548E+02  0.50528853776E+02  0.29999981539E+02 0.  0.
         12    1    1    2    0    0  0.21942622788E+02 -0.20462308696E+02  0.27440506548E+02  0.40659146224E+02  0.00000000000E+00 0. -1.
         11    1    3    3    0    0 -0.12892471126E+02  0.10586837759E+02 -0.22255998153E+02  0.27814140280E+02  0.51100000000E-03 0. -1.
        -11    1    3    3    0    0  0.51167242599E+01  0.24777187887E+01 -0.34225451920E+01  0.66357948582E+01  0.51100000000E-03 0.  1.
         12    1    3    3    0    0 -0.14166875922E+02  0.73977521485E+01 -0.17619632034E+01  0.16078918638E+02  0.00000000000E+00 0. -1.
</event>
<event>
 7    1  0.3141443E-011  0.5052888E+02  0.7816164E-02  0.1300439E+00
        -11   -1    0    0    0    0  0.00000000000E+00  0.00000000000E+00  0.45593999997E+02  0.45594000000E+02  0.51100000000E-03 0.  1.
         11   -1    0    0    0    0 -0.00000000000E+00 -0.00000000000E+00 -0.45593999997E+02  0.45594000000E+02  0.51100000000E-03 0. -1.
    9900012    2    1    2    0    0 -0.11469172795E+02  0.21885635257E+02  0.32289956982E+02  0.50528877074E+02  0.30000052355E+02 0.  0.
         12    1    1    2    0    0  0.11469172795E+02 -0.21885635257E+02 -0.32289956982E+02  0.40659122926E+02  0.00000000000E+00 0. -1.
         11    1    3    3    0    0 -0.53016020577E+01  0.93045783039E-01  0.13645992432E+02  0.14639971025E+02  0.51100000000E-03 0. -1.
        -11    1    3    3    0    0 -0.13467461238E+02  0.13334839840E+02  0.83977033867E+01  0.20729493197E+02  0.51100000000E-03 0.  1.
        -12    1    3    3    0    0  0.72998905014E+01  0.84577496343E+01  0.10246261162E+02  0.15159412852E+02  0.00000000000E+00 0.  1.
</event>
<event>
 7    1  0.3141443E-011  0.5052886E+02  0.7816164E-02  0.1300439E+00
        -11   -1    0    0    0    0  0.00000000000E+00  0.00000000000E+00  0.45593999997E+02  0.45594000000E+02  0.51100000000E-03 0.  1.
         11   -1    0    0    0    0 -0.00000000000E+00 -0.00000000000E+00 -0.45593999997E+02  0.45594000000E+02  0.51100000000E-03 0. -1.
    9900012    2    1    2    0    0  0.38165593940E+02  0.28305217176E-01  0.14019700543E+02  0.50528863692E+02  0.30000011679E+02 0.  0.
         12    1    1    2    0    0 -0.38165593940E+02 -0.28305217176E-01 -0.14019700543E+02  0.40659136308E+02  0.00000000000E+00 0. -1.
         11    1    3    3    0    0  0.11837480852E+02 -0.68424518396E+01  0.62114465699E+01  0.15017562014E+02  0.51100000000E-03 0. -1.
        -11    1    3    3    0    0  0.20953759882E+02  0.51069012212E+01  0.15067042905E+02  0.26308863058E+02  0.51100000000E-03 0.  1.
         12    1    3    3    0    0  0.53743532063E+01  0.17638558356E+01 -0.72587889316E+01  0.92024386197E+01  0.00000000000E+00 0. -1.
</event>
<event>
 7    1  0.3141443E-011  0.5052885E+02  0.7816164E-02  0.1300439E+00
        -11   -1    0    0    0    0  0.00000000000E+00  0.00000000000E+00  0.45593999997E+02  0.45594000000E+02  0.51100000000E-03 0.  1.
         11   -1    0    0    0    0 -0.00000000000E+00 -0.00000000000E+00 -0.45593999997E+02  0.45594000000E+02  0.51100000000E-03 0. -1.
    9900012    2    1    2    0    0  0.83787049730E+01  0.38596506063E+02  0.96578318859E+01  0.50528847352E+02  0.29999962011E+02 0.  0.
         12    1    1    2    0    0 -0.83787049730E+01 -0.38596506063E+02 -0.96578318859E+01  0.40659152648E+02  0.00000000000E+00 0. -1.
         11    1    3    3    0    0 -0.46996097985E+01  0.77010371014E+01  0.16158079427E+01  0.91653227038E+01  0.51100000000E-03 0. -1.
        -11    1    3    3    0    0  0.12528878429E+01  0.17191784199E+02  0.14106759853E+02  0.22273927487E+02  0.51100000000E-03 0.  1.
         12    1    3    3    0    0  0.11825426929E+02  0.13703684763E+02 -0.60647359093E+01  0.19089597162E+02  0.00000000000E+00 0. -1.
</event>
<event>
 7    1  0.3141443E-011  0.5052886E+02  0.7816164E-02  0.1300439E+00
        -11   -1    0    0    0    0  0.00000000000E+00  0.00000000000E+00  0.45593999997E+02  0.45594000000E+02  0.51100000000E-03 0.  1.
         11   -1    0    0    0    0 -0.00000000000E+00 -0.00000000000E+00 -0.45593999997E+02  0.45594000000E+02  0.51100000000E-03 0. -1.
    9900012    2    1    2    0    0 -0.31359848969E+02 -0.20675644663E+02  0.15564154903E+02  0.50528864158E+02  0.30000013093E+02 0.  0.
         12    1    1    2    0    0  0.31359848969E+02  0.20675644663E+02 -0.15564154903E+02  0.40659135842E+02  0.00000000000E+00 0. -1.
         11    1    3    3    0    0 -0.12122442965E+02  0.28921280446E+01  0.27410113715E+01  0.12760531794E+02  0.51100000000E-03 0. -1.
        -11    1    3    3    0    0 -0.15746968535E+02 -0.20603403344E+02  0.17451532232E+02  0.31257370729E+02  0.51100000000E-03 0.  1.
         12    1    3    3    0    0 -0.34904374697E+01 -0.29643693639E+01 -0.46283886998E+01  0.65109616350E+01  0.00000000000E+00 0. -1.
</event>
<event>
 7    1  0.3141443E-011  0.5052886E+02  0.7816164E-02  0.1300439E+00
        -11   -1    0    0    0    0  0.00000000000E+00  0.00000000000E+00  0.45593999997E+02  0.45594000000E+02  0.51100000000E-03 0.  1.
         11   -1    0    0    0    0 -0.00000000000E+00 -0.00000000000E+00 -0.45593999997E+02  0.45594000000E+02  0.51100000000E-03 0. -1.
    9900012    2    1    2    0    0  0.27312665549E+02  0.29992996551E+02  0.27576074297E+01  0.50528856622E+02  0.29999990188E+02 0.  0.
         12    1    1    2    0    0 -0.27312665549E+02 -0.29992996551E+02 -0.27576074297E+01  0.40659143378E+02  0.00000000000E+00 0. -1.
         11    1    3    3    0    0  0.30686336756E+01 -0.47659249541E+00 -0.18562156744E+01  0.36178985520E+01  0.51100000000E-03 0. -1.
        -11    1    3    3    0    0  0.28064955907E+02  0.24484151066E+02 -0.18757639761E+01  0.37291203979E+02  0.51100000000E-03 0.  1.
        -12    1    3    3    0    0 -0.38209240336E+01  0.59854379805E+01  0.64895870801E+01  0.96197540904E+01  0.00000000000E+00 0.  1.
</event>
<event>
 7    1  0.3141443E-011  0.5052890E+02  0.7816164E-02  0.1300439E+00
        -11   -1    0    0    0    0  0.00000000000E+00  0.00000000000E+00  0.45593999997E+02  0.45594000000E+02  0.51100000000E-03 0. -1.
         11   -1    0    0    0    0 -0.00000000000E+00 -0.00000000000E+00 -0.45593999997E+02  0.45594000000E+02  0.51100000000E-03 0.  1.
    9900012    2    1    2    0    0  0.20195960460E+02  0.19170387370E+02 -0.29627381827E+02  0.50528901083E+02  0.30000125330E+02 0.  0.
         12    1    1    2    0    0 -0.20195960460E+02 -0.19170387370E+02  0.29627381827E+02  0.40659098917E+02  0.00000000000E+00 0. -1.
         11    1    3    3    0    0 -0.32371431318E+00  0.84860290899E+01 -0.10445143894E+02  0.13461742529E+02  0.51100000000E-03 0. -1.
        -11    1    3    3    0    0  0.14261055723E+02  0.11122808293E+02 -0.23350019968E+02  0.29535030175E+02  0.51100000000E-03 0.  1.
         12    1    3    3    0    0  0.62586190498E+01 -0.43845001261E+00  0.41677820352E+01  0.75321283789E+01  0.00000000000E+00 0. -1.
</event>
<event>
 7    1  0.3141443E-011  0.5052886E+02  0.7816164E-02  0.1300439E+00
        -11   -1    0    0    0    0  0.00000000000E+00  0.00000000000E+00  0.45593999997E+02  0.45594000000E+02  0.51100000000E-03 0. -1.
         11   -1    0    0    0    0 -0.00000000000E+00 -0.00000000000E+00 -0.45593999997E+02  0.45594000000E+02  0.51100000000E-03 0.  1.
    9900012    2    1    2    0    0  0.22623228326E+02  0.25735349218E+02 -0.21887151663E+02  0.50528855060E+02  0.29999985442E+02 0.  0.
         12    1    1    2    0    0 -0.22623228326E+02 -0.25735349218E+02  0.21887151663E+02  0.40659144940E+02  0.00000000000E+00 0. -1.
         11    1    3    3    0    0 -0.20006935095E+01  0.67328364247E+01 -0.25526885901E+01  0.74732911183E+01  0.51100000000E-03 0. -1.
        -11    1    3    3    0    0  0.11698510517E+02  0.22033707094E+02 -0.14903932378E+02  0.29059707452E+02  0.51100000000E-03 0.  1.
         12    1    3    3    0    0  0.12925411319E+02 -0.30311943005E+01 -0.44305306956E+01  0.13995856490E+02  0.00000000000E+00 0. -1.
</event>
<event>
 7    1  0.3141443E-011  0.5052886E+02  0.7816164E-02  0.1300439E+00
        -11   -1    0    0    0    0  0.00000000000E+00  0.00000000000E+00  0.45593999997E+02  0.45594000000E+02  0.51100000000E-03 0.  1.
         11   -1    0    0    0    0 -0.00000000000E+00 -0.00000000000E+00 -0.45593999997E+02  0.45594000000E+02  0.51100000000E-03 0. -1.
    9900012    2    1    2    0    0 -0.11535666885E+02 -0.29483370003E+02  0.25511268813E+02  0.50528861375E+02  0.30000004637E+02 0.  0.
         12    1    1    2    0    0  0.11535666885E+02  0.29483370003E+02 -0.25511268813E+02  0.40659138625E+02  0.00000000000E+00 0. -1.
         11    1    3    3    0    0 -0.74962612195E+01 -0.99742959174E+01  0.20442446265E+02  0.23949407527E+02  0.51100000000E-03 0.  1.
        -11    1    3    3    0    0  0.41698958345E+01 -0.55265631591E+01  0.74739185361E+01  0.10187756876E+02  0.51100000000E-03 0. -1.
         12    1    3    3    0    0 -0.82093015000E+01 -0.13982510927E+02 -0.24050959876E+01  0.16391696973E+02  0.00000000000E+00 0. -1.
</event>
<event>
 7    1  0.3141443E-011  0.5052886E+02  0.7816164E-02  0.1300439E+00
        -11   -1    0    0    0    0  0.00000000000E+00  0.00000000000E+00  0.45593999997E+02  0.45594000000E+02  0.51100000000E-03 0.  1.
         11   -1    0    0    0    0 -0.00000000000E+00 -0.00000000000E+00 -0.45593999997E+02  0.45594000000E+02  0.51100000000E-03 0. -1.
    9900012    2    1    2    0    0  0.21588275735E+02  0.33638504719E+02 -0.74540338186E+01  0.50528864875E+02  0.30000015273E+02 0.  0.
         12    1    1    2    0    0 -0.21588275735E+02 -0.33638504719E+02  0.74540338186E+01  0.40659135125E+02  0.00000000000E+00 0. -1.
         11    1    3    3    0    0  0.27486996450E+01  0.13743592578E+01 -0.86361872740E+01  0.91666757333E+01  0.51100000000E-03 0. -1.
        -11    1    3    3    0    0 -0.30732593215E+01  0.16470479680E+01  0.12713388431E+01  0.37113329925E+01  0.51100000000E-03 0.  1.
        -12    1    3    3    0    0  0.21912835412E+02  0.30617097493E+02 -0.89185387654E-01  0.37650856149E+02  0.00000000000E+00 0.  1.
</event>
<event>
 7    1  0.3141443E-011  0.5052887E+02  0.7816164E-02  0.1300439E+00
        -11   -1    0    0    0    0  0.00000000000E+00  0.00000000000E+00  0.45593999997E+02  0.45594000000E+02  0.51100000000E-03 0.  1.
         11   -1    0    0    0    0 -0.00000000000E+00 -0.00000000000E+00 -0.45593999997E+02  0.45594000000E+02  0.51100000000E-03 0. -1.
    9900012    2    1    2    0    0  0.36624425188E+02  0.11098247183E+02  0.13734825514E+02  0.50528867658E+02  0.30000023734E+02 0.  0.
         12    1    1    2    0    0 -0.36624425188E+02 -0.11098247183E+02 -0.13734825514E+02  0.40659132342E+02  0.00000000000E+00 0. -1.
         11    1    3    3    0    0  0.26754137481E+02  0.11548554334E+02  0.12183026202E+02  0.31584475732E+02  0.51100000000E-03 0. -1.
        -11    1    3    3    0    0  0.11772274476E+02 -0.14606591150E+01 -0.43709698409E+01  0.12642205068E+02  0.51100000000E-03 0.  1.
         12    1    3    3    0    0 -0.19019867685E+01  0.10103519632E+01  0.59227691528E+01  0.63021868581E+01  0.00000000000E+00 0. -1.
</event>
<event>
 7    1  0.3141443E-011  0.5052886E+02  0.7816164E-02  0.1300439E+00
        -11   -1    0    0    0    0  0.00000000000E+00  0.00000000000E+00  0.45593999997E+02  0.45594000000E+02  0.51100000000E-03 0.  1.
         11   -1    0    0    0    0 -0.00000000000E+00 -0.00000000000E+00 -0.45593999997E+02  0.45594000000E+02  0.51100000000E-03 0. -1.
    9900012    2    1    2    0    0  0.15265735712E+02 -0.37064169137E+02  0.68096030472E+01  0.50528855711E+02  0.29999987419E+02 0.  0.
         12    1    1    2    0    0 -0.15265735712E+02  0.37064169137E+02 -0.68096030472E+01  0.40659144289E+02  0.00000000000E+00 0. -1.
         11    1    3    3    0    0 -0.21268361744E+01 -0.27533125249E+02  0.90077808638E+01  0.29047143309E+02  0.51100000000E-03 0.  1.
        -11    1    3    3    0    0  0.95804871155E+01 -0.82525502240E+01  0.15202984387E+01  0.12735840223E+02  0.51100000000E-03 0. -1.
        -12    1    3    3    0    0  0.78120847705E+01 -0.12784936643E+01 -0.37184762552E+01  0.87458721790E+01  0.00000000000E+00 0.  1.
</event>
<event>
 7    1  0.3141443E-011  0.5052887E+02  0.7816164E-02  0.1300439E+00
        -11   -1    0    0    0    0  0.00000000000E+00  0.00000000000E+00  0.45593999997E+02  0.45594000000E+02  0.51100000000E-03 0.  1.
         11   -1    0    0    0    0 -0.00000000000E+00 -0.00000000000E+00 -0.45593999997E+02  0.45594000000E+02  0.51100000000E-03 0. -1.
    9900012    2    1    2    0    0  0.17485180040E+02 -0.33493321570E+02  0.15021012080E+02  0.50528869233E+02  0.30000028521E+02 0.  0.
         12    1    1    2    0    0 -0.17485180040E+02  0.33493321570E+02 -0.15021012080E+02  0.40659130767E+02  0.00000000000E+00 0. -1.
         11    1    3    3    0    0  0.69396351627E+01 -0.21164603413E+02 -0.26669748021E+01  0.22432381253E+02  0.51100000000E-03 0. -1.
        -11    1    3    3    0    0  0.73399894882E+01 -0.81835861424E+01  0.15163747292E+01  0.11097113157E+02  0.51100000000E-03 0.  1.
         12    1    3    3    0    0  0.32055553893E+01 -0.41451320147E+01  0.16171612153E+02  0.16999374824E+02  0.00000000000E+00 0. -1.
</event>
<event>
 7    1  0.3141443E-011  0.5052886E+02  0.7816164E-02  0.1300439E+00
        -11   -1    0    0    0    0  0.00000000000E+00  0.00000000000E+00  0.45593999997E+02  0.45594000000E+02  0.51100000000E-03 0.  1.
         11   -1    0    0    0    0 -0.00000000000E+00 -0.00000000000E+00 -0.45593999997E+02  0.45594000000E+02  0.51100000000E-03 0. -1.
    9900012    2    1    2    0    0  0.32378223081E+02  0.24070181186E+02  0.50440593333E+01  0.50528862198E+02  0.30000007138E+02 0.  0.
         12    1    1    2    0    0 -0.32378223081E+02 -0.24070181186E+02 -0.50440593333E+01  0.40659137802E+02  0.00000000000E+00 0. -1.
         11    1    3    3    0    0  0.74939184256E+01  0.20990681359E+02  0.74901487439E+01  0.23513184509E+02  0.51100000000E-03 0. -1.
        -11    1    3    3    0    0  0.46121534591E+01  0.50340080241E+00  0.34100734105E+01  0.57579486646E+01  0.51100000000E-03 0.  1.
         12    1    3    3    0    0  0.20272151196E+02  0.25760990251E+01 -0.58561628210E+01  0.21257729025E+02  0.00000000000E+00 0. -1.
</event>
<event>
 7    1  0.3141443E-011  0.5052886E+02  0.7816164E-02  0.1300439E+00
        -11   -1    0    0    0    0  0.00000000000E+00  0.00000000000E+00  0.45593999997E+02  0.45594000000E+02  0.51100000000E-03 0.  1.
         11   -1    0    0    0    0 -0.00000000000E+00 -0.00000000000E+00 -0.45593999997E+02  0.45594000000E+02  0.51100000000E-03 0. -1.
    9900012    2    1    2    0    0 -0.28991005570E+02  0.29480065801E+01  0.28354829640E+02  0.50528861904E+02  0.30000006245E+02 0.  0.
         12    1    1    2    0    0  0.28991005570E+02 -0.29480065801E+01 -0.28354829640E+02  0.40659138096E+02  0.00000000000E+00 0. -1.
         11    1    3    3    0    0 -0.16813888860E+02 -0.26692196248E+01  0.41324252835E+01  0.17518805068E+02  0.51100000000E-03 0. -1.
        -11    1    3    3    0    0 -0.11612291111E+02 -0.23321730510E+01  0.21575181692E+02  0.24612452159E+02  0.51100000000E-03 0.  1.
         12    1    3    3    0    0 -0.56482559932E+00  0.79493992559E+01  0.26472226639E+01  0.83976046775E+01  0.00000000000E+00 0. -1.
</event>
<event>
 7    1  0.3141443E-011  0.5052886E+02  0.7816164E-02  0.1300439E+00
        -11   -1    0    0    0    0  0.00000000000E+00  0.00000000000E+00  0.45593999997E+02  0.45594000000E+02  0.51100000000E-03 0.  1.
         11   -1    0    0    0    0 -0.00000000000E+00 -0.00000000000E+00 -0.45593999997E+02  0.45594000000E+02  0.51100000000E-03 0. -1.
    9900012    2    1    2    0    0  0.38248531364E+02 -0.78341451966E+01  0.11350848824E+02  0.50528858943E+02  0.29999997242E+02 0.  0.
         12    1    1    2    0    0 -0.38248531364E+02  0.78341451966E+01 -0.11350848824E+02  0.40659141057E+02  0.00000000000E+00 0. -1.
         11    1    3    3    0    0  0.19789770787E+02 -0.32726633539E+01 -0.66413926546E+01  0.21129445091E+02  0.51100000000E-03 0.  1.
        -11    1    3    3    0    0  0.37865065502E+00 -0.15457472500E+00  0.84982724579E+01  0.85081081736E+01  0.51100000000E-03 0. -1.
        -12    1    3    3    0    0  0.18080109923E+02 -0.44069071177E+01  0.94939690206E+01  0.20891305678E+02  0.00000000000E+00 0.  1.
</event>
<event>
 7    1  0.3141443E-011  0.5052885E+02  0.7816164E-02  0.1300439E+00
        -11   -1    0    0    0    0  0.00000000000E+00  0.00000000000E+00  0.45593999997E+02  0.45594000000E+02  0.51100000000E-03 0.  1.
         11   -1    0    0    0    0 -0.00000000000E+00 -0.00000000000E+00 -0.45593999997E+02  0.45594000000E+02  0.51100000000E-03 0. -1.
    9900012    2    1    2    0    0 -0.20853368190E+02  0.19890972399E+02  0.28681916676E+02  0.50528854755E+02  0.29999984513E+02 0.  0.
         12    1    1    2    0    0  0.20853368190E+02 -0.19890972399E+02 -0.28681916676E+02  0.40659145245E+02  0.00000000000E+00 0. -1.
         11    1    3    3    0    0 -0.54949026769E+00  0.10028690893E+02  0.97593747769E+01  0.14004355640E+02  0.51100000000E-03 0. -1.
        -11    1    3    3    0    0  0.17616920810E+01  0.37774422052E+01  0.11859092548E+02  0.12570230902E+02  0.51100000000E-03 0.  1.
         12    1    3    3    0    0 -0.22065570004E+02  0.60848393002E+01  0.70634493506E+01  0.23954268213E+02  0.00000000000E+00 0. -1.
</event>
<event>
 7    1  0.3141443E-011  0.5052888E+02  0.7816164E-02  0.1300439E+00
        -11   -1    0    0    0    0  0.00000000000E+00  0.00000000000E+00  0.45593999997E+02  0.45594000000E+02  0.51100000000E-03 0.  1.
         11   -1    0    0    0    0 -0.00000000000E+00 -0.00000000000E+00 -0.45593999997E+02  0.45594000000E+02  0.51100000000E-03 0. -1.
    9900012    2    1    2    0    0  0.20114816940E+01 -0.22174341108E+01  0.40548745144E+02  0.50528882875E+02  0.30000069986E+02 0.  0.
         12    1    1    2    0    0 -0.20114816940E+01  0.22174341108E+01 -0.40548745144E+02  0.40659117125E+02  0.00000000000E+00 0. -1.
         11    1    3    3    0    0  0.10025065918E+02 -0.28350412895E+01  0.11053856493E+02  0.15189705376E+02  0.51100000000E-03 0. -1.
        -11    1    3    3    0    0 -0.37416093839E-01 -0.21519148694E+01  0.26180217654E+02  0.26268535061E+02  0.51100000000E-03 0.  1.
         12    1    3    3    0    0 -0.79761681304E+01  0.27695220480E+01  0.33146709964E+01  0.90706424377E+01  0.00000000000E+00 0. -1.
</event>
<event>
 7    1  0.3141443E-011  0.5052886E+02  0.7816164E-02  0.1300439E+00
        -11   -1    0    0    0    0  0.00000000000E+00  0.00000000000E+00  0.45593999997E+02  0.45594000000E+02  0.51100000000E-03 0. -1.
         11   -1    0    0    0    0 -0.00000000000E+00 -0.00000000000E+00 -0.45593999997E+02  0.45594000000E+02  0.51100000000E-03 0.  1.
    9900012    2    1    2    0    0 -0.12490328414E+02 -0.23031371773E+02 -0.31092016330E+02  0.50528857497E+02  0.29999992848E+02 0.  0.
         12    1    1    2    0    0  0.12490328414E+02  0.23031371773E+02  0.31092016330E+02  0.40659142503E+02  0.00000000000E+00 0. -1.
         11    1    3    3    0    0 -0.12242167618E+02 -0.16319835293E+02 -0.12532941045E+02  0.23943314379E+02  0.51100000000E-03 0. -1.
        -11    1    3    3    0    0 -0.40768733917E+01 -0.67914333943E+01 -0.20724132699E+02  0.22186350321E+02  0.51100000000E-03 0.  1.
         12    1    3    3    0    0  0.38287125954E+01  0.79896913859E-01  0.21650574143E+01  0.43991927967E+01  0.00000000000E+00 0. -1.
</event>
<event>
 7    1  0.3141443E-011  0.5052886E+02  0.7816164E-02  0.1300439E+00
        -11   -1    0    0    0    0  0.00000000000E+00  0.00000000000E+00  0.45593999997E+02  0.45594000000E+02  0.51100000000E-03 0. -1.
         11   -1    0    0    0    0 -0.00000000000E+00 -0.00000000000E+00 -0.45593999997E+02  0.45594000000E+02  0.51100000000E-03 0.  1.
    9900012    2    1    2    0    0 -0.33794519629E+02  0.24261464480E+00 -0.22606136487E+02  0.50528858030E+02  0.29999994469E+02 0.  0.
         12    1    1    2    0    0  0.33794519629E+02 -0.24261464480E+00  0.22606136487E+02  0.40659141970E+02  0.00000000000E+00 0. -1.
         11    1    3    3    0    0 -0.12642835033E+02  0.44858171196E+01 -0.17886773573E+01  0.13533779955E+02  0.51100000000E-03 0. -1.
        -11    1    3    3    0    0 -0.22345525047E+02  0.25244362584E+01 -0.19962694590E+02  0.30069992411E+02  0.51100000000E-03 0.  1.
         12    1    3    3    0    0  0.11938404509E+01 -0.67676387332E+01 -0.85476453984E+00  0.69250856647E+01  0.00000000000E+00 0. -1.
</event>
<event>
 7    1  0.3141443E-011  0.5052878E+02  0.7816164E-02  0.1300439E+00
        -11   -1    0    0    0    0  0.00000000000E+00  0.00000000000E+00  0.45593999997E+02  0.45594000000E+02  0.51100000000E-03 0. -1.
         11   -1    0    0    0    0 -0.00000000000E+00 -0.00000000000E+00 -0.45593999997E+02  0.45594000000E+02  0.51100000000E-03 0.  1.
    9900012    2    1    2    0    0  0.11125979910E+02  0.36534182481E+02 -0.13951284635E+02  0.50528778888E+02  0.29999753907E+02 0.  0.
         12    1    1    2    0    0 -0.11125979910E+02 -0.36534182481E+02  0.13951284635E+02  0.40659221112E+02  0.00000000000E+00 0. -1.
         11    1    3    3    0    0  0.40933166832E+01  0.17638086943E+02 -0.78965946385E+01  0.19753823924E+02  0.51100000000E-03 0. -1.
        -11    1    3    3    0    0  0.11361274643E+02  0.20116601685E+02  0.15991859780E+00  0.23103718296E+02  0.51100000000E-03 0.  1.
         12    1    3    3    0    0 -0.43286114165E+01 -0.12205061467E+01 -0.62146085940E+01  0.76712366686E+01  0.00000000000E+00 0. -1.
</event>
<event>
 7    1  0.3141443E-011  0.5052886E+02  0.7816164E-02  0.1300439E+00
        -11   -1    0    0    0    0  0.00000000000E+00  0.00000000000E+00  0.45593999997E+02  0.45594000000E+02  0.51100000000E-03 0. -1.
         11   -1    0    0    0    0 -0.00000000000E+00 -0.00000000000E+00 -0.45593999997E+02  0.45594000000E+02  0.51100000000E-03 0.  1.
    9900012    2    1    2    0    0  0.35904076392E+02 -0.16526501076E+02 -0.95361456154E+01  0.50528855732E+02  0.29999987484E+02 0.  0.
         12    1    1    2    0    0 -0.35904076392E+02  0.16526501076E+02  0.95361456154E+01  0.40659144268E+02  0.00000000000E+00 0. -1.
         11    1    3    3    0    0  0.86696550030E+01  0.13461306539E+01 -0.99401899276E+00  0.88296692819E+01  0.51100000000E-03 0. -1.
        -11    1    3    3    0    0  0.26135280530E+02 -0.53661270161E+01 -0.30264183560E+00  0.26682200057E+02  0.51100000000E-03 0.  1.
        -12    1    3    3    0    0  0.10991408591E+01 -0.12506504714E+02 -0.82394847871E+01  0.15016986393E+02  0.00000000000E+00 0.  1.
</event>
<event>
 7    1  0.3141443E-011  0.5052885E+02  0.7816164E-02  0.1300439E+00
        -11   -1    0    0    0    0  0.00000000000E+00  0.00000000000E+00  0.45593999997E+02  0.45594000000E+02  0.51100000000E-03 0. -1.
         11   -1    0    0    0    0 -0.00000000000E+00 -0.00000000000E+00 -0.45593999997E+02  0.45594000000E+02  0.51100000000E-03 0.  1.
    9900012    2    1    2    0    0 -0.93932795777E+01  0.14015163397E+02 -0.36993352467E+02  0.50528848103E+02  0.29999964293E+02 0.  0.
         12    1    1    2    0    0  0.93932795777E+01 -0.14015163397E+02  0.36993352467E+02  0.40659151897E+02  0.00000000000E+00 0. -1.
         11    1    3    3    0    0 -0.33077872844E+00 -0.21024295626E+01  0.22684357358E+01  0.31105346135E+01  0.51100000000E-03 0. -1.
        -11    1    3    3    0    0  0.29902835592E+00  0.11331178205E+02 -0.66238257374E+01  0.13128597988E+02  0.51100000000E-03 0.  1.
         12    1    3    3    0    0 -0.93615292052E+01  0.47864147546E+01 -0.32637962465E+02  0.34289715501E+02  0.00000000000E+00 0. -1.
</event>
<event>
 7    1  0.3141443E-011  0.5052887E+02  0.7816164E-02  0.1300439E+00
        -11   -1    0    0    0    0  0.00000000000E+00  0.00000000000E+00  0.45593999997E+02  0.45594000000E+02  0.51100000000E-03 0. -1.
         11   -1    0    0    0    0 -0.00000000000E+00 -0.00000000000E+00 -0.45593999997E+02  0.45594000000E+02  0.51100000000E-03 0.  1.
    9900012    2    1    2    0    0  0.31801763281E+02  0.20331714154E+02 -0.15114048164E+02  0.50528865724E+02  0.30000017854E+02 0.  0.
         12    1    1    2    0    0 -0.31801763281E+02 -0.20331714154E+02  0.15114048164E+02  0.40659134276E+02  0.00000000000E+00 0. -1.
         11    1    3    3    0    0  0.14770287621E+01 -0.67645539651E+00  0.33955312571E+01  0.37641517832E+01  0.51100000000E-03 0. -1.
        -11    1    3    3    0    0 -0.97166358999E-02  0.30025695498E+01 -0.10049737479E+02  0.10488695914E+02  0.51100000000E-03 0.  1.
         12    1    3    3    0    0  0.30334451155E+02  0.18005600001E+02 -0.84598419419E+01  0.36276018027E+02  0.00000000000E+00 0. -1.
</event>
<event>
 7    1  0.3141443E-011  0.5052886E+02  0.7816164E-02  0.1300439E+00
        -11   -1    0    0    0    0  0.00000000000E+00  0.00000000000E+00  0.45593999997E+02  0.45594000000E+02  0.51100000000E-03 0. -1.
         11   -1    0    0    0    0 -0.00000000000E+00 -0.00000000000E+00 -0.45593999997E+02  0.45594000000E+02  0.51100000000E-03 0.  1.
    9900012    2    1    2    0    0  0.27067732281E+02  0.14409268148E+02 -0.26699740971E+02  0.50528864405E+02  0.30000013847E+02 0.  0.
         12    1    1    2    0    0 -0.27067732281E+02 -0.14409268148E+02  0.26699740971E+02  0.40659135595E+02  0.00000000000E+00 0. -1.
         11    1    3    3    0    0  0.37561167449E+01 -0.15689556015E+01  0.57370812922E+00  0.41108607322E+01  0.51100000000E-03 0. -1.
        -11    1    3    3    0    0  0.21758208997E+02  0.23719276743E+01 -0.23708991719E+02  0.32267041827E+02  0.51100000000E-03 0.  1.
         12    1    3    3    0    0  0.15534065394E+01  0.13606296075E+02 -0.35644573805E+01  0.14150961846E+02  0.00000000000E+00 0. -1.
</event>
<event>
 7    1  0.3141443E-011  0.5052887E+02  0.7816164E-02  0.1300439E+00
        -11   -1    0    0    0    0  0.00000000000E+00  0.00000000000E+00  0.45593999997E+02  0.45594000000E+02  0.51100000000E-03 0. -1.
         11   -1    0    0    0    0 -0.00000000000E+00 -0.00000000000E+00 -0.45593999997E+02  0.45594000000E+02  0.51100000000E-03 0.  1.
    9900012    2    1    2    0    0 -0.65273126763E+01  0.39977298497E+02  0.35177925729E+01  0.50528867317E+02  0.30000022698E+02 0.  0.
         12    1    1    2    0    0  0.65273126763E+01 -0.39977298497E+02 -0.35177925729E+01  0.40659132683E+02  0.00000000000E+00 0. -1.
         11    1    3    3    0    0  0.19513334867E+01  0.18261588362E+02  0.55065870117E+01  0.19173309903E+02  0.51100000000E-03 0. -1.
        -11    1    3    3    0    0 -0.17769499066E+01  0.54580991281E+01  0.89599271083E+01  0.10640897101E+02  0.51100000000E-03 0.  1.
        -12    1    3    3    0    0 -0.67016962564E+01  0.16257611007E+02 -0.10948721547E+02  0.20714660313E+02  0.00000000000E+00 0.  1.
</event>
<event>
 7    1  0.3141443E-011  0.5052894E+02  0.7816164E-02  0.1300439E+00
        -11   -1    0    0    0    0  0.00000000000E+00  0.00000000000E+00  0.45593999997E+02  0.45594000000E+02  0.51100000000E-03 0.  1.
         11   -1    0    0    0    0 -0.00000000000E+00 -0.00000000000E+00 -0.45593999997E+02  0.45594000000E+02  0.51100000000E-03 0. -1.
    9900012    2    1    2    0    0  0.13649499099E+02  0.38203787230E+02 -0.27057032020E+01  0.50528941794E+02  0.30000249077E+02 0.  0.
         12    1    1    2    0    0 -0.13649499099E+02 -0.38203787230E+02  0.27057032020E+01  0.40659058206E+02  0.00000000000E+00 0. -1.
         11    1    3    3    0    0 -0.29106252577E+01 -0.10999812190E+01  0.54489360737E+00  0.31588933786E+01  0.51100000000E-03 0.  1.
        -11    1    3    3    0    0 -0.36038241663E+01  0.49484737862E+01 -0.43656433556E+01  0.75188951052E+01  0.51100000000E-03 0. -1.
        -12    1    3    3    0    0  0.20163948523E+02  0.34355294663E+02  0.11150465463E+01  0.39851153311E+02  0.00000000000E+00 0.  1.
</event>
<event>
 7    1  0.3141443E-011  0.5052885E+02  0.7816164E-02  0.1300439E+00
        -11   -1    0    0    0    0  0.00000000000E+00  0.00000000000E+00  0.45593999997E+02  0.45594000000E+02  0.51100000000E-03 0. -1.
         11   -1    0    0    0    0 -0.00000000000E+00 -0.00000000000E+00 -0.45593999997E+02  0.45594000000E+02  0.51100000000E-03 0.  1.
    9900012    2    1    2    0    0  0.39822058340E+02 -0.62645007039E+00  0.81840119357E+01  0.50528845785E+02  0.29999957249E+02 0.  0.
         12    1    1    2    0    0 -0.39822058340E+02  0.62645007039E+00 -0.81840119357E+01  0.40659154215E+02  0.00000000000E+00 0. -1.
         11    1    3    3    0    0  0.18489311406E+02 -0.64782720305E+01  0.67371271200E+01  0.20717420854E+02  0.51100000000E-03 0. -1.
        -11    1    3    3    0    0  0.21874904234E+02  0.90918885284E+01  0.57700658290E+01  0.24381704866E+02  0.51100000000E-03 0.  1.
        -12    1    3    3    0    0 -0.54215730005E+00 -0.32400665684E+01 -0.43231810133E+01  0.54297200645E+01  0.00000000000E+00 0.  1.
</event>
<event>
 7    1  0.3141443E-011  0.5052885E+02  0.7816164E-02  0.1300439E+00
        -11   -1    0    0    0    0  0.00000000000E+00  0.00000000000E+00  0.45593999997E+02  0.45594000000E+02  0.51100000000E-03 0.  1.
         11   -1    0    0    0    0 -0.00000000000E+00 -0.00000000000E+00 -0.45593999997E+02  0.45594000000E+02  0.51100000000E-03 0. -1.
    9900012    2    1    2    0    0 -0.18658476101E+02  0.30504664228E+02 -0.19351834113E+02  0.50528846620E+02  0.29999959786E+02 0.  0.
         12    1    1    2    0    0  0.18658476101E+02 -0.30504664228E+02  0.19351834113E+02  0.40659153380E+02  0.00000000000E+00 0. -1.
         11    1    3    3    0    0 -0.42325568801E+01  0.13868042085E+02  0.44658587120E+01  0.15171717876E+02  0.51100000000E-03 0.  1.
        -11    1    3    3    0    0 -0.89355187305E-01  0.48743550547E+01 -0.13009790455E+02  0.13893234666E+02  0.51100000000E-03 0. -1.
        -12    1    3    3    0    0 -0.14336564033E+02  0.11762267088E+02 -0.10807902370E+02  0.21463894078E+02  0.00000000000E+00 0.  1.
</event>
<event>
 7    1  0.3141443E-011  0.5052886E+02  0.7816164E-02  0.1300439E+00
        -11   -1    0    0    0    0  0.00000000000E+00  0.00000000000E+00  0.45593999997E+02  0.45594000000E+02  0.51100000000E-03 0. -1.
         11   -1    0    0    0    0 -0.00000000000E+00 -0.00000000000E+00 -0.45593999997E+02  0.45594000000E+02  0.51100000000E-03 0.  1.
    9900012    2    1    2    0    0  0.17390432677E+01  0.40615734570E+02  0.70964738870E+00  0.50528858770E+02  0.29999996716E+02 0.  0.
         12    1    1    2    0    0 -0.17390432677E+01 -0.40615734570E+02 -0.70964738870E+00  0.40659141230E+02  0.00000000000E+00 0. -1.
         11    1    3    3    0    0 -0.44311005774E+01 -0.46409521005E+00  0.26817764189E+01  0.52001886229E+01  0.51100000000E-03 0. -1.
        -11    1    3    3    0    0 -0.64246250675E+01  0.15025716307E+02 -0.37239811724E+00  0.16345844683E+02  0.51100000000E-03 0.  1.
        -12    1    3    3    0    0  0.12594768913E+02  0.26054113474E+02 -0.15997309130E+01  0.28982825464E+02  0.00000000000E+00 0.  1.
</event>
<event>
 7    1  0.3141443E-011  0.5052887E+02  0.7816164E-02  0.1300439E+00
        -11   -1    0    0    0    0  0.00000000000E+00  0.00000000000E+00  0.45593999997E+02  0.45594000000E+02  0.51100000000E-03 0.  1.
         11   -1    0    0    0    0 -0.00000000000E+00 -0.00000000000E+00 -0.45593999997E+02  0.45594000000E+02  0.51100000000E-03 0. -1.
    9900012    2    1    2    0    0  0.19458568418E+02  0.29534904864E+02  0.20055392187E+02  0.50528865160E+02  0.30000016139E+02 0.  0.
         12    1    1    2    0    0 -0.19458568418E+02 -0.29534904864E+02 -0.20055392187E+02  0.40659134840E+02  0.00000000000E+00 0. -1.
         11    1    3    3    0    0  0.97229715215E+01  0.40212248047E+01 -0.24410364520E+01  0.10801161204E+02  0.51100000000E-03 0. -1.
        -11    1    3    3    0    0 -0.49183300951E+01  0.43793954634E+01  0.21268058707E+01  0.69204319968E+01  0.51100000000E-03 0.  1.
        -12    1    3    3    0    0  0.14653926992E+02  0.21134284596E+02  0.20369622768E+02  0.32807271959E+02  0.00000000000E+00 0.  1.
</event>
<event>
 7    1  0.3141443E-011  0.5052886E+02  0.7816164E-02  0.1300439E+00
        -11   -1    0    0    0    0  0.00000000000E+00  0.00000000000E+00  0.45593999997E+02  0.45594000000E+02  0.51100000000E-03 0. -1.
         11   -1    0    0    0    0 -0.00000000000E+00 -0.00000000000E+00 -0.45593999997E+02  0.45594000000E+02  0.51100000000E-03 0.  1.
    9900012    2    1    2    0    0 -0.18014043749E+02 -0.27079748800E+02 -0.24399730555E+02  0.50528863039E+02  0.30000009693E+02 0.  0.
         12    1    1    2    0    0  0.18014043749E+02  0.27079748800E+02  0.24399730555E+02  0.40659136961E+02  0.00000000000E+00 0. -1.
         11    1    3    3    0    0 -0.15487297008E+02 -0.33761236206E+01 -0.11517082689E+02  0.19593309399E+02  0.51100000000E-03 0. -1.
        -11    1    3    3    0    0  0.11777200439E+01  0.16748675982E+01  0.34754888495E+00  0.20767754963E+01  0.51100000000E-03 0.  1.
        -12    1    3    3    0    0 -0.37044667853E+01 -0.25378492778E+02 -0.13230196751E+02  0.28858778143E+02  0.00000000000E+00 0.  1.
</event>
<event>
 7    1  0.3141443E-011  0.5052896E+02  0.7816164E-02  0.1300438E+00
        -11   -1    0    0    0    0  0.00000000000E+00  0.00000000000E+00  0.45593999997E+02  0.45594000000E+02  0.51100000000E-03 0.  1.
         11   -1    0    0    0    0 -0.00000000000E+00 -0.00000000000E+00 -0.45593999997E+02  0.45594000000E+02  0.51100000000E-03 0. -1.
    9900012    2    1    2    0    0  0.11035102143E+02  0.13098586617E+02  0.36875612703E+02  0.50528963330E+02  0.30000314536E+02 0.  0.
         12    1    1    2    0    0 -0.11035102143E+02 -0.13098586617E+02 -0.36875612703E+02  0.40659036670E+02  0.00000000000E+00 0. -1.
         11    1    3    3    0    0 -0.38534981098E+01 -0.56657675632E+01  0.63201736384E+01  0.93217468772E+01  0.51100000000E-03 0. -1.
        -11    1    3    3    0    0  0.74746064866E+01  0.91501978657E+00  0.45235703794E+01  0.87846281980E+01  0.51100000000E-03 0.  1.
        -12    1    3    3    0    0  0.74139937662E+01  0.17849334394E+02  0.26031868686E+02  0.32422588255E+02  0.00000000000E+00 0.  1.
</event>
<event>
 7    1  0.3141443E-011  0.5052880E+02  0.7816164E-02  0.1300439E+00
        -11   -1    0    0    0    0  0.00000000000E+00  0.00000000000E+00  0.45593999997E+02  0.45594000000E+02  0.51100000000E-03 0. -1.
         11   -1    0    0    0    0 -0.00000000000E+00 -0.00000000000E+00 -0.45593999997E+02  0.45594000000E+02  0.51100000000E-03 0.  1.
    9900012    2    1    2    0    0  0.12031710403E+02  0.32175486281E+02 -0.21751932428E+02  0.50528800094E+02  0.29999818366E+02 0.  0.
         12    1    1    2    0    0 -0.12031710403E+02 -0.32175486281E+02  0.21751932428E+02  0.40659199906E+02  0.00000000000E+00 0. -1.
         11    1    3    3    0    0  0.20938601871E+01  0.44642905408E+01 -0.12032315793E+02  0.13003490459E+02  0.51100000000E-03 0.  1.
        -11    1    3    3    0    0 -0.31175376730E+01  0.20983105152E+02 -0.31891694578E+01  0.21451819155E+02  0.51100000000E-03 0. -1.
         12    1    3    3    0    0  0.13055387889E+02  0.67280905881E+01 -0.65304471770E+01  0.16073490480E+02  0.00000000000E+00 0. -1.
</event>
<event>
 7    1  0.3141443E-011  0.5052886E+02  0.7816164E-02  0.1300439E+00
        -11   -1    0    0    0    0  0.00000000000E+00  0.00000000000E+00  0.45593999997E+02  0.45594000000E+02  0.51100000000E-03 0.  1.
         11   -1    0    0    0    0 -0.00000000000E+00 -0.00000000000E+00 -0.45593999997E+02  0.45594000000E+02  0.51100000000E-03 0. -1.
    9900012    2    1    2    0    0  0.19868663027E+02 -0.16350697106E+02  0.31481048443E+02  0.50528862313E+02  0.30000007487E+02 0.  0.
         12    1    1    2    0    0 -0.19868663027E+02  0.16350697106E+02 -0.31481048443E+02  0.40659137687E+02  0.00000000000E+00 0. -1.
         11    1    3    3    0    0  0.20324405285E+02  0.79407688974E+00  0.14697789151E+02  0.25094561452E+02  0.51100000000E-03 0. -1.
        -11    1    3    3    0    0  0.28510722126E+01 -0.42115133765E+01  0.79137282493E+01  0.94070480358E+01  0.51100000000E-03 0.  1.
        -12    1    3    3    0    0 -0.33068144702E+01 -0.12933260620E+02  0.88695310425E+01  0.16027252825E+02  0.00000000000E+00 0.  1.
</event>
<event>
 7    1  0.3141443E-011  0.5052887E+02  0.7816164E-02  0.1300439E+00
        -11   -1    0    0    0    0  0.00000000000E+00  0.00000000000E+00  0.45593999997E+02  0.45594000000E+02  0.51100000000E-03 0.  1.
         11   -1    0    0    0    0 -0.00000000000E+00 -0.00000000000E+00 -0.45593999997E+02  0.45594000000E+02  0.51100000000E-03 0. -1.
    9900012    2    1    2    0    0  0.33256822751E+02 -0.61300274575E+01  0.22573688650E+02  0.50528869225E+02  0.30000028496E+02 0.  0.
         12    1    1    2    0    0 -0.33256822751E+02  0.61300274575E+01 -0.22573688650E+02  0.40659130775E+02  0.00000000000E+00 0. -1.
         11    1    3    3    0    0  0.96009667629E+01 -0.10780838290E+02  0.14725811820E+02  0.20621701459E+02  0.51100000000E-03 0. -1.
        -11    1    3    3    0    0  0.62995857078E+01  0.52209768736E+01  0.94121245606E+01  0.12471225626E+02  0.51100000000E-03 0.  1.
        -12    1    3    3    0    0  0.17356270280E+02 -0.57016604076E+00 -0.15642477309E+01  0.17435942140E+02  0.00000000000E+00 0.  1.
</event>
<event>
 7    1  0.3141443E-011  0.5052886E+02  0.7816164E-02  0.1300439E+00
        -11   -1    0    0    0    0  0.00000000000E+00  0.00000000000E+00  0.45593999997E+02  0.45594000000E+02  0.51100000000E-03 0. -1.
         11   -1    0    0    0    0 -0.00000000000E+00 -0.00000000000E+00 -0.45593999997E+02  0.45594000000E+02  0.51100000000E-03 0.  1.
    9900012    2    1    2    0    0  0.37188197511E+02  0.11893395385E+02 -0.11346833230E+02  0.50528861885E+02  0.30000006185E+02 0.  0.
         12    1    1    2    0    0 -0.37188197511E+02 -0.11893395385E+02  0.11346833230E+02  0.40659138115E+02  0.00000000000E+00 0. -1.
         11    1    3    3    0    0  0.26696293677E+01 -0.50196202601E+01  0.18184692084E+01  0.59691154320E+01  0.51100000000E-03 0. -1.
        -11    1    3    3    0    0  0.95471417518E+01  0.13747726643E+00 -0.10752684659E+02  0.14380091908E+02  0.51100000000E-03 0.  1.
        -12    1    3    3    0    0  0.24971426392E+02  0.16775538378E+02 -0.24126177795E+01  0.30179654545E+02  0.00000000000E+00 0.  1.
</event>
<event>
 7    1  0.3141443E-011  0.5052883E+02  0.7816164E-02  0.1300439E+00
        -11   -1    0    0    0    0  0.00000000000E+00  0.00000000000E+00  0.45593999997E+02  0.45594000000E+02  0.51100000000E-03 0.  1.
         11   -1    0    0    0    0 -0.00000000000E+00 -0.00000000000E+00 -0.45593999997E+02  0.45594000000E+02  0.51100000000E-03 0. -1.
    9900012    2    1    2    0    0  0.12505793727E+02  0.21242118811E+02  0.32334893742E+02  0.50528833240E+02  0.29999919115E+02 0.  0.
         12    1    1    2    0    0 -0.12505793727E+02 -0.21242118811E+02 -0.32334893742E+02  0.40659166760E+02  0.00000000000E+00 0. -1.
         11    1    3    3    0    0  0.86777801012E+00  0.46618618149E+01 -0.22454108956E+01  0.52467003543E+01  0.51100000000E-03 0. -1.
        -11    1    3    3    0    0 -0.30436610047E+01  0.29138545835E+01  0.20116682454E+02  0.20553231718E+02  0.51100000000E-03 0.  1.
        -12    1    3    3    0    0  0.14681676722E+02  0.13666402412E+02  0.14463622184E+02  0.24728901167E+02  0.00000000000E+00 0.  1.
</event>
<event>
 7    1  0.3141443E-011  0.5052886E+02  0.7816164E-02  0.1300439E+00
        -11   -1    0    0    0    0  0.00000000000E+00  0.00000000000E+00  0.45593999997E+02  0.45594000000E+02  0.51100000000E-03 0.  1.
         11   -1    0    0    0    0 -0.00000000000E+00 -0.00000000000E+00 -0.45593999997E+02  0.45594000000E+02  0.51100000000E-03 0. -1.
    9900012    2    1    2    0    0 -0.13742941409E+02 -0.35003764527E+02  0.15460721473E+02  0.50528857386E+02  0.29999992510E+02 0.  0.
         12    1    1    2    0    0  0.13742941409E+02  0.35003764527E+02 -0.15460721473E+02  0.40659142614E+02  0.00000000000E+00 0. -1.
         11    1    3    3    0    0 -0.12513280961E+02 -0.15002297227E+02 -0.53711407755E+01  0.20260806400E+02  0.51100000000E-03 0. -1.
        -11    1    3    3    0    0  0.17757481404E+01 -0.15433058278E+02  0.11058575456E+02  0.19068944928E+02  0.51100000000E-03 0.  1.
        -12    1    3    3    0    0 -0.30054085887E+01 -0.45684090214E+01  0.97732867918E+01  0.11199106057E+02  0.00000000000E+00 0.  1.
</event>
<event>
 7    1  0.3141443E-011  0.5052887E+02  0.7816164E-02  0.1300439E+00
        -11   -1    0    0    0    0  0.00000000000E+00  0.00000000000E+00  0.45593999997E+02  0.45594000000E+02  0.51100000000E-03 0.  1.
         11   -1    0    0    0    0 -0.00000000000E+00 -0.00000000000E+00 -0.45593999997E+02  0.45594000000E+02  0.51100000000E-03 0. -1.
    9900012    2    1    2    0    0 -0.17649359292E+02  0.32026983552E+02  0.17774628936E+02  0.50528868275E+02  0.30000025607E+02 0.  0.
         12    1    1    2    0    0  0.17649359292E+02 -0.32026983552E+02 -0.17774628936E+02  0.40659131725E+02  0.00000000000E+00 0. -1.
         11    1    3    3    0    0 -0.75865022786E+01  0.40500473715E+01  0.23122413584E+01  0.89052995960E+01  0.51100000000E-03 0. -1.
        -11    1    3    3    0    0  0.80185244304E+01  0.12175243191E+02  0.47861305310E+01  0.15344064863E+02  0.51100000000E-03 0.  1.
         12    1    3    3    0    0 -0.18081381444E+02  0.15801692989E+02  0.10676257047E+02  0.26279503815E+02  0.00000000000E+00 0. -1.
</event>
<event>
 7    1  0.3141443E-011  0.5052886E+02  0.7816164E-02  0.1300439E+00
        -11   -1    0    0    0    0  0.00000000000E+00  0.00000000000E+00  0.45593999997E+02  0.45594000000E+02  0.51100000000E-03 0.  1.
         11   -1    0    0    0    0 -0.00000000000E+00 -0.00000000000E+00 -0.45593999997E+02  0.45594000000E+02  0.51100000000E-03 0. -1.
    9900012    2    1    2    0    0 -0.10344983296E+02 -0.34450519934E+02  0.18955432302E+02  0.50528863058E+02  0.30000009750E+02 0.  0.
         12    1    1    2    0    0  0.10344983296E+02  0.34450519934E+02 -0.18955432302E+02  0.40659136942E+02  0.00000000000E+00 0. -1.
         11    1    3    3    0    0  0.16611664589E+01 -0.14186933191E+02 -0.32111739442E+01  0.14640361530E+02  0.51100000000E-03 0. -1.
        -11    1    3    3    0    0  0.26678687190E+01 -0.46579801337E+01  0.97472887725E+01  0.11127620640E+02  0.51100000000E-03 0.  1.
        -12    1    3    3    0    0 -0.14674018474E+02 -0.15605606610E+02  0.12419317473E+02  0.24760880888E+02  0.00000000000E+00 0.  1.
</event>
<event>
 7    1  0.3141443E-011  0.5052886E+02  0.7816164E-02  0.1300439E+00
        -11   -1    0    0    0    0  0.00000000000E+00  0.00000000000E+00  0.45593999997E+02  0.45594000000E+02  0.51100000000E-03 0.  1.
         11   -1    0    0    0    0 -0.00000000000E+00 -0.00000000000E+00 -0.45593999997E+02  0.45594000000E+02  0.51100000000E-03 0. -1.
    9900012    2    1    2    0    0 -0.95722233038E+01  0.13571453489E+02  0.37112719806E+02  0.50528858590E+02  0.29999996170E+02 0.  0.
         12    1    1    2    0    0  0.95722233038E+01 -0.13571453489E+02 -0.37112719806E+02  0.40659141410E+02  0.00000000000E+00 0. -1.
         11    1    3    3    0    0 -0.24476771303E+01 -0.25774584251E+01 -0.25235809399E+01  0.43592288640E+01  0.51100000000E-03 0. -1.
        -11    1    3    3    0    0 -0.38507631027E+01  0.10480978567E+02  0.76855886594E+01  0.13555351766E+02  0.51100000000E-03 0.  1.
        -12    1    3    3    0    0 -0.32737830708E+01  0.56679333475E+01  0.31950712087E+02  0.32614277960E+02  0.00000000000E+00 0.  1.
</event>
<event>
 7    1  0.3141443E-011  0.5052886E+02  0.7816164E-02  0.1300439E+00
        -11   -1    0    0    0    0  0.00000000000E+00  0.00000000000E+00  0.45593999997E+02  0.45594000000E+02  0.51100000000E-03 0.  1.
         11   -1    0    0    0    0 -0.00000000000E+00 -0.00000000000E+00 -0.45593999997E+02  0.45594000000E+02  0.51100000000E-03 0. -1.
    9900012    2    1    2    0    0  0.32672816489E+02 -0.23883605469E+02 -0.39020280013E+01  0.50528863634E+02  0.30000011501E+02 0.  0.
         12    1    1    2    0    0 -0.32672816489E+02  0.23883605469E+02  0.39020280013E+01  0.40659136366E+02  0.00000000000E+00 0. -1.
         11    1    3    3    0    0  0.11234521944E+02 -0.14109507626E+02 -0.69809336954E+01  0.19339755021E+02  0.51100000000E-03 0. -1.
        -11    1    3    3    0    0  0.21293686189E+01 -0.10894626407E+02  0.40673541054E+01  0.11822455961E+02  0.51100000000E-03 0.  1.
        -12    1    3    3    0    0  0.19308925926E+02  0.11205285637E+01 -0.98844841132E+00  0.19366652652E+02  0.00000000000E+00 0.  1.
</event>
<event>
 7    1  0.3141443E-011  0.5052886E+02  0.7816164E-02  0.1300439E+00
        -11   -1    0    0    0    0  0.00000000000E+00  0.00000000000E+00  0.45593999997E+02  0.45594000000E+02  0.51100000000E-03 0. -1.
         11   -1    0    0    0    0 -0.00000000000E+00 -0.00000000000E+00 -0.45593999997E+02  0.45594000000E+02  0.51100000000E-03 0.  1.
    9900012    2    1    2    0    0  0.33097688391E+02 -0.17239373051E+01 -0.23552845997E+02  0.50528862144E+02  0.30000006972E+02 0.  0.
         12    1    1    2    0    0 -0.33097688391E+02  0.17239373051E+01  0.23552845997E+02  0.40659137856E+02  0.00000000000E+00 0. -1.
         11    1    3    3    0    0  0.26121398746E+01  0.38977261455E+01 -0.23319437339E+00  0.46978637386E+01  0.51100000000E-03 0. -1.
        -11    1    3    3    0    0  0.21019377567E+01 -0.22242684766E+01 -0.16044223316E+02  0.16333481400E+02  0.51100000000E-03 0.  1.
         12    1    3    3    0    0  0.28383610760E+02 -0.33973949739E+01 -0.72754283073E+01  0.29497517005E+02  0.00000000000E+00 0. -1.
</event>
<event>
 7    1  0.3141443E-011  0.5052884E+02  0.7816164E-02  0.1300439E+00
        -11   -1    0    0    0    0  0.00000000000E+00  0.00000000000E+00  0.45593999997E+02  0.45594000000E+02  0.51100000000E-03 0.  1.
         11   -1    0    0    0    0 -0.00000000000E+00 -0.00000000000E+00 -0.45593999997E+02  0.45594000000E+02  0.51100000000E-03 0. -1.
    9900012    2    1    2    0    0  0.13516458746E+02 -0.13867304912E+02  0.35751506621E+02  0.50528843243E+02  0.29999949521E+02 0.  0.
         12    1    1    2    0    0 -0.13516458746E+02  0.13867304912E+02 -0.35751506621E+02  0.40659156757E+02  0.00000000000E+00 0. -1.
         11    1    3    3    0    0  0.12421202637E+02 -0.17470829775E+02  0.10592070136E+02  0.23910418608E+02  0.51100000000E-03 0. -1.
        -11    1    3    3    0    0  0.32412340459E+01 -0.10967404514E+01  0.80840898513E+01  0.87784364635E+01  0.51100000000E-03 0.  1.
        -12    1    3    3    0    0 -0.21459779378E+01  0.47002653135E+01  0.17075346633E+02  0.17839988172E+02  0.00000000000E+00 0.  1.
</event>
<event>
 7    1  0.3141443E-011  0.5052900E+02  0.7816164E-02  0.1300438E+00
        -11   -1    0    0    0    0  0.00000000000E+00  0.00000000000E+00  0.45593999997E+02  0.45594000000E+02  0.51100000000E-03 0.  1.
         11   -1    0    0    0    0 -0.00000000000E+00 -0.00000000000E+00 -0.45593999997E+02  0.45594000000E+02  0.51100000000E-03 0. -1.
    9900012    2    1    2    0    0  0.16618707393E+02 -0.51978408668E+00  0.37103948591E+02  0.50528995930E+02  0.30000413625E+02 0.  0.
         12    1    1    2    0    0 -0.16618707393E+02  0.51978408668E+00 -0.37103948591E+02  0.40659004070E+02  0.00000000000E+00 0. -1.
         11    1    3    3    0    0  0.23618125852E+01  0.71209348586E+00  0.13178443660E+02  0.13407334313E+02  0.51100000000E-03 0. -1.
        -11    1    3    3    0    0 -0.65758111965E+01 -0.34120918217E+01  0.69874836939E+01  0.10183741558E+02  0.51100000000E-03 0.  1.
         12    1    3    3    0    0  0.20832706004E+02  0.21802142492E+01  0.16938021237E+02  0.26937920058E+02  0.00000000000E+00 0. -1.
</event>
<event>
 7    1  0.3141443E-011  0.5052887E+02  0.7816164E-02  0.1300439E+00
        -11   -1    0    0    0    0  0.00000000000E+00  0.00000000000E+00  0.45593999997E+02  0.45594000000E+02  0.51100000000E-03 0.  1.
         11   -1    0    0    0    0 -0.00000000000E+00 -0.00000000000E+00 -0.45593999997E+02  0.45594000000E+02  0.51100000000E-03 0. -1.
    9900012    2    1    2    0    0 -0.17291997366E+02  0.15313318747E+02  0.33461234076E+02  0.50528867079E+02  0.30000021974E+02 0.  0.
         12    1    1    2    0    0  0.17291997366E+02 -0.15313318747E+02 -0.33461234076E+02  0.40659132921E+02  0.00000000000E+00 0. -1.
         11    1    3    3    0    0 -0.74377361467E+01  0.61964260583E+01  0.10730381266E+02  0.14451875216E+02  0.51100000000E-03 0. -1.
        -11    1    3    3    0    0 -0.91245365072E+01  0.17342542231E+02  0.17704235792E+02  0.26409485091E+02  0.51100000000E-03 0.  1.
         12    1    3    3    0    0 -0.72972471208E+00 -0.82256495426E+01  0.50266170187E+01  0.96675067730E+01  0.00000000000E+00 0. -1.
</event>
<event>
 7    1  0.3141443E-011  0.5052885E+02  0.7816164E-02  0.1300439E+00
        -11   -1    0    0    0    0  0.00000000000E+00  0.00000000000E+00  0.45593999997E+02  0.45594000000E+02  0.51100000000E-03 0. -1.
         11   -1    0    0    0    0 -0.00000000000E+00 -0.00000000000E+00 -0.45593999997E+02  0.45594000000E+02  0.51100000000E-03 0.  1.
    9900012    2    1    2    0    0 -0.15186101967E+02  0.36795426523E+02  0.82852539520E+01  0.50528849259E+02  0.29999967806E+02 0.  0.
         12    1    1    2    0    0  0.15186101967E+02 -0.36795426523E+02 -0.82852539520E+01  0.40659150741E+02  0.00000000000E+00 0. -1.
         11    1    3    3    0    0 -0.13702449210E+02  0.18330785407E+02  0.12446909388E+01  0.22919949036E+02  0.51100000000E-03 0. -1.
        -11    1    3    3    0    0 -0.66650999117E+01  0.15497161801E+02 -0.17736003745E+01  0.16962642461E+02  0.51100000000E-03 0.  1.
         12    1    3    3    0    0  0.51814471548E+01  0.29674793147E+01  0.88141633877E+01  0.10646257762E+02  0.00000000000E+00 0. -1.
</event>
<event>
 7    1  0.4343767E-011  0.5052886E+02  0.7816164E-02  0.1300439E+00
        -11   -1    0    0    0    0  0.00000000000E+00  0.00000000000E+00  0.45593999997E+02  0.45594000000E+02  0.51100000000E-03 0.  1.
         11   -1    0    0    0    0 -0.00000000000E+00 -0.00000000000E+00 -0.45593999997E+02  0.45594000000E+02  0.51100000000E-03 0. -1.
    9900012    2    1    2    0    0  0.14650037205E+02 -0.36209495780E+02  0.11287802690E+02  0.50528860015E+02  0.30000000503E+02 0.  0.
         12    1    1    2    0    0 -0.14650037205E+02  0.36209495780E+02 -0.11287802690E+02  0.40659139985E+02  0.00000000000E+00 0. -1.
         11    1    3    3    0    0 -0.43206103606E+01 -0.16741045004E+01 -0.12546761415E+01  0.48004700027E+01  0.51100000000E-03 0. -1.
        -11    1    3    3    0    0  0.75040842698E+01 -0.87280391103E-01  0.68974766967E+00  0.75362225753E+01  0.51100000000E-03 0.  1.
        -12    1    3    3    0    0  0.11466563295E+02 -0.34448110888E+02  0.11852731162E+02  0.38192167437E+02  0.00000000000E+00 0.  1.
</event>
<event>
 7    1  0.3141443E-011  0.5052886E+02  0.7816164E-02  0.1300439E+00
        -11   -1    0    0    0    0  0.00000000000E+00  0.00000000000E+00  0.45593999997E+02  0.45594000000E+02  0.51100000000E-03 0.  1.
         11   -1    0    0    0    0 -0.00000000000E+00 -0.00000000000E+00 -0.45593999997E+02  0.45594000000E+02  0.51100000000E-03 0. -1.
    9900012    2    1    2    0    0 -0.12896589332E+02 -0.16260176675E+02  0.34963552443E+02  0.50528863740E+02  0.30000011825E+02 0.  0.
         12    1    1    2    0    0  0.12896589332E+02  0.16260176675E+02 -0.34963552443E+02  0.40659136260E+02  0.00000000000E+00 0. -1.
         11    1    3    3    0    0  0.19652981443E+01  0.56248944222E+01  0.61356027031E+01  0.85526285344E+01  0.51100000000E-03 0. -1.
        -11    1    3    3    0    0 -0.49796032226E+01 -0.12971499306E+02  0.24164773862E+02  0.27874585890E+02  0.51100000000E-03 0.  1.
        -12    1    3    3    0    0 -0.98822842535E+01 -0.89135717912E+01  0.46631758787E+01  0.14101649316E+02  0.00000000000E+00 0.  1.
</event>
<event>
 7    1  0.3141443E-011  0.5052887E+02  0.7816164E-02  0.1300439E+00
        -11   -1    0    0    0    0  0.00000000000E+00  0.00000000000E+00  0.45593999997E+02  0.45594000000E+02  0.51100000000E-03 0.  1.
         11   -1    0    0    0    0 -0.00000000000E+00 -0.00000000000E+00 -0.45593999997E+02  0.45594000000E+02  0.51100000000E-03 0. -1.
    9900012    2    1    2    0    0  0.16796342129E+02  0.29062087627E+02  0.22944350178E+02  0.50528865094E+02  0.30000015941E+02 0.  0.
         12    1    1    2    0    0 -0.16796342129E+02 -0.29062087627E+02 -0.22944350178E+02  0.40659134906E+02  0.00000000000E+00 0. -1.
         11    1    3    3    0    0  0.33486385473E+01  0.14533489585E+02  0.30883511214E+01  0.15230679976E+02  0.51100000000E-03 0. -1.
        -11    1    3    3    0    0  0.32429341964E+01  0.16873997770E+02  0.17580474532E+02  0.24582951572E+02  0.51100000000E-03 0.  1.
         12    1    3    3    0    0  0.10204769385E+02 -0.23453997273E+01  0.22755245243E+01  0.10715233546E+02  0.00000000000E+00 0. -1.
</event>
<event>
 7    1  0.3141443E-011  0.5052887E+02  0.7816164E-02  0.1300439E+00
        -11   -1    0    0    0    0  0.00000000000E+00  0.00000000000E+00  0.45593999997E+02  0.45594000000E+02  0.51100000000E-03 0. -1.
         11   -1    0    0    0    0 -0.00000000000E+00 -0.00000000000E+00 -0.45593999997E+02  0.45594000000E+02  0.51100000000E-03 0.  1.
    9900012    2    1    2    0    0  0.36700541492E+01  0.35739757706E+02 -0.19035904878E+02  0.50528865074E+02  0.30000015880E+02 0.  0.
         12    1    1    2    0    0 -0.36700541492E+01 -0.35739757706E+02  0.19035904878E+02  0.40659134926E+02  0.00000000000E+00 0. -1.
         11    1    3    3    0    0  0.70232694300E+01  0.18702781066E+02 -0.19721808169E+02  0.28072585396E+02  0.51100000000E-03 0. -1.
        -11    1    3    3    0    0 -0.26654452351E+01  0.14896493877E+02 -0.53218873340E+01  0.16041590108E+02  0.51100000000E-03 0.  1.
         12    1    3    3    0    0 -0.68777004577E+00  0.21404827633E+01  0.60077906250E+01  0.64146895708E+01  0.00000000000E+00 0. -1.
</event>
<event>
 7    1  0.3141443E-011  0.5052886E+02  0.7816164E-02  0.1300439E+00
        -11   -1    0    0    0    0  0.00000000000E+00  0.00000000000E+00  0.45593999997E+02  0.45594000000E+02  0.51100000000E-03 0.  1.
         11   -1    0    0    0    0 -0.00000000000E+00 -0.00000000000E+00 -0.45593999997E+02  0.45594000000E+02  0.51100000000E-03 0. -1.
    9900012    2    1    2    0    0  0.22569782584E+02 -0.47156645528E+01  0.33489297586E+02  0.50528860426E+02  0.30000001752E+02 0.  0.
         12    1    1    2    0    0 -0.22569782584E+02  0.47156645528E+01 -0.33489297586E+02  0.40659139574E+02  0.00000000000E+00 0. -1.
         11    1    3    3    0    0  0.85910005220E+01 -0.58579346343E+01  0.13992647822E+02  0.17433154662E+02  0.51100000000E-03 0. -1.
        -11    1    3    3    0    0  0.56833401135E+01 -0.54603963448E+01 -0.28343993928E+01  0.83755658475E+01  0.51100000000E-03 0.  1.
         12    1    3    3    0    0  0.82954419487E+01  0.66026664263E+01  0.22331049157E+02  0.24720139917E+02  0.00000000000E+00 0. -1.
</event>
<event>
 7    1  0.3141443E-011  0.5052885E+02  0.7816164E-02  0.1300439E+00
        -11   -1    0    0    0    0  0.00000000000E+00  0.00000000000E+00  0.45593999997E+02  0.45594000000E+02  0.51100000000E-03 0.  1.
         11   -1    0    0    0    0 -0.00000000000E+00 -0.00000000000E+00 -0.45593999997E+02  0.45594000000E+02  0.51100000000E-03 0. -1.
    9900012    2    1    2    0    0 -0.65213092710E+01  0.22080405529E+02  0.33512601939E+02  0.50528852546E+02  0.29999977800E+02 0.  0.
         12    1    1    2    0    0  0.65213092710E+01 -0.22080405529E+02 -0.33512601939E+02  0.40659147454E+02  0.00000000000E+00 0. -1.
         11    1    3    3    0    0 -0.98781759241E+01  0.20844199437E+01  0.84982429551E+01  0.13196336601E+02  0.51100000000E-03 0. -1.
        -11    1    3    3    0    0  0.39718085962E+01 -0.98907227719E+00 -0.68290620460E+00  0.41496853664E+01  0.51100000000E-03 0.  1.
         12    1    3    3    0    0 -0.61494194315E+00  0.20985057862E+02  0.25697265189E+02  0.33182830579E+02  0.00000000000E+00 0. -1.
</event>
<event>
 7    1  0.3141443E-011  0.5052884E+02  0.7816164E-02  0.1300439E+00
        -11   -1    0    0    0    0  0.00000000000E+00  0.00000000000E+00  0.45593999997E+02  0.45594000000E+02  0.51100000000E-03 0.  1.
         11   -1    0    0    0    0 -0.00000000000E+00 -0.00000000000E+00 -0.45593999997E+02  0.45594000000E+02  0.51100000000E-03 0. -1.
    9900012    2    1    2    0    0  0.29089979714E+02 -0.54710579039E+01  0.27874863562E+02  0.50528838511E+02  0.29999935139E+02 0.  0.
         12    1    1    2    0    0 -0.29089979714E+02  0.54710579039E+01 -0.27874863562E+02  0.40659161489E+02  0.00000000000E+00 0. -1.
         11    1    3    3    0    0  0.10796789545E+02 -0.13317452200E+02  0.69981411324E+01  0.18517537016E+02  0.51100000000E-03 0. -1.
        -11    1    3    3    0    0  0.86454860752E+01 -0.12563754019E+01  0.15308172861E+02  0.17625636591E+02  0.51100000000E-03 0.  1.
        -12    1    3    3    0    0  0.96477040938E+01  0.91027696975E+01  0.55685495683E+01  0.14385664904E+02  0.00000000000E+00 0.  1.
</event>
<event>
 7    1  0.3141443E-011  0.5052886E+02  0.7816164E-02  0.1300439E+00
        -11   -1    0    0    0    0  0.00000000000E+00  0.00000000000E+00  0.45593999997E+02  0.45594000000E+02  0.51100000000E-03 0.  1.
         11   -1    0    0    0    0 -0.00000000000E+00 -0.00000000000E+00 -0.45593999997E+02  0.45594000000E+02  0.51100000000E-03 0. -1.
    9900012    2    1    2    0    0 -0.19511339442E+02 -0.35458238030E+02 -0.38969868998E+01  0.50528861816E+02  0.30000005976E+02 0.  0.
         12    1    1    2    0    0  0.19511339442E+02  0.35458238030E+02  0.38969868998E+01  0.40659138184E+02  0.00000000000E+00 0. -1.
         11    1    3    3    0    0 -0.37879544031E+01 -0.79843835039E+01  0.30680848964E+01  0.93547914830E+01  0.51100000000E-03 0. -1.
        -11    1    3    3    0    0 -0.20390981746E+02 -0.11009421026E+02 -0.64453886616E+01  0.24052910908E+02  0.51100000000E-03 0.  1.
         12    1    3    3    0    0  0.46675967072E+01 -0.16464433500E+02 -0.51968313465E+00  0.17121159425E+02  0.00000000000E+00 0. -1.
</event>
<event>
 7    1  0.3141443E-011  0.5052886E+02  0.7816164E-02  0.1300439E+00
        -11   -1    0    0    0    0  0.00000000000E+00  0.00000000000E+00  0.45593999997E+02  0.45594000000E+02  0.51100000000E-03 0.  1.
         11   -1    0    0    0    0 -0.00000000000E+00 -0.00000000000E+00 -0.45593999997E+02  0.45594000000E+02  0.51100000000E-03 0. -1.
    9900012    2    1    2    0    0 -0.10402896130E+02  0.43600702378E+01  0.39063217468E+02  0.50528863028E+02  0.30000009660E+02 0.  0.
         12    1    1    2    0    0  0.10402896130E+02 -0.43600702378E+01 -0.39063217468E+02  0.40659136972E+02  0.00000000000E+00 0. -1.
         11    1    3    3    0    0  0.19590878347E+01  0.65382346465E+00  0.30486257184E+00  0.20876905221E+01  0.51100000000E-03 0. -1.
        -11    1    3    3    0    0 -0.85349611070E+01  0.14027348152E+02  0.30643934272E+02  0.34765827549E+02  0.51100000000E-03 0.  1.
         12    1    3    3    0    0 -0.38270228581E+01 -0.10321101378E+02  0.81144206242E+01  0.13675344957E+02  0.00000000000E+00 0. -1.
</event>
<event>
 7    1  0.3141443E-011  0.5052888E+02  0.7816164E-02  0.1300439E+00
        -11   -1    0    0    0    0  0.00000000000E+00  0.00000000000E+00  0.45593999997E+02  0.45594000000E+02  0.51100000000E-03 0.  1.
         11   -1    0    0    0    0 -0.00000000000E+00 -0.00000000000E+00 -0.45593999997E+02  0.45594000000E+02  0.51100000000E-03 0. -1.
    9900012    2    1    2    0    0  0.12385134378E+02 -0.19153644196E+02  0.33658738405E+02  0.50528876662E+02  0.30000051103E+02 0.  0.
         12    1    1    2    0    0 -0.12385134378E+02  0.19153644196E+02 -0.33658738405E+02  0.40659123338E+02  0.00000000000E+00 0. -1.
         11    1    3    3    0    0 -0.67397865303E+00 -0.96528371310E+01  0.61779449928E+01  0.11480353501E+02  0.51100000000E-03 0.  1.
        -11    1    3    3    0    0  0.41164115551E+01 -0.17657631612E+01 -0.36307971001E+01  0.57658868767E+01  0.51100000000E-03 0. -1.
         12    1    3    3    0    0  0.89427014764E+01 -0.77350439040E+01  0.31111590512E+02  0.33282636285E+02  0.00000000000E+00 0. -1.
</event>
<event>
 7    1  0.3141443E-011  0.5052885E+02  0.7816164E-02  0.1300439E+00
        -11   -1    0    0    0    0  0.00000000000E+00  0.00000000000E+00  0.45593999997E+02  0.45594000000E+02  0.51100000000E-03 0. -1.
         11   -1    0    0    0    0 -0.00000000000E+00 -0.00000000000E+00 -0.45593999997E+02  0.45594000000E+02  0.51100000000E-03 0.  1.
    9900012    2    1    2    0    0  0.15502108832E+02 -0.24767400988E+02 -0.28274143464E+02  0.50528847051E+02  0.29999961096E+02 0.  0.
         12    1    1    2    0    0 -0.15502108832E+02  0.24767400988E+02  0.28274143464E+02  0.40659152949E+02  0.00000000000E+00 0. -1.
         11    1    3    3    0    0  0.61661182604E+01 -0.12744656251E+02 -0.37531939829E+01  0.14646970427E+02  0.51100000000E-03 0. -1.
        -11    1    3    3    0    0  0.14309752027E+02 -0.14552184394E+02 -0.21001025615E+02  0.29284435300E+02  0.51100000000E-03 0.  1.
         12    1    3    3    0    0 -0.49737614555E+01  0.25294396569E+01 -0.35199238659E+01  0.65974413235E+01  0.00000000000E+00 0. -1.
</event>
<event>
 7    1  0.3141443E-011  0.5052887E+02  0.7816164E-02  0.1300439E+00
        -11   -1    0    0    0    0  0.00000000000E+00  0.00000000000E+00  0.45593999997E+02  0.45594000000E+02  0.51100000000E-03 0.  1.
         11   -1    0    0    0    0 -0.00000000000E+00 -0.00000000000E+00 -0.45593999997E+02  0.45594000000E+02  0.51100000000E-03 0. -1.
    9900012    2    1    2    0    0 -0.16006548114E+02  0.24150249071E+02  0.28525796897E+02  0.50528865709E+02  0.30000017809E+02 0.  0.
         12    1    1    2    0    0  0.16006548114E+02 -0.24150249071E+02 -0.28525796897E+02  0.40659134291E+02  0.00000000000E+00 0. -1.
         11    1    3    3    0    0 -0.39477398544E+01  0.18526515825E+02  0.37944699081E+01  0.19318758778E+02  0.51100000000E-03 0. -1.
        -11    1    3    3    0    0  0.16184134193E+01  0.38223486425E+01  0.10950502727E+02  0.11710812157E+02  0.51100000000E-03 0.  1.
        -12    1    3    3    0    0 -0.13677221679E+02  0.18013846030E+01  0.13780824261E+02  0.19499294774E+02  0.00000000000E+00 0.  1.
</event>
<event>
 7    1  0.3141443E-011  0.5052886E+02  0.7816164E-02  0.1300439E+00
        -11   -1    0    0    0    0  0.00000000000E+00  0.00000000000E+00  0.45593999997E+02  0.45594000000E+02  0.51100000000E-03 0.  1.
         11   -1    0    0    0    0 -0.00000000000E+00 -0.00000000000E+00 -0.45593999997E+02  0.45594000000E+02  0.51100000000E-03 0. -1.
    9900012    2    1    2    0    0  0.13929574957E+02 -0.42969007243E+01  0.37956152308E+02  0.50528856965E+02  0.29999991231E+02 0.  0.
         12    1    1    2    0    0 -0.13929574957E+02  0.42969007243E+01 -0.37956152308E+02  0.40659143035E+02  0.00000000000E+00 0. -1.
         11    1    3    3    0    0  0.50974816802E+01  0.65500993289E+01  0.10279119203E+02  0.13211677128E+02  0.51100000000E-03 0. -1.
        -11    1    3    3    0    0  0.13143827628E+02 -0.13510383321E+01  0.92013233136E+01  0.16101237849E+02  0.51100000000E-03 0.  1.
         12    1    3    3    0    0 -0.43117343511E+01 -0.94959617211E+01  0.18475709791E+02  0.21215941987E+02  0.00000000000E+00 0. -1.
</event>
<event>
 7    1  0.3141443E-011  0.5052886E+02  0.7816164E-02  0.1300439E+00
        -11   -1    0    0    0    0  0.00000000000E+00  0.00000000000E+00  0.45593999997E+02  0.45594000000E+02  0.51100000000E-03 0.  1.
         11   -1    0    0    0    0 -0.00000000000E+00 -0.00000000000E+00 -0.45593999997E+02  0.45594000000E+02  0.51100000000E-03 0. -1.
    9900012    2    1    2    0    0 -0.34444035060E+02  0.39003508547E+01  0.21249975076E+02  0.50528859223E+02  0.29999998093E+02 0.  0.
         12    1    1    2    0    0  0.34444035060E+02 -0.39003508547E+01 -0.21249975076E+02  0.40659140777E+02  0.00000000000E+00 0. -1.
         11    1    3    3    0    0 -0.29237645953E+01 -0.37929130865E+01 -0.12266495508E+00  0.47905778402E+01  0.51100000000E-03 0. -1.
        -11    1    3    3    0    0 -0.23396524674E+02 -0.67459961304E+00  0.24273573831E+02  0.33720303057E+02  0.51100000000E-03 0.  1.
         12    1    3    3    0    0 -0.81237457903E+01  0.83678635542E+01 -0.29009337992E+01  0.12017978326E+02  0.00000000000E+00 0. -1.
</event>
<event>
 7    1  0.4829129E-011  0.5052885E+02  0.7816164E-02  0.1300439E+00
        -11   -1    0    0    0    0  0.00000000000E+00  0.00000000000E+00  0.45593999997E+02  0.45594000000E+02  0.51100000000E-03 0. -1.
         11   -1    0    0    0    0 -0.00000000000E+00 -0.00000000000E+00 -0.45593999997E+02  0.45594000000E+02  0.51100000000E-03 0.  1.
    9900012    2    1    2    0    0 -0.22019798257E+02 -0.30468521687E+02 -0.15490771059E+02  0.50528851988E+02  0.29999976103E+02 0.  0.
         12    1    1    2    0    0  0.22019798257E+02  0.30468521687E+02  0.15490771059E+02  0.40659148012E+02  0.00000000000E+00 0. -1.
         11    1    3    3    0    0 -0.35292451382E+01 -0.43692374844E+01  0.58550024342E+01  0.81133754508E+01  0.51100000000E-03 0. -1.
        -11    1    3    3    0    0  0.17615221957E+00 -0.58430046649E+01 -0.11964418467E+02  0.13316119654E+02  0.51100000000E-03 0.  1.
        -12    1    3    3    0    0 -0.18666705339E+02 -0.20256279537E+02 -0.93813550262E+01  0.29099356883E+02  0.00000000000E+00 0.  1.
</event>
<event>
 7    1  0.3141443E-011  0.5052886E+02  0.7816164E-02  0.1300439E+00
        -11   -1    0    0    0    0  0.00000000000E+00  0.00000000000E+00  0.45593999997E+02  0.45594000000E+02  0.51100000000E-03 0.  1.
         11   -1    0    0    0    0 -0.00000000000E+00 -0.00000000000E+00 -0.45593999997E+02  0.45594000000E+02  0.51100000000E-03 0. -1.
    9900012    2    1    2    0    0 -0.21288143319E+02 -0.11073847304E+01 -0.34623027202E+02  0.50528863763E+02  0.30000011894E+02 0.  0.
         12    1    1    2    0    0  0.21288143319E+02  0.11073847304E+01  0.34623027202E+02  0.40659136237E+02  0.00000000000E+00 0. -1.
         11    1    3    3    0    0 -0.47642192431E+01  0.17443361639E+01 -0.81127602470E+01  0.95685616858E+01  0.51100000000E-03 0. -1.
        -11    1    3    3    0    0 -0.17864260212E+02 -0.11735888394E+02 -0.13974362536E+02  0.25537143104E+02  0.51100000000E-03 0.  1.
         12    1    3    3    0    0  0.13403361366E+01  0.88841674999E+01 -0.12535904419E+02  0.15423158973E+02  0.00000000000E+00 0. -1.
</event>
<event>
 7    1  0.3141443E-011  0.5052885E+02  0.7816164E-02  0.1300439E+00
        -11   -1    0    0    0    0  0.00000000000E+00  0.00000000000E+00  0.45593999997E+02  0.45594000000E+02  0.51100000000E-03 0.  1.
         11   -1    0    0    0    0 -0.00000000000E+00 -0.00000000000E+00 -0.45593999997E+02  0.45594000000E+02  0.51100000000E-03 0. -1.
    9900012    2    1    2    0    0  0.13824671400E+02 -0.37300139280E+02  0.84109626533E+01  0.50528853152E+02  0.29999979641E+02 0.  0.
         12    1    1    2    0    0 -0.13824671400E+02  0.37300139280E+02 -0.84109626533E+01  0.40659146848E+02  0.00000000000E+00 0. -1.
         11    1    3    3    0    0  0.17372598135E+02 -0.18874988726E+02  0.40645706257E+00  0.25656141038E+02  0.51100000000E-03 0. -1.
        -11    1    3    3    0    0  0.44251486948E+01 -0.12362487456E+02  0.67922019525E+01  0.14783336724E+02  0.51100000000E-03 0.  1.
         12    1    3    3    0    0 -0.79730754294E+01 -0.60626630974E+01  0.12123036382E+01  0.10089375389E+02  0.00000000000E+00 0. -1.
</event>
<event>
 7    1  0.9142128E-011  0.5052890E+02  0.7816164E-02  0.1300439E+00
        -11   -1    0    0    0    0  0.00000000000E+00  0.00000000000E+00  0.45593999997E+02  0.45594000000E+02  0.51100000000E-03 0. -1.
         11   -1    0    0    0    0 -0.00000000000E+00 -0.00000000000E+00 -0.45593999997E+02  0.45594000000E+02  0.51100000000E-03 0.  1.
    9900012    2    1    2    0    0  0.81418822274E-01  0.40490279954E+02  0.37003663926E+01  0.50528903709E+02  0.30000133312E+02 0.  0.
         12    1    1    2    0    0 -0.81418822274E-01 -0.40490279954E+02 -0.37003663926E+01  0.40659096291E+02  0.00000000000E+00 0. -1.
         11    1    3    3    0    0  0.94791155691E+00 -0.23633905947E+00  0.43716054534E+01  0.44794337781E+01  0.51100000000E-03 0. -1.
        -11    1    3    3    0    0  0.20113585360E+00  0.30480691712E+01 -0.71755799761E+01  0.77987261497E+01  0.51100000000E-03 0.  1.
        -12    1    3    3    0    0 -0.10676285882E+01  0.37678549843E+02  0.65043409152E+01  0.38250743781E+02  0.00000000000E+00 0.  1.
</event>
<event>
 7    1  0.3141443E-011  0.5052883E+02  0.7816164E-02  0.1300439E+00
        -11   -1    0    0    0    0  0.00000000000E+00  0.00000000000E+00  0.45593999997E+02  0.45594000000E+02  0.51100000000E-03 0. -1.
         11   -1    0    0    0    0 -0.00000000000E+00 -0.00000000000E+00 -0.45593999997E+02  0.45594000000E+02  0.51100000000E-03 0.  1.
    9900012    2    1    2    0    0 -0.10009178059E+02  0.35558031427E+02 -0.16988551528E+02  0.50528829726E+02  0.29999908435E+02 0.  0.
         12    1    1    2    0    0  0.10009178059E+02 -0.35558031427E+02  0.16988551528E+02  0.40659170274E+02  0.00000000000E+00 0. -1.
         11    1    3    3    0    0  0.25908913893E+01 -0.15311166222E+01 -0.70350516152E+01  0.76517310324E+01  0.51100000000E-03 0.  1.
        -11    1    3    3    0    0  0.84886729944E+00 -0.80772533602E+00 -0.12884713033E+01  0.17415953810E+01  0.51100000000E-03 0. -1.
         12    1    3    3    0    0 -0.13448936747E+02  0.37896873385E+02 -0.86650286094E+01  0.41135503313E+02  0.00000000000E+00 0. -1.
</event>
<event>
 7    1  0.3141443E-011  0.5052886E+02  0.7816164E-02  0.1300439E+00
        -11   -1    0    0    0    0  0.00000000000E+00  0.00000000000E+00  0.45593999997E+02  0.45594000000E+02  0.51100000000E-03 0.  1.
         11   -1    0    0    0    0 -0.00000000000E+00 -0.00000000000E+00 -0.45593999997E+02  0.45594000000E+02  0.51100000000E-03 0. -1.
    9900012    2    1    2    0    0 -0.70813196018E+00 -0.10768505341E+02  0.39200808730E+02  0.50528861258E+02  0.30000004279E+02 0.  0.
         12    1    1    2    0    0  0.70813196018E+00  0.10768505341E+02 -0.39200808730E+02  0.40659138742E+02  0.00000000000E+00 0. -1.
         11    1    3    3    0    0 -0.48414872142E+01  0.12679456844E+01  0.12802355745E+02  0.13745835645E+02  0.51100000000E-03 0. -1.
        -11    1    3    3    0    0  0.27463324169E+00 -0.17305990177E+02  0.12264519689E+02  0.21212995142E+02  0.51100000000E-03 0.  1.
         12    1    3    3    0    0  0.38587220124E+01  0.52695391514E+01  0.14133933296E+02  0.15570030471E+02  0.00000000000E+00 0. -1.
</event>
<event>
 7    1  0.3141443E-011  0.5052886E+02  0.7816164E-02  0.1300439E+00
        -11   -1    0    0    0    0  0.00000000000E+00  0.00000000000E+00  0.45593999997E+02  0.45594000000E+02  0.51100000000E-03 0.  1.
         11   -1    0    0    0    0 -0.00000000000E+00 -0.00000000000E+00 -0.45593999997E+02  0.45594000000E+02  0.51100000000E-03 0. -1.
    9900012    2    1    2    0    0 -0.19168140558E+01  0.38479694129E+02 -0.12992497494E+02  0.50528855549E+02  0.29999986927E+02 0.  0.
         12    1    1    2    0    0  0.19168140558E+01 -0.38479694129E+02  0.12992497494E+02  0.40659144451E+02  0.00000000000E+00 0. -1.
         11    1    3    3    0    0 -0.44704355503E+00  0.38781852649E+01  0.57533990576E+01  0.69528245962E+01  0.51100000000E-03 0. -1.
        -11    1    3    3    0    0  0.29382387799E+01  0.18305365774E+02 -0.25987627294E+00  0.18541499378E+02  0.51100000000E-03 0.  1.
         12    1    3    3    0    0 -0.44080092807E+01  0.16296143090E+02 -0.18486020279E+02  0.25034531575E+02  0.00000000000E+00 0. -1.
</event>
<event>
 7    1  0.3141443E-011  0.5052886E+02  0.7816164E-02  0.1300439E+00
        -11   -1    0    0    0    0  0.00000000000E+00  0.00000000000E+00  0.45593999997E+02  0.45594000000E+02  0.51100000000E-03 0. -1.
         11   -1    0    0    0    0 -0.00000000000E+00 -0.00000000000E+00 -0.45593999997E+02  0.45594000000E+02  0.51100000000E-03 0.  1.
    9900012    2    1    2    0    0  0.14399521489E+02  0.90612279306E+01 -0.36928494116E+02  0.50528858981E+02  0.29999997359E+02 0.  0.
         12    1    1    2    0    0 -0.14399521489E+02 -0.90612279306E+01  0.36928494116E+02  0.40659141019E+02  0.00000000000E+00 0. -1.
         11    1    3    3    0    0 -0.59358473310E+01  0.34426344079E+01 -0.14307072887E+02  0.15867525013E+02  0.51100000000E-03 0. -1.
        -11    1    3    3    0    0  0.72707227969E+01  0.13877957457E+01 -0.19100423495E+02  0.20484520130E+02  0.51100000000E-03 0.  1.
        -12    1    3    3    0    0  0.13064646023E+02  0.42307977770E+01 -0.35209977343E+01  0.14176813837E+02  0.00000000000E+00 0.  1.
</event>
<event>
 7    1  0.3141443E-011  0.5052886E+02  0.7816164E-02  0.1300439E+00
        -11   -1    0    0    0    0  0.00000000000E+00  0.00000000000E+00  0.45593999997E+02  0.45594000000E+02  0.51100000000E-03 0. -1.
         11   -1    0    0    0    0 -0.00000000000E+00 -0.00000000000E+00 -0.45593999997E+02  0.45594000000E+02  0.51100000000E-03 0.  1.
    9900012    2    1    2    0    0  0.30915931800E+02  0.56825454456E+01 -0.25789138431E+02  0.50528858066E+02  0.29999994577E+02 0.  0.
         12    1    1    2    0    0 -0.30915931800E+02 -0.56825454456E+01  0.25789138431E+02  0.40659141934E+02  0.00000000000E+00 0. -1.
         11    1    3    3    0    0 -0.30882702667E+01  0.17801619795E+01  0.12264924452E+01  0.37697047488E+01  0.51100000000E-03 0. -1.
        -11    1    3    3    0    0  0.18020246662E+02 -0.41089601418E+01 -0.20811616654E+02  0.27834083984E+02  0.51100000000E-03 0.  1.
        -12    1    3    3    0    0  0.15983955405E+02  0.80113436079E+01 -0.62040142220E+01  0.18925069333E+02  0.00000000000E+00 0.  1.
</event>
<event>
 7    1  0.3141443E-011  0.5052886E+02  0.7816164E-02  0.1300439E+00
        -11   -1    0    0    0    0  0.00000000000E+00  0.00000000000E+00  0.45593999997E+02  0.45594000000E+02  0.51100000000E-03 0.  1.
         11   -1    0    0    0    0 -0.00000000000E+00 -0.00000000000E+00 -0.45593999997E+02  0.45594000000E+02  0.51100000000E-03 0. -1.
    9900012    2    1    2    0    0  0.27473020217E+02  0.19918209234E+02  0.22397853459E+02  0.50528859103E+02  0.29999997730E+02 0.  0.
         12    1    1    2    0    0 -0.27473020217E+02 -0.19918209234E+02 -0.22397853459E+02  0.40659140897E+02  0.00000000000E+00 0. -1.
         11    1    3    3    0    0  0.12447387839E+02  0.71049062668E+01  0.92281413579E-01  0.14332678507E+02  0.51100000000E-03 0. -1.
        -11    1    3    3    0    0  0.96793199666E+01 -0.42337531577E+01  0.70267537433E+01  0.12688150742E+02  0.51100000000E-03 0.  1.
        -12    1    3    3    0    0  0.53463124110E+01  0.17047056125E+02  0.15278818302E+02  0.23508029854E+02  0.00000000000E+00 0.  1.
</event>
<event>
 7    1  0.3141443E-011  0.5052886E+02  0.7816164E-02  0.1300439E+00
        -11   -1    0    0    0    0  0.00000000000E+00  0.00000000000E+00  0.45593999997E+02  0.45594000000E+02  0.51100000000E-03 0.  1.
         11   -1    0    0    0    0 -0.00000000000E+00 -0.00000000000E+00 -0.45593999997E+02  0.45594000000E+02  0.51100000000E-03 0. -1.
    9900012    2    1    2    0    0  0.32604819000E+02 -0.17496270730E+02  0.16851464670E+02  0.50528861137E+02  0.30000003913E+02 0.  0.
         12    1    1    2    0    0 -0.32604819000E+02  0.17496270730E+02 -0.16851464670E+02  0.40659138863E+02  0.00000000000E+00 0. -1.
         11    1    3    3    0    0  0.26959317439E+02 -0.97077045678E+01  0.15666424310E+02  0.32657023374E+02  0.51100000000E-03 0.  1.
        -11    1    3    3    0    0  0.55970873525E+01 -0.26458621336E+01  0.75016087193E+01  0.97263614420E+01  0.51100000000E-03 0. -1.
         12    1    3    3    0    0  0.48414208849E-01 -0.51427040289E+01 -0.63165683590E+01  0.81454763211E+01  0.00000000000E+00 0. -1.
</event>
<event>
 7    1  0.3141443E-011  0.5052886E+02  0.7816164E-02  0.1300439E+00
        -11   -1    0    0    0    0  0.00000000000E+00  0.00000000000E+00  0.45593999997E+02  0.45594000000E+02  0.51100000000E-03 0.  1.
         11   -1    0    0    0    0 -0.00000000000E+00 -0.00000000000E+00 -0.45593999997E+02  0.45594000000E+02  0.51100000000E-03 0. -1.
    9900012    2    1    2    0    0 -0.13402883905E+02  0.82628125487E+01  0.37486723817E+02  0.50528857969E+02  0.29999994283E+02 0.  0.
         12    1    1    2    0    0  0.13402883905E+02 -0.82628125487E+01 -0.37486723817E+02  0.40659142031E+02  0.00000000000E+00 0. -1.
         11    1    3    3    0    0 -0.30307449191E-01  0.40975826750E+01  0.13511453664E+01  0.43147069868E+01  0.51100000000E-03 0. -1.
        -11    1    3    3    0    0  0.57015339687E+01 -0.37042404543E+01  0.15995596109E+02  0.17380678413E+02  0.51100000000E-03 0.  1.
        -12    1    3    3    0    0 -0.19074110424E+02  0.78694703281E+01  0.20139982341E+02  0.28833472570E+02  0.00000000000E+00 0.  1.
</event>
<event>
 7    1  0.3141443E-011  0.5052875E+02  0.7816164E-02  0.1300439E+00
        -11   -1    0    0    0    0  0.00000000000E+00  0.00000000000E+00  0.45593999997E+02  0.45594000000E+02  0.51100000000E-03 0. -1.
         11   -1    0    0    0    0 -0.00000000000E+00 -0.00000000000E+00 -0.45593999997E+02  0.45594000000E+02  0.51100000000E-03 0.  1.
    9900012    2    1    2    0    0 -0.22842522698E+02  0.33596459982E+02 -0.16344279214E+01  0.50528753559E+02  0.29999676916E+02 0.  0.
         12    1    1    2    0    0  0.22842522698E+02 -0.33596459982E+02  0.16344279214E+01  0.40659246441E+02  0.00000000000E+00 0. -1.
         11    1    3    3    0    0  0.38561053613E+01 -0.11206506634E+01  0.33348559740E+01  0.52198343934E+01  0.51100000000E-03 0. -1.
        -11    1    3    3    0    0 -0.14378465793E+02  0.10918815050E+02 -0.29599794709E-02  0.18054384777E+02  0.51100000000E-03 0.  1.
        -12    1    3    3    0    0 -0.12320162266E+02  0.23798295595E+02 -0.49663239159E+01  0.27254534388E+02  0.00000000000E+00 0.  1.
</event>
<event>
 7    1  0.3141443E-011  0.5052886E+02  0.7816164E-02  0.1300439E+00
        -11   -1    0    0    0    0  0.00000000000E+00  0.00000000000E+00  0.45593999997E+02  0.45594000000E+02  0.51100000000E-03 0.  1.
         11   -1    0    0    0    0 -0.00000000000E+00 -0.00000000000E+00 -0.45593999997E+02  0.45594000000E+02  0.51100000000E-03 0. -1.
    9900012    2    1    2    0    0  0.34324610298E+02 -0.10113188717E+02  0.19305704878E+02  0.50528859589E+02  0.29999999206E+02 0.  0.
         12    1    1    2    0    0 -0.34324610298E+02  0.10113188717E+02 -0.19305704878E+02  0.40659140411E+02  0.00000000000E+00 0. -1.
         11    1    3    3    0    0  0.27085925751E+02 -0.12042567219E+02  0.15396274890E+02  0.33402336442E+02  0.51100000000E-03 0.  1.
        -11    1    3    3    0    0  0.77414162666E+01 -0.40260876632E+01 -0.17454737532E+01  0.88986283532E+01  0.51100000000E-03 0. -1.
         12    1    3    3    0    0 -0.50273171887E+00  0.59554661652E+01  0.56549037406E+01  0.82278947940E+01  0.00000000000E+00 0. -1.
</event>
<event>
 7    1  0.3141443E-011  0.5052886E+02  0.7816164E-02  0.1300439E+00
        -11   -1    0    0    0    0  0.00000000000E+00  0.00000000000E+00  0.45593999997E+02  0.45594000000E+02  0.51100000000E-03 0. -1.
         11   -1    0    0    0    0 -0.00000000000E+00 -0.00000000000E+00 -0.45593999997E+02  0.45594000000E+02  0.51100000000E-03 0.  1.
    9900012    2    1    2    0    0  0.31967627706E+02 -0.20443150875E+02 -0.14605270875E+02  0.50528861098E+02  0.30000003795E+02 0.  0.
         12    1    1    2    0    0 -0.31967627706E+02  0.20443150875E+02  0.14605270875E+02  0.40659138902E+02  0.00000000000E+00 0. -1.
         11    1    3    3    0    0  0.56727548440E+01 -0.81718357889E+00 -0.10796313798E+00  0.57323287434E+01  0.51100000000E-03 0.  1.
        -11    1    3    3    0    0  0.17560190462E+01 -0.14797526241E+02 -0.12945237145E+02  0.19739036216E+02  0.51100000000E-03 0. -1.
         12    1    3    3    0    0  0.24538853816E+02 -0.48284410552E+01 -0.15520705927E+01  0.25057496139E+02  0.00000000000E+00 0. -1.
</event>
<event>
 7    1  0.3141443E-011  0.5052886E+02  0.7816164E-02  0.1300439E+00
        -11   -1    0    0    0    0  0.00000000000E+00  0.00000000000E+00  0.45593999997E+02  0.45594000000E+02  0.51100000000E-03 0.  1.
         11   -1    0    0    0    0 -0.00000000000E+00 -0.00000000000E+00 -0.45593999997E+02  0.45594000000E+02  0.51100000000E-03 0. -1.
    9900012    2    1    2    0    0  0.28158217772E+02  0.12450484180E+02  0.26556841111E+02  0.50528860877E+02  0.30000003123E+02 0.  0.
         12    1    1    2    0    0 -0.28158217772E+02 -0.12450484180E+02 -0.26556841111E+02  0.40659139123E+02  0.00000000000E+00 0. -1.
         11    1    3    3    0    0  0.54181655466E+01 -0.18674397338E+00  0.20674648397E+01  0.58022239121E+01  0.51100000000E-03 0. -1.
        -11    1    3    3    0    0  0.28902606523E+02  0.95162030624E+01  0.18717466133E+02  0.35724813831E+02  0.51100000000E-03 0.  1.
         12    1    3    3    0    0 -0.61625542982E+01  0.31210250909E+01  0.57719101381E+01  0.90018231342E+01  0.00000000000E+00 0. -1.
</event>
<event>
 7    1  0.3141443E-011  0.5052886E+02  0.7816164E-02  0.1300439E+00
        -11   -1    0    0    0    0  0.00000000000E+00  0.00000000000E+00  0.45593999997E+02  0.45594000000E+02  0.51100000000E-03 0.  1.
         11   -1    0    0    0    0 -0.00000000000E+00 -0.00000000000E+00 -0.45593999997E+02  0.45594000000E+02  0.51100000000E-03 0. -1.
    9900012    2    1    2    0    0  0.37162895228E+02 -0.89616263083E+01  0.13848249118E+02  0.50528861649E+02  0.30000005468E+02 0.  0.
         12    1    1    2    0    0 -0.37162895228E+02  0.89616263083E+01 -0.13848249118E+02  0.40659138351E+02  0.00000000000E+00 0. -1.
         11    1    3    3    0    0  0.99088308389E+01  0.27332284798E+01  0.10986552952E+02  0.15045258806E+02  0.51100000000E-03 0.  1.
        -11    1    3    3    0    0 -0.27846956916E+01 -0.13026606189E+00  0.17194220124E+01  0.32753490897E+01  0.51100000000E-03 0. -1.
         12    1    3    3    0    0  0.30038760081E+02 -0.11564588726E+02  0.11422741536E+01  0.32208253753E+02  0.00000000000E+00 0. -1.
</event>
<event>
 7    1  0.3141443E-011  0.5052886E+02  0.7816164E-02  0.1300439E+00
        -11   -1    0    0    0    0  0.00000000000E+00  0.00000000000E+00  0.45593999997E+02  0.45594000000E+02  0.51100000000E-03 0. -1.
         11   -1    0    0    0    0 -0.00000000000E+00 -0.00000000000E+00 -0.45593999997E+02  0.45594000000E+02  0.51100000000E-03 0.  1.
    9900012    2    1    2    0    0  0.33397024123E+02  0.38327129001E+01  0.22871699843E+02  0.50528861271E+02  0.30000004319E+02 0.  0.
         12    1    1    2    0    0 -0.33397024123E+02 -0.38327129001E+01 -0.22871699843E+02  0.40659138729E+02  0.00000000000E+00 0. -1.
         11    1    3    3    0    0  0.70445041309E+01 -0.38966724153E+01  0.14299545692E+02  0.16409939111E+02  0.51100000000E-03 0. -1.
        -11    1    3    3    0    0  0.19969737149E+02  0.12475648667E+02  0.10732084927E+02  0.25876820875E+02  0.51100000000E-03 0.  1.
         12    1    3    3    0    0  0.63827828434E+01 -0.47462633520E+01 -0.21599307756E+01  0.82421012847E+01  0.00000000000E+00 0. -1.
</event>
<event>
 7    1  0.3141443E-011  0.5052886E+02  0.7816164E-02  0.1300439E+00
        -11   -1    0    0    0    0  0.00000000000E+00  0.00000000000E+00  0.45593999997E+02  0.45594000000E+02  0.51100000000E-03 0.  1.
         11   -1    0    0    0    0 -0.00000000000E+00 -0.00000000000E+00 -0.45593999997E+02  0.45594000000E+02  0.51100000000E-03 0. -1.
    9900012    2    1    2    0    0  0.31519109695E+02 -0.13036242097E+02  0.22130699432E+02  0.50528859068E+02  0.29999997622E+02 0.  0.
         12    1    1    2    0    0 -0.31519109695E+02  0.13036242097E+02 -0.22130699432E+02  0.40659140932E+02  0.00000000000E+00 0. -1.
         11    1    3    3    0    0 -0.55190806399E+00 -0.36168540795E+01  0.12197657428E+01  0.38566908966E+01  0.51100000000E-03 0. -1.
        -11    1    3    3    0    0  0.16906447099E+02 -0.76721242374E+01  0.24742743089E+02  0.30933683577E+02  0.51100000000E-03 0.  1.
         12    1    3    3    0    0  0.15164570661E+02 -0.17472637800E+01 -0.38318093997E+01  0.15738484594E+02  0.00000000000E+00 0. -1.
</event>
<event>
 7    1  0.3141443E-011  0.5052886E+02  0.7816164E-02  0.1300439E+00
        -11   -1    0    0    0    0  0.00000000000E+00  0.00000000000E+00  0.45593999997E+02  0.45594000000E+02  0.51100000000E-03 0. -1.
         11   -1    0    0    0    0 -0.00000000000E+00 -0.00000000000E+00 -0.45593999997E+02  0.45594000000E+02  0.51100000000E-03 0.  1.
    9900012    2    1    2    0    0 -0.17263892355E+02  0.82434141636E+01 -0.35877147110E+02  0.50528861530E+02  0.30000005107E+02 0.  0.
         12    1    1    2    0    0  0.17263892355E+02 -0.82434141636E+01  0.35877147110E+02  0.40659138470E+02  0.00000000000E+00 0. -1.
         11    1    3    3    0    0  0.39578262862E+01  0.70466109813E+01 -0.67628865824E+01  0.10538299219E+02  0.51100000000E-03 0. -1.
        -11    1    3    3    0    0 -0.15827683007E+02  0.80498461263E+01 -0.14297612375E+02  0.22797747519E+02  0.51100000000E-03 0.  1.
         12    1    3    3    0    0 -0.53940356338E+01 -0.68530429440E+01 -0.14816648153E+02  0.17192814793E+02  0.00000000000E+00 0. -1.
</event>
<event>
 7    1  0.3141443E-011  0.5052886E+02  0.7816164E-02  0.1300439E+00
        -11   -1    0    0    0    0  0.00000000000E+00  0.00000000000E+00  0.45593999997E+02  0.45594000000E+02  0.51100000000E-03 0.  1.
         11   -1    0    0    0    0 -0.00000000000E+00 -0.00000000000E+00 -0.45593999997E+02  0.45594000000E+02  0.51100000000E-03 0. -1.
    9900012    2    1    2    0    0 -0.14316884905E+02 -0.11971008956E+02  0.36123227444E+02  0.50528858226E+02  0.29999995065E+02 0.  0.
         12    1    1    2    0    0  0.14316884905E+02  0.11971008956E+02 -0.36123227444E+02  0.40659141774E+02  0.00000000000E+00 0. -1.
         11    1    3    3    0    0 -0.12026401975E+02 -0.10621910932E+01  0.78265803539E+01  0.14388118524E+02  0.51100000000E-03 0. -1.
        -11    1    3    3    0    0 -0.53527570808E+01  0.32304301457E+01  0.15913857840E+02  0.17097910951E+02  0.51100000000E-03 0.  1.
        -12    1    3    3    0    0  0.30622741501E+01 -0.14139248009E+02  0.12382789250E+02  0.19042828751E+02  0.00000000000E+00 0.  1.
</event>
<event>
 7    1  0.3141443E-011  0.5052887E+02  0.7816164E-02  0.1300439E+00
        -11   -1    0    0    0    0  0.00000000000E+00  0.00000000000E+00  0.45593999997E+02  0.45594000000E+02  0.51100000000E-03 0.  1.
         11   -1    0    0    0    0 -0.00000000000E+00 -0.00000000000E+00 -0.45593999997E+02  0.45594000000E+02  0.51100000000E-03 0. -1.
    9900012    2    1    2    0    0  0.24594778809E+02 -0.32233595740E+02 -0.30425672777E+01  0.50528867512E+02  0.30000023291E+02 0.  0.
         12    1    1    2    0    0 -0.24594778809E+02  0.32233595740E+02  0.30425672777E+01  0.40659132488E+02  0.00000000000E+00 0. -1.
         11    1    3    3    0    0  0.14871767863E+02 -0.17169334288E+02 -0.65690330023E+01  0.23645458636E+02  0.51100000000E-03 0. -1.
        -11    1    3    3    0    0  0.47955701402E+01 -0.24811502091E+01 -0.76385745030E+01  0.93542193703E+01  0.51100000000E-03 0.  1.
         12    1    3    3    0    0  0.49274408057E+01 -0.12583111243E+02  0.11165040228E+02  0.17529189506E+02  0.00000000000E+00 0. -1.
</event>
<event>
 7    1  0.3141443E-011  0.5052885E+02  0.7816164E-02  0.1300439E+00
        -11   -1    0    0    0    0  0.00000000000E+00  0.00000000000E+00  0.45593999997E+02  0.45594000000E+02  0.51100000000E-03 0. -1.
         11   -1    0    0    0    0 -0.00000000000E+00 -0.00000000000E+00 -0.45593999997E+02  0.45594000000E+02  0.51100000000E-03 0.  1.
    9900012    2    1    2    0    0  0.35901544244E+02 -0.19084031969E+02  0.21334677431E+00  0.50528847622E+02  0.29999962831E+02 0.  0.
         12    1    1    2    0    0 -0.35901544244E+02  0.19084031969E+02 -0.21334677431E+00  0.40659152378E+02  0.00000000000E+00 0. -1.
         11    1    3    3    0    0  0.21243455324E+02 -0.43329617149E+01 -0.98491219399E+01  0.23813108881E+02  0.51100000000E-03 0. -1.
        -11    1    3    3    0    0  0.15776187626E+02 -0.10252712582E+02  0.42637914135E+01  0.19292126082E+02  0.51100000000E-03 0.  1.
         12    1    3    3    0    0 -0.11180987061E+01 -0.44983576725E+01  0.57986773007E+01  0.74236126586E+01  0.00000000000E+00 0. -1.
</event>
<event>
 7    1  0.3141443E-011  0.5052886E+02  0.7816164E-02  0.1300439E+00
        -11   -1    0    0    0    0  0.00000000000E+00  0.00000000000E+00  0.45593999997E+02  0.45594000000E+02  0.51100000000E-03 0. -1.
         11   -1    0    0    0    0 -0.00000000000E+00 -0.00000000000E+00 -0.45593999997E+02  0.45594000000E+02  0.51100000000E-03 0.  1.
    9900012    2    1    2    0    0  0.34076912153E+01  0.39352725009E+02  0.96393092615E+01  0.50528860707E+02  0.30000002604E+02 0.  0.
         12    1    1    2    0    0 -0.34076912153E+01 -0.39352725009E+02 -0.96393092615E+01  0.40659139293E+02  0.00000000000E+00 0. -1.
         11    1    3    3    0    0  0.21012043597E+01 -0.28627281119E+01 -0.10217608179E+01  0.36951681199E+01  0.51100000000E-03 0. -1.
        -11    1    3    3    0    0  0.72548460337E+01  0.89497388317E+01  0.44333833522E+00  0.11529404376E+02  0.51100000000E-03 0.  1.
        -12    1    3    3    0    0 -0.59483591781E+01  0.33265714289E+02  0.10217731744E+02  0.35304288211E+02  0.00000000000E+00 0.  1.
</event>
<event>
 7    1  0.3141443E-011  0.5052886E+02  0.7816164E-02  0.1300439E+00
        -11   -1    0    0    0    0  0.00000000000E+00  0.00000000000E+00  0.45593999997E+02  0.45594000000E+02  0.51100000000E-03 0. -1.
         11   -1    0    0    0    0 -0.00000000000E+00 -0.00000000000E+00 -0.45593999997E+02  0.45594000000E+02  0.51100000000E-03 0.  1.
    9900012    2    1    2    0    0 -0.37415494471E+02 -0.12934248500E+02 -0.92710012001E+01  0.50528862356E+02  0.30000007616E+02 0.  0.
         12    1    1    2    0    0  0.37415494471E+02  0.12934248500E+02  0.92710012001E+01  0.40659137644E+02  0.00000000000E+00 0. -1.
         11    1    3    3    0    0 -0.12534097786E+02 -0.42830609972E+01  0.26509398291E+01  0.13508356711E+02  0.51100000000E-03 0.  1.
        -11    1    3    3    0    0 -0.54029638227E+00  0.28843946189E+01  0.45740546410E+01  0.54344851291E+01  0.51100000000E-03 0. -1.
        -12    1    3    3    0    0 -0.24341100303E+02 -0.11535582122E+02 -0.16495995670E+02  0.31586020515E+02  0.00000000000E+00 0.  1.
</event>
<event>
 7    1  0.3141443E-011  0.5052887E+02  0.7816164E-02  0.1300439E+00
        -11   -1    0    0    0    0  0.00000000000E+00  0.00000000000E+00  0.45593999997E+02  0.45594000000E+02  0.51100000000E-03 0.  1.
         11   -1    0    0    0    0 -0.00000000000E+00 -0.00000000000E+00 -0.45593999997E+02  0.45594000000E+02  0.51100000000E-03 0. -1.
    9900012    2    1    2    0    0  0.58477005217E+01 -0.49357238060E+01  0.39932546119E+02  0.50528865597E+02  0.30000017467E+02 0.  0.
         12    1    1    2    0    0 -0.58477005217E+01  0.49357238060E+01 -0.39932546119E+02  0.40659134403E+02  0.00000000000E+00 0. -1.
         11    1    3    3    0    0  0.61046691921E+01 -0.11978482431E+02  0.12380922379E+02  0.18276713777E+02  0.51100000000E-03 0. -1.
        -11    1    3    3    0    0  0.46607083562E+01  0.21038034655E+01  0.15658145210E+01  0.53478936768E+01  0.51100000000E-03 0.  1.
        -12    1    3    3    0    0 -0.49176770266E+01  0.49389551593E+01  0.25985809219E+02  0.26904258142E+02  0.00000000000E+00 0.  1.
</event>
<event>
 7    1  0.3141443E-011  0.5052887E+02  0.7816164E-02  0.1300439E+00
        -11   -1    0    0    0    0  0.00000000000E+00  0.00000000000E+00  0.45593999997E+02  0.45594000000E+02  0.51100000000E-03 0.  1.
         11   -1    0    0    0    0 -0.00000000000E+00 -0.00000000000E+00 -0.45593999997E+02  0.45594000000E+02  0.51100000000E-03 0. -1.
    9900012    2    1    2    0    0  0.31471098900E+02  0.25734785687E+02 -0.67516470521E+00  0.50528866860E+02  0.30000021307E+02 0.  0.
         12    1    1    2    0    0 -0.31471098900E+02 -0.25734785687E+02  0.67516470521E+00  0.40659133140E+02  0.00000000000E+00 0. -1.
         11    1    3    3    0    0  0.10449795910E+02  0.96975121240E+01 -0.69282080193E+01  0.15850553384E+02  0.51100000000E-03 0.  1.
        -11    1    3    3    0    0  0.19956983447E+02  0.24618807156E+01  0.11658474314E+01  0.20142026846E+02  0.51100000000E-03 0. -1.
         12    1    3    3    0    0  0.10643195433E+01  0.13575392847E+02  0.50871958826E+01  0.14536286630E+02  0.00000000000E+00 0. -1.
</event>
<event>
 7    1  0.3141443E-011  0.5052883E+02  0.7816164E-02  0.1300439E+00
        -11   -1    0    0    0    0  0.00000000000E+00  0.00000000000E+00  0.45593999997E+02  0.45594000000E+02  0.51100000000E-03 0.  1.
         11   -1    0    0    0    0 -0.00000000000E+00 -0.00000000000E+00 -0.45593999997E+02  0.45594000000E+02  0.51100000000E-03 0. -1.
    9900012    2    1    2    0    0  0.31179884076E+02 -0.43985755502E+01  0.25722276659E+02  0.50528829394E+02  0.29999907427E+02 0.  0.
         12    1    1    2    0    0 -0.31179884076E+02  0.43985755502E+01 -0.25722276659E+02  0.40659170606E+02  0.00000000000E+00 0. -1.
         11    1    3    3    0    0  0.70060804631E+01 -0.67025242181E+00  0.15931112639E+02  0.17416508030E+02  0.51100000000E-03 0. -1.
        -11    1    3    3    0    0  0.21605362411E+02 -0.87050808221E+01  0.12982167368E+02  0.26666585587E+02  0.51100000000E-03 0.  1.
         12    1    3    3    0    0  0.25684412016E+01  0.49767576937E+01 -0.31910033483E+01  0.64457357778E+01  0.00000000000E+00 0. -1.
</event>
<event>
 7    1  0.3141443E-011  0.5052891E+02  0.7816164E-02  0.1300439E+00
        -11   -1    0    0    0    0  0.00000000000E+00  0.00000000000E+00  0.45593999997E+02  0.45594000000E+02  0.51100000000E-03 0.  1.
         11   -1    0    0    0    0 -0.00000000000E+00 -0.00000000000E+00 -0.45593999997E+02  0.45594000000E+02  0.51100000000E-03 0. -1.
    9900012    2    1    2    0    0  0.12588181663E+02  0.42382604550E+01  0.38428332656E+02  0.50528906060E+02  0.30000140461E+02 0.  0.
         12    1    1    2    0    0 -0.12588181663E+02 -0.42382604550E+01 -0.38428332656E+02  0.40659093940E+02  0.00000000000E+00 0. -1.
         11    1    3    3    0    0  0.15775552333E+01  0.11267250852E+02  0.16067734640E+02  0.19687857146E+02  0.51100000000E-03 0. -1.
        -11    1    3    3    0    0  0.64891539949E+01 -0.22230937008E+01 -0.66223410852E+00  0.68912857615E+01  0.51100000000E-03 0.  1.
         12    1    3    3    0    0  0.45214724348E+01 -0.48058966967E+01  0.23022832125E+02  0.23949763153E+02  0.00000000000E+00 0. -1.
</event>
<event>
 7    1  0.3141443E-011  0.5052886E+02  0.7816164E-02  0.1300439E+00
        -11   -1    0    0    0    0  0.00000000000E+00  0.00000000000E+00  0.45593999997E+02  0.45594000000E+02  0.51100000000E-03 0. -1.
         11   -1    0    0    0    0 -0.00000000000E+00 -0.00000000000E+00 -0.45593999997E+02  0.45594000000E+02  0.51100000000E-03 0.  1.
    9900012    2    1    2    0    0 -0.93012836722E+01 -0.38290547723E+02  0.10024266084E+02  0.50528857936E+02  0.29999994182E+02 0.  0.
         12    1    1    2    0    0  0.93012836722E+01  0.38290547723E+02 -0.10024266084E+02  0.40659142064E+02  0.00000000000E+00 0. -1.
         11    1    3    3    0    0  0.70473613517E+01 -0.95647464186E+01 -0.19039647416E+01  0.12032238282E+02  0.51100000000E-03 0.  1.
        -11    1    3    3    0    0 -0.67110768611E+01 -0.21240882431E+02  0.12990138677E+01  0.22313697057E+02  0.51100000000E-03 0. -1.
         12    1    3    3    0    0 -0.96375681629E+01 -0.74849188735E+01  0.10629216958E+02  0.16182922597E+02  0.00000000000E+00 0. -1.
</event>
<event>
 7    1  0.3141443E-011  0.5052884E+02  0.7816164E-02  0.1300439E+00
        -11   -1    0    0    0    0  0.00000000000E+00  0.00000000000E+00  0.45593999997E+02  0.45594000000E+02  0.51100000000E-03 0. -1.
         11   -1    0    0    0    0 -0.00000000000E+00 -0.00000000000E+00 -0.45593999997E+02  0.45594000000E+02  0.51100000000E-03 0.  1.
    9900012    2    1    2    0    0  0.14171581307E+02  0.23671288892E+01 -0.38035909492E+02  0.50528838341E+02  0.29999934622E+02 0.  0.
         12    1    1    2    0    0 -0.14171581307E+02 -0.23671288892E+01  0.38035909492E+02  0.40659161659E+02  0.00000000000E+00 0. -1.
         11    1    3    3    0    0  0.67213902800E+01  0.34447830091E+00 -0.47257319433E+01  0.82236424568E+01  0.51100000000E-03 0. -1.
        -11    1    3    3    0    0  0.13710070035E+02  0.35183662804E+01 -0.81460535342E+01  0.16331047428E+02  0.51100000000E-03 0.  1.
        -12    1    3    3    0    0 -0.62598790085E+01 -0.14957156921E+01 -0.25164124014E+02  0.25974148457E+02  0.00000000000E+00 0.  1.
</event>
<event>
 7    1  0.3141443E-011  0.5052886E+02  0.7816164E-02  0.1300439E+00
        -11   -1    0    0    0    0  0.00000000000E+00  0.00000000000E+00  0.45593999997E+02  0.45594000000E+02  0.51100000000E-03 0. -1.
         11   -1    0    0    0    0 -0.00000000000E+00 -0.00000000000E+00 -0.45593999997E+02  0.45594000000E+02  0.51100000000E-03 0.  1.
    9900012    2    1    2    0    0 -0.17098561993E+01 -0.37462792791E+02 -0.15709283016E+02  0.50528855582E+02  0.29999987026E+02 0.  0.
         12    1    1    2    0    0  0.17098561993E+01  0.37462792791E+02  0.15709283016E+02  0.40659144418E+02  0.00000000000E+00 0. -1.
         11    1    3    3    0    0  0.28804668170E+01 -0.28203435983E+01 -0.10853369006E+02  0.11577868808E+02  0.51100000000E-03 0.  1.
        -11    1    3    3    0    0  0.38987057064E+01 -0.25927202469E+02 -0.54141907297E+01  0.26771873217E+02  0.51100000000E-03 0. -1.
         12    1    3    3    0    0 -0.84890287227E+01 -0.87152467242E+01  0.55827671951E+00  0.12179113556E+02  0.00000000000E+00 0. -1.
</event>
<event>
 7    1  0.3141443E-011  0.5052886E+02  0.7816164E-02  0.1300439E+00
        -11   -1    0    0    0    0  0.00000000000E+00  0.00000000000E+00  0.45593999997E+02  0.45594000000E+02  0.51100000000E-03 0.  1.
         11   -1    0    0    0    0 -0.00000000000E+00 -0.00000000000E+00 -0.45593999997E+02  0.45594000000E+02  0.51100000000E-03 0. -1.
    9900012    2    1    2    0    0 -0.27117271364E+01 -0.40212502161E+02 -0.53634920484E+01  0.50528857842E+02  0.29999993895E+02 0.  0.
         12    1    1    2    0    0  0.27117271364E+01  0.40212502161E+02  0.53634920484E+01  0.40659142158E+02  0.00000000000E+00 0. -1.
         11    1    3    3    0    0 -0.35981473213E+01 -0.88396644798E+01 -0.41871457345E+01  0.10422021010E+02  0.51100000000E-03 0. -1.
        -11    1    3    3    0    0 -0.75747763870E+01 -0.23074101631E+02 -0.90068149644E+01  0.25902009950E+02  0.51100000000E-03 0.  1.
         12    1    3    3    0    0  0.84611965719E+01 -0.82987360500E+01  0.78304686506E+01  0.14204826882E+02  0.00000000000E+00 0. -1.
</event>
<event>
 7    1  0.3141443E-011  0.5052886E+02  0.7816164E-02  0.1300439E+00
        -11   -1    0    0    0    0  0.00000000000E+00  0.00000000000E+00  0.45593999997E+02  0.45594000000E+02  0.51100000000E-03 0. -1.
         11   -1    0    0    0    0 -0.00000000000E+00 -0.00000000000E+00 -0.45593999997E+02  0.45594000000E+02  0.51100000000E-03 0.  1.
    9900012    2    1    2    0    0  0.36515045471E+02 -0.14374122067E+02  0.10639633943E+02  0.50528859067E+02  0.29999997621E+02 0.  0.
         12    1    1    2    0    0 -0.36515045471E+02  0.14374122067E+02 -0.10639633943E+02  0.40659140933E+02  0.00000000000E+00 0. -1.
         11    1    3    3    0    0  0.29580860830E+02 -0.11855315505E+02  0.11269778238E+02  0.33802126190E+02  0.51100000000E-03 0. -1.
        -11    1    3    3    0    0  0.82649423055E+01  0.41672200673E+01 -0.26296556246E+01  0.96223741024E+01  0.51100000000E-03 0.  1.
         12    1    3    3    0    0 -0.13307576643E+01 -0.66860266297E+01  0.19995113295E+01  0.71043587755E+01  0.00000000000E+00 0. -1.
</event>
<event>
 7    1  0.3141443E-011  0.5052888E+02  0.7816164E-02  0.1300439E+00
        -11   -1    0    0    0    0  0.00000000000E+00  0.00000000000E+00  0.45593999997E+02  0.45594000000E+02  0.51100000000E-03 0.  1.
         11   -1    0    0    0    0 -0.00000000000E+00 -0.00000000000E+00 -0.45593999997E+02  0.45594000000E+02  0.51100000000E-03 0. -1.
    9900012    2    1    2    0    0  0.28186629226E+02 -0.28884141068E+02  0.49380492358E+01  0.50528880449E+02  0.30000062614E+02 0.  0.
         12    1    1    2    0    0 -0.28186629226E+02  0.28884141068E+02 -0.49380492358E+01  0.40659119551E+02  0.00000000000E+00 0. -1.
         11    1    3    3    0    0  0.20871228049E+01 -0.69483395629E+01  0.65800635511E+00  0.72848113845E+01  0.51100000000E-03 0. -1.
        -11    1    3    3    0    0  0.28098408119E+02 -0.19202693732E+02 -0.40296138670E+01  0.34271004852E+02  0.51100000000E-03 0.  1.
         12    1    3    3    0    0 -0.19989016984E+01 -0.27331077734E+01  0.83096567477E+01  0.89730642127E+01  0.00000000000E+00 0. -1.
</event>
<event>
 7    1  0.3141443E-011  0.5052884E+02  0.7816164E-02  0.1300439E+00
        -11   -1    0    0    0    0  0.00000000000E+00  0.00000000000E+00  0.45593999997E+02  0.45594000000E+02  0.51100000000E-03 0.  1.
         11   -1    0    0    0    0 -0.00000000000E+00 -0.00000000000E+00 -0.45593999997E+02  0.45594000000E+02  0.51100000000E-03 0. -1.
    9900012    2    1    2    0    0  0.24022566627E+01 -0.24943260606E+02  0.32019209959E+02  0.50528844903E+02  0.29999954569E+02 0.  0.
         12    1    1    2    0    0 -0.24022566627E+01  0.24943260606E+02 -0.32019209959E+02  0.40659155097E+02  0.00000000000E+00 0. -1.
         11    1    3    3    0    0  0.10037789486E+02 -0.27923088920E+01  0.87720176491E+01  0.13619930272E+02  0.51100000000E-03 0. -1.
        -11    1    3    3    0    0 -0.32097175079E+01 -0.10211373496E+00  0.10668705023E+02  0.11141543018E+02  0.51100000000E-03 0.  1.
        -12    1    3    3    0    0 -0.44258153152E+01 -0.22048837979E+02  0.12578487287E+02  0.25767371614E+02  0.00000000000E+00 0.  1.
</event>
<event>
 7    1  0.3141443E-011  0.5052886E+02  0.7816164E-02  0.1300439E+00
        -11   -1    0    0    0    0  0.00000000000E+00  0.00000000000E+00  0.45593999997E+02  0.45594000000E+02  0.51100000000E-03 0.  1.
         11   -1    0    0    0    0 -0.00000000000E+00 -0.00000000000E+00 -0.45593999997E+02  0.45594000000E+02  0.51100000000E-03 0. -1.
    9900012    2    1    2    0    0 -0.28298596966E+02  0.62487743641E+01  0.28518556415E+02  0.50528857962E+02  0.29999994260E+02 0.  0.
         12    1    1    2    0    0  0.28298596966E+02 -0.62487743641E+01 -0.28518556415E+02  0.40659142038E+02  0.00000000000E+00 0. -1.
         11    1    3    3    0    0  0.12681371388E+01 -0.64144733408E+00 -0.12233755731E+00  0.14263916798E+01  0.51100000000E-03 0. -1.
        -11    1    3    3    0    0 -0.15173800281E+02  0.83485172270E+01  0.29928898582E+02  0.34578619485E+02  0.51100000000E-03 0.  1.
         12    1    3    3    0    0 -0.14392933824E+02 -0.14582955287E+01 -0.12880046105E+01  0.14523846797E+02  0.00000000000E+00 0. -1.
</event>
<event>
 7    1  0.3141443E-011  0.5052882E+02  0.7816164E-02  0.1300439E+00
        -11   -1    0    0    0    0  0.00000000000E+00  0.00000000000E+00  0.45593999997E+02  0.45594000000E+02  0.51100000000E-03 0. -1.
         11   -1    0    0    0    0 -0.00000000000E+00 -0.00000000000E+00 -0.45593999997E+02  0.45594000000E+02  0.51100000000E-03 0.  1.
    9900012    2    1    2    0    0 -0.14336681244E+02  0.33657980453E+02 -0.17741715788E+02  0.50528824450E+02  0.29999892399E+02 0.  0.
         12    1    1    2    0    0  0.14336681244E+02 -0.33657980453E+02  0.17741715788E+02  0.40659175550E+02  0.00000000000E+00 0. -1.
         11    1    3    3    0    0 -0.10215039161E+02  0.23291057092E+02 -0.15336452275E+02  0.29698941634E+02  0.51100000000E-03 0. -1.
        -11    1    3    3    0    0 -0.13122270262E+01  0.91934711319E+01 -0.93923491160E+01  0.13208257773E+02  0.51100000000E-03 0.  1.
         12    1    3    3    0    0 -0.28094150566E+01  0.11734522290E+01  0.69870856023E+01  0.76216250438E+01  0.00000000000E+00 0. -1.
</event>
<event>
 7    1  0.3141443E-011  0.5052886E+02  0.7816164E-02  0.1300439E+00
        -11   -1    0    0    0    0  0.00000000000E+00  0.00000000000E+00  0.45593999997E+02  0.45594000000E+02  0.51100000000E-03 0.  1.
         11   -1    0    0    0    0 -0.00000000000E+00 -0.00000000000E+00 -0.45593999997E+02  0.45594000000E+02  0.51100000000E-03 0. -1.
    9900012    2    1    2    0    0 -0.24880450240E+02  0.30066909089E+02  0.11406575756E+02  0.50528858386E+02  0.29999995549E+02 0.  0.
         12    1    1    2    0    0  0.24880450240E+02 -0.30066909089E+02 -0.11406575756E+02  0.40659141614E+02  0.00000000000E+00 0. -1.
         11    1    3    3    0    0 -0.40615900702E+01  0.11631200616E+02 -0.57242563374E+01  0.13584861153E+02  0.51100000000E-03 0. -1.
        -11    1    3    3    0    0 -0.21708522528E+02  0.15458653490E+02  0.88206565811E+01  0.28071941522E+02  0.51100000000E-03 0.  1.
         12    1    3    3    0    0  0.88966235793E+00  0.29770549841E+01  0.83101755125E+01  0.88720557109E+01  0.00000000000E+00 0. -1.
</event>
<event>
 7    1  0.3141443E-011  0.5052886E+02  0.7816164E-02  0.1300439E+00
        -11   -1    0    0    0    0  0.00000000000E+00  0.00000000000E+00  0.45593999997E+02  0.45594000000E+02  0.51100000000E-03 0.  1.
         11   -1    0    0    0    0 -0.00000000000E+00 -0.00000000000E+00 -0.45593999997E+02  0.45594000000E+02  0.51100000000E-03 0. -1.
    9900012    2    1    2    0    0  0.20602934056E+02  0.16394797628E+02  0.30982183065E+02  0.50528856521E+02  0.29999989882E+02 0.  0.
         12    1    1    2    0    0 -0.20602934056E+02 -0.16394797628E+02 -0.30982183065E+02  0.40659143479E+02  0.00000000000E+00 0. -1.
         11    1    3    3    0    0 -0.10225313582E+01  0.91882989536E+01  0.75393071734E+01  0.11929440932E+02  0.51100000000E-03 0. -1.
        -11    1    3    3    0    0  0.19782733258E+02  0.12938796033E+02  0.22246773656E+02  0.32460559396E+02  0.51100000000E-03 0.  1.
         12    1    3    3    0    0  0.18427321553E+01 -0.57322973583E+01  0.11961022361E+01  0.61388561931E+01  0.00000000000E+00 0. -1.
</event>
<event>
 7    1  0.3141443E-011  0.5052886E+02  0.7816164E-02  0.1300439E+00
        -11   -1    0    0    0    0  0.00000000000E+00  0.00000000000E+00  0.45593999997E+02  0.45594000000E+02  0.51100000000E-03 0.  1.
         11   -1    0    0    0    0 -0.00000000000E+00 -0.00000000000E+00 -0.45593999997E+02  0.45594000000E+02  0.51100000000E-03 0. -1.
    9900012    2    1    2    0    0 -0.39019796939E+01  0.35747003910E+02  0.18976094874E+02  0.50528856984E+02  0.29999991290E+02 0.  0.
         12    1    1    2    0    0  0.39019796939E+01 -0.35747003910E+02 -0.18976094874E+02  0.40659143016E+02  0.00000000000E+00 0. -1.
         11    1    3    3    0    0 -0.45608289033E+01  0.15091827920E+02 -0.32052371915E+01  0.16088442310E+02  0.51100000000E-03 0. -1.
        -11    1    3    3    0    0  0.22343086881E+01  0.61787078316E+01 -0.14070645330E+01  0.67192556614E+01  0.51100000000E-03 0.  1.
         12    1    3    3    0    0 -0.15754594787E+01  0.14476468159E+02  0.23588396599E+02  0.27721159013E+02  0.00000000000E+00 0. -1.
</event>
<event>
 7    1  0.3141443E-011  0.5052886E+02  0.7816164E-02  0.1300439E+00
        -11   -1    0    0    0    0  0.00000000000E+00  0.00000000000E+00  0.45593999997E+02  0.45594000000E+02  0.51100000000E-03 0.  1.
         11   -1    0    0    0    0 -0.00000000000E+00 -0.00000000000E+00 -0.45593999997E+02  0.45594000000E+02  0.51100000000E-03 0. -1.
    9900012    2    1    2    0    0  0.28258799918E+02  0.77562118328E+01  0.28185938418E+02  0.50528859339E+02  0.29999998446E+02 0.  0.
         12    1    1    2    0    0 -0.28258799918E+02 -0.77562118328E+01 -0.28185938418E+02  0.40659140661E+02  0.00000000000E+00 0. -1.
         11    1    3    3    0    0 -0.30806135277E+01 -0.12218761421E+01  0.39261134513E+00  0.33372600952E+01  0.51100000000E-03 0. -1.
        -11    1    3    3    0    0  0.97598006506E+01  0.12585451537E+02  0.14822408846E+02  0.21756633549E+02  0.51100000000E-03 0.  1.
        -12    1    3    3    0    0  0.21579612795E+02 -0.36073635617E+01  0.12970918228E+02  0.25434965695E+02  0.00000000000E+00 0.  1.
</event>
<event>
 7    1  0.3141443E-011  0.5052886E+02  0.7816164E-02  0.1300439E+00
        -11   -1    0    0    0    0  0.00000000000E+00  0.00000000000E+00  0.45593999997E+02  0.45594000000E+02  0.51100000000E-03 0.  1.
         11   -1    0    0    0    0 -0.00000000000E+00 -0.00000000000E+00 -0.45593999997E+02  0.45594000000E+02  0.51100000000E-03 0. -1.
    9900012    2    1    2    0    0  0.26660096139E+02 -0.11330977360E+02  0.28530929369E+02  0.50528859518E+02  0.29999998991E+02 0.  0.
         12    1    1    2    0    0 -0.26660096139E+02  0.11330977360E+02 -0.28530929369E+02  0.40659140482E+02  0.00000000000E+00 0. -1.
         11    1    3    3    0    0  0.16015889128E+01 -0.29520217866E-01  0.10025556730E+02  0.10152721137E+02  0.51100000000E-03 0. -1.
        -11    1    3    3    0    0  0.18431918067E+01 -0.94742291985E+01 -0.13849898482E+01  0.97507216186E+01  0.51100000000E-03 0.  1.
        -12    1    3    3    0    0  0.23215315419E+02 -0.18272279440E+01  0.19890362487E+02  0.30625416762E+02  0.00000000000E+00 0.  1.
</event>
<event>
 7    1  0.3141443E-011  0.5052887E+02  0.7816164E-02  0.1300439E+00
        -11   -1    0    0    0    0  0.00000000000E+00  0.00000000000E+00  0.45593999997E+02  0.45594000000E+02  0.51100000000E-03 0. -1.
         11   -1    0    0    0    0 -0.00000000000E+00 -0.00000000000E+00 -0.45593999997E+02  0.45594000000E+02  0.51100000000E-03 0.  1.
    9900012    2    1    2    0    0 -0.13600899499E+02 -0.35999928523E+02 -0.13121945838E+02  0.50528870848E+02  0.30000033430E+02 0.  0.
         12    1    1    2    0    0  0.13600899499E+02  0.35999928523E+02  0.13121945838E+02  0.40659129152E+02  0.00000000000E+00 0. -1.
         11    1    3    3    0    0 -0.24298410698E+01 -0.36324600937E+01 -0.73204696991E+01  0.85257357942E+01  0.51100000000E-03 0.  1.
        -11    1    3    3    0    0 -0.27704962752E+01 -0.10151069482E+01  0.66211408025E+01  0.72488342176E+01  0.51100000000E-03 0. -1.
         12    1    3    3    0    0 -0.84005621539E+01 -0.31352361481E+02 -0.12422616941E+02  0.34754300836E+02  0.00000000000E+00 0. -1.
</event>
<event>
 7    1  0.3141443E-011  0.5052886E+02  0.7816164E-02  0.1300439E+00
        -11   -1    0    0    0    0  0.00000000000E+00  0.00000000000E+00  0.45593999997E+02  0.45594000000E+02  0.51100000000E-03 0. -1.
         11   -1    0    0    0    0 -0.00000000000E+00 -0.00000000000E+00 -0.45593999997E+02  0.45594000000E+02  0.51100000000E-03 0.  1.
    9900012    2    1    2    0    0 -0.13908470615E+02  0.32039803509E+02 -0.20812763381E+02  0.50528859782E+02  0.29999999792E+02 0.  0.
         12    1    1    2    0    0  0.13908470615E+02 -0.32039803509E+02  0.20812763381E+02  0.40659140218E+02  0.00000000000E+00 0. -1.
         11    1    3    3    0    0  0.11613374120E+01  0.56496737561E+01 -0.38828299416E+01  0.69529768267E+01  0.51100000000E-03 0. -1.
        -11    1    3    3    0    0 -0.16154840633E+02  0.29679691832E+02 -0.90715459669E+01  0.34987939773E+02  0.51100000000E-03 0.  1.
         12    1    3    3    0    0  0.10850326054E+01 -0.32895620788E+01 -0.78583874721E+01  0.85879431814E+01  0.00000000000E+00 0. -1.
</event>
<event>
 7    1  0.3141443E-011  0.5052886E+02  0.7816164E-02  0.1300439E+00
        -11   -1    0    0    0    0  0.00000000000E+00  0.00000000000E+00  0.45593999997E+02  0.45594000000E+02  0.51100000000E-03 0.  1.
         11   -1    0    0    0    0 -0.00000000000E+00 -0.00000000000E+00 -0.45593999997E+02  0.45594000000E+02  0.51100000000E-03 0. -1.
    9900012    2    1    2    0    0  0.75026344283E+01 -0.12759397172E+02  0.37869165666E+02  0.50528862678E+02  0.30000008597E+02 0.  0.
         12    1    1    2    0    0 -0.75026344283E+01  0.12759397172E+02 -0.37869165666E+02  0.40659137322E+02  0.00000000000E+00 0. -1.
         11    1    3    3    0    0  0.55871144241E+00 -0.12051484441E+02  0.30642885498E+02  0.32932307353E+02  0.51100000000E-03 0. -1.
        -11    1    3    3    0    0  0.18117179351E+01 -0.73750963670E+01  0.40190169025E+01  0.85922561311E+01  0.51100000000E-03 0.  1.
         12    1    3    3    0    0  0.51322050508E+01  0.66671836361E+01  0.32072632650E+01  0.90042991939E+01  0.00000000000E+00 0. -1.
</event>
<event>
 7    1  0.3141443E-011  0.5052886E+02  0.7816164E-02  0.1300439E+00
        -11   -1    0    0    0    0  0.00000000000E+00  0.00000000000E+00  0.45593999997E+02  0.45594000000E+02  0.51100000000E-03 0. -1.
         11   -1    0    0    0    0 -0.00000000000E+00 -0.00000000000E+00 -0.45593999997E+02  0.45594000000E+02  0.51100000000E-03 0.  1.
    9900012    2    1    2    0    0  0.10344902270E+02 -0.34597178511E+02 -0.18686465894E+02  0.50528858697E+02  0.29999996495E+02 0.  0.
         12    1    1    2    0    0 -0.10344902270E+02  0.34597178511E+02  0.18686465894E+02  0.40659141303E+02  0.00000000000E+00 0. -1.
         11    1    3    3    0    0  0.11559693424E+02 -0.16960706894E+02 -0.89106126638E+01  0.22376128099E+02  0.51100000000E-03 0. -1.
        -11    1    3    3    0    0 -0.16796433295E+01 -0.21971166683E+02 -0.79349008595E+01  0.23420418848E+02  0.51100000000E-03 0.  1.
         12    1    3    3    0    0  0.46485217548E+00  0.43346950661E+01 -0.18409523711E+01  0.47323117494E+01  0.00000000000E+00 0. -1.
</event>
<event>
 7    1  0.3141443E-011  0.5052885E+02  0.7816164E-02  0.1300439E+00
        -11   -1    0    0    0    0  0.00000000000E+00  0.00000000000E+00  0.45593999997E+02  0.45594000000E+02  0.51100000000E-03 0.  1.
         11   -1    0    0    0    0 -0.00000000000E+00 -0.00000000000E+00 -0.45593999997E+02  0.45594000000E+02  0.51100000000E-03 0. -1.
    9900012    2    1    2    0    0 -0.23372508172E+01  0.45588832905E+01  0.40335097224E+02  0.50528853104E+02  0.29999979494E+02 0.  0.
         12    1    1    2    0    0  0.23372508172E+01 -0.45588832905E+01 -0.40335097224E+02  0.40659146896E+02  0.00000000000E+00 0. -1.
         11    1    3    3    0    0 -0.23206829857E+00  0.90627507720E+01  0.30574407427E+02  0.31890150471E+02  0.51100000000E-03 0. -1.
        -11    1    3    3    0    0 -0.40355549696E+01  0.32864777899E+01  0.92287902291E+01  0.10595150284E+02  0.51100000000E-03 0.  1.
         12    1    3    3    0    0  0.19303724511E+01 -0.77903452714E+01  0.53189956799E+00  0.80435523494E+01  0.00000000000E+00 0. -1.
</event>
<event>
 7    1  0.3141443E-011  0.5052887E+02  0.7816164E-02  0.1300439E+00
        -11   -1    0    0    0    0  0.00000000000E+00  0.00000000000E+00  0.45593999997E+02  0.45594000000E+02  0.51100000000E-03 0.  1.
         11   -1    0    0    0    0 -0.00000000000E+00 -0.00000000000E+00 -0.45593999997E+02  0.45594000000E+02  0.51100000000E-03 0. -1.
    9900012    2    1    2    0    0  0.11754064941E+02  0.36515482545E+02  0.13476889128E+02  0.50528867586E+02  0.30000023513E+02 0.  0.
         12    1    1    2    0    0 -0.11754064941E+02 -0.36515482545E+02 -0.13476889128E+02  0.40659132414E+02  0.00000000000E+00 0. -1.
         11    1    3    3    0    0 -0.45104291583E+01  0.15523043930E+02  0.13867792540E+02  0.21298463190E+02  0.51100000000E-03 0. -1.
        -11    1    3    3    0    0  0.36958378143E+01  0.29575003170E+00 -0.31427510797E+01  0.48604084027E+01  0.51100000000E-03 0.  1.
        -12    1    3    3    0    0  0.12568656285E+02  0.20696688583E+02  0.27518476674E+01  0.24369995993E+02  0.00000000000E+00 0.  1.
</event>
<event>
 7    1  0.3141443E-011  0.5052887E+02  0.7816164E-02  0.1300439E+00
        -11   -1    0    0    0    0  0.00000000000E+00  0.00000000000E+00  0.45593999997E+02  0.45594000000E+02  0.51100000000E-03 0. -1.
         11   -1    0    0    0    0 -0.00000000000E+00 -0.00000000000E+00 -0.45593999997E+02  0.45594000000E+02  0.51100000000E-03 0.  1.
    9900012    2    1    2    0    0 -0.85353290726E+01  0.38604933600E+02 -0.94853749075E+01  0.50528867228E+02  0.30000022427E+02 0.  0.
         12    1    1    2    0    0  0.85353290726E+01 -0.38604933600E+02  0.94853749075E+01  0.40659132772E+02  0.00000000000E+00 0. -1.
         11    1    3    3    0    0 -0.27929459905E+01  0.80934323381E+01  0.60061655878E+01  0.10458404259E+02  0.51100000000E-03 0. -1.
        -11    1    3    3    0    0  0.75245301783E+01  0.98548424717E+01 -0.48703537416E+01  0.13321291993E+02  0.51100000000E-03 0.  1.
         12    1    3    3    0    0 -0.13266913260E+02  0.20656658790E+02 -0.10621186754E+02  0.26749170976E+02  0.00000000000E+00 0. -1.
</event>
<event>
 7    1  0.3141443E-011  0.5052886E+02  0.7816164E-02  0.1300439E+00
        -11   -1    0    0    0    0  0.00000000000E+00  0.00000000000E+00  0.45593999997E+02  0.45594000000E+02  0.51100000000E-03 0. -1.
         11   -1    0    0    0    0 -0.00000000000E+00 -0.00000000000E+00 -0.45593999997E+02  0.45594000000E+02  0.51100000000E-03 0.  1.
    9900012    2    1    2    0    0  0.32902833649E+02  0.20625196209E+02 -0.12048670064E+02  0.50528860423E+02  0.30000001743E+02 0.  0.
         12    1    1    2    0    0 -0.32902833649E+02 -0.20625196209E+02  0.12048670064E+02  0.40659139577E+02  0.00000000000E+00 0. -1.
         11    1    3    3    0    0 -0.12224311582E+01 -0.21056834101E+01 -0.32348828980E+01  0.40487909534E+01  0.51100000000E-03 0. -1.
        -11    1    3    3    0    0  0.24447298049E+02  0.25665147852E+02 -0.79817847154E+01  0.36332892586E+02  0.51100000000E-03 0.  1.
         12    1    3    3    0    0  0.96779667578E+01 -0.29342682330E+01 -0.83200245057E+00  0.10147176884E+02  0.00000000000E+00 0. -1.
</event>
<event>
 7    1  0.3141443E-011  0.5052886E+02  0.7816164E-02  0.1300439E+00
        -11   -1    0    0    0    0  0.00000000000E+00  0.00000000000E+00  0.45593999997E+02  0.45594000000E+02  0.51100000000E-03 0. -1.
         11   -1    0    0    0    0 -0.00000000000E+00 -0.00000000000E+00 -0.45593999997E+02  0.45594000000E+02  0.51100000000E-03 0.  1.
    9900012    2    1    2    0    0 -0.39362615867E+02 -0.52097983379E+01 -0.87525870056E+01  0.50528864422E+02  0.30000013898E+02 0.  0.
         12    1    1    2    0    0  0.39362615867E+02  0.52097983379E+01  0.87525870056E+01  0.40659135578E+02  0.00000000000E+00 0. -1.
         11    1    3    3    0    0 -0.50763111480E+01 -0.11839617673E+01  0.20576528088E+01  0.56039839115E+01  0.51100000000E-03 0. -1.
        -11    1    3    3    0    0 -0.34786024040E+01 -0.96596171466E+01 -0.88334711439E+01  0.13543968799E+02  0.51100000000E-03 0.  1.
        -12    1    3    3    0    0 -0.30807702315E+02  0.56337805759E+01 -0.19767686705E+01  0.31380911712E+02  0.00000000000E+00 0.  1.
</event>
<event>
 7    1  0.3141443E-011  0.5052887E+02  0.7816164E-02  0.1300439E+00
        -11   -1    0    0    0    0  0.00000000000E+00  0.00000000000E+00  0.45593999997E+02  0.45594000000E+02  0.51100000000E-03 0. -1.
         11   -1    0    0    0    0 -0.00000000000E+00 -0.00000000000E+00 -0.45593999997E+02  0.45594000000E+02  0.51100000000E-03 0.  1.
    9900012    2    1    2    0    0  0.40627948717E+02 -0.12399392583E+01 -0.99860560159E+00  0.50528869667E+02  0.30000029839E+02 0.  0.
         12    1    1    2    0    0 -0.40627948717E+02  0.12399392583E+01  0.99860560159E+00  0.40659130333E+02  0.00000000000E+00 0. -1.
         11    1    3    3    0    0  0.51244756794E+01  0.21567606031E+01  0.19713644538E+01  0.58989952839E+01  0.51100000000E-03 0. -1.
        -11    1    3    3    0    0  0.36003459432E+02 -0.10426514224E+02 -0.24183372973E+01  0.37560746072E+02  0.51100000000E-03 0.  1.
        -12    1    3    3    0    0 -0.49998639459E+00  0.70298143628E+01 -0.55163275808E+00  0.70691283105E+01  0.00000000000E+00 0.  1.
</event>
<event>
 7    1  0.3156758E-011  0.5052886E+02  0.7816164E-02  0.1300439E+00
        -11   -1    0    0    0    0  0.00000000000E+00  0.00000000000E+00  0.45593999997E+02  0.45594000000E+02  0.51100000000E-03 0.  1.
         11   -1    0    0    0    0 -0.00000000000E+00 -0.00000000000E+00 -0.45593999997E+02  0.45594000000E+02  0.51100000000E-03 0. -1.
    9900012    2    1    2    0    0  0.38353316732E+02 -0.24112387679E+01  0.13280621195E+02  0.50528857411E+02  0.29999992586E+02 0.  0.
         12    1    1    2    0    0 -0.38353316732E+02  0.24112387679E+01 -0.13280621195E+02  0.40659142589E+02  0.00000000000E+00 0. -1.
         11    1    3    3    0    0  0.30400547734E+01  0.52151958316E+01  0.13472945518E+01  0.61850952667E+01  0.51100000000E-03 0. -1.
        -11    1    3    3    0    0  0.62849600360E+00 -0.65964223331E+01  0.63868207178E+01  0.92032208474E+01  0.51100000000E-03 0.  1.
        -12    1    3    3    0    0  0.34684765955E+02 -0.10300122663E+01  0.55465059250E+01  0.35140541297E+02  0.00000000000E+00 0.  1.
</event>
<event>
 7    1  0.3141443E-011  0.5052886E+02  0.7816164E-02  0.1300439E+00
        -11   -1    0    0    0    0  0.00000000000E+00  0.00000000000E+00  0.45593999997E+02  0.45594000000E+02  0.51100000000E-03 0. -1.
         11   -1    0    0    0    0 -0.00000000000E+00 -0.00000000000E+00 -0.45593999997E+02  0.45594000000E+02  0.51100000000E-03 0.  1.
    9900012    2    1    2    0    0 -0.35169317901E+02  0.20159525765E+02 -0.31429836728E+01  0.50528858998E+02  0.29999997410E+02 0.  0.
         12    1    1    2    0    0  0.35169317901E+02 -0.20159525765E+02  0.31429836728E+01  0.40659141002E+02  0.00000000000E+00 0. -1.
         11    1    3    3    0    0 -0.52581765888E+01  0.11952493552E+02 -0.31305756288E+01  0.13427994161E+02  0.51100000000E-03 0. -1.
        -11    1    3    3    0    0 -0.25008123826E+02  0.14645635153E+02  0.57411003474E+00  0.28986729532E+02  0.51100000000E-03 0.  1.
         12    1    3    3    0    0 -0.49030174858E+01 -0.64386029408E+01 -0.58651807869E+00  0.81141353053E+01  0.00000000000E+00 0. -1.
</event>
<event>
 7    1  0.3141443E-011  0.5052886E+02  0.7816164E-02  0.1300439E+00
        -11   -1    0    0    0    0  0.00000000000E+00  0.00000000000E+00  0.45593999997E+02  0.45594000000E+02  0.51100000000E-03 0.  1.
         11   -1    0    0    0    0 -0.00000000000E+00 -0.00000000000E+00 -0.45593999997E+02  0.45594000000E+02  0.51100000000E-03 0. -1.
    9900012    2    1    2    0    0 -0.38745559545E+02 -0.10463401403E+02  0.65164905172E+01  0.50528858321E+02  0.29999995353E+02 0.  0.
         12    1    1    2    0    0  0.38745559545E+02  0.10463401403E+02 -0.65164905172E+01  0.40659141679E+02  0.00000000000E+00 0. -1.
         11    1    3    3    0    0 -0.20240968438E+02 -0.13660126201E+02  0.14574571328E+01  0.24462625220E+02  0.51100000000E-03 0.  1.
        -11    1    3    3    0    0 -0.54211519392E+01 -0.16198620818E+01 -0.60176258504E+01  0.82598221923E+01  0.51100000000E-03 0. -1.
         12    1    3    3    0    0 -0.13083439168E+02  0.48165868791E+01  0.11076659235E+02  0.17806410908E+02  0.00000000000E+00 0. -1.
</event>
<event>
 7    1  0.3141443E-011  0.5052886E+02  0.7816164E-02  0.1300439E+00
        -11   -1    0    0    0    0  0.00000000000E+00  0.00000000000E+00  0.45593999997E+02  0.45594000000E+02  0.51100000000E-03 0.  1.
         11   -1    0    0    0    0 -0.00000000000E+00 -0.00000000000E+00 -0.45593999997E+02  0.45594000000E+02  0.51100000000E-03 0. -1.
    9900012    2    1    2    0    0  0.19944798350E+02  0.30345955795E+02  0.18289175487E+02  0.50528856448E+02  0.29999989660E+02 0.  0.
         12    1    1    2    0    0 -0.19944798350E+02 -0.30345955795E+02 -0.18289175487E+02  0.40659143552E+02  0.00000000000E+00 0. -1.
         11    1    3    3    0    0 -0.56441213928E+00  0.15487817564E+02  0.10748930955E+02  0.18860821055E+02  0.51100000000E-03 0. -1.
        -11    1    3    3    0    0 -0.67895769912E+00  0.53619479310E+01  0.64617699691E+01  0.84241284752E+01  0.51100000000E-03 0.  1.
        -12    1    3    3    0    0  0.21188168189E+02  0.94961903006E+01  0.10784745631E+01  0.23243906918E+02  0.00000000000E+00 0.  1.
</event>
<event>
 7    1  0.3141443E-011  0.5052886E+02  0.7816164E-02  0.1300439E+00
        -11   -1    0    0    0    0  0.00000000000E+00  0.00000000000E+00  0.45593999997E+02  0.45594000000E+02  0.51100000000E-03 0.  1.
         11   -1    0    0    0    0 -0.00000000000E+00 -0.00000000000E+00 -0.45593999997E+02  0.45594000000E+02  0.51100000000E-03 0. -1.
    9900012    2    1    2    0    0  0.18347922300E+02 -0.22376010702E+02  0.28562798009E+02  0.50528861571E+02  0.30000005232E+02 0.  0.
         12    1    1    2    0    0 -0.18347922300E+02  0.22376010702E+02 -0.28562798009E+02  0.40659138429E+02  0.00000000000E+00 0. -1.
         11    1    3    3    0    0  0.59630761157E+00 -0.10053150013E+02  0.10189341656E+02  0.14326342576E+02  0.51100000000E-03 0. -1.
        -11    1    3    3    0    0  0.90001674000E+00  0.29367036774E+01  0.12291021993E+02  0.12668996824E+02  0.51100000000E-03 0.  1.
        -12    1    3    3    0    0  0.16851597949E+02 -0.15259564366E+02  0.60824343596E+01  0.23533522172E+02  0.00000000000E+00 0.  1.
</event>
<event>
 7    1  0.3141443E-011  0.5052886E+02  0.7816164E-02  0.1300439E+00
        -11   -1    0    0    0    0  0.00000000000E+00  0.00000000000E+00  0.45593999997E+02  0.45594000000E+02  0.51100000000E-03 0. -1.
         11   -1    0    0    0    0 -0.00000000000E+00 -0.00000000000E+00 -0.45593999997E+02  0.45594000000E+02  0.51100000000E-03 0.  1.
    9900012    2    1    2    0    0 -0.18526029046E+02  0.25435794028E+02 -0.25748244679E+02  0.50528862354E+02  0.30000007611E+02 0.  0.
         12    1    1    2    0    0  0.18526029046E+02 -0.25435794028E+02  0.25748244679E+02  0.40659137646E+02  0.00000000000E+00 0. -1.
         11    1    3    3    0    0 -0.94756936775E+01  0.10501490435E+02 -0.11347686794E+02  0.18133947939E+02  0.51100000000E-03 0. -1.
        -11    1    3    3    0    0 -0.14984070824E+02  0.24459022326E+01 -0.79481407437E+01  0.17137028848E+02  0.51100000000E-03 0.  1.
         12    1    3    3    0    0  0.59337354558E+01  0.12488401360E+02 -0.64524171414E+01  0.15257885567E+02  0.00000000000E+00 0. -1.
</event>
<event>
 7    1  0.3141443E-011  0.5052887E+02  0.7816164E-02  0.1300439E+00
        -11   -1    0    0    0    0  0.00000000000E+00  0.00000000000E+00  0.45593999997E+02  0.45594000000E+02  0.51100000000E-03 0.  1.
         11   -1    0    0    0    0 -0.00000000000E+00 -0.00000000000E+00 -0.45593999997E+02  0.45594000000E+02  0.51100000000E-03 0. -1.
    9900012    2    1    2    0    0  0.14988181007E+02  0.31439446152E+02  0.20978098058E+02  0.50528868893E+02  0.30000027486E+02 0.  0.
         12    1    1    2    0    0 -0.14988181007E+02 -0.31439446152E+02 -0.20978098058E+02  0.40659131107E+02  0.00000000000E+00 0. -1.
         11    1    3    3    0    0 -0.11895788772E+01  0.81498454124E+01 -0.31662046514E+01  0.88238274182E+01  0.51100000000E-03 0. -1.
        -11    1    3    3    0    0  0.14035741029E+02  0.26580119611E+02  0.20878166164E+02  0.36597849765E+02  0.51100000000E-03 0.  1.
         12    1    3    3    0    0  0.21420188559E+01 -0.32905188717E+01  0.32661365457E+01  0.51071917097E+01  0.00000000000E+00 0. -1.
</event>
<event>
 7    1  0.3141443E-011  0.5052896E+02  0.7816164E-02  0.1300438E+00
        -11   -1    0    0    0    0  0.00000000000E+00  0.00000000000E+00  0.45593999997E+02  0.45594000000E+02  0.51100000000E-03 0.  1.
         11   -1    0    0    0    0 -0.00000000000E+00 -0.00000000000E+00 -0.45593999997E+02  0.45594000000E+02  0.51100000000E-03 0. -1.
    9900012    2    1    2    0    0 -0.24022104840E+02 -0.20237684032E+02  0.25817283450E+02  0.50528960406E+02  0.30000305650E+02 0.  0.
         12    1    1    2    0    0  0.24022104840E+02  0.20237684032E+02 -0.25817283450E+02  0.40659039594E+02  0.00000000000E+00 0. -1.
         11    1    3    3    0    0 -0.51864272146E-01 -0.54460365588E+01  0.14134041859E+02  0.15147050658E+02  0.51100000000E-03 0. -1.
        -11    1    3    3    0    0 -0.97368468591E+00 -0.89387998203E+01  0.13806133503E+00  0.89927340275E+01  0.51100000000E-03 0.  1.
         12    1    3    3    0    0 -0.22996555882E+02 -0.58528476524E+01  0.11545180256E+02  0.26389175721E+02  0.00000000000E+00 0. -1.
</event>
<event>
 7    1  0.3839939E-011  0.5052890E+02  0.7816164E-02  0.1300439E+00
        -11   -1    0    0    0    0  0.00000000000E+00  0.00000000000E+00  0.45593999997E+02  0.45594000000E+02  0.51100000000E-03 0. -1.
         11   -1    0    0    0    0 -0.00000000000E+00 -0.00000000000E+00 -0.45593999997E+02  0.45594000000E+02  0.51100000000E-03 0.  1.
    9900012    2    1    2    0    0 -0.14293786150E+02 -0.30818888427E+02 -0.22339341917E+02  0.50528900112E+02  0.30000122381E+02 0.  0.
         12    1    1    2    0    0  0.14293786150E+02  0.30818888427E+02  0.22339341917E+02  0.40659099888E+02  0.00000000000E+00 0. -1.
         11    1    3    3    0    0 -0.14487928095E+02 -0.25190314289E+02 -0.67117201246E+01  0.29824472866E+02  0.51100000000E-03 0. -1.
        -11    1    3    3    0    0  0.49173007405E+01 -0.67160118872E+01 -0.73111024707E+01  0.11078667873E+02  0.51100000000E-03 0.  1.
        -12    1    3    3    0    0 -0.47231587962E+01  0.10874377491E+01 -0.83165193220E+01  0.96257593730E+01  0.00000000000E+00 0.  1.
</event>
<event>
 7    1  0.3141443E-011  0.5052886E+02  0.7816164E-02  0.1300439E+00
        -11   -1    0    0    0    0  0.00000000000E+00  0.00000000000E+00  0.45593999997E+02  0.45594000000E+02  0.51100000000E-03 0. -1.
         11   -1    0    0    0    0 -0.00000000000E+00 -0.00000000000E+00 -0.45593999997E+02  0.45594000000E+02  0.51100000000E-03 0.  1.
    9900012    2    1    2    0    0  0.18436712177E+02  0.34429880279E+02 -0.11306487819E+02  0.50528859838E+02  0.29999999964E+02 0.  0.
         12    1    1    2    0    0 -0.18436712177E+02 -0.34429880279E+02  0.11306487819E+02  0.40659140162E+02  0.00000000000E+00 0. -1.
         11    1    3    3    0    0  0.57947207052E+00  0.21448170050E+02 -0.74856564666E+00  0.21469050681E+02  0.51100000000E-03 0. -1.
        -11    1    3    3    0    0  0.15132990455E+02  0.16598706105E+02 -0.79067359440E+01  0.23812620981E+02  0.51100000000E-03 0.  1.
        -12    1    3    3    0    0  0.27242496521E+01 -0.36169958757E+01 -0.26511862284E+01  0.52471881756E+01  0.00000000000E+00 0.  1.
</event>
<event>
 7    1  0.3141443E-011  0.5052885E+02  0.7816164E-02  0.1300439E+00
        -11   -1    0    0    0    0  0.00000000000E+00  0.00000000000E+00  0.45593999997E+02  0.45594000000E+02  0.51100000000E-03 0.  1.
         11   -1    0    0    0    0 -0.00000000000E+00 -0.00000000000E+00 -0.45593999997E+02  0.45594000000E+02  0.51100000000E-03 0. -1.
    9900012    2    1    2    0    0  0.13029168841E+01 -0.24127660231E+02  0.32700531266E+02  0.50528851882E+02  0.29999975781E+02 0.  0.
         12    1    1    2    0    0 -0.13029168841E+01  0.24127660231E+02 -0.32700531266E+02  0.40659148118E+02  0.00000000000E+00 0. -1.
         11    1    3    3    0    0 -0.73539436955E+00 -0.10729472769E+01 -0.30055615693E+01  0.32749689076E+01  0.51100000000E-03 0. -1.
        -11    1    3    3    0    0  0.21804738851E+01 -0.10718913058E+02  0.32805203101E+02  0.34580788225E+02  0.51100000000E-03 0.  1.
         12    1    3    3    0    0 -0.14216263145E+00 -0.12335799896E+02  0.29008897343E+01  0.12673094750E+02  0.00000000000E+00 0. -1.
</event>
<event>
 7    1  0.3141443E-011  0.5052879E+02  0.7816164E-02  0.1300439E+00
        -11   -1    0    0    0    0  0.00000000000E+00  0.00000000000E+00  0.45593999997E+02  0.45594000000E+02  0.51100000000E-03 0.  1.
         11   -1    0    0    0    0 -0.00000000000E+00 -0.00000000000E+00 -0.45593999997E+02  0.45594000000E+02  0.51100000000E-03 0. -1.
    9900012    2    1    2    0    0 -0.67780035873E+01  0.20865719105E+02  0.34232315662E+02  0.50528794376E+02  0.29999800984E+02 0.  0.
         12    1    1    2    0    0  0.67780035873E+01 -0.20865719105E+02 -0.34232315662E+02  0.40659205624E+02  0.00000000000E+00 0. -1.
         11    1    3    3    0    0 -0.77529067697E+01  0.11319077992E+02  0.17592044621E+02  0.22309395423E+02  0.51100000000E-03 0. -1.
        -11    1    3    3    0    0  0.24362911737E+01  0.59032136186E+01  0.21235914436E+02  0.22175380671E+02  0.51100000000E-03 0.  1.
        -12    1    3    3    0    0 -0.14613879913E+01  0.36434274949E+01 -0.45956433948E+01  0.60440182813E+01  0.00000000000E+00 0.  1.
</event>
<event>
 7    1  0.3141443E-011  0.5052886E+02  0.7816164E-02  0.1300439E+00
        -11   -1    0    0    0    0  0.00000000000E+00  0.00000000000E+00  0.45593999997E+02  0.45594000000E+02  0.51100000000E-03 0.  1.
         11   -1    0    0    0    0 -0.00000000000E+00 -0.00000000000E+00 -0.45593999997E+02  0.45594000000E+02  0.51100000000E-03 0. -1.
    9900012    2    1    2    0    0 -0.35427482377E+02  0.18207171686E+02  0.81583034748E+01  0.50528861742E+02  0.30000005750E+02 0.  0.
         12    1    1    2    0    0  0.35427482377E+02 -0.18207171686E+02 -0.81583034748E+01  0.40659138258E+02  0.00000000000E+00 0. -1.
         11    1    3    3    0    0 -0.15092960602E+02  0.17082982167E+01  0.99371850151E+01  0.18151126379E+02  0.51100000000E-03 0. -1.
        -11    1    3    3    0    0 -0.10041225670E+02 -0.10537248598E+01 -0.57889714149E+01  0.11638244685E+02  0.51100000000E-03 0.  1.
        -12    1    3    3    0    0 -0.10293296104E+02  0.17552598329E+02  0.40100898745E+01  0.20739490678E+02  0.00000000000E+00 0.  1.
</event>
<event>
 7    1  0.3141443E-011  0.5052886E+02  0.7816164E-02  0.1300439E+00
        -11   -1    0    0    0    0  0.00000000000E+00  0.00000000000E+00  0.45593999997E+02  0.45594000000E+02  0.51100000000E-03 0.  1.
         11   -1    0    0    0    0 -0.00000000000E+00 -0.00000000000E+00 -0.45593999997E+02  0.45594000000E+02  0.51100000000E-03 0. -1.
    9900012    2    1    2    0    0 -0.96556851373E+01  0.16362963116E+02  0.35947001142E+02  0.50528859472E+02  0.29999998851E+02 0.  0.
         12    1    1    2    0    0  0.96556851373E+01 -0.16362963116E+02 -0.35947001142E+02  0.40659140528E+02  0.00000000000E+00 0. -1.
         11    1    3    3    0    0  0.13551872607E+01  0.73513528716E+01  0.18078753675E+02  0.19563237367E+02  0.51100000000E-03 0. -1.
        -11    1    3    3    0    0  0.14706411510E+01  0.64061094731E+01  0.16952652985E+02  0.18182229441E+02  0.51100000000E-03 0.  1.
         12    1    3    3    0    0 -0.12481513549E+02  0.26055007709E+01  0.91559448166E+00  0.12783392664E+02  0.00000000000E+00 0. -1.
</event>
<event>
 7    1  0.3141443E-011  0.5052887E+02  0.7816164E-02  0.1300439E+00
        -11   -1    0    0    0    0  0.00000000000E+00  0.00000000000E+00  0.45593999997E+02  0.45594000000E+02  0.51100000000E-03 0. -1.
         11   -1    0    0    0    0 -0.00000000000E+00 -0.00000000000E+00 -0.45593999997E+02  0.45594000000E+02  0.51100000000E-03 0.  1.
    9900012    2    1    2    0    0 -0.38635856915E+02  0.55564621656E+01 -0.11382507581E+02  0.50528865846E+02  0.30000018225E+02 0.  0.
         12    1    1    2    0    0  0.38635856915E+02 -0.55564621656E+01  0.11382507581E+02  0.40659134154E+02  0.00000000000E+00 0. -1.
         11    1    3    3    0    0 -0.10888982762E+02  0.12491243253E+02 -0.36547108012E+01  0.16969325706E+02  0.51100000000E-03 0. -1.
        -11    1    3    3    0    0 -0.22674220383E+02  0.15658697978E+01 -0.47156241110E+01  0.23212266783E+02  0.51100000000E-03 0.  1.
         12    1    3    3    0    0 -0.50726537693E+01 -0.85006508853E+01 -0.30121726685E+01  0.10347273357E+02  0.00000000000E+00 0. -1.
</event>
<event>
 7    1  0.3141443E-011  0.5052887E+02  0.7816164E-02  0.1300439E+00
        -11   -1    0    0    0    0  0.00000000000E+00  0.00000000000E+00  0.45593999997E+02  0.45594000000E+02  0.51100000000E-03 0. -1.
         11   -1    0    0    0    0 -0.00000000000E+00 -0.00000000000E+00 -0.45593999997E+02  0.45594000000E+02  0.51100000000E-03 0.  1.
    9900012    2    1    2    0    0 -0.41101443389E+01 -0.28004528670E+01 -0.40353801534E+02  0.50528866697E+02  0.30000020812E+02 0.  0.
         12    1    1    2    0    0  0.41101443389E+01  0.28004528670E+01  0.40353801534E+02  0.40659133303E+02  0.00000000000E+00 0. -1.
         11    1    3    3    0    0  0.23662215106E+01 -0.45973903693E+01 -0.27242805815E+01  0.58443739950E+01  0.51100000000E-03 0. -1.
        -11    1    3    3    0    0 -0.11969438042E+01 -0.76458533523E+01 -0.31099728457E+02  0.32048164664E+02  0.51100000000E-03 0.  1.
         12    1    3    3    0    0 -0.52794220452E+01  0.94427908546E+01 -0.65297924949E+01  0.12636328038E+02  0.00000000000E+00 0. -1.
</event>
<event>
 7    1  0.3141443E-011  0.5052887E+02  0.7816164E-02  0.1300439E+00
        -11   -1    0    0    0    0  0.00000000000E+00  0.00000000000E+00  0.45593999997E+02  0.45594000000E+02  0.51100000000E-03 0. -1.
         11   -1    0    0    0    0 -0.00000000000E+00 -0.00000000000E+00 -0.45593999997E+02  0.45594000000E+02  0.51100000000E-03 0.  1.
    9900012    2    1    2    0    0  0.36626014985E+02 -0.97471400174E+01 -0.14720507382E+02  0.50528867572E+02  0.30000023471E+02 0.  0.
         12    1    1    2    0    0 -0.36626014985E+02  0.97471400174E+01  0.14720507382E+02  0.40659132428E+02  0.00000000000E+00 0. -1.
         11    1    3    3    0    0  0.94633403006E+00  0.11980501981E+01  0.99407067995E+00  0.18218257742E+01  0.51100000000E-03 0. -1.
        -11    1    3    3    0    0  0.70636483017E+01 -0.13508085800E+02 -0.12658920770E+02  0.19814433745E+02  0.51100000000E-03 0.  1.
        -12    1    3    3    0    0  0.28616032653E+02  0.25628955847E+01 -0.30556572924E+01  0.28892608053E+02  0.00000000000E+00 0.  1.
</event>
<event>
 7    1  0.3141443E-011  0.5052885E+02  0.7816164E-02  0.1300439E+00
        -11   -1    0    0    0    0  0.00000000000E+00  0.00000000000E+00  0.45593999997E+02  0.45594000000E+02  0.51100000000E-03 0. -1.
         11   -1    0    0    0    0 -0.00000000000E+00 -0.00000000000E+00 -0.45593999997E+02  0.45594000000E+02  0.51100000000E-03 0.  1.
    9900012    2    1    2    0    0  0.19439163155E+02  0.28076782114E+02 -0.22067618535E+02  0.50528849175E+02  0.29999967551E+02 0.  0.
         12    1    1    2    0    0 -0.19439163155E+02 -0.28076782114E+02  0.22067618535E+02  0.40659150825E+02  0.00000000000E+00 0. -1.
         11    1    3    3    0    0  0.14297874964E+02  0.14025172249E+02 -0.20351767533E+02  0.28553968674E+02  0.51100000000E-03 0. -1.
        -11    1    3    3    0    0  0.95474956079E+01  0.31582215292E+01 -0.18411311557E+01  0.10223443637E+02  0.51100000000E-03 0.  1.
         12    1    3    3    0    0 -0.44062074164E+01  0.10893388336E+02  0.12528015374E+00  0.11751436863E+02  0.00000000000E+00 0. -1.
</event>
<event>
 7    1  0.3141443E-011  0.5052886E+02  0.7816164E-02  0.1300439E+00
        -11   -1    0    0    0    0  0.00000000000E+00  0.00000000000E+00  0.45593999997E+02  0.45594000000E+02  0.51100000000E-03 0.  1.
         11   -1    0    0    0    0 -0.00000000000E+00 -0.00000000000E+00 -0.45593999997E+02  0.45594000000E+02  0.51100000000E-03 0. -1.
    9900012    2    1    2    0    0  0.16054712041E+02  0.37288337137E+02  0.22342085433E+01  0.50528861384E+02  0.30000004663E+02 0.  0.
         12    1    1    2    0    0 -0.16054712041E+02 -0.37288337137E+02 -0.22342085433E+01  0.40659138616E+02  0.00000000000E+00 0. -1.
         11    1    3    3    0    0  0.79836189461E+01  0.56009408140E+01  0.12460486417E+02  0.15823161236E+02  0.51100000000E-03 0. -1.
        -11    1    3    3    0    0  0.14105066922E+01  0.23642443158E+01 -0.23539660371E+01  0.36222005299E+01  0.51100000000E-03 0.  1.
        -12    1    3    3    0    0  0.66605864030E+01  0.29323152007E+02 -0.78723118370E+01  0.31083499618E+02  0.00000000000E+00 0.  1.
</event>
<event>
 7    1  0.3141443E-011  0.5052878E+02  0.7816164E-02  0.1300439E+00
        -11   -1    0    0    0    0  0.00000000000E+00  0.00000000000E+00  0.45593999997E+02  0.45594000000E+02  0.51100000000E-03 0.  1.
         11   -1    0    0    0    0 -0.00000000000E+00 -0.00000000000E+00 -0.45593999997E+02  0.45594000000E+02  0.51100000000E-03 0. -1.
    9900012    2    1    2    0    0 -0.30370546952E+02  0.26418675442E+02 -0.57320081511E+01  0.50528776548E+02  0.29999746796E+02 0.  0.
         12    1    1    2    0    0  0.30370546952E+02 -0.26418675442E+02  0.57320081511E+01  0.40659223452E+02  0.00000000000E+00 0. -1.
         11    1    3    3    0    0  0.30009138518E+00 -0.15041619966E+01  0.12813647160E-01  0.15338587295E+01  0.51100000000E-03 0. -1.
        -11    1    3    3    0    0 -0.13414329523E+02  0.21006358790E+02 -0.14074352147E+02  0.28623394886E+02  0.51100000000E-03 0.  1.
         12    1    3    3    0    0 -0.17256308814E+02  0.69164786487E+01  0.83295303492E+01  0.20371522933E+02  0.00000000000E+00 0. -1.
</event>
<event>
 7    1  0.3141443E-011  0.5052886E+02  0.7816164E-02  0.1300439E+00
        -11   -1    0    0    0    0  0.00000000000E+00  0.00000000000E+00  0.45593999997E+02  0.45594000000E+02  0.51100000000E-03 0.  1.
         11   -1    0    0    0    0 -0.00000000000E+00 -0.00000000000E+00 -0.45593999997E+02  0.45594000000E+02  0.51100000000E-03 0. -1.
    9900012    2    1    2    0    0  0.30067722992E+02 -0.19497040358E+02 -0.19208411279E+02  0.50528860652E+02  0.30000002437E+02 0.  0.
         12    1    1    2    0    0 -0.30067722992E+02  0.19497040358E+02  0.19208411279E+02  0.40659139348E+02  0.00000000000E+00 0. -1.
         11    1    3    3    0    0  0.91666310489E+01 -0.26227743116E+01 -0.13514286666E+02  0.16539105606E+02  0.51100000000E-03 0. -1.
        -11    1    3    3    0    0  0.52818922069E+01 -0.12573778509E+02 -0.10364528264E+02  0.17129557428E+02  0.51100000000E-03 0.  1.
         12    1    3    3    0    0  0.15619199736E+02 -0.43004875378E+01  0.46704036512E+01  0.16860197618E+02  0.00000000000E+00 0. -1.
</event>
<event>
 7    1  0.3141443E-011  0.5052886E+02  0.7816164E-02  0.1300439E+00
        -11   -1    0    0    0    0  0.00000000000E+00  0.00000000000E+00  0.45593999997E+02  0.45594000000E+02  0.51100000000E-03 0.  1.
         11   -1    0    0    0    0 -0.00000000000E+00 -0.00000000000E+00 -0.45593999997E+02  0.45594000000E+02  0.51100000000E-03 0. -1.
    9900012    2    1    2    0    0  0.10045186042E+02 -0.26395362993E+02  0.29249698696E+02  0.50528858052E+02  0.29999994536E+02 0.  0.
         12    1    1    2    0    0 -0.10045186042E+02  0.26395362993E+02 -0.29249698696E+02  0.40659141948E+02  0.00000000000E+00 0. -1.
         11    1    3    3    0    0  0.46749323131E+01 -0.44857155607E+01  0.12008926429E+01  0.65892928016E+01  0.51100000000E-03 0. -1.
        -11    1    3    3    0    0  0.12028547015E+02 -0.59155602442E+01  0.34307574452E+01  0.13836541953E+02  0.51100000000E-03 0.  1.
         12    1    3    3    0    0 -0.66582932862E+01 -0.15994087188E+02  0.24618048607E+02  0.30103023298E+02  0.00000000000E+00 0. -1.
</event>
<event>
 7    1  0.3141443E-011  0.5052886E+02  0.7816164E-02  0.1300439E+00
        -11   -1    0    0    0    0  0.00000000000E+00  0.00000000000E+00  0.45593999997E+02  0.45594000000E+02  0.51100000000E-03 0. -1.
         11   -1    0    0    0    0 -0.00000000000E+00 -0.00000000000E+00 -0.45593999997E+02  0.45594000000E+02  0.51100000000E-03 0.  1.
    9900012    2    1    2    0    0  0.33506191144E+02  0.18894623184E+01 -0.22954974410E+02  0.50528858802E+02  0.29999996813E+02 0.  0.
         12    1    1    2    0    0 -0.33506191144E+02 -0.18894623184E+01  0.22954974410E+02  0.40659141198E+02  0.00000000000E+00 0. -1.
         11    1    3    3    0    0  0.66592312923E+00  0.31351587187E+01 -0.12073227309E+01  0.34249528818E+01  0.51100000000E-03 0. -1.
        -11    1    3    3    0    0  0.28484554243E+02  0.30217302317E+01 -0.47371143474E+01  0.29033445139E+02  0.51100000000E-03 0.  1.
        -12    1    3    3    0    0  0.43557137714E+01 -0.42674266320E+01 -0.17010537332E+02  0.18070460781E+02  0.00000000000E+00 0.  1.
</event>
<event>
 7    1  0.3141443E-011  0.5052886E+02  0.7816164E-02  0.1300439E+00
        -11   -1    0    0    0    0  0.00000000000E+00  0.00000000000E+00  0.45593999997E+02  0.45594000000E+02  0.51100000000E-03 0.  1.
         11   -1    0    0    0    0 -0.00000000000E+00 -0.00000000000E+00 -0.45593999997E+02  0.45594000000E+02  0.51100000000E-03 0. -1.
    9900012    2    1    2    0    0 -0.10520698976E+02  0.13368703122E+01  0.39251663632E+02  0.50528862933E+02  0.30000009370E+02 0.  0.
         12    1    1    2    0    0  0.10520698976E+02 -0.13368703122E+01 -0.39251663632E+02  0.40659137067E+02  0.00000000000E+00 0. -1.
         11    1    3    3    0    0  0.43191232309E+01  0.78306964883E+01  0.22415703474E+02  0.24133760492E+02  0.51100000000E-03 0. -1.
        -11    1    3    3    0    0 -0.57874588504E+01  0.34113832829E+01  0.39612446167E+01  0.77989534569E+01  0.51100000000E-03 0.  1.
        -12    1    3    3    0    0 -0.90523633566E+01 -0.99052094590E+01  0.12874715541E+02  0.18596148984E+02  0.00000000000E+00 0.  1.
</event>
<event>
 7    1  0.3141443E-011  0.5052887E+02  0.7816164E-02  0.1300439E+00
        -11   -1    0    0    0    0  0.00000000000E+00  0.00000000000E+00  0.45593999997E+02  0.45594000000E+02  0.51100000000E-03 0. -1.
         11   -1    0    0    0    0 -0.00000000000E+00 -0.00000000000E+00 -0.45593999997E+02  0.45594000000E+02  0.51100000000E-03 0.  1.
    9900012    2    1    2    0    0  0.28304826141E+02  0.12946582884E+02 -0.26160796939E+02  0.50528874485E+02  0.30000044483E+02 0.  0.
         12    1    1    2    0    0 -0.28304826141E+02 -0.12946582884E+02  0.26160796939E+02  0.40659125515E+02  0.00000000000E+00 0. -1.
         11    1    3    3    0    0  0.41093221536E+01 -0.66258315319E+01 -0.66669444817E+01  0.10258475571E+02  0.51100000000E-03 0.  1.
        -11    1    3    3    0    0  0.56477931790E+01  0.13234785123E+02 -0.13608583181E+02  0.19805318515E+02  0.51100000000E-03 0. -1.
        -12    1    3    3    0    0  0.18547710808E+02  0.63376292926E+01 -0.58852692762E+01  0.20465080399E+02  0.00000000000E+00 0.  1.
</event>
<event>
 7    1  0.3141443E-011  0.5052886E+02  0.7816164E-02  0.1300439E+00
        -11   -1    0    0    0    0  0.00000000000E+00  0.00000000000E+00  0.45593999997E+02  0.45594000000E+02  0.51100000000E-03 0. -1.
         11   -1    0    0    0    0 -0.00000000000E+00 -0.00000000000E+00 -0.45593999997E+02  0.45594000000E+02  0.51100000000E-03 0.  1.
    9900012    2    1    2    0    0  0.22756940717E+02  0.32241594490E+02 -0.97860415435E+01  0.50528863572E+02  0.30000011312E+02 0.  0.
         12    1    1    2    0    0 -0.22756940717E+02 -0.32241594490E+02  0.97860415435E+01  0.40659136428E+02  0.00000000000E+00 0. -1.
         11    1    3    3    0    0  0.71864553082E+01 -0.70264807155E+00  0.44210448100E+01  0.84666694564E+01  0.51100000000E-03 0. -1.
        -11    1    3    3    0    0 -0.62040069996E+00  0.72905774366E+01  0.21119466175E+01  0.76156244106E+01  0.51100000000E-03 0.  1.
        -12    1    3    3    0    0  0.16190886108E+02  0.25653665125E+02 -0.16319032971E+02  0.34446569705E+02  0.00000000000E+00 0.  1.
</event>
<event>
 7    1  0.3141443E-011  0.5052896E+02  0.7816164E-02  0.1300438E+00
        -11   -1    0    0    0    0  0.00000000000E+00  0.00000000000E+00  0.45593999997E+02  0.45594000000E+02  0.51100000000E-03 0. -1.
         11   -1    0    0    0    0 -0.00000000000E+00 -0.00000000000E+00 -0.45593999997E+02  0.45594000000E+02  0.51100000000E-03 0.  1.
    9900012    2    1    2    0    0 -0.42093737082E+01 -0.25880245348E+01 -0.40357662527E+02  0.50528958907E+02  0.30000301092E+02 0.  0.
         12    1    1    2    0    0  0.42093737082E+01  0.25880245348E+01  0.40357662527E+02  0.40659041093E+02  0.00000000000E+00 0. -1.
         11    1    3    3    0    0 -0.16371264834E+02 -0.20517565150E+01 -0.29852677242E+02  0.34108801736E+02  0.51100000000E-03 0. -1.
        -11    1    3    3    0    0  0.21476572145E+01  0.23593476784E+00 -0.37111269717E+01  0.42942473597E+01  0.51100000000E-03 0.  1.
         12    1    3    3    0    0  0.10014233911E+02 -0.77220278765E+00 -0.67938583125E+01  0.12125909811E+02  0.00000000000E+00 0. -1.
</event>
<event>
 7    1  0.3141443E-011  0.5052886E+02  0.7816164E-02  0.1300439E+00
        -11   -1    0    0    0    0  0.00000000000E+00  0.00000000000E+00  0.45593999997E+02  0.45594000000E+02  0.51100000000E-03 0.  1.
         11   -1    0    0    0    0 -0.00000000000E+00 -0.00000000000E+00 -0.45593999997E+02  0.45594000000E+02  0.51100000000E-03 0. -1.
    9900012    2    1    2    0    0  0.14048091085E+02  0.17358928200E+02  0.33977701581E+02  0.50528862576E+02  0.30000008285E+02 0.  0.
         12    1    1    2    0    0 -0.14048091085E+02 -0.17358928200E+02 -0.33977701581E+02  0.40659137424E+02  0.00000000000E+00 0. -1.
         11    1    3    3    0    0 -0.11424837524E+01  0.56537930517E+01  0.23346241456E+02  0.24048235598E+02  0.51100000000E-03 0. -1.
        -11    1    3    3    0    0  0.98433246412E+01  0.18306634547E+01  0.11463868383E+02  0.15220468036E+02  0.51100000000E-03 0.  1.
         12    1    3    3    0    0  0.53472501960E+01  0.98744716938E+01 -0.83240825771E+00  0.11260158942E+02  0.00000000000E+00 0. -1.
</event>
<event>
 7    1  0.3141443E-011  0.5052886E+02  0.7816164E-02  0.1300439E+00
        -11   -1    0    0    0    0  0.00000000000E+00  0.00000000000E+00  0.45593999997E+02  0.45594000000E+02  0.51100000000E-03 0. -1.
         11   -1    0    0    0    0 -0.00000000000E+00 -0.00000000000E+00 -0.45593999997E+02  0.45594000000E+02  0.51100000000E-03 0.  1.
    9900012    2    1    2    0    0  0.24869827528E+02  0.31365975985E+02  0.71297435273E+01  0.50528855721E+02  0.29999987449E+02 0.  0.
         12    1    1    2    0    0 -0.24869827528E+02 -0.31365975985E+02 -0.71297435273E+01  0.40659144279E+02  0.00000000000E+00 0. -1.
         11    1    3    3    0    0  0.13906130373E+02  0.10557060560E+02  0.54862213694E+01  0.18301109661E+02  0.51100000000E-03 0. -1.
        -11    1    3    3    0    0  0.13258211170E+02  0.22021390608E+02 -0.40021160475E+01  0.26014202676E+02  0.51100000000E-03 0.  1.
        -12    1    3    3    0    0 -0.22945140153E+01 -0.12124751838E+01  0.56456382054E+01  0.62135433839E+01  0.00000000000E+00 0.  1.
</event>
<event>
 7    1  0.3141443E-011  0.5052886E+02  0.7816164E-02  0.1300439E+00
        -11   -1    0    0    0    0  0.00000000000E+00  0.00000000000E+00  0.45593999997E+02  0.45594000000E+02  0.51100000000E-03 0.  1.
         11   -1    0    0    0    0 -0.00000000000E+00 -0.00000000000E+00 -0.45593999997E+02  0.45594000000E+02  0.51100000000E-03 0. -1.
    9900012    2    1    2    0    0  0.67171868892E+01 -0.16877918174E+02  0.36375556727E+02  0.50528857747E+02  0.29999993607E+02 0.  0.
         12    1    1    2    0    0 -0.67171868892E+01  0.16877918174E+02 -0.36375556727E+02  0.40659142253E+02  0.00000000000E+00 0. -1.
         11    1    3    3    0    0 -0.32918661100E+01 -0.84816189269E+00  0.16969655220E+01  0.37994017064E+01  0.51100000000E-03 0. -1.
        -11    1    3    3    0    0  0.27491853858E+01  0.12262998724E+01  0.25861343623E+02  0.26035954484E+02  0.51100000000E-03 0.  1.
         12    1    3    3    0    0  0.72598676135E+01 -0.17256056153E+02  0.88172475816E+01  0.20693501556E+02  0.00000000000E+00 0. -1.
</event>
<event>
 7    1  0.3141443E-011  0.5052884E+02  0.7816164E-02  0.1300439E+00
        -11   -1    0    0    0    0  0.00000000000E+00  0.00000000000E+00  0.45593999997E+02  0.45594000000E+02  0.51100000000E-03 0. -1.
         11   -1    0    0    0    0 -0.00000000000E+00 -0.00000000000E+00 -0.45593999997E+02  0.45594000000E+02  0.51100000000E-03 0.  1.
    9900012    2    1    2    0    0 -0.11998520194E+02  0.27768540364E+02 -0.27168203149E+02  0.50528836419E+02  0.29999928778E+02 0.  0.
         12    1    1    2    0    0  0.11998520194E+02 -0.27768540364E+02  0.27168203149E+02  0.40659163581E+02  0.00000000000E+00 0. -1.
         11    1    3    3    0    0 -0.82548102578E+01  0.72141980028E+01 -0.77542598490E+01  0.13428145489E+02  0.51100000000E-03 0. -1.
        -11    1    3    3    0    0 -0.37478787742E+01 -0.31014192618E+01  0.19353477419E+01  0.52355484800E+01  0.51100000000E-03 0.  1.
        -12    1    3    3    0    0  0.41688378721E-02  0.23655761623E+02 -0.21349291042E+02  0.31865142449E+02  0.00000000000E+00 0.  1.
</event>
<event>
 7    1  0.3141443E-011  0.5052887E+02  0.7816164E-02  0.1300439E+00
        -11   -1    0    0    0    0  0.00000000000E+00  0.00000000000E+00  0.45593999997E+02  0.45594000000E+02  0.51100000000E-03 0.  1.
         11   -1    0    0    0    0 -0.00000000000E+00 -0.00000000000E+00 -0.45593999997E+02  0.45594000000E+02  0.51100000000E-03 0. -1.
    9900012    2    1    2    0    0 -0.33094006821E+02  0.22499418708E+02  0.71921864456E+01  0.50528872174E+02  0.30000037461E+02 0.  0.
         12    1    1    2    0    0  0.33094006821E+02 -0.22499418708E+02 -0.71921864456E+01  0.40659127826E+02  0.00000000000E+00 0. -1.
         11    1    3    3    0    0 -0.34403113299E+01  0.37242325090E+01  0.94698886305E+01  0.10741714982E+02  0.51100000000E-03 0. -1.
        -11    1    3    3    0    0 -0.19113883190E+02  0.13485890312E+01  0.86091468651E+00  0.19180729844E+02  0.51100000000E-03 0.  1.
         12    1    3    3    0    0 -0.10539812301E+02  0.17426597168E+02 -0.31386168715E+01  0.20606427348E+02  0.00000000000E+00 0. -1.
</event>
<event>
 7    1  0.3141443E-011  0.5052886E+02  0.7816164E-02  0.1300439E+00
        -11   -1    0    0    0    0  0.00000000000E+00  0.00000000000E+00  0.45593999997E+02  0.45594000000E+02  0.51100000000E-03 0.  1.
         11   -1    0    0    0    0 -0.00000000000E+00 -0.00000000000E+00 -0.45593999997E+02  0.45594000000E+02  0.51100000000E-03 0. -1.
    9900012    2    1    2    0    0 -0.38443596174E+02 -0.17520763915E+01 -0.13121967769E+02  0.50528857159E+02  0.29999991820E+02 0.  0.
         12    1    1    2    0    0  0.38443596174E+02  0.17520763915E+01  0.13121967769E+02  0.40659142841E+02  0.00000000000E+00 0. -1.
         11    1    3    3    0    0 -0.18647687450E+02 -0.69281750013E+01 -0.17226966821E+02  0.26315475337E+02  0.51100000000E-03 0. -1.
        -11    1    3    3    0    0 -0.12168143395E+02 -0.24570702090E+01 -0.62873610601E+00  0.12429650721E+02  0.51100000000E-03 0.  1.
         12    1    3    3    0    0 -0.76277653288E+01  0.76331688189E+01  0.47337351578E+01  0.11783731102E+02  0.00000000000E+00 0. -1.
</event>
<event>
 7    1  0.3141443E-011  0.5052885E+02  0.7816164E-02  0.1300439E+00
        -11   -1    0    0    0    0  0.00000000000E+00  0.00000000000E+00  0.45593999997E+02  0.45594000000E+02  0.51100000000E-03 0.  1.
         11   -1    0    0    0    0 -0.00000000000E+00 -0.00000000000E+00 -0.45593999997E+02  0.45594000000E+02  0.51100000000E-03 0. -1.
    9900012    2    1    2    0    0 -0.17894634299E+02  0.36458419158E+02  0.19319663043E+01  0.50528846566E+02  0.29999959622E+02 0.  0.
         12    1    1    2    0    0  0.17894634299E+02 -0.36458419158E+02 -0.19319663043E+01  0.40659153434E+02  0.00000000000E+00 0. -1.
         11    1    3    3    0    0 -0.13813014952E+02  0.24973486793E+02  0.36631496451E+01  0.28773131394E+02  0.51100000000E-03 0.  1.
        -11    1    3    3    0    0  0.14427917178E+01  0.14313475803E+02  0.19841888898E+01  0.14522198295E+02  0.51100000000E-03 0. -1.
         12    1    3    3    0    0 -0.55244110649E+01 -0.28285434382E+01 -0.37153722306E+01  0.72335168768E+01  0.00000000000E+00 0. -1.
</event>
<event>
 7    1  0.3141443E-011  0.5052886E+02  0.7816164E-02  0.1300439E+00
        -11   -1    0    0    0    0  0.00000000000E+00  0.00000000000E+00  0.45593999997E+02  0.45594000000E+02  0.51100000000E-03 0. -1.
         11   -1    0    0    0    0 -0.00000000000E+00 -0.00000000000E+00 -0.45593999997E+02  0.45594000000E+02  0.51100000000E-03 0.  1.
    9900012    2    1    2    0    0 -0.31150609526E+02 -0.10676125239E+02 -0.23850064144E+02  0.50528859778E+02  0.29999999781E+02 0.  0.
         12    1    1    2    0    0  0.31150609526E+02  0.10676125239E+02  0.23850064144E+02  0.40659140222E+02  0.00000000000E+00 0. -1.
         11    1    3    3    0    0 -0.34737284719E+01 -0.72008600172E+00  0.51572376128E+01  0.62595857213E+01  0.51100000000E-03 0. -1.
        -11    1    3    3    0    0 -0.18501212038E+02 -0.94126467497E+01 -0.97561752725E+01  0.22936340639E+02  0.51100000000E-03 0.  1.
        -12    1    3    3    0    0 -0.91756690156E+01 -0.54339248731E+00 -0.19251126484E+02  0.21332933417E+02  0.00000000000E+00 0.  1.
</event>
<event>
 7    1  0.3141443E-011  0.5052886E+02  0.7816164E-02  0.1300439E+00
        -11   -1    0    0    0    0  0.00000000000E+00  0.00000000000E+00  0.45593999997E+02  0.45594000000E+02  0.51100000000E-03 0.  1.
         11   -1    0    0    0    0 -0.00000000000E+00 -0.00000000000E+00 -0.45593999997E+02  0.45594000000E+02  0.51100000000E-03 0. -1.
    9900012    2    1    2    0    0 -0.23902869571E+02 -0.16559559529E+02  0.28418295498E+02  0.50528859520E+02  0.29999998998E+02 0.  0.
         12    1    1    2    0    0  0.23902869571E+02  0.16559559529E+02 -0.28418295498E+02  0.40659140480E+02  0.00000000000E+00 0. -1.
         11    1    3    3    0    0 -0.61737084841E+01 -0.17085091335E+02  0.57402361105E+01  0.19051649095E+02  0.51100000000E-03 0. -1.
        -11    1    3    3    0    0 -0.10465781935E+02 -0.42970332150E+01  0.63667635942E+01  0.12982016981E+02  0.51100000000E-03 0.  1.
         12    1    3    3    0    0 -0.72633791521E+01  0.48225650213E+01  0.16311295793E+02  0.18495193445E+02  0.00000000000E+00 0. -1.
</event>
<event>
 7    1  0.3141443E-011  0.5052887E+02  0.7816164E-02  0.1300439E+00
        -11   -1    0    0    0    0  0.00000000000E+00  0.00000000000E+00  0.45593999997E+02  0.45594000000E+02  0.51100000000E-03 0.  1.
         11   -1    0    0    0    0 -0.00000000000E+00 -0.00000000000E+00 -0.45593999997E+02  0.45594000000E+02  0.51100000000E-03 0. -1.
    9900012    2    1    2    0    0 -0.15901032209E+02  0.20576859471E+02  0.31255637257E+02  0.50528870259E+02  0.30000031639E+02 0.  0.
         12    1    1    2    0    0  0.15901032209E+02 -0.20576859471E+02 -0.31255637257E+02  0.40659129741E+02  0.00000000000E+00 0. -1.
         11    1    3    3    0    0  0.64589160496E+01  0.45677762531E+01  0.10769039345E+02  0.13362424373E+02  0.51100000000E-03 0. -1.
        -11    1    3    3    0    0 -0.10520186212E+02  0.15755620728E+02  0.10407613972E+02  0.21615557622E+02  0.51100000000E-03 0.  1.
         12    1    3    3    0    0 -0.11839762046E+02  0.25346248942E+00  0.10078983940E+02  0.15550888264E+02  0.00000000000E+00 0. -1.
</event>
<event>
 7    1  0.3141443E-011  0.5052887E+02  0.7816164E-02  0.1300439E+00
        -11   -1    0    0    0    0  0.00000000000E+00  0.00000000000E+00  0.45593999997E+02  0.45594000000E+02  0.51100000000E-03 0.  1.
         11   -1    0    0    0    0 -0.00000000000E+00 -0.00000000000E+00 -0.45593999997E+02  0.45594000000E+02  0.51100000000E-03 0. -1.
    9900012    2    1    2    0    0 -0.42414966770E+01 -0.40389844821E+02  0.19584143928E+01  0.50528865164E+02  0.30000016152E+02 0.  0.
         12    1    1    2    0    0  0.42414966770E+01  0.40389844821E+02 -0.19584143928E+01  0.40659134836E+02  0.00000000000E+00 0. -1.
         11    1    3    3    0    0  0.77857372101E+01 -0.40509401768E+01 -0.49506880309E+01  0.10076563524E+02  0.51100000000E-03 0. -1.
        -11    1    3    3    0    0 -0.43620095618E+01 -0.34254447054E+01 -0.12537269036E+01  0.56861788802E+01  0.51100000000E-03 0.  1.
        -12    1    3    3    0    0 -0.76652243254E+01 -0.32913459938E+02  0.81628293273E+01  0.34766122759E+02  0.00000000000E+00 0.  1.
</event>
<event>
 7    1  0.3141443E-011  0.5052884E+02  0.7816164E-02  0.1300439E+00
        -11   -1    0    0    0    0  0.00000000000E+00  0.00000000000E+00  0.45593999997E+02  0.45594000000E+02  0.51100000000E-03 0.  1.
         11   -1    0    0    0    0 -0.00000000000E+00 -0.00000000000E+00 -0.45593999997E+02  0.45594000000E+02  0.51100000000E-03 0. -1.
    9900012    2    1    2    0    0 -0.24318289262E+01  0.18105862809E+02  0.36323972196E+02  0.50528843392E+02  0.29999949975E+02 0.  0.
         12    1    1    2    0    0  0.24318289262E+01 -0.18105862809E+02 -0.36323972196E+02  0.40659156608E+02  0.00000000000E+00 0. -1.
         11    1    3    3    0    0 -0.98358851439E+01  0.14454570856E+02  0.14280483234E+02  0.22574575453E+02  0.51100000000E-03 0. -1.
        -11    1    3    3    0    0 -0.14614600198E+01 -0.20714656282E+01 -0.90835567312E+00  0.26929436548E+01  0.51100000000E-03 0.  1.
        -12    1    3    3    0    0  0.88655162374E+01  0.57227575811E+01  0.22951844634E+02  0.25261324285E+02  0.00000000000E+00 0.  1.
</event>
<event>
 7    1  0.3141443E-011  0.5052884E+02  0.7816164E-02  0.1300439E+00
        -11   -1    0    0    0    0  0.00000000000E+00  0.00000000000E+00  0.45593999997E+02  0.45594000000E+02  0.51100000000E-03 0. -1.
         11   -1    0    0    0    0 -0.00000000000E+00 -0.00000000000E+00 -0.45593999997E+02  0.45594000000E+02  0.51100000000E-03 0.  1.
    9900012    2    1    2    0    0 -0.16009087868E+02  0.34078567591E+02 -0.15346905367E+02  0.50528841527E+02  0.29999944304E+02 0.  0.
         12    1    1    2    0    0  0.16009087868E+02 -0.34078567591E+02  0.15346905367E+02  0.40659158473E+02  0.00000000000E+00 0. -1.
         11    1    3    3    0    0 -0.10860948606E+02  0.98292115593E+01 -0.13752344736E+02  0.20092301772E+02  0.51100000000E-03 0. -1.
        -11    1    3    3    0    0 -0.37969639099E+01 -0.18615838755E+01 -0.60617994102E+00  0.42719882772E+01  0.51100000000E-03 0.  1.
        -12    1    3    3    0    0 -0.13511753529E+01  0.26110939907E+02 -0.98838069082E+00  0.26164551478E+02  0.00000000000E+00 0.  1.
</event>
<event>
 7    1  0.3141443E-011  0.5052886E+02  0.7816164E-02  0.1300439E+00
        -11   -1    0    0    0    0  0.00000000000E+00  0.00000000000E+00  0.45593999997E+02  0.45594000000E+02  0.51100000000E-03 0.  1.
         11   -1    0    0    0    0 -0.00000000000E+00 -0.00000000000E+00 -0.45593999997E+02  0.45594000000E+02  0.51100000000E-03 0. -1.
    9900012    2    1    2    0    0  0.22902872247E+02  0.33413752815E+02 -0.34850463348E+01  0.50528856105E+02  0.29999988617E+02 0.  0.
         12    1    1    2    0    0 -0.22902872247E+02 -0.33413752815E+02  0.34850463348E+01  0.40659143895E+02  0.00000000000E+00 0. -1.
         11    1    3    3    0    0 -0.11419471031E+01  0.71794080602E+01  0.43111758649E+01  0.84518744005E+01  0.51100000000E-03 0. -1.
        -11    1    3    3    0    0  0.22705659296E+02  0.29694158882E+02 -0.56902067333E+01  0.37810957257E+02  0.51100000000E-03 0.  1.
        -12    1    3    3    0    0  0.13391600540E+01 -0.34598141273E+01 -0.21060154665E+01  0.42660244480E+01  0.00000000000E+00 0.  1.
</event>
<event>
 7    1  0.3141443E-011  0.5052886E+02  0.7816164E-02  0.1300439E+00
        -11   -1    0    0    0    0  0.00000000000E+00  0.00000000000E+00  0.45593999997E+02  0.45594000000E+02  0.51100000000E-03 0. -1.
         11   -1    0    0    0    0 -0.00000000000E+00 -0.00000000000E+00 -0.45593999997E+02  0.45594000000E+02  0.51100000000E-03 0.  1.
    9900012    2    1    2    0    0  0.12749072147E+02 -0.20142967267E+02 -0.32937634588E+02  0.50528859046E+02  0.29999997555E+02 0.  0.
         12    1    1    2    0    0 -0.12749072147E+02  0.20142967267E+02  0.32937634588E+02  0.40659140954E+02  0.00000000000E+00 0. -1.
         11    1    3    3    0    0  0.37254322837E+00  0.23449693693E+01 -0.15882747485E+02  0.16059244619E+02  0.51100000000E-03 0. -1.
        -11    1    3    3    0    0  0.26550424349E+01 -0.12057292354E+02 -0.15947634943E+02  0.20168158314E+02  0.51100000000E-03 0.  1.
         12    1    3    3    0    0  0.97214864837E+01 -0.10430644282E+02 -0.11072521597E+01  0.14301456112E+02  0.00000000000E+00 0. -1.
</event>
<event>
 7    1  0.3141443E-011  0.5052885E+02  0.7816164E-02  0.1300439E+00
        -11   -1    0    0    0    0  0.00000000000E+00  0.00000000000E+00  0.45593999997E+02  0.45594000000E+02  0.51100000000E-03 0. -1.
         11   -1    0    0    0    0 -0.00000000000E+00 -0.00000000000E+00 -0.45593999997E+02  0.45594000000E+02  0.51100000000E-03 0.  1.
    9900012    2    1    2    0    0 -0.36076269565E+02  0.21842744804E+01 -0.18625204998E+02  0.50528849223E+02  0.29999967698E+02 0.  0.
         12    1    1    2    0    0  0.36076269565E+02 -0.21842744804E+01  0.18625204998E+02  0.40659150777E+02  0.00000000000E+00 0. -1.
         11    1    3    3    0    0 -0.45127835892E+01  0.10454113557E+01  0.50181490903E+01  0.68293426609E+01  0.51100000000E-03 0. -1.
        -11    1    3    3    0    0 -0.22896449578E+02 -0.76774903863E+01 -0.13233860297E+02  0.27537725406E+02  0.51100000000E-03 0.  1.
         12    1    3    3    0    0 -0.86670363975E+01  0.88163535110E+01 -0.10409493792E+02  0.16161781156E+02  0.00000000000E+00 0. -1.
</event>
<event>
 7    1  0.3141443E-011  0.5052885E+02  0.7816164E-02  0.1300439E+00
        -11   -1    0    0    0    0  0.00000000000E+00  0.00000000000E+00  0.45593999997E+02  0.45594000000E+02  0.51100000000E-03 0. -1.
         11   -1    0    0    0    0 -0.00000000000E+00 -0.00000000000E+00 -0.45593999997E+02  0.45594000000E+02  0.51100000000E-03 0.  1.
    9900012    2    1    2    0    0 -0.20920206644E+02  0.17344316887E+02 -0.30243777300E+02  0.50528850481E+02  0.29999971521E+02 0.  0.
         12    1    1    2    0    0  0.20920206644E+02 -0.17344316887E+02  0.30243777300E+02  0.40659149519E+02  0.00000000000E+00 0. -1.
         11    1    3    3    0    0  0.22938754550E+00 -0.36168940912E+01 -0.48908633747E+01  0.60872889141E+01  0.51100000000E-03 0. -1.
        -11    1    3    3    0    0 -0.15979158408E+02  0.11589377360E+01 -0.11725387202E+02  0.19853497057E+02  0.51100000000E-03 0.  1.
         12    1    3    3    0    0 -0.51704357812E+01  0.19802273242E+02 -0.13627526723E+02  0.24588064509E+02  0.00000000000E+00 0. -1.
</event>
<event>
 7    1  0.3141443E-011  0.5052886E+02  0.7816164E-02  0.1300439E+00
        -11   -1    0    0    0    0  0.00000000000E+00  0.00000000000E+00  0.45593999997E+02  0.45594000000E+02  0.51100000000E-03 0.  1.
         11   -1    0    0    0    0 -0.00000000000E+00 -0.00000000000E+00 -0.45593999997E+02  0.45594000000E+02  0.51100000000E-03 0. -1.
    9900012    2    1    2    0    0 -0.46656872045E+01  0.24664326519E+02  0.31985439619E+02  0.50528856043E+02  0.29999988429E+02 0.  0.
         12    1    1    2    0    0  0.46656872045E+01 -0.24664326519E+02 -0.31985439619E+02  0.40659143957E+02  0.00000000000E+00 0. -1.
         11    1    3    3    0    0 -0.34483228294E+01  0.12965081697E+02  0.95909378177E+01  0.16491523951E+02  0.51100000000E-03 0. -1.
        -11    1    3    3    0    0  0.77285896413E+01  0.10328227918E+02  0.39482242105E+01  0.13490436036E+02  0.51100000000E-03 0.  1.
        -12    1    3    3    0    0 -0.89459540163E+01  0.13710169046E+01  0.18446277590E+02  0.20546896056E+02  0.00000000000E+00 0.  1.
</event>
<event>
 7    1  0.3141443E-011  0.5052884E+02  0.7816164E-02  0.1300439E+00
        -11   -1    0    0    0    0  0.00000000000E+00  0.00000000000E+00  0.45593999997E+02  0.45594000000E+02  0.51100000000E-03 0.  1.
         11   -1    0    0    0    0 -0.00000000000E+00 -0.00000000000E+00 -0.45593999997E+02  0.45594000000E+02  0.51100000000E-03 0. -1.
    9900012    2    1    2    0    0  0.37880973154E+02 -0.14447731039E+02  0.30760621847E+01  0.50528840911E+02  0.29999942432E+02 0.  0.
         12    1    1    2    0    0 -0.37880973154E+02  0.14447731039E+02 -0.30760621847E+01  0.40659159089E+02  0.00000000000E+00 0. -1.
         11    1    3    3    0    0  0.41778255628E+01  0.42013607824E+01 -0.53893193758E+01  0.80093958856E+01  0.51100000000E-03 0. -1.
        -11    1    3    3    0    0  0.10479807380E+02  0.16383289081E+01  0.41151693731E+01  0.11377394410E+02  0.51100000000E-03 0.  1.
        -12    1    3    3    0    0  0.23223340211E+02 -0.20287420730E+02  0.43502121873E+01  0.31142050615E+02  0.00000000000E+00 0.  1.
</event>
<event>
 7    1  0.3141443E-011  0.5052886E+02  0.7816164E-02  0.1300439E+00
        -11   -1    0    0    0    0  0.00000000000E+00  0.00000000000E+00  0.45593999997E+02  0.45594000000E+02  0.51100000000E-03 0.  1.
         11   -1    0    0    0    0 -0.00000000000E+00 -0.00000000000E+00 -0.45593999997E+02  0.45594000000E+02  0.51100000000E-03 0. -1.
    9900012    2    1    2    0    0 -0.24920581054E+01 -0.29942575321E+02  0.27393387567E+02  0.50528857696E+02  0.29999993453E+02 0.  0.
         12    1    1    2    0    0  0.24920581054E+01  0.29942575321E+02 -0.27393387567E+02  0.40659142304E+02  0.00000000000E+00 0. -1.
         11    1    3    3    0    0 -0.12349203742E+02 -0.17552918236E+02  0.96369728896E+01  0.23526134795E+02  0.51100000000E-03 0. -1.
        -11    1    3    3    0    0 -0.14353993721E+01  0.61652925977E+00  0.58717198585E+01  0.60759833807E+01  0.51100000000E-03 0.  1.
        -12    1    3    3    0    0  0.11292545008E+02 -0.13006186346E+02  0.11884694819E+02  0.20926739521E+02  0.00000000000E+00 0.  1.
</event>
<event>
 7    1  0.3141443E-011  0.5052886E+02  0.7816164E-02  0.1300439E+00
        -11   -1    0    0    0    0  0.00000000000E+00  0.00000000000E+00  0.45593999997E+02  0.45594000000E+02  0.51100000000E-03 0.  1.
         11   -1    0    0    0    0 -0.00000000000E+00 -0.00000000000E+00 -0.45593999997E+02  0.45594000000E+02  0.51100000000E-03 0. -1.
    9900012    2    1    2    0    0  0.38631005038E+02  0.12639780770E+02  0.10233738263E+01  0.50528857090E+02  0.29999991611E+02 0.  0.
         12    1    1    2    0    0 -0.38631005038E+02 -0.12639780770E+02 -0.10233738263E+01  0.40659142910E+02  0.00000000000E+00 0. -1.
         11    1    3    3    0    0  0.95979665174E+01  0.17698801075E+01 -0.76794912430E+01  0.12418857551E+02  0.51100000000E-03 0. -1.
        -11    1    3    3    0    0  0.11572215899E+02 -0.13117056380E+01 -0.51242280990E+01  0.12723775633E+02  0.51100000000E-03 0.  1.
        -12    1    3    3    0    0  0.17460822622E+02  0.12181606301E+02  0.13827093168E+02  0.25386223905E+02  0.00000000000E+00 0.  1.
</event>
<event>
 7    1  0.3141443E-011  0.5052886E+02  0.7816164E-02  0.1300439E+00
        -11   -1    0    0    0    0  0.00000000000E+00  0.00000000000E+00  0.45593999997E+02  0.45594000000E+02  0.51100000000E-03 0. -1.
         11   -1    0    0    0    0 -0.00000000000E+00 -0.00000000000E+00 -0.45593999997E+02  0.45594000000E+02  0.51100000000E-03 0.  1.
    9900012    2    1    2    0    0 -0.29294077468E+02 -0.25107033951E+02 -0.12831967333E+02  0.50528861862E+02  0.30000006116E+02 0.  0.
         12    1    1    2    0    0  0.29294077468E+02  0.25107033951E+02  0.12831967333E+02  0.40659138138E+02  0.00000000000E+00 0. -1.
         11    1    3    3    0    0 -0.52488762289E+01  0.53677450193E+01 -0.25463039721E+00  0.75118722805E+01  0.51100000000E-03 0. -1.
        -11    1    3    3    0    0 -0.11851487327E+02 -0.53551626549E+01 -0.20006938818E+01  0.13158202582E+02  0.51100000000E-03 0.  1.
         12    1    3    3    0    0 -0.12193713912E+02 -0.25119616315E+02 -0.10576643054E+02  0.29858786999E+02  0.00000000000E+00 0. -1.
</event>
<event>
 7    1  0.3141443E-011  0.5052887E+02  0.7816164E-02  0.1300439E+00
        -11   -1    0    0    0    0  0.00000000000E+00  0.00000000000E+00  0.45593999997E+02  0.45594000000E+02  0.51100000000E-03 0.  1.
         11   -1    0    0    0    0 -0.00000000000E+00 -0.00000000000E+00 -0.45593999997E+02  0.45594000000E+02  0.51100000000E-03 0. -1.
    9900012    2    1    2    0    0  0.18218624348E+02  0.36239062639E+02 -0.28244132197E+01  0.50528865182E+02  0.30000016208E+02 0.  0.
         12    1    1    2    0    0 -0.18218624348E+02 -0.36239062639E+02  0.28244132197E+01  0.40659134818E+02  0.00000000000E+00 0. -1.
         11    1    3    3    0    0 -0.99884848555E+00  0.23268964469E+02 -0.32982001353E+01  0.23522766209E+02  0.51100000000E-03 0. -1.
        -11    1    3    3    0    0  0.20642937586E+00  0.32173254969E+01  0.42229858550E+01  0.53129470384E+01  0.51100000000E-03 0.  1.
        -12    1    3    3    0    0  0.19011043457E+02  0.97527726739E+01 -0.37491989393E+01  0.21693151935E+02  0.00000000000E+00 0.  1.
</event>
<event>
 7    1  0.3141443E-011  0.5052886E+02  0.7816164E-02  0.1300439E+00
        -11   -1    0    0    0    0  0.00000000000E+00  0.00000000000E+00  0.45593999997E+02  0.45594000000E+02  0.51100000000E-03 0.  1.
         11   -1    0    0    0    0 -0.00000000000E+00 -0.00000000000E+00 -0.45593999997E+02  0.45594000000E+02  0.51100000000E-03 0. -1.
    9900012    2    1    2    0    0 -0.39514594515E+02 -0.30132594898E+00  0.95745440467E+01  0.50528857477E+02  0.29999992786E+02 0.  0.
         12    1    1    2    0    0  0.39514594515E+02  0.30132594898E+00 -0.95745440467E+01  0.40659142523E+02  0.00000000000E+00 0. -1.
         11    1    3    3    0    0 -0.15451008244E+02  0.11005684682E+01  0.33113369367E+01  0.15840134446E+02  0.51100000000E-03 0. -1.
        -11    1    3    3    0    0 -0.15031940794E+02 -0.47459327405E+01  0.14945415271E+02  0.21722075395E+02  0.51100000000E-03 0.  1.
        -12    1    3    3    0    0 -0.90316454779E+01  0.33440383233E+01 -0.86822081610E+01  0.12966647635E+02  0.00000000000E+00 0.  1.
</event>
<event>
 7    1  0.3141443E-011  0.5052886E+02  0.7816164E-02  0.1300439E+00
        -11   -1    0    0    0    0  0.00000000000E+00  0.00000000000E+00  0.45593999997E+02  0.45594000000E+02  0.51100000000E-03 0.  1.
         11   -1    0    0    0    0 -0.00000000000E+00 -0.00000000000E+00 -0.45593999997E+02  0.45594000000E+02  0.51100000000E-03 0. -1.
    9900012    2    1    2    0    0 -0.17013396580E+02  0.97545239375E+01  0.35616840100E+02  0.50528859587E+02  0.29999999200E+02 0.  0.
         12    1    1    2    0    0  0.17013396580E+02 -0.97545239375E+01 -0.35616840100E+02  0.40659140413E+02  0.00000000000E+00 0. -1.
         11    1    3    3    0    0 -0.54603867971E+01  0.11039406912E+01  0.15508449874E+02  0.16478668841E+02  0.51100000000E-03 0. -1.
        -11    1    3    3    0    0  0.40411589351E+01  0.94056648228E+01  0.13867178713E+02  0.17236477076E+02  0.51100000000E-03 0.  1.
         12    1    3    3    0    0 -0.15594168718E+02 -0.75508157647E+00  0.62412115135E+01  0.16813713669E+02  0.00000000000E+00 0. -1.
</event>
<event>
 7    1  0.5019760E-011  0.5052886E+02  0.7816164E-02  0.1300439E+00
        -11   -1    0    0    0    0  0.00000000000E+00  0.00000000000E+00  0.45593999997E+02  0.45594000000E+02  0.51100000000E-03 0. -1.
         11   -1    0    0    0    0 -0.00000000000E+00 -0.00000000000E+00 -0.45593999997E+02  0.45594000000E+02  0.51100000000E-03 0.  1.
    9900012    2    1    2    0    0 -0.22062185402E+02  0.25307476678E+02  0.22933752168E+02  0.50528863401E+02  0.30000010793E+02 0.  0.
         12    1    1    2    0    0  0.22062185402E+02 -0.25307476678E+02 -0.22933752168E+02  0.40659136599E+02  0.00000000000E+00 0. -1.
         11    1    3    3    0    0 -0.10042372278E+02 -0.17259424282E+01  0.64258155835E+01  0.12046544086E+02  0.51100000000E-03 0. -1.
        -11    1    3    3    0    0  0.18943612535E+01  0.62752977447E+01 -0.25715971522E+01  0.70413832815E+01  0.51100000000E-03 0.  1.
        -12    1    3    3    0    0 -0.13914174377E+02  0.20758121361E+02  0.19079533736E+02  0.31440936033E+02  0.00000000000E+00 0.  1.
</event>
<event>
 7    1  0.3141443E-011  0.5052886E+02  0.7816164E-02  0.1300439E+00
        -11   -1    0    0    0    0  0.00000000000E+00  0.00000000000E+00  0.45593999997E+02  0.45594000000E+02  0.51100000000E-03 0.  1.
         11   -1    0    0    0    0 -0.00000000000E+00 -0.00000000000E+00 -0.45593999997E+02  0.45594000000E+02  0.51100000000E-03 0. -1.
    9900012    2    1    2    0    0 -0.14085199765E+02  0.29576163844E+02  0.24083679924E+02  0.50528856393E+02  0.29999989493E+02 0.  0.
         12    1    1    2    0    0  0.14085199765E+02 -0.29576163844E+02 -0.24083679924E+02  0.40659143607E+02  0.00000000000E+00 0. -1.
         11    1    3    3    0    0 -0.15076213294E+01  0.16238981100E+02 -0.24507564773E+01  0.16491926413E+02  0.51100000000E-03 0. -1.
        -11    1    3    3    0    0 -0.11050340804E+02  0.10006552505E+02  0.12265376577E+02  0.19304936876E+02  0.51100000000E-03 0.  1.
        -12    1    3    3    0    0 -0.15272376312E+01  0.33306302394E+01  0.14269059824E+02  0.14731993104E+02  0.00000000000E+00 0.  1.
</event>
<event>
 7    1  0.3141443E-011  0.5052882E+02  0.7816164E-02  0.1300439E+00
        -11   -1    0    0    0    0  0.00000000000E+00  0.00000000000E+00  0.45593999997E+02  0.45594000000E+02  0.51100000000E-03 0. -1.
         11   -1    0    0    0    0 -0.00000000000E+00 -0.00000000000E+00 -0.45593999997E+02  0.45594000000E+02  0.51100000000E-03 0.  1.
    9900012    2    1    2    0    0 -0.36791692636E+02 -0.35039217884E+01 -0.16948817972E+02  0.50528824584E+02  0.29999892804E+02 0.  0.
         12    1    1    2    0    0  0.36791692636E+02  0.35039217884E+01  0.16948817972E+02  0.40659175416E+02  0.00000000000E+00 0. -1.
         11    1    3    3    0    0 -0.15525122666E+02  0.21904899294E+01 -0.13154324654E+02  0.20466165672E+02  0.51100000000E-03 0. -1.
        -11    1    3    3    0    0 -0.21411620596E+02 -0.37136556821E+01 -0.97252649180E+01  0.23808181641E+02  0.51100000000E-03 0.  1.
         12    1    3    3    0    0  0.14505062702E+00 -0.19807560357E+01  0.59307715998E+01  0.62544772705E+01  0.00000000000E+00 0. -1.
</event>
<event>
 7    1  0.3141443E-011  0.5052893E+02  0.7816164E-02  0.1300439E+00
        -11   -1    0    0    0    0  0.00000000000E+00  0.00000000000E+00  0.45593999997E+02  0.45594000000E+02  0.51100000000E-03 0.  1.
         11   -1    0    0    0    0 -0.00000000000E+00 -0.00000000000E+00 -0.45593999997E+02  0.45594000000E+02  0.51100000000E-03 0. -1.
    9900012    2    1    2    0    0 -0.30902856332E+02  0.41092821240E+01  0.26101487258E+02  0.50528925168E+02  0.30000198541E+02 0.  0.
         12    1    1    2    0    0  0.30902856332E+02 -0.41092821240E+01 -0.26101487258E+02  0.40659074832E+02  0.00000000000E+00 0. -1.
         11    1    3    3    0    0  0.43297808303E+01  0.40320403043E+01  0.55233300158E+01  0.80939190618E+01  0.51100000000E-03 0. -1.
        -11    1    3    3    0    0 -0.68056044333E+01  0.15375601329E+00 -0.81694436115E+00  0.68561863280E+01  0.51100000000E-03 0.  1.
        -12    1    3    3    0    0 -0.28427032729E+02 -0.76514193613E-01  0.21395101604E+02  0.35578819779E+02  0.00000000000E+00 0.  1.
</event>
<event>
 7    1  0.3141443E-011  0.5052885E+02  0.7816164E-02  0.1300439E+00
        -11   -1    0    0    0    0  0.00000000000E+00  0.00000000000E+00  0.45593999997E+02  0.45594000000E+02  0.51100000000E-03 0.  1.
         11   -1    0    0    0    0 -0.00000000000E+00 -0.00000000000E+00 -0.45593999997E+02  0.45594000000E+02  0.51100000000E-03 0. -1.
    9900012    2    1    2    0    0  0.26975240448E+02  0.19011240998E+02  0.23750275481E+02  0.50528850144E+02  0.29999970499E+02 0.  0.
         12    1    1    2    0    0 -0.26975240448E+02 -0.19011240998E+02 -0.23750275481E+02  0.40659149856E+02  0.00000000000E+00 0. -1.
         11    1    3    3    0    0  0.19950268495E+02  0.65293687583E+01  0.15970585656E+02  0.26376229372E+02  0.51100000000E-03 0. -1.
        -11    1    3    3    0    0  0.49795070582E+01  0.16056782793E+02  0.99109020097E+01  0.19515167002E+02  0.51100000000E-03 0.  1.
         12    1    3    3    0    0  0.20454648946E+01 -0.35749105530E+01 -0.21312121846E+01  0.46374537705E+01  0.00000000000E+00 0. -1.
</event>
<event>
 7    1  0.3141443E-011  0.5052886E+02  0.7816164E-02  0.1300439E+00
        -11   -1    0    0    0    0  0.00000000000E+00  0.00000000000E+00  0.45593999997E+02  0.45594000000E+02  0.51100000000E-03 0.  1.
         11   -1    0    0    0    0 -0.00000000000E+00 -0.00000000000E+00 -0.45593999997E+02  0.45594000000E+02  0.51100000000E-03 0. -1.
    9900012    2    1    2    0    0 -0.85792230575E+01  0.94208336694E+01  0.38611015617E+02  0.50528859548E+02  0.29999999082E+02 0.  0.
         12    1    1    2    0    0  0.85792230575E+01 -0.94208336694E+01 -0.38611015617E+02  0.40659140452E+02  0.00000000000E+00 0. -1.
         11    1    3    3    0    0 -0.89560568293E+01 -0.39879434792E+01  0.17630402251E+02  0.20172895948E+02  0.51100000000E-03 0. -1.
        -11    1    3    3    0    0 -0.35462085351E+00  0.48155867050E+01 -0.24312386097E+01  0.54061587751E+01  0.51100000000E-03 0.  1.
        -12    1    3    3    0    0  0.73145462533E+00  0.85931904436E+01  0.23411851976E+02  0.24949804825E+02  0.00000000000E+00 0.  1.
</event>
<event>
 7    1  0.3141443E-011  0.5052886E+02  0.7816164E-02  0.1300439E+00
        -11   -1    0    0    0    0  0.00000000000E+00  0.00000000000E+00  0.45593999997E+02  0.45594000000E+02  0.51100000000E-03 0.  1.
         11   -1    0    0    0    0 -0.00000000000E+00 -0.00000000000E+00 -0.45593999997E+02  0.45594000000E+02  0.51100000000E-03 0. -1.
    9900012    2    1    2    0    0 -0.11948106206E+02 -0.20539468714E+02  0.32993010108E+02  0.50528859171E+02  0.29999997936E+02 0.  0.
         12    1    1    2    0    0  0.11948106206E+02  0.20539468714E+02 -0.32993010108E+02  0.40659140829E+02  0.00000000000E+00 0. -1.
         11    1    3    3    0    0  0.10917436610E+01 -0.11784267789E+01  0.14278575891E+02  0.14368657683E+02  0.51100000000E-03 0. -1.
        -11    1    3    3    0    0 -0.13710626876E+02 -0.12031970155E+02  0.21584900871E+02  0.28260529738E+02  0.51100000000E-03 0.  1.
        -12    1    3    3    0    0  0.67077700921E+00 -0.73290717797E+01 -0.28704666538E+01  0.78996717501E+01  0.00000000000E+00 0.  1.
</event>
<event>
 7    1  0.3141443E-011  0.5052883E+02  0.7816164E-02  0.1300439E+00
        -11   -1    0    0    0    0  0.00000000000E+00  0.00000000000E+00  0.45593999997E+02  0.45594000000E+02  0.51100000000E-03 0. -1.
         11   -1    0    0    0    0 -0.00000000000E+00 -0.00000000000E+00 -0.45593999997E+02  0.45594000000E+02  0.51100000000E-03 0.  1.
    9900012    2    1    2    0    0 -0.19133162270E+02 -0.30849403896E+02 -0.18314051617E+02  0.50528829991E+02  0.29999909242E+02 0.  0.
         12    1    1    2    0    0  0.19133162270E+02  0.30849403896E+02  0.18314051617E+02  0.40659170009E+02  0.00000000000E+00 0. -1.
         11    1    3    3    0    0 -0.13030217291E+02 -0.18744592407E+02 -0.21219397347E+02  0.31167437032E+02  0.51100000000E-03 0. -1.
        -11    1    3    3    0    0 -0.88568095906E+01 -0.77408992995E+01 -0.23509883882E+01  0.11995488517E+02  0.51100000000E-03 0.  1.
         12    1    3    3    0    0  0.27538646117E+01 -0.43639121892E+01  0.52563341178E+01  0.73659044423E+01  0.00000000000E+00 0. -1.
</event>
<event>
 7    1  0.3141443E-011  0.5052886E+02  0.7816164E-02  0.1300439E+00
        -11   -1    0    0    0    0  0.00000000000E+00  0.00000000000E+00  0.45593999997E+02  0.45594000000E+02  0.51100000000E-03 0.  1.
         11   -1    0    0    0    0 -0.00000000000E+00 -0.00000000000E+00 -0.45593999997E+02  0.45594000000E+02  0.51100000000E-03 0. -1.
    9900012    2    1    2    0    0 -0.34302269079E+02 -0.11204558428E+02  0.18734403221E+02  0.50528860097E+02  0.30000000752E+02 0.  0.
         12    1    1    2    0    0  0.34302269079E+02  0.11204558428E+02 -0.18734403221E+02  0.40659139903E+02  0.00000000000E+00 0. -1.
         11    1    3    3    0    0 -0.48041662937E+01  0.49535363758E+01  0.84782391995E+01  0.10931517579E+02  0.51100000000E-03 0. -1.
        -11    1    3    3    0    0 -0.13433408484E+02  0.24279490217E+01  0.29339207613E+01  0.13962782360E+02  0.51100000000E-03 0.  1.
         12    1    3    3    0    0 -0.16064694302E+02 -0.18586043826E+02  0.73222432602E+01  0.25634560158E+02  0.00000000000E+00 0. -1.
</event>
<event>
 7    1  0.3141443E-011  0.5052888E+02  0.7816164E-02  0.1300439E+00
        -11   -1    0    0    0    0  0.00000000000E+00  0.00000000000E+00  0.45593999997E+02  0.45594000000E+02  0.51100000000E-03 0.  1.
         11   -1    0    0    0    0 -0.00000000000E+00 -0.00000000000E+00 -0.45593999997E+02  0.45594000000E+02  0.51100000000E-03 0. -1.
    9900012    2    1    2    0    0  0.34855194040E+02 -0.17160004487E+02 -0.11992227794E+02  0.50528882535E+02  0.30000068954E+02 0.  0.
         12    1    1    2    0    0 -0.34855194040E+02  0.17160004487E+02  0.11992227794E+02  0.40659117465E+02  0.00000000000E+00 0. -1.
         11    1    3    3    0    0  0.10127919010E+02  0.21785960648E+01 -0.36764198642E+01  0.10992592395E+02  0.51100000000E-03 0. -1.
        -11    1    3    3    0    0 -0.22239167326E+01  0.21634207417E+01 -0.35761468121E+01  0.47344504667E+01  0.51100000000E-03 0.  1.
        -12    1    3    3    0    0  0.26951191762E+02 -0.21502021294E+02 -0.47396611181E+01  0.34801839673E+02  0.00000000000E+00 0.  1.
</event>
<event>
 7    1  0.3141443E-011  0.5052892E+02  0.7816164E-02  0.1300439E+00
        -11   -1    0    0    0    0  0.00000000000E+00  0.00000000000E+00  0.45593999997E+02  0.45594000000E+02  0.51100000000E-03 0.  1.
         11   -1    0    0    0    0 -0.00000000000E+00 -0.00000000000E+00 -0.45593999997E+02  0.45594000000E+02  0.51100000000E-03 0. -1.
    9900012    2    1    2    0    0  0.39396274708E+02  0.97911369005E+01  0.22864188781E+01  0.50528923105E+02  0.30000192270E+02 0.  0.
         12    1    1    2    0    0 -0.39396274708E+02 -0.97911369005E+01 -0.22864188781E+01  0.40659076895E+02  0.00000000000E+00 0. -1.
         11    1    3    3    0    0 -0.12215292024E+01 -0.45074133702E+01 -0.36776073356E+01  0.59442160844E+01  0.51100000000E-03 0. -1.
        -11    1    3    3    0    0  0.56550743307E+01  0.42310053596E+01 -0.19990553346E+01  0.73401290541E+01  0.51100000000E-03 0.  1.
         12    1    3    3    0    0  0.34962729579E+02  0.10067544911E+02  0.79630815483E+01  0.37244577967E+02  0.00000000000E+00 0. -1.
</event>
<event>
 7    1  0.3141443E-011  0.5052886E+02  0.7816164E-02  0.1300439E+00
        -11   -1    0    0    0    0  0.00000000000E+00  0.00000000000E+00  0.45593999997E+02  0.45594000000E+02  0.51100000000E-03 0.  1.
         11   -1    0    0    0    0 -0.00000000000E+00 -0.00000000000E+00 -0.45593999997E+02  0.45594000000E+02  0.51100000000E-03 0. -1.
    9900012    2    1    2    0    0 -0.24274873005E+02 -0.18775687359E+02  0.26671515904E+02  0.50528860119E+02  0.30000000819E+02 0.  0.
         12    1    1    2    0    0  0.24274873005E+02  0.18775687359E+02 -0.26671515904E+02  0.40659139881E+02  0.00000000000E+00 0. -1.
         11    1    3    3    0    0 -0.24219052351E+01  0.12829040401E+01 -0.10570779011E+01  0.29374958202E+01  0.51100000000E-03 0. -1.
        -11    1    3    3    0    0 -0.27131857696E+02 -0.13931994624E+02  0.23215901315E+02  0.38330356773E+02  0.51100000000E-03 0.  1.
         12    1    3    3    0    0  0.52788899255E+01 -0.61265967753E+01  0.45126924901E+01  0.92610075263E+01  0.00000000000E+00 0. -1.
</event>
<event>
 7    1  0.3141443E-011  0.5052886E+02  0.7816164E-02  0.1300439E+00
        -11   -1    0    0    0    0  0.00000000000E+00  0.00000000000E+00  0.45593999997E+02  0.45594000000E+02  0.51100000000E-03 0.  1.
         11   -1    0    0    0    0 -0.00000000000E+00 -0.00000000000E+00 -0.45593999997E+02  0.45594000000E+02  0.51100000000E-03 0. -1.
    9900012    2    1    2    0    0  0.19802900239E+02  0.24325563434E+02  0.25870409497E+02  0.50528856110E+02  0.29999988633E+02 0.  0.
         12    1    1    2    0    0 -0.19802900239E+02 -0.24325563434E+02 -0.25870409497E+02  0.40659143890E+02  0.00000000000E+00 0. -1.
         11    1    3    3    0    0  0.10518935397E+02  0.72994665939E+01  0.13629296787E+01  0.12875860826E+02  0.51100000000E-03 0. -1.
        -11    1    3    3    0    0  0.13650630987E+02  0.81017915316E+01  0.22469095540E+02  0.27510707134E+02  0.51100000000E-03 0.  1.
         12    1    3    3    0    0 -0.43666661444E+01  0.89243053088E+01  0.20383842791E+01  0.10142288151E+02  0.00000000000E+00 0. -1.
</event>
<event>
 7    1  0.3141443E-011  0.5052886E+02  0.7816164E-02  0.1300439E+00
        -11   -1    0    0    0    0  0.00000000000E+00  0.00000000000E+00  0.45593999997E+02  0.45594000000E+02  0.51100000000E-03 0.  1.
         11   -1    0    0    0    0 -0.00000000000E+00 -0.00000000000E+00 -0.45593999997E+02  0.45594000000E+02  0.51100000000E-03 0. -1.
    9900012    2    1    2    0    0  0.27855596634E+02  0.29190903182E+02 -0.50122328053E+01  0.50528861174E+02  0.30000004023E+02 0.  0.
         12    1    1    2    0    0 -0.27855596634E+02 -0.29190903182E+02  0.50122328053E+01  0.40659138826E+02  0.00000000000E+00 0. -1.
         11    1    3    3    0    0  0.40185024913E+01  0.55907323207E+01  0.86824214596E+01  0.11081023997E+02  0.51100000000E-03 0. -1.
        -11    1    3    3    0    0  0.13104954738E+02  0.19739108432E+02 -0.31262910914E+01  0.23898659724E+02  0.51100000000E-03 0.  1.
        -12    1    3    3    0    0  0.10732139405E+02  0.38610624298E+01 -0.10568363173E+02  0.15549177453E+02  0.00000000000E+00 0.  1.
</event>
<event>
 7    1  0.3895517E-011  0.5052886E+02  0.7816164E-02  0.1300439E+00
        -11   -1    0    0    0    0  0.00000000000E+00  0.00000000000E+00  0.45593999997E+02  0.45594000000E+02  0.51100000000E-03 0. -1.
         11   -1    0    0    0    0 -0.00000000000E+00 -0.00000000000E+00 -0.45593999997E+02  0.45594000000E+02  0.51100000000E-03 0.  1.
    9900012    2    1    2    0    0  0.95795959137E+01 -0.39966269027E+01 -0.39311878181E+02  0.50528862644E+02  0.30000008492E+02 0.  0.
         12    1    1    2    0    0 -0.95795959137E+01  0.39966269027E+01  0.39311878181E+02  0.40659137356E+02  0.00000000000E+00 0. -1.
         11    1    3    3    0    0  0.94996817976E+01 -0.39007018001E+00 -0.21230635814E+01  0.97418431641E+01  0.51100000000E-03 0. -1.
        -11    1    3    3    0    0 -0.63294038238E+01 -0.84434308036E+00 -0.57826072080E+01  0.86146859713E+01  0.51100000000E-03 0.  1.
        -12    1    3    3    0    0  0.64093179398E+01 -0.27622136423E+01 -0.31406207391E+02  0.32172333508E+02  0.00000000000E+00 0.  1.
</event>
<event>
 7    1  0.3141443E-011  0.5052887E+02  0.7816164E-02  0.1300439E+00
        -11   -1    0    0    0    0  0.00000000000E+00  0.00000000000E+00  0.45593999997E+02  0.45594000000E+02  0.51100000000E-03 0.  1.
         11   -1    0    0    0    0 -0.00000000000E+00 -0.00000000000E+00 -0.45593999997E+02  0.45594000000E+02  0.51100000000E-03 0. -1.
    9900012    2    1    2    0    0 -0.10719658903E+02  0.35198001471E+02  0.17301872939E+02  0.50528865704E+02  0.30000017793E+02 0.  0.
         12    1    1    2    0    0  0.10719658903E+02 -0.35198001471E+02 -0.17301872939E+02  0.40659134296E+02  0.00000000000E+00 0. -1.
         11    1    3    3    0    0 -0.90093452210E+01  0.23750050613E+02  0.78752873926E+01  0.26594235413E+02  0.51100000000E-03 0. -1.
        -11    1    3    3    0    0 -0.92393858853E+01  0.59544094309E+01  0.96279327609E+01  0.14612266515E+02  0.51100000000E-03 0.  1.
         12    1    3    3    0    0  0.75290722034E+01  0.54935414272E+01 -0.20134721470E+00  0.93223637752E+01  0.00000000000E+00 0. -1.
</event>
<event>
 7    1  0.3141443E-011  0.5052885E+02  0.7816164E-02  0.1300439E+00
        -11   -1    0    0    0    0  0.00000000000E+00  0.00000000000E+00  0.45593999997E+02  0.45594000000E+02  0.51100000000E-03 0. -1.
         11   -1    0    0    0    0 -0.00000000000E+00 -0.00000000000E+00 -0.45593999997E+02  0.45594000000E+02  0.51100000000E-03 0.  1.
    9900012    2    1    2    0    0  0.35346068569E+02 -0.19403970608E+02  0.52256870414E+01  0.50528850431E+02  0.29999971369E+02 0.  0.
         12    1    1    2    0    0 -0.35346068569E+02  0.19403970608E+02 -0.52256870414E+01  0.40659149569E+02  0.00000000000E+00 0. -1.
         11    1    3    3    0    0  0.64858160630E+00  0.25144909827E+01  0.22480609778E+01  0.34346908774E+01  0.51100000000E-03 0. -1.
        -11    1    3    3    0    0  0.19089802907E+02 -0.74846461174E+01 -0.93323799211E+01  0.22528511220E+02  0.51100000000E-03 0.  1.
         12    1    3    3    0    0  0.15607684055E+02 -0.14433815474E+02  0.12310005985E+02  0.24565648333E+02  0.00000000000E+00 0. -1.
</event>
<event>
 7    1  0.3141443E-011  0.5052881E+02  0.7816164E-02  0.1300439E+00
        -11   -1    0    0    0    0  0.00000000000E+00  0.00000000000E+00  0.45593999997E+02  0.45594000000E+02  0.51100000000E-03 0. -1.
         11   -1    0    0    0    0 -0.00000000000E+00 -0.00000000000E+00 -0.45593999997E+02  0.45594000000E+02  0.51100000000E-03 0.  1.
    9900012    2    1    2    0    0 -0.18924408159E+02  0.13259529217E+02 -0.33454762917E+02  0.50528812834E+02  0.29999857089E+02 0.  0.
         12    1    1    2    0    0  0.18924408159E+02 -0.13259529217E+02  0.33454762917E+02  0.40659187166E+02  0.00000000000E+00 0. -1.
         11    1    3    3    0    0 -0.12758662400E+01  0.52565707883E+01 -0.25836617591E+00  0.54153600487E+01  0.51100000000E-03 0. -1.
        -11    1    3    3    0    0  0.43965353698E+01  0.54524124806E+01 -0.14470161541E+02  0.16076190482E+02  0.51100000000E-03 0.  1.
        -12    1    3    3    0    0 -0.22045077289E+02  0.25505459476E+01 -0.18726235200E+02  0.29037262303E+02  0.00000000000E+00 0.  1.
</event>
<event>
 7    1  0.3141443E-011  0.5052886E+02  0.7816164E-02  0.1300439E+00
        -11   -1    0    0    0    0  0.00000000000E+00  0.00000000000E+00  0.45593999997E+02  0.45594000000E+02  0.51100000000E-03 0.  1.
         11   -1    0    0    0    0 -0.00000000000E+00 -0.00000000000E+00 -0.45593999997E+02  0.45594000000E+02  0.51100000000E-03 0. -1.
    9900012    2    1    2    0    0 -0.12232210293E+02 -0.36100798737E+02  0.14151711479E+02  0.50528861102E+02  0.30000003807E+02 0.  0.
         12    1    1    2    0    0  0.12232210293E+02  0.36100798737E+02 -0.14151711479E+02  0.40659138898E+02  0.00000000000E+00 0. -1.
         11    1    3    3    0    0 -0.17383639280E+00 -0.22460107799E+02  0.49565314530E+01  0.23001170965E+02  0.51100000000E-03 0. -1.
        -11    1    3    3    0    0 -0.30371372402E+00 -0.34740689838E+01  0.11317077318E+02  0.11842197288E+02  0.51100000000E-03 0.  1.
         12    1    3    3    0    0 -0.11754660176E+02 -0.10166621954E+02 -0.21218972917E+01  0.15685492849E+02  0.00000000000E+00 0. -1.
</event>
<event>
 7    1  0.3141443E-011  0.5052886E+02  0.7816164E-02  0.1300439E+00
        -11   -1    0    0    0    0  0.00000000000E+00  0.00000000000E+00  0.45593999997E+02  0.45594000000E+02  0.51100000000E-03 0.  1.
         11   -1    0    0    0    0 -0.00000000000E+00 -0.00000000000E+00 -0.45593999997E+02  0.45594000000E+02  0.51100000000E-03 0. -1.
    9900012    2    1    2    0    0  0.71173056016E+01  0.38665194001E+02 -0.10368818029E+02  0.50528860149E+02  0.30000000908E+02 0.  0.
         12    1    1    2    0    0 -0.71173056016E+01 -0.38665194001E+02  0.10368818029E+02  0.40659139851E+02  0.00000000000E+00 0. -1.
         11    1    3    3    0    0 -0.75109127852E+01  0.51547883002E+01 -0.23270921180E+01  0.94021811977E+01  0.51100000000E-03 0. -1.
        -11    1    3    3    0    0  0.32467862136E+01  0.25803975686E+02 -0.85369320447E+01  0.27372723483E+02  0.51100000000E-03 0.  1.
        -12    1    3    3    0    0  0.11381432173E+02  0.77064300148E+01  0.49520613369E+00  0.13753955467E+02  0.00000000000E+00 0.  1.
</event>
<event>
 7    1  0.3141443E-011  0.5052886E+02  0.7816164E-02  0.1300439E+00
        -11   -1    0    0    0    0  0.00000000000E+00  0.00000000000E+00  0.45593999997E+02  0.45594000000E+02  0.51100000000E-03 0.  1.
         11   -1    0    0    0    0 -0.00000000000E+00 -0.00000000000E+00 -0.45593999997E+02  0.45594000000E+02  0.51100000000E-03 0. -1.
    9900012    2    1    2    0    0 -0.21691067917E+02 -0.59113244773E+01  0.33878006641E+02  0.50528861809E+02  0.30000005955E+02 0.  0.
         12    1    1    2    0    0  0.21691067917E+02  0.59113244773E+01 -0.33878006641E+02  0.40659138191E+02  0.00000000000E+00 0. -1.
         11    1    3    3    0    0 -0.79926084953E+01 -0.43428234028E+01  0.27937702940E+02  0.29381238087E+02  0.51100000000E-03 0.  1.
        -11    1    3    3    0    0  0.17518373649E+01  0.97181240975E+00 -0.26235232367E+01  0.33009434935E+01  0.51100000000E-03 0. -1.
        -12    1    3    3    0    0 -0.15450296786E+02 -0.25403134842E+01  0.85638269377E+01  0.17846680229E+02  0.00000000000E+00 0.  1.
</event>
<event>
 7    1  0.3141443E-011  0.5052889E+02  0.7816164E-02  0.1300439E+00
        -11   -1    0    0    0    0  0.00000000000E+00  0.00000000000E+00  0.45593999997E+02  0.45594000000E+02  0.51100000000E-03 0.  1.
         11   -1    0    0    0    0 -0.00000000000E+00 -0.00000000000E+00 -0.45593999997E+02  0.45594000000E+02  0.51100000000E-03 0. -1.
    9900012    2    1    2    0    0  0.27712030876E+02 -0.17798294718E+02  0.23841718167E+02  0.50528886934E+02  0.30000082326E+02 0.  0.
         12    1    1    2    0    0 -0.27712030876E+02  0.17798294718E+02 -0.23841718167E+02  0.40659113066E+02  0.00000000000E+00 0. -1.
         11    1    3    3    0    0  0.12243747879E+02 -0.11756509241E+02  0.11284210279E+02  0.20382793565E+02  0.51100000000E-03 0. -1.
        -11    1    3    3    0    0  0.85840820181E+01 -0.92832167551E+01  0.17113240268E+02  0.21277395756E+02  0.51100000000E-03 0.  1.
         12    1    3    3    0    0  0.68842009785E+01  0.32414312785E+01 -0.45557323791E+01  0.88686976133E+01  0.00000000000E+00 0. -1.
</event>
<event>
 7    1  0.3141443E-011  0.5052886E+02  0.7816164E-02  0.1300439E+00
        -11   -1    0    0    0    0  0.00000000000E+00  0.00000000000E+00  0.45593999997E+02  0.45594000000E+02  0.51100000000E-03 0.  1.
         11   -1    0    0    0    0 -0.00000000000E+00 -0.00000000000E+00 -0.45593999997E+02  0.45594000000E+02  0.51100000000E-03 0. -1.
    9900012    2    1    2    0    0 -0.33337334624E+02  0.21666965387E+01  0.23175265662E+02  0.50528863361E+02  0.30000010671E+02 0.  0.
         12    1    1    2    0    0  0.33337334624E+02 -0.21666965387E+01 -0.23175265662E+02  0.40659136639E+02  0.00000000000E+00 0. -1.
         11    1    3    3    0    0 -0.71135812779E+01  0.20449169347E+01  0.18598768613E+02  0.20017465325E+02  0.51100000000E-03 0.  1.
        -11    1    3    3    0    0 -0.50673315298E+01  0.63010008704E+01  0.53435458069E+00  0.81034557986E+01  0.51100000000E-03 0. -1.
         12    1    3    3    0    0 -0.21156421817E+02 -0.61792212664E+01  0.40421424683E+01  0.22407942237E+02  0.00000000000E+00 0. -1.
</event>
<event>
 7    1  0.3141443E-011  0.5052895E+02  0.7816164E-02  0.1300438E+00
        -11   -1    0    0    0    0  0.00000000000E+00  0.00000000000E+00  0.45593999997E+02  0.45594000000E+02  0.51100000000E-03 0.  1.
         11   -1    0    0    0    0 -0.00000000000E+00 -0.00000000000E+00 -0.45593999997E+02  0.45594000000E+02  0.51100000000E-03 0. -1.
    9900012    2    1    2    0    0  0.45370352581E+01 -0.34166574611E+02 -0.21568927746E+02  0.50528952376E+02  0.30000281242E+02 0.  0.
         12    1    1    2    0    0 -0.45370352581E+01  0.34166574611E+02  0.21568927746E+02  0.40659047624E+02  0.00000000000E+00 0. -1.
         11    1    3    3    0    0  0.37737183122E+01 -0.20969611337E+02 -0.57379207696E+01  0.22065567850E+02  0.51100000000E-03 0. -1.
        -11    1    3    3    0    0  0.94370075798E+01 -0.10764765025E+02 -0.11977943275E+02  0.18665701259E+02  0.51100000000E-03 0.  1.
         12    1    3    3    0    0 -0.86736906338E+01 -0.24321982481E+01 -0.38530637008E+01  0.97976832676E+01  0.00000000000E+00 0. -1.
</event>
<event>
 7    1  0.3141443E-011  0.5052884E+02  0.7816164E-02  0.1300439E+00
        -11   -1    0    0    0    0  0.00000000000E+00  0.00000000000E+00  0.45593999997E+02  0.45594000000E+02  0.51100000000E-03 0.  1.
         11   -1    0    0    0    0 -0.00000000000E+00 -0.00000000000E+00 -0.45593999997E+02  0.45594000000E+02  0.51100000000E-03 0. -1.
    9900012    2    1    2    0    0  0.71075575580E+00  0.18606597345E+02  0.36144943495E+02  0.50528836472E+02  0.29999928941E+02 0.  0.
         12    1    1    2    0    0 -0.71075575580E+00 -0.18606597345E+02 -0.36144943495E+02  0.40659163528E+02  0.00000000000E+00 0. -1.
         11    1    3    3    0    0  0.17168566283E+01  0.31734618760E+01 -0.37435119919E+01  0.51992633378E+01  0.51100000000E-03 0. -1.
        -11    1    3    3    0    0  0.66577227304E+01  0.10085710006E+02  0.24668886081E+02  0.27469997434E+02  0.51100000000E-03 0.  1.
         12    1    3    3    0    0 -0.76638236029E+01  0.53474254637E+01  0.15219569406E+02  0.17859575701E+02  0.00000000000E+00 0. -1.
</event>
<event>
 7    1  0.3141443E-011  0.5052882E+02  0.7816164E-02  0.1300439E+00
        -11   -1    0    0    0    0  0.00000000000E+00  0.00000000000E+00  0.45593999997E+02  0.45594000000E+02  0.51100000000E-03 0.  1.
         11   -1    0    0    0    0 -0.00000000000E+00 -0.00000000000E+00 -0.45593999997E+02  0.45594000000E+02  0.51100000000E-03 0. -1.
    9900012    2    1    2    0    0 -0.14482572242E+02  0.21775455564E+02  0.31132831314E+02  0.50528824536E+02  0.29999892660E+02 0.  0.
         12    1    1    2    0    0  0.14482572242E+02 -0.21775455564E+02 -0.31132831314E+02  0.40659175464E+02  0.00000000000E+00 0. -1.
         11    1    3    3    0    0 -0.18191564081E+02  0.14754012908E+02  0.15598254964E+02  0.28141063569E+02  0.51100000000E-03 0. -1.
        -11    1    3    3    0    0  0.27611782799E+01  0.10490969842E+02  0.15336774685E+02  0.18785665059E+02  0.51100000000E-03 0.  1.
        -12    1    3    3    0    0  0.94781355983E+00 -0.34695271852E+01  0.19780166493E+00  0.36020959082E+01  0.00000000000E+00 0.  1.
</event>
<event>
 7    1  0.3141443E-011  0.5052886E+02  0.7816164E-02  0.1300439E+00
        -11   -1    0    0    0    0  0.00000000000E+00  0.00000000000E+00  0.45593999997E+02  0.45594000000E+02  0.51100000000E-03 0.  1.
         11   -1    0    0    0    0 -0.00000000000E+00 -0.00000000000E+00 -0.45593999997E+02  0.45594000000E+02  0.51100000000E-03 0. -1.
    9900012    2    1    2    0    0 -0.18643095628E+02 -0.34335637223E+02 -0.11254555196E+02  0.50528855754E+02  0.29999987551E+02 0.  0.
         12    1    1    2    0    0  0.18643095628E+02  0.34335637223E+02  0.11254555196E+02  0.40659144246E+02  0.00000000000E+00 0. -1.
         11    1    3    3    0    0 -0.94458373521E+01 -0.10483274321E+02 -0.92962050185E+01  0.16897997271E+02  0.51100000000E-03 0. -1.
        -11    1    3    3    0    0 -0.54420727054E+01 -0.26792230516E+02 -0.52463505188E+01  0.27838174606E+02  0.51100000000E-03 0.  1.
        -12    1    3    3    0    0 -0.37551855705E+01  0.29398676139E+01  0.32880003416E+01  0.57926838773E+01  0.00000000000E+00 0.  1.
</event>
<event>
 7    1  0.3228113E-011  0.5052886E+02  0.7816164E-02  0.1300439E+00
        -11   -1    0    0    0    0  0.00000000000E+00  0.00000000000E+00  0.45593999997E+02  0.45594000000E+02  0.51100000000E-03 0.  1.
         11   -1    0    0    0    0 -0.00000000000E+00 -0.00000000000E+00 -0.45593999997E+02  0.45594000000E+02  0.51100000000E-03 0. -1.
    9900012    2    1    2    0    0 -0.11984526285E+02 -0.38638025753E+02  0.40791980937E+01  0.50528858820E+02  0.29999996869E+02 0.  0.
         12    1    1    2    0    0  0.11984526285E+02  0.38638025753E+02 -0.40791980937E+01  0.40659141180E+02  0.00000000000E+00 0. -1.
         11    1    3    3    0    0 -0.54276682936E+00 -0.70072436865E+01 -0.78820409366E+01  0.10560427525E+02  0.51100000000E-03 0. -1.
        -11    1    3    3    0    0 -0.12404486274E+01 -0.20487772297E+02 -0.27520644800E+00  0.20527134855E+02  0.51100000000E-03 0.  1.
        -12    1    3    3    0    0 -0.10201310829E+02 -0.11143009770E+02  0.12236445478E+02  0.19441296441E+02  0.00000000000E+00 0.  1.
</event>
<event>
 7    1  0.3141443E-011  0.5052886E+02  0.7816164E-02  0.1300439E+00
        -11   -1    0    0    0    0  0.00000000000E+00  0.00000000000E+00  0.45593999997E+02  0.45594000000E+02  0.51100000000E-03 0. -1.
         11   -1    0    0    0    0 -0.00000000000E+00 -0.00000000000E+00 -0.45593999997E+02  0.45594000000E+02  0.51100000000E-03 0.  1.
    9900012    2    1    2    0    0  0.13913924232E+02  0.30923383964E+02 -0.22434635173E+02  0.50528858117E+02  0.29999994733E+02 0.  0.
         12    1    1    2    0    0 -0.13913924232E+02 -0.30923383964E+02  0.22434635173E+02  0.40659141883E+02  0.00000000000E+00 0. -1.
         11    1    3    3    0    0  0.35826283523E+01 -0.11174475867E+01  0.16832359016E+01  0.41130521977E+01  0.51100000000E-03 0. -1.
        -11    1    3    3    0    0  0.15143525546E+02  0.19098556609E+02 -0.21198497212E+02  0.32302593005E+02  0.51100000000E-03 0.  1.
         12    1    3    3    0    0 -0.48122296666E+01  0.12942274942E+02 -0.29193738620E+01  0.14113212915E+02  0.00000000000E+00 0. -1.
</event>
<event>
 7    1  0.3141443E-011  0.5052888E+02  0.7816164E-02  0.1300439E+00
        -11   -1    0    0    0    0  0.00000000000E+00  0.00000000000E+00  0.45593999997E+02  0.45594000000E+02  0.51100000000E-03 0. -1.
         11   -1    0    0    0    0 -0.00000000000E+00 -0.00000000000E+00 -0.45593999997E+02  0.45594000000E+02  0.51100000000E-03 0.  1.
    9900012    2    1    2    0    0 -0.35225467896E+02 -0.11995155582E+02  0.16384346299E+02  0.50528878642E+02  0.30000057120E+02 0.  0.
         12    1    1    2    0    0  0.35225467896E+02  0.11995155582E+02 -0.16384346299E+02  0.40659121358E+02  0.00000000000E+00 0. -1.
         11    1    3    3    0    0 -0.25157678743E-01 -0.42005584715E+01 -0.58550270053E+01  0.72060159502E+01  0.51100000000E-03 0.  1.
        -11    1    3    3    0    0 -0.14303994737E+02 -0.76330155596E+01  0.84136510880E+01  0.18266272660E+02  0.51100000000E-03 0. -1.
        -12    1    3    3    0    0 -0.20896315480E+02 -0.16158155113E+00  0.13825722217E+02  0.25056590032E+02  0.00000000000E+00 0.  1.
</event>
<event>
 7    1  0.3141443E-011  0.5052888E+02  0.7816164E-02  0.1300439E+00
        -11   -1    0    0    0    0  0.00000000000E+00  0.00000000000E+00  0.45593999997E+02  0.45594000000E+02  0.51100000000E-03 0.  1.
         11   -1    0    0    0    0 -0.00000000000E+00 -0.00000000000E+00 -0.45593999997E+02  0.45594000000E+02  0.51100000000E-03 0. -1.
    9900012    2    1    2    0    0  0.14657426927E+02 -0.27664202209E+02  0.25942549323E+02  0.50528879088E+02  0.30000058477E+02 0.  0.
         12    1    1    2    0    0 -0.14657426927E+02  0.27664202209E+02 -0.25942549323E+02  0.40659120912E+02  0.00000000000E+00 0. -1.
         11    1    3    3    0    0  0.20886324601E+01 -0.27484686463E+01 -0.35305659872E+01  0.49377486676E+01  0.51100000000E-03 0. -1.
        -11    1    3    3    0    0  0.14499581314E+02 -0.22701831426E+02  0.15018390812E+02  0.30840931750E+02  0.51100000000E-03 0.  1.
         12    1    3    3    0    0 -0.19307868471E+01 -0.22139021365E+01  0.14454724498E+02  0.14750198670E+02  0.00000000000E+00 0. -1.
</event>
<event>
 7    1  0.3141443E-011  0.5052891E+02  0.7816164E-02  0.1300439E+00
        -11   -1    0    0    0    0  0.00000000000E+00  0.00000000000E+00  0.45593999997E+02  0.45594000000E+02  0.51100000000E-03 0.  1.
         11   -1    0    0    0    0 -0.00000000000E+00 -0.00000000000E+00 -0.45593999997E+02  0.45594000000E+02  0.51100000000E-03 0. -1.
    9900012    2    1    2    0    0  0.43530643200E+01  0.12686369929E+02  0.38383181192E+02  0.50528908159E+02  0.30000146839E+02 0.  0.
         12    1    1    2    0    0 -0.43530643200E+01 -0.12686369929E+02 -0.38383181192E+02  0.40659091841E+02  0.00000000000E+00 0. -1.
         11    1    3    3    0    0  0.26632442388E+01 -0.20007635273E+01  0.11134299895E+02  0.11621899973E+02  0.51100000000E-03 0. -1.
        -11    1    3    3    0    0  0.56918059657E+01 -0.78107845723E+00 -0.15696301563E+01  0.59557096803E+01  0.51100000000E-03 0.  1.
        -12    1    3    3    0    0 -0.40019858844E+01  0.15468211913E+02  0.28818511453E+02  0.32951298505E+02  0.00000000000E+00 0.  1.
</event>
<event>
 7    1  0.3141443E-011  0.5052888E+02  0.7816164E-02  0.1300439E+00
        -11   -1    0    0    0    0  0.00000000000E+00  0.00000000000E+00  0.45593999997E+02  0.45594000000E+02  0.51100000000E-03 0. -1.
         11   -1    0    0    0    0 -0.00000000000E+00 -0.00000000000E+00 -0.45593999997E+02  0.45594000000E+02  0.51100000000E-03 0.  1.
    9900012    2    1    2    0    0  0.26550028322E+02 -0.21022427062E+02 -0.22501495628E+02  0.50528883569E+02  0.30000072096E+02 0.  0.
         12    1    1    2    0    0 -0.26550028322E+02  0.21022427062E+02  0.22501495628E+02  0.40659116431E+02  0.00000000000E+00 0. -1.
         11    1    3    3    0    0 -0.37312298766E+01  0.14168803126E+01 -0.33819198915E+01  0.52313486431E+01  0.51100000000E-03 0. -1.
        -11    1    3    3    0    0  0.85899112798E+01 -0.16296481403E+02 -0.10162480105E+02  0.21038961097E+02  0.51100000000E-03 0.  1.
         12    1    3    3    0    0  0.21691346919E+02 -0.61428259721E+01 -0.89570956308E+01  0.24258573829E+02  0.00000000000E+00 0. -1.
</event>
<event>
 7    1  0.3141443E-011  0.5052886E+02  0.7816164E-02  0.1300439E+00
        -11   -1    0    0    0    0  0.00000000000E+00  0.00000000000E+00  0.45593999997E+02  0.45594000000E+02  0.51100000000E-03 0. -1.
         11   -1    0    0    0    0 -0.00000000000E+00 -0.00000000000E+00 -0.45593999997E+02  0.45594000000E+02  0.51100000000E-03 0.  1.
    9900012    2    1    2    0    0  0.16661021822E+02 -0.17866397431E+02 -0.32501813110E+02  0.50528860059E+02  0.30000000635E+02 0.  0.
         12    1    1    2    0    0 -0.16661021822E+02  0.17866397431E+02  0.32501813110E+02  0.40659139941E+02  0.00000000000E+00 0. -1.
         11    1    3    3    0    0  0.75134107585E+01 -0.91076162240E-02 -0.10976923910E+01  0.75931780580E+01  0.51100000000E-03 0. -1.
        -11    1    3    3    0    0  0.80647209022E+01 -0.22814296755E+02 -0.25594431761E+02  0.35222248609E+02  0.51100000000E-03 0.  1.
         12    1    3    3    0    0  0.10828901616E+01  0.49570069399E+01 -0.58096889573E+01  0.77134333915E+01  0.00000000000E+00 0. -1.
</event>
<event>
 7    1  0.3141443E-011  0.5052886E+02  0.7816164E-02  0.1300439E+00
        -11   -1    0    0    0    0  0.00000000000E+00  0.00000000000E+00  0.45593999997E+02  0.45594000000E+02  0.51100000000E-03 0.  1.
         11   -1    0    0    0    0 -0.00000000000E+00 -0.00000000000E+00 -0.45593999997E+02  0.45594000000E+02  0.51100000000E-03 0. -1.
    9900012    2    1    2    0    0  0.77989432130E+01  0.39333730388E+02 -0.67231009404E+01  0.50528856530E+02  0.29999989909E+02 0.  0.
         12    1    1    2    0    0 -0.77989432130E+01 -0.39333730388E+02  0.67231009404E+01  0.40659143470E+02  0.00000000000E+00 0. -1.
         11    1    3    3    0    0  0.75574721456E+01  0.65400932038E+01 -0.41158181398E+01  0.10808707766E+02  0.51100000000E-03 0. -1.
        -11    1    3    3    0    0 -0.24275511032E+01  0.23200013553E+02  0.84774751649E+01  0.24819371843E+02  0.51100000000E-03 0.  1.
         12    1    3    3    0    0  0.26690221706E+01  0.95936236304E+01 -0.11084757965E+02  0.14900776921E+02  0.00000000000E+00 0. -1.
</event>
<event>
 7    1  0.3141443E-011  0.5052886E+02  0.7816164E-02  0.1300439E+00
        -11   -1    0    0    0    0  0.00000000000E+00  0.00000000000E+00  0.45593999997E+02  0.45594000000E+02  0.51100000000E-03 0.  1.
         11   -1    0    0    0    0 -0.00000000000E+00 -0.00000000000E+00 -0.45593999997E+02  0.45594000000E+02  0.51100000000E-03 0. -1.
    9900012    2    1    2    0    0  0.31220198470E+01 -0.14366941995E+02  0.37907909950E+02  0.50528859983E+02  0.30000000403E+02 0.  0.
         12    1    1    2    0    0 -0.31220198470E+01  0.14366941995E+02 -0.37907909950E+02  0.40659140017E+02  0.00000000000E+00 0. -1.
         11    1    3    3    0    0  0.96471230954E+01 -0.61888579477E+01  0.35537693331E+01  0.11999925977E+02  0.51100000000E-03 0. -1.
        -11    1    3    3    0    0 -0.75596508705E+00 -0.10852801190E+02  0.18729666561E+02  0.21659990457E+02  0.51100000000E-03 0.  1.
        -12    1    3    3    0    0 -0.57691381613E+01  0.26747171428E+01  0.15624474056E+02  0.16868943548E+02  0.00000000000E+00 0.  1.
</event>
<event>
 7    1  0.3141443E-011  0.5052897E+02  0.7816164E-02  0.1300438E+00
        -11   -1    0    0    0    0  0.00000000000E+00  0.00000000000E+00  0.45593999997E+02  0.45594000000E+02  0.51100000000E-03 0.  1.
         11   -1    0    0    0    0 -0.00000000000E+00 -0.00000000000E+00 -0.45593999997E+02  0.45594000000E+02  0.51100000000E-03 0. -1.
    9900012    2    1    2    0    0 -0.65337499442E+01 -0.26126252226E+02  0.30461220879E+02  0.50528967533E+02  0.30000327311E+02 0.  0.
         12    1    1    2    0    0  0.65337499442E+01  0.26126252226E+02 -0.30461220879E+02  0.40659032467E+02  0.00000000000E+00 0. -1.
         11    1    3    3    0    0  0.10661469679E+01 -0.62331205250E+01  0.14039403846E+02  0.15397834960E+02  0.51100000000E-03 0. -1.
        -11    1    3    3    0    0 -0.13226157016E+02 -0.70068267192E+01  0.14676028617E+02  0.20962172271E+02  0.51100000000E-03 0.  1.
         12    1    3    3    0    0  0.56262601038E+01 -0.12886304982E+02  0.17457884158E+01  0.14168960302E+02  0.00000000000E+00 0. -1.
</event>
<event>
 7    1  0.3141443E-011  0.5052887E+02  0.7816164E-02  0.1300439E+00
        -11   -1    0    0    0    0  0.00000000000E+00  0.00000000000E+00  0.45593999997E+02  0.45594000000E+02  0.51100000000E-03 0.  1.
         11   -1    0    0    0    0 -0.00000000000E+00 -0.00000000000E+00 -0.45593999997E+02  0.45594000000E+02  0.51100000000E-03 0. -1.
    9900012    2    1    2    0    0  0.33198712127E+02  0.19607376961E+02  0.12905869396E+02  0.50528865933E+02  0.30000018491E+02 0.  0.
         12    1    1    2    0    0 -0.33198712127E+02 -0.19607376961E+02 -0.12905869396E+02  0.40659134067E+02  0.00000000000E+00 0. -1.
         11    1    3    3    0    0  0.44762018081E+01  0.85252528137E+01  0.60031417481E+00  0.96476264197E+01  0.51100000000E-03 0. -1.
        -11    1    3    3    0    0 -0.23761415870E+01  0.11741189413E+01  0.74195141169E+01  0.78786924119E+01  0.51100000000E-03 0.  1.
        -12    1    3    3    0    0  0.31098651906E+02  0.99080052061E+01  0.48860411048E+01  0.33002547102E+02  0.00000000000E+00 0.  1.
</event>
<event>
 7    1  0.3141443E-011  0.5052887E+02  0.7816164E-02  0.1300439E+00
        -11   -1    0    0    0    0  0.00000000000E+00  0.00000000000E+00  0.45593999997E+02  0.45594000000E+02  0.51100000000E-03 0.  1.
         11   -1    0    0    0    0 -0.00000000000E+00 -0.00000000000E+00 -0.45593999997E+02  0.45594000000E+02  0.51100000000E-03 0. -1.
    9900012    2    1    2    0    0  0.16171809098E+02 -0.42018602339E+01  0.37067259372E+02  0.50528871182E+02  0.30000034444E+02 0.  0.
         12    1    1    2    0    0 -0.16171809098E+02  0.42018602339E+01 -0.37067259372E+02  0.40659128818E+02  0.00000000000E+00 0. -1.
         11    1    3    3    0    0 -0.53675049031E+01 -0.33241973476E+01  0.17247317313E+02  0.18366555247E+02  0.51100000000E-03 0. -1.
        -11    1    3    3    0    0  0.20099942786E+01  0.38187929729E+01  0.73408383600E+01  0.85153487808E+01  0.51100000000E-03 0.  1.
        -12    1    3    3    0    0  0.19529319722E+02 -0.46964558592E+01  0.12479103699E+02  0.23646967154E+02  0.00000000000E+00 0.  1.
</event>
<event>
 7    1  0.3141443E-011  0.5052885E+02  0.7816164E-02  0.1300439E+00
        -11   -1    0    0    0    0  0.00000000000E+00  0.00000000000E+00  0.45593999997E+02  0.45594000000E+02  0.51100000000E-03 0.  1.
         11   -1    0    0    0    0 -0.00000000000E+00 -0.00000000000E+00 -0.45593999997E+02  0.45594000000E+02  0.51100000000E-03 0. -1.
    9900012    2    1    2    0    0  0.12604566334E+02 -0.38447684051E+02  0.40083238073E+01  0.50528853906E+02  0.29999981932E+02 0.  0.
         12    1    1    2    0    0 -0.12604566334E+02  0.38447684051E+02 -0.40083238073E+01  0.40659146094E+02  0.00000000000E+00 0. -1.
         11    1    3    3    0    0  0.61253353903E+00  0.12935686006E+01 -0.64023098265E+01  0.65603420975E+01  0.51100000000E-03 0. -1.
        -11    1    3    3    0    0  0.45706126072E+01 -0.13844812690E+02  0.86937048349E+01  0.16974976938E+02  0.51100000000E-03 0.  1.
        -12    1    3    3    0    0  0.74214201874E+01 -0.25896439962E+02  0.17169287989E+01  0.26993534870E+02  0.00000000000E+00 0.  1.
</event>
<event>
 7    1  0.3141443E-011  0.5052886E+02  0.7816164E-02  0.1300439E+00
        -11   -1    0    0    0    0  0.00000000000E+00  0.00000000000E+00  0.45593999997E+02  0.45594000000E+02  0.51100000000E-03 0. -1.
         11   -1    0    0    0    0 -0.00000000000E+00 -0.00000000000E+00 -0.45593999997E+02  0.45594000000E+02  0.51100000000E-03 0.  1.
    9900012    2    1    2    0    0 -0.30162239056E+02 -0.17406214304E+02  0.20986401040E+02  0.50528856011E+02  0.29999988332E+02 0.  0.
         12    1    1    2    0    0  0.30162239056E+02  0.17406214304E+02 -0.20986401040E+02  0.40659143989E+02  0.00000000000E+00 0. -1.
         11    1    3    3    0    0 -0.18911308778E+02 -0.65659196681E+01  0.22883782933E+01  0.20149083758E+02  0.51100000000E-03 0. -1.
        -11    1    3    3    0    0 -0.82377372382E+01 -0.15662337734E+02  0.11099944410E+02  0.20889660224E+02  0.51100000000E-03 0.  1.
         12    1    3    3    0    0 -0.30131930395E+01  0.48220430981E+01  0.75980783368E+01  0.94901120301E+01  0.00000000000E+00 0. -1.
</event>
<event>
 7    1  0.3141443E-011  0.5052886E+02  0.7816164E-02  0.1300439E+00
        -11   -1    0    0    0    0  0.00000000000E+00  0.00000000000E+00  0.45593999997E+02  0.45594000000E+02  0.51100000000E-03 0.  1.
         11   -1    0    0    0    0 -0.00000000000E+00 -0.00000000000E+00 -0.45593999997E+02  0.45594000000E+02  0.51100000000E-03 0. -1.
    9900012    2    1    2    0    0 -0.37801701181E+02  0.13697802476E+02  0.60470770486E+01  0.50528861474E+02  0.30000004937E+02 0.  0.
         12    1    1    2    0    0  0.37801701181E+02 -0.13697802476E+02 -0.60470770486E+01  0.40659138526E+02  0.00000000000E+00 0. -1.
         11    1    3    3    0    0 -0.11207053994E+01 -0.53878677287E+01  0.27795885741E+01  0.61653233619E+01  0.51100000000E-03 0. -1.
        -11    1    3    3    0    0 -0.14365103927E+02  0.53380087968E+00 -0.29747700816E+01  0.14679591667E+02  0.51100000000E-03 0.  1.
         12    1    3    3    0    0 -0.22315891855E+02  0.18551869325E+02  0.62422585561E+01  0.29683946446E+02  0.00000000000E+00 0. -1.
</event>
<event>
 7    1  0.3141443E-011  0.5052886E+02  0.7816164E-02  0.1300439E+00
        -11   -1    0    0    0    0  0.00000000000E+00  0.00000000000E+00  0.45593999997E+02  0.45594000000E+02  0.51100000000E-03 0. -1.
         11   -1    0    0    0    0 -0.00000000000E+00 -0.00000000000E+00 -0.45593999997E+02  0.45594000000E+02  0.51100000000E-03 0.  1.
    9900012    2    1    2    0    0 -0.14445676887E+02  0.18617850450E+02 -0.33134023904E+02  0.50528862328E+02  0.30000007534E+02 0.  0.
         12    1    1    2    0    0  0.14445676887E+02 -0.18617850450E+02  0.33134023904E+02  0.40659137672E+02  0.00000000000E+00 0. -1.
         11    1    3    3    0    0 -0.82030354693E+01  0.17733440828E+02 -0.13169666882E+02  0.23562785076E+02  0.51100000000E-03 0. -1.
        -11    1    3    3    0    0 -0.10623770180E+02  0.43980011454E+01 -0.88365947988E+01  0.14501459058E+02  0.51100000000E-03 0.  1.
         12    1    3    3    0    0  0.43811287619E+01 -0.35135915236E+01 -0.11127762223E+02  0.12464618194E+02  0.00000000000E+00 0. -1.
</event>
