<event>
 7    1  0.2294706E-015  0.9000777E+02  0.7816164E-02  0.1186339E+00
        -11   -1    0    0    0    0  0.00000000000E+00  0.00000000000E+00  0.45593999997E+02  0.45594000000E+02  0.51100000000E-03 0.  1.
         11   -1    0    0    0    0 -0.00000000000E+00 -0.00000000000E+00 -0.45593999997E+02  0.45594000000E+02  0.51100000000E-03 0. -1.
    9900012    2    1    2    0    0 -0.29488120501E+00  0.11121224513E+01 -0.26300570396E+00  0.90007769822E+02  0.90000031584E+02 0.  0.
        -12    1    1    2    0    0  0.29488120501E+00 -0.11121224513E+01  0.26300570396E+00  0.11802301776E+01  0.00000000000E+00 0.  1.
         11    1    3    3    0    0  0.10362349718E+02  0.22532822928E+01 -0.37643481577E+02  0.39108659888E+02  0.51100000000E-03 0. -1.
        -11    1    3    3    0    0  0.37252031584E+01  0.75735532173E+01 -0.14681708750E+01  0.85668764953E+01  0.51100000000E-03 0.  1.
        -12    1    3    3    0    0 -0.14382434081E+02 -0.87147130587E+01  0.38848646748E+02  0.42332233439E+02  0.00000000000E+00 0.  1.
</event>
<event>
 7    1  0.2294706E-015  0.9000776E+02  0.7816164E-02  0.1186339E+00
        -11   -1    0    0    0    0  0.00000000000E+00  0.00000000000E+00  0.45593999997E+02  0.45594000000E+02  0.51100000000E-03 0. -1.
         11   -1    0    0    0    0 -0.00000000000E+00 -0.00000000000E+00 -0.45593999997E+02  0.45594000000E+02  0.51100000000E-03 0.  1.
    9900012    2    1    2    0    0 -0.31375445539E+00 -0.70596071264E+00  0.89226319201E+00  0.90007764435E+02  0.90000026125E+02 0.  0.
        -12    1    1    2    0    0  0.31375445539E+00  0.70596071264E+00 -0.89226319201E+00  0.11802355654E+01  0.00000000000E+00 0.  1.
         11    1    3    3    0    0 -0.35445720041E+02 -0.12038391779E+02  0.49367016190E+01  0.37758349659E+02  0.51100000000E-03 0. -1.
        -11    1    3    3    0    0 -0.10134129266E+01 -0.74375503031E+01  0.67715839127E+01  0.10109327832E+02  0.51100000000E-03 0.  1.
        -12    1    3    3    0    0  0.36145378512E+02  0.18769981369E+02 -0.10816022340E+02  0.42140086944E+02  0.00000000000E+00 0.  1.
</event>
<event>
 7    1  0.2294706E-015  0.9000750E+02  0.7816164E-02  0.1186340E+00
        -11   -1    0    0    0    0  0.00000000000E+00  0.00000000000E+00  0.45593999997E+02  0.45594000000E+02  0.51100000000E-03 0.  1.
         11   -1    0    0    0    0 -0.00000000000E+00 -0.00000000000E+00 -0.45593999997E+02  0.45594000000E+02  0.51100000000E-03 0. -1.
    9900012    2    1    2    0    0  0.23430312677E+00  0.28769465411E+00 -0.11206799769E+01  0.90007495964E+02  0.89999754110E+02 0.  0.
        -12    1    1    2    0    0 -0.23430312677E+00 -0.28769465411E+00  0.11206799769E+01  0.11805040363E+01  0.00000000000E+00 0.  1.
         11    1    3    3    0    0  0.64140714366E+00  0.11557554110E+02  0.17221202578E+02  0.20749898279E+02  0.51100000000E-03 0. -1.
        -11    1    3    3    0    0 -0.28744679385E+02 -0.79906945303E+01  0.75037684752E+01  0.30763847835E+02  0.51100000000E-03 0.  1.
         12    1    3    3    0    0  0.28337575368E+02 -0.32791649252E+01 -0.25845651030E+02  0.38493749850E+02  0.00000000000E+00 0. -1.
</event>
<event>
 7    1  0.2294706E-015  0.9000854E+02  0.7816164E-02  0.1186337E+00
        -11   -1    0    0    0    0  0.00000000000E+00  0.00000000000E+00  0.45593999997E+02  0.45594000000E+02  0.51100000000E-03 0.  1.
         11   -1    0    0    0    0 -0.00000000000E+00 -0.00000000000E+00 -0.45593999997E+02  0.45594000000E+02  0.51100000000E-03 0. -1.
    9900012    2    1    2    0    0  0.39611675964E+00  0.78303001306E+00 -0.78808045541E+00  0.90008544493E+02  0.90000816477E+02 0.  0.
        -12    1    1    2    0    0 -0.39611675964E+00 -0.78303001306E+00  0.78808045541E+00  0.11794555069E+01  0.00000000000E+00 0.  1.
         11    1    3    3    0    0  0.89698035996E+01  0.65164033112E+01 -0.36284983431E+01  0.11665628539E+02  0.51100000000E-03 0. -1.
        -11    1    3    3    0    0  0.30084362237E+02  0.15472699006E+02  0.50003595698E+01  0.34197614856E+02  0.51100000000E-03 0.  1.
         12    1    3    3    0    0 -0.38658049077E+02 -0.21206072304E+02 -0.21599416821E+01  0.44145301098E+02  0.00000000000E+00 0. -1.
</event>
<event>
 7    1  0.2294706E-015  0.9000774E+02  0.7816164E-02  0.1186339E+00
        -11   -1    0    0    0    0  0.00000000000E+00  0.00000000000E+00  0.45593999997E+02  0.45594000000E+02  0.51100000000E-03 0. -1.
         11   -1    0    0    0    0 -0.00000000000E+00 -0.00000000000E+00 -0.45593999997E+02  0.45594000000E+02  0.51100000000E-03 0.  1.
    9900012    2    1    2    0    0 -0.13568219619E+00  0.10451419923E+01  0.53130607322E+00  0.90007738340E+02  0.89999999686E+02 0.  0.
        -12    1    1    2    0    0  0.13568219619E+00 -0.10451419923E+01 -0.53130607322E+00  0.11802616599E+01  0.00000000000E+00 0.  1.
         11    1    3    3    0    0  0.30890119752E+02 -0.51664652800E+01  0.16165662539E+02  0.35245148707E+02  0.51100000000E-03 0. -1.
        -11    1    3    3    0    0  0.90070957263E+01 -0.12024481908E+01 -0.10244183941E+02  0.13693683214E+02  0.51100000000E-03 0.  1.
        -12    1    3    3    0    0 -0.40032897675E+02  0.74140554631E+01 -0.53901725241E+01  0.41068906419E+02  0.00000000000E+00 0.  1.
</event>
<event>
 7    1  0.2294706E-015  0.9000764E+02  0.7816164E-02  0.1186339E+00
        -11   -1    0    0    0    0  0.00000000000E+00  0.00000000000E+00  0.45593999997E+02  0.45594000000E+02  0.51100000000E-03 0.  1.
         11   -1    0    0    0    0 -0.00000000000E+00 -0.00000000000E+00 -0.45593999997E+02  0.45594000000E+02  0.51100000000E-03 0. -1.
    9900012    2    1    2    0    0  0.84776293208E+00 -0.69271068284E-01 -0.81838375004E+00  0.90007638855E+02  0.89999898888E+02 0.  0.
        -12    1    1    2    0    0 -0.84776293208E+00  0.69271068284E-01  0.81838375004E+00  0.11803611448E+01  0.00000000000E+00 0.  1.
         11    1    3    3    0    0 -0.64479107270E+01 -0.10719690065E+01 -0.62615830436E+01  0.90516348118E+01  0.51100000000E-03 0. -1.
        -11    1    3    3    0    0 -0.26432658532E+02 -0.14982407684E+02  0.24515777930E+02  0.39040765168E+02  0.51100000000E-03 0.  1.
         12    1    3    3    0    0  0.33728332191E+02  0.15985105622E+02 -0.19072578637E+02  0.41915238876E+02  0.00000000000E+00 0. -1.
</event>
<event>
 7    1  0.2294706E-015  0.9000781E+02  0.7816164E-02  0.1186339E+00
        -11   -1    0    0    0    0  0.00000000000E+00  0.00000000000E+00  0.45593999997E+02  0.45594000000E+02  0.51100000000E-03 0. -1.
         11   -1    0    0    0    0 -0.00000000000E+00 -0.00000000000E+00 -0.45593999997E+02  0.45594000000E+02  0.51100000000E-03 0.  1.
    9900012    2    1    2    0    0  0.48833820542E+00  0.96128065268E+00  0.47991091632E+00  0.90007809683E+02  0.90000071971E+02 0.  0.
        -12    1    1    2    0    0 -0.48833820542E+00 -0.96128065268E+00 -0.47991091632E+00  0.11801903167E+01  0.00000000000E+00 0.  1.
         11    1    3    3    0    0 -0.17279373099E+01 -0.37885227892E+02 -0.17061740070E+02  0.41585805682E+02  0.51100000000E-03 0. -1.
        -11    1    3    3    0    0 -0.65973050610E+01  0.29107978633E+01  0.67559568205E+01  0.98813020949E+01  0.51100000000E-03 0.  1.
        -12    1    3    3    0    0  0.88135805763E+01  0.35935710682E+02  0.10785694165E+02  0.38540701906E+02  0.00000000000E+00 0.  1.
</event>
<event>
 7    1  0.2294706E-015  0.9000772E+02  0.7816164E-02  0.1186339E+00
        -11   -1    0    0    0    0  0.00000000000E+00  0.00000000000E+00  0.45593999997E+02  0.45594000000E+02  0.51100000000E-03 0.  1.
         11   -1    0    0    0    0 -0.00000000000E+00 -0.00000000000E+00 -0.45593999997E+02  0.45594000000E+02  0.51100000000E-03 0. -1.
    9900012    2    1    2    0    0  0.11639673523E+01 -0.18482404646E+00 -0.63882885911E-01  0.90007719970E+02  0.89999981074E+02 0.  0.
        -12    1    1    2    0    0 -0.11639673523E+01  0.18482404646E+00  0.63882885911E-01  0.11802800297E+01  0.00000000000E+00 0.  1.
         11    1    3    3    0    0 -0.72229055978E+01 -0.27192560082E+02 -0.22493893531E+01  0.28225262476E+02  0.51100000000E-03 0. -1.
        -11    1    3    3    0    0 -0.21536302493E+02  0.16981748102E+01  0.59584688893E+01  0.22409807552E+02  0.51100000000E-03 0.  1.
        -12    1    3    3    0    0  0.29923175443E+02  0.25309561226E+02 -0.37729624221E+01  0.39372649942E+02  0.00000000000E+00 0.  1.
</event>
<event>
 7    1  0.2294706E-015  0.9000766E+02  0.7816164E-02  0.1186339E+00
        -11   -1    0    0    0    0  0.00000000000E+00  0.00000000000E+00  0.45593999997E+02  0.45594000000E+02  0.51100000000E-03 0. -1.
         11   -1    0    0    0    0 -0.00000000000E+00 -0.00000000000E+00 -0.45593999997E+02  0.45594000000E+02  0.51100000000E-03 0.  1.
    9900012    2    1    2    0    0  0.81488732358E+00  0.16675741508E-01  0.85375003408E+00  0.90007657443E+02  0.89999917722E+02 0.  0.
        -12    1    1    2    0    0 -0.81488732358E+00 -0.16675741508E-01 -0.85375003408E+00  0.11803425567E+01  0.00000000000E+00 0.  1.
         11    1    3    3    0    0 -0.10059282419E+02  0.18941626238E+01 -0.55975934778E+00  0.10251358233E+02  0.51100000000E-03 0. -1.
        -11    1    3    3    0    0 -0.58734494298E+01  0.46964684053E+01 -0.36778065786E+02  0.37539050959E+02  0.51100000000E-03 0.  1.
         12    1    3    3    0    0  0.16747619173E+02 -0.65739552876E+01  0.38191575168E+02  0.42217248251E+02  0.00000000000E+00 0. -1.
</event>
<event>
 7    1  0.2294706E-015  0.9000797E+02  0.7816164E-02  0.1186339E+00
        -11   -1    0    0    0    0  0.00000000000E+00  0.00000000000E+00  0.45593999997E+02  0.45594000000E+02  0.51100000000E-03 0.  1.
         11   -1    0    0    0    0 -0.00000000000E+00 -0.00000000000E+00 -0.45593999997E+02  0.45594000000E+02  0.51100000000E-03 0. -1.
    9900012    2    1    2    0    0 -0.45183410745E+00 -0.78288940549E+00 -0.75854721875E+00  0.90007972981E+02  0.90000237424E+02 0.  0.
        -12    1    1    2    0    0  0.45183410745E+00  0.78288940549E+00  0.75854721875E+00  0.11800270187E+01  0.00000000000E+00 0.  1.
         11    1    3    3    0    0 -0.15348158755E+02  0.25236836725E+02 -0.25304150280E+02  0.38894265987E+02  0.51100000000E-03 0. -1.
        -11    1    3    3    0    0  0.60947756779E+01  0.73460081927E+01  0.95071529108E+01  0.13472048236E+02  0.51100000000E-03 0.  1.
        -12    1    3    3    0    0  0.88015489695E+01 -0.33365734323E+02  0.15038450150E+02  0.37641658759E+02  0.00000000000E+00 0.  1.
</event>
<event>
 7    1  0.2294706E-015  0.9000760E+02  0.7816164E-02  0.1186339E+00
        -11   -1    0    0    0    0  0.00000000000E+00  0.00000000000E+00  0.45593999997E+02  0.45594000000E+02  0.51100000000E-03 0. -1.
         11   -1    0    0    0    0 -0.00000000000E+00 -0.00000000000E+00 -0.45593999997E+02  0.45594000000E+02  0.51100000000E-03 0.  1.
    9900012    2    1    2    0    0  0.15556459051E+00  0.26113517374E+00  0.11405879807E+01  0.90007604785E+02  0.89999864369E+02 0.  0.
        -12    1    1    2    0    0 -0.15556459051E+00 -0.26113517374E+00 -0.11405879807E+01  0.11803952145E+01  0.00000000000E+00 0.  1.
         11    1    3    3    0    0 -0.16904834218E+02 -0.87532624827E+01  0.10181141064E+02  0.21588160127E+02  0.51100000000E-03 0. -1.
        -11    1    3    3    0    0  0.27955676450E+02 -0.58103066225E+01  0.19419149828E+02  0.34530897601E+02  0.51100000000E-03 0.  1.
         12    1    3    3    0    0 -0.10895277641E+02  0.14824704279E+02 -0.28459702912E+02  0.33888547058E+02  0.00000000000E+00 0. -1.
</event>
<event>
 7    1  0.2294706E-015  0.9000772E+02  0.7816164E-02  0.1186339E+00
        -11   -1    0    0    0    0  0.00000000000E+00  0.00000000000E+00  0.45593999997E+02  0.45594000000E+02  0.51100000000E-03 0.  1.
         11   -1    0    0    0    0 -0.00000000000E+00 -0.00000000000E+00 -0.45593999997E+02  0.45594000000E+02  0.51100000000E-03 0. -1.
    9900012    2    1    2    0    0  0.27719527222E+00 -0.63774687493E+00 -0.95367375067E+00  0.90007723796E+02  0.89999984950E+02 0.  0.
        -12    1    1    2    0    0 -0.27719527222E+00  0.63774687493E+00  0.95367375067E+00  0.11802762042E+01  0.00000000000E+00 0.  1.
         11    1    3    3    0    0 -0.34276282320E+01 -0.72241655125E+01  0.42871951647E+01  0.90728851690E+01  0.51100000000E-03 0. -1.
        -11    1    3    3    0    0 -0.31077840908E+02  0.74017041808E+01  0.20231806386E+02  0.37814592556E+02  0.51100000000E-03 0.  1.
         12    1    3    3    0    0  0.34782664413E+02 -0.81528554321E+00 -0.25472675301E+02  0.43120246070E+02  0.00000000000E+00 0. -1.
</event>
<event>
 7    1  0.2294706E-015  0.9000768E+02  0.7816164E-02  0.1186339E+00
        -11   -1    0    0    0    0  0.00000000000E+00  0.00000000000E+00  0.45593999997E+02  0.45594000000E+02  0.51100000000E-03 0.  1.
         11   -1    0    0    0    0 -0.00000000000E+00 -0.00000000000E+00 -0.45593999997E+02  0.45594000000E+02  0.51100000000E-03 0. -1.
    9900012    2    1    2    0    0 -0.78794313706E+00 -0.62800802901E+00 -0.61474365739E+00  0.90007678757E+02  0.89999939317E+02 0.  0.
        -12    1    1    2    0    0  0.78794313706E+00  0.62800802901E+00  0.61474365739E+00  0.11803212427E+01  0.00000000000E+00 0.  1.
         11    1    3    3    0    0  0.43479608906E+01  0.19387307000E+01  0.55327875830E+01  0.72989848153E+01  0.51100000000E-03 0. -1.
        -11    1    3    3    0    0 -0.11674940387E+02 -0.24433676465E+02  0.29712633778E+02  0.40201360486E+02  0.51100000000E-03 0.  1.
         12    1    3    3    0    0  0.65390363596E+01  0.21866937736E+02 -0.35860165018E+02  0.42507333456E+02  0.00000000000E+00 0. -1.
</event>
<event>
 7    1  0.2294706E-015  0.9000774E+02  0.7816164E-02  0.1186339E+00
        -11   -1    0    0    0    0  0.00000000000E+00  0.00000000000E+00  0.45593999997E+02  0.45594000000E+02  0.51100000000E-03 0.  1.
         11   -1    0    0    0    0 -0.00000000000E+00 -0.00000000000E+00 -0.45593999997E+02  0.45594000000E+02  0.51100000000E-03 0. -1.
    9900012    2    1    2    0    0 -0.50301413101E+00  0.82149560311E+00 -0.68201308793E+00  0.90007737278E+02  0.89999998610E+02 0.  0.
        -12    1    1    2    0    0  0.50301413101E+00 -0.82149560311E+00  0.68201308793E+00  0.11802627225E+01  0.00000000000E+00 0.  1.
         11    1    3    3    0    0  0.17341198913E+02  0.22465601042E+02 -0.23591374625E+02  0.36904923342E+02  0.51100000000E-03 0. -1.
        -11    1    3    3    0    0  0.79393460822E+01  0.37641369907E+01 -0.21877178494E+01  0.90547254595E+01  0.51100000000E-03 0.  1.
        -12    1    3    3    0    0 -0.25783559126E+02 -0.25408242430E+02  0.25097079387E+02  0.44048088476E+02  0.00000000000E+00 0.  1.
</event>
<event>
 7    1  0.2294706E-015  0.9000777E+02  0.7816164E-02  0.1186339E+00
        -11   -1    0    0    0    0  0.00000000000E+00  0.00000000000E+00  0.45593999997E+02  0.45594000000E+02  0.51100000000E-03 0.  1.
         11   -1    0    0    0    0 -0.00000000000E+00 -0.00000000000E+00 -0.45593999997E+02  0.45594000000E+02  0.51100000000E-03 0. -1.
    9900012    2    1    2    0    0  0.61039070998E+00 -0.64092259146E+00 -0.78076542389E+00  0.90007765602E+02  0.90000027308E+02 0.  0.
        -12    1    1    2    0    0 -0.61039070998E+00  0.64092259146E+00  0.78076542389E+00  0.11802343980E+01  0.00000000000E+00 0.  1.
         11    1    3    3    0    0 -0.23665307604E+02 -0.32316154260E+02 -0.34644191624E+01  0.40204263587E+02  0.51100000000E-03 0. -1.
        -11    1    3    3    0    0  0.34164328951E+01 -0.55789797981E+01  0.27770444906E+01  0.71069688108E+01  0.51100000000E-03 0.  1.
        -12    1    3    3    0    0  0.20859265419E+02  0.37254211467E+02 -0.93390752068E-01  0.42696533204E+02  0.00000000000E+00 0.  1.
</event>
<event>
 7    1  0.2294706E-015  0.9000771E+02  0.7816164E-02  0.1186339E+00
        -11   -1    0    0    0    0  0.00000000000E+00  0.00000000000E+00  0.45593999997E+02  0.45594000000E+02  0.51100000000E-03 0.  1.
         11   -1    0    0    0    0 -0.00000000000E+00 -0.00000000000E+00 -0.45593999997E+02  0.45594000000E+02  0.51100000000E-03 0. -1.
    9900012    2    1    2    0    0  0.79467669639E+00  0.86232013519E+00  0.13407753478E+00  0.90007710267E+02  0.89999971243E+02 0.  0.
        -12    1    1    2    0    0 -0.79467669639E+00 -0.86232013519E+00 -0.13407753478E+00  0.11802897325E+01  0.00000000000E+00 0.  1.
         11    1    3    3    0    0 -0.28467024807E+02  0.24235319842E+02  0.25935885111E+01  0.37475978050E+02  0.51100000000E-03 0. -1.
        -11    1    3    3    0    0  0.63481370427E+01  0.10060970623E+02 -0.14765401743E+01  0.11987582948E+02  0.51100000000E-03 0.  1.
        -12    1    3    3    0    0  0.22913564460E+02 -0.33433970331E+02 -0.98297080202E+00  0.40544149269E+02  0.00000000000E+00 0.  1.
</event>
<event>
 7    1  0.2294706E-015  0.9000773E+02  0.7816164E-02  0.1186339E+00
        -11   -1    0    0    0    0  0.00000000000E+00  0.00000000000E+00  0.45593999997E+02  0.45594000000E+02  0.51100000000E-03 0. -1.
         11   -1    0    0    0    0 -0.00000000000E+00 -0.00000000000E+00 -0.45593999997E+02  0.45594000000E+02  0.51100000000E-03 0.  1.
    9900012    2    1    2    0    0 -0.89764868378E+00  0.74044190670E+00 -0.19752965115E+00  0.90007726583E+02  0.89999987774E+02 0.  0.
        -12    1    1    2    0    0  0.89764868378E+00 -0.74044190670E+00  0.19752965115E+00  0.11802734174E+01  0.00000000000E+00 0.  1.
         11    1    3    3    0    0  0.23378211473E+02  0.11279198691E+02  0.32562874888E+02  0.41642549345E+02  0.51100000000E-03 0. -1.
        -11    1    3    3    0    0 -0.45495021771E+01  0.71509611274E+01 -0.43864898330E+01  0.95433489101E+01  0.51100000000E-03 0.  1.
        -12    1    3    3    0    0 -0.19726357979E+02 -0.17689717912E+02 -0.28373914706E+02  0.38821828327E+02  0.00000000000E+00 0.  1.
</event>
<event>
 7    1  0.2294706E-015  0.9000774E+02  0.7816164E-02  0.1186339E+00
        -11   -1    0    0    0    0  0.00000000000E+00  0.00000000000E+00  0.45593999997E+02  0.45594000000E+02  0.51100000000E-03 0. -1.
         11   -1    0    0    0    0 -0.00000000000E+00 -0.00000000000E+00 -0.45593999997E+02  0.45594000000E+02  0.51100000000E-03 0.  1.
    9900012    2    1    2    0    0 -0.87157328069E+00 -0.78070872036E+00  0.15447053290E+00  0.90007742725E+02  0.90000004129E+02 0.  0.
        -12    1    1    2    0    0  0.87157328069E+00  0.78070872036E+00 -0.15447053290E+00  0.11802572750E+01  0.00000000000E+00 0.  1.
         11    1    3    3    0    0 -0.61925375042E+01 -0.10173597324E+01  0.21728482943E+01  0.66410700597E+01  0.51100000000E-03 0. -1.
        -11    1    3    3    0    0 -0.23323199115E+02  0.29758043763E+02  0.12382213969E+02  0.39784821334E+02  0.51100000000E-03 0.  1.
         12    1    3    3    0    0  0.28644163338E+02 -0.29521392751E+02 -0.14400591731E+02  0.43581851331E+02  0.00000000000E+00 0. -1.
</event>
<event>
 7    1  0.2294706E-015  0.9000773E+02  0.7816164E-02  0.1186339E+00
        -11   -1    0    0    0    0  0.00000000000E+00  0.00000000000E+00  0.45593999997E+02  0.45594000000E+02  0.51100000000E-03 0.  1.
         11   -1    0    0    0    0 -0.00000000000E+00 -0.00000000000E+00 -0.45593999997E+02  0.45594000000E+02  0.51100000000E-03 0. -1.
    9900012    2    1    2    0    0 -0.45491773612E+00  0.26529122489E+00 -0.10562731627E+01  0.90007727754E+02  0.89999988960E+02 0.  0.
        -12    1    1    2    0    0  0.45491773612E+00 -0.26529122489E+00  0.10562731627E+01  0.11802722460E+01  0.00000000000E+00 0.  1.
         11    1    3    3    0    0 -0.96517253515E+01 -0.20719548800E+02 -0.30409322894E+02  0.38041850952E+02  0.51100000000E-03 0. -1.
        -11    1    3    3    0    0 -0.16745582778E+01 -0.92379933844E+01  0.16125454890E+01  0.95260154530E+01  0.51100000000E-03 0.  1.
        -12    1    3    3    0    0  0.10871365893E+02  0.30222833409E+02  0.27740504243E+02  0.42439861349E+02  0.00000000000E+00 0.  1.
</event>
<event>
 7    1  0.2294706E-015  0.9000770E+02  0.7816164E-02  0.1186339E+00
        -11   -1    0    0    0    0  0.00000000000E+00  0.00000000000E+00  0.45593999997E+02  0.45594000000E+02  0.51100000000E-03 0. -1.
         11   -1    0    0    0    0 -0.00000000000E+00 -0.00000000000E+00 -0.45593999997E+02  0.45594000000E+02  0.51100000000E-03 0.  1.
    9900012    2    1    2    0    0 -0.93685211164E-01  0.10556778637E+01  0.51949345486E+00  0.90007700834E+02  0.89999961685E+02 0.  0.
        -12    1    1    2    0    0  0.93685211164E-01 -0.10556778637E+01 -0.51949345486E+00  0.11802991657E+01  0.00000000000E+00 0.  1.
         11    1    3    3    0    0 -0.30554973525E+02 -0.12336335969E+02  0.29380828823E+02  0.44147759794E+02  0.51100000000E-03 0. -1.
        -11    1    3    3    0    0  0.45093807757E+01  0.72878556997E+01 -0.42054175301E+01  0.95463549350E+01  0.51100000000E-03 0.  1.
        -12    1    3    3    0    0  0.25951907538E+02  0.61041581326E+01 -0.24655917838E+02  0.36313586105E+02  0.00000000000E+00 0.  1.
</event>
<event>
 7    1  0.2294706E-015  0.9000776E+02  0.7816164E-02  0.1186339E+00
        -11   -1    0    0    0    0  0.00000000000E+00  0.00000000000E+00  0.45593999997E+02  0.45594000000E+02  0.51100000000E-03 0.  1.
         11   -1    0    0    0    0 -0.00000000000E+00 -0.00000000000E+00 -0.45593999997E+02  0.45594000000E+02  0.51100000000E-03 0. -1.
    9900012    2    1    2    0    0 -0.10552713789E+00 -0.83162605119E+00 -0.83079656873E+00  0.90007762395E+02  0.90000024059E+02 0.  0.
        -12    1    1    2    0    0  0.10552713789E+00  0.83162605119E+00  0.83079656873E+00  0.11802376051E+01  0.00000000000E+00 0.  1.
         11    1    3    3    0    0  0.19607434637E+02 -0.34082241808E+02  0.16659326220E+02  0.42703440729E+02  0.51100000000E-03 0. -1.
        -11    1    3    3    0    0 -0.46997479500E+00 -0.20810030726E+01 -0.45785926988E+01  0.50512336571E+01  0.51100000000E-03 0.  1.
        -12    1    3    3    0    0 -0.19242986980E+02  0.35331618830E+02 -0.12911530090E+02  0.42253088009E+02  0.00000000000E+00 0.  1.
</event>
<event>
 7    1  0.2294706E-015  0.9000777E+02  0.7816164E-02  0.1186339E+00
        -11   -1    0    0    0    0  0.00000000000E+00  0.00000000000E+00  0.45593999997E+02  0.45594000000E+02  0.51100000000E-03 0.  1.
         11   -1    0    0    0    0 -0.00000000000E+00 -0.00000000000E+00 -0.45593999997E+02  0.45594000000E+02  0.51100000000E-03 0. -1.
    9900012    2    1    2    0    0  0.20203867687E+00 -0.38395444315E+00 -0.10975872896E+01  0.90007771844E+02  0.90000033633E+02 0.  0.
        -12    1    1    2    0    0 -0.20203867687E+00  0.38395444315E+00  0.10975872896E+01  0.11802281557E+01  0.00000000000E+00 0.  1.
         11    1    3    3    0    0 -0.86313054555E+01 -0.21045722293E+02  0.28978904396E+02  0.36840178623E+02  0.51100000000E-03 0. -1.
        -11    1    3    3    0    0  0.43746555272E+01  0.17106108335E+01  0.86385776300E+01  0.98330475508E+01  0.51100000000E-03 0.  1.
        -12    1    3    3    0    0  0.44586886052E+01  0.18951157016E+02 -0.38715069316E+02  0.43334545671E+02  0.00000000000E+00 0.  1.
</event>
<event>
 7    1  0.2294706E-015  0.9000775E+02  0.7816164E-02  0.1186339E+00
        -11   -1    0    0    0    0  0.00000000000E+00  0.00000000000E+00  0.45593999997E+02  0.45594000000E+02  0.51100000000E-03 0. -1.
         11   -1    0    0    0    0 -0.00000000000E+00 -0.00000000000E+00 -0.45593999997E+02  0.45594000000E+02  0.51100000000E-03 0.  1.
    9900012    2    1    2    0    0 -0.45609232300E+00 -0.10630833318E+01 -0.23414305917E+00  0.90007750302E+02  0.90000011806E+02 0.  0.
        -12    1    1    2    0    0  0.45609232300E+00  0.10630833318E+01  0.23414305917E+00  0.11802496980E+01  0.00000000000E+00 0.  1.
         11    1    3    3    0    0  0.22617406872E+02  0.18284315541E-01  0.25969517032E+02  0.34437817049E+02  0.51100000000E-03 0. -1.
        -11    1    3    3    0    0  0.58107877981E+00 -0.33866338611E+01  0.10943596758E+02  0.11470364062E+02  0.51100000000E-03 0.  1.
        -12    1    3    3    0    0 -0.23654577975E+02  0.23052662137E+01 -0.37147256849E+02  0.44099569192E+02  0.00000000000E+00 0.  1.
</event>
<event>
 7    1  0.2294706E-015  0.9000770E+02  0.7816164E-02  0.1186339E+00
        -11   -1    0    0    0    0  0.00000000000E+00  0.00000000000E+00  0.45593999997E+02  0.45594000000E+02  0.51100000000E-03 0.  1.
         11   -1    0    0    0    0 -0.00000000000E+00 -0.00000000000E+00 -0.45593999997E+02  0.45594000000E+02  0.51100000000E-03 0. -1.
    9900012    2    1    2    0    0  0.97039865973E-01  0.11747888274E+01 -0.59701371017E-01  0.90007699285E+02  0.89999960115E+02 0.  0.
        -12    1    1    2    0    0 -0.97039865973E-01 -0.11747888274E+01  0.59701371017E-01  0.11803007152E+01  0.00000000000E+00 0.  1.
         11    1    3    3    0    0 -0.88490335724E+01 -0.77645675567E+00 -0.29361577702E+01  0.93557096456E+01  0.51100000000E-03 0. -1.
        -11    1    3    3    0    0 -0.77840796097E+01 -0.30013603479E+02  0.23671564226E+02  0.39009630123E+02  0.51100000000E-03 0.  1.
         12    1    3    3    0    0  0.16730153048E+02  0.31964849062E+02 -0.20795107827E+02  0.41642359516E+02  0.00000000000E+00 0. -1.
</event>
<event>
 7    1  0.2294706E-015  0.9000783E+02  0.7816164E-02  0.1186339E+00
        -11   -1    0    0    0    0  0.00000000000E+00  0.00000000000E+00  0.45593999997E+02  0.45594000000E+02  0.51100000000E-03 0.  1.
         11   -1    0    0    0    0 -0.00000000000E+00 -0.00000000000E+00 -0.45593999997E+02  0.45594000000E+02  0.51100000000E-03 0. -1.
    9900012    2    1    2    0    0 -0.11421492508E+01  0.17536448922E+00 -0.23986107552E+00  0.90007834355E+02  0.90000096968E+02 0.  0.
        -12    1    1    2    0    0  0.11421492508E+01 -0.17536448922E+00  0.23986107552E+00  0.11801656455E+01  0.00000000000E+00 0.  1.
         11    1    3    3    0    0  0.32426189819E+02 -0.10452739221E+02  0.83460677387E+01  0.35076692979E+02  0.51100000000E-03 0. -1.
        -11    1    3    3    0    0  0.55799703019E+01 -0.21963364384E+01  0.84421876129E+01  0.10355215800E+02  0.51100000000E-03 0.  1.
        -12    1    3    3    0    0 -0.39148309372E+02  0.12824440149E+02 -0.17028116427E+02  0.44575925575E+02  0.00000000000E+00 0.  1.
</event>
<event>
 7    1  0.2294706E-015  0.9000772E+02  0.7816164E-02  0.1186339E+00
        -11   -1    0    0    0    0  0.00000000000E+00  0.00000000000E+00  0.45593999997E+02  0.45594000000E+02  0.51100000000E-03 0.  1.
         11   -1    0    0    0    0 -0.00000000000E+00 -0.00000000000E+00 -0.45593999997E+02  0.45594000000E+02  0.51100000000E-03 0. -1.
    9900012    2    1    2    0    0  0.68234598671E+00  0.37031784449E+00 -0.88900016472E+00  0.90007723488E+02  0.89999984638E+02 0.  0.
        -12    1    1    2    0    0 -0.68234598671E+00 -0.37031784449E+00  0.88900016472E+00  0.11802765118E+01  0.00000000000E+00 0.  1.
         11    1    3    3    0    0  0.25419445650E+02 -0.79747116031E+01 -0.26729842038E+02  0.37738954648E+02  0.51100000000E-03 0. -1.
        -11    1    3    3    0    0  0.91081915766E+01 -0.26766555865E+01  0.29184424143E+01  0.99318148045E+01  0.51100000000E-03 0.  1.
        -12    1    3    3    0    0 -0.33845291239E+02  0.11021685034E+02  0.22922399459E+02  0.42336954036E+02  0.00000000000E+00 0.  1.
</event>
<event>
 7    1  0.2294706E-015  0.9000780E+02  0.7816164E-02  0.1186339E+00
        -11   -1    0    0    0    0  0.00000000000E+00  0.00000000000E+00  0.45593999997E+02  0.45594000000E+02  0.51100000000E-03 0.  1.
         11   -1    0    0    0    0 -0.00000000000E+00 -0.00000000000E+00 -0.45593999997E+02  0.45594000000E+02  0.51100000000E-03 0. -1.
    9900012    2    1    2    0    0  0.10824378891E+00  0.96655693911E+00 -0.66851580275E+00  0.90007804079E+02  0.90000066292E+02 0.  0.
        -12    1    1    2    0    0 -0.10824378891E+00 -0.96655693911E+00  0.66851580275E+00  0.11801959214E+01  0.00000000000E+00 0.  1.
         11    1    3    3    0    0 -0.62367982855E+01  0.37666048706E+00  0.97547304932E+01  0.11584226052E+02  0.51100000000E-03 0. -1.
        -11    1    3    3    0    0  0.29328290328E+02 -0.30488141758E+01  0.23210035181E+02  0.37525319650E+02  0.51100000000E-03 0.  1.
         12    1    3    3    0    0 -0.22983248253E+02  0.36387106279E+01 -0.33633281477E+02  0.40898258377E+02  0.00000000000E+00 0. -1.
</event>
<event>
 7    1  0.2294706E-015  0.9000834E+02  0.7816164E-02  0.1186338E+00
        -11   -1    0    0    0    0  0.00000000000E+00  0.00000000000E+00  0.45593999997E+02  0.45594000000E+02  0.51100000000E-03 0.  1.
         11   -1    0    0    0    0 -0.00000000000E+00 -0.00000000000E+00 -0.45593999997E+02  0.45594000000E+02  0.51100000000E-03 0. -1.
    9900012    2    1    2    0    0  0.27407925793E-01  0.99867590864E+00 -0.62728789491E+00  0.90008341207E+02  0.90000610509E+02 0.  0.
        -12    1    1    2    0    0 -0.27407925793E-01 -0.99867590864E+00  0.62728789491E+00  0.11796587930E+01  0.00000000000E+00 0.  1.
         11    1    3    3    0    0  0.31284212070E+02 -0.15333500824E+02  0.77835191238E-01  0.34839980353E+02  0.51100000000E-03 0. -1.
        -11    1    3    3    0    0  0.58567267356E+01  0.33326114943E+01 -0.12425078460E+02  0.14134713384E+02  0.51100000000E-03 0.  1.
        -12    1    3    3    0    0 -0.37113530880E+02  0.12999565239E+02  0.11719955374E+02  0.41033647471E+02  0.00000000000E+00 0.  1.
</event>
<event>
 7    1  0.2294706E-015  0.9000777E+02  0.7816164E-02  0.1186339E+00
        -11   -1    0    0    0    0  0.00000000000E+00  0.00000000000E+00  0.45593999997E+02  0.45594000000E+02  0.51100000000E-03 0.  1.
         11   -1    0    0    0    0 -0.00000000000E+00 -0.00000000000E+00 -0.45593999997E+02  0.45594000000E+02  0.51100000000E-03 0. -1.
    9900012    2    1    2    0    0  0.85237424725E+00  0.50235820028E+00 -0.64345562864E+00  0.90007770885E+02  0.90000032660E+02 0.  0.
        -12    1    1    2    0    0 -0.85237424725E+00 -0.50235820028E+00  0.64345562864E+00  0.11802291154E+01  0.00000000000E+00 0.  1.
         11    1    3    3    0    0 -0.10073355588E+02  0.60892817681E+01  0.55648067028E+01  0.13019943131E+02  0.51100000000E-03 0. -1.
        -11    1    3    3    0    0 -0.15984323832E+02 -0.22150192809E+02  0.21655758822E+02  0.34858306618E+02  0.51100000000E-03 0.  1.
         12    1    3    3    0    0  0.26910053667E+02  0.16563269241E+02 -0.27864021153E+02  0.42129521136E+02  0.00000000000E+00 0. -1.
</event>
<event>
 7    1  0.2294706E-015  0.9000779E+02  0.7816164E-02  0.1186339E+00
        -11   -1    0    0    0    0  0.00000000000E+00  0.00000000000E+00  0.45593999997E+02  0.45594000000E+02  0.51100000000E-03 0.  1.
         11   -1    0    0    0    0 -0.00000000000E+00 -0.00000000000E+00 -0.45593999997E+02  0.45594000000E+02  0.51100000000E-03 0. -1.
    9900012    2    1    2    0    0 -0.75569184896E+00 -0.89927105998E+00 -0.11456870594E+00  0.90007794680E+02  0.90000056769E+02 0.  0.
        -12    1    1    2    0    0  0.75569184896E+00  0.89927105998E+00  0.11456870594E+00  0.11802053204E+01  0.00000000000E+00 0.  1.
         11    1    3    3    0    0  0.12818237991E+02 -0.16695185125E+02 -0.32793368113E+02  0.38967183937E+02  0.51100000000E-03 0. -1.
        -11    1    3    3    0    0 -0.22384385779E+01  0.41893813753E+01 -0.68364479220E+01  0.83245747054E+01  0.51100000000E-03 0.  1.
        -12    1    3    3    0    0 -0.11335491262E+02  0.11606532690E+02  0.39515247329E+02  0.42716036037E+02  0.00000000000E+00 0.  1.
</event>
<event>
 7    1  0.2294706E-015  0.9000768E+02  0.7816164E-02  0.1186339E+00
        -11   -1    0    0    0    0  0.00000000000E+00  0.00000000000E+00  0.45593999997E+02  0.45594000000E+02  0.51100000000E-03 0. -1.
         11   -1    0    0    0    0 -0.00000000000E+00 -0.00000000000E+00 -0.45593999997E+02  0.45594000000E+02  0.51100000000E-03 0.  1.
    9900012    2    1    2    0    0 -0.83792463759E+00  0.78517325666E+00  0.27303147687E+00  0.90007677617E+02  0.89999938161E+02 0.  0.
        -12    1    1    2    0    0  0.83792463759E+00 -0.78517325666E+00 -0.27303147687E+00  0.11803223833E+01  0.00000000000E+00 0.  1.
         11    1    3    3    0    0 -0.13566877614E+01  0.86651080980E+01  0.47991112869E+01  0.99978082316E+01  0.51100000000E-03 0. -1.
        -11    1    3    3    0    0 -0.26275631973E+02  0.19727812282E+02  0.15843696543E+02  0.36477638814E+02  0.51100000000E-03 0.  1.
         12    1    3    3    0    0  0.26794395097E+02 -0.27607747123E+02 -0.20369776353E+02  0.43532230571E+02  0.00000000000E+00 0. -1.
</event>
<event>
 7    1  0.2294706E-015  0.9000773E+02  0.7816164E-02  0.1186339E+00
        -11   -1    0    0    0    0  0.00000000000E+00  0.00000000000E+00  0.45593999997E+02  0.45594000000E+02  0.51100000000E-03 0. -1.
         11   -1    0    0    0    0 -0.00000000000E+00 -0.00000000000E+00 -0.45593999997E+02  0.45594000000E+02  0.51100000000E-03 0.  1.
    9900012    2    1    2    0    0  0.23949604693E+00  0.44118653136E+00  0.10681934791E+01  0.90007728328E+02  0.89999989542E+02 0.  0.
        -12    1    1    2    0    0 -0.23949604693E+00 -0.44118653136E+00 -0.10681934791E+01  0.11802716724E+01  0.00000000000E+00 0.  1.
         11    1    3    3    0    0 -0.17719719858E+01  0.36763068113E+02  0.10471268730E+01  0.36820640092E+02  0.51100000000E-03 0. -1.
        -11    1    3    3    0    0 -0.63018067711E+01  0.67667709735E+01  0.93837522821E+00  0.92942189730E+01  0.51100000000E-03 0.  1.
        -12    1    3    3    0    0  0.83132748038E+01 -0.43088652555E+02 -0.91730862214E+00  0.43892869263E+02  0.00000000000E+00 0.  1.
</event>
<event>
 7    1  0.2294706E-015  0.9000775E+02  0.7816164E-02  0.1186339E+00
        -11   -1    0    0    0    0  0.00000000000E+00  0.00000000000E+00  0.45593999997E+02  0.45594000000E+02  0.51100000000E-03 0.  1.
         11   -1    0    0    0    0 -0.00000000000E+00 -0.00000000000E+00 -0.45593999997E+02  0.45594000000E+02  0.51100000000E-03 0. -1.
    9900012    2    1    2    0    0  0.40476543281E+00 -0.11036203846E+01 -0.10570288730E+00  0.90007751675E+02  0.90000013197E+02 0.  0.
        -12    1    1    2    0    0 -0.40476543281E+00  0.11036203846E+01  0.10570288730E+00  0.11802483252E+01  0.00000000000E+00 0.  1.
         11    1    3    3    0    0 -0.26648600628E+02 -0.15307100580E+02 -0.19791548724E+02  0.36553531221E+02  0.51100000000E-03 0. -1.
        -11    1    3    3    0    0 -0.76259111564E+01 -0.58225286959E+01  0.48260158776E+01  0.10739962332E+02  0.51100000000E-03 0.  1.
        -12    1    3    3    0    0  0.34679277218E+02  0.20026008892E+02  0.14859829959E+02  0.42714258121E+02  0.00000000000E+00 0.  1.
</event>
<event>
 7    1  0.2294706E-015  0.9000774E+02  0.7816164E-02  0.1186339E+00
        -11   -1    0    0    0    0  0.00000000000E+00  0.00000000000E+00  0.45593999997E+02  0.45594000000E+02  0.51100000000E-03 0. -1.
         11   -1    0    0    0    0 -0.00000000000E+00 -0.00000000000E+00 -0.45593999997E+02  0.45594000000E+02  0.51100000000E-03 0.  1.
    9900012    2    1    2    0    0 -0.90651531707E+00 -0.31163128207E+00  0.68856455405E+00  0.90007743578E+02  0.90000004993E+02 0.  0.
        -12    1    1    2    0    0  0.90651531707E+00  0.31163128207E+00 -0.68856455405E+00  0.11802564218E+01  0.00000000000E+00 0.  1.
         11    1    3    3    0    0  0.34800430853E+01 -0.33834897900E+02  0.15169648466E+02  0.37242841602E+02  0.51100000000E-03 0. -1.
        -11    1    3    3    0    0 -0.59863270648E+01 -0.31035798817E+01  0.74466409397E+01  0.10045933573E+02  0.51100000000E-03 0.  1.
        -12    1    3    3    0    0  0.15997686624E+01  0.36626846499E+02 -0.21927724851E+02  0.42718968403E+02  0.00000000000E+00 0.  1.
</event>
<event>
 7    1  0.2294706E-015  0.9000772E+02  0.7816164E-02  0.1186339E+00
        -11   -1    0    0    0    0  0.00000000000E+00  0.00000000000E+00  0.45593999997E+02  0.45594000000E+02  0.51100000000E-03 0. -1.
         11   -1    0    0    0    0 -0.00000000000E+00 -0.00000000000E+00 -0.45593999997E+02  0.45594000000E+02  0.51100000000E-03 0.  1.
    9900012    2    1    2    0    0  0.59167945496E+00  0.77807686987E-01  0.10182931301E+01  0.90007720579E+02  0.89999981690E+02 0.  0.
        -12    1    1    2    0    0 -0.59167945496E+00 -0.77807686987E-01 -0.10182931301E+01  0.11802794213E+01  0.00000000000E+00 0.  1.
         11    1    3    3    0    0  0.11596887812E+02 -0.98306383669E+01  0.56211251058E+01  0.16208834176E+02  0.51100000000E-03 0. -1.
        -11    1    3    3    0    0 -0.35544687804E+02 -0.11122418922E+02 -0.14548192563E+02  0.39984783866E+02  0.51100000000E-03 0.  1.
         12    1    3    3    0    0  0.24539479447E+02  0.21030864976E+02  0.99453605870E+01  0.33814102537E+02  0.00000000000E+00 0. -1.
</event>
<event>
 7    1  0.2294706E-015  0.9000760E+02  0.7816164E-02  0.1186339E+00
        -11   -1    0    0    0    0  0.00000000000E+00  0.00000000000E+00  0.45593999997E+02  0.45594000000E+02  0.51100000000E-03 0.  1.
         11   -1    0    0    0    0 -0.00000000000E+00 -0.00000000000E+00 -0.45593999997E+02  0.45594000000E+02  0.51100000000E-03 0. -1.
    9900012    2    1    2    0    0 -0.36786796154E+00 -0.36681379856E+00 -0.10599323867E+01  0.90007603514E+02  0.89999863080E+02 0.  0.
        -12    1    1    2    0    0  0.36786796154E+00  0.36681379856E+00  0.10599323867E+01  0.11803964861E+01  0.00000000000E+00 0.  1.
         11    1    3    3    0    0 -0.15684980994E+02 -0.38660767166E+02 -0.90810705865E+01  0.42698236379E+02  0.51100000000E-03 0. -1.
        -11    1    3    3    0    0 -0.43314427379E+01  0.39558835831E+01  0.48659406201E+01  0.76215345892E+01  0.51100000000E-03 0.  1.
        -12    1    3    3    0    0  0.19648555771E+02  0.34338069784E+02  0.31551975797E+01  0.39687832545E+02  0.00000000000E+00 0.  1.
</event>
<event>
 7    1  0.2294706E-015  0.9000778E+02  0.7816164E-02  0.1186339E+00
        -11   -1    0    0    0    0  0.00000000000E+00  0.00000000000E+00  0.45593999997E+02  0.45594000000E+02  0.51100000000E-03 0.  1.
         11   -1    0    0    0    0 -0.00000000000E+00 -0.00000000000E+00 -0.45593999997E+02  0.45594000000E+02  0.51100000000E-03 0. -1.
    9900012    2    1    2    0    0  0.72878125010E+00  0.20315726799E+00  0.90582768728E+00  0.90007780196E+02  0.90000042095E+02 0.  0.
        -12    1    1    2    0    0 -0.72878125010E+00 -0.20315726799E+00 -0.90582768728E+00  0.11802198037E+01  0.00000000000E+00 0.  1.
         11    1    3    3    0    0 -0.80179384895E+01  0.95454233242E-01 -0.44850796602E+01  0.91876215068E+01  0.51100000000E-03 0. -1.
        -11    1    3    3    0    0 -0.26112612665E+02  0.18531838112E+02  0.21132670219E+02  0.38365183629E+02  0.51100000000E-03 0.  1.
         12    1    3    3    0    0  0.34859332405E+02 -0.18424135077E+02 -0.15741762872E+02  0.42454975060E+02  0.00000000000E+00 0. -1.
</event>
<event>
 7    1  0.2294706E-015  0.9000768E+02  0.7816164E-02  0.1186339E+00
        -11   -1    0    0    0    0  0.00000000000E+00  0.00000000000E+00  0.45593999997E+02  0.45594000000E+02  0.51100000000E-03 0.  1.
         11   -1    0    0    0    0 -0.00000000000E+00 -0.00000000000E+00 -0.45593999997E+02  0.45594000000E+02  0.51100000000E-03 0. -1.
    9900012    2    1    2    0    0 -0.89929284812E+00  0.56518090085E+00 -0.51479080404E+00  0.90007675193E+02  0.89999935706E+02 0.  0.
        -12    1    1    2    0    0  0.89929284812E+00 -0.56518090085E+00  0.51479080404E+00  0.11803248067E+01  0.00000000000E+00 0.  1.
         11    1    3    3    0    0  0.51318494486E+01  0.18620825273E+01 -0.85328715225E+01  0.10129813758E+02  0.51100000000E-03 0. -1.
        -11    1    3    3    0    0 -0.31605167522E+02 -0.24941452136E+02 -0.87826433421E+01  0.41207978270E+02  0.51100000000E-03 0.  1.
         12    1    3    3    0    0  0.25574025225E+02  0.23644550510E+02  0.16800724061E+02  0.38669883165E+02  0.00000000000E+00 0. -1.
</event>
<event>
 7    1  0.2294706E-015  0.9000775E+02  0.7816164E-02  0.1186339E+00
        -11   -1    0    0    0    0  0.00000000000E+00  0.00000000000E+00  0.45593999997E+02  0.45594000000E+02  0.51100000000E-03 0. -1.
         11   -1    0    0    0    0 -0.00000000000E+00 -0.00000000000E+00 -0.45593999997E+02  0.45594000000E+02  0.51100000000E-03 0.  1.
    9900012    2    1    2    0    0 -0.11386631728E+01  0.22577492221E+00 -0.21319486640E+00  0.90007754183E+02  0.90000015739E+02 0.  0.
        -12    1    1    2    0    0  0.11386631728E+01 -0.22577492221E+00  0.21319486640E+00  0.11802458166E+01  0.00000000000E+00 0.  1.
         11    1    3    3    0    0  0.32099241302E+02 -0.70772640334E+01 -0.12748278494E+02  0.35255745109E+02  0.51100000000E-03 0. -1.
        -11    1    3    3    0    0  0.62500251309E+01  0.42840361878E+01 -0.72452941978E+01  0.10483800288E+02  0.51100000000E-03 0.  1.
        -12    1    3    3    0    0 -0.39487929606E+02  0.30190027677E+01  0.19780377826E+02  0.44268208787E+02  0.00000000000E+00 0.  1.
</event>
<event>
 7    1  0.2294706E-015  0.9000761E+02  0.7816164E-02  0.1186339E+00
        -11   -1    0    0    0    0  0.00000000000E+00  0.00000000000E+00  0.45593999997E+02  0.45594000000E+02  0.51100000000E-03 0. -1.
         11   -1    0    0    0    0 -0.00000000000E+00 -0.00000000000E+00 -0.45593999997E+02  0.45594000000E+02  0.51100000000E-03 0.  1.
    9900012    2    1    2    0    0 -0.55173559232E+00  0.26022207195E+00  0.10105362908E+01  0.90007613925E+02  0.89999873629E+02 0.  0.
        -12    1    1    2    0    0  0.55173559232E+00 -0.26022207195E+00 -0.10105362908E+01  0.11803860748E+01  0.00000000000E+00 0.  1.
         11    1    3    3    0    0 -0.70254306352E+01 -0.46691954731E+01  0.64240400845E+01  0.10603129408E+02  0.51100000000E-03 0. -1.
        -11    1    3    3    0    0  0.81831894958E+01 -0.35110076030E+02 -0.13545383825E+02  0.38511809258E+02  0.51100000000E-03 0.  1.
         12    1    3    3    0    0 -0.17094944529E+01  0.40039493575E+02  0.81318800309E+01  0.40892675259E+02  0.00000000000E+00 0. -1.
</event>
<event>
 7    1  0.2294706E-015  0.9000769E+02  0.7816164E-02  0.1186339E+00
        -11   -1    0    0    0    0  0.00000000000E+00  0.00000000000E+00  0.45593999997E+02  0.45594000000E+02  0.51100000000E-03 0.  1.
         11   -1    0    0    0    0 -0.00000000000E+00 -0.00000000000E+00 -0.45593999997E+02  0.45594000000E+02  0.51100000000E-03 0. -1.
    9900012    2    1    2    0    0 -0.81455604754E+00  0.82513373123E+00  0.22086873466E+00  0.90007690622E+02  0.89999951339E+02 0.  0.
        -12    1    1    2    0    0  0.81455604754E+00 -0.82513373123E+00 -0.22086873466E+00  0.11803093776E+01  0.00000000000E+00 0.  1.
         11    1    3    3    0    0  0.34342274575E+01  0.57304758520E+01  0.68460937566E+01  0.95656297077E+01  0.51100000000E-03 0. -1.
        -11    1    3    3    0    0  0.34413841601E+02  0.12534911389E+02 -0.97855163287E+01  0.37910326131E+02  0.51100000000E-03 0.  1.
         12    1    3    3    0    0 -0.38662625106E+02 -0.17440253509E+02  0.31602913068E+01  0.42531734784E+02  0.00000000000E+00 0. -1.
</event>
<event>
 7    1  0.3174781E-015  0.9000765E+02  0.7816164E-02  0.1186339E+00
        -11   -1    0    0    0    0  0.00000000000E+00  0.00000000000E+00  0.45593999997E+02  0.45594000000E+02  0.51100000000E-03 0. -1.
         11   -1    0    0    0    0 -0.00000000000E+00 -0.00000000000E+00 -0.45593999997E+02  0.45594000000E+02  0.51100000000E-03 0.  1.
    9900012    2    1    2    0    0  0.72935499743E+00  0.52413321134E+00  0.76586653216E+00  0.90007650102E+02  0.89999910284E+02 0.  0.
        -12    1    1    2    0    0 -0.72935499743E+00 -0.52413321134E+00 -0.76586653216E+00  0.11803498975E+01  0.00000000000E+00 0.  1.
         11    1    3    3    0    0 -0.39380741490E+01  0.21112391170E+02  0.30177696357E+02  0.37039638856E+02  0.51100000000E-03 0. -1.
        -11    1    3    3    0    0 -0.91966194612E+00 -0.69435506658E+00  0.91481182036E+01  0.92204107274E+01  0.51100000000E-03 0.  1.
        -12    1    3    3    0    0  0.55870910926E+01 -0.19893902892E+02 -0.38559948029E+02  0.43747600519E+02  0.00000000000E+00 0.  1.
</event>
<event>
 7    1  0.2294706E-015  0.9000776E+02  0.7816164E-02  0.1186339E+00
        -11   -1    0    0    0    0  0.00000000000E+00  0.00000000000E+00  0.45593999997E+02  0.45594000000E+02  0.51100000000E-03 0.  1.
         11   -1    0    0    0    0 -0.00000000000E+00 -0.00000000000E+00 -0.45593999997E+02  0.45594000000E+02  0.51100000000E-03 0. -1.
    9900012    2    1    2    0    0 -0.29509069566E+00 -0.11157783138E+01 -0.24683695559E+00  0.90007759242E+02  0.90000020864E+02 0.  0.
        -12    1    1    2    0    0  0.29509069566E+00  0.11157783138E+01  0.24683695559E+00  0.11802407580E+01  0.00000000000E+00 0.  1.
         11    1    3    3    0    0  0.49601518501E+01 -0.21524128043E+02 -0.30515320795E+02  0.37670625132E+02  0.51100000000E-03 0. -1.
        -11    1    3    3    0    0 -0.75572094336E+01 -0.26338795215E+01 -0.55115171164E+01  0.97172813555E+01  0.51100000000E-03 0.  1.
        -12    1    3    3    0    0  0.23019668878E+01  0.23042229251E+02  0.35780000955E+02  0.42619852754E+02  0.00000000000E+00 0.  1.
</event>
<event>
 7    1  0.2294706E-015  0.9000779E+02  0.7816164E-02  0.1186339E+00
        -11   -1    0    0    0    0  0.00000000000E+00  0.00000000000E+00  0.45593999997E+02  0.45594000000E+02  0.51100000000E-03 0.  1.
         11   -1    0    0    0    0 -0.00000000000E+00 -0.00000000000E+00 -0.45593999997E+02  0.45594000000E+02  0.51100000000E-03 0. -1.
    9900012    2    1    2    0    0 -0.50367101577E-01 -0.18172074880E+00 -0.11650497822E+01  0.90007788040E+02  0.90000050042E+02 0.  0.
        -12    1    1    2    0    0  0.50367101577E-01  0.18172074880E+00  0.11650497822E+01  0.11802119599E+01  0.00000000000E+00 0.  1.
         11    1    3    3    0    0  0.79878219993E-01  0.57865752777E+01 -0.97828224405E+01  0.11366373614E+02  0.51100000000E-03 0. -1.
        -11    1    3    3    0    0  0.34621427409E+02 -0.29801439733E+01 -0.13567139216E+02  0.37304044830E+02  0.51100000000E-03 0.  1.
         12    1    3    3    0    0 -0.34751672730E+02 -0.29881520532E+01  0.22184911874E+02  0.41337369596E+02  0.00000000000E+00 0. -1.
</event>
<event>
 7    1  0.2294706E-015  0.9000774E+02  0.7816164E-02  0.1186339E+00
        -11   -1    0    0    0    0  0.00000000000E+00  0.00000000000E+00  0.45593999997E+02  0.45594000000E+02  0.51100000000E-03 0. -1.
         11   -1    0    0    0    0 -0.00000000000E+00 -0.00000000000E+00 -0.45593999997E+02  0.45594000000E+02  0.51100000000E-03 0.  1.
    9900012    2    1    2    0    0  0.16793524718E+00 -0.29976821272E+00  0.11291323683E+01  0.90007744463E+02  0.90000005889E+02 0.  0.
        -12    1    1    2    0    0 -0.16793524718E+00  0.29976821272E+00 -0.11291323683E+01  0.11802555375E+01  0.00000000000E+00 0.  1.
         11    1    3    3    0    0  0.66561722473E+01 -0.34641811810E+01  0.45731716962E+01  0.87874387546E+01  0.51100000000E-03 0. -1.
        -11    1    3    3    0    0  0.77343746053E+01 -0.33317022824E+02  0.15701001051E+02  0.37634638230E+02  0.51100000000E-03 0.  1.
         12    1    3    3    0    0 -0.14222611605E+02  0.36481435793E+02 -0.19145040379E+02  0.43585667478E+02  0.00000000000E+00 0. -1.
</event>
<event>
 7    1  0.2498912E-015  0.9000774E+02  0.7816164E-02  0.1186339E+00
        -11   -1    0    0    0    0  0.00000000000E+00  0.00000000000E+00  0.45593999997E+02  0.45594000000E+02  0.51100000000E-03 0.  1.
         11   -1    0    0    0    0 -0.00000000000E+00 -0.00000000000E+00 -0.45593999997E+02  0.45594000000E+02  0.51100000000E-03 0. -1.
    9900012    2    1    2    0    0  0.75963418507E+00 -0.70418508647E+00 -0.56577604486E+00  0.90007735935E+02  0.89999997249E+02 0.  0.
        -12    1    1    2    0    0 -0.75963418507E+00  0.70418508647E+00  0.56577604486E+00  0.11802640654E+01  0.00000000000E+00 0.  1.
         11    1    3    3    0    0 -0.15973471703E+02 -0.30403875114E+02 -0.98261160105E+01  0.35722541571E+02  0.51100000000E-03 0. -1.
        -11    1    3    3    0    0  0.67003098084E+00 -0.87820473700E+01 -0.51054160566E+01  0.10180303085E+02  0.51100000000E-03 0.  1.
        -12    1    3    3    0    0  0.16063074907E+02  0.38481737398E+02  0.14365756022E+02  0.44104891279E+02  0.00000000000E+00 0.  1.
</event>
<event>
 7    1  0.2294706E-015  0.9000764E+02  0.7816164E-02  0.1186339E+00
        -11   -1    0    0    0    0  0.00000000000E+00  0.00000000000E+00  0.45593999997E+02  0.45594000000E+02  0.51100000000E-03 0. -1.
         11   -1    0    0    0    0 -0.00000000000E+00 -0.00000000000E+00 -0.45593999997E+02  0.45594000000E+02  0.51100000000E-03 0.  1.
    9900012    2    1    2    0    0  0.82023114425E+00 -0.65161613404E+00  0.54393552003E+00  0.90007640493E+02  0.89999900547E+02 0.  0.
        -12    1    1    2    0    0 -0.82023114425E+00  0.65161613404E+00 -0.54393552003E+00  0.11803595071E+01  0.00000000000E+00 0.  1.
         11    1    3    3    0    0 -0.13546701119E+02  0.15399724686E+00  0.71760137548E+01  0.15330753407E+02  0.51100000000E-03 0. -1.
        -11    1    3    3    0    0 -0.29037957427E+02  0.46428776070E+01 -0.93213757696E+01  0.30848781670E+02  0.51100000000E-03 0.  1.
         12    1    3    3    0    0  0.43404889691E+02 -0.54484909879E+01  0.26892975348E+01  0.43828105416E+02  0.00000000000E+00 0. -1.
</event>
<event>
 7    1  0.2294706E-015  0.9000774E+02  0.7816164E-02  0.1186339E+00
        -11   -1    0    0    0    0  0.00000000000E+00  0.00000000000E+00  0.45593999997E+02  0.45594000000E+02  0.51100000000E-03 0. -1.
         11   -1    0    0    0    0 -0.00000000000E+00 -0.00000000000E+00 -0.45593999997E+02  0.45594000000E+02  0.51100000000E-03 0.  1.
    9900012    2    1    2    0    0  0.10111668723E+01 -0.21389555940E+00 -0.56991527708E+00  0.90007740208E+02  0.90000001579E+02 0.  0.
        -12    1    1    2    0    0 -0.10111668723E+01  0.21389555940E+00  0.56991527708E+00  0.11802597922E+01  0.00000000000E+00 0.  1.
         11    1    3    3    0    0 -0.15429814027E+01  0.36465854612E+02  0.11185245904E+02  0.38173931817E+02  0.51100000000E-03 0. -1.
        -11    1    3    3    0    0  0.42537366237E+01  0.60542069639E+01  0.28152264727E+00  0.74045224348E+01  0.51100000000E-03 0.  1.
        -12    1    3    3    0    0 -0.16995883487E+01 -0.42733957135E+02 -0.12036683828E+02  0.44429285956E+02  0.00000000000E+00 0.  1.
</event>
<event>
 7    1  0.2294706E-015  0.9000775E+02  0.7816164E-02  0.1186339E+00
        -11   -1    0    0    0    0  0.00000000000E+00  0.00000000000E+00  0.45593999997E+02  0.45594000000E+02  0.51100000000E-03 0. -1.
         11   -1    0    0    0    0 -0.00000000000E+00 -0.00000000000E+00 -0.45593999997E+02  0.45594000000E+02  0.51100000000E-03 0.  1.
    9900012    2    1    2    0    0  0.44526928281E+00  0.21502807765E-02  0.10930380625E+01  0.90007745128E+02  0.90000006563E+02 0.  0.
        -12    1    1    2    0    0 -0.44526928281E+00 -0.21502807765E-02 -0.10930380625E+01  0.11802548725E+01  0.00000000000E+00 0.  1.
         11    1    3    3    0    0  0.10060646256E+02 -0.93634226370E+01  0.32746227929E+02  0.35513458440E+02  0.51100000000E-03 0. -1.
        -11    1    3    3    0    0  0.79369943147E+00  0.73278235161E+01  0.94841861717E+01  0.12011525460E+02  0.51100000000E-03 0.  1.
        -12    1    3    3    0    0 -0.10409076405E+02  0.20377494017E+01 -0.41137376038E+02  0.42482761227E+02  0.00000000000E+00 0.  1.
</event>
<event>
 7    1  0.2294706E-015  0.9000796E+02  0.7816164E-02  0.1186339E+00
        -11   -1    0    0    0    0  0.00000000000E+00  0.00000000000E+00  0.45593999997E+02  0.45594000000E+02  0.51100000000E-03 0.  1.
         11   -1    0    0    0    0 -0.00000000000E+00 -0.00000000000E+00 -0.45593999997E+02  0.45594000000E+02  0.51100000000E-03 0. -1.
    9900012    2    1    2    0    0 -0.93096327718E+00 -0.67103851409E+00 -0.27477451616E+00  0.90007963413E+02  0.90000227730E+02 0.  0.
        -12    1    1    2    0    0  0.93096327718E+00  0.67103851409E+00  0.27477451616E+00  0.11800365865E+01  0.00000000000E+00 0.  1.
         11    1    3    3    0    0 -0.53685759339E+01 -0.40272298330E+02  0.79423736432E+01  0.41397595579E+02  0.51100000000E-03 0. -1.
        -11    1    3    3    0    0 -0.77993070907E+01  0.58295938663E+01  0.42000035262E+01  0.10604404067E+02  0.51100000000E-03 0.  1.
        -12    1    3    3    0    0  0.12236919747E+02  0.33771665950E+02 -0.12417151686E+02  0.38005963768E+02  0.00000000000E+00 0.  1.
</event>
<event>
 7    1  0.2294706E-015  0.9000771E+02  0.7816164E-02  0.1186339E+00
        -11   -1    0    0    0    0  0.00000000000E+00  0.00000000000E+00  0.45593999997E+02  0.45594000000E+02  0.51100000000E-03 0. -1.
         11   -1    0    0    0    0 -0.00000000000E+00 -0.00000000000E+00 -0.45593999997E+02  0.45594000000E+02  0.51100000000E-03 0.  1.
    9900012    2    1    2    0    0  0.95236545212E+00  0.22756260237E+00  0.65902008923E+00  0.90007706744E+02  0.89999967673E+02 0.  0.
        -12    1    1    2    0    0 -0.95236545212E+00 -0.22756260237E+00 -0.65902008923E+00  0.11802932561E+01  0.00000000000E+00 0.  1.
         11    1    3    3    0    0 -0.57557374372E+01  0.86201434353E+01  0.35536472879E+02  0.37017243161E+02  0.51100000000E-03 0. -1.
        -11    1    3    3    0    0  0.15221945320E+02 -0.11422449414E+02 -0.22842138311E+01  0.19167618606E+02  0.51100000000E-03 0.  1.
        -12    1    3    3    0    0 -0.85138424305E+01  0.30298685815E+01 -0.32593238958E+02  0.33822844977E+02  0.00000000000E+00 0.  1.
</event>
<event>
 7    1  0.2337895E-015  0.9000779E+02  0.7816164E-02  0.1186339E+00
        -11   -1    0    0    0    0  0.00000000000E+00  0.00000000000E+00  0.45593999997E+02  0.45594000000E+02  0.51100000000E-03 0. -1.
         11   -1    0    0    0    0 -0.00000000000E+00 -0.00000000000E+00 -0.45593999997E+02  0.45594000000E+02  0.51100000000E-03 0.  1.
    9900012    2    1    2    0    0  0.26458294877E+00 -0.22534887618E+00  0.11278786940E+01  0.90007789595E+02  0.90000051617E+02 0.  0.
        -12    1    1    2    0    0 -0.26458294877E+00  0.22534887618E+00 -0.11278786940E+01  0.11802104055E+01  0.00000000000E+00 0.  1.
         11    1    3    3    0    0  0.85881683537E+01  0.32552713473E+02  0.24403048404E+02  0.41580579142E+02  0.51100000000E-03 0. -1.
        -11    1    3    3    0    0  0.57861544426E+01 -0.65489178065E+01  0.24458063966E+01  0.90746832926E+01  0.51100000000E-03 0.  1.
        -12    1    3    3    0    0 -0.14109739848E+02 -0.26229144543E+02 -0.25720976106E+02  0.39352527160E+02  0.00000000000E+00 0.  1.
</event>
<event>
 7    1  0.2294706E-015  0.9000811E+02  0.7816164E-02  0.1186338E+00
        -11   -1    0    0    0    0  0.00000000000E+00  0.00000000000E+00  0.45593999997E+02  0.45594000000E+02  0.51100000000E-03 0.  1.
         11   -1    0    0    0    0 -0.00000000000E+00 -0.00000000000E+00 -0.45593999997E+02  0.45594000000E+02  0.51100000000E-03 0. -1.
    9900012    2    1    2    0    0 -0.53643392690E-01  0.30127214415E+00 -0.11395119257E+01  0.90008114435E+02  0.90000380744E+02 0.  0.
        -12    1    1    2    0    0  0.53643392690E-01 -0.30127214415E+00  0.11395119257E+01  0.11798855653E+01  0.00000000000E+00 0.  1.
         11    1    3    3    0    0 -0.29775286991E+02 -0.22784849811E+02 -0.90309723675E+01  0.38565211765E+02  0.51100000000E-03 0. -1.
        -11    1    3    3    0    0 -0.31738492770E+01  0.29391942592E+01 -0.84942144905E+01  0.95322537838E+01  0.51100000000E-03 0.  1.
        -12    1    3    3    0    0  0.32895492875E+02  0.20146927696E+02  0.16385674932E+02  0.41910648886E+02  0.00000000000E+00 0.  1.
</event>
<event>
 7    1  0.2294706E-015  0.9000786E+02  0.7816164E-02  0.1186339E+00
        -11   -1    0    0    0    0  0.00000000000E+00  0.00000000000E+00  0.45593999997E+02  0.45594000000E+02  0.51100000000E-03 0.  1.
         11   -1    0    0    0    0 -0.00000000000E+00 -0.00000000000E+00 -0.45593999997E+02  0.45594000000E+02  0.51100000000E-03 0. -1.
    9900012    2    1    2    0    0 -0.91232932912E+00 -0.38243350472E+00 -0.64353238734E+00  0.90007858431E+02  0.90000121362E+02 0.  0.
        -12    1    1    2    0    0  0.91232932912E+00  0.38243350472E+00  0.64353238734E+00  0.11801415694E+01  0.00000000000E+00 0.  1.
         11    1    3    3    0    0 -0.38394266980E+02 -0.41990580442E+00 -0.12535207497E+02  0.40390933204E+02  0.51100000000E-03 0. -1.
        -11    1    3    3    0    0  0.42421297801E+01 -0.27805009748E+01 -0.89465045204E+01  0.10284298427E+02  0.51100000000E-03 0.  1.
        -12    1    3    3    0    0  0.33239807871E+02  0.28179732744E+01  0.20838179630E+02  0.39332626800E+02  0.00000000000E+00 0.  1.
</event>
<event>
 7    1  0.2294706E-015  0.9000755E+02  0.7816164E-02  0.1186339E+00
        -11   -1    0    0    0    0  0.00000000000E+00  0.00000000000E+00  0.45593999997E+02  0.45594000000E+02  0.51100000000E-03 0. -1.
         11   -1    0    0    0    0 -0.00000000000E+00 -0.00000000000E+00 -0.45593999997E+02  0.45594000000E+02  0.51100000000E-03 0.  1.
    9900012    2    1    2    0    0  0.64691070569E+00 -0.17433754546E+00  0.97188924425E+00  0.90007552736E+02  0.89999811632E+02 0.  0.
        -12    1    1    2    0    0 -0.64691070569E+00  0.17433754546E+00 -0.97188924425E+00  0.11804472644E+01  0.00000000000E+00 0.  1.
         11    1    3    3    0    0 -0.16297244818E+02  0.21060055199E+02  0.28610294511E+02  0.39085484082E+02  0.51100000000E-03 0. -1.
        -11    1    3    3    0    0  0.10520192064E+02  0.42283624268E+01  0.17919569462E+01  0.11478876245E+02  0.51100000000E-03 0.  1.
        -12    1    3    3    0    0  0.64239634588E+01 -0.25462755172E+02 -0.29430362213E+02  0.39443192409E+02  0.00000000000E+00 0.  1.
</event>
<event>
 7    1  0.2294706E-015  0.9000775E+02  0.7816164E-02  0.1186339E+00
        -11   -1    0    0    0    0  0.00000000000E+00  0.00000000000E+00  0.45593999997E+02  0.45594000000E+02  0.51100000000E-03 0. -1.
         11   -1    0    0    0    0 -0.00000000000E+00 -0.00000000000E+00 -0.45593999997E+02  0.45594000000E+02  0.51100000000E-03 0.  1.
    9900012    2    1    2    0    0  0.40249433120E+00 -0.10371743466E+01  0.39403831477E+00  0.90007746423E+02  0.90000007876E+02 0.  0.
        -12    1    1    2    0    0 -0.40249433120E+00  0.10371743466E+01 -0.39403831477E+00  0.11802535767E+01  0.00000000000E+00 0.  1.
         11    1    3    3    0    0 -0.26648610240E+01  0.85440418144E+01  0.91420944137E+00  0.89965501148E+01  0.51100000000E-03 0. -1.
        -11    1    3    3    0    0 -0.46871086666E+01  0.56426344017E+01 -0.38591268938E+02  0.39282239615E+02  0.51100000000E-03 0.  1.
         12    1    3    3    0    0  0.77544640217E+01 -0.15223850563E+02  0.38071097811E+02  0.41728956694E+02  0.00000000000E+00 0. -1.
</event>
<event>
 7    1  0.2294706E-015  0.9000758E+02  0.7816164E-02  0.1186339E+00
        -11   -1    0    0    0    0  0.00000000000E+00  0.00000000000E+00  0.45593999997E+02  0.45594000000E+02  0.51100000000E-03 0.  1.
         11   -1    0    0    0    0 -0.00000000000E+00 -0.00000000000E+00 -0.45593999997E+02  0.45594000000E+02  0.51100000000E-03 0. -1.
    9900012    2    1    2    0    0  0.94300111366E-01  0.96484197852E+00 -0.67347544281E+00  0.90007584087E+02  0.89999843397E+02 0.  0.
        -12    1    1    2    0    0 -0.94300111366E-01 -0.96484197852E+00  0.67347544281E+00  0.11804159125E+01  0.00000000000E+00 0.  1.
         11    1    3    3    0    0  0.76162371249E+01 -0.42201216929E+01 -0.39802299665E+02  0.40743582979E+02  0.51100000000E-03 0. -1.
        -11    1    3    3    0    0  0.18507202869E+01  0.10181487038E+02  0.18637262315E+01  0.10514814293E+02  0.51100000000E-03 0.  1.
        -12    1    3    3    0    0 -0.93726573005E+01 -0.49965233668E+01  0.37265097991E+02  0.38749186816E+02  0.00000000000E+00 0.  1.
</event>
<event>
 7    1  0.2294706E-015  0.9000777E+02  0.7816164E-02  0.1186339E+00
        -11   -1    0    0    0    0  0.00000000000E+00  0.00000000000E+00  0.45593999997E+02  0.45594000000E+02  0.51100000000E-03 0. -1.
         11   -1    0    0    0    0 -0.00000000000E+00 -0.00000000000E+00 -0.45593999997E+02  0.45594000000E+02  0.51100000000E-03 0.  1.
    9900012    2    1    2    0    0  0.33016569373E+00  0.47504363089E+00  0.10287194890E+01  0.90007771368E+02  0.90000033150E+02 0.  0.
        -12    1    1    2    0    0 -0.33016569373E+00 -0.47504363089E+00 -0.10287194890E+01  0.11802286319E+01  0.00000000000E+00 0.  1.
         11    1    3    3    0    0 -0.27949857906E+02 -0.23723415973E+02 -0.73524261676E+01  0.37390549518E+02  0.51100000000E-03 0. -1.
        -11    1    3    3    0    0 -0.79581524698E+01  0.85326849885E-01  0.38904732552E+01  0.88586259552E+01  0.51100000000E-03 0.  1.
        -12    1    3    3    0    0  0.36238176070E+02  0.24113132754E+02  0.44906724014E+01  0.43758595895E+02  0.00000000000E+00 0.  1.
</event>
<event>
 7    1  0.2294706E-015  0.9000769E+02  0.7816164E-02  0.1186339E+00
        -11   -1    0    0    0    0  0.00000000000E+00  0.00000000000E+00  0.45593999997E+02  0.45594000000E+02  0.51100000000E-03 0.  1.
         11   -1    0    0    0    0 -0.00000000000E+00 -0.00000000000E+00 -0.45593999997E+02  0.45594000000E+02  0.51100000000E-03 0. -1.
    9900012    2    1    2    0    0  0.30237492627E+00  0.10773490642E+01  0.37551694115E+00  0.90007693017E+02  0.89999953764E+02 0.  0.
        -12    1    1    2    0    0 -0.30237492627E+00 -0.10773490642E+01 -0.37551694115E+00  0.11803069835E+01  0.00000000000E+00 0.  1.
         11    1    3    3    0    0  0.21852025058E+02  0.99485890664E+01 -0.10023948813E+01  0.24031026181E+02  0.51100000000E-03 0. -1.
        -11    1    3    3    0    0  0.16696466560E+01 -0.21470191957E+02 -0.21938248237E+02  0.30741561421E+02  0.51100000000E-03 0.  1.
        -12    1    3    3    0    0 -0.23219296788E+02  0.12598951955E+02  0.23316160059E+02  0.35235105415E+02  0.00000000000E+00 0.  1.
</event>
<event>
 7    1  0.2294706E-015  0.9000782E+02  0.7816164E-02  0.1186339E+00
        -11   -1    0    0    0    0  0.00000000000E+00  0.00000000000E+00  0.45593999997E+02  0.45594000000E+02  0.51100000000E-03 0.  1.
         11   -1    0    0    0    0 -0.00000000000E+00 -0.00000000000E+00 -0.45593999997E+02  0.45594000000E+02  0.51100000000E-03 0. -1.
    9900012    2    1    2    0    0 -0.10813073787E+01  0.46438568025E+00 -0.89175040568E-01  0.90007817008E+02  0.90000079392E+02 0.  0.
        -12    1    1    2    0    0  0.10813073787E+01 -0.46438568025E+00  0.89175040568E-01  0.11801829922E+01  0.00000000000E+00 0.  1.
         11    1    3    3    0    0  0.11100275202E+00 -0.10082458211E+02  0.76310116303E+01  0.12645181847E+02  0.51100000000E-03 0. -1.
        -11    1    3    3    0    0 -0.34560300133E+02 -0.46337931727E+01  0.10512725067E+02  0.36419826648E+02  0.51100000000E-03 0.  1.
         12    1    3    3    0    0  0.33367990003E+02  0.15180637064E+02 -0.18232911738E+02  0.40942808513E+02  0.00000000000E+00 0. -1.
</event>
<event>
 7    1  0.2294706E-015  0.9000781E+02  0.7816164E-02  0.1186339E+00
        -11   -1    0    0    0    0  0.00000000000E+00  0.00000000000E+00  0.45593999997E+02  0.45594000000E+02  0.51100000000E-03 0. -1.
         11   -1    0    0    0    0 -0.00000000000E+00 -0.00000000000E+00 -0.45593999997E+02  0.45594000000E+02  0.51100000000E-03 0.  1.
    9900012    2    1    2    0    0  0.41897814520E+00  0.10627793043E+01 -0.29631561468E+00  0.90007811253E+02  0.90000073561E+02 0.  0.
        -12    1    1    2    0    0 -0.41897814520E+00 -0.10627793043E+01  0.29631561468E+00  0.11801887473E+01  0.00000000000E+00 0.  1.
         11    1    3    3    0    0  0.38516620492E+02  0.11825052055E+02 -0.63495601385E+01  0.40788219187E+02  0.51100000000E-03 0. -1.
        -11    1    3    3    0    0 -0.70646290735E+00 -0.48143778466E+01 -0.75555041969E+01  0.89868218977E+01  0.51100000000E-03 0.  1.
        -12    1    3    3    0    0 -0.37391179439E+02 -0.59478949045E+01  0.13608748721E+02  0.40232770168E+02  0.00000000000E+00 0.  1.
</event>
<event>
 7    1  0.2294706E-015  0.9000773E+02  0.7816164E-02  0.1186339E+00
        -11   -1    0    0    0    0  0.00000000000E+00  0.00000000000E+00  0.45593999997E+02  0.45594000000E+02  0.51100000000E-03 0. -1.
         11   -1    0    0    0    0 -0.00000000000E+00 -0.00000000000E+00 -0.45593999997E+02  0.45594000000E+02  0.51100000000E-03 0.  1.
    9900012    2    1    2    0    0  0.63590542242E+00 -0.26673095862E+00 -0.95786807159E+00  0.90007732084E+02  0.89999993348E+02 0.  0.
        -12    1    1    2    0    0 -0.63590542242E+00  0.26673095862E+00  0.95786807159E+00  0.11802679158E+01  0.00000000000E+00 0.  1.
         11    1    3    3    0    0  0.41761861448E+01  0.68375148734E+01 -0.45204078222E+01  0.91992514641E+01  0.51100000000E-03 0. -1.
        -11    1    3    3    0    0 -0.38314232399E+01  0.19790780714E+02 -0.31021984323E+02  0.36996193276E+02  0.51100000000E-03 0.  1.
         12    1    3    3    0    0  0.29114251756E+00 -0.26895026546E+02  0.34584524074E+02  0.43812287344E+02  0.00000000000E+00 0. -1.
</event>
<event>
 7    1  0.2294706E-015  0.9000777E+02  0.7816164E-02  0.1186339E+00
        -11   -1    0    0    0    0  0.00000000000E+00  0.00000000000E+00  0.45593999997E+02  0.45594000000E+02  0.51100000000E-03 0.  1.
         11   -1    0    0    0    0 -0.00000000000E+00 -0.00000000000E+00 -0.45593999997E+02  0.45594000000E+02  0.51100000000E-03 0. -1.
    9900012    2    1    2    0    0 -0.82558214199E-01  0.64356406503E+00 -0.98587092175E+00  0.90007774581E+02  0.90000036406E+02 0.  0.
        -12    1    1    2    0    0  0.82558214199E-01 -0.64356406503E+00  0.98587092175E+00  0.11802254187E+01  0.00000000000E+00 0.  1.
         11    1    3    3    0    0 -0.26002555458E+02 -0.62989324663E+01 -0.31638489647E+02  0.41434327169E+02  0.51100000000E-03 0. -1.
        -11    1    3    3    0    0 -0.43506063091E+01  0.58312165969E+01  0.74866633072E+01  0.10439396055E+02  0.51100000000E-03 0.  1.
        -12    1    3    3    0    0  0.30270603553E+02  0.11112799345E+01  0.23165955418E+02  0.38134051358E+02  0.00000000000E+00 0.  1.
</event>
<event>
 7    1  0.2294706E-015  0.9000766E+02  0.7816164E-02  0.1186339E+00
        -11   -1    0    0    0    0  0.00000000000E+00  0.00000000000E+00  0.45593999997E+02  0.45594000000E+02  0.51100000000E-03 0.  1.
         11   -1    0    0    0    0 -0.00000000000E+00 -0.00000000000E+00 -0.45593999997E+02  0.45594000000E+02  0.51100000000E-03 0. -1.
    9900012    2    1    2    0    0 -0.11121706987E+01 -0.37868094232E+00  0.11348582011E+00  0.90007660239E+02  0.89999920555E+02 0.  0.
        -12    1    1    2    0    0  0.11121706987E+01  0.37868094232E+00 -0.11348582011E+00  0.11803397606E+01  0.00000000000E+00 0.  1.
         11    1    3    3    0    0  0.82925249383E+01  0.44964593587E+01  0.27664088466E+01  0.98304188509E+01  0.51100000000E-03 0. -1.
        -11    1    3    3    0    0 -0.28739187955E+02  0.24090547276E+02  0.15883398483E+02  0.40725639835E+02  0.51100000000E-03 0.  1.
         12    1    3    3    0    0  0.19334492318E+02 -0.28965687577E+02 -0.18536321510E+02  0.39451601553E+02  0.00000000000E+00 0. -1.
</event>
<event>
 7    1  0.2294706E-015  0.9000758E+02  0.7816164E-02  0.1186339E+00
        -11   -1    0    0    0    0  0.00000000000E+00  0.00000000000E+00  0.45593999997E+02  0.45594000000E+02  0.51100000000E-03 0.  1.
         11   -1    0    0    0    0 -0.00000000000E+00 -0.00000000000E+00 -0.45593999997E+02  0.45594000000E+02  0.51100000000E-03 0. -1.
    9900012    2    1    2    0    0 -0.72387933575E+00  0.34052927087E+00 -0.86799963957E+00  0.90007582764E+02  0.89999842056E+02 0.  0.
        -12    1    1    2    0    0  0.72387933575E+00 -0.34052927087E+00  0.86799963957E+00  0.11804172361E+01  0.00000000000E+00 0.  1.
         11    1    3    3    0    0 -0.14750178252E+02  0.34240244860E+02 -0.11841234706E+02  0.39117476480E+02  0.51100000000E-03 0. -1.
        -11    1    3    3    0    0  0.50336753260E+01  0.81519021561E+00 -0.86278549231E+01  0.10022090760E+02  0.51100000000E-03 0.  1.
        -12    1    3    3    0    0  0.89926235898E+01 -0.34714905805E+02  0.19601089990E+02  0.40868015524E+02  0.00000000000E+00 0.  1.
</event>
<event>
 7    1  0.2294706E-015  0.9000763E+02  0.7816164E-02  0.1186339E+00
        -11   -1    0    0    0    0  0.00000000000E+00  0.00000000000E+00  0.45593999997E+02  0.45594000000E+02  0.51100000000E-03 0. -1.
         11   -1    0    0    0    0 -0.00000000000E+00 -0.00000000000E+00 -0.45593999997E+02  0.45594000000E+02  0.51100000000E-03 0.  1.
    9900012    2    1    2    0    0  0.92151365991E+00  0.73463785448E+00 -0.66277333043E-01  0.90007630190E+02  0.89999890109E+02 0.  0.
        -12    1    1    2    0    0 -0.92151365991E+00 -0.73463785448E+00  0.66277333043E-01  0.11803698096E+01  0.00000000000E+00 0.  1.
         11    1    3    3    0    0 -0.67195131809E+01 -0.46325009675E+01  0.58851861330E+01  0.10062173656E+02  0.51100000000E-03 0. -1.
        -11    1    3    3    0    0  0.16481766119E+02  0.21926476049E+02 -0.35546296698E+02  0.44899422887E+02  0.51100000000E-03 0.  1.
         12    1    3    3    0    0 -0.88407392787E+01 -0.16559337227E+02  0.29594833232E+02  0.35046033648E+02  0.00000000000E+00 0. -1.
</event>
<event>
 7    1  0.2294706E-015  0.9000779E+02  0.7816164E-02  0.1186339E+00
        -11   -1    0    0    0    0  0.00000000000E+00  0.00000000000E+00  0.45593999997E+02  0.45594000000E+02  0.51100000000E-03 0.  1.
         11   -1    0    0    0    0 -0.00000000000E+00 -0.00000000000E+00 -0.45593999997E+02  0.45594000000E+02  0.51100000000E-03 0. -1.
    9900012    2    1    2    0    0 -0.79397293952E+00  0.81846153504E+00  0.30434773833E+00  0.90007788214E+02  0.90000050219E+02 0.  0.
        -12    1    1    2    0    0  0.79397293952E+00 -0.81846153504E+00 -0.30434773833E+00  0.11802117856E+01  0.00000000000E+00 0.  1.
         11    1    3    3    0    0 -0.26691359404E+02 -0.26811669058E+01  0.29106776965E+02  0.39583099783E+02  0.51100000000E-03 0. -1.
        -11    1    3    3    0    0 -0.47578448041E+01  0.86946012514E+01 -0.41498902250E+01  0.10744988006E+02  0.51100000000E-03 0.  1.
        -12    1    3    3    0    0  0.30655231269E+02 -0.51949728106E+01 -0.24652539002E+02  0.39679700426E+02  0.00000000000E+00 0.  1.
</event>
<event>
 7    1  0.2294706E-015  0.9000774E+02  0.7816164E-02  0.1186339E+00
        -11   -1    0    0    0    0  0.00000000000E+00  0.00000000000E+00  0.45593999997E+02  0.45594000000E+02  0.51100000000E-03 0.  1.
         11   -1    0    0    0    0 -0.00000000000E+00 -0.00000000000E+00 -0.45593999997E+02  0.45594000000E+02  0.51100000000E-03 0. -1.
    9900012    2    1    2    0    0  0.44052933710E+00  0.79525274013E+00 -0.75267596902E+00  0.90007739803E+02  0.90000001169E+02 0.  0.
        -12    1    1    2    0    0 -0.44052933710E+00 -0.79525274013E+00  0.75267596902E+00  0.11802601967E+01  0.00000000000E+00 0.  1.
         11    1    3    3    0    0 -0.27293473298E+01 -0.33386342967E+02 -0.10962232783E+02  0.35245819347E+02  0.51100000000E-03 0. -1.
        -11    1    3    3    0    0  0.51161075550E+01 -0.85095133719E+01 -0.23806298325E+01  0.10210473691E+02  0.51100000000E-03 0.  1.
        -12    1    3    3    0    0 -0.19462308880E+01  0.42691109079E+02  0.12590186646E+02  0.44551446765E+02  0.00000000000E+00 0.  1.
</event>
<event>
 7    1  0.2294706E-015  0.9000773E+02  0.7816164E-02  0.1186339E+00
        -11   -1    0    0    0    0  0.00000000000E+00  0.00000000000E+00  0.45593999997E+02  0.45594000000E+02  0.51100000000E-03 0. -1.
         11   -1    0    0    0    0 -0.00000000000E+00 -0.00000000000E+00 -0.45593999997E+02  0.45594000000E+02  0.51100000000E-03 0.  1.
    9900012    2    1    2    0    0 -0.26842613330E+00  0.11487338382E+01 -0.37299206902E-01  0.90007731704E+02  0.89999992962E+02 0.  0.
        -12    1    1    2    0    0  0.26842613330E+00 -0.11487338382E+01  0.37299206902E-01  0.11802682961E+01  0.00000000000E+00 0.  1.
         11    1    3    3    0    0  0.28759050614E+02 -0.24919010582E+02 -0.55049180087E+00  0.38057103438E+02  0.51100000000E-03 0. -1.
        -11    1    3    3    0    0  0.33163665148E+01  0.10536497385E+01 -0.92759218345E+01  0.99071282808E+01  0.51100000000E-03 0.  1.
        -12    1    3    3    0    0 -0.32343843262E+02  0.25014094681E+02  0.97891144284E+01  0.42043499985E+02  0.00000000000E+00 0.  1.
</event>
<event>
 7    1  0.2294706E-015  0.9000778E+02  0.7816164E-02  0.1186339E+00
        -11   -1    0    0    0    0  0.00000000000E+00  0.00000000000E+00  0.45593999997E+02  0.45594000000E+02  0.51100000000E-03 0. -1.
         11   -1    0    0    0    0 -0.00000000000E+00 -0.00000000000E+00 -0.45593999997E+02  0.45594000000E+02  0.51100000000E-03 0.  1.
    9900012    2    1    2    0    0  0.58177119789E-01  0.87457264736E+00  0.79034763309E+00  0.90007783378E+02  0.90000045319E+02 0.  0.
        -12    1    1    2    0    0 -0.58177119789E-01 -0.87457264736E+00 -0.79034763309E+00  0.11802166216E+01  0.00000000000E+00 0.  1.
         11    1    3    3    0    0 -0.72290862482E+01 -0.54109050234E+01 -0.42344064264E+01  0.99733534582E+01  0.51100000000E-03 0. -1.
        -11    1    3    3    0    0 -0.13568279639E+02  0.17209773113E+02 -0.30414517592E+02  0.37487563052E+02  0.51100000000E-03 0.  1.
         12    1    3    3    0    0  0.20855543007E+02 -0.10924295442E+02  0.35439271652E+02  0.42546866868E+02  0.00000000000E+00 0. -1.
</event>
<event>
 7    1  0.2294706E-015  0.9000785E+02  0.7816164E-02  0.1186339E+00
        -11   -1    0    0    0    0  0.00000000000E+00  0.00000000000E+00  0.45593999997E+02  0.45594000000E+02  0.51100000000E-03 0.  1.
         11   -1    0    0    0    0 -0.00000000000E+00 -0.00000000000E+00 -0.45593999997E+02  0.45594000000E+02  0.51100000000E-03 0. -1.
    9900012    2    1    2    0    0 -0.37375832925E-01  0.24661069258E+00 -0.11534946262E+01  0.90007845926E+02  0.90000108692E+02 0.  0.
        -12    1    1    2    0    0  0.37375832925E-01 -0.24661069258E+00  0.11534946262E+01  0.11801540744E+01  0.00000000000E+00 0.  1.
         11    1    3    3    0    0 -0.31773245831E+02  0.14913953948E+02  0.24535754800E-01  0.35099370012E+02  0.51100000000E-03 0. -1.
        -11    1    3    3    0    0 -0.24043480889E+01  0.46439821643E+01  0.12354875994E+02  0.13416050878E+02  0.51100000000E-03 0.  1.
        -12    1    3    3    0    0  0.34140218087E+02 -0.19311325419E+02 -0.13532906375E+02  0.41492425036E+02  0.00000000000E+00 0.  1.
</event>
<event>
 7    1  0.2294706E-015  0.9000774E+02  0.7816164E-02  0.1186339E+00
        -11   -1    0    0    0    0  0.00000000000E+00  0.00000000000E+00  0.45593999997E+02  0.45594000000E+02  0.51100000000E-03 0.  1.
         11   -1    0    0    0    0 -0.00000000000E+00 -0.00000000000E+00 -0.45593999997E+02  0.45594000000E+02  0.51100000000E-03 0. -1.
    9900012    2    1    2    0    0  0.10127720177E+01 -0.50323961726E+00 -0.33773622607E+00  0.90007736033E+02  0.89999997349E+02 0.  0.
        -12    1    1    2    0    0 -0.10127720177E+01  0.50323961726E+00  0.33773622607E+00  0.11802639665E+01  0.00000000000E+00 0.  1.
         11    1    3    3    0    0  0.36129076213E+02 -0.90710157875E+01  0.22265076718E+00  0.37251081180E+02  0.51100000000E-03 0. -1.
        -11    1    3    3    0    0  0.60461659747E+01 -0.57392045144E+01  0.33915986590E+01  0.89998629532E+01  0.51100000000E-03 0.  1.
        -12    1    3    3    0    0 -0.41162470170E+02  0.14306980685E+02 -0.39519856523E+01  0.43756791900E+02  0.00000000000E+00 0.  1.
</event>
<event>
 7    1  0.2294706E-015  0.9000784E+02  0.7816164E-02  0.1186339E+00
        -11   -1    0    0    0    0  0.00000000000E+00  0.00000000000E+00  0.45593999997E+02  0.45594000000E+02  0.51100000000E-03 0.  1.
         11   -1    0    0    0    0 -0.00000000000E+00 -0.00000000000E+00 -0.45593999997E+02  0.45594000000E+02  0.51100000000E-03 0. -1.
    9900012    2    1    2    0    0  0.98612870999E+00 -0.26158887719E+00 -0.59320865831E+00  0.90007841076E+02  0.90000103778E+02 0.  0.
        -12    1    1    2    0    0 -0.98612870999E+00  0.26158887719E+00  0.59320865831E+00  0.11801589239E+01  0.00000000000E+00 0.  1.
         11    1    3    3    0    0  0.68447849505E+01 -0.11753385211E+02 -0.35094140526E+02  0.37637638668E+02  0.51100000000E-03 0. -1.
        -11    1    3    3    0    0  0.65509471060E+01 -0.29337549594E+01 -0.48480042789E+01  0.86616956710E+01  0.51100000000E-03 0.  1.
        -12    1    3    3    0    0 -0.12409603347E+02  0.14425551293E+02  0.39348936147E+02  0.43708506737E+02  0.00000000000E+00 0.  1.
</event>
<event>
 7    1  0.2294706E-015  0.9000772E+02  0.7816164E-02  0.1186339E+00
        -11   -1    0    0    0    0  0.00000000000E+00  0.00000000000E+00  0.45593999997E+02  0.45594000000E+02  0.51100000000E-03 0.  1.
         11   -1    0    0    0    0 -0.00000000000E+00 -0.00000000000E+00 -0.45593999997E+02  0.45594000000E+02  0.51100000000E-03 0. -1.
    9900012    2    1    2    0    0  0.32230302688E+00  0.10414207955E+01 -0.45234581712E+00  0.90007723230E+02  0.89999984377E+02 0.  0.
        -12    1    1    2    0    0 -0.32230302688E+00 -0.10414207955E+01  0.45234581712E+00  0.11802767695E+01  0.00000000000E+00 0.  1.
         11    1    3    3    0    0  0.28107513879E+01 -0.13650819063E+00  0.86405148717E+01  0.90872138392E+01  0.51100000000E-03 0. -1.
        -11    1    3    3    0    0 -0.28555609659E+02 -0.23737726411E+02  0.12147881333E+02  0.39070110306E+02  0.51100000000E-03 0.  1.
         12    1    3    3    0    0  0.26067161298E+02  0.24915655397E+02 -0.21240742022E+02  0.41850399086E+02  0.00000000000E+00 0. -1.
</event>
<event>
 7    1  0.2294706E-015  0.9000774E+02  0.7816164E-02  0.1186339E+00
        -11   -1    0    0    0    0  0.00000000000E+00  0.00000000000E+00  0.45593999997E+02  0.45594000000E+02  0.51100000000E-03 0. -1.
         11   -1    0    0    0    0 -0.00000000000E+00 -0.00000000000E+00 -0.45593999997E+02  0.45594000000E+02  0.51100000000E-03 0.  1.
    9900012    2    1    2    0    0 -0.38792131904E+00  0.11139821913E+01 -0.39700168383E-01  0.90007739276E+02  0.90000000635E+02 0.  0.
        -12    1    1    2    0    0  0.38792131904E+00 -0.11139821913E+01  0.39700168383E-01  0.11802607236E+01  0.00000000000E+00 0.  1.
         11    1    3    3    0    0 -0.79543119011E+01 -0.30192439431E+01 -0.25198799905E+01  0.88733706806E+01  0.51100000000E-03 0. -1.
        -11    1    3    3    0    0 -0.19013318357E+02 -0.10033883772E+02 -0.29954979470E+02  0.36871206839E+02  0.51100000000E-03 0.  1.
         12    1    3    3    0    0  0.26579708939E+02  0.14167109906E+02  0.32435159292E+02  0.44263161756E+02  0.00000000000E+00 0. -1.
</event>
<event>
 7    1  0.2294706E-015  0.9000782E+02  0.7816164E-02  0.1186339E+00
        -11   -1    0    0    0    0  0.00000000000E+00  0.00000000000E+00  0.45593999997E+02  0.45594000000E+02  0.51100000000E-03 0. -1.
         11   -1    0    0    0    0 -0.00000000000E+00 -0.00000000000E+00 -0.45593999997E+02  0.45594000000E+02  0.51100000000E-03 0.  1.
    9900012    2    1    2    0    0  0.91269295486E+00  0.73713705822E+00  0.12826823112E+00  0.90007816874E+02  0.90000079256E+02 0.  0.
        -12    1    1    2    0    0 -0.91269295486E+00 -0.73713705822E+00 -0.12826823112E+00  0.11801831263E+01  0.00000000000E+00 0.  1.
         11    1    3    3    0    0  0.73899631093E+01  0.15803162151E+02  0.12087351909E+02  0.21223938493E+02  0.51100000000E-03 0. -1.
        -11    1    3    3    0    0 -0.21212149736E+02  0.12693776697E+02 -0.24631631161E+02  0.34897055995E+02  0.51100000000E-03 0.  1.
         12    1    3    3    0    0  0.14734879581E+02 -0.27759801789E+02  0.12672547483E+02  0.33886822385E+02  0.00000000000E+00 0. -1.
</event>
<event>
 7    1  0.2294706E-015  0.9000834E+02  0.7816164E-02  0.1186338E+00
        -11   -1    0    0    0    0  0.00000000000E+00  0.00000000000E+00  0.45593999997E+02  0.45594000000E+02  0.51100000000E-03 0.  1.
         11   -1    0    0    0    0 -0.00000000000E+00 -0.00000000000E+00 -0.45593999997E+02  0.45594000000E+02  0.51100000000E-03 0. -1.
    9900012    2    1    2    0    0  0.21238414490E+00 -0.40222605498E+00 -0.10884394552E+01  0.90008341883E+02  0.90000611194E+02 0.  0.
        -12    1    1    2    0    0 -0.21238414490E+00  0.40222605498E+00  0.10884394552E+01  0.11796581165E+01  0.00000000000E+00 0.  1.
         11    1    3    3    0    0 -0.18532678609E+02 -0.65017276708E+01  0.15945193053E+02  0.25297861983E+02  0.51100000000E-03 0. -1.
        -11    1    3    3    0    0 -0.53191133794E+01 -0.50037381838E+01  0.18784278537E+02  0.20153894992E+02  0.51100000000E-03 0.  1.
         12    1    3    3    0    0  0.24064176134E+02  0.11103239800E+02 -0.35817911045E+02  0.44556584908E+02  0.00000000000E+00 0. -1.
</event>
<event>
 7    1  0.2294706E-015  0.9000782E+02  0.7816164E-02  0.1186339E+00
        -11   -1    0    0    0    0  0.00000000000E+00  0.00000000000E+00  0.45593999997E+02  0.45594000000E+02  0.51100000000E-03 0.  1.
         11   -1    0    0    0    0 -0.00000000000E+00 -0.00000000000E+00 -0.45593999997E+02  0.45594000000E+02  0.51100000000E-03 0. -1.
    9900012    2    1    2    0    0  0.81853301900E+00  0.84230473402E+00 -0.11558700088E+00  0.90007816149E+02  0.90000078522E+02 0.  0.
        -12    1    1    2    0    0 -0.81853301900E+00 -0.84230473402E+00  0.11558700088E+00  0.11801838513E+01  0.00000000000E+00 0.  1.
         11    1    3    3    0    0 -0.15542880178E+00 -0.77515159575E+00 -0.66602960770E+01  0.67070531683E+01  0.51100000000E-03 0. -1.
        -11    1    3    3    0    0 -0.10364424073E+02  0.40846340110E+02  0.16401121156E+01  0.42172677823E+02  0.51100000000E-03 0.  1.
         12    1    3    3    0    0  0.11338385894E+02 -0.39228883781E+02  0.49045969605E+01  0.41128085157E+02  0.00000000000E+00 0. -1.
</event>
<event>
 7    1  0.3672516E-015  0.9000786E+02  0.7816164E-02  0.1186339E+00
        -11   -1    0    0    0    0  0.00000000000E+00  0.00000000000E+00  0.45593999997E+02  0.45594000000E+02  0.51100000000E-03 0. -1.
         11   -1    0    0    0    0 -0.00000000000E+00 -0.00000000000E+00 -0.45593999997E+02  0.45594000000E+02  0.51100000000E-03 0.  1.
    9900012    2    1    2    0    0 -0.26416526081E-01  0.98542430019E+00  0.64881660510E+00  0.90007863622E+02  0.90000126621E+02 0.  0.
        -12    1    1    2    0    0  0.26416526081E-01 -0.98542430019E+00 -0.64881660510E+00  0.11801363783E+01  0.00000000000E+00 0.  1.
         11    1    3    3    0    0 -0.24173853639E+02  0.62746781806E+01  0.30378842857E+02  0.39327101084E+02  0.51100000000E-03 0. -1.
        -11    1    3    3    0    0 -0.67218717280E+01 -0.59276216612E+01 -0.20047948510E+01  0.91836518195E+01  0.51100000000E-03 0.  1.
        -12    1    3    3    0    0  0.30869308841E+02  0.63836778081E+00 -0.27725231401E+02  0.41497110719E+02  0.00000000000E+00 0.  1.
</event>
<event>
 7    1  0.2294706E-015  0.9000773E+02  0.7816164E-02  0.1186339E+00
        -11   -1    0    0    0    0  0.00000000000E+00  0.00000000000E+00  0.45593999997E+02  0.45594000000E+02  0.51100000000E-03 0.  1.
         11   -1    0    0    0    0 -0.00000000000E+00 -0.00000000000E+00 -0.45593999997E+02  0.45594000000E+02  0.51100000000E-03 0. -1.
    9900012    2    1    2    0    0  0.72921006962E+00  0.11897854136E+00 -0.92040056486E+00  0.90007728667E+02  0.89999989886E+02 0.  0.
        -12    1    1    2    0    0 -0.72921006962E+00 -0.11897854136E+00  0.92040056486E+00  0.11802713327E+01  0.00000000000E+00 0.  1.
         11    1    3    3    0    0 -0.29931860142E+02 -0.24660046573E+02 -0.35588295065E+01  0.38944825282E+02  0.51100000000E-03 0. -1.
        -11    1    3    3    0    0 -0.52230030177E+01  0.82474731635E+01 -0.47701651218E+01  0.10865314062E+02  0.51100000000E-03 0.  1.
        -12    1    3    3    0    0  0.35884073229E+02  0.16531551951E+02  0.74085940634E+01  0.40197589324E+02  0.00000000000E+00 0.  1.
</event>
<event>
 7    1  0.2294706E-015  0.9000771E+02  0.7816164E-02  0.1186339E+00
        -11   -1    0    0    0    0  0.00000000000E+00  0.00000000000E+00  0.45593999997E+02  0.45594000000E+02  0.51100000000E-03 0.  1.
         11   -1    0    0    0    0 -0.00000000000E+00 -0.00000000000E+00 -0.45593999997E+02  0.45594000000E+02  0.51100000000E-03 0. -1.
    9900012    2    1    2    0    0  0.21423628075E+00  0.36739345127E+00 -0.11010052531E+01  0.90007708638E+02  0.89999969592E+02 0.  0.
        -12    1    1    2    0    0 -0.21423628075E+00 -0.36739345127E+00  0.11010052531E+01  0.11802913621E+01  0.00000000000E+00 0.  1.
         11    1    3    3    0    0 -0.63763418296E+00  0.84326588196E+01 -0.46301943311E+01  0.96413179557E+01  0.51100000000E-03 0. -1.
        -11    1    3    3    0    0 -0.19866186449E+02  0.25831568968E+02  0.19013265272E+02  0.37728498194E+02  0.51100000000E-03 0.  1.
         12    1    3    3    0    0  0.20718056913E+02 -0.33896834337E+02 -0.15484076194E+02  0.42637892489E+02  0.00000000000E+00 0. -1.
</event>
<event>
 7    1  0.2294706E-015  0.9000765E+02  0.7816164E-02  0.1186339E+00
        -11   -1    0    0    0    0  0.00000000000E+00  0.00000000000E+00  0.45593999997E+02  0.45594000000E+02  0.51100000000E-03 0. -1.
         11   -1    0    0    0    0 -0.00000000000E+00 -0.00000000000E+00 -0.45593999997E+02  0.45594000000E+02  0.51100000000E-03 0.  1.
    9900012    2    1    2    0    0  0.64845385700E+00 -0.22718463618E+00  0.95975217105E+00  0.90007648572E+02  0.89999908733E+02 0.  0.
        -12    1    1    2    0    0 -0.64845385700E+00  0.22718463618E+00 -0.95975217105E+00  0.11803514279E+01  0.00000000000E+00 0.  1.
         11    1    3    3    0    0 -0.50931677040E+00  0.49762793885E+00  0.41001738945E+02  0.41007921600E+02  0.51100000000E-03 0. -1.
        -11    1    3    3    0    0  0.24400584737E+00 -0.83508744823E+01 -0.13001552041E+00  0.83554501835E+01  0.51100000000E-03 0.  1.
        -12    1    3    3    0    0  0.91376478003E+00  0.76260619073E+01 -0.39911971254E+02  0.40644276789E+02  0.00000000000E+00 0.  1.
</event>
<event>
 7    1  0.2294706E-015  0.9000773E+02  0.7816164E-02  0.1186339E+00
        -11   -1    0    0    0    0  0.00000000000E+00  0.00000000000E+00  0.45593999997E+02  0.45594000000E+02  0.51100000000E-03 0. -1.
         11   -1    0    0    0    0 -0.00000000000E+00 -0.00000000000E+00 -0.45593999997E+02  0.45594000000E+02  0.51100000000E-03 0.  1.
    9900012    2    1    2    0    0 -0.46770077972E+00  0.36708928067E+00 -0.10195747823E+01  0.90007732532E+02  0.89999993801E+02 0.  0.
        -12    1    1    2    0    0  0.46770077972E+00 -0.36708928067E+00  0.10195747823E+01  0.11802674680E+01  0.00000000000E+00 0.  1.
         11    1    3    3    0    0  0.35096222840E+02  0.18311736553E+02  0.97029374142E+01  0.40757963001E+02  0.51100000000E-03 0. -1.
        -11    1    3    3    0    0 -0.21752726165E+01  0.28489882274E+01 -0.92140044710E+01  0.98866790950E+01  0.51100000000E-03 0.  1.
        -12    1    3    3    0    0 -0.33388651004E+02 -0.20793635500E+02 -0.15085077255E+01  0.39363090436E+02  0.00000000000E+00 0.  1.
</event>
<event>
 7    1  0.2294706E-015  0.9000776E+02  0.7816164E-02  0.1186339E+00
        -11   -1    0    0    0    0  0.00000000000E+00  0.00000000000E+00  0.45593999997E+02  0.45594000000E+02  0.51100000000E-03 0. -1.
         11   -1    0    0    0    0 -0.00000000000E+00 -0.00000000000E+00 -0.45593999997E+02  0.45594000000E+02  0.51100000000E-03 0.  1.
    9900012    2    1    2    0    0 -0.76965586736E+00 -0.87997563853E+00  0.16197115750E+00  0.90007761916E+02  0.90000023573E+02 0.  0.
        -12    1    1    2    0    0  0.76965586736E+00  0.87997563853E+00 -0.16197115750E+00  0.11802380838E+01  0.00000000000E+00 0.  1.
         11    1    3    3    0    0 -0.64266663815E+01 -0.86020525165E+01  0.22111023343E+01  0.10962952252E+02  0.51100000000E-03 0. -1.
        -11    1    3    3    0    0 -0.32209546832E+02 -0.23934510883E+01 -0.17712687115E+02  0.36836433056E+02  0.51100000000E-03 0.  1.
         12    1    3    3    0    0  0.37866557346E+02  0.10115527966E+02  0.15663555938E+02  0.42208376608E+02  0.00000000000E+00 0. -1.
</event>
<event>
 7    1  0.2294706E-015  0.9000770E+02  0.7816164E-02  0.1186339E+00
        -11   -1    0    0    0    0  0.00000000000E+00  0.00000000000E+00  0.45593999997E+02  0.45594000000E+02  0.51100000000E-03 0.  1.
         11   -1    0    0    0    0 -0.00000000000E+00 -0.00000000000E+00 -0.45593999997E+02  0.45594000000E+02  0.51100000000E-03 0. -1.
    9900012    2    1    2    0    0 -0.18123815719E+00 -0.76513239596E+00 -0.88024583096E+00  0.90007700218E+02  0.89999961061E+02 0.  0.
        -12    1    1    2    0    0  0.18123815719E+00  0.76513239596E+00  0.88024583096E+00  0.11802997822E+01  0.00000000000E+00 0.  1.
         11    1    3    3    0    0 -0.23896612017E+02 -0.86300557146E+01 -0.29646013212E+02  0.39043719433E+02  0.51100000000E-03 0. -1.
        -11    1    3    3    0    0  0.67351195227E+01 -0.60786996541E+01 -0.52403694987E+01  0.10477303910E+02  0.51100000000E-03 0.  1.
        -12    1    3    3    0    0  0.16980254337E+02  0.13943622973E+02  0.34006136880E+02  0.40486676876E+02  0.00000000000E+00 0.  1.
</event>
<event>
 7    1  0.2294706E-015  0.9000902E+02  0.7816164E-02  0.1186336E+00
        -11   -1    0    0    0    0  0.00000000000E+00  0.00000000000E+00  0.45593999997E+02  0.45594000000E+02  0.51100000000E-03 0. -1.
         11   -1    0    0    0    0 -0.00000000000E+00 -0.00000000000E+00 -0.45593999997E+02  0.45594000000E+02  0.51100000000E-03 0.  1.
    9900012    2    1    2    0    0  0.10458419258E+01 -0.53734055099E+00  0.86479048262E-01  0.90009017885E+02  0.90001296112E+02 0.  0.
        -12    1    1    2    0    0 -0.10458419258E+01  0.53734055099E+00 -0.86479048262E-01  0.11789821149E+01  0.00000000000E+00 0.  1.
         11    1    3    3    0    0 -0.42037561976E+01  0.21004175485E+01 -0.65043281012E+01  0.80243133261E+01  0.51100000000E-03 0. -1.
        -11    1    3    3    0    0  0.26771836049E+02 -0.84699127473E+01 -0.28756245759E+02  0.40191943195E+02  0.51100000000E-03 0.  1.
         12    1    3    3    0    0 -0.21522237926E+02  0.58321546478E+01  0.35347052908E+02  0.41792761364E+02  0.00000000000E+00 0. -1.
</event>
<event>
 7    1  0.2294706E-015  0.9000773E+02  0.7816164E-02  0.1186339E+00
        -11   -1    0    0    0    0  0.00000000000E+00  0.00000000000E+00  0.45593999997E+02  0.45594000000E+02  0.51100000000E-03 0.  1.
         11   -1    0    0    0    0 -0.00000000000E+00 -0.00000000000E+00 -0.45593999997E+02  0.45594000000E+02  0.51100000000E-03 0. -1.
    9900012    2    1    2    0    0  0.68895202604E+00 -0.79795847371E+00 -0.53069160271E+00  0.90007734692E+02  0.89999995990E+02 0.  0.
        -12    1    1    2    0    0 -0.68895202604E+00  0.79795847371E+00  0.53069160271E+00  0.11802653079E+01  0.00000000000E+00 0.  1.
         11    1    3    3    0    0  0.27606109902E+02  0.21111709443E+02 -0.18932785819E+02  0.39575901236E+02  0.51100000000E-03 0. -1.
        -11    1    3    3    0    0 -0.48367233699E+01  0.78097526926E+01  0.23143333106E+00  0.91891072322E+01  0.51100000000E-03 0.  1.
        -12    1    3    3    0    0 -0.22080434506E+02 -0.29719420609E+02  0.18170660885E+02  0.41242726224E+02  0.00000000000E+00 0.  1.
</event>
<event>
 7    1  0.2294706E-015  0.9000778E+02  0.7816164E-02  0.1186339E+00
        -11   -1    0    0    0    0  0.00000000000E+00  0.00000000000E+00  0.45593999997E+02  0.45594000000E+02  0.51100000000E-03 0.  1.
         11   -1    0    0    0    0 -0.00000000000E+00 -0.00000000000E+00 -0.45593999997E+02  0.45594000000E+02  0.51100000000E-03 0. -1.
    9900012    2    1    2    0    0 -0.17941017844E+00  0.71569909654E+00 -0.92114211935E+00  0.90007781371E+02  0.90000043285E+02 0.  0.
        -12    1    1    2    0    0  0.17941017844E+00 -0.71569909654E+00  0.92114211935E+00  0.11802186293E+01  0.00000000000E+00 0.  1.
         11    1    3    3    0    0  0.11344032871E+02 -0.33392623553E+02  0.99339105897E+01  0.36639281781E+02  0.51100000000E-03 0. -1.
        -11    1    3    3    0    0 -0.24601987053E+01 -0.50988299490E+01  0.72863413905E+01  0.92272106098E+01  0.51100000000E-03 0.  1.
        -12    1    3    3    0    0 -0.90632443442E+01  0.39207152599E+02 -0.18141394100E+02  0.44141288980E+02  0.00000000000E+00 0.  1.
</event>
<event>
 7    1  0.2294706E-015  0.9000775E+02  0.7816164E-02  0.1186339E+00
        -11   -1    0    0    0    0  0.00000000000E+00  0.00000000000E+00  0.45593999997E+02  0.45594000000E+02  0.51100000000E-03 0. -1.
         11   -1    0    0    0    0 -0.00000000000E+00 -0.00000000000E+00 -0.45593999997E+02  0.45594000000E+02  0.51100000000E-03 0.  1.
    9900012    2    1    2    0    0 -0.19793685577E-01 -0.60692873805E+00  0.10120479700E+01  0.90007747749E+02  0.90000009219E+02 0.  0.
        -12    1    1    2    0    0  0.19793685577E-01  0.60692873805E+00 -0.10120479700E+01  0.11802522513E+01  0.00000000000E+00 0.  1.
         11    1    3    3    0    0 -0.44818633001E+01 -0.51695913991E+01  0.70555415969E+01  0.98281453673E+01  0.51100000000E-03 0. -1.
        -11    1    3    3    0    0 -0.27461923053E+02 -0.24023193976E+02 -0.77219243961E+01  0.37294760801E+02  0.51100000000E-03 0.  1.
         12    1    3    3    0    0  0.31923992667E+02  0.28585856638E+02  0.16784307691E+01  0.42884841580E+02  0.00000000000E+00 0. -1.
</event>
<event>
 7    1  0.2294706E-015  0.9000776E+02  0.7816164E-02  0.1186339E+00
        -11   -1    0    0    0    0  0.00000000000E+00  0.00000000000E+00  0.45593999997E+02  0.45594000000E+02  0.51100000000E-03 0.  1.
         11   -1    0    0    0    0 -0.00000000000E+00 -0.00000000000E+00 -0.45593999997E+02  0.45594000000E+02  0.51100000000E-03 0. -1.
    9900012    2    1    2    0    0  0.97172480269E+00  0.27509018707E+00 -0.61076831444E+00  0.90007762042E+02  0.90000023701E+02 0.  0.
        -12    1    1    2    0    0 -0.97172480269E+00 -0.27509018707E+00  0.61076831444E+00  0.11802379578E+01  0.00000000000E+00 0.  1.
         11    1    3    3    0    0  0.23465280311E+01 -0.24062910219E+01  0.14722991778E+02  0.15101752132E+02  0.51100000000E-03 0. -1.
        -11    1    3    3    0    0 -0.14234352890E+02 -0.31945294176E+02 -0.16035434040E+00  0.34973480466E+02  0.51100000000E-03 0.  1.
         12    1    3    3    0    0  0.12859549661E+02  0.34626675385E+02 -0.15173405752E+02  0.39932529444E+02  0.00000000000E+00 0. -1.
</event>
<event>
 7    1  0.2294706E-015  0.9000786E+02  0.7816164E-02  0.1186339E+00
        -11   -1    0    0    0    0  0.00000000000E+00  0.00000000000E+00  0.45593999997E+02  0.45594000000E+02  0.51100000000E-03 0. -1.
         11   -1    0    0    0    0 -0.00000000000E+00 -0.00000000000E+00 -0.45593999997E+02  0.45594000000E+02  0.51100000000E-03 0.  1.
    9900012    2    1    2    0    0 -0.44247449720E+00 -0.10921845459E+01 -0.63945864710E-01  0.90007856010E+02  0.90000118909E+02 0.  0.
        -12    1    1    2    0    0  0.44247449720E+00  0.10921845459E+01  0.63945864710E-01  0.11801439898E+01  0.00000000000E+00 0.  1.
         11    1    3    3    0    0 -0.15089675227E+01  0.33192729316E+00 -0.49463499182E+01  0.51820397998E+01  0.51100000000E-03 0. -1.
        -11    1    3    3    0    0  0.39700575693E+02 -0.16522186390E+02 -0.45935284795E+00  0.43003829583E+02  0.51100000000E-03 0.  1.
         12    1    3    3    0    0 -0.38634082668E+02  0.15098074550E+02  0.53417569014E+01  0.41821986628E+02  0.00000000000E+00 0. -1.
</event>
<event>
 7    1  0.2294706E-015  0.9000744E+02  0.7816164E-02  0.1186340E+00
        -11   -1    0    0    0    0  0.00000000000E+00  0.00000000000E+00  0.45593999997E+02  0.45594000000E+02  0.51100000000E-03 0. -1.
         11   -1    0    0    0    0 -0.00000000000E+00 -0.00000000000E+00 -0.45593999997E+02  0.45594000000E+02  0.51100000000E-03 0.  1.
    9900012    2    1    2    0    0 -0.93262365159E+00 -0.41931612592E+00  0.59000523023E+00  0.90007441208E+02  0.89999698632E+02 0.  0.
        -12    1    1    2    0    0  0.93262365159E+00  0.41931612592E+00 -0.59000523023E+00  0.11805587917E+01  0.00000000000E+00 0.  1.
         11    1    3    3    0    0 -0.28313337853E+01  0.10663330231E+02 -0.63606342309E+01  0.12735019855E+02  0.51100000000E-03 0. -1.
        -11    1    3    3    0    0 -0.22003519598E+02 -0.29923608121E+02 -0.14674944782E+02  0.39936589768E+02  0.51100000000E-03 0.  1.
         12    1    3    3    0    0  0.23902229732E+02  0.18840961764E+02  0.21625584243E+02  0.37335831585E+02  0.00000000000E+00 0. -1.
</event>
<event>
 7    1  0.2294706E-015  0.9000771E+02  0.7816164E-02  0.1186339E+00
        -11   -1    0    0    0    0  0.00000000000E+00  0.00000000000E+00  0.45593999997E+02  0.45594000000E+02  0.51100000000E-03 0. -1.
         11   -1    0    0    0    0 -0.00000000000E+00 -0.00000000000E+00 -0.45593999997E+02  0.45594000000E+02  0.51100000000E-03 0.  1.
    9900012    2    1    2    0    0 -0.96096129683E+00  0.42117108266E+00  0.54061458263E+00  0.90007705197E+02  0.89999966106E+02 0.  0.
        -12    1    1    2    0    0  0.96096129683E+00 -0.42117108266E+00 -0.54061458263E+00  0.11802948029E+01  0.00000000000E+00 0.  1.
         11    1    3    3    0    0  0.10012047486E+01  0.42070291938E+01 -0.11724120104E+02  0.12496259363E+02  0.51100000000E-03 0. -1.
        -11    1    3    3    0    0 -0.10536061100E+02  0.21086988277E+02 -0.23385346245E+02  0.33204579162E+02  0.51100000000E-03 0.  1.
         12    1    3    3    0    0  0.85738950547E+01 -0.24872846388E+02  0.35650080932E+02  0.44306866672E+02  0.00000000000E+00 0. -1.
</event>
<event>
 7    1  0.2294706E-015  0.9000756E+02  0.7816164E-02  0.1186339E+00
        -11   -1    0    0    0    0  0.00000000000E+00  0.00000000000E+00  0.45593999997E+02  0.45594000000E+02  0.51100000000E-03 0.  1.
         11   -1    0    0    0    0 -0.00000000000E+00 -0.00000000000E+00 -0.45593999997E+02  0.45594000000E+02  0.51100000000E-03 0. -1.
    9900012    2    1    2    0    0 -0.68364618737E+00 -0.73542393609E+00 -0.62065681717E+00  0.90007561370E+02  0.89999820380E+02 0.  0.
        -12    1    1    2    0    0  0.68364618737E+00  0.73542393609E+00  0.62065681717E+00  0.11804386303E+01  0.00000000000E+00 0.  1.
         11    1    3    3    0    0  0.72298040943E+01  0.71252738134E+01 -0.96849984773E+01  0.14029924801E+02  0.51100000000E-03 0. -1.
        -11    1    3    3    0    0  0.20270044715E+02 -0.12169267214E+02  0.31719730367E+02  0.39561434151E+02  0.51100000000E-03 0.  1.
         12    1    3    3    0    0 -0.28183494997E+02  0.43085694642E+01 -0.22655388707E+02  0.36416202418E+02  0.00000000000E+00 0. -1.
</event>
<event>
 7    1  0.2294706E-015  0.9000736E+02  0.7816164E-02  0.1186340E+00
        -11   -1    0    0    0    0  0.00000000000E+00  0.00000000000E+00  0.45593999997E+02  0.45594000000E+02  0.51100000000E-03 0.  1.
         11   -1    0    0    0    0 -0.00000000000E+00 -0.00000000000E+00 -0.45593999997E+02  0.45594000000E+02  0.51100000000E-03 0. -1.
    9900012    2    1    2    0    0 -0.48002598754E+00  0.37625041383E+00 -0.10109060560E+01  0.90007355948E+02  0.89999612246E+02 0.  0.
        -12    1    1    2    0    0  0.48002598754E+00 -0.37625041383E+00  0.10109060560E+01  0.11806440517E+01  0.00000000000E+00 0.  1.
         11    1    3    3    0    0 -0.23102208704E+01  0.56431970282E+01 -0.64582493857E+01  0.88821043992E+01  0.51100000000E-03 0. -1.
        -11    1    3    3    0    0 -0.17550748860E+02  0.32949218990E+02 -0.29944266938E+01  0.37451921300E+02  0.51100000000E-03 0.  1.
         12    1    3    3    0    0  0.19380943742E+02 -0.38216165605E+02  0.84417700234E+01  0.43673330249E+02  0.00000000000E+00 0. -1.
</event>
<event>
 7    1  0.2294706E-015  0.9000800E+02  0.7816164E-02  0.1186339E+00
        -11   -1    0    0    0    0  0.00000000000E+00  0.00000000000E+00  0.45593999997E+02  0.45594000000E+02  0.51100000000E-03 0.  1.
         11   -1    0    0    0    0 -0.00000000000E+00 -0.00000000000E+00 -0.45593999997E+02  0.45594000000E+02  0.51100000000E-03 0. -1.
    9900012    2    1    2    0    0  0.63029377682E+00 -0.39420015778E+00 -0.91637098965E+00  0.90008000085E+02  0.90000264885E+02 0.  0.
        -12    1    1    2    0    0 -0.63029377682E+00  0.39420015778E+00  0.91637098965E+00  0.11799999153E+01  0.00000000000E+00 0.  1.
         11    1    3    3    0    0 -0.14043503802E+02 -0.28542748430E+02 -0.19469816315E+02  0.37295874230E+02  0.51100000000E-03 0. -1.
        -11    1    3    3    0    0 -0.44795375476E+01  0.76206678126E+01 -0.95321486741E+01  0.13000103582E+02  0.51100000000E-03 0.  1.
        -12    1    3    3    0    0  0.19153335126E+02  0.20527880460E+02  0.28085593999E+02  0.39712022272E+02  0.00000000000E+00 0.  1.
</event>
<event>
 7    1  0.2294706E-015  0.9000779E+02  0.7816164E-02  0.1186339E+00
        -11   -1    0    0    0    0  0.00000000000E+00  0.00000000000E+00  0.45593999997E+02  0.45594000000E+02  0.51100000000E-03 0.  1.
         11   -1    0    0    0    0 -0.00000000000E+00 -0.00000000000E+00 -0.45593999997E+02  0.45594000000E+02  0.51100000000E-03 0. -1.
    9900012    2    1    2    0    0  0.43462084159E+00  0.94941856453E-01 -0.10931509729E+01  0.90007793119E+02  0.90000055188E+02 0.  0.
        -12    1    1    2    0    0 -0.43462084159E+00 -0.94941856453E-01  0.10931509729E+01  0.11802068808E+01  0.00000000000E+00 0.  1.
         11    1    3    3    0    0 -0.10255252660E+02 -0.29968974003E+02  0.13320941374E+02  0.34362146168E+02  0.51100000000E-03 0. -1.
        -11    1    3    3    0    0 -0.21913798475E+01 -0.86673014406E+01  0.52193487328E+01  0.10352094540E+02  0.51100000000E-03 0.  1.
        -12    1    3    3    0    0  0.12881253349E+02  0.38731217300E+02 -0.19633441080E+02  0.45293552411E+02  0.00000000000E+00 0.  1.
</event>
<event>
 7    1  0.2294706E-015  0.9000751E+02  0.7816164E-02  0.1186340E+00
        -11   -1    0    0    0    0  0.00000000000E+00  0.00000000000E+00  0.45593999997E+02  0.45594000000E+02  0.51100000000E-03 0. -1.
         11   -1    0    0    0    0 -0.00000000000E+00 -0.00000000000E+00 -0.45593999997E+02  0.45594000000E+02  0.51100000000E-03 0.  1.
    9900012    2    1    2    0    0 -0.13477190367E+00 -0.24084304707E+00  0.11477749116E+01  0.90007510234E+02  0.89999768569E+02 0.  0.
        -12    1    1    2    0    0  0.13477190367E+00  0.24084304707E+00 -0.11477749116E+01  0.11804897657E+01  0.00000000000E+00 0.  1.
         11    1    3    3    0    0 -0.87586756021E+01 -0.40951003032E+01  0.30416908242E+00  0.96735083546E+01  0.51100000000E-03 0. -1.
        -11    1    3    3    0    0 -0.23992888298E+02 -0.20428594551E+02 -0.17139878030E+02  0.35871459175E+02  0.51100000000E-03 0.  1.
         12    1    3    3    0    0  0.32616791996E+02  0.24282851807E+02  0.17983483859E+02  0.44462542704E+02  0.00000000000E+00 0. -1.
</event>
<event>
 7    1  0.2294706E-015  0.9000790E+02  0.7816164E-02  0.1186339E+00
        -11   -1    0    0    0    0  0.00000000000E+00  0.00000000000E+00  0.45593999997E+02  0.45594000000E+02  0.51100000000E-03 0.  1.
         11   -1    0    0    0    0 -0.00000000000E+00 -0.00000000000E+00 -0.45593999997E+02  0.45594000000E+02  0.51100000000E-03 0. -1.
    9900012    2    1    2    0    0 -0.12039875701E-01 -0.11105547965E+01  0.39894214756E+00  0.90007901804E+02  0.90000165308E+02 0.  0.
        -12    1    1    2    0    0  0.12039875701E-01  0.11105547965E+01 -0.39894214756E+00  0.11800981958E+01  0.00000000000E+00 0.  1.
         11    1    3    3    0    0  0.24217065671E+02 -0.41187641885E+01 -0.30076248428E+02  0.38833119987E+02  0.51100000000E-03 0. -1.
        -11    1    3    3    0    0  0.51181431345E+01 -0.55708461485E+01 -0.58854670476E+00  0.75878918970E+01  0.51100000000E-03 0.  1.
        -12    1    3    3    0    0 -0.29347248681E+02  0.85790555405E+01  0.31063737280E+02  0.43586889920E+02  0.00000000000E+00 0.  1.
</event>
<event>
 7    1  0.2294706E-015  0.9000771E+02  0.7816164E-02  0.1186339E+00
        -11   -1    0    0    0    0  0.00000000000E+00  0.00000000000E+00  0.45593999997E+02  0.45594000000E+02  0.51100000000E-03 0.  1.
         11   -1    0    0    0    0 -0.00000000000E+00 -0.00000000000E+00 -0.45593999997E+02  0.45594000000E+02  0.51100000000E-03 0. -1.
    9900012    2    1    2    0    0  0.36774434260E+00  0.63377879801E+00  0.92529946059E+00  0.90007707427E+02  0.89999968365E+02 0.  0.
        -12    1    1    2    0    0 -0.36774434260E+00 -0.63377879801E+00 -0.92529946059E+00  0.11802925731E+01  0.00000000000E+00 0.  1.
         11    1    3    3    0    0 -0.16514679923E+02  0.11505713815E+02 -0.31679242594E+02  0.37532526093E+02  0.51100000000E-03 0. -1.
        -11    1    3    3    0    0  0.85856467881E+01  0.97193309454E+01 -0.74718422273E-01  0.12968589279E+02  0.51100000000E-03 0.  1.
        -12    1    3    3    0    0  0.82967774776E+01 -0.20591265962E+02  0.32679260477E+02  0.39506592054E+02  0.00000000000E+00 0.  1.
</event>
<event>
 7    1  0.2294706E-015  0.9000778E+02  0.7816164E-02  0.1186339E+00
        -11   -1    0    0    0    0  0.00000000000E+00  0.00000000000E+00  0.45593999997E+02  0.45594000000E+02  0.51100000000E-03 0.  1.
         11   -1    0    0    0    0 -0.00000000000E+00 -0.00000000000E+00 -0.45593999997E+02  0.45594000000E+02  0.51100000000E-03 0. -1.
    9900012    2    1    2    0    0  0.59603238530E+00 -0.96750098127E+00  0.31876550208E+00  0.90007777903E+02  0.90000039771E+02 0.  0.
        -12    1    1    2    0    0 -0.59603238530E+00  0.96750098127E+00 -0.31876550208E+00  0.11802220971E+01  0.00000000000E+00 0.  1.
         11    1    3    3    0    0  0.43415026962E+00 -0.93787391655E+01 -0.21484101292E+02  0.23446019777E+02  0.51100000000E-03 0. -1.
        -11    1    3    3    0    0 -0.14722992988E+02 -0.17546549872E+02 -0.80648722445E+01  0.24283535565E+02  0.51100000000E-03 0.  1.
        -12    1    3    3    0    0  0.14884875104E+02  0.25957788056E+02  0.29867739039E+02  0.42278222561E+02  0.00000000000E+00 0.  1.
</event>
<event>
 7    1  0.2294706E-015  0.9000777E+02  0.7816164E-02  0.1186339E+00
        -11   -1    0    0    0    0  0.00000000000E+00  0.00000000000E+00  0.45593999997E+02  0.45594000000E+02  0.51100000000E-03 0. -1.
         11   -1    0    0    0    0 -0.00000000000E+00 -0.00000000000E+00 -0.45593999997E+02  0.45594000000E+02  0.51100000000E-03 0.  1.
    9900012    2    1    2    0    0 -0.48317046141E+00  0.80314138533E+00 -0.71724765776E+00  0.90007773758E+02  0.90000035572E+02 0.  0.
        -12    1    1    2    0    0  0.48317046141E+00 -0.80314138533E+00  0.71724765776E+00  0.11802262419E+01  0.00000000000E+00 0.  1.
         11    1    3    3    0    0 -0.71183506252E+01  0.44592288723E+00  0.41042980011E+01  0.82289139737E+01  0.51100000000E-03 0. -1.
        -11    1    3    3    0    0 -0.36033488012E+02  0.80758186185E+01  0.51531273723E+01  0.37285195811E+02  0.51100000000E-03 0.  1.
         12    1    3    3    0    0  0.42668668176E+02 -0.77186001204E+01 -0.99746730311E+01  0.44493663974E+02  0.00000000000E+00 0. -1.
</event>
<event>
 7    1  0.2294706E-015  0.9000777E+02  0.7816164E-02  0.1186339E+00
        -11   -1    0    0    0    0  0.00000000000E+00  0.00000000000E+00  0.45593999997E+02  0.45594000000E+02  0.51100000000E-03 0.  1.
         11   -1    0    0    0    0 -0.00000000000E+00 -0.00000000000E+00 -0.45593999997E+02  0.45594000000E+02  0.51100000000E-03 0. -1.
    9900012    2    1    2    0    0 -0.31446942938E+00  0.77359216223E+00 -0.83402688602E+00  0.90007772606E+02  0.90000034404E+02 0.  0.
        -12    1    1    2    0    0  0.31446942938E+00 -0.77359216223E+00  0.83402688602E+00  0.11802273942E+01  0.00000000000E+00 0.  1.
         11    1    3    3    0    0 -0.24106259891E+01 -0.38981712427E+02 -0.18324160823E+02  0.43141162380E+02  0.51100000000E-03 0. -1.
        -11    1    3    3    0    0  0.30928854802E+01  0.10737705486E+02 -0.27076386290E+01  0.11497633100E+02  0.51100000000E-03 0.  1.
        -12    1    3    3    0    0 -0.99672892049E+00  0.29017599103E+02  0.20197772566E+02  0.35368977125E+02  0.00000000000E+00 0.  1.
</event>
<event>
 7    1  0.2294706E-015  0.9000717E+02  0.7816164E-02  0.1186340E+00
        -11   -1    0    0    0    0  0.00000000000E+00  0.00000000000E+00  0.45593999997E+02  0.45594000000E+02  0.51100000000E-03 0.  1.
         11   -1    0    0    0    0 -0.00000000000E+00 -0.00000000000E+00 -0.45593999997E+02  0.45594000000E+02  0.51100000000E-03 0. -1.
    9900012    2    1    2    0    0  0.10436927156E+01  0.47403894403E-01  0.55029107107E+00  0.90007168989E+02  0.89999422818E+02 0.  0.
        -12    1    1    2    0    0 -0.10436927156E+01 -0.47403894403E-01 -0.55029107107E+00  0.11808310111E+01  0.00000000000E+00 0.  1.
         11    1    3    3    0    0 -0.16976636665E+02 -0.15663561297E+02  0.98848062129E+01  0.25124942569E+02  0.51100000000E-03 0. -1.
        -11    1    3    3    0    0  0.13447330739E+02 -0.16848126043E+02 -0.20903624168E+02  0.30027513363E+02  0.51100000000E-03 0.  1.
         12    1    3    3    0    0  0.45729986413E+01  0.32559091235E+02  0.11569109026E+02  0.34854713057E+02  0.00000000000E+00 0. -1.
</event>
<event>
 7    1  0.2294706E-015  0.9000778E+02  0.7816164E-02  0.1186339E+00
        -11   -1    0    0    0    0  0.00000000000E+00  0.00000000000E+00  0.45593999997E+02  0.45594000000E+02  0.51100000000E-03 0.  1.
         11   -1    0    0    0    0 -0.00000000000E+00 -0.00000000000E+00 -0.45593999997E+02  0.45594000000E+02  0.51100000000E-03 0. -1.
    9900012    2    1    2    0    0  0.29316407671E+00 -0.92321138221E+00 -0.67428148473E+00  0.90007779702E+02  0.90000041594E+02 0.  0.
        -12    1    1    2    0    0 -0.29316407671E+00  0.92321138221E+00  0.67428148473E+00  0.11802202984E+01  0.00000000000E+00 0.  1.
         11    1    3    3    0    0  0.24284283640E+02 -0.18103872613E+02  0.19926895206E+02  0.36256830919E+02  0.51100000000E-03 0. -1.
        -11    1    3    3    0    0  0.29289061201E+01 -0.96664417195E+01  0.78271352562E+00  0.10130707147E+02  0.51100000000E-03 0.  1.
        -12    1    3    3    0    0 -0.26920025683E+02  0.26847102950E+02 -0.21383890216E+02  0.43620241636E+02  0.00000000000E+00 0.  1.
</event>
<event>
 7    1  0.2294706E-015  0.9000781E+02  0.7816164E-02  0.1186339E+00
        -11   -1    0    0    0    0  0.00000000000E+00  0.00000000000E+00  0.45593999997E+02  0.45594000000E+02  0.51100000000E-03 0. -1.
         11   -1    0    0    0    0 -0.00000000000E+00 -0.00000000000E+00 -0.45593999997E+02  0.45594000000E+02  0.51100000000E-03 0.  1.
    9900012    2    1    2    0    0 -0.10477693965E+01 -0.49499486837E+00  0.22364400685E+00  0.90007806258E+02  0.90000068500E+02 0.  0.
        -12    1    1    2    0    0  0.10477693965E+01  0.49499486837E+00 -0.22364400685E+00  0.11801937425E+01  0.00000000000E+00 0.  1.
         11    1    3    3    0    0  0.58172844143E+01  0.85790679251E+00  0.72956717590E+01  0.93703590484E+01  0.51100000000E-03 0. -1.
        -11    1    3    3    0    0  0.32896527251E+02  0.97370402760E+01 -0.16841208214E+02  0.38218029160E+02  0.51100000000E-03 0.  1.
         12    1    3    3    0    0 -0.39761581062E+02 -0.11089941937E+02  0.97691804618E+01  0.42419418049E+02  0.00000000000E+00 0. -1.
</event>
<event>
 7    1  0.2294706E-015  0.9000774E+02  0.7816164E-02  0.1186339E+00
        -11   -1    0    0    0    0  0.00000000000E+00  0.00000000000E+00  0.45593999997E+02  0.45594000000E+02  0.51100000000E-03 0.  1.
         11   -1    0    0    0    0 -0.00000000000E+00 -0.00000000000E+00 -0.45593999997E+02  0.45594000000E+02  0.51100000000E-03 0. -1.
    9900012    2    1    2    0    0  0.13150435232E+00  0.91779857984E+00 -0.73032106243E+00  0.90007738808E+02  0.90000000160E+02 0.  0.
        -12    1    1    2    0    0 -0.13150435232E+00 -0.91779857984E+00  0.73032106243E+00  0.11802611923E+01  0.00000000000E+00 0.  1.
         11    1    3    3    0    0  0.34938892209E+02  0.48933834404E+01  0.20486287857E+02  0.40796560893E+02  0.51100000000E-03 0. -1.
        -11    1    3    3    0    0 -0.67306860232E+01  0.52068046957E+01  0.48672739691E+01  0.98032293472E+01  0.51100000000E-03 0.  1.
        -12    1    3    3    0    0 -0.28076701833E+02 -0.91823895563E+01 -0.26083882888E+02  0.39407948568E+02  0.00000000000E+00 0.  1.
</event>
<event>
 7    1  0.2294706E-015  0.9000766E+02  0.7816164E-02  0.1186339E+00
        -11   -1    0    0    0    0  0.00000000000E+00  0.00000000000E+00  0.45593999997E+02  0.45594000000E+02  0.51100000000E-03 0. -1.
         11   -1    0    0    0    0 -0.00000000000E+00 -0.00000000000E+00 -0.45593999997E+02  0.45594000000E+02  0.51100000000E-03 0.  1.
    9900012    2    1    2    0    0 -0.10380440273E+00  0.32580283272E-01  0.11753104000E+01  0.90007664723E+02  0.89999925098E+02 0.  0.
        -12    1    1    2    0    0  0.10380440273E+00 -0.32580283272E-01 -0.11753104000E+01  0.11803352766E+01  0.00000000000E+00 0.  1.
         11    1    3    3    0    0 -0.70987233653E+01  0.34905495848E+02 -0.15127214849E+01  0.35652122523E+02  0.51100000000E-03 0. -1.
        -11    1    3    3    0    0 -0.10671930707E+01  0.58375497706E+01  0.10561212482E+02  0.12114251844E+02  0.51100000000E-03 0.  1.
        -12    1    3    3    0    0  0.80621120332E+01 -0.40710465336E+02 -0.78731805974E+01  0.42241290357E+02  0.00000000000E+00 0.  1.
</event>
<event>
 7    1  0.2294706E-015  0.9000772E+02  0.7816164E-02  0.1186339E+00
        -11   -1    0    0    0    0  0.00000000000E+00  0.00000000000E+00  0.45593999997E+02  0.45594000000E+02  0.51100000000E-03 0.  1.
         11   -1    0    0    0    0 -0.00000000000E+00 -0.00000000000E+00 -0.45593999997E+02  0.45594000000E+02  0.51100000000E-03 0. -1.
    9900012    2    1    2    0    0  0.51557629060E+00 -0.91567207888E+00 -0.53738309649E+00  0.90007722550E+02  0.89999983687E+02 0.  0.
        -12    1    1    2    0    0 -0.51557629060E+00  0.91567207888E+00  0.53738309649E+00  0.11802774504E+01  0.00000000000E+00 0.  1.
         11    1    3    3    0    0 -0.52868450412E+01 -0.85608955159E+01 -0.32883506873E+01  0.10585504855E+02  0.51100000000E-03 0. -1.
        -11    1    3    3    0    0 -0.19637325674E+02 -0.28827045034E+02  0.19295540123E+00  0.34880658208E+02  0.51100000000E-03 0.  1.
         12    1    3    3    0    0  0.25439747006E+02  0.36472268471E+02  0.25580121895E+01  0.44541559487E+02  0.00000000000E+00 0. -1.
</event>
<event>
 7    1  0.2294706E-015  0.9000771E+02  0.7816164E-02  0.1186339E+00
        -11   -1    0    0    0    0  0.00000000000E+00  0.00000000000E+00  0.45593999997E+02  0.45594000000E+02  0.51100000000E-03 0. -1.
         11   -1    0    0    0    0 -0.00000000000E+00 -0.00000000000E+00 -0.45593999997E+02  0.45594000000E+02  0.51100000000E-03 0.  1.
    9900012    2    1    2    0    0  0.10849926745E+01 -0.24491777927E-01  0.46397464956E+00  0.90007711295E+02  0.89999972284E+02 0.  0.
        -12    1    1    2    0    0 -0.10849926745E+01  0.24491777927E-01 -0.46397464956E+00  0.11802887047E+01  0.00000000000E+00 0.  1.
         11    1    3    3    0    0  0.26903115355E+01 -0.38099755152E+01 -0.12321646990E+02  0.13174850071E+02  0.51100000000E-03 0. -1.
        -11    1    3    3    0    0 -0.71504689208E+01  0.35226084895E+01 -0.31351013520E+02  0.32348477945E+02  0.51100000000E-03 0.  1.
         12    1    3    3    0    0  0.55451500599E+01  0.26287524777E+00  0.44136635159E+02  0.44484383280E+02  0.00000000000E+00 0. -1.
</event>
<event>
 7    1  0.2294706E-015  0.9000772E+02  0.7816164E-02  0.1186339E+00
        -11   -1    0    0    0    0  0.00000000000E+00  0.00000000000E+00  0.45593999997E+02  0.45594000000E+02  0.51100000000E-03 0. -1.
         11   -1    0    0    0    0 -0.00000000000E+00 -0.00000000000E+00 -0.45593999997E+02  0.45594000000E+02  0.51100000000E-03 0.  1.
    9900012    2    1    2    0    0 -0.47112389936E+00 -0.10737832811E+01 -0.13453319705E+00  0.90007717218E+02  0.89999978286E+02 0.  0.
        -12    1    1    2    0    0  0.47112389936E+00  0.10737832811E+01  0.13453319705E+00  0.11802827815E+01  0.00000000000E+00 0.  1.
         11    1    3    3    0    0 -0.50040460531E+01 -0.64449421976E+01 -0.16155071676E+02  0.18098731943E+02  0.51100000000E-03 0. -1.
        -11    1    3    3    0    0  0.29553124582E+00 -0.83180344731E+01 -0.26111853441E+02  0.27406311802E+02  0.51100000000E-03 0.  1.
         12    1    3    3    0    0  0.42373909079E+01  0.13689193390E+02  0.42132391920E+02  0.44502673473E+02  0.00000000000E+00 0. -1.
</event>
<event>
 7    1  0.2294706E-015  0.9000777E+02  0.7816164E-02  0.1186339E+00
        -11   -1    0    0    0    0  0.00000000000E+00  0.00000000000E+00  0.45593999997E+02  0.45594000000E+02  0.51100000000E-03 0.  1.
         11   -1    0    0    0    0 -0.00000000000E+00 -0.00000000000E+00 -0.45593999997E+02  0.45594000000E+02  0.51100000000E-03 0. -1.
    9900012    2    1    2    0    0 -0.67212953004E+00 -0.18606707406E+00 -0.95213607033E+00  0.90007770295E+02  0.90000032062E+02 0.  0.
        -12    1    1    2    0    0  0.67212953004E+00  0.18606707406E+00  0.95213607033E+00  0.11802297054E+01  0.00000000000E+00 0.  1.
         11    1    3    3    0    0 -0.22176091505E+02  0.18535177005E+02 -0.28221566597E+02  0.40395403730E+02  0.51100000000E-03 0. -1.
        -11    1    3    3    0    0 -0.48118489908E+01  0.39622946508E+01  0.70654085294E+01  0.94219779005E+01  0.51100000000E-03 0.  1.
        -12    1    3    3    0    0  0.26315810966E+02 -0.22683538730E+02  0.20204021998E+02  0.40190388664E+02  0.00000000000E+00 0.  1.
</event>
<event>
 7    1  0.2294706E-015  0.9000772E+02  0.7816164E-02  0.1186339E+00
        -11   -1    0    0    0    0  0.00000000000E+00  0.00000000000E+00  0.45593999997E+02  0.45594000000E+02  0.51100000000E-03 0. -1.
         11   -1    0    0    0    0 -0.00000000000E+00 -0.00000000000E+00 -0.45593999997E+02  0.45594000000E+02  0.51100000000E-03 0.  1.
    9900012    2    1    2    0    0 -0.10310179758E+01 -0.51123455446E+00 -0.26209026072E+00  0.90007724549E+02  0.89999985713E+02 0.  0.
        -12    1    1    2    0    0  0.10310179758E+01  0.51123455446E+00  0.26209026072E+00  0.11802754513E+01  0.00000000000E+00 0.  1.
         11    1    3    3    0    0 -0.39626015765E+01  0.64102310508E+01 -0.37370268651E+01  0.84118157035E+01  0.51100000000E-03 0. -1.
        -11    1    3    3    0    0 -0.34656253065E+02 -0.21760334716E+02 -0.10320371568E+01  0.40934498218E+02  0.51100000000E-03 0.  1.
         12    1    3    3    0    0  0.37587836665E+02  0.14838869111E+02  0.45069737611E+01  0.40661410627E+02  0.00000000000E+00 0. -1.
</event>
<event>
 7    1  0.2294706E-015  0.9000644E+02  0.7816164E-02  0.1186342E+00
        -11   -1    0    0    0    0  0.00000000000E+00  0.00000000000E+00  0.45593999997E+02  0.45594000000E+02  0.51100000000E-03 0.  1.
         11   -1    0    0    0    0 -0.00000000000E+00 -0.00000000000E+00 -0.45593999997E+02  0.45594000000E+02  0.51100000000E-03 0. -1.
    9900012    2    1    2    0    0 -0.95835883390E+00  0.66230463394E+00  0.19747200627E+00  0.90006435666E+02  0.89998679807E+02 0.  0.
        -12    1    1    2    0    0  0.95835883390E+00 -0.66230463394E+00 -0.19747200627E+00  0.11815643342E+01  0.00000000000E+00 0.  1.
         11    1    3    3    0    0  0.19680075166E+02 -0.65730790359E+01 -0.29840137845E+02  0.36344800913E+02  0.51100000000E-03 0. -1.
        -11    1    3    3    0    0 -0.45206371089E+01 -0.58009844960E+01 -0.76732940615E+01  0.10628594592E+02  0.51100000000E-03 0.  1.
        -12    1    3    3    0    0 -0.16117796891E+02  0.13036368166E+02  0.37710903912E+02  0.43033040161E+02  0.00000000000E+00 0.  1.
</event>
<event>
 7    1  0.2294706E-015  0.9000762E+02  0.7816164E-02  0.1186339E+00
        -11   -1    0    0    0    0  0.00000000000E+00  0.00000000000E+00  0.45593999997E+02  0.45594000000E+02  0.51100000000E-03 0. -1.
         11   -1    0    0    0    0 -0.00000000000E+00 -0.00000000000E+00 -0.45593999997E+02  0.45594000000E+02  0.51100000000E-03 0.  1.
    9900012    2    1    2    0    0  0.81554192396E+00  0.21872026057E-01  0.85306402760E+00  0.90007616482E+02  0.89999876219E+02 0.  0.
        -12    1    1    2    0    0 -0.81554192396E+00 -0.21872026057E-01 -0.85306402760E+00  0.11803835184E+01  0.00000000000E+00 0.  1.
         11    1    3    3    0    0  0.10198083441E+01 -0.35419323496E+02  0.10211254488E+02  0.36875984115E+02  0.51100000000E-03 0. -1.
        -11    1    3    3    0    0 -0.12749435930E+02 -0.14233145253E+01 -0.56406237072E+01  0.14013942230E+02  0.51100000000E-03 0.  1.
        -12    1    3    3    0    0  0.12545169510E+02  0.36864510047E+02 -0.37175667534E+01  0.39117690136E+02  0.00000000000E+00 0.  1.
</event>
<event>
 7    1  0.2294706E-015  0.9000778E+02  0.7816164E-02  0.1186339E+00
        -11   -1    0    0    0    0  0.00000000000E+00  0.00000000000E+00  0.45593999997E+02  0.45594000000E+02  0.51100000000E-03 0. -1.
         11   -1    0    0    0    0 -0.00000000000E+00 -0.00000000000E+00 -0.45593999997E+02  0.45594000000E+02  0.51100000000E-03 0.  1.
    9900012    2    1    2    0    0  0.63468189488E+00  0.47700893884E+00  0.87324291203E+00  0.90007783148E+02  0.90000045085E+02 0.  0.
        -12    1    1    2    0    0 -0.63468189488E+00 -0.47700893884E+00 -0.87324291203E+00  0.11802168525E+01  0.00000000000E+00 0.  1.
         11    1    3    3    0    0 -0.22700137864E+02  0.45977422137E+01  0.28444650154E+02  0.36681515988E+02  0.51100000000E-03 0. -1.
        -11    1    3    3    0    0 -0.87193750848E+01 -0.63076834619E+01  0.33972232034E+00  0.10767069427E+02  0.51100000000E-03 0.  1.
        -12    1    3    3    0    0  0.32054194844E+02  0.21869501871E+01 -0.27911129563E+02  0.42559197733E+02  0.00000000000E+00 0.  1.
</event>
<event>
 7    1  0.2294706E-015  0.9000772E+02  0.7816164E-02  0.1186339E+00
        -11   -1    0    0    0    0  0.00000000000E+00  0.00000000000E+00  0.45593999997E+02  0.45594000000E+02  0.51100000000E-03 0. -1.
         11   -1    0    0    0    0 -0.00000000000E+00 -0.00000000000E+00 -0.45593999997E+02  0.45594000000E+02  0.51100000000E-03 0.  1.
    9900012    2    1    2    0    0  0.94685517877E+00  0.62747868501E+00  0.32061017880E+00  0.90007722441E+02  0.89999983577E+02 0.  0.
        -12    1    1    2    0    0 -0.94685517877E+00 -0.62747868501E+00 -0.32061017880E+00  0.11802775591E+01  0.00000000000E+00 0.  1.
         11    1    3    3    0    0 -0.13832925747E+02 -0.27928860990E+02  0.22655681560E+02  0.38531169436E+02  0.51100000000E-03 0. -1.
        -11    1    3    3    0    0  0.82589899578E-01  0.56653173438E+01  0.85895344700E+01  0.10289934129E+02  0.51100000000E-03 0.  1.
        -12    1    3    3    0    0  0.14697191026E+02  0.22891022331E+02 -0.30924605851E+02  0.41186618876E+02  0.00000000000E+00 0.  1.
</event>
<event>
 7    1  0.2294706E-015  0.9000771E+02  0.7816164E-02  0.1186339E+00
        -11   -1    0    0    0    0  0.00000000000E+00  0.00000000000E+00  0.45593999997E+02  0.45594000000E+02  0.51100000000E-03 0.  1.
         11   -1    0    0    0    0 -0.00000000000E+00 -0.00000000000E+00 -0.45593999997E+02  0.45594000000E+02  0.51100000000E-03 0. -1.
    9900012    2    1    2    0    0  0.10464637519E+01 -0.96397450594E-01 -0.53730927505E+00  0.90007711853E+02  0.89999972850E+02 0.  0.
        -12    1    1    2    0    0 -0.10464637519E+01  0.96397450594E-01  0.53730927505E+00  0.11802881468E+01  0.00000000000E+00 0.  1.
         11    1    3    3    0    0  0.35485411416E+01 -0.92658693114E+01 -0.24090549912E+01  0.10210388070E+02  0.51100000000E-03 0. -1.
        -11    1    3    3    0    0  0.11773759144E+02 -0.22617174973E+02 -0.25064629712E+02  0.35754631462E+02  0.51100000000E-03 0.  1.
         12    1    3    3    0    0 -0.14275836534E+02  0.31786646833E+02  0.26936375428E+02  0.44042692321E+02  0.00000000000E+00 0. -1.
</event>
<event>
 7    1  0.2294706E-015  0.9000774E+02  0.7816164E-02  0.1186339E+00
        -11   -1    0    0    0    0  0.00000000000E+00  0.00000000000E+00  0.45593999997E+02  0.45594000000E+02  0.51100000000E-03 0.  1.
         11   -1    0    0    0    0 -0.00000000000E+00 -0.00000000000E+00 -0.45593999997E+02  0.45594000000E+02  0.51100000000E-03 0. -1.
    9900012    2    1    2    0    0 -0.55099851418E+00 -0.10358270739E+01 -0.12836255233E+00  0.90007739845E+02  0.90000001210E+02 0.  0.
        -12    1    1    2    0    0  0.55099851418E+00  0.10358270739E+01  0.12836255233E+00  0.11802601555E+01  0.00000000000E+00 0.  1.
         11    1    3    3    0    0  0.66701356757E+01 -0.30376674017E+02 -0.23244559271E+02  0.38827085523E+02  0.51100000000E-03 0. -1.
        -11    1    3    3    0    0  0.78299426244E+01  0.17807794468E+01 -0.46365236959E+01  0.92723529475E+01  0.51100000000E-03 0.  1.
        -12    1    3    3    0    0 -0.15051076814E+02  0.27560067496E+02  0.27752720415E+02  0.41908301374E+02  0.00000000000E+00 0.  1.
</event>
<event>
 7    1  0.2294706E-015  0.9000766E+02  0.7816164E-02  0.1186339E+00
        -11   -1    0    0    0    0  0.00000000000E+00  0.00000000000E+00  0.45593999997E+02  0.45594000000E+02  0.51100000000E-03 0.  1.
         11   -1    0    0    0    0 -0.00000000000E+00 -0.00000000000E+00 -0.45593999997E+02  0.45594000000E+02  0.51100000000E-03 0. -1.
    9900012    2    1    2    0    0 -0.89081020770E+00 -0.65408042146E+00  0.41454757486E+00  0.90007655256E+02  0.89999915505E+02 0.  0.
        -12    1    1    2    0    0  0.89081020770E+00  0.65408042146E+00 -0.41454757486E+00  0.11803447444E+01  0.00000000000E+00 0.  1.
         11    1    3    3    0    0  0.11475086631E+02  0.40773920395E+02 -0.93030681131E+00  0.42368097297E+02  0.51100000000E-03 0. -1.
        -11    1    3    3    0    0 -0.48614103495E+01 -0.16340242319E+02 -0.92446522171E+01  0.19393308756E+02  0.51100000000E-03 0.  1.
        -12    1    3    3    0    0 -0.75044864896E+01 -0.25087758497E+02  0.10589506603E+02  0.28246249202E+02  0.00000000000E+00 0.  1.
</event>
<event>
 7    1  0.2294706E-015  0.9000777E+02  0.7816164E-02  0.1186339E+00
        -11   -1    0    0    0    0  0.00000000000E+00  0.00000000000E+00  0.45593999997E+02  0.45594000000E+02  0.51100000000E-03 0.  1.
         11   -1    0    0    0    0 -0.00000000000E+00 -0.00000000000E+00 -0.45593999997E+02  0.45594000000E+02  0.51100000000E-03 0. -1.
    9900012    2    1    2    0    0 -0.48876696331E+00  0.36201815471E+00 -0.10114298228E+01  0.90007770965E+02  0.90000032742E+02 0.  0.
        -12    1    1    2    0    0  0.48876696331E+00 -0.36201815471E+00  0.10114298228E+01  0.11802290351E+01  0.00000000000E+00 0.  1.
         11    1    3    3    0    0  0.13323174672E+01 -0.51755377184E+01  0.69932479858E+01  0.88015213549E+01  0.51100000000E-03 0. -1.
        -11    1    3    3    0    0 -0.50803694248E+01 -0.12334039959E+01  0.36094631964E+02  0.36471274941E+02  0.51100000000E-03 0.  1.
         12    1    3    3    0    0  0.32592849943E+01  0.67709598690E+01 -0.44099309773E+02  0.44734974669E+02  0.00000000000E+00 0. -1.
</event>
<event>
 7    1  0.2294706E-015  0.9000784E+02  0.7816164E-02  0.1186339E+00
        -11   -1    0    0    0    0  0.00000000000E+00  0.00000000000E+00  0.45593999997E+02  0.45594000000E+02  0.51100000000E-03 0. -1.
         11   -1    0    0    0    0 -0.00000000000E+00 -0.00000000000E+00 -0.45593999997E+02  0.45594000000E+02  0.51100000000E-03 0.  1.
    9900012    2    1    2    0    0 -0.74783163386E+00 -0.60167440027E+00  0.68667488862E+00  0.90007836181E+02  0.90000098819E+02 0.  0.
        -12    1    1    2    0    0  0.74783163386E+00  0.60167440027E+00 -0.68667488862E+00  0.11801638188E+01  0.00000000000E+00 0.  1.
         11    1    3    3    0    0  0.30078339030E+02  0.25984242420E+02  0.77066335594E+01  0.40488017166E+02  0.51100000000E-03 0. -1.
        -11    1    3    3    0    0 -0.29593620019E+01 -0.75536369800E+01  0.90406594569E+01  0.12146965825E+02  0.51100000000E-03 0.  1.
        -12    1    3    3    0    0 -0.27866808662E+02 -0.19032279841E+02 -0.16060618128E+02  0.37372853190E+02  0.00000000000E+00 0.  1.
</event>
<event>
 7    1  0.2294706E-015  0.9000776E+02  0.7816164E-02  0.1186339E+00
        -11   -1    0    0    0    0  0.00000000000E+00  0.00000000000E+00  0.45593999997E+02  0.45594000000E+02  0.51100000000E-03 0.  1.
         11   -1    0    0    0    0 -0.00000000000E+00 -0.00000000000E+00 -0.45593999997E+02  0.45594000000E+02  0.51100000000E-03 0. -1.
    9900012    2    1    2    0    0 -0.68989108179E-01  0.61542694867E+00 -0.10047216989E+01  0.90007756161E+02  0.90000017743E+02 0.  0.
        -12    1    1    2    0    0  0.68989108179E-01 -0.61542694867E+00  0.10047216989E+01  0.11802438386E+01  0.00000000000E+00 0.  1.
         11    1    3    3    0    0  0.21858036679E+02 -0.56203260858E+01 -0.30000457391E+02  0.37541833688E+02  0.51100000000E-03 0. -1.
        -11    1    3    3    0    0  0.51116177604E+01 -0.91360010470E+01  0.82366913717E+00  0.10501122910E+02  0.51100000000E-03 0.  1.
        -12    1    3    3    0    0 -0.27038643547E+02  0.15371754081E+02  0.28172066555E+02  0.41964799563E+02  0.00000000000E+00 0.  1.
</event>
<event>
 7    1  0.2294706E-015  0.9000770E+02  0.7816164E-02  0.1186339E+00
        -11   -1    0    0    0    0  0.00000000000E+00  0.00000000000E+00  0.45593999997E+02  0.45594000000E+02  0.51100000000E-03 0.  1.
         11   -1    0    0    0    0 -0.00000000000E+00 -0.00000000000E+00 -0.45593999997E+02  0.45594000000E+02  0.51100000000E-03 0. -1.
    9900012    2    1    2    0    0 -0.11548939846E+01  0.17115593820E+00  0.17327931018E+00  0.90007703347E+02  0.89999964231E+02 0.  0.
        -12    1    1    2    0    0  0.11548939846E+01 -0.17115593820E+00 -0.17327931018E+00  0.11802966534E+01  0.00000000000E+00 0.  1.
         11    1    3    3    0    0  0.23456175644E+02  0.21363136533E+01 -0.32087968312E+02  0.39804443502E+02  0.51100000000E-03 0. -1.
        -11    1    3    3    0    0  0.18765966746E+01  0.81979268380E+01  0.18457304116E+01  0.86101301113E+01  0.51100000000E-03 0.  1.
        -12    1    3    3    0    0 -0.26487666303E+02 -0.10163084553E+02  0.30415517211E+02  0.41593129733E+02  0.00000000000E+00 0.  1.
</event>
<event>
 7    1  0.2294706E-015  0.9000830E+02  0.7816164E-02  0.1186338E+00
        -11   -1    0    0    0    0  0.00000000000E+00  0.00000000000E+00  0.45593999997E+02  0.45594000000E+02  0.51100000000E-03 0.  1.
         11   -1    0    0    0    0 -0.00000000000E+00 -0.00000000000E+00 -0.45593999997E+02  0.45594000000E+02  0.51100000000E-03 0. -1.
    9900012    2    1    2    0    0 -0.36616764039E+00  0.84031589316E+00 -0.74261405572E+00  0.90008302930E+02  0.90000571727E+02 0.  0.
        -12    1    1    2    0    0  0.36616764039E+00 -0.84031589316E+00  0.74261405572E+00  0.11796970700E+01  0.00000000000E+00 0.  1.
         11    1    3    3    0    0 -0.80071117593E+01 -0.24623620756E+01 -0.26730018681E+01  0.87932931809E+01  0.51100000000E-03 0. -1.
        -11    1    3    3    0    0  0.79670879004E+01 -0.29410678205E+02 -0.24546769917E+02  0.39128076821E+02  0.51100000000E-03 0.  1.
         12    1    3    3    0    0 -0.32614378153E+00  0.32713356174E+02  0.26477157729E+02  0.42086932928E+02  0.00000000000E+00 0. -1.
</event>
<event>
 7    1  0.2294706E-015  0.9000778E+02  0.7816164E-02  0.1186339E+00
        -11   -1    0    0    0    0  0.00000000000E+00  0.00000000000E+00  0.45593999997E+02  0.45594000000E+02  0.51100000000E-03 0. -1.
         11   -1    0    0    0    0 -0.00000000000E+00 -0.00000000000E+00 -0.45593999997E+02  0.45594000000E+02  0.51100000000E-03 0.  1.
    9900012    2    1    2    0    0 -0.11696165100E+01  0.14236361780E+00  0.68109846616E-01  0.90007784286E+02  0.90000046239E+02 0.  0.
        -12    1    1    2    0    0  0.11696165100E+01 -0.14236361780E+00 -0.68109846616E-01  0.11802157139E+01  0.00000000000E+00 0.  1.
         11    1    3    3    0    0 -0.24981553042E+01  0.50228348228E+01  0.57544718348E+01  0.80363919728E+01  0.51100000000E-03 0. -1.
        -11    1    3    3    0    0  0.20357888428E+02  0.26630559538E+02  0.18147820550E+02  0.38117892302E+02  0.51100000000E-03 0.  1.
         12    1    3    3    0    0 -0.19029349634E+02 -0.31511030743E+02 -0.23834182538E+02  0.43853500011E+02  0.00000000000E+00 0. -1.
</event>
<event>
 7    1  0.2294706E-015  0.9000772E+02  0.7816164E-02  0.1186339E+00
        -11   -1    0    0    0    0  0.00000000000E+00  0.00000000000E+00  0.45593999997E+02  0.45594000000E+02  0.51100000000E-03 0.  1.
         11   -1    0    0    0    0 -0.00000000000E+00 -0.00000000000E+00 -0.45593999997E+02  0.45594000000E+02  0.51100000000E-03 0. -1.
    9900012    2    1    2    0    0 -0.18921233067E+00  0.40508356899E+00 -0.10923192696E+01  0.90007722325E+02  0.89999983459E+02 0.  0.
        -12    1    1    2    0    0  0.18921233067E+00 -0.40508356899E+00  0.10923192696E+01  0.11802776753E+01  0.00000000000E+00 0.  1.
         11    1    3    3    0    0 -0.88751142531E+01  0.46666884882E+01  0.56727851941E+01  0.11520682557E+02  0.51100000000E-03 0. -1.
        -11    1    3    3    0    0 -0.92758566072E+01 -0.30714595879E+01  0.33225085951E+02  0.34632090848E+02  0.51100000000E-03 0.  1.
         12    1    3    3    0    0  0.17961758530E+02 -0.11901453313E+01 -0.39990190415E+02  0.43854948920E+02  0.00000000000E+00 0. -1.
</event>
<event>
 7    1  0.2294706E-015  0.9000766E+02  0.7816164E-02  0.1186339E+00
        -11   -1    0    0    0    0  0.00000000000E+00  0.00000000000E+00  0.45593999997E+02  0.45594000000E+02  0.51100000000E-03 0.  1.
         11   -1    0    0    0    0 -0.00000000000E+00 -0.00000000000E+00 -0.45593999997E+02  0.45594000000E+02  0.51100000000E-03 0. -1.
    9900012    2    1    2    0    0  0.25887408648E-01  0.88054752709E+00 -0.78560722021E+00  0.90007655639E+02  0.89999915894E+02 0.  0.
        -12    1    1    2    0    0 -0.25887408648E-01 -0.88054752709E+00  0.78560722021E+00  0.11803443607E+01  0.00000000000E+00 0.  1.
         11    1    3    3    0    0  0.14786280417E+02  0.21318760375E+01  0.50259781235E+01  0.15761961819E+02  0.51100000000E-03 0. -1.
        -11    1    3    3    0    0  0.20275248429E+02 -0.10759310193E+01  0.21686175110E+02  0.29707465688E+02  0.51100000000E-03 0.  1.
         12    1    3    3    0    0 -0.35035641438E+02 -0.17539749103E+00 -0.27497760453E+02  0.44538228133E+02  0.00000000000E+00 0. -1.
</event>
<event>
 7    1  0.2294706E-015  0.9000786E+02  0.7816164E-02  0.1186339E+00
        -11   -1    0    0    0    0  0.00000000000E+00  0.00000000000E+00  0.45593999997E+02  0.45594000000E+02  0.51100000000E-03 0.  1.
         11   -1    0    0    0    0 -0.00000000000E+00 -0.00000000000E+00 -0.45593999997E+02  0.45594000000E+02  0.51100000000E-03 0. -1.
    9900012    2    1    2    0    0 -0.10120811162E+01 -0.35806495886E-01 -0.60591195015E+00  0.90007864592E+02  0.90000127604E+02 0.  0.
        -12    1    1    2    0    0  0.10120811162E+01  0.35806495886E-01  0.60591195015E+00  0.11801354084E+01  0.00000000000E+00 0.  1.
         11    1    3    3    0    0 -0.65821028029E+01  0.24250818909E+02 -0.21106933074E+02  0.32816595179E+02  0.51100000000E-03 0. -1.
        -11    1    3    3    0    0  0.70947671350E+01  0.56740309056E+01 -0.10613108715E+02  0.13970269298E+02  0.51100000000E-03 0.  1.
        -12    1    3    3    0    0 -0.15247454483E+01 -0.29960656311E+02  0.31114129839E+02  0.43221000114E+02  0.00000000000E+00 0.  1.
</event>
<event>
 7    1  0.2294706E-015  0.9000775E+02  0.7816164E-02  0.1186339E+00
        -11   -1    0    0    0    0  0.00000000000E+00  0.00000000000E+00  0.45593999997E+02  0.45594000000E+02  0.51100000000E-03 0. -1.
         11   -1    0    0    0    0 -0.00000000000E+00 -0.00000000000E+00 -0.45593999997E+02  0.45594000000E+02  0.51100000000E-03 0.  1.
    9900012    2    1    2    0    0 -0.11493259476E+01  0.12263033193E+00  0.23872906681E+00  0.90007754305E+02  0.90000015862E+02 0.  0.
        -12    1    1    2    0    0  0.11493259476E+01 -0.12263033193E+00 -0.23872906681E+00  0.11802456945E+01  0.00000000000E+00 0.  1.
         11    1    3    3    0    0  0.50466117568E+01  0.47840704203E+01  0.17466291845E+01  0.71698210424E+01  0.51100000000E-03 0. -1.
        -11    1    3    3    0    0 -0.23361654700E+02  0.33579409116E+02 -0.92793969625E+00  0.40917046560E+02  0.51100000000E-03 0.  1.
         12    1    3    3    0    0  0.17165716995E+02 -0.38240849205E+02 -0.57996042141E+00  0.41920886703E+02  0.00000000000E+00 0. -1.
</event>
<event>
 7    1  0.2294706E-015  0.9000778E+02  0.7816164E-02  0.1186339E+00
        -11   -1    0    0    0    0  0.00000000000E+00  0.00000000000E+00  0.45593999997E+02  0.45594000000E+02  0.51100000000E-03 0.  1.
         11   -1    0    0    0    0 -0.00000000000E+00 -0.00000000000E+00 -0.45593999997E+02  0.45594000000E+02  0.51100000000E-03 0. -1.
    9900012    2    1    2    0    0  0.15081631269E+00  0.11701975008E+01  0.28345426577E-01  0.90007783404E+02  0.90000045345E+02 0.  0.
        -12    1    1    2    0    0 -0.15081631269E+00 -0.11701975008E+01 -0.28345426577E-01  0.11802165963E+01  0.00000000000E+00 0.  1.
         11    1    3    3    0    0  0.30122271166E+02  0.19659311734E+02 -0.16199599628E+02  0.39449547354E+02  0.51100000000E-03 0. -1.
        -11    1    3    3    0    0  0.49496794956E+01 -0.58913622774E+01 -0.35729600930E+01  0.84837209219E+01  0.51100000000E-03 0.  1.
        -12    1    3    3    0    0 -0.34921134349E+02 -0.12597751956E+02  0.19800905148E+02  0.42074515128E+02  0.00000000000E+00 0.  1.
</event>
<event>
 7    1  0.2294706E-015  0.9000775E+02  0.7816164E-02  0.1186339E+00
        -11   -1    0    0    0    0  0.00000000000E+00  0.00000000000E+00  0.45593999997E+02  0.45594000000E+02  0.51100000000E-03 0.  1.
         11   -1    0    0    0    0 -0.00000000000E+00 -0.00000000000E+00 -0.45593999997E+02  0.45594000000E+02  0.51100000000E-03 0. -1.
    9900012    2    1    2    0    0 -0.28012958174E-01 -0.22563323302E+00 -0.11581386286E+01  0.90007754193E+02  0.90000015748E+02 0.  0.
        -12    1    1    2    0    0  0.28012958174E-01  0.22563323302E+00  0.11581386286E+01  0.11802458070E+01  0.00000000000E+00 0.  1.
         11    1    3    3    0    0 -0.27944015708E+01  0.93606500954E+01 -0.10537922273E+01  0.98255243457E+01  0.51100000000E-03 0. -1.
        -11    1    3    3    0    0 -0.24681256669E+01 -0.12183479717E+02  0.38850881431E+02  0.40791173194E+02  0.51100000000E-03 0.  1.
         12    1    3    3    0    0  0.52345142795E+01  0.25971963886E+01 -0.38955227832E+02  0.39391056653E+02  0.00000000000E+00 0. -1.
</event>
<event>
 7    1  0.2294706E-015  0.9000781E+02  0.7816164E-02  0.1186339E+00
        -11   -1    0    0    0    0  0.00000000000E+00  0.00000000000E+00  0.45593999997E+02  0.45594000000E+02  0.51100000000E-03 0.  1.
         11   -1    0    0    0    0 -0.00000000000E+00 -0.00000000000E+00 -0.45593999997E+02  0.45594000000E+02  0.51100000000E-03 0. -1.
    9900012    2    1    2    0    0 -0.82336561029E+00 -0.81372131435E+00  0.22973327980E+00  0.90007809047E+02  0.90000071326E+02 0.  0.
        -12    1    1    2    0    0  0.82336561029E+00  0.81372131435E+00 -0.22973327980E+00  0.11801909530E+01  0.00000000000E+00 0.  1.
         11    1    3    3    0    0 -0.15489283573E+02  0.25288506528E+02 -0.23781496528E+02  0.38012972068E+02  0.51100000000E-03 0. -1.
        -11    1    3    3    0    0  0.39773657799E+01  0.64418679031E+01 -0.32279971395E+01  0.82302531202E+01  0.51100000000E-03 0.  1.
        -12    1    3    3    0    0  0.10688552183E+02 -0.32544095746E+02  0.27239226947E+02  0.43764583859E+02  0.00000000000E+00 0.  1.
</event>
<event>
 7    1  0.2294706E-015  0.9000775E+02  0.7816164E-02  0.1186339E+00
        -11   -1    0    0    0    0  0.00000000000E+00  0.00000000000E+00  0.45593999997E+02  0.45594000000E+02  0.51100000000E-03 0. -1.
         11   -1    0    0    0    0 -0.00000000000E+00 -0.00000000000E+00 -0.45593999997E+02  0.45594000000E+02  0.51100000000E-03 0.  1.
    9900012    2    1    2    0    0  0.73891522599E+00 -0.90998734669E+00  0.13758024597E+00  0.90007745364E+02  0.90000006803E+02 0.  0.
        -12    1    1    2    0    0 -0.73891522599E+00  0.90998734669E+00 -0.13758024597E+00  0.11802546363E+01  0.00000000000E+00 0.  1.
         11    1    3    3    0    0 -0.81044413430E+01  0.67939983024E+01 -0.70301195494E+00  0.10598802219E+02  0.51100000000E-03 0. -1.
        -11    1    3    3    0    0 -0.54055399421E+00  0.19654265607E+02 -0.30800206397E+02  0.36540868483E+02  0.51100000000E-03 0.  1.
         12    1    3    3    0    0  0.93839105632E+01 -0.27358251256E+02  0.31640798598E+02  0.42868074661E+02  0.00000000000E+00 0. -1.
</event>
<event>
 7    1  0.2294706E-015  0.9000775E+02  0.7816164E-02  0.1186339E+00
        -11   -1    0    0    0    0  0.00000000000E+00  0.00000000000E+00  0.45593999997E+02  0.45594000000E+02  0.51100000000E-03 0. -1.
         11   -1    0    0    0    0 -0.00000000000E+00 -0.00000000000E+00 -0.45593999997E+02  0.45594000000E+02  0.51100000000E-03 0.  1.
    9900012    2    1    2    0    0 -0.38414986608E+00  0.39798313835E+00  0.10426113798E+01  0.90007745711E+02  0.90000007154E+02 0.  0.
        -12    1    1    2    0    0  0.38414986608E+00 -0.39798313835E+00 -0.10426113798E+01  0.11802542893E+01  0.00000000000E+00 0.  1.
         11    1    3    3    0    0  0.14185730465E+02 -0.20044059377E+02 -0.25220980498E+02  0.35200811392E+02  0.51100000000E-03 0. -1.
        -11    1    3    3    0    0  0.10011013729E+02 -0.62495026599E-01 -0.39759871904E+01  0.10771851091E+02  0.51100000000E-03 0.  1.
        -12    1    3    3    0    0 -0.24580894061E+02  0.20504537542E+02  0.30239579069E+02  0.44035083228E+02  0.00000000000E+00 0.  1.
</event>
<event>
 7    1  0.2294706E-015  0.9000774E+02  0.7816164E-02  0.1186339E+00
        -11   -1    0    0    0    0  0.00000000000E+00  0.00000000000E+00  0.45593999997E+02  0.45594000000E+02  0.51100000000E-03 0. -1.
         11   -1    0    0    0    0 -0.00000000000E+00 -0.00000000000E+00 -0.45593999997E+02  0.45594000000E+02  0.51100000000E-03 0.  1.
    9900012    2    1    2    0    0 -0.85755171399E+00 -0.75762921583E+00  0.28916093768E+00  0.90007741122E+02  0.90000002505E+02 0.  0.
        -12    1    1    2    0    0  0.85755171399E+00  0.75762921583E+00 -0.28916093768E+00  0.11802588778E+01  0.00000000000E+00 0.  1.
         11    1    3    3    0    0 -0.10940116167E+02 -0.41527595505E+02 -0.49206198411E+01  0.43225453497E+02  0.51100000000E-03 0. -1.
        -11    1    3    3    0    0  0.76619671410E+00  0.74605630153E+01 -0.68451654257E+01  0.10153981873E+02  0.51100000000E-03 0.  1.
        -12    1    3    3    0    0  0.93163677388E+01  0.33309403273E+02  0.12054946205E+02  0.36628305752E+02  0.00000000000E+00 0.  1.
</event>
<event>
 7    1  0.2294706E-015  0.9000775E+02  0.7816164E-02  0.1186339E+00
        -11   -1    0    0    0    0  0.00000000000E+00  0.00000000000E+00  0.45593999997E+02  0.45594000000E+02  0.51100000000E-03 0.  1.
         11   -1    0    0    0    0 -0.00000000000E+00 -0.00000000000E+00 -0.45593999997E+02  0.45594000000E+02  0.51100000000E-03 0. -1.
    9900012    2    1    2    0    0  0.23758852313E-01  0.44481660793E+00 -0.10929613154E+01  0.90007749715E+02  0.90000011211E+02 0.  0.
        -12    1    1    2    0    0 -0.23758852313E-01 -0.44481660793E+00  0.10929613154E+01  0.11802502848E+01  0.00000000000E+00 0.  1.
         11    1    3    3    0    0 -0.28092954361E+02 -0.31318653593E+02 -0.12712718537E+02  0.43950942657E+02  0.51100000000E-03 0. -1.
        -11    1    3    3    0    0  0.58105649301E+01  0.72007321457E+01 -0.31004287734E+01  0.97583742027E+01  0.51100000000E-03 0.  1.
        -12    1    3    3    0    0  0.22306148284E+02  0.24562738055E+02  0.14720185995E+02  0.36298432855E+02  0.00000000000E+00 0.  1.
</event>
<event>
 7    1  0.2294706E-015  0.9000778E+02  0.7816164E-02  0.1186339E+00
        -11   -1    0    0    0    0  0.00000000000E+00  0.00000000000E+00  0.45593999997E+02  0.45594000000E+02  0.51100000000E-03 0. -1.
         11   -1    0    0    0    0 -0.00000000000E+00 -0.00000000000E+00 -0.45593999997E+02  0.45594000000E+02  0.51100000000E-03 0.  1.
    9900012    2    1    2    0    0  0.59062383307E+00  0.10207538963E+01 -0.46337344612E-01  0.90007778759E+02  0.90000040638E+02 0.  0.
        -12    1    1    2    0    0 -0.59062383307E+00 -0.10207538963E+01  0.46337344612E-01  0.11802212413E+01  0.00000000000E+00 0.  1.
         11    1    3    3    0    0 -0.27185222719E+02  0.14366450716E+02  0.15203908416E+02  0.34301458742E+02  0.51100000000E-03 0. -1.
        -11    1    3    3    0    0 -0.83098876408E+01  0.50802377557E+01  0.43851261989E+01  0.10681403480E+02  0.51100000000E-03 0.  1.
        -12    1    3    3    0    0  0.36085734193E+02 -0.18425934575E+02 -0.19635371959E+02  0.45024916537E+02  0.00000000000E+00 0.  1.
</event>
<event>
 7    1  0.2294706E-015  0.9000766E+02  0.7816164E-02  0.1186339E+00
        -11   -1    0    0    0    0  0.00000000000E+00  0.00000000000E+00  0.45593999997E+02  0.45594000000E+02  0.51100000000E-03 0.  1.
         11   -1    0    0    0    0 -0.00000000000E+00 -0.00000000000E+00 -0.45593999997E+02  0.45594000000E+02  0.51100000000E-03 0. -1.
    9900012    2    1    2    0    0 -0.14172115956E+00 -0.10897591840E+01 -0.43075000392E+00  0.90007658722E+02  0.89999919017E+02 0.  0.
        -12    1    1    2    0    0  0.14172115956E+00  0.10897591840E+01  0.43075000393E+00  0.11803412778E+01  0.00000000000E+00 0.  1.
         11    1    3    3    0    0 -0.18355531783E+02  0.29154350820E+02  0.14788639521E+02  0.37491406721E+02  0.51100000000E-03 0. -1.
        -11    1    3    3    0    0 -0.91162790741E+01 -0.37492588346E+01  0.30172454371E+01  0.10308601081E+02  0.51100000000E-03 0.  1.
        -12    1    3    3    0    0  0.27330089698E+02 -0.26494851170E+02 -0.18236634962E+02  0.42207650920E+02  0.00000000000E+00 0.  1.
</event>
<event>
 7    1  0.2294706E-015  0.9000784E+02  0.7816164E-02  0.1186339E+00
        -11   -1    0    0    0    0  0.00000000000E+00  0.00000000000E+00  0.45593999997E+02  0.45594000000E+02  0.51100000000E-03 0. -1.
         11   -1    0    0    0    0 -0.00000000000E+00 -0.00000000000E+00 -0.45593999997E+02  0.45594000000E+02  0.51100000000E-03 0.  1.
    9900012    2    1    2    0    0  0.65030400125E+00  0.14718890614E+00 -0.97377025350E+00  0.90007835446E+02  0.90000098074E+02 0.  0.
        -12    1    1    2    0    0 -0.65030400125E+00 -0.14718890614E+00  0.97377025350E+00  0.11801645541E+01  0.00000000000E+00 0.  1.
         11    1    3    3    0    0  0.40225137695E+00  0.56718108630E+01  0.68251044088E+01  0.88833155459E+01  0.51100000000E-03 0. -1.
        -11    1    3    3    0    0 -0.14324547744E+02  0.30655107210E+02  0.13796026596E+02  0.36541190679E+02  0.51100000000E-03 0.  1.
         12    1    3    3    0    0  0.14572600369E+02 -0.36179729167E+02 -0.21594901258E+02  0.44583329221E+02  0.00000000000E+00 0. -1.
</event>
<event>
 7    1  0.2294706E-015  0.9000790E+02  0.7816164E-02  0.1186339E+00
        -11   -1    0    0    0    0  0.00000000000E+00  0.00000000000E+00  0.45593999997E+02  0.45594000000E+02  0.51100000000E-03 0.  1.
         11   -1    0    0    0    0 -0.00000000000E+00 -0.00000000000E+00 -0.45593999997E+02  0.45594000000E+02  0.51100000000E-03 0. -1.
    9900012    2    1    2    0    0  0.16973189009E+00  0.68601782884E+00 -0.94509511117E+00  0.90007900790E+02  0.90000164280E+02 0.  0.
        -12    1    1    2    0    0 -0.16973189009E+00 -0.68601782884E+00  0.94509511117E+00  0.11800992099E+01  0.00000000000E+00 0.  1.
         11    1    3    3    0    0 -0.18934590500E+02  0.21383566394E+02 -0.27632865724E+02  0.39741048017E+02  0.51100000000E-03 0. -1.
        -11    1    3    3    0    0 -0.32756444487E+01 -0.61763781376E+01 -0.51837628036E+01  0.87033838544E+01  0.51100000000E-03 0.  1.
        -12    1    3    3    0    0  0.22379966839E+02 -0.14521170427E+02  0.31871533416E+02  0.41563468919E+02  0.00000000000E+00 0.  1.
</event>
<event>
 7    1  0.2294706E-015  0.9000778E+02  0.7816164E-02  0.1186339E+00
        -11   -1    0    0    0    0  0.00000000000E+00  0.00000000000E+00  0.45593999997E+02  0.45594000000E+02  0.51100000000E-03 0. -1.
         11   -1    0    0    0    0 -0.00000000000E+00 -0.00000000000E+00 -0.45593999997E+02  0.45594000000E+02  0.51100000000E-03 0.  1.
    9900012    2    1    2    0    0 -0.74441379459E+00  0.19296828375E+00  0.89527846483E+00  0.90007782992E+02  0.90000044928E+02 0.  0.
        -12    1    1    2    0    0  0.74441379459E+00 -0.19296828375E+00 -0.89527846483E+00  0.11802170079E+01  0.00000000000E+00 0.  1.
         11    1    3    3    0    0  0.12615515834E+02  0.22793328553E+02  0.25875558880E+02  0.36718273569E+02  0.51100000000E-03 0. -1.
        -11    1    3    3    0    0  0.55819029208E+01  0.68422925923E+01  0.20431681842E+01  0.90636165313E+01  0.51100000000E-03 0.  1.
        -12    1    3    3    0    0 -0.18941832550E+02 -0.29442652861E+02 -0.27023448600E+02  0.44225892892E+02  0.00000000000E+00 0.  1.
</event>
<event>
 7    1  0.2294706E-015  0.9000769E+02  0.7816164E-02  0.1186339E+00
        -11   -1    0    0    0    0  0.00000000000E+00  0.00000000000E+00  0.45593999997E+02  0.45594000000E+02  0.51100000000E-03 0.  1.
         11   -1    0    0    0    0 -0.00000000000E+00 -0.00000000000E+00 -0.45593999997E+02  0.45594000000E+02  0.51100000000E-03 0. -1.
    9900012    2    1    2    0    0 -0.82218345795E+00  0.84673402835E+00 -0.13974786340E-01  0.90007686716E+02  0.89999947381E+02 0.  0.
        -12    1    1    2    0    0  0.82218345795E+00 -0.84673402835E+00  0.13974786340E-01  0.11803132838E+01  0.00000000000E+00 0.  1.
         11    1    3    3    0    0  0.23264451421E+00  0.37588457856E+02  0.99065296719E+01  0.38872684727E+02  0.51100000000E-03 0. -1.
        -11    1    3    3    0    0 -0.96107469890E+01  0.25475168506E+01 -0.23901152633E+01  0.10225896099E+02  0.51100000000E-03 0.  1.
        -12    1    3    3    0    0  0.85559190169E+01 -0.39289240679E+02 -0.75303891950E+01  0.40909105890E+02  0.00000000000E+00 0.  1.
</event>
<event>
 7    1  0.2294706E-015  0.9000801E+02  0.7816164E-02  0.1186339E+00
        -11   -1    0    0    0    0  0.00000000000E+00  0.00000000000E+00  0.45593999997E+02  0.45594000000E+02  0.51100000000E-03 0.  1.
         11   -1    0    0    0    0 -0.00000000000E+00 -0.00000000000E+00 -0.45593999997E+02  0.45594000000E+02  0.51100000000E-03 0. -1.
    9900012    2    1    2    0    0  0.24641038195E-01  0.47697157467E+00 -0.10790171903E+01  0.90008005440E+02  0.90000270312E+02 0.  0.
        -12    1    1    2    0    0 -0.24641038195E-01 -0.47697157467E+00  0.10790171903E+01  0.11799945596E+01  0.00000000000E+00 0.  1.
         11    1    3    3    0    0 -0.28761982159E+02  0.28417179955E+02 -0.68917938129E+01  0.41015662332E+02  0.51100000000E-03 0. -1.
        -11    1    3    3    0    0  0.32510374448E+01 -0.20053894802E+01 -0.89384859778E+01  0.97204610627E+01  0.51100000000E-03 0.  1.
        -12    1    3    3    0    0  0.25535585752E+02 -0.25934818900E+02  0.14751262600E+02  0.39271882046E+02  0.00000000000E+00 0.  1.
</event>
<event>
 7    1  0.2294706E-015  0.9000776E+02  0.7816164E-02  0.1186339E+00
        -11   -1    0    0    0    0  0.00000000000E+00  0.00000000000E+00  0.45593999997E+02  0.45594000000E+02  0.51100000000E-03 0. -1.
         11   -1    0    0    0    0 -0.00000000000E+00 -0.00000000000E+00 -0.45593999997E+02  0.45594000000E+02  0.51100000000E-03 0.  1.
    9900012    2    1    2    0    0 -0.41591266611E+00  0.54616115342E+00  0.96004582983E+00  0.90007761318E+02  0.90000022967E+02 0.  0.
        -12    1    1    2    0    0  0.41591266611E+00 -0.54616115342E+00 -0.96004582983E+00  0.11802386821E+01  0.00000000000E+00 0.  1.
         11    1    3    3    0    0  0.37599472605E+02 -0.66350026751E+01  0.51664624442E+01  0.38528378309E+02  0.51100000000E-03 0. -1.
        -11    1    3    3    0    0 -0.27248475023E+01 -0.10988161962E+02 -0.32359260477E+01  0.11774366856E+02  0.51100000000E-03 0.  1.
        -12    1    3    3    0    0 -0.35290537769E+02  0.18169325791E+02 -0.97049056662E+00  0.39705016152E+02  0.00000000000E+00 0.  1.
</event>
<event>
 7    1  0.2294706E-015  0.9000774E+02  0.7816164E-02  0.1186339E+00
        -11   -1    0    0    0    0  0.00000000000E+00  0.00000000000E+00  0.45593999997E+02  0.45594000000E+02  0.51100000000E-03 0.  1.
         11   -1    0    0    0    0 -0.00000000000E+00 -0.00000000000E+00 -0.45593999997E+02  0.45594000000E+02  0.51100000000E-03 0. -1.
    9900012    2    1    2    0    0  0.10179393975E+01 -0.43846726432E+00 -0.40565493851E+00  0.90007741516E+02  0.90000002904E+02 0.  0.
        -12    1    1    2    0    0 -0.10179393975E+01  0.43846726432E+00  0.40565493851E+00  0.11802584835E+01  0.00000000000E+00 0.  1.
         11    1    3    3    0    0  0.18455525460E+02  0.11026072912E+02  0.17183746888E+02  0.27522025020E+02  0.51100000000E-03 0. -1.
        -11    1    3    3    0    0 -0.28458619008E+01  0.19840364080E+02  0.56885643415E+01  0.20835036388E+02  0.51100000000E-03 0.  1.
        -12    1    3    3    0    0 -0.14591724161E+02 -0.31304904256E+02 -0.23277966168E+02  0.41650680108E+02  0.00000000000E+00 0.  1.
</event>
<event>
 7    1  0.2294706E-015  0.9000771E+02  0.7816164E-02  0.1186339E+00
        -11   -1    0    0    0    0  0.00000000000E+00  0.00000000000E+00  0.45593999997E+02  0.45594000000E+02  0.51100000000E-03 0. -1.
         11   -1    0    0    0    0 -0.00000000000E+00 -0.00000000000E+00 -0.45593999997E+02  0.45594000000E+02  0.51100000000E-03 0.  1.
    9900012    2    1    2    0    0 -0.23322391053E+00  0.11428130147E+01 -0.18072960012E+00  0.90007712676E+02  0.89999973683E+02 0.  0.
        -12    1    1    2    0    0  0.23322391053E+00 -0.11428130147E+01  0.18072960012E+00  0.11802873241E+01  0.00000000000E+00 0.  1.
         11    1    3    3    0    0 -0.20256239680E+02 -0.96486134659E+01 -0.27346203833E+02  0.35372670978E+02  0.51100000000E-03 0. -1.
        -11    1    3    3    0    0 -0.10519813490E+02  0.59584163224E+01 -0.18500313784E+01  0.12230773373E+02  0.51100000000E-03 0.  1.
         12    1    3    3    0    0  0.30542829259E+02  0.48330101583E+01  0.29015505611E+02  0.42404268325E+02  0.00000000000E+00 0. -1.
</event>
<event>
 7    1  0.2294706E-015  0.9000768E+02  0.7816164E-02  0.1186339E+00
        -11   -1    0    0    0    0  0.00000000000E+00  0.00000000000E+00  0.45593999997E+02  0.45594000000E+02  0.51100000000E-03 0. -1.
         11   -1    0    0    0    0 -0.00000000000E+00 -0.00000000000E+00 -0.45593999997E+02  0.45594000000E+02  0.51100000000E-03 0.  1.
    9900012    2    1    2    0    0 -0.10411050117E+00 -0.56197127560E+00  0.10327203131E+01  0.90007677181E+02  0.89999937720E+02 0.  0.
        -12    1    1    2    0    0  0.10411050117E+00  0.56197127560E+00 -0.10327203131E+01  0.11803228186E+01  0.00000000000E+00 0.  1.
         11    1    3    3    0    0 -0.47450309467E+01 -0.92276596680E+01  0.16937531064E+02  0.19863156357E+02  0.51100000000E-03 0. -1.
        -11    1    3    3    0    0  0.24761204871E+02 -0.74483698756E+01  0.15005708093E+02  0.29895932099E+02  0.51100000000E-03 0.  1.
         12    1    3    3    0    0 -0.20120284425E+02  0.16114058268E+02 -0.30910518844E+02  0.40248588726E+02  0.00000000000E+00 0. -1.
</event>
<event>
 7    1  0.2294706E-015  0.9000778E+02  0.7816164E-02  0.1186339E+00
        -11   -1    0    0    0    0  0.00000000000E+00  0.00000000000E+00  0.45593999997E+02  0.45594000000E+02  0.51100000000E-03 0.  1.
         11   -1    0    0    0    0 -0.00000000000E+00 -0.00000000000E+00 -0.45593999997E+02  0.45594000000E+02  0.51100000000E-03 0. -1.
    9900012    2    1    2    0    0 -0.10205501218E+01  0.57274211601E+00 -0.15288639822E+00  0.90007775304E+02  0.90000037138E+02 0.  0.
        -12    1    1    2    0    0  0.10205501218E+01 -0.57274211601E+00  0.15288639822E+00  0.11802246961E+01  0.00000000000E+00 0.  1.
         11    1    3    3    0    0 -0.41620529497E+01  0.49847662604E+01 -0.70545065850E+01  0.95883597579E+01  0.51100000000E-03 0. -1.
        -11    1    3    3    0    0 -0.28664478071E+02  0.23574348883E+02  0.83017350068E+01  0.38030527642E+02  0.51100000000E-03 0.  1.
         12    1    3    3    0    0  0.31805980899E+02 -0.27986373028E+02 -0.14001148200E+01  0.42388887904E+02  0.00000000000E+00 0. -1.
</event>
<event>
 7    1  0.2337348E-015  0.9000775E+02  0.7816164E-02  0.1186339E+00
        -11   -1    0    0    0    0  0.00000000000E+00  0.00000000000E+00  0.45593999997E+02  0.45594000000E+02  0.51100000000E-03 0.  1.
         11   -1    0    0    0    0 -0.00000000000E+00 -0.00000000000E+00 -0.45593999997E+02  0.45594000000E+02  0.51100000000E-03 0. -1.
    9900012    2    1    2    0    0  0.66185277087E+00  0.86935582511E+00 -0.44628471474E+00  0.90007746346E+02  0.90000007798E+02 0.  0.
        -12    1    1    2    0    0 -0.66185277087E+00 -0.86935582511E+00  0.44628471474E+00  0.11802536539E+01  0.00000000000E+00 0.  1.
         11    1    3    3    0    0  0.25731183717E+02  0.21716808278E+02 -0.18482468077E+02  0.38409832123E+02  0.51100000000E-03 0. -1.
        -11    1    3    3    0    0  0.77446277395E+01 -0.62239935570E+01 -0.24623030521E+01  0.10236224460E+02  0.51100000000E-03 0.  1.
        -12    1    3    3    0    0 -0.32813958686E+02 -0.14623458896E+02  0.20498486415E+02  0.41361689762E+02  0.00000000000E+00 0.  1.
</event>
<event>
 7    1  0.2294706E-015  0.9000772E+02  0.7816164E-02  0.1186339E+00
        -11   -1    0    0    0    0  0.00000000000E+00  0.00000000000E+00  0.45593999997E+02  0.45594000000E+02  0.51100000000E-03 0. -1.
         11   -1    0    0    0    0 -0.00000000000E+00 -0.00000000000E+00 -0.45593999997E+02  0.45594000000E+02  0.51100000000E-03 0.  1.
    9900012    2    1    2    0    0 -0.93147232783E+00  0.46006914672E+00  0.56013360031E+00  0.90007722928E+02  0.89999984070E+02 0.  0.
        -12    1    1    2    0    0  0.93147232783E+00 -0.46006914672E+00 -0.56013360031E+00  0.11802770723E+01  0.00000000000E+00 0.  1.
         11    1    3    3    0    0 -0.10586462077E+02  0.41340081490E+01  0.17333913035E+01  0.11496427635E+02  0.51100000000E-03 0. -1.
        -11    1    3    3    0    0 -0.20037956424E+02  0.28423541267E+02 -0.40328421618E+00  0.34779017154E+02  0.51100000000E-03 0.  1.
         12    1    3    3    0    0  0.29692946173E+02 -0.32097480269E+02 -0.76997348704E+00  0.43732278139E+02  0.00000000000E+00 0. -1.
</event>
<event>
 7    1  0.2294706E-015  0.9000772E+02  0.7816164E-02  0.1186339E+00
        -11   -1    0    0    0    0  0.00000000000E+00  0.00000000000E+00  0.45593999997E+02  0.45594000000E+02  0.51100000000E-03 0. -1.
         11   -1    0    0    0    0 -0.00000000000E+00 -0.00000000000E+00 -0.45593999997E+02  0.45594000000E+02  0.51100000000E-03 0.  1.
    9900012    2    1    2    0    0  0.64452016643E+00 -0.41848632393E+00  0.89583874653E+00  0.90007718632E+02  0.89999979718E+02 0.  0.
        -12    1    1    2    0    0 -0.64452016643E+00  0.41848632393E+00 -0.89583874653E+00  0.11802813682E+01  0.00000000000E+00 0.  1.
         11    1    3    3    0    0  0.40180749297E+02 -0.56756988747E+01 -0.93060357417E+01  0.41633021429E+02  0.51100000000E-03 0. -1.
        -11    1    3    3    0    0  0.24197076799E+00 -0.43675976705E+01  0.57244774728E+01  0.72044501429E+01  0.51100000000E-03 0.  1.
        -12    1    3    3    0    0 -0.39778199899E+02  0.96248102213E+01  0.44773970154E+01  0.41170247060E+02  0.00000000000E+00 0.  1.
</event>
<event>
 7    1  0.2294706E-015  0.9000771E+02  0.7816164E-02  0.1186339E+00
        -11   -1    0    0    0    0  0.00000000000E+00  0.00000000000E+00  0.45593999997E+02  0.45594000000E+02  0.51100000000E-03 0. -1.
         11   -1    0    0    0    0 -0.00000000000E+00 -0.00000000000E+00 -0.45593999997E+02  0.45594000000E+02  0.51100000000E-03 0.  1.
    9900012    2    1    2    0    0 -0.29031124567E+00 -0.11349921087E+01  0.14347994676E+00  0.90007714356E+02  0.89999975386E+02 0.  0.
        -12    1    1    2    0    0  0.29031124567E+00  0.11349921087E+01 -0.14347994676E+00  0.11802856439E+01  0.00000000000E+00 0.  1.
         11    1    3    3    0    0  0.81286061600E+01  0.14868542002E+01 -0.43197051339E+01  0.93244209591E+01  0.51100000000E-03 0. -1.
        -11    1    3    3    0    0 -0.35057614111E+02 -0.17816807279E+02 -0.17417763226E+02  0.43009922167E+02  0.51100000000E-03 0.  1.
         12    1    3    3    0    0  0.26638696705E+02  0.15194960970E+02  0.21880948307E+02  0.37673371230E+02  0.00000000000E+00 0. -1.
</event>
<event>
 7    1  0.2294706E-015  0.9000775E+02  0.7816164E-02  0.1186339E+00
        -11   -1    0    0    0    0  0.00000000000E+00  0.00000000000E+00  0.45593999997E+02  0.45594000000E+02  0.51100000000E-03 0.  1.
         11   -1    0    0    0    0 -0.00000000000E+00 -0.00000000000E+00 -0.45593999997E+02  0.45594000000E+02  0.51100000000E-03 0. -1.
    9900012    2    1    2    0    0 -0.92433271602E+00  0.51606613591E+00 -0.52180571796E+00  0.90007747301E+02  0.90000008765E+02 0.  0.
        -12    1    1    2    0    0  0.92433271602E+00 -0.51606613591E+00  0.52180571796E+00  0.11802526991E+01  0.00000000000E+00 0.  1.
         11    1    3    3    0    0 -0.34738584609E+01  0.55986509950E+01  0.49283721326E+01  0.82280883387E+01  0.51100000000E-03 0. -1.
        -11    1    3    3    0    0 -0.32132343825E+02 -0.40363896174E+01  0.20608727176E+02  0.38386190185E+02  0.51100000000E-03 0.  1.
         12    1    3    3    0    0  0.34681869570E+02 -0.10461952417E+01 -0.26058905026E+02  0.43393468777E+02  0.00000000000E+00 0. -1.
</event>
<event>
 7    1  0.2294706E-015  0.9000760E+02  0.7816164E-02  0.1186339E+00
        -11   -1    0    0    0    0  0.00000000000E+00  0.00000000000E+00  0.45593999997E+02  0.45594000000E+02  0.51100000000E-03 0.  1.
         11   -1    0    0    0    0 -0.00000000000E+00 -0.00000000000E+00 -0.45593999997E+02  0.45594000000E+02  0.51100000000E-03 0. -1.
    9900012    2    1    2    0    0 -0.26892239914E-01  0.80064715465E+00 -0.86693525348E+00  0.90007603544E+02  0.89999863111E+02 0.  0.
        -12    1    1    2    0    0  0.26892239914E-01 -0.80064715465E+00  0.86693525348E+00  0.11803964557E+01  0.00000000000E+00 0.  1.
         11    1    3    3    0    0 -0.27028110878E+02 -0.26070476165E+02 -0.36685380877E+01  0.37731242718E+02  0.51100000000E-03 0. -1.
        -11    1    3    3    0    0 -0.25009265166E+00 -0.76388481898E+01  0.32410985878E+01  0.83017629645E+01  0.51100000000E-03 0.  1.
        -12    1    3    3    0    0  0.27251311290E+02  0.34509971509E+02 -0.43949575361E+00  0.43974597862E+02  0.00000000000E+00 0.  1.
</event>
<event>
 7    1  0.2294706E-015  0.9000768E+02  0.7816164E-02  0.1186339E+00
        -11   -1    0    0    0    0  0.00000000000E+00  0.00000000000E+00  0.45593999997E+02  0.45594000000E+02  0.51100000000E-03 0.  1.
         11   -1    0    0    0    0 -0.00000000000E+00 -0.00000000000E+00 -0.45593999997E+02  0.45594000000E+02  0.51100000000E-03 0. -1.
    9900012    2    1    2    0    0 -0.40800113267E+00 -0.70432467045E+00 -0.85475697995E+00  0.90007683237E+02  0.89999943856E+02 0.  0.
        -12    1    1    2    0    0  0.40800113267E+00  0.70432467045E+00  0.85475697995E+00  0.11803167628E+01  0.00000000000E+00 0.  1.
         11    1    3    3    0    0  0.42709158206E+01  0.43623070636E+01 -0.50903611980E+01  0.79487245675E+01  0.51100000000E-03 0. -1.
        -11    1    3    3    0    0  0.70683691208E+01  0.37309202343E+02  0.16282522778E+01  0.38007757461E+02  0.51100000000E-03 0.  1.
         12    1    3    3    0    0 -0.11747286074E+02 -0.42375834077E+02  0.26073519402E+01  0.44051201209E+02  0.00000000000E+00 0. -1.
</event>
<event>
 7    1  0.2294706E-015  0.9000776E+02  0.7816164E-02  0.1186339E+00
        -11   -1    0    0    0    0  0.00000000000E+00  0.00000000000E+00  0.45593999997E+02  0.45594000000E+02  0.51100000000E-03 0. -1.
         11   -1    0    0    0    0 -0.00000000000E+00 -0.00000000000E+00 -0.45593999997E+02  0.45594000000E+02  0.51100000000E-03 0.  1.
    9900012    2    1    2    0    0 -0.20781229626E+00 -0.90760762183E+00  0.72527693737E+00  0.90007760964E+02  0.90000022609E+02 0.  0.
        -12    1    1    2    0    0  0.20781229626E+00  0.90760762183E+00 -0.72527693737E+00  0.11802390358E+01  0.00000000000E+00 0.  1.
         11    1    3    3    0    0  0.38929564112E+01  0.42449635231E+01  0.65319966601E+01  0.87087200874E+01  0.51100000000E-03 0. -1.
        -11    1    3    3    0    0  0.22250022614E+02  0.72437207698E+01 -0.33665222903E+02  0.40998563759E+02  0.51100000000E-03 0.  1.
         12    1    3    3    0    0 -0.26350791321E+02 -0.12396291915E+02  0.27858503180E+02  0.40300477118E+02  0.00000000000E+00 0. -1.
</event>
<event>
 7    1  0.2294706E-015  0.9000781E+02  0.7816164E-02  0.1186339E+00
        -11   -1    0    0    0    0  0.00000000000E+00  0.00000000000E+00  0.45593999997E+02  0.45594000000E+02  0.51100000000E-03 0.  1.
         11   -1    0    0    0    0 -0.00000000000E+00 -0.00000000000E+00 -0.45593999997E+02  0.45594000000E+02  0.51100000000E-03 0. -1.
    9900012    2    1    2    0    0 -0.55826390746E+00 -0.34123513030E+00 -0.98221836212E+00  0.90007808102E+02  0.90000070369E+02 0.  0.
        -12    1    1    2    0    0  0.55826390746E+00  0.34123513030E+00  0.98221836212E+00  0.11801918977E+01  0.00000000000E+00 0.  1.
         11    1    3    3    0    0  0.52768105714E+01  0.17683863682E+01 -0.43052787703E+01  0.70361456569E+01  0.51100000000E-03 0. -1.
        -11    1    3    3    0    0 -0.15275980793E+02 -0.21970763175E+02 -0.31782220300E+02  0.41547317015E+02  0.51100000000E-03 0.  1.
         12    1    3    3    0    0  0.94409063144E+01  0.19861141676E+02  0.35105280708E+02  0.41424345430E+02  0.00000000000E+00 0. -1.
</event>
<event>
 7    1  0.2294706E-015  0.9000773E+02  0.7816164E-02  0.1186339E+00
        -11   -1    0    0    0    0  0.00000000000E+00  0.00000000000E+00  0.45593999997E+02  0.45594000000E+02  0.51100000000E-03 0. -1.
         11   -1    0    0    0    0 -0.00000000000E+00 -0.00000000000E+00 -0.45593999997E+02  0.45594000000E+02  0.51100000000E-03 0.  1.
    9900012    2    1    2    0    0  0.30572107980E+00  0.52395732026E+00  0.10124417745E+01  0.90007730963E+02  0.89999992212E+02 0.  0.
        -12    1    1    2    0    0 -0.30572107980E+00 -0.52395732026E+00 -0.10124417745E+01  0.11802690366E+01  0.00000000000E+00 0.  1.
         11    1    3    3    0    0 -0.29635219518E+02 -0.35466993612E+01 -0.22078259091E+02  0.37125124067E+02  0.51100000000E-03 0. -1.
        -11    1    3    3    0    0 -0.29325549490E+01 -0.90310527374E+01 -0.17381978400E+01  0.96530370385E+01  0.51100000000E-03 0.  1.
        -12    1    3    3    0    0  0.32873495547E+02  0.13101709419E+02  0.24828898706E+02  0.43229569858E+02  0.00000000000E+00 0.  1.
</event>
<event>
 7    1  0.2294706E-015  0.9000773E+02  0.7816164E-02  0.1186339E+00
        -11   -1    0    0    0    0  0.00000000000E+00  0.00000000000E+00  0.45593999997E+02  0.45594000000E+02  0.51100000000E-03 0. -1.
         11   -1    0    0    0    0 -0.00000000000E+00 -0.00000000000E+00 -0.45593999997E+02  0.45594000000E+02  0.51100000000E-03 0.  1.
    9900012    2    1    2    0    0  0.46570180457E+00  0.58279095105E+00  0.91461675303E+00  0.90007725766E+02  0.89999986946E+02 0.  0.
        -12    1    1    2    0    0 -0.46570180457E+00 -0.58279095105E+00 -0.91461675303E+00  0.11802742344E+01  0.00000000000E+00 0.  1.
         11    1    3    3    0    0 -0.99746947845E+01  0.56849253833E+01  0.43821926326E+01  0.12288878109E+02  0.51100000000E-03 0. -1.
        -11    1    3    3    0    0 -0.23172115792E+02  0.13757117069E+02 -0.22154353992E+02  0.34885822641E+02  0.51100000000E-03 0.  1.
         12    1    3    3    0    0  0.33612512381E+02 -0.18859251501E+02  0.18686778112E+02  0.42833025015E+02  0.00000000000E+00 0. -1.
</event>
<event>
 7    1  0.2294706E-015  0.9000768E+02  0.7816164E-02  0.1186339E+00
        -11   -1    0    0    0    0  0.00000000000E+00  0.00000000000E+00  0.45593999997E+02  0.45594000000E+02  0.51100000000E-03 0. -1.
         11   -1    0    0    0    0 -0.00000000000E+00 -0.00000000000E+00 -0.45593999997E+02  0.45594000000E+02  0.51100000000E-03 0.  1.
    9900012    2    1    2    0    0 -0.19757379536E+00  0.20009366729E+00  0.11463292659E+01  0.90007684929E+02  0.89999945570E+02 0.  0.
        -12    1    1    2    0    0  0.19757379536E+00 -0.20009366729E+00 -0.11463292659E+01  0.11803150707E+01  0.00000000000E+00 0.  1.
         11    1    3    3    0    0  0.83311573837E+01  0.35100981956E+01 -0.56566604773E+00  0.90580876035E+01  0.51100000000E-03 0. -1.
        -11    1    3    3    0    0  0.12547168461E+02 -0.54217291386E+01 -0.35550532688E+02  0.38087622109E+02  0.51100000000E-03 0.  1.
         12    1    3    3    0    0 -0.21075899640E+02  0.21117246104E+01  0.37262528001E+02  0.42861975217E+02  0.00000000000E+00 0. -1.
</event>
<event>
 7    1  0.2294706E-015  0.9000781E+02  0.7816164E-02  0.1186339E+00
        -11   -1    0    0    0    0  0.00000000000E+00  0.00000000000E+00  0.45593999997E+02  0.45594000000E+02  0.51100000000E-03 0. -1.
         11   -1    0    0    0    0 -0.00000000000E+00 -0.00000000000E+00 -0.45593999997E+02  0.45594000000E+02  0.51100000000E-03 0.  1.
    9900012    2    1    2    0    0  0.11594163054E+01 -0.20262733780E+00  0.86877518722E-01  0.90007808613E+02  0.90000070886E+02 0.  0.
        -12    1    1    2    0    0 -0.11594163054E+01  0.20262733780E+00 -0.86877518722E-01  0.11801913873E+01  0.00000000000E+00 0.  1.
         11    1    3    3    0    0  0.21880367009E+02 -0.33278556403E+02  0.62436216934E+01  0.40313714649E+02  0.51100000000E-03 0. -1.
        -11    1    3    3    0    0 -0.54726201573E+01 -0.16269763225E+01 -0.10081862639E+02  0.11586223625E+02  0.51100000000E-03 0.  1.
        -12    1    3    3    0    0 -0.15248330546E+02  0.34702905388E+02  0.39251184645E+01  0.38107870339E+02  0.00000000000E+00 0.  1.
</event>
<event>
 7    1  0.2294706E-015  0.9000792E+02  0.7816164E-02  0.1186339E+00
        -11   -1    0    0    0    0  0.00000000000E+00  0.00000000000E+00  0.45593999997E+02  0.45594000000E+02  0.51100000000E-03 0.  1.
         11   -1    0    0    0    0 -0.00000000000E+00 -0.00000000000E+00 -0.45593999997E+02  0.45594000000E+02  0.51100000000E-03 0. -1.
    9900012    2    1    2    0    0  0.18939999626E+00  0.22662386668E+00 -0.11425241608E+01  0.90007918565E+02  0.90000182290E+02 0.  0.
        -12    1    1    2    0    0 -0.18939999626E+00 -0.22662386668E+00  0.11425241608E+01  0.11800814351E+01  0.00000000000E+00 0.  1.
         11    1    3    3    0    0 -0.35875516580E+02 -0.28071550482E+01  0.15488116166E+02  0.39176709306E+02  0.51100000000E-03 0. -1.
        -11    1    3    3    0    0  0.13162665376E+01 -0.74860176408E+01  0.44906538549E+01  0.88283061808E+01  0.51100000000E-03 0.  1.
        -12    1    3    3    0    0  0.34748650039E+02  0.10519796556E+02 -0.21121294182E+02  0.42002903079E+02  0.00000000000E+00 0.  1.
</event>
<event>
 7    1  0.2294706E-015  0.9000772E+02  0.7816164E-02  0.1186339E+00
        -11   -1    0    0    0    0  0.00000000000E+00  0.00000000000E+00  0.45593999997E+02  0.45594000000E+02  0.51100000000E-03 0.  1.
         11   -1    0    0    0    0 -0.00000000000E+00 -0.00000000000E+00 -0.45593999997E+02  0.45594000000E+02  0.51100000000E-03 0. -1.
    9900012    2    1    2    0    0  0.38000439532E+00 -0.99382890087E+00 -0.51083854964E+00  0.90007722385E+02  0.89999983520E+02 0.  0.
        -12    1    1    2    0    0 -0.38000439532E+00  0.99382890087E+00  0.51083854964E+00  0.11802776150E+01  0.00000000000E+00 0.  1.
         11    1    3    3    0    0 -0.51005586083E+01 -0.80187320150E+01  0.22557489604E+00  0.95061372565E+01  0.51100000000E-03 0. -1.
        -11    1    3    3    0    0 -0.20009631757E+02 -0.28576245226E+02  0.81464107373E+01  0.35823890945E+02  0.51100000000E-03 0.  1.
         12    1    3    3    0    0  0.25490194760E+02  0.35601148341E+02 -0.88828241830E+01  0.44677694183E+02  0.00000000000E+00 0. -1.
</event>
<event>
 7    1  0.2294706E-015  0.9000773E+02  0.7816164E-02  0.1186339E+00
        -11   -1    0    0    0    0  0.00000000000E+00  0.00000000000E+00  0.45593999997E+02  0.45594000000E+02  0.51100000000E-03 0.  1.
         11   -1    0    0    0    0 -0.00000000000E+00 -0.00000000000E+00 -0.45593999997E+02  0.45594000000E+02  0.51100000000E-03 0. -1.
    9900012    2    1    2    0    0  0.21023706820E+00  0.90107231701E+00 -0.73274082685E+00  0.90007728817E+02  0.89999990038E+02 0.  0.
        -12    1    1    2    0    0 -0.21023706820E+00 -0.90107231701E+00  0.73274082685E+00  0.11802711827E+01  0.00000000000E+00 0.  1.
         11    1    3    3    0    0  0.11196555450E+02 -0.26599378388E+02  0.75886929089E+00  0.28869805462E+02  0.51100000000E-03 0. -1.
        -11    1    3    3    0    0  0.58592434323E+01 -0.12542710873E+02  0.89158643664E+01  0.16466419383E+02  0.51100000000E-03 0.  1.
        -12    1    3    3    0    0 -0.16845561814E+02  0.40043161578E+02 -0.10407474484E+02  0.44671503972E+02  0.00000000000E+00 0.  1.
</event>
<event>
 7    1  0.2294706E-015  0.9000771E+02  0.7816164E-02  0.1186339E+00
        -11   -1    0    0    0    0  0.00000000000E+00  0.00000000000E+00  0.45593999997E+02  0.45594000000E+02  0.51100000000E-03 0.  1.
         11   -1    0    0    0    0 -0.00000000000E+00 -0.00000000000E+00 -0.45593999997E+02  0.45594000000E+02  0.51100000000E-03 0. -1.
    9900012    2    1    2    0    0 -0.21234855444E+00 -0.79775027300E+00 -0.84355326640E+00  0.90007712103E+02  0.89999973103E+02 0.  0.
        -12    1    1    2    0    0  0.21234855444E+00  0.79775027300E+00  0.84355326640E+00  0.11802878970E+01  0.00000000000E+00 0.  1.
         11    1    3    3    0    0  0.28517808241E+02  0.25608403288E+02 -0.13157989689E+02  0.40523923783E+02  0.51100000000E-03 0. -1.
        -11    1    3    3    0    0  0.37509920385E+01 -0.10093844492E+02 -0.90753152345E+00  0.10806444912E+02  0.51100000000E-03 0.  1.
        -12    1    3    3    0    0 -0.32481148834E+02 -0.16312309069E+02  0.13221967946E+02  0.38677343408E+02  0.00000000000E+00 0.  1.
</event>
<event>
 7    1  0.2294706E-015  0.9000780E+02  0.7816164E-02  0.1186339E+00
        -11   -1    0    0    0    0  0.00000000000E+00  0.00000000000E+00  0.45593999997E+02  0.45594000000E+02  0.51100000000E-03 0.  1.
         11   -1    0    0    0    0 -0.00000000000E+00 -0.00000000000E+00 -0.45593999997E+02  0.45594000000E+02  0.51100000000E-03 0. -1.
    9900012    2    1    2    0    0 -0.55390646071E+00 -0.10121535838E+01 -0.24820908446E+00  0.90007798749E+02  0.90000060892E+02 0.  0.
        -12    1    1    2    0    0  0.55390646071E+00  0.10121535838E+01  0.24820908446E+00  0.11802012515E+01  0.00000000000E+00 0.  1.
         11    1    3    3    0    0  0.35224983518E+02  0.62703604769E+01 -0.13977852970E+02  0.38412201945E+02  0.51100000000E-03 0. -1.
        -11    1    3    3    0    0  0.44415461624E+01 -0.80280548673E+01  0.49360847300E+01  0.10418345837E+02  0.51100000000E-03 0.  1.
        -12    1    3    3    0    0 -0.40220436141E+02  0.74554080667E+00  0.87935591561E+01  0.41177250966E+02  0.00000000000E+00 0.  1.
</event>
<event>
 7    1  0.2294706E-015  0.9000767E+02  0.7816164E-02  0.1186339E+00
        -11   -1    0    0    0    0  0.00000000000E+00  0.00000000000E+00  0.45593999997E+02  0.45594000000E+02  0.51100000000E-03 0. -1.
         11   -1    0    0    0    0 -0.00000000000E+00 -0.00000000000E+00 -0.45593999997E+02  0.45594000000E+02  0.51100000000E-03 0.  1.
    9900012    2    1    2    0    0  0.10058010971E+01 -0.61436465319E+00  0.64112236201E-01  0.90007665237E+02  0.89999925618E+02 0.  0.
        -12    1    1    2    0    0 -0.10058010971E+01  0.61436465319E+00 -0.64112236201E-01  0.11803347630E+01  0.00000000000E+00 0.  1.
         11    1    3    3    0    0  0.22070119407E+01 -0.16261238584E+01  0.99311534828E+01  0.10302572022E+02  0.51100000000E-03 0. -1.
        -11    1    3    3    0    0 -0.18501193202E+02  0.33455065099E+02  0.76339910272E+01  0.38984783570E+02  0.51100000000E-03 0.  1.
         12    1    3    3    0    0  0.17299982359E+02 -0.32443305894E+02 -0.17501032274E+02  0.40720309645E+02  0.00000000000E+00 0. -1.
</event>
<event>
 7    1  0.2294706E-015  0.9000885E+02  0.7816164E-02  0.1186337E+00
        -11   -1    0    0    0    0  0.00000000000E+00  0.00000000000E+00  0.45593999997E+02  0.45594000000E+02  0.51100000000E-03 0.  1.
         11   -1    0    0    0    0 -0.00000000000E+00 -0.00000000000E+00 -0.45593999997E+02  0.45594000000E+02  0.51100000000E-03 0. -1.
    9900012    2    1    2    0    0 -0.45615252288E+00  0.92582807056E-01 -0.10833939739E+01  0.90008852341E+02  0.90001128384E+02 0.  0.
        -12    1    1    2    0    0  0.45615252288E+00 -0.92582807056E-01  0.10833939739E+01  0.11791476595E+01  0.00000000000E+00 0.  1.
         11    1    3    3    0    0 -0.22174438844E+01 -0.15191024677E+01  0.69136663525E+01  0.74177835222E+01  0.51100000000E-03 0. -1.
        -11    1    3    3    0    0 -0.28942318387E+02 -0.19681351331E+02  0.15684633955E+02  0.38353893236E+02  0.51100000000E-03 0.  1.
         12    1    3    3    0    0  0.30703609749E+02  0.21293036605E+02 -0.23681694281E+02  0.44237175582E+02  0.00000000000E+00 0. -1.
</event>
<event>
 7    1  0.2294706E-015  0.9000777E+02  0.7816164E-02  0.1186339E+00
        -11   -1    0    0    0    0  0.00000000000E+00  0.00000000000E+00  0.45593999997E+02  0.45594000000E+02  0.51100000000E-03 0.  1.
         11   -1    0    0    0    0 -0.00000000000E+00 -0.00000000000E+00 -0.45593999997E+02  0.45594000000E+02  0.51100000000E-03 0. -1.
    9900012    2    1    2    0    0  0.59550039702E+00  0.29173783433E+00 -0.97632844685E+00  0.90007767428E+02  0.90000029158E+02 0.  0.
        -12    1    1    2    0    0 -0.59550039702E+00 -0.29173783433E+00  0.97632844685E+00  0.11802325716E+01  0.00000000000E+00 0.  1.
         11    1    3    3    0    0 -0.12665531607E+02 -0.83704683148E+01  0.48141316700E+01  0.15926590805E+02  0.51100000000E-03 0. -1.
        -11    1    3    3    0    0 -0.50236537896E+01 -0.20211573815E+02  0.21806273605E+02  0.30153911558E+02  0.51100000000E-03 0.  1.
         12    1    3    3    0    0  0.18284685793E+02  0.28873779964E+02 -0.27596733722E+02  0.43927265065E+02  0.00000000000E+00 0. -1.
</event>
<event>
 7    1  0.2294706E-015  0.9000774E+02  0.7816164E-02  0.1186339E+00
        -11   -1    0    0    0    0  0.00000000000E+00  0.00000000000E+00  0.45593999997E+02  0.45594000000E+02  0.51100000000E-03 0. -1.
         11   -1    0    0    0    0 -0.00000000000E+00 -0.00000000000E+00 -0.45593999997E+02  0.45594000000E+02  0.51100000000E-03 0.  1.
    9900012    2    1    2    0    0  0.58857780137E+00  0.95621066428E+00  0.36367624555E+00  0.90007736015E+02  0.89999997330E+02 0.  0.
        -12    1    1    2    0    0 -0.58857780137E+00 -0.95621066428E+00 -0.36367624555E+00  0.11802639850E+01  0.00000000000E+00 0.  1.
         11    1    3    3    0    0 -0.36636466780E+02  0.97760920396E+01  0.16772992843E+02  0.41462464506E+02  0.51100000000E-03 0. -1.
        -11    1    3    3    0    0  0.44813887957E+01  0.75529291103E+01 -0.10501997705E+01  0.88449139907E+01  0.51100000000E-03 0.  1.
        -12    1    3    3    0    0  0.32743655786E+02 -0.16372810486E+02 -0.15359116827E+02  0.39700357519E+02  0.00000000000E+00 0.  1.
</event>
<event>
 7    1  0.2294706E-015  0.9000767E+02  0.7816164E-02  0.1186339E+00
        -11   -1    0    0    0    0  0.00000000000E+00  0.00000000000E+00  0.45593999997E+02  0.45594000000E+02  0.51100000000E-03 0.  1.
         11   -1    0    0    0    0 -0.00000000000E+00 -0.00000000000E+00 -0.45593999997E+02  0.45594000000E+02  0.51100000000E-03 0. -1.
    9900012    2    1    2    0    0  0.10782978370E+01  0.43339037585E+00  0.20646799323E+00  0.90007668489E+02  0.89999928913E+02 0.  0.
        -12    1    1    2    0    0 -0.10782978370E+01 -0.43339037585E+00 -0.20646799323E+00  0.11803315108E+01  0.00000000000E+00 0.  1.
         11    1    3    3    0    0  0.79261026638E+01 -0.52280925299E+01  0.19405146707E+01  0.96913184029E+01  0.51100000000E-03 0. -1.
        -11    1    3    3    0    0 -0.92026822375E+01 -0.32667066144E+02  0.16579938355E+02  0.37771959532E+02  0.51100000000E-03 0.  1.
         12    1    3    3    0    0  0.23548774106E+01  0.38328549050E+02 -0.18313985032E+02  0.42544390554E+02  0.00000000000E+00 0. -1.
</event>
<event>
 7    1  0.2294706E-015  0.9000779E+02  0.7816164E-02  0.1186339E+00
        -11   -1    0    0    0    0  0.00000000000E+00  0.00000000000E+00  0.45593999997E+02  0.45594000000E+02  0.51100000000E-03 0.  1.
         11   -1    0    0    0    0 -0.00000000000E+00 -0.00000000000E+00 -0.45593999997E+02  0.45594000000E+02  0.51100000000E-03 0. -1.
    9900012    2    1    2    0    0  0.47803378675E-02  0.64006349409E+00 -0.99156446111E+00  0.90007786372E+02  0.90000048352E+02 0.  0.
        -12    1    1    2    0    0 -0.47803378675E-02 -0.64006349409E+00  0.99156446111E+00  0.11802136284E+01  0.00000000000E+00 0.  1.
         11    1    3    3    0    0 -0.66818719174E+01 -0.35769564320E+01 -0.67886921340E+01  0.10174889227E+02  0.51100000000E-03 0. -1.
        -11    1    3    3    0    0  0.16575366566E+02 -0.34095968415E+02 -0.63548260560E+01  0.38440364897E+02  0.51100000000E-03 0.  1.
         12    1    3    3    0    0 -0.98887143112E+01  0.38312988341E+02  0.12151953729E+02  0.41392532247E+02  0.00000000000E+00 0. -1.
</event>
<event>
 7    1  0.2294706E-015  0.9000775E+02  0.7816164E-02  0.1186339E+00
        -11   -1    0    0    0    0  0.00000000000E+00  0.00000000000E+00  0.45593999997E+02  0.45594000000E+02  0.51100000000E-03 0.  1.
         11   -1    0    0    0    0 -0.00000000000E+00 -0.00000000000E+00 -0.45593999997E+02  0.45594000000E+02  0.51100000000E-03 0. -1.
    9900012    2    1    2    0    0  0.87939515458E+00  0.56281084437E+00  0.55035803758E+00  0.90007751783E+02  0.90000013306E+02 0.  0.
        -12    1    1    2    0    0 -0.87939515458E+00 -0.56281084437E+00 -0.55035803758E+00  0.11802482171E+01  0.00000000000E+00 0.  1.
         11    1    3    3    0    0 -0.35526285695E+02 -0.10595455092E+02  0.23879830164E+01  0.37149469809E+02  0.51100000000E-03 0. -1.
        -11    1    3    3    0    0 -0.11143707056E+01 -0.97862562694E+01 -0.13531014224E-01  0.98495084745E+01  0.51100000000E-03 0.  1.
        -12    1    3    3    0    0  0.37520051556E+02  0.20944522206E+02 -0.18240939646E+01  0.43008773500E+02  0.00000000000E+00 0.  1.
</event>
<event>
 7    1  0.2294706E-015  0.9000775E+02  0.7816164E-02  0.1186339E+00
        -11   -1    0    0    0    0  0.00000000000E+00  0.00000000000E+00  0.45593999997E+02  0.45594000000E+02  0.51100000000E-03 0. -1.
         11   -1    0    0    0    0 -0.00000000000E+00 -0.00000000000E+00 -0.45593999997E+02  0.45594000000E+02  0.51100000000E-03 0.  1.
    9900012    2    1    2    0    0  0.10317056649E+01 -0.53377285270E+00 -0.20897573395E+00  0.90007745411E+02  0.90000006851E+02 0.  0.
        -12    1    1    2    0    0 -0.10317056649E+01  0.53377285270E+00  0.20897573395E+00  0.11802545889E+01  0.00000000000E+00 0.  1.
         11    1    3    3    0    0  0.21536379027E+01  0.86081187878E+01  0.36734385308E+01  0.96037501104E+01  0.51100000000E-03 0. -1.
        -11    1    3    3    0    0 -0.11593877107E+02  0.33996003771E+02 -0.19192644595E+01  0.35969846192E+02  0.51100000000E-03 0.  1.
         12    1    3    3    0    0  0.10471944870E+02 -0.43137895411E+02 -0.19631498052E+01  0.44434149109E+02  0.00000000000E+00 0. -1.
</event>
<event>
 7    1  0.2586573E-015  0.9000776E+02  0.7816164E-02  0.1186339E+00
        -11   -1    0    0    0    0  0.00000000000E+00  0.00000000000E+00  0.45593999997E+02  0.45594000000E+02  0.51100000000E-03 0.  1.
         11   -1    0    0    0    0 -0.00000000000E+00 -0.00000000000E+00 -0.45593999997E+02  0.45594000000E+02  0.51100000000E-03 0. -1.
    9900012    2    1    2    0    0 -0.27044726964E+00  0.10559890496E+01 -0.45245822482E+00  0.90007757210E+02  0.90000018805E+02 0.  0.
        -12    1    1    2    0    0  0.27044726964E+00 -0.10559890496E+01  0.45245822482E+00  0.11802427902E+01  0.00000000000E+00 0.  1.
         11    1    3    3    0    0  0.28530820263E+02  0.12178987249E+02 -0.25874069585E+02  0.40395580358E+02  0.51100000000E-03 0. -1.
        -11    1    3    3    0    0 -0.41912496650E+01  0.82509193452E+01 -0.29191374434E-01  0.92544635821E+01  0.51100000000E-03 0.  1.
        -12    1    3    3    0    0 -0.24610017868E+02 -0.19373917544E+02  0.25450802735E+02  0.40357713269E+02  0.00000000000E+00 0.  1.
</event>
<event>
 7    1  0.2294706E-015  0.9000777E+02  0.7816164E-02  0.1186339E+00
        -11   -1    0    0    0    0  0.00000000000E+00  0.00000000000E+00  0.45593999997E+02  0.45594000000E+02  0.51100000000E-03 0.  1.
         11   -1    0    0    0    0 -0.00000000000E+00 -0.00000000000E+00 -0.45593999997E+02  0.45594000000E+02  0.51100000000E-03 0. -1.
    9900012    2    1    2    0    0 -0.80380580866E+00 -0.57056647818E+00  0.64906570361E+00  0.90007772830E+02  0.90000034632E+02 0.  0.
        -12    1    1    2    0    0  0.80380580866E+00  0.57056647818E+00 -0.64906570361E+00  0.11802271695E+01  0.00000000000E+00 0.  1.
         11    1    3    3    0    0  0.22681714719E+02  0.16172876686E+02  0.27672142258E+02  0.39265373808E+02  0.51100000000E-03 0. -1.
        -11    1    3    3    0    0 -0.82947170212E+00  0.70898206138E+01  0.14040005363E+01  0.72749431206E+01  0.51100000000E-03 0.  1.
        -12    1    3    3    0    0 -0.22656048825E+02 -0.23833263778E+02 -0.28427077090E+02  0.43467455902E+02  0.00000000000E+00 0.  1.
</event>
<event>
 7    1  0.2294706E-015  0.9000775E+02  0.7816164E-02  0.1186339E+00
        -11   -1    0    0    0    0  0.00000000000E+00  0.00000000000E+00  0.45593999997E+02  0.45594000000E+02  0.51100000000E-03 0.  1.
         11   -1    0    0    0    0 -0.00000000000E+00 -0.00000000000E+00 -0.45593999997E+02  0.45594000000E+02  0.51100000000E-03 0. -1.
    9900012    2    1    2    0    0 -0.52675370524E+00 -0.10396413610E+01 -0.18620613357E+00  0.90007747337E+02  0.90000008801E+02 0.  0.
        -12    1    1    2    0    0  0.52675370524E+00  0.10396413610E+01  0.18620613357E+00  0.11802526635E+01  0.00000000000E+00 0.  1.
         11    1    3    3    0    0 -0.21706097676E+02 -0.36968060274E+02  0.37814430906E+01  0.43035932299E+02  0.51100000000E-03 0. -1.
        -11    1    3    3    0    0 -0.22614294138E+01  0.68677163563E+01 -0.62619944670E+01  0.95651537316E+01  0.51100000000E-03 0.  1.
        -12    1    3    3    0    0  0.23440773384E+02  0.29060702557E+02  0.22943452428E+01  0.37406661306E+02  0.00000000000E+00 0.  1.
</event>
<event>
 7    1  0.2294706E-015  0.9000770E+02  0.7816164E-02  0.1186339E+00
        -11   -1    0    0    0    0  0.00000000000E+00  0.00000000000E+00  0.45593999997E+02  0.45594000000E+02  0.51100000000E-03 0. -1.
         11   -1    0    0    0    0 -0.00000000000E+00 -0.00000000000E+00 -0.45593999997E+02  0.45594000000E+02  0.51100000000E-03 0.  1.
    9900012    2    1    2    0    0  0.68001815216E+00  0.19473236037E+00  0.94485681220E+00  0.90007703522E+02  0.89999964409E+02 0.  0.
        -12    1    1    2    0    0 -0.68001815216E+00 -0.19473236037E+00 -0.94485681220E+00  0.11802964776E+01  0.00000000000E+00 0.  1.
         11    1    3    3    0    0 -0.51509135265E+00 -0.66649933368E+01 -0.59782527921E+01  0.89681080496E+01  0.51100000000E-03 0. -1.
        -11    1    3    3    0    0 -0.26471163416E+02 -0.15308644677E+02 -0.19986502655E+02  0.36531320576E+02  0.51100000000E-03 0.  1.
         12    1    3    3    0    0  0.27666272921E+02  0.22168370374E+02  0.26909612259E+02  0.44508274897E+02  0.00000000000E+00 0. -1.
</event>
<event>
 7    1  0.2294706E-015  0.9000773E+02  0.7816164E-02  0.1186339E+00
        -11   -1    0    0    0    0  0.00000000000E+00  0.00000000000E+00  0.45593999997E+02  0.45594000000E+02  0.51100000000E-03 0. -1.
         11   -1    0    0    0    0 -0.00000000000E+00 -0.00000000000E+00 -0.45593999997E+02  0.45594000000E+02  0.51100000000E-03 0.  1.
    9900012    2    1    2    0    0 -0.28339376664E+00  0.77315303364E+00  0.84555602126E+00  0.90007727732E+02  0.89999988939E+02 0.  0.
        -12    1    1    2    0    0  0.28339376664E+00 -0.77315303364E+00 -0.84555602126E+00  0.11802722675E+01  0.00000000000E+00 0.  1.
         11    1    3    3    0    0 -0.25532524507E+01  0.41455617812E+01 -0.73552514711E+01  0.88206861991E+01  0.51100000000E-03 0. -1.
        -11    1    3    3    0    0 -0.23505184663E+02  0.14924705477E+02  0.31408549864E+02  0.41973057363E+02  0.51100000000E-03 0.  1.
         12    1    3    3    0    0  0.25775043348E+02 -0.18297114224E+02 -0.23207742371E+02  0.39213984170E+02  0.00000000000E+00 0. -1.
</event>
<event>
 7    1  0.2294706E-015  0.9000772E+02  0.7816164E-02  0.1186339E+00
        -11   -1    0    0    0    0  0.00000000000E+00  0.00000000000E+00  0.45593999997E+02  0.45594000000E+02  0.51100000000E-03 0. -1.
         11   -1    0    0    0    0 -0.00000000000E+00 -0.00000000000E+00 -0.45593999997E+02  0.45594000000E+02  0.51100000000E-03 0.  1.
    9900012    2    1    2    0    0  0.54745005447E+00  0.10096583226E+01 -0.27194431027E+00  0.90007718170E+02  0.89999979250E+02 0.  0.
        -12    1    1    2    0    0 -0.54745005447E+00 -0.10096583226E+01  0.27194431027E+00  0.11802818301E+01  0.00000000000E+00 0.  1.
         11    1    3    3    0    0  0.10174352671E+02  0.32660676387E+02 -0.16225732655E+02  0.37861743684E+02  0.51100000000E-03 0. -1.
        -11    1    3    3    0    0  0.41644146567E+01  0.72398658612E+01  0.20178202793E+01  0.85924156127E+01  0.51100000000E-03 0.  1.
        -12    1    3    3    0    0 -0.13791317273E+02 -0.38890883925E+02  0.13935968066E+02  0.43553558874E+02  0.00000000000E+00 0.  1.
</event>
<event>
 7    1  0.2294706E-015  0.9000774E+02  0.7816164E-02  0.1186339E+00
        -11   -1    0    0    0    0  0.00000000000E+00  0.00000000000E+00  0.45593999997E+02  0.45594000000E+02  0.51100000000E-03 0. -1.
         11   -1    0    0    0    0 -0.00000000000E+00 -0.00000000000E+00 -0.45593999997E+02  0.45594000000E+02  0.51100000000E-03 0.  1.
    9900012    2    1    2    0    0  0.27210487070E+00 -0.11445161103E+01  0.95173594121E-01  0.90007738927E+02  0.90000000281E+02 0.  0.
        -12    1    1    2    0    0 -0.27210487070E+00  0.11445161103E+01 -0.95173594121E-01  0.11802610729E+01  0.00000000000E+00 0.  1.
         11    1    3    3    0    0  0.35640609197E+01  0.79484368828E+01  0.37896046591E+01  0.94995411916E+01  0.51100000000E-03 0. -1.
        -11    1    3    3    0    0  0.29100524946E+02 -0.14253512846E+02  0.21723324301E+02  0.39011613649E+02  0.51100000000E-03 0.  1.
         12    1    3    3    0    0 -0.32392480995E+02  0.51605598526E+01 -0.25417755366E+02  0.41496584086E+02  0.00000000000E+00 0. -1.
</event>
<event>
 7    1  0.2294706E-015  0.9000781E+02  0.7816164E-02  0.1186339E+00
        -11   -1    0    0    0    0  0.00000000000E+00  0.00000000000E+00  0.45593999997E+02  0.45594000000E+02  0.51100000000E-03 0. -1.
         11   -1    0    0    0    0 -0.00000000000E+00 -0.00000000000E+00 -0.45593999997E+02  0.45594000000E+02  0.51100000000E-03 0.  1.
    9900012    2    1    2    0    0  0.11782109232E+01  0.67778156441E-01 -0.85763742537E-02  0.90007810010E+02  0.90000072302E+02 0.  0.
        -12    1    1    2    0    0 -0.11782109232E+01 -0.67778156441E-01  0.85763742536E-02  0.11801899899E+01  0.00000000000E+00 0.  1.
         11    1    3    3    0    0 -0.22253266953E+01  0.67784965284E+01  0.85315899788E+01  0.11121516170E+02  0.51100000000E-03 0. -1.
        -11    1    3    3    0    0  0.31048220235E+02 -0.28157398582E+02 -0.12337005478E+02  0.43692479663E+02  0.51100000000E-03 0.  1.
         12    1    3    3    0    0 -0.27644682617E+02  0.21446680210E+02  0.37968391251E+01  0.35193814177E+02  0.00000000000E+00 0. -1.
</event>
<event>
 7    1  0.2294706E-015  0.9000773E+02  0.7816164E-02  0.1186339E+00
        -11   -1    0    0    0    0  0.00000000000E+00  0.00000000000E+00  0.45593999997E+02  0.45594000000E+02  0.51100000000E-03 0.  1.
         11   -1    0    0    0    0 -0.00000000000E+00 -0.00000000000E+00 -0.45593999997E+02  0.45594000000E+02  0.51100000000E-03 0. -1.
    9900012    2    1    2    0    0  0.55440121530E+00  0.67708456689E-01 -0.10397513010E+01  0.90007733966E+02  0.89999995255E+02 0.  0.
        -12    1    1    2    0    0 -0.55440121530E+00 -0.67708456689E-01  0.10397513010E+01  0.11802660338E+01  0.00000000000E+00 0.  1.
         11    1    3    3    0    0  0.58958357463E+01  0.51492577631E+01 -0.11788000716E+02  0.14150360271E+02  0.51100000000E-03 0. -1.
        -11    1    3    3    0    0  0.34451641307E+02 -0.72374482271E+01  0.62295409133E+01  0.35750572385E+02  0.51100000000E-03 0.  1.
         12    1    3    3    0    0 -0.39793075838E+02  0.21558989207E+01  0.45187085020E+01  0.40106801310E+02  0.00000000000E+00 0. -1.
</event>
<event>
 7    1  0.2294706E-015  0.9000832E+02  0.7816164E-02  0.1186338E+00
        -11   -1    0    0    0    0  0.00000000000E+00  0.00000000000E+00  0.45593999997E+02  0.45594000000E+02  0.51100000000E-03 0.  1.
         11   -1    0    0    0    0 -0.00000000000E+00 -0.00000000000E+00 -0.45593999997E+02  0.45594000000E+02  0.51100000000E-03 0. -1.
    9900012    2    1    2    0    0 -0.35324722345E+00  0.72654162841E+00  0.85965655012E+00  0.90008315414E+02  0.90000584375E+02 0.  0.
        -12    1    1    2    0    0  0.35324722345E+00 -0.72654162841E+00 -0.85965655012E+00  0.11796845862E+01  0.00000000000E+00 0.  1.
         11    1    3    3    0    0 -0.71286020288E+01 -0.45702516527E+01 -0.24820995183E+01  0.88241138555E+01  0.51100000000E-03 0. -1.
        -11    1    3    3    0    0 -0.33552395057E+02 -0.69404104189E+01  0.15083010682E+02  0.37435674461E+02  0.51100000000E-03 0.  1.
         12    1    3    3    0    0  0.40327749862E+02  0.12237203700E+02 -0.11741254613E+02  0.43748527098E+02  0.00000000000E+00 0. -1.
</event>
<event>
 7    1  0.2294706E-015  0.9000774E+02  0.7816164E-02  0.1186339E+00
        -11   -1    0    0    0    0  0.00000000000E+00  0.00000000000E+00  0.45593999997E+02  0.45594000000E+02  0.51100000000E-03 0.  1.
         11   -1    0    0    0    0 -0.00000000000E+00 -0.00000000000E+00 -0.45593999997E+02  0.45594000000E+02  0.51100000000E-03 0. -1.
    9900012    2    1    2    0    0  0.20387318265E+00  0.98823922087E+00 -0.61223280000E+00  0.90007741539E+02  0.90000002928E+02 0.  0.
        -12    1    1    2    0    0 -0.20387318265E+00 -0.98823922087E+00  0.61223280000E+00  0.11802584605E+01  0.00000000000E+00 0.  1.
         11    1    3    3    0    0 -0.27014514675E+02 -0.63786381871E+00 -0.94034761161E+01  0.28611470369E+02  0.51100000000E-03 0. -1.
        -11    1    3    3    0    0 -0.15759862183E+02  0.40926389267E+01  0.84529134396E+01  0.18345972182E+02  0.51100000000E-03 0.  1.
        -12    1    3    3    0    0  0.42978250041E+02 -0.24665358871E+01  0.33832987658E+00  0.43050298988E+02  0.00000000000E+00 0.  1.
</event>
<event>
 7    1  0.2294706E-015  0.9000749E+02  0.7816164E-02  0.1186340E+00
        -11   -1    0    0    0    0  0.00000000000E+00  0.00000000000E+00  0.45593999997E+02  0.45594000000E+02  0.51100000000E-03 0. -1.
         11   -1    0    0    0    0 -0.00000000000E+00 -0.00000000000E+00 -0.45593999997E+02  0.45594000000E+02  0.51100000000E-03 0.  1.
    9900012    2    1    2    0    0 -0.11450640005E+01  0.24893373244E+00  0.14306037367E+00  0.90007489162E+02  0.89999747218E+02 0.  0.
        -12    1    1    2    0    0  0.11450640005E+01 -0.24893373244E+00 -0.14306037367E+00  0.11805108381E+01  0.00000000000E+00 0.  1.
         11    1    3    3    0    0 -0.13099841099E+01  0.73826579302E+01  0.47201994639E+01  0.88600214290E+01  0.51100000000E-03 0. -1.
        -11    1    3    3    0    0  0.31877088742E+02  0.88798301340E+01 -0.23793827271E+02  0.40757163620E+02  0.51100000000E-03 0.  1.
         12    1    3    3    0    0 -0.31712168633E+02 -0.16013554332E+02  0.19216688180E+02  0.40390304113E+02  0.00000000000E+00 0. -1.
</event>
<event>
 7    1  0.2294706E-015  0.9000764E+02  0.7816164E-02  0.1186339E+00
        -11   -1    0    0    0    0  0.00000000000E+00  0.00000000000E+00  0.45593999997E+02  0.45594000000E+02  0.51100000000E-03 0.  1.
         11   -1    0    0    0    0 -0.00000000000E+00 -0.00000000000E+00 -0.45593999997E+02  0.45594000000E+02  0.51100000000E-03 0. -1.
    9900012    2    1    2    0    0  0.36909868133E+00 -0.70069890565E+00 -0.87523780661E+00  0.90007638186E+02  0.89999898210E+02 0.  0.
        -12    1    1    2    0    0 -0.36909868133E+00  0.70069890565E+00  0.87523780661E+00  0.11803618136E+01  0.00000000000E+00 0.  1.
         11    1    3    3    0    0 -0.25209547549E+01  0.48940315598E+01  0.78789895731E+01  0.96117238172E+01  0.51100000000E-03 0. -1.
        -11    1    3    3    0    0 -0.13094671742E+02 -0.71503923285E+01  0.32698109508E+02  0.35941131091E+02  0.51100000000E-03 0.  1.
         12    1    3    3    0    0  0.15984725178E+02  0.15556618631E+01 -0.41452336888E+02  0.44454783278E+02  0.00000000000E+00 0. -1.
</event>
<event>
 7    1  0.2294706E-015  0.9000774E+02  0.7816164E-02  0.1186339E+00
        -11   -1    0    0    0    0  0.00000000000E+00  0.00000000000E+00  0.45593999997E+02  0.45594000000E+02  0.51100000000E-03 0.  1.
         11   -1    0    0    0    0 -0.00000000000E+00 -0.00000000000E+00 -0.45593999997E+02  0.45594000000E+02  0.51100000000E-03 0. -1.
    9900012    2    1    2    0    0 -0.23676251615E+00 -0.11538058319E+01 -0.75473355869E-01  0.90007737057E+02  0.89999998386E+02 0.  0.
        -12    1    1    2    0    0  0.23676251615E+00  0.11538058319E+01  0.75473355869E-01  0.11802629428E+01  0.00000000000E+00 0.  1.
         11    1    3    3    0    0 -0.24084590500E+01  0.22854470271E+02 -0.35077303483E+02  0.41935005738E+02  0.51100000000E-03 0. -1.
        -11    1    3    3    0    0  0.78523803177E+01 -0.44197338701E+01  0.19262871255E+01  0.92143641391E+01  0.51100000000E-03 0.  1.
        -12    1    3    3    0    0 -0.56806837839E+01 -0.19588542233E+02  0.33075543002E+02  0.38858367180E+02  0.00000000000E+00 0.  1.
</event>
<event>
 7    1  0.2294706E-015  0.9000787E+02  0.7816164E-02  0.1186339E+00
        -11   -1    0    0    0    0  0.00000000000E+00  0.00000000000E+00  0.45593999997E+02  0.45594000000E+02  0.51100000000E-03 0.  1.
         11   -1    0    0    0    0 -0.00000000000E+00 -0.00000000000E+00 -0.45593999997E+02  0.45594000000E+02  0.51100000000E-03 0. -1.
    9900012    2    1    2    0    0 -0.11729656899E+01  0.55811554769E-01 -0.11718765876E+00  0.90007874419E+02  0.90000137561E+02 0.  0.
        -12    1    1    2    0    0  0.11729656899E+01 -0.55811554769E-01  0.11718765876E+00  0.11801255809E+01  0.00000000000E+00 0.  1.
         11    1    3    3    0    0  0.93242424778E+01 -0.15696718673E+01 -0.19552640732E+01  0.96554868035E+01  0.51100000000E-03 0. -1.
        -11    1    3    3    0    0  0.11331368069E+02  0.35631871378E+02  0.10885388813E+02  0.38942545501E+02  0.51100000000E-03 0.  1.
         12    1    3    3    0    0 -0.21828576236E+02 -0.34006387956E+02 -0.90473123983E+01  0.41409842115E+02  0.00000000000E+00 0. -1.
</event>
<event>
 7    1  0.2294706E-015  0.9000770E+02  0.7816164E-02  0.1186339E+00
        -11   -1    0    0    0    0  0.00000000000E+00  0.00000000000E+00  0.45593999997E+02  0.45594000000E+02  0.51100000000E-03 0.  1.
         11   -1    0    0    0    0 -0.00000000000E+00 -0.00000000000E+00 -0.45593999997E+02  0.45594000000E+02  0.51100000000E-03 0. -1.
    9900012    2    1    2    0    0 -0.39901859546E+00 -0.76284327432E+00 -0.80744172278E+00  0.90007700107E+02  0.89999960949E+02 0.  0.
        -12    1    1    2    0    0  0.39901859546E+00  0.76284327432E+00  0.80744172278E+00  0.11802998926E+01  0.00000000000E+00 0.  1.
         11    1    3    3    0    0  0.29062753255E+02 -0.42038081694E+01 -0.24648983462E+02  0.38339118611E+02  0.51100000000E-03 0. -1.
        -11    1    3    3    0    0  0.73136743134E+01 -0.33638988934E+01  0.69334357855E+01  0.10624414326E+02  0.51100000000E-03 0.  1.
        -12    1    3    3    0    0 -0.36775446164E+02  0.68048637884E+01  0.16908105954E+02  0.41044167170E+02  0.00000000000E+00 0.  1.
</event>
<event>
 7    1  0.2294706E-015  0.9000694E+02  0.7816164E-02  0.1186341E+00
        -11   -1    0    0    0    0  0.00000000000E+00  0.00000000000E+00  0.45593999997E+02  0.45594000000E+02  0.51100000000E-03 0. -1.
         11   -1    0    0    0    0 -0.00000000000E+00 -0.00000000000E+00 -0.45593999997E+02  0.45594000000E+02  0.51100000000E-03 0.  1.
    9900012    2    1    2    0    0  0.43916420413E+00  0.23162408334E+00  0.10716332082E+01  0.90006935799E+02  0.89999186548E+02 0.  0.
        -12    1    1    2    0    0 -0.43916420413E+00 -0.23162408334E+00 -0.10716332082E+01  0.11810642011E+01  0.00000000000E+00 0.  1.
         11    1    3    3    0    0  0.22139675746E+01  0.39624780641E-01  0.10048068024E+02  0.10289163902E+02  0.51100000000E-03 0. -1.
        -11    1    3    3    0    0 -0.16615997294E+02 -0.32584647195E+02  0.11471234111E+02  0.38333272899E+02  0.51100000000E-03 0.  1.
         12    1    3    3    0    0  0.14841193924E+02  0.32776646497E+02 -0.20447668927E+02  0.41384498997E+02  0.00000000000E+00 0. -1.
</event>
<event>
 7    1  0.2294706E-015  0.9000774E+02  0.7816164E-02  0.1186339E+00
        -11   -1    0    0    0    0  0.00000000000E+00  0.00000000000E+00  0.45593999997E+02  0.45594000000E+02  0.51100000000E-03 0.  1.
         11   -1    0    0    0    0 -0.00000000000E+00 -0.00000000000E+00 -0.45593999997E+02  0.45594000000E+02  0.51100000000E-03 0. -1.
    9900012    2    1    2    0    0  0.56639981683E+00 -0.62812957198E+00 -0.82320268288E+00  0.90007738093E+02  0.89999999436E+02 0.  0.
        -12    1    1    2    0    0 -0.56639981683E+00  0.62812957198E+00  0.82320268288E+00  0.11802619069E+01  0.00000000000E+00 0.  1.
         11    1    3    3    0    0  0.44036503042E+00 -0.38912430964E+02  0.94392257800E+01  0.40043353861E+02  0.51100000000E-03 0. -1.
        -11    1    3    3    0    0 -0.78562219799E+01 -0.31312315258E+00 -0.68058316313E+01  0.10398923712E+02  0.51100000000E-03 0.  1.
        -12    1    3    3    0    0  0.79822567663E+01  0.38597424544E+02 -0.34565968316E+01  0.39565460520E+02  0.00000000000E+00 0.  1.
</event>
<event>
 7    1  0.2294706E-015  0.9000765E+02  0.7816164E-02  0.1186339E+00
        -11   -1    0    0    0    0  0.00000000000E+00  0.00000000000E+00  0.45593999997E+02  0.45594000000E+02  0.51100000000E-03 0.  1.
         11   -1    0    0    0    0 -0.00000000000E+00 -0.00000000000E+00 -0.45593999997E+02  0.45594000000E+02  0.51100000000E-03 0. -1.
    9900012    2    1    2    0    0  0.19702552849E-01  0.26652908182E+00 -0.11496906685E+01  0.90007654891E+02  0.89999915136E+02 0.  0.
        -12    1    1    2    0    0 -0.19702552849E-01 -0.26652908182E+00  0.11496906685E+01  0.11803451085E+01  0.00000000000E+00 0.  1.
         11    1    3    3    0    0 -0.60962255041E+01  0.33806864031E+02 -0.18391408576E+02  0.38965522333E+02  0.51100000000E-03 0. -1.
        -11    1    3    3    0    0  0.89278189070E+01  0.14778800682E+01 -0.41021202936E+01  0.99356666156E+01  0.51100000000E-03 0.  1.
        -12    1    3    3    0    0 -0.28118908501E+01 -0.35018215017E+02  0.21343838201E+02  0.41106465943E+02  0.00000000000E+00 0.  1.
</event>
<event>
 7    1  0.2294706E-015  0.9000856E+02  0.7816164E-02  0.1186337E+00
        -11   -1    0    0    0    0  0.00000000000E+00  0.00000000000E+00  0.45593999997E+02  0.45594000000E+02  0.51100000000E-03 0.  1.
         11   -1    0    0    0    0 -0.00000000000E+00 -0.00000000000E+00 -0.45593999997E+02  0.45594000000E+02  0.51100000000E-03 0. -1.
    9900012    2    1    2    0    0  0.60366938709E-01  0.60879626696E+00 -0.10083648089E+01  0.90008560875E+02  0.90000833075E+02 0.  0.
        -12    1    1    2    0    0 -0.60366938709E-01 -0.60879626696E+00  0.10083648089E+01  0.11794391251E+01  0.00000000000E+00 0.  1.
         11    1    3    3    0    0 -0.56025047140E+01  0.20317681356E+00  0.76490144901E+01  0.94834995028E+01  0.51100000000E-03 0. -1.
        -11    1    3    3    0    0 -0.29446411279E+02  0.23803006509E+02 -0.37348108649E+01  0.38047642089E+02  0.51100000000E-03 0.  1.
         12    1    3    3    0    0  0.35109282931E+02 -0.23397387055E+02 -0.49225684341E+01  0.42477419283E+02  0.00000000000E+00 0. -1.
</event>
<event>
 7    1  0.2294706E-015  0.9000712E+02  0.7816164E-02  0.1186340E+00
        -11   -1    0    0    0    0  0.00000000000E+00  0.00000000000E+00  0.45593999997E+02  0.45594000000E+02  0.51100000000E-03 0.  1.
         11   -1    0    0    0    0 -0.00000000000E+00 -0.00000000000E+00 -0.45593999997E+02  0.45594000000E+02  0.51100000000E-03 0. -1.
    9900012    2    1    2    0    0  0.48947666430E+00 -0.28050482086E+00 -0.10374076628E+01  0.90007116848E+02  0.89999369988E+02 0.  0.
        -12    1    1    2    0    0 -0.48947666430E+00  0.28050482086E+00  0.10374076628E+01  0.11808831518E+01  0.00000000000E+00 0.  1.
         11    1    3    3    0    0  0.78792461912E+01  0.68538825676E+01  0.32661871182E+01  0.10941947055E+02  0.51100000000E-03 0. -1.
        -11    1    3    3    0    0  0.33663495850E+02  0.67385117246E+01 -0.89614941428E+01  0.35481641318E+02  0.51100000000E-03 0.  1.
         12    1    3    3    0    0 -0.41053265377E+02 -0.13872899113E+02  0.46578993618E+01  0.43583528475E+02  0.00000000000E+00 0. -1.
</event>
<event>
 7    1  0.2294706E-015  0.9000776E+02  0.7816164E-02  0.1186339E+00
        -11   -1    0    0    0    0  0.00000000000E+00  0.00000000000E+00  0.45593999997E+02  0.45594000000E+02  0.51100000000E-03 0. -1.
         11   -1    0    0    0    0 -0.00000000000E+00 -0.00000000000E+00 -0.45593999997E+02  0.45594000000E+02  0.51100000000E-03 0.  1.
    9900012    2    1    2    0    0 -0.51000158669E+00 -0.10147083535E+01 -0.32131512325E+00  0.90007755081E+02  0.90000016648E+02 0.  0.
        -12    1    1    2    0    0  0.51000158669E+00  0.10147083535E+01  0.32131512325E+00  0.11802449193E+01  0.00000000000E+00 0.  1.
         11    1    3    3    0    0  0.28159900099E+01  0.17070295511E+02 -0.23643302826E+01  0.17461811090E+02  0.51100000000E-03 0.  1.
        -11    1    3    3    0    0 -0.21727506988E+02  0.20434665619E+02  0.68931018143E+00  0.29835134785E+02  0.51100000000E-03 0. -1.
        -12    1    3    3    0    0  0.18401515392E+02 -0.38519669484E+02  0.13537049779E+01  0.42710809206E+02  0.00000000000E+00 0.  1.
</event>
<event>
 7    1  0.2294706E-015  0.9000778E+02  0.7816164E-02  0.1186339E+00
        -11   -1    0    0    0    0  0.00000000000E+00  0.00000000000E+00  0.45593999997E+02  0.45594000000E+02  0.51100000000E-03 0. -1.
         11   -1    0    0    0    0 -0.00000000000E+00 -0.00000000000E+00 -0.45593999997E+02  0.45594000000E+02  0.51100000000E-03 0.  1.
    9900012    2    1    2    0    0  0.57685127374E+00 -0.10275622063E+01 -0.65470846689E-01  0.90007776330E+02  0.90000038177E+02 0.  0.
        -12    1    1    2    0    0 -0.57685127374E+00  0.10275622063E+01  0.65470846689E-01  0.11802236701E+01  0.00000000000E+00 0.  1.
         11    1    3    3    0    0  0.92971438563E+01 -0.61399271214E+01 -0.66519709101E+00  0.11161454940E+02  0.51100000000E-03 0. -1.
        -11    1    3    3    0    0  0.17834245578E+01 -0.22858168556E+02 -0.28879184451E+02  0.36873890054E+02  0.51100000000E-03 0.  1.
         12    1    3    3    0    0 -0.10503717140E+02  0.27970533471E+02  0.29478910696E+02  0.41972431336E+02  0.00000000000E+00 0. -1.
</event>
<event>
 7    1  0.2294706E-015  0.9000772E+02  0.7816164E-02  0.1186339E+00
        -11   -1    0    0    0    0  0.00000000000E+00  0.00000000000E+00  0.45593999997E+02  0.45594000000E+02  0.51100000000E-03 0.  1.
         11   -1    0    0    0    0 -0.00000000000E+00 -0.00000000000E+00 -0.45593999997E+02  0.45594000000E+02  0.51100000000E-03 0. -1.
    9900012    2    1    2    0    0 -0.43414866175E+00  0.10846318865E+01  0.16777374227E+00  0.90007720619E+02  0.89999981731E+02 0.  0.
        -12    1    1    2    0    0  0.43414866175E+00 -0.10846318865E+01 -0.16777374227E+00  0.11802793815E+01  0.00000000000E+00 0.  1.
         11    1    3    3    0    0 -0.17197365531E+01  0.40547825353E+02  0.36571867097E+01  0.40748725742E+02  0.51100000000E-03 0. -1.
        -11    1    3    3    0    0  0.31400247138E+01  0.41257285179E+01 -0.21421950475E+01  0.56098476708E+01  0.51100000000E-03 0.  1.
        -12    1    3    3    0    0 -0.18544368224E+01 -0.43588921984E+02 -0.13472179200E+01  0.43649147206E+02  0.00000000000E+00 0.  1.
</event>
<event>
 7    1  0.2294706E-015  0.9000774E+02  0.7816164E-02  0.1186339E+00
        -11   -1    0    0    0    0  0.00000000000E+00  0.00000000000E+00  0.45593999997E+02  0.45594000000E+02  0.51100000000E-03 0. -1.
         11   -1    0    0    0    0 -0.00000000000E+00 -0.00000000000E+00 -0.45593999997E+02  0.45594000000E+02  0.51100000000E-03 0.  1.
    9900012    2    1    2    0    0  0.93288183914E+00  0.57064053525E+00 -0.44396560414E+00  0.90007743840E+02  0.90000005258E+02 0.  0.
        -12    1    1    2    0    0 -0.93288183914E+00 -0.57064053525E+00  0.44396560414E+00  0.11802561603E+01  0.00000000000E+00 0.  1.
         11    1    3    3    0    0  0.41825926825E+01  0.35372138296E+02 -0.33233957290E+01  0.35773275061E+02  0.51100000000E-03 0. -1.
        -11    1    3    3    0    0  0.20309525225E+01  0.72970908437E+01 -0.73884888892E+01  0.10581213128E+02  0.51100000000E-03 0.  1.
        -12    1    3    3    0    0 -0.52806633659E+01 -0.42098588604E+02  0.10267919014E+02  0.43653255651E+02  0.00000000000E+00 0.  1.
</event>
<event>
 7    1  0.2956235E-015  0.9000751E+02  0.7816164E-02  0.1186340E+00
        -11   -1    0    0    0    0  0.00000000000E+00  0.00000000000E+00  0.45593999997E+02  0.45594000000E+02  0.51100000000E-03 0.  1.
         11   -1    0    0    0    0 -0.00000000000E+00 -0.00000000000E+00 -0.45593999997E+02  0.45594000000E+02  0.51100000000E-03 0. -1.
    9900012    2    1    2    0    0  0.17133866879E+00  0.50121233331E+00 -0.10549861249E+01  0.90007505838E+02  0.89999764115E+02 0.  0.
        -12    1    1    2    0    0 -0.17133866879E+00 -0.50121233331E+00  0.10549861249E+01  0.11804941618E+01  0.00000000000E+00 0.  1.
         11    1    3    3    0    0 -0.89870612465E+01 -0.14977188400E+02 -0.37430848520E+02  0.41305591188E+02  0.51100000000E-03 0. -1.
        -11    1    3    3    0    0 -0.55180572244E+01 -0.47095444157E+01  0.62120046454E+01  0.95507992394E+01  0.51100000000E-03 0.  1.
        -12    1    3    3    0    0  0.14676457140E+02  0.20187945149E+02  0.30163857750E+02  0.39151115410E+02  0.00000000000E+00 0.  1.
</event>
<event>
 7    1  0.4474962E-015  0.9000772E+02  0.7816164E-02  0.1186339E+00
        -11   -1    0    0    0    0  0.00000000000E+00  0.00000000000E+00  0.45593999997E+02  0.45594000000E+02  0.51100000000E-03 0.  1.
         11   -1    0    0    0    0 -0.00000000000E+00 -0.00000000000E+00 -0.45593999997E+02  0.45594000000E+02  0.51100000000E-03 0. -1.
    9900012    2    1    2    0    0  0.75439343221E+00 -0.11464097073E+00 -0.90045281326E+00  0.90007717292E+02  0.89999978360E+02 0.  0.
        -12    1    1    2    0    0 -0.75439343221E+00  0.11464097073E+00  0.90045281326E+00  0.11802827084E+01  0.00000000000E+00 0.  1.
         11    1    3    3    0    0  0.29587014585E+02  0.12703356111E+02 -0.20802936873E+02  0.38334434538E+02  0.51100000000E-03 0. -1.
        -11    1    3    3    0    0  0.80162204034E+01  0.10573771990E+01  0.53503854270E+01  0.96955897487E+01  0.51100000000E-03 0.  1.
        -12    1    3    3    0    0 -0.36848841556E+02 -0.13875374280E+02  0.14552098633E+02  0.41977693005E+02  0.00000000000E+00 0.  1.
</event>
<event>
 7    1  0.2294706E-015  0.9000773E+02  0.7816164E-02  0.1186339E+00
        -11   -1    0    0    0    0  0.00000000000E+00  0.00000000000E+00  0.45593999997E+02  0.45594000000E+02  0.51100000000E-03 0.  1.
         11   -1    0    0    0    0 -0.00000000000E+00 -0.00000000000E+00 -0.45593999997E+02  0.45594000000E+02  0.51100000000E-03 0. -1.
    9900012    2    1    2    0    0 -0.78752715470E+00  0.58928287456E+00  0.65237573422E+00  0.90007725700E+02  0.89999986879E+02 0.  0.
        -12    1    1    2    0    0  0.78752715470E+00 -0.58928287456E+00 -0.65237573422E+00  0.11802743004E+01  0.00000000000E+00 0.  1.
         11    1    3    3    0    0  0.41891943797E+01  0.26139060801E+01 -0.81309030355E+01  0.95128039494E+01  0.51100000000E-03 0. -1.
        -11    1    3    3    0    0  0.35699162491E+02 -0.22540980428E+01  0.15995824166E+02  0.39183894033E+02  0.51100000000E-03 0.  1.
         12    1    3    3    0    0 -0.40675884026E+02  0.22947483731E+00 -0.72125453960E+01  0.41311027717E+02  0.00000000000E+00 0. -1.
</event>
<event>
 7    1  0.2294706E-015  0.9000784E+02  0.7816164E-02  0.1186339E+00
        -11   -1    0    0    0    0  0.00000000000E+00  0.00000000000E+00  0.45593999997E+02  0.45594000000E+02  0.51100000000E-03 0.  1.
         11   -1    0    0    0    0 -0.00000000000E+00 -0.00000000000E+00 -0.45593999997E+02  0.45594000000E+02  0.51100000000E-03 0. -1.
    9900012    2    1    2    0    0  0.73821720485E+00 -0.92046454543E+00 -0.23635117797E-01  0.90007839740E+02  0.90000102424E+02 0.  0.
        -12    1    1    2    0    0 -0.73821720485E+00  0.92046454543E+00  0.23635117797E-01  0.11801602602E+01  0.00000000000E+00 0.  1.
         11    1    3    3    0    0 -0.16915066967E+02 -0.11082158667E+01 -0.39720247087E+02  0.43186174429E+02  0.51100000000E-03 0. -1.
        -11    1    3    3    0    0 -0.35273871734E+01 -0.58684783774E+00  0.46725951550E+01  0.58838759674E+01  0.51100000000E-03 0.  1.
        -12    1    3    3    0    0  0.21180671345E+02  0.77459915898E+00  0.35024016814E+02  0.40937789343E+02  0.00000000000E+00 0.  1.
</event>
<event>
 7    1  0.2294706E-015  0.9000771E+02  0.7816164E-02  0.1186339E+00
        -11   -1    0    0    0    0  0.00000000000E+00  0.00000000000E+00  0.45593999997E+02  0.45594000000E+02  0.51100000000E-03 0. -1.
         11   -1    0    0    0    0 -0.00000000000E+00 -0.00000000000E+00 -0.45593999997E+02  0.45594000000E+02  0.51100000000E-03 0.  1.
    9900012    2    1    2    0    0 -0.46896024794E+00  0.92093854070E+00  0.57011355383E+00  0.90007711487E+02  0.89999972479E+02 0.  0.
        -12    1    1    2    0    0  0.46896024794E+00 -0.92093854070E+00 -0.57011355383E+00  0.11802885131E+01  0.00000000000E+00 0.  1.
         11    1    3    3    0    0  0.29674824808E+02  0.19326630601E+02  0.50782861285E+01  0.35775730154E+02  0.51100000000E-03 0. -1.
        -11    1    3    3    0    0  0.13583521224E+01  0.46351039494E+00 -0.15760447565E+02  0.15825664918E+02  0.51100000000E-03 0.  1.
        -12    1    3    3    0    0 -0.31502137179E+02 -0.18869202455E+02  0.11252274990E+02  0.38406316415E+02  0.00000000000E+00 0.  1.
</event>
<event>
 7    1  0.2294706E-015  0.9000769E+02  0.7816164E-02  0.1186339E+00
        -11   -1    0    0    0    0  0.00000000000E+00  0.00000000000E+00  0.45593999997E+02  0.45594000000E+02  0.51100000000E-03 0.  1.
         11   -1    0    0    0    0 -0.00000000000E+00 -0.00000000000E+00 -0.45593999997E+02  0.45594000000E+02  0.51100000000E-03 0. -1.
    9900012    2    1    2    0    0 -0.19670573499E+00 -0.60563975153E+00 -0.99379855441E+00  0.90007691472E+02  0.89999952199E+02 0.  0.
        -12    1    1    2    0    0  0.19670573499E+00  0.60563975153E+00  0.99379855441E+00  0.11803085281E+01  0.00000000000E+00 0.  1.
         11    1    3    3    0    0  0.10995386305E+02  0.44928727064E+01 -0.55553412497E+01  0.13112827377E+02  0.51100000000E-03 0. -1.
        -11    1    3    3    0    0  0.27495577282E+02 -0.20431826771E+02  0.78693352147E+01  0.35148154322E+02  0.51100000000E-03 0.  1.
         12    1    3    3    0    0 -0.38687669323E+02  0.15333314313E+02 -0.33077925194E+01  0.41746709772E+02  0.00000000000E+00 0. -1.
</event>
<event>
 7    1  0.2294706E-015  0.9000775E+02  0.7816164E-02  0.1186339E+00
        -11   -1    0    0    0    0  0.00000000000E+00  0.00000000000E+00  0.45593999997E+02  0.45594000000E+02  0.51100000000E-03 0.  1.
         11   -1    0    0    0    0 -0.00000000000E+00 -0.00000000000E+00 -0.45593999997E+02  0.45594000000E+02  0.51100000000E-03 0. -1.
    9900012    2    1    2    0    0  0.10687386656E+01 -0.42375392822E+00 -0.26687551823E+00  0.90007749065E+02  0.90000010553E+02 0.  0.
        -12    1    1    2    0    0 -0.10687386656E+01  0.42375392822E+00  0.26687551823E+00  0.11802509348E+01  0.00000000000E+00 0.  1.
         11    1    3    3    0    0 -0.26300659166E+02  0.19236912409E+02 -0.14652383044E+02  0.35727801510E+02  0.51100000000E-03 0. -1.
        -11    1    3    3    0    0 -0.39808208077E+01  0.88090292603E+01  0.37356868649E+00  0.96739590983E+01  0.51100000000E-03 0.  1.
        -12    1    3    3    0    0  0.31350218640E+02 -0.28469695597E+02  0.14011938840E+02  0.44605988457E+02  0.00000000000E+00 0.  1.
</event>
<event>
 7    1  0.2294706E-015  0.9000774E+02  0.7816164E-02  0.1186339E+00
        -11   -1    0    0    0    0  0.00000000000E+00  0.00000000000E+00  0.45593999997E+02  0.45594000000E+02  0.51100000000E-03 0. -1.
         11   -1    0    0    0    0 -0.00000000000E+00 -0.00000000000E+00 -0.45593999997E+02  0.45594000000E+02  0.51100000000E-03 0.  1.
    9900012    2    1    2    0    0  0.56816823784E+00 -0.10218969388E+01 -0.16101853236E+00  0.90007739237E+02  0.90000000595E+02 0.  0.
        -12    1    1    2    0    0 -0.56816823784E+00  0.10218969388E+01  0.16101853236E+00  0.11802607626E+01  0.00000000000E+00 0.  1.
         11    1    3    3    0    0  0.15679117089E+01  0.94132199899E+01  0.12850637366E+02  0.16006434290E+02  0.51100000000E-03 0. -1.
        -11    1    3    3    0    0  0.19882964134E+02 -0.27351575091E+01 -0.36492890907E+02  0.41647862326E+02  0.51100000000E-03 0.  1.
         12    1    3    3    0    0 -0.20882707605E+02 -0.76999594196E+01  0.23481235008E+02  0.32353442622E+02  0.00000000000E+00 0. -1.
</event>
<event>
 7    1  0.2294706E-015  0.9000859E+02  0.7816164E-02  0.1186337E+00
        -11   -1    0    0    0    0  0.00000000000E+00  0.00000000000E+00  0.45593999997E+02  0.45594000000E+02  0.51100000000E-03 0. -1.
         11   -1    0    0    0    0 -0.00000000000E+00 -0.00000000000E+00 -0.45593999997E+02  0.45594000000E+02  0.51100000000E-03 0.  1.
    9900012    2    1    2    0    0  0.40703325668E+00 -0.10096496213E+01  0.45379941922E+00  0.90008592376E+02  0.90000864992E+02 0.  0.
        -12    1    1    2    0    0 -0.40703325668E+00  0.10096496213E+01 -0.45379941922E+00  0.11794076236E+01  0.00000000000E+00 0.  1.
         11    1    3    3    0    0  0.26720544295E+02 -0.57673234542E+01  0.15351018700E+02  0.31351288373E+02  0.51100000000E-03 0. -1.
        -11    1    3    3    0    0  0.13143723385E+02  0.73697220128E+01  0.28126063499E+01  0.15329090701E+02  0.51100000000E-03 0.  1.
        -12    1    3    3    0    0 -0.39457234424E+02 -0.26120481800E+01 -0.17709825631E+02  0.43328213302E+02  0.00000000000E+00 0.  1.
</event>
<event>
 7    1  0.2294706E-015  0.9000771E+02  0.7816164E-02  0.1186339E+00
        -11   -1    0    0    0    0  0.00000000000E+00  0.00000000000E+00  0.45593999997E+02  0.45594000000E+02  0.51100000000E-03 0. -1.
         11   -1    0    0    0    0 -0.00000000000E+00 -0.00000000000E+00 -0.45593999997E+02  0.45594000000E+02  0.51100000000E-03 0.  1.
    9900012    2    1    2    0    0 -0.87142222057E-01  0.10614852025E+01  0.50865832711E+00  0.90007712791E+02  0.89999973800E+02 0.  0.
        -12    1    1    2    0    0  0.87142222057E-01 -0.10614852025E+01 -0.50865832711E+00  0.11802872090E+01  0.00000000000E+00 0.  1.
         11    1    3    3    0    0  0.69110180310E+00  0.74878759065E+01 -0.12309080746E+01  0.76197796716E+01  0.51100000000E-03 0. -1.
        -11    1    3    3    0    0  0.89552308560E+01  0.22332118195E+02 -0.30005746204E+02  0.38461207317E+02  0.51100000000E-03 0.  1.
         12    1    3    3    0    0 -0.97334748811E+01 -0.28758508899E+02  0.31745312605E+02  0.43926725803E+02  0.00000000000E+00 0. -1.
</event>
<event>
 7    1  0.2294706E-015  0.9000775E+02  0.7816164E-02  0.1186339E+00
        -11   -1    0    0    0    0  0.00000000000E+00  0.00000000000E+00  0.45593999997E+02  0.45594000000E+02  0.51100000000E-03 0.  1.
         11   -1    0    0    0    0 -0.00000000000E+00 -0.00000000000E+00 -0.45593999997E+02  0.45594000000E+02  0.51100000000E-03 0. -1.
    9900012    2    1    2    0    0 -0.15763804059E+00  0.88755037056E-01 -0.11662993843E+01  0.90007753643E+02  0.90000015191E+02 0.  0.
        -12    1    1    2    0    0  0.15763804059E+00 -0.88755037056E-01  0.11662993843E+01  0.11802463566E+01  0.00000000000E+00 0.  1.
         11    1    3    3    0    0 -0.78859757223E+01 -0.23953514360E+01 -0.44886501388E+01  0.93847909899E+01  0.51100000000E-03 0. -1.
        -11    1    3    3    0    0 -0.20159040557E+02  0.87365324126E+01  0.32856017075E+02  0.39525077775E+02  0.51100000000E-03 0.  1.
         12    1    3    3    0    0  0.27887378239E+02 -0.62524259396E+01 -0.29533666321E+02  0.41097884879E+02  0.00000000000E+00 0. -1.
</event>
<event>
 7    1  0.2294706E-015  0.9000778E+02  0.7816164E-02  0.1186339E+00
        -11   -1    0    0    0    0  0.00000000000E+00  0.00000000000E+00  0.45593999997E+02  0.45594000000E+02  0.51100000000E-03 0.  1.
         11   -1    0    0    0    0 -0.00000000000E+00 -0.00000000000E+00 -0.45593999997E+02  0.45594000000E+02  0.51100000000E-03 0. -1.
    9900012    2    1    2    0    0  0.90043399467E+00 -0.65804274679E+00 -0.38615787762E+00  0.90007779876E+02  0.90000041770E+02 0.  0.
        -12    1    1    2    0    0 -0.90043399467E+00  0.65804274679E+00  0.38615787762E+00  0.11802201243E+01  0.00000000000E+00 0.  1.
         11    1    3    3    0    0 -0.32330621770E+02 -0.55782420810E+01 -0.24023792732E+02  0.40663601737E+02  0.51100000000E-03 0. -1.
        -11    1    3    3    0    0 -0.23252129155E+01  0.61053330364E+01  0.84019041979E+01  0.10643011839E+02  0.51100000000E-03 0.  1.
        -12    1    3    3    0    0  0.35556268680E+02 -0.11851337021E+01  0.15235730657E+02  0.38701166300E+02  0.00000000000E+00 0.  1.
</event>
<event>
 7    1  0.2294706E-015  0.9000776E+02  0.7816164E-02  0.1186339E+00
        -11   -1    0    0    0    0  0.00000000000E+00  0.00000000000E+00  0.45593999997E+02  0.45594000000E+02  0.51100000000E-03 0. -1.
         11   -1    0    0    0    0 -0.00000000000E+00 -0.00000000000E+00 -0.45593999997E+02  0.45594000000E+02  0.51100000000E-03 0.  1.
    9900012    2    1    2    0    0  0.89019809609E+00 -0.25228105237E+00  0.73270874557E+00  0.90007762530E+02  0.90000024195E+02 0.  0.
        -12    1    1    2    0    0 -0.89019809609E+00  0.25228105237E+00 -0.73270874557E+00  0.11802374700E+01  0.00000000000E+00 0.  1.
         11    1    3    3    0    0 -0.78274393052E+01 -0.43720507564E+01 -0.27988570050E+01  0.93924030306E+01  0.51100000000E-03 0. -1.
        -11    1    3    3    0    0  0.11362052097E+02  0.41133546964E+02  0.73830425412E+01  0.43307900331E+02  0.51100000000E-03 0.  1.
         12    1    3    3    0    0 -0.26444146954E+01 -0.37013777260E+02 -0.38514767906E+01  0.37307459168E+02  0.00000000000E+00 0. -1.
</event>
<event>
 7    1  0.2294706E-015  0.9000776E+02  0.7816164E-02  0.1186339E+00
        -11   -1    0    0    0    0  0.00000000000E+00  0.00000000000E+00  0.45593999997E+02  0.45594000000E+02  0.51100000000E-03 0.  1.
         11   -1    0    0    0    0 -0.00000000000E+00 -0.00000000000E+00 -0.45593999997E+02  0.45594000000E+02  0.51100000000E-03 0. -1.
    9900012    2    1    2    0    0 -0.71830304778E+00  0.69808011104E+00 -0.62424628943E+00  0.90007763354E+02  0.90000025031E+02 0.  0.
        -12    1    1    2    0    0  0.71830304778E+00 -0.69808011104E+00  0.62424628943E+00  0.11802366457E+01  0.00000000000E+00 0.  1.
         11    1    3    3    0    0  0.20325827415E+01  0.42335434124E+01 -0.86089328893E+01  0.98065288548E+01  0.51100000000E-03 0. -1.
        -11    1    3    3    0    0  0.68441899987E+01  0.21250512949E+02  0.35505681684E+02  0.41941395654E+02  0.51100000000E-03 0.  1.
         12    1    3    3    0    0 -0.95950757880E+01 -0.24785976250E+02 -0.27520995084E+02  0.38259838845E+02  0.00000000000E+00 0. -1.
</event>
<event>
 7    1  0.2294706E-015  0.9000774E+02  0.7816164E-02  0.1186339E+00
        -11   -1    0    0    0    0  0.00000000000E+00  0.00000000000E+00  0.45593999997E+02  0.45594000000E+02  0.51100000000E-03 0.  1.
         11   -1    0    0    0    0 -0.00000000000E+00 -0.00000000000E+00 -0.45593999997E+02  0.45594000000E+02  0.51100000000E-03 0. -1.
    9900012    2    1    2    0    0 -0.33488799482E+00  0.60286937034E+00 -0.95781705803E+00  0.90007739451E+02  0.90000000812E+02 0.  0.
        -12    1    1    2    0    0  0.33488799482E+00 -0.60286937034E+00  0.95781705803E+00  0.11802605490E+01  0.00000000000E+00 0.  1.
         11    1    3    3    0    0  0.14432179748E+02 -0.20202826764E+02 -0.34497005364E+02  0.42502769333E+02  0.51100000000E-03 0. -1.
        -11    1    3    3    0    0  0.38586280620E+01  0.83797050072E+01  0.31298353153E+01  0.97418856435E+01  0.51100000000E-03 0.  1.
        -12    1    3    3    0    0 -0.18625695805E+02  0.12425991127E+02  0.30409352991E+02  0.37763084475E+02  0.00000000000E+00 0.  1.
</event>
<event>
 7    1  0.2294706E-015  0.9000775E+02  0.7816164E-02  0.1186339E+00
        -11   -1    0    0    0    0  0.00000000000E+00  0.00000000000E+00  0.45593999997E+02  0.45594000000E+02  0.51100000000E-03 0.  1.
         11   -1    0    0    0    0 -0.00000000000E+00 -0.00000000000E+00 -0.45593999997E+02  0.45594000000E+02  0.51100000000E-03 0. -1.
    9900012    2    1    2    0    0  0.63715727751E+00  0.70512042092E+00 -0.69987199605E+00  0.90007752138E+02  0.90000013666E+02 0.  0.
        -12    1    1    2    0    0 -0.63715727751E+00 -0.70512042092E+00  0.69987199605E+00  0.11802478617E+01  0.00000000000E+00 0.  1.
         11    1    3    3    0    0 -0.30390725243E+02 -0.15844944292E+01  0.52985765540E+01  0.30889831938E+02  0.51100000000E-03 0. -1.
        -11    1    3    3    0    0  0.15209341437E+02  0.19178760521E+02  0.14289655954E+02  0.28343309433E+02  0.51100000000E-03 0.  1.
        -12    1    3    3    0    0  0.15818541084E+02 -0.16889145671E+02 -0.20288104504E+02  0.30774610767E+02  0.00000000000E+00 0.  1.
</event>
<event>
 7    1  0.2294706E-015  0.9000803E+02  0.7816164E-02  0.1186338E+00
        -11   -1    0    0    0    0  0.00000000000E+00  0.00000000000E+00  0.45593999997E+02  0.45594000000E+02  0.51100000000E-03 0.  1.
         11   -1    0    0    0    0 -0.00000000000E+00 -0.00000000000E+00 -0.45593999997E+02  0.45594000000E+02  0.51100000000E-03 0. -1.
    9900012    2    1    2    0    0 -0.17700680135E+00 -0.28255922491E+00 -0.11318856619E+01  0.90008027002E+02  0.90000292158E+02 0.  0.
        -12    1    1    2    0    0  0.17700680135E+00  0.28255922491E+00  0.11318856619E+01  0.11799729975E+01  0.00000000000E+00 0.  1.
         11    1    3    3    0    0  0.16098820288E+02  0.27963910155E+02 -0.13156348413E+02  0.34845972359E+02  0.51100000000E-03 0. -1.
        -11    1    3    3    0    0  0.75165279495E+01  0.76558152876E+01  0.15930574223E+01  0.10846544719E+02  0.51100000000E-03 0.  1.
        -12    1    3    3    0    0 -0.23792355039E+02 -0.35902284668E+02  0.10431405329E+02  0.44315509924E+02  0.00000000000E+00 0.  1.
</event>
<event>
 7    1  0.2294706E-015  0.9000773E+02  0.7816164E-02  0.1186339E+00
        -11   -1    0    0    0    0  0.00000000000E+00  0.00000000000E+00  0.45593999997E+02  0.45594000000E+02  0.51100000000E-03 0.  1.
         11   -1    0    0    0    0 -0.00000000000E+00 -0.00000000000E+00 -0.45593999997E+02  0.45594000000E+02  0.51100000000E-03 0. -1.
    9900012    2    1    2    0    0 -0.11377442807E+01 -0.23314831119E+00 -0.21026392828E+00  0.90007732614E+02  0.89999993884E+02 0.  0.
        -12    1    1    2    0    0  0.11377442807E+01  0.23314831119E+00  0.21026392828E+00  0.11802673861E+01  0.00000000000E+00 0.  1.
         11    1    3    3    0    0 -0.26535432860E+01 -0.64658772160E+01  0.43062752160E+01  0.82093158448E+01  0.51100000000E-03 0. -1.
        -11    1    3    3    0    0  0.13183716574E+02 -0.10868546899E+01  0.36345182058E+02  0.38677692471E+02  0.51100000000E-03 0.  1.
         12    1    3    3    0    0 -0.11667917568E+02  0.73195835947E+01 -0.40861721202E+02  0.43120724298E+02  0.00000000000E+00 0. -1.
</event>
<event>
 7    1  0.2294706E-015  0.9000779E+02  0.7816164E-02  0.1186339E+00
        -11   -1    0    0    0    0  0.00000000000E+00  0.00000000000E+00  0.45593999997E+02  0.45594000000E+02  0.51100000000E-03 0.  1.
         11   -1    0    0    0    0 -0.00000000000E+00 -0.00000000000E+00 -0.45593999997E+02  0.45594000000E+02  0.51100000000E-03 0. -1.
    9900012    2    1    2    0    0 -0.90281660719E+00 -0.22400116752E+00 -0.72638496838E+00  0.90007792615E+02  0.90000054678E+02 0.  0.
        -12    1    1    2    0    0  0.90281660719E+00  0.22400116752E+00  0.72638496838E+00  0.11802073850E+01  0.00000000000E+00 0.  1.
         11    1    3    3    0    0 -0.23983811751E+02  0.36695511506E+02  0.20167124698E+01  0.43884518002E+02  0.51100000000E-03 0. -1.
        -11    1    3    3    0    0  0.10113399811E+01 -0.27200343664E+01 -0.45322625776E+01  0.53817097511E+01  0.51100000000E-03 0.  1.
        -12    1    3    3    0    0  0.22069655163E+02 -0.34199478307E+02  0.17891651394E+01  0.40741564862E+02  0.00000000000E+00 0.  1.
</event>
<event>
 7    1  0.2294706E-015  0.9000764E+02  0.7816164E-02  0.1186339E+00
        -11   -1    0    0    0    0  0.00000000000E+00  0.00000000000E+00  0.45593999997E+02  0.45594000000E+02  0.51100000000E-03 0.  1.
         11   -1    0    0    0    0 -0.00000000000E+00 -0.00000000000E+00 -0.45593999997E+02  0.45594000000E+02  0.51100000000E-03 0. -1.
    9900012    2    1    2    0    0 -0.10746851575E+01  0.47715911868E+00  0.10304555435E+00  0.90007640987E+02  0.89999901048E+02 0.  0.
        -12    1    1    2    0    0  0.10746851575E+01 -0.47715911868E+00 -0.10304555435E+00  0.11803590126E+01  0.00000000000E+00 0.  1.
         11    1    3    3    0    0  0.26204851029E+02  0.26635454384E+02 -0.91951034851E+01  0.38479755406E+02  0.51100000000E-03 0. -1.
        -11    1    3    3    0    0  0.77383753363E+01 -0.56293557479E+01 -0.10809415390E+01  0.96301886717E+01  0.51100000000E-03 0.  1.
        -12    1    3    3    0    0 -0.35017911523E+02 -0.20528939517E+02  0.10379090578E+02  0.41897696910E+02  0.00000000000E+00 0.  1.
</event>
<event>
 7    1  0.2294706E-015  0.9000714E+02  0.7816164E-02  0.1186340E+00
        -11   -1    0    0    0    0  0.00000000000E+00  0.00000000000E+00  0.45593999997E+02  0.45594000000E+02  0.51100000000E-03 0.  1.
         11   -1    0    0    0    0 -0.00000000000E+00 -0.00000000000E+00 -0.45593999997E+02  0.45594000000E+02  0.51100000000E-03 0. -1.
    9900012    2    1    2    0    0 -0.57350938654E+00  0.68888246854E+00 -0.76873265886E+00  0.90007143543E+02  0.89999397035E+02 0.  0.
        -12    1    1    2    0    0  0.57350938654E+00 -0.68888246854E+00  0.76873265886E+00  0.11808564573E+01  0.00000000000E+00 0.  1.
         11    1    3    3    0    0 -0.31649682219E+01  0.77275899010E+01 -0.81323756259E+01  0.11656251675E+02  0.51100000000E-03 0. -1.
        -11    1    3    3    0    0 -0.11763198937E+02  0.32832947903E+02 -0.20652071647E+01  0.34937664463E+02  0.51100000000E-03 0.  1.
         12    1    3    3    0    0  0.14354657773E+02 -0.39871655335E+02  0.94288501318E+01  0.43413227405E+02  0.00000000000E+00 0. -1.
</event>
<event>
 7    1  0.2294706E-015  0.9000773E+02  0.7816164E-02  0.1186339E+00
        -11   -1    0    0    0    0  0.00000000000E+00  0.00000000000E+00  0.45593999997E+02  0.45594000000E+02  0.51100000000E-03 0. -1.
         11   -1    0    0    0    0 -0.00000000000E+00 -0.00000000000E+00 -0.45593999997E+02  0.45594000000E+02  0.51100000000E-03 0.  1.
    9900012    2    1    2    0    0 -0.40589879452E+00 -0.35112607139E+00  0.10511903593E+01  0.90007726929E+02  0.89999988125E+02 0.  0.
        -12    1    1    2    0    0  0.40589879452E+00  0.35112607139E+00 -0.10511903593E+01  0.11802730705E+01  0.00000000000E+00 0.  1.
         11    1    3    3    0    0 -0.78987590582E+01 -0.33374898454E+01  0.38931985252E+00  0.85837522877E+01  0.51100000000E-03 0. -1.
        -11    1    3    3    0    0 -0.12039251434E+02  0.23936988952E+01 -0.37006197993E+02  0.38988870971E+02  0.51100000000E-03 0.  1.
         12    1    3    3    0    0  0.19532111697E+02  0.59266487883E+00  0.37668068500E+02  0.42435103670E+02  0.00000000000E+00 0. -1.
</event>
<event>
 7    1  0.2294706E-015  0.9000767E+02  0.7816164E-02  0.1186339E+00
        -11   -1    0    0    0    0  0.00000000000E+00  0.00000000000E+00  0.45593999997E+02  0.45594000000E+02  0.51100000000E-03 0. -1.
         11   -1    0    0    0    0 -0.00000000000E+00 -0.00000000000E+00 -0.45593999997E+02  0.45594000000E+02  0.51100000000E-03 0.  1.
    9900012    2    1    2    0    0 -0.96886229502E+00  0.67237794767E+00  0.48903133318E-01  0.90007670483E+02  0.89999930934E+02 0.  0.
        -12    1    1    2    0    0  0.96886229502E+00 -0.67237794767E+00 -0.48903133318E-01  0.11803295166E+01  0.00000000000E+00 0.  1.
         11    1    3    3    0    0 -0.34844564793E+02  0.55598627133E+01  0.13943285061E+02  0.37940360668E+02  0.51100000000E-03 0. -1.
        -11    1    3    3    0    0 -0.75829781425E+01 -0.32004484336E+01  0.23651278329E+00  0.82340977796E+01  0.51100000000E-03 0.  1.
        -12    1    3    3    0    0  0.41458680641E+02 -0.16870363320E+01 -0.14130894711E+02  0.43833212036E+02  0.00000000000E+00 0.  1.
</event>
<event>
 7    1  0.2294706E-015  0.9000783E+02  0.7816164E-02  0.1186339E+00
        -11   -1    0    0    0    0  0.00000000000E+00  0.00000000000E+00  0.45593999997E+02  0.45594000000E+02  0.51100000000E-03 0. -1.
         11   -1    0    0    0    0 -0.00000000000E+00 -0.00000000000E+00 -0.45593999997E+02  0.45594000000E+02  0.51100000000E-03 0.  1.
    9900012    2    1    2    0    0  0.89133031486E+00  0.44443750644E+00 -0.63308723557E+00  0.90007833116E+02  0.90000095713E+02 0.  0.
        -12    1    1    2    0    0 -0.89133031486E+00 -0.44443750644E+00  0.63308723557E+00  0.11801668845E+01  0.00000000000E+00 0.  1.
         11    1    3    3    0    0 -0.38707952640E+02 -0.39874161181E+01 -0.89319126941E+01  0.39924731052E+02  0.51100000000E-03 0. -1.
        -11    1    3    3    0    0 -0.39379750027E+00 -0.69746419304E+01  0.45273675893E+01  0.83245278592E+01  0.51100000000E-03 0.  1.
        -12    1    3    3    0    0  0.39993080455E+02  0.11406495555E+02  0.37714578692E+01  0.41758574205E+02  0.00000000000E+00 0.  1.
</event>
<event>
 7    1  0.2294706E-015  0.9000774E+02  0.7816164E-02  0.1186339E+00
        -11   -1    0    0    0    0  0.00000000000E+00  0.00000000000E+00  0.45593999997E+02  0.45594000000E+02  0.51100000000E-03 0.  1.
         11   -1    0    0    0    0 -0.00000000000E+00 -0.00000000000E+00 -0.45593999997E+02  0.45594000000E+02  0.51100000000E-03 0. -1.
    9900012    2    1    2    0    0 -0.10486494263E+01  0.53784535228E+00  0.63807617883E-01  0.90007739582E+02  0.90000000944E+02 0.  0.
        -12    1    1    2    0    0  0.10486494263E+01 -0.53784535228E+00 -0.63807617883E-01  0.11802604180E+01  0.00000000000E+00 0.  1.
         11    1    3    3    0    0  0.27330673358E+02  0.16422162315E+02 -0.21031809119E+02  0.38196729133E+02  0.51100000000E-03 0. -1.
        -11    1    3    3    0    0  0.96426374117E+00 -0.66800117896E+01 -0.73079622283E+01  0.99477974579E+01  0.51100000000E-03 0.  1.
        -12    1    3    3    0    0 -0.29343586526E+02 -0.92043051733E+01  0.28403578965E+02  0.41863212992E+02  0.00000000000E+00 0.  1.
</event>
<event>
 7    1  0.2294706E-015  0.9000778E+02  0.7816164E-02  0.1186339E+00
        -11   -1    0    0    0    0  0.00000000000E+00  0.00000000000E+00  0.45593999997E+02  0.45594000000E+02  0.51100000000E-03 0.  1.
         11   -1    0    0    0    0 -0.00000000000E+00 -0.00000000000E+00 -0.45593999997E+02  0.45594000000E+02  0.51100000000E-03 0. -1.
    9900012    2    1    2    0    0 -0.18589016845E+00  0.83068735026E+00 -0.81750758888E+00  0.90007781678E+02  0.90000043597E+02 0.  0.
        -12    1    1    2    0    0  0.18589016845E+00 -0.83068735026E+00  0.81750758888E+00  0.11802183215E+01  0.00000000000E+00 0.  1.
         11    1    3    3    0    0 -0.74558611641E+01  0.28378196506E+01  0.12307084892E+02  0.14666540999E+02  0.51100000000E-03 0. -1.
        -11    1    3    3    0    0 -0.29557061543E+02  0.11069681137E+02 -0.17379245652E+02  0.36030485804E+02  0.51100000000E-03 0.  1.
         12    1    3    3    0    0  0.36827032539E+02 -0.13076813437E+02  0.42546531706E+01  0.39310754876E+02  0.00000000000E+00 0. -1.
</event>
<event>
 7    1  0.2294706E-015  0.9000782E+02  0.7816164E-02  0.1186339E+00
        -11   -1    0    0    0    0  0.00000000000E+00  0.00000000000E+00  0.45593999997E+02  0.45594000000E+02  0.51100000000E-03 0.  1.
         11   -1    0    0    0    0 -0.00000000000E+00 -0.00000000000E+00 -0.45593999997E+02  0.45594000000E+02  0.51100000000E-03 0. -1.
    9900012    2    1    2    0    0 -0.39148955904E+00  0.74551035051E+00 -0.82691122461E+00  0.90007816993E+02  0.90000079377E+02 0.  0.
        -12    1    1    2    0    0  0.39148955904E+00 -0.74551035051E+00  0.82691122461E+00  0.11801830074E+01  0.00000000000E+00 0.  1.
         11    1    3    3    0    0  0.62545941716E+00 -0.59314618471E+00  0.96114597974E+01  0.96500353148E+01  0.51100000000E-03 0. -1.
        -11    1    3    3    0    0 -0.18303616279E+02 -0.13470715456E+02  0.27769302770E+02  0.35883376658E+02  0.51100000000E-03 0.  1.
         12    1    3    3    0    0  0.17286667303E+02  0.14809371992E+02 -0.38207673792E+02  0.44474405019E+02  0.00000000000E+00 0. -1.
</event>
<event>
 7    1  0.2294706E-015  0.9000759E+02  0.7816164E-02  0.1186339E+00
        -11   -1    0    0    0    0  0.00000000000E+00  0.00000000000E+00  0.45593999997E+02  0.45594000000E+02  0.51100000000E-03 0.  1.
         11   -1    0    0    0    0 -0.00000000000E+00 -0.00000000000E+00 -0.45593999997E+02  0.45594000000E+02  0.51100000000E-03 0. -1.
    9900012    2    1    2    0    0  0.98145290682E+00 -0.47941179078E+00 -0.44753531517E+00  0.90007587643E+02  0.89999847000E+02 0.  0.
        -12    1    1    2    0    0 -0.98145290682E+00  0.47941179078E+00  0.44753531517E+00  0.11804123567E+01  0.00000000000E+00 0.  1.
         11    1    3    3    0    0  0.82015919977E+01 -0.17943214492E+02 -0.32076591887E+02  0.37658104107E+02  0.51100000000E-03 0. -1.
        -11    1    3    3    0    0  0.10152043346E+02 -0.45924369817E+01  0.16290619931E+01  0.11260919357E+02  0.51100000000E-03 0.  1.
        -12    1    3    3    0    0 -0.17372182437E+02  0.22056239683E+02  0.29999994579E+02  0.41088564179E+02  0.00000000000E+00 0.  1.
</event>
<event>
 7    1  0.2294706E-015  0.9000773E+02  0.7816164E-02  0.1186339E+00
        -11   -1    0    0    0    0  0.00000000000E+00  0.00000000000E+00  0.45593999997E+02  0.45594000000E+02  0.51100000000E-03 0.  1.
         11   -1    0    0    0    0 -0.00000000000E+00 -0.00000000000E+00 -0.45593999997E+02  0.45594000000E+02  0.51100000000E-03 0. -1.
    9900012    2    1    2    0    0 -0.14869636664E+00 -0.37692904878E+00 -0.11085403233E+01  0.90007725555E+02  0.89999986732E+02 0.  0.
        -12    1    1    2    0    0  0.14869636664E+00  0.37692904878E+00  0.11085403233E+01  0.11802744450E+01  0.00000000000E+00 0.  1.
         11    1    3    3    0    0 -0.67102780783E+01  0.35319630881E+02 -0.20289253257E+02  0.41281448078E+02  0.51100000000E-03 0. -1.
        -11    1    3    3    0    0 -0.52386543508E+01 -0.54725117959E+01 -0.42668492550E+01  0.86947045717E+01  0.51100000000E-03 0.  1.
        -12    1    3    3    0    0  0.11800236062E+02 -0.30224048133E+02  0.23447562188E+02  0.40031572905E+02  0.00000000000E+00 0.  1.
</event>
<event>
 7    1  0.2294706E-015  0.9000781E+02  0.7816164E-02  0.1186339E+00
        -11   -1    0    0    0    0  0.00000000000E+00  0.00000000000E+00  0.45593999997E+02  0.45594000000E+02  0.51100000000E-03 0.  1.
         11   -1    0    0    0    0 -0.00000000000E+00 -0.00000000000E+00 -0.45593999997E+02  0.45594000000E+02  0.51100000000E-03 0. -1.
    9900012    2    1    2    0    0  0.10081443391E+01 -0.57649468372E+00  0.21010608011E+00  0.90007811162E+02  0.90000073469E+02 0.  0.
        -12    1    1    2    0    0 -0.10081443391E+01  0.57649468372E+00 -0.21010608011E+00  0.11801888382E+01  0.00000000000E+00 0.  1.
         11    1    3    3    0    0 -0.24617978672E+02  0.69360398086E+01 -0.26714351427E+02  0.36983916701E+02  0.51100000000E-03 0. -1.
        -11    1    3    3    0    0 -0.42860751934E+01  0.77243822620E+01 -0.15935632645E+01  0.89764116457E+01  0.51100000000E-03 0.  1.
        -12    1    3    3    0    0  0.29912198205E+02 -0.15236916754E+02  0.28518020771E+02  0.44047482815E+02  0.00000000000E+00 0.  1.
</event>
<event>
 7    1  0.2294706E-015  0.9000770E+02  0.7816164E-02  0.1186339E+00
        -11   -1    0    0    0    0  0.00000000000E+00  0.00000000000E+00  0.45593999997E+02  0.45594000000E+02  0.51100000000E-03 0.  1.
         11   -1    0    0    0    0 -0.00000000000E+00 -0.00000000000E+00 -0.45593999997E+02  0.45594000000E+02  0.51100000000E-03 0. -1.
    9900012    2    1    2    0    0 -0.38057007647E+00  0.75315215780E+00 -0.82525443214E+00  0.90007696381E+02  0.89999957173E+02 0.  0.
        -12    1    1    2    0    0  0.38057007647E+00 -0.75315215780E+00  0.82525443214E+00  0.11803036193E+01  0.00000000000E+00 0.  1.
         11    1    3    3    0    0 -0.79076813258E+01  0.35644872901E+01  0.57677776203E+01  0.10416537454E+02  0.51100000000E-03 0. -1.
        -11    1    3    3    0    0  0.18296448931E+02  0.33388712195E+02  0.83438248851E+01  0.38976731001E+02  0.51100000000E-03 0.  1.
         12    1    3    3    0    0 -0.10769337682E+02 -0.36200047327E+02 -0.14936856938E+02  0.40614427926E+02  0.00000000000E+00 0. -1.
</event>
<event>
 7    1  0.2294706E-015  0.9000783E+02  0.7816164E-02  0.1186339E+00
        -11   -1    0    0    0    0  0.00000000000E+00  0.00000000000E+00  0.45593999997E+02  0.45594000000E+02  0.51100000000E-03 0. -1.
         11   -1    0    0    0    0 -0.00000000000E+00 -0.00000000000E+00 -0.45593999997E+02  0.45594000000E+02  0.51100000000E-03 0.  1.
    9900012    2    1    2    0    0  0.55322835987E+00  0.10394449599E+01  0.79348787665E-01  0.90007828965E+02  0.90000091507E+02 0.  0.
        -12    1    1    2    0    0 -0.55322835987E+00 -0.10394449599E+01 -0.79348787665E-01  0.11801710355E+01  0.00000000000E+00 0.  1.
         11    1    3    3    0    0  0.97790062494E+01  0.16116111710E+01 -0.26535071953E+01  0.10259988036E+02  0.51100000000E-03 0. -1.
        -11    1    3    3    0    0  0.17771467676E+02  0.14825180574E+02 -0.27804872648E+02  0.36176262738E+02  0.51100000000E-03 0.  1.
         12    1    3    3    0    0 -0.26997245566E+02 -0.15397346785E+02  0.30537728631E+02  0.43571578191E+02  0.00000000000E+00 0. -1.
</event>
<event>
 7    1  0.2294706E-015  0.9000773E+02  0.7816164E-02  0.1186339E+00
        -11   -1    0    0    0    0  0.00000000000E+00  0.00000000000E+00  0.45593999997E+02  0.45594000000E+02  0.51100000000E-03 0.  1.
         11   -1    0    0    0    0 -0.00000000000E+00 -0.00000000000E+00 -0.45593999997E+02  0.45594000000E+02  0.51100000000E-03 0. -1.
    9900012    2    1    2    0    0  0.59400034438E+00  0.10191039870E+01  0.40322895611E-01  0.90007730844E+02  0.89999992091E+02 0.  0.
        -12    1    1    2    0    0 -0.59400034438E+00 -0.10191039870E+01 -0.40322895611E-01  0.11802691563E+01  0.00000000000E+00 0.  1.
         11    1    3    3    0    0  0.23730104947E+02 -0.15785930329E+01 -0.30322914908E+02  0.38536852564E+02  0.51100000000E-03 0. -1.
        -11    1    3    3    0    0  0.49281557320E+01 -0.72588776213E+01 -0.26284750758E+00  0.87776484501E+01  0.51100000000E-03 0.  1.
        -12    1    3    3    0    0 -0.28064260334E+02  0.98565746412E+01  0.30626085312E+02  0.42693229830E+02  0.00000000000E+00 0.  1.
</event>
<event>
 7    1  0.2294706E-015  0.9000775E+02  0.7816164E-02  0.1186339E+00
        -11   -1    0    0    0    0  0.00000000000E+00  0.00000000000E+00  0.45593999997E+02  0.45594000000E+02  0.51100000000E-03 0.  1.
         11   -1    0    0    0    0 -0.00000000000E+00 -0.00000000000E+00 -0.45593999997E+02  0.45594000000E+02  0.51100000000E-03 0. -1.
    9900012    2    1    2    0    0 -0.50969332575E+00  0.21073921621E+00 -0.10434544158E+01  0.90007747730E+02  0.90000009200E+02 0.  0.
        -12    1    1    2    0    0  0.50969332575E+00 -0.21073921621E+00  0.10434544158E+01  0.11802522702E+01  0.00000000000E+00 0.  1.
         11    1    3    3    0    0  0.80761177669E+01 -0.58488832840E+01 -0.13848108878E+01  0.10067314205E+02  0.51100000000E-03 0. -1.
        -11    1    3    3    0    0  0.29178101013E+02 -0.63562704382E+01  0.19649095385E+02  0.35747037672E+02  0.51100000000E-03 0.  1.
         12    1    3    3    0    0 -0.37763912106E+02  0.12415892938E+02 -0.19307738913E+02  0.44193395852E+02  0.00000000000E+00 0. -1.
</event>
<event>
 7    1  0.2294706E-015  0.9000772E+02  0.7816164E-02  0.1186339E+00
        -11   -1    0    0    0    0  0.00000000000E+00  0.00000000000E+00  0.45593999997E+02  0.45594000000E+02  0.51100000000E-03 0.  1.
         11   -1    0    0    0    0 -0.00000000000E+00 -0.00000000000E+00 -0.45593999997E+02  0.45594000000E+02  0.51100000000E-03 0. -1.
    9900012    2    1    2    0    0  0.92826505336E+00 -0.46558198765E+00  0.56090765151E+00  0.90007720376E+02  0.89999981485E+02 0.  0.
        -12    1    1    2    0    0 -0.92826505336E+00  0.46558198765E+00 -0.56090765151E+00  0.11802796237E+01  0.00000000000E+00 0.  1.
         11    1    3    3    0    0 -0.29526143000E+01 -0.50462903911E+00  0.91986612902E+01  0.96740865958E+01  0.51100000000E-03 0. -1.
        -11    1    3    3    0    0 -0.60249473226E+01  0.24370379558E+02  0.26472573219E+02  0.36483044324E+02  0.51100000000E-03 0.  1.
         12    1    3    3    0    0  0.99058266760E+01 -0.24331332507E+02 -0.35110326857E+02  0.43850589457E+02  0.00000000000E+00 0. -1.
</event>
<event>
 7    1  0.2294706E-015  0.9000777E+02  0.7816164E-02  0.1186339E+00
        -11   -1    0    0    0    0  0.00000000000E+00  0.00000000000E+00  0.45593999997E+02  0.45594000000E+02  0.51100000000E-03 0.  1.
         11   -1    0    0    0    0 -0.00000000000E+00 -0.00000000000E+00 -0.45593999997E+02  0.45594000000E+02  0.51100000000E-03 0. -1.
    9900012    2    1    2    0    0  0.93772864000E+00 -0.71520587197E+00  0.45643841378E-01  0.90007772140E+02  0.90000033932E+02 0.  0.
        -12    1    1    2    0    0 -0.93772864000E+00  0.71520587197E+00 -0.45643841378E-01  0.11802278601E+01  0.00000000000E+00 0.  1.
         11    1    3    3    0    0 -0.88443338618E+01 -0.36426771866E+02  0.11066938906E+02  0.39084640040E+02  0.51100000000E-03 0. -1.
        -11    1    3    3    0    0  0.14152659491E+00 -0.55453239404E+01 -0.61398682074E+01  0.82745772850E+01  0.51100000000E-03 0.  1.
        -12    1    3    3    0    0  0.96405359068E+01  0.41256889934E+02 -0.48814268577E+01  0.42648554815E+02  0.00000000000E+00 0.  1.
</event>
<event>
 7    1  0.2294706E-015  0.9000759E+02  0.7816164E-02  0.1186339E+00
        -11   -1    0    0    0    0  0.00000000000E+00  0.00000000000E+00  0.45593999997E+02  0.45594000000E+02  0.51100000000E-03 0. -1.
         11   -1    0    0    0    0 -0.00000000000E+00 -0.00000000000E+00 -0.45593999997E+02  0.45594000000E+02  0.51100000000E-03 0.  1.
    9900012    2    1    2    0    0 -0.95146417788E+00 -0.69861580514E+00  0.50320811245E-02  0.90007587595E+02  0.89999846951E+02 0.  0.
        -12    1    1    2    0    0  0.95146417788E+00  0.69861580514E+00 -0.50320811245E-02  0.11804124054E+01  0.00000000000E+00 0.  1.
         11    1    3    3    0    0  0.28099456921E+00 -0.10450689825E+01  0.70033882929E+01  0.70865065419E+01  0.51100000000E-03 0. -1.
        -11    1    3    3    0    0 -0.21153760757E+02 -0.32682855097E+02 -0.17883895190E+02  0.42842552665E+02  0.51100000000E-03 0.  1.
         12    1    3    3    0    0  0.19921302010E+02  0.33029308274E+02  0.10885538978E+02  0.40078528387E+02  0.00000000000E+00 0. -1.
</event>
<event>
 7    1  0.2294706E-015  0.9000775E+02  0.7816164E-02  0.1186339E+00
        -11   -1    0    0    0    0  0.00000000000E+00  0.00000000000E+00  0.45593999997E+02  0.45594000000E+02  0.51100000000E-03 0. -1.
         11   -1    0    0    0    0 -0.00000000000E+00 -0.00000000000E+00 -0.45593999997E+02  0.45594000000E+02  0.51100000000E-03 0.  1.
    9900012    2    1    2    0    0  0.11721381068E+01 -0.40099926821E-01  0.13223246779E+00  0.90007745294E+02  0.90000006732E+02 0.  0.
        -12    1    1    2    0    0 -0.11721381068E+01  0.40099926821E-01 -0.13223246779E+00  0.11802547060E+01  0.00000000000E+00 0.  1.
         11    1    3    3    0    0  0.11931575640E+01 -0.39284794042E+02 -0.22617913164E+01  0.39367935787E+02  0.51100000000E-03 0. -1.
        -11    1    3    3    0    0  0.50484187111E+01 -0.31253637529E+01  0.51761105858E+01  0.78769633190E+01  0.51100000000E-03 0.  1.
        -12    1    3    3    0    0 -0.50694381683E+01  0.42370057868E+02 -0.27820868016E+01  0.42762846188E+02  0.00000000000E+00 0.  1.
</event>
<event>
 7    1  0.2294706E-015  0.9000759E+02  0.7816164E-02  0.1186339E+00
        -11   -1    0    0    0    0  0.00000000000E+00  0.00000000000E+00  0.45593999997E+02  0.45594000000E+02  0.51100000000E-03 0. -1.
         11   -1    0    0    0    0 -0.00000000000E+00 -0.00000000000E+00 -0.45593999997E+02  0.45594000000E+02  0.51100000000E-03 0.  1.
    9900012    2    1    2    0    0 -0.73727995506E+00 -0.62290694489E+00  0.67953821538E+00  0.90007590334E+02  0.89999849726E+02 0.  0.
        -12    1    1    2    0    0  0.73727995506E+00  0.62290694489E+00 -0.67953821538E+00  0.11804096663E+01  0.00000000000E+00 0.  1.
         11    1    3    3    0    0  0.16999510417E+01  0.26638978685E+00 -0.83591888215E+01  0.85344498989E+01  0.51100000000E-03 0. -1.
        -11    1    3    3    0    0  0.25241194739E+02  0.30154506816E+02  0.28959094507E+01  0.39430933098E+02  0.51100000000E-03 0.  1.
         12    1    3    3    0    0 -0.27678425736E+02 -0.31043803547E+02  0.61428175862E+01  0.42042207337E+02  0.00000000000E+00 0. -1.
</event>
<event>
 7    1  0.2294706E-015  0.9000782E+02  0.7816164E-02  0.1186339E+00
        -11   -1    0    0    0    0  0.00000000000E+00  0.00000000000E+00  0.45593999997E+02  0.45594000000E+02  0.51100000000E-03 0.  1.
         11   -1    0    0    0    0 -0.00000000000E+00 -0.00000000000E+00 -0.45593999997E+02  0.45594000000E+02  0.51100000000E-03 0. -1.
    9900012    2    1    2    0    0 -0.11677847925E+01 -0.14037743567E+00  0.96952642698E-01  0.90007819098E+02  0.90000081510E+02 0.  0.
        -12    1    1    2    0    0  0.11677847925E+01  0.14037743567E+00 -0.96952642698E-01  0.11801809018E+01  0.00000000000E+00 0.  1.
         11    1    3    3    0    0  0.54020965954E-01  0.95521966341E+01 -0.11101114161E+01  0.96166379997E+01  0.51100000000E-03 0. -1.
        -11    1    3    3    0    0  0.37002509617E+02  0.52692305689E+01 -0.82322225549E+01  0.38271660497E+02  0.51100000000E-03 0.  1.
         12    1    3    3    0    0 -0.38224315375E+02 -0.14961804639E+02  0.94392866137E+01  0.42119520602E+02  0.00000000000E+00 0. -1.
</event>
<event>
 7    1  0.2294706E-015  0.9000766E+02  0.7816164E-02  0.1186339E+00
        -11   -1    0    0    0    0  0.00000000000E+00  0.00000000000E+00  0.45593999997E+02  0.45594000000E+02  0.51100000000E-03 0. -1.
         11   -1    0    0    0    0 -0.00000000000E+00 -0.00000000000E+00 -0.45593999997E+02  0.45594000000E+02  0.51100000000E-03 0.  1.
    9900012    2    1    2    0    0  0.67911581812E-01 -0.10976516896E+01 -0.42866797805E+00  0.90007657910E+02  0.89999918194E+02 0.  0.
        -12    1    1    2    0    0 -0.67911581812E-01  0.10976516896E+01  0.42866797805E+00  0.11803420902E+01  0.00000000000E+00 0.  1.
         11    1    3    3    0    0 -0.97342592934E+01 -0.81728244221E+01  0.49608935651E+01  0.13644094996E+02  0.51100000000E-03 0. -1.
        -11    1    3    3    0    0  0.20431364306E+02 -0.25722743870E+02 -0.20498868441E+02  0.38720844609E+02  0.51100000000E-03 0.  1.
         12    1    3    3    0    0 -0.10629193430E+02  0.32797916603E+02  0.15109306898E+02  0.37642718305E+02  0.00000000000E+00 0. -1.
</event>
<event>
 7    1  0.2294706E-015  0.9000834E+02  0.7816164E-02  0.1186338E+00
        -11   -1    0    0    0    0  0.00000000000E+00  0.00000000000E+00  0.45593999997E+02  0.45594000000E+02  0.51100000000E-03 0.  1.
         11   -1    0    0    0    0 -0.00000000000E+00 -0.00000000000E+00 -0.45593999997E+02  0.45594000000E+02  0.51100000000E-03 0. -1.
    9900012    2    1    2    0    0  0.62214954184E+00  0.85981403215E+00 -0.51502232183E+00  0.90008339789E+02  0.90000609072E+02 0.  0.
        -12    1    1    2    0    0 -0.62214954184E+00 -0.85981403215E+00  0.51502232183E+00  0.11796602114E+01  0.00000000000E+00 0.  1.
         11    1    3    3    0    0 -0.34253802355E+02  0.51552546175E+01  0.10916851016E+02  0.36319103269E+02  0.51100000000E-03 0. -1.
        -11    1    3    3    0    0 -0.41302896761E+01 -0.82458713064E+01  0.57667789656E+01  0.10877013667E+02  0.51100000000E-03 0.  1.
        -12    1    3    3    0    0  0.39006241572E+02  0.39504307210E+01 -0.17198652304E+02  0.42812222852E+02  0.00000000000E+00 0.  1.
</event>
<event>
 7    1  0.2294706E-015  0.9000773E+02  0.7816164E-02  0.1186339E+00
        -11   -1    0    0    0    0  0.00000000000E+00  0.00000000000E+00  0.45593999997E+02  0.45594000000E+02  0.51100000000E-03 0.  1.
         11   -1    0    0    0    0 -0.00000000000E+00 -0.00000000000E+00 -0.45593999997E+02  0.45594000000E+02  0.51100000000E-03 0. -1.
    9900012    2    1    2    0    0  0.77451767558E-01 -0.11689789382E+01  0.14331208988E+00  0.90007725079E+02  0.89999986250E+02 0.  0.
        -12    1    1    2    0    0 -0.77451767558E-01  0.11689789382E+01 -0.14331208988E+00  0.11802749211E+01  0.00000000000E+00 0.  1.
         11    1    3    3    0    0 -0.34952803508E+01 -0.14219010017E+02  0.14832840623E+01  0.14717247109E+02  0.51100000000E-03 0. -1.
        -11    1    3    3    0    0  0.35411242012E+02  0.40956880288E+01  0.14667128911E+02  0.38546794834E+02  0.51100000000E-03 0.  1.
         12    1    3    3    0    0 -0.31838509893E+02  0.89543430497E+01 -0.16007100884E+02  0.36743683136E+02  0.00000000000E+00 0. -1.
</event>
<event>
 7    1  0.2294706E-015  0.9000779E+02  0.7816164E-02  0.1186339E+00
        -11   -1    0    0    0    0  0.00000000000E+00  0.00000000000E+00  0.45593999997E+02  0.45594000000E+02  0.51100000000E-03 0.  1.
         11   -1    0    0    0    0 -0.00000000000E+00 -0.00000000000E+00 -0.45593999997E+02  0.45594000000E+02  0.51100000000E-03 0. -1.
    9900012    2    1    2    0    0  0.65109030156E+00 -0.38515405108E-01 -0.98361034733E+00  0.90007791827E+02  0.90000053879E+02 0.  0.
        -12    1    1    2    0    0 -0.65109030156E+00  0.38515405108E-01  0.98361034733E+00  0.11802081734E+01  0.00000000000E+00 0.  1.
         11    1    3    3    0    0 -0.75791662862E+01 -0.51499877550E+01 -0.36276656297E+01  0.98552571581E+01  0.51100000000E-03 0. -1.
        -11    1    3    3    0    0 -0.91186932440E+01 -0.95301373231E+01 -0.34323691433E+02  0.36770774777E+02  0.51100000000E-03 0.  1.
         12    1    3    3    0    0  0.17348949832E+02  0.14641609673E+02  0.36967746715E+02  0.43381759891E+02  0.00000000000E+00 0. -1.
</event>
<event>
 7    1  0.2294706E-015  0.9000774E+02  0.7816164E-02  0.1186339E+00
        -11   -1    0    0    0    0  0.00000000000E+00  0.00000000000E+00  0.45593999997E+02  0.45594000000E+02  0.51100000000E-03 0.  1.
         11   -1    0    0    0    0 -0.00000000000E+00 -0.00000000000E+00 -0.45593999997E+02  0.45594000000E+02  0.51100000000E-03 0. -1.
    9900012    2    1    2    0    0 -0.97496025036E+00 -0.45074085619E+00 -0.48918367533E+00  0.90007739233E+02  0.90000000591E+02 0.  0.
        -12    1    1    2    0    0  0.97496025036E+00  0.45074085619E+00  0.48918367533E+00  0.11802607667E+01  0.00000000000E+00 0.  1.
         11    1    3    3    0    0 -0.29727874687E+02  0.18251544032E+02 -0.16063026146E+02  0.38404247189E+02  0.51100000000E-03 0. -1.
        -11    1    3    3    0    0 -0.49389765106E+01 -0.10569094954E+02 -0.33189325485E+01  0.12129079546E+02  0.51100000000E-03 0.  1.
        -12    1    3    3    0    0  0.33691890947E+02 -0.81331899347E+01  0.18892775019E+02  0.39474412498E+02  0.00000000000E+00 0.  1.
</event>
<event>
 7    1  0.2294706E-015  0.9000772E+02  0.7816164E-02  0.1186339E+00
        -11   -1    0    0    0    0  0.00000000000E+00  0.00000000000E+00  0.45593999997E+02  0.45594000000E+02  0.51100000000E-03 0.  1.
         11   -1    0    0    0    0 -0.00000000000E+00 -0.00000000000E+00 -0.45593999997E+02  0.45594000000E+02  0.51100000000E-03 0. -1.
    9900012    2    1    2    0    0  0.10955470182E+00 -0.10605182395E+01 -0.50632590404E+00  0.90007717369E+02  0.89999978438E+02 0.  0.
        -12    1    1    2    0    0 -0.10955470182E+00  0.10605182395E+01  0.50632590404E+00  0.11802826314E+01  0.00000000000E+00 0.  1.
         11    1    3    3    0    0 -0.53857584743E+01  0.46513841629E+01  0.67004006819E+01  0.97743101308E+01  0.51100000000E-03 0. -1.
        -11    1    3    3    0    0  0.11858758209E+02  0.25528176694E+01  0.34850885743E+02  0.36901643076E+02  0.51100000000E-03 0.  1.
         12    1    3    3    0    0 -0.63634450331E+01 -0.82647200718E+01 -0.42057612329E+02  0.43331764162E+02  0.00000000000E+00 0. -1.
</event>
<event>
 7    1  0.2294706E-015  0.9000773E+02  0.7816164E-02  0.1186339E+00
        -11   -1    0    0    0    0  0.00000000000E+00  0.00000000000E+00  0.45593999997E+02  0.45594000000E+02  0.51100000000E-03 0.  1.
         11   -1    0    0    0    0 -0.00000000000E+00 -0.00000000000E+00 -0.45593999997E+02  0.45594000000E+02  0.51100000000E-03 0. -1.
    9900012    2    1    2    0    0 -0.17899370096E+00  0.47477641409E-01 -0.11656515687E+01  0.90007730348E+02  0.89999991589E+02 0.  0.
        -12    1    1    2    0    0  0.17899370096E+00 -0.47477641409E-01  0.11656515687E+01  0.11802696518E+01  0.00000000000E+00 0.  1.
         11    1    3    3    0    0 -0.74050674910E+01  0.14635817909E+02 -0.39273831066E+02  0.42561437914E+02  0.51100000000E-03 0. -1.
        -11    1    3    3    0    0  0.80925215395E+01 -0.28093060193E+01  0.11455605855E+01  0.86425351890E+01  0.51100000000E-03 0.  1.
        -12    1    3    3    0    0 -0.86644774943E+00 -0.11779034248E+02  0.36962618912E+02  0.38803757245E+02  0.00000000000E+00 0.  1.
</event>
<event>
 7    1  0.2294706E-015  0.9000785E+02  0.7816164E-02  0.1186339E+00
        -11   -1    0    0    0    0  0.00000000000E+00  0.00000000000E+00  0.45593999997E+02  0.45594000000E+02  0.51100000000E-03 0. -1.
         11   -1    0    0    0    0 -0.00000000000E+00 -0.00000000000E+00 -0.45593999997E+02  0.45594000000E+02  0.51100000000E-03 0.  1.
    9900012    2    1    2    0    0 -0.18607938988E+00 -0.89022784976E+00  0.75207242332E+00  0.90007854207E+02  0.90000117082E+02 0.  0.
        -12    1    1    2    0    0  0.18607938988E+00  0.89022784976E+00 -0.75207242332E+00  0.11801457934E+01  0.00000000000E+00 0.  1.
         11    1    3    3    0    0  0.50193379498E+01  0.29646636882E+02  0.23975895006E+02  0.38457253847E+02  0.51100000000E-03 0. -1.
        -11    1    3    3    0    0 -0.72084121193E+01  0.41698749717E+01  0.20424196771E+01  0.85744119891E+01  0.51100000000E-03 0.  1.
        -12    1    3    3    0    0  0.20029947796E+01 -0.34706739703E+02 -0.25266242260E+02  0.42976188370E+02  0.00000000000E+00 0.  1.
</event>
<event>
 7    1  0.2294706E-015  0.9000772E+02  0.7816164E-02  0.1186339E+00
        -11   -1    0    0    0    0  0.00000000000E+00  0.00000000000E+00  0.45593999997E+02  0.45594000000E+02  0.51100000000E-03 0. -1.
         11   -1    0    0    0    0 -0.00000000000E+00 -0.00000000000E+00 -0.45593999997E+02  0.45594000000E+02  0.51100000000E-03 0.  1.
    9900012    2    1    2    0    0 -0.62763908342E+00  0.33907849723E+00  0.94029949612E+00  0.90007716903E+02  0.89999977966E+02 0.  0.
        -12    1    1    2    0    0  0.62763908342E+00 -0.33907849723E+00 -0.94029949612E+00  0.11802830969E+01  0.00000000000E+00 0.  1.
         11    1    3    3    0    0 -0.80145685388E+01 -0.44533858014E+01 -0.17914731232E+02  0.20124699981E+02  0.51100000000E-03 0. -1.
        -11    1    3    3    0    0  0.89349675313E+01  0.19916090284E+02 -0.19094615391E+02  0.29001528136E+02  0.51100000000E-03 0.  1.
         12    1    3    3    0    0 -0.15480380759E+01 -0.15123625986E+02  0.37949646119E+02  0.40881488787E+02  0.00000000000E+00 0. -1.
</event>
<event>
 7    1  0.2294706E-015  0.9000778E+02  0.7816164E-02  0.1186339E+00
        -11   -1    0    0    0    0  0.00000000000E+00  0.00000000000E+00  0.45593999997E+02  0.45594000000E+02  0.51100000000E-03 0.  1.
         11   -1    0    0    0    0 -0.00000000000E+00 -0.00000000000E+00 -0.45593999997E+02  0.45594000000E+02  0.51100000000E-03 0. -1.
    9900012    2    1    2    0    0  0.44523612533E+00  0.48157835084E+00 -0.98120540150E+00  0.90007780972E+02  0.90000042880E+02 0.  0.
        -12    1    1    2    0    0 -0.44523612533E+00 -0.48157835084E+00  0.98120540150E+00  0.11802190285E+01  0.00000000000E+00 0.  1.
         11    1    3    3    0    0 -0.62296592708E+01  0.16024718624E+02 -0.30903244652E+02  0.35363975906E+02  0.51100000000E-03 0. -1.
        -11    1    3    3    0    0  0.13378244847E+02  0.73593759444E+01 -0.13254866598E+01  0.15326276933E+02  0.51100000000E-03 0.  1.
        -12    1    3    3    0    0 -0.67033494504E+01 -0.22902516218E+02  0.31247525910E+02  0.39317528133E+02  0.00000000000E+00 0.  1.
</event>
<event>
 7    1  0.2294706E-015  0.9000773E+02  0.7816164E-02  0.1186339E+00
        -11   -1    0    0    0    0  0.00000000000E+00  0.00000000000E+00  0.45593999997E+02  0.45594000000E+02  0.51100000000E-03 0.  1.
         11   -1    0    0    0    0 -0.00000000000E+00 -0.00000000000E+00 -0.45593999997E+02  0.45594000000E+02  0.51100000000E-03 0. -1.
    9900012    2    1    2    0    0 -0.14179663208E+00 -0.72898013117E-01 -0.11694507328E+01  0.90007730784E+02  0.89999992031E+02 0.  0.
        -12    1    1    2    0    0  0.14179663208E+00  0.72898013117E-01  0.11694507328E+01  0.11802692158E+01  0.00000000000E+00 0.  1.
         11    1    3    3    0    0  0.38453618143E+01  0.22023940034E+02  0.29379392364E+02  0.36918686841E+02  0.51100000000E-03 0. -1.
        -11    1    3    3    0    0  0.98583658090E+01 -0.66826647541E+01  0.42026739557E+01  0.12629641851E+02  0.51100000000E-03 0.  1.
        -12    1    3    3    0    0 -0.13845524255E+02 -0.15414173293E+02 -0.34751517053E+02  0.40459402092E+02  0.00000000000E+00 0.  1.
</event>
<event>
 7    1  0.2294706E-015  0.9000807E+02  0.7816164E-02  0.1186338E+00
        -11   -1    0    0    0    0  0.00000000000E+00  0.00000000000E+00  0.45593999997E+02  0.45594000000E+02  0.51100000000E-03 0.  1.
         11   -1    0    0    0    0 -0.00000000000E+00 -0.00000000000E+00 -0.45593999997E+02  0.45594000000E+02  0.51100000000E-03 0. -1.
    9900012    2    1    2    0    0 -0.19783454356E+00  0.11248996193E+01  0.29613888223E+00  0.90008069537E+02  0.90000335254E+02 0.  0.
        -12    1    1    2    0    0  0.19783454356E+00 -0.11248996193E+01 -0.29613888223E+00  0.11799304631E+01  0.00000000000E+00 0.  1.
         11    1    3    3    0    0  0.18611120127E+01  0.11172155878E+02 -0.35689222518E+01  0.11875100471E+02  0.51100000000E-03 0. -1.
        -11    1    3    3    0    0 -0.31709320524E+02  0.86409353995E+01  0.21120692575E+02  0.39066999216E+02  0.51100000000E-03 0.  1.
         12    1    3    3    0    0  0.29650373968E+02 -0.18688191658E+02 -0.17255631441E+02  0.39065969850E+02  0.00000000000E+00 0. -1.
</event>
<event>
 7    1  0.2294706E-015  0.9000774E+02  0.7816164E-02  0.1186339E+00
        -11   -1    0    0    0    0  0.00000000000E+00  0.00000000000E+00  0.45593999997E+02  0.45594000000E+02  0.51100000000E-03 0. -1.
         11   -1    0    0    0    0 -0.00000000000E+00 -0.00000000000E+00 -0.45593999997E+02  0.45594000000E+02  0.51100000000E-03 0.  1.
    9900012    2    1    2    0    0  0.11288080645E+00  0.48187513314E+00  0.10714755471E+01  0.90007743431E+02  0.90000004844E+02 0.  0.
        -12    1    1    2    0    0 -0.11288080645E+00 -0.48187513314E+00 -0.10714755471E+01  0.11802565689E+01  0.00000000000E+00 0.  1.
         11    1    3    3    0    0 -0.48629332462E+01  0.32742348987E+02  0.21768521927E+02  0.39617901056E+02  0.51100000000E-03 0. -1.
        -11    1    3    3    0    0  0.18664445070E+01  0.56602737843E+01 -0.86031998152E+01  0.10466009829E+02  0.51100000000E-03 0.  1.
        -12    1    3    3    0    0  0.31093695457E+01 -0.37920747639E+02 -0.12093846565E+02  0.39923832546E+02  0.00000000000E+00 0.  1.
</event>
<event>
 7    1  0.2294706E-015  0.9000794E+02  0.7816164E-02  0.1186339E+00
        -11   -1    0    0    0    0  0.00000000000E+00  0.00000000000E+00  0.45593999997E+02  0.45594000000E+02  0.51100000000E-03 0. -1.
         11   -1    0    0    0    0 -0.00000000000E+00 -0.00000000000E+00 -0.45593999997E+02  0.45594000000E+02  0.51100000000E-03 0.  1.
    9900012    2    1    2    0    0  0.73657469463E+00 -0.74637408243E+00  0.54121786649E+00  0.90007943505E+02  0.90000207559E+02 0.  0.
        -12    1    1    2    0    0 -0.73657469463E+00  0.74637408243E+00 -0.54121786649E+00  0.11800564947E+01  0.00000000000E+00 0.  1.
         11    1    3    3    0    0  0.68209538106E+00 -0.25630258146E+02 -0.11828368793E+02  0.28236247897E+02  0.51100000000E-03 0. -1.
        -11    1    3    3    0    0  0.13110920676E+02 -0.62312857998E+01 -0.13054023273E+02  0.19522619895E+02  0.51100000000E-03 0.  1.
        -12    1    3    3    0    0 -0.13056441362E+02  0.31115169863E+02  0.25423609932E+02  0.42249075714E+02  0.00000000000E+00 0.  1.
</event>
<event>
 7    1  0.2294706E-015  0.9000772E+02  0.7816164E-02  0.1186339E+00
        -11   -1    0    0    0    0  0.00000000000E+00  0.00000000000E+00  0.45593999997E+02  0.45594000000E+02  0.51100000000E-03 0.  1.
         11   -1    0    0    0    0 -0.00000000000E+00 -0.00000000000E+00 -0.45593999997E+02  0.45594000000E+02  0.51100000000E-03 0. -1.
    9900012    2    1    2    0    0 -0.28761359638E+00 -0.10522097945E+01  0.45078047039E+00  0.90007716108E+02  0.89999977161E+02 0.  0.
        -12    1    1    2    0    0  0.28761359638E+00  0.10522097945E+01 -0.45078047039E+00  0.11802838917E+01  0.00000000000E+00 0.  1.
         11    1    3    3    0    0  0.26503874582E+02  0.19372803730E+02 -0.13966244772E+02  0.35676559328E+02  0.51100000000E-03 0. -1.
        -11    1    3    3    0    0 -0.23593800248E+01  0.11472521994E+02  0.21152174217E+00  0.11714528446E+02  0.51100000000E-03 0.  1.
        -12    1    3    3    0    0 -0.24432108153E+02 -0.31897535518E+02  0.14205503500E+02  0.42616628335E+02  0.00000000000E+00 0.  1.
</event>
<event>
 7    1  0.2644879E-015  0.9000768E+02  0.7816164E-02  0.1186339E+00
        -11   -1    0    0    0    0  0.00000000000E+00  0.00000000000E+00  0.45593999997E+02  0.45594000000E+02  0.51100000000E-03 0. -1.
         11   -1    0    0    0    0 -0.00000000000E+00 -0.00000000000E+00 -0.45593999997E+02  0.45594000000E+02  0.51100000000E-03 0.  1.
    9900012    2    1    2    0    0  0.17136830135E-01 -0.72009546414E+00  0.93505846230E+00  0.90007675690E+02  0.89999936209E+02 0.  0.
        -12    1    1    2    0    0 -0.17136830135E-01  0.72009546414E+00 -0.93505846230E+00  0.11803243098E+01  0.00000000000E+00 0.  1.
         11    1    3    3    0    0  0.32991223645E+02 -0.18999755653E+02  0.11912016175E+02  0.39891198052E+02  0.51100000000E-03 0. -1.
        -11    1    3    3    0    0  0.38954797835E+01  0.98080703826E+00 -0.83974026096E+01  0.93087655486E+01  0.51100000000E-03 0.  1.
        -12    1    3    3    0    0 -0.36869566598E+02  0.17298853150E+02 -0.25795551031E+01  0.40807712089E+02  0.00000000000E+00 0.  1.
</event>
<event>
 7    1  0.2294706E-015  0.9000786E+02  0.7816164E-02  0.1186339E+00
        -11   -1    0    0    0    0  0.00000000000E+00  0.00000000000E+00  0.45593999997E+02  0.45594000000E+02  0.51100000000E-03 0.  1.
         11   -1    0    0    0    0 -0.00000000000E+00 -0.00000000000E+00 -0.45593999997E+02  0.45594000000E+02  0.51100000000E-03 0. -1.
    9900012    2    1    2    0    0 -0.17895343657E+00 -0.13841863552E+00 -0.11582523973E+01  0.90007859048E+02  0.90000121987E+02 0.  0.
        -12    1    1    2    0    0  0.17895343657E+00  0.13841863552E+00  0.11582523973E+01  0.11801409521E+01  0.00000000000E+00 0.  1.
         11    1    3    3    0    0 -0.32830683070E+01  0.54732684047E+01  0.62188308750E+00  0.64126393454E+01  0.51100000000E-03 0. -1.
        -11    1    3    3    0    0  0.59711313867E+00  0.10232447038E+02  0.38709601623E+02  0.40043635881E+02  0.51100000000E-03 0.  1.
         12    1    3    3    0    0  0.25070017318E+01 -0.15844134078E+02 -0.40489737107E+02  0.43551583822E+02  0.00000000000E+00 0. -1.
</event>
<event>
 7    1  0.2294706E-015  0.9000773E+02  0.7816164E-02  0.1186339E+00
        -11   -1    0    0    0    0  0.00000000000E+00  0.00000000000E+00  0.45593999997E+02  0.45594000000E+02  0.51100000000E-03 0. -1.
         11   -1    0    0    0    0 -0.00000000000E+00 -0.00000000000E+00 -0.45593999997E+02  0.45594000000E+02  0.51100000000E-03 0.  1.
    9900012    2    1    2    0    0  0.56643429793E-01 -0.16671866270E+00  0.11670634690E+01  0.90007728535E+02  0.89999989752E+02 0.  0.
        -12    1    1    2    0    0 -0.56643429793E-01  0.16671866270E+00 -0.11670634690E+01  0.11802714651E+01  0.00000000000E+00 0.  1.
         11    1    3    3    0    0 -0.39193311381E+00 -0.41039296205E+02 -0.81468176931E+01  0.41841941678E+02  0.51100000000E-03 0. -1.
        -11    1    3    3    0    0  0.60595876129E+01  0.23541545800E+01  0.64149496909E+01  0.91330293782E+01  0.51100000000E-03 0.  1.
        -12    1    3    3    0    0 -0.56110110693E+01  0.38518422962E+02  0.28989314712E+01  0.39032757479E+02  0.00000000000E+00 0.  1.
</event>
<event>
 7    1  0.2294706E-015  0.9000827E+02  0.7816164E-02  0.1186338E+00
        -11   -1    0    0    0    0  0.00000000000E+00  0.00000000000E+00  0.45593999997E+02  0.45594000000E+02  0.51100000000E-03 0. -1.
         11   -1    0    0    0    0 -0.00000000000E+00 -0.00000000000E+00 -0.45593999997E+02  0.45594000000E+02  0.51100000000E-03 0.  1.
    9900012    2    1    2    0    0  0.38142097957E+00  0.10665178704E+01  0.32986943814E+00  0.90008272838E+02  0.90000541237E+02 0.  0.
        -12    1    1    2    0    0 -0.38142097957E+00 -0.10665178704E+01 -0.32986943814E+00  0.11797271624E+01  0.00000000000E+00 0.  1.
         11    1    3    3    0    0 -0.50459781646E+01 -0.69505499248E+01 -0.49479330493E+01  0.99123196889E+01  0.51100000000E-03 0. -1.
        -11    1    3    3    0    0 -0.20285318867E+02  0.25386126833E+02 -0.21620582393E+02  0.39030746604E+02  0.51100000000E-03 0.  1.
         12    1    3    3    0    0  0.25712718011E+02 -0.17369059038E+02  0.26898384881E+02  0.41065206545E+02  0.00000000000E+00 0. -1.
</event>
<event>
 7    1  0.2294706E-015  0.9000777E+02  0.7816164E-02  0.1186339E+00
        -11   -1    0    0    0    0  0.00000000000E+00  0.00000000000E+00  0.45593999997E+02  0.45594000000E+02  0.51100000000E-03 0. -1.
         11   -1    0    0    0    0 -0.00000000000E+00 -0.00000000000E+00 -0.45593999997E+02  0.45594000000E+02  0.51100000000E-03 0.  1.
    9900012    2    1    2    0    0  0.88657732730E-01  0.18053780147E+00  0.11629652997E+01  0.90007770201E+02  0.90000031967E+02 0.  0.
        -12    1    1    2    0    0 -0.88657732730E-01 -0.18053780147E+00 -0.11629652997E+01  0.11802297995E+01  0.00000000000E+00 0.  1.
         11    1    3    3    0    0  0.82675820785E+01 -0.40224450958E+01 -0.31190383938E+01  0.97088299365E+01  0.51100000000E-03 0. -1.
        -11    1    3    3    0    0  0.52127468845E+01  0.26523768104E+02  0.32257919042E+02  0.42086296412E+02  0.51100000000E-03 0.  1.
         12    1    3    3    0    0 -0.13391671230E+02 -0.22320785207E+02 -0.27975915348E+02  0.38212643852E+02  0.00000000000E+00 0. -1.
</event>
<event>
 7    1  0.2294706E-015  0.9000769E+02  0.7816164E-02  0.1186339E+00
        -11   -1    0    0    0    0  0.00000000000E+00  0.00000000000E+00  0.45593999997E+02  0.45594000000E+02  0.51100000000E-03 0. -1.
         11   -1    0    0    0    0 -0.00000000000E+00 -0.00000000000E+00 -0.45593999997E+02  0.45594000000E+02  0.51100000000E-03 0.  1.
    9900012    2    1    2    0    0 -0.60564910319E+00  0.49419347312E+00  0.88436079046E+00  0.90007689857E+02  0.89999950563E+02 0.  0.
        -12    1    1    2    0    0  0.60564910319E+00 -0.49419347312E+00 -0.88436079046E+00  0.11803101426E+01  0.00000000000E+00 0.  1.
         11    1    3    3    0    0  0.17496150507E+02 -0.88903208758E+01  0.57778257298E+01  0.20458161165E+02  0.51100000000E-03 0. -1.
        -11    1    3    3    0    0 -0.16552508314E+02 -0.18144523563E+02  0.20555817255E+02  0.32027345973E+02  0.51100000000E-03 0.  1.
        -12    1    3    3    0    0 -0.15492912964E+01  0.27529037912E+02 -0.25449282194E+02  0.37522182720E+02  0.00000000000E+00 0.  1.
</event>
<event>
 7    1  0.2294706E-015  0.9000797E+02  0.7816164E-02  0.1186339E+00
        -11   -1    0    0    0    0  0.00000000000E+00  0.00000000000E+00  0.45593999997E+02  0.45594000000E+02  0.51100000000E-03 0. -1.
         11   -1    0    0    0    0 -0.00000000000E+00 -0.00000000000E+00 -0.45593999997E+02  0.45594000000E+02  0.51100000000E-03 0.  1.
    9900012    2    1    2    0    0  0.33266528812E+00  0.95349221689E-01  0.11281458295E+01  0.90007970051E+02  0.90000234455E+02 0.  0.
        -12    1    1    2    0    0 -0.33266528812E+00 -0.95349221689E-01 -0.11281458295E+01  0.11800299490E+01  0.00000000000E+00 0.  1.
         11    1    3    3    0    0  0.23812095962E+01  0.61440534742E+01 -0.13490959016E+02  0.15014177556E+02  0.51100000000E-03 0. -1.
        -11    1    3    3    0    0  0.23183481456E+02  0.24545878588E+02  0.44655936990E+01  0.34057532139E+02  0.51100000000E-03 0.  1.
         12    1    3    3    0    0 -0.25232025764E+02 -0.30594582840E+02  0.10153511147E+02  0.40936260356E+02  0.00000000000E+00 0. -1.
</event>
<event>
 7    1  0.2294706E-015  0.9000770E+02  0.7816164E-02  0.1186339E+00
        -11   -1    0    0    0    0  0.00000000000E+00  0.00000000000E+00  0.45593999997E+02  0.45594000000E+02  0.51100000000E-03 0. -1.
         11   -1    0    0    0    0 -0.00000000000E+00 -0.00000000000E+00 -0.45593999997E+02  0.45594000000E+02  0.51100000000E-03 0.  1.
    9900012    2    1    2    0    0 -0.11474991682E+01  0.25458897410E+00  0.10739992061E+00  0.90007701466E+02  0.89999962325E+02 0.  0.
        -12    1    1    2    0    0  0.11474991682E+01 -0.25458897410E+00 -0.10739992061E+00  0.11802985342E+01  0.00000000000E+00 0.  1.
         11    1    3    3    0    0  0.18847581883E+02  0.99264641008E+01  0.48424331142E+00  0.21307288054E+02  0.51100000000E-03 0. -1.
        -11    1    3    3    0    0  0.11683768223E+02 -0.16594531472E+02 -0.21840135137E+02  0.29814097634E+02  0.51100000000E-03 0.  1.
         12    1    3    3    0    0 -0.31678849274E+02  0.69226563450E+01  0.21463291746E+02  0.38886315778E+02  0.00000000000E+00 0. -1.
</event>
<event>
 7    1  0.2294706E-015  0.9000772E+02  0.7816164E-02  0.1186339E+00
        -11   -1    0    0    0    0  0.00000000000E+00  0.00000000000E+00  0.45593999997E+02  0.45594000000E+02  0.51100000000E-03 0. -1.
         11   -1    0    0    0    0 -0.00000000000E+00 -0.00000000000E+00 -0.45593999997E+02  0.45594000000E+02  0.51100000000E-03 0.  1.
    9900012    2    1    2    0    0  0.85321153203E+00 -0.80808028124E+00  0.10999055048E+00  0.90007719703E+02  0.89999980803E+02 0.  0.
        -12    1    1    2    0    0 -0.85321153203E+00  0.80808028124E+00 -0.10999055048E+00  0.11802802974E+01  0.00000000000E+00 0.  1.
         11    1    3    3    0    0 -0.18014320045E+02  0.13290754324E+02  0.34648958674E+02  0.41251790442E+02  0.51100000000E-03 0. -1.
        -11    1    3    3    0    0 -0.20809185473E+01  0.52173325045E+01 -0.82897806317E+01  0.10013552998E+02  0.51100000000E-03 0.  1.
        -12    1    3    3    0    0  0.20948450125E+02 -0.19316167110E+02 -0.26249187492E+02  0.38742376262E+02  0.00000000000E+00 0.  1.
</event>
<event>
 7    1  0.2294706E-015  0.9000778E+02  0.7816164E-02  0.1186339E+00
        -11   -1    0    0    0    0  0.00000000000E+00  0.00000000000E+00  0.45593999997E+02  0.45594000000E+02  0.51100000000E-03 0.  1.
         11   -1    0    0    0    0 -0.00000000000E+00 -0.00000000000E+00 -0.45593999997E+02  0.45594000000E+02  0.51100000000E-03 0. -1.
    9900012    2    1    2    0    0  0.98432224341E-01  0.67672558238E+00 -0.96191126246E+00  0.90007779811E+02  0.90000041705E+02 0.  0.
        -12    1    1    2    0    0 -0.98432224341E-01 -0.67672558238E+00  0.96191126246E+00  0.11802201886E+01  0.00000000000E+00 0.  1.
         11    1    3    3    0    0  0.97904899514E+00  0.86391838951E+01  0.52887748348E+01  0.10176697638E+02  0.51100000000E-03 0. -1.
        -11    1    3    3    0    0 -0.24383633513E+02 -0.15382924125E+02  0.26285025166E+02  0.39014080614E+02  0.51100000000E-03 0.  1.
         12    1    3    3    0    0  0.23503016742E+02  0.74204658126E+01 -0.32535711263E+02  0.40817001559E+02  0.00000000000E+00 0. -1.
</event>
<event>
 7    1  0.2294706E-015  0.9000767E+02  0.7816164E-02  0.1186339E+00
        -11   -1    0    0    0    0  0.00000000000E+00  0.00000000000E+00  0.45593999997E+02  0.45594000000E+02  0.51100000000E-03 0.  1.
         11   -1    0    0    0    0 -0.00000000000E+00 -0.00000000000E+00 -0.45593999997E+02  0.45594000000E+02  0.51100000000E-03 0. -1.
    9900012    2    1    2    0    0 -0.42704954322E+00  0.99166949367E+00 -0.47687142614E+00  0.90007666973E+02  0.89999927377E+02 0.  0.
        -12    1    1    2    0    0  0.42704954322E+00 -0.99166949367E+00  0.47687142614E+00  0.11803330268E+01  0.00000000000E+00 0.  1.
         11    1    3    3    0    0 -0.30828231442E+01 -0.12226839322E+01  0.58125695444E+01  0.66921386347E+01  0.51100000000E-03 0. -1.
        -11    1    3    3    0    0 -0.12309727793E+02 -0.29270995983E+02  0.21824282979E+02  0.38530766045E+02  0.51100000000E-03 0.  1.
         12    1    3    3    0    0  0.14965501394E+02  0.31485349409E+02 -0.28113723950E+02  0.44784762294E+02  0.00000000000E+00 0. -1.
</event>
<event>
 7    1  0.2294706E-015  0.9000771E+02  0.7816164E-02  0.1186339E+00
        -11   -1    0    0    0    0  0.00000000000E+00  0.00000000000E+00  0.45593999997E+02  0.45594000000E+02  0.51100000000E-03 0.  1.
         11   -1    0    0    0    0 -0.00000000000E+00 -0.00000000000E+00 -0.45593999997E+02  0.45594000000E+02  0.51100000000E-03 0. -1.
    9900012    2    1    2    0    0 -0.99767574537E+00  0.56492871176E+00  0.28034741955E+00  0.90007705114E+02  0.89999966021E+02 0.  0.
        -12    1    1    2    0    0  0.99767574537E+00 -0.56492871176E+00 -0.28034741955E+00  0.11802948860E+01  0.00000000000E+00 0.  1.
         11    1    3    3    0    0  0.94545916192E+01 -0.68286595862E+01 -0.32256887562E+02  0.34300534833E+02  0.51100000000E-03 0. -1.
        -11    1    3    3    0    0  0.16661292664E+02 -0.61268781030E+00  0.91619484407E+01  0.19024073146E+02  0.51100000000E-03 0.  1.
        -12    1    3    3    0    0 -0.27113560028E+02  0.80062761083E+01  0.23375286540E+02  0.36683097135E+02  0.00000000000E+00 0.  1.
</event>
<event>
 7    1  0.2294706E-015  0.9000768E+02  0.7816164E-02  0.1186339E+00
        -11   -1    0    0    0    0  0.00000000000E+00  0.00000000000E+00  0.45593999997E+02  0.45594000000E+02  0.51100000000E-03 0.  1.
         11   -1    0    0    0    0 -0.00000000000E+00 -0.00000000000E+00 -0.45593999997E+02  0.45594000000E+02  0.51100000000E-03 0. -1.
    9900012    2    1    2    0    0 -0.28030339608E+00  0.11455297082E+01  0.48409003366E-01  0.90007681510E+02  0.89999942106E+02 0.  0.
        -12    1    1    2    0    0  0.28030339608E+00 -0.11455297082E+01 -0.48409003366E-01  0.11803184900E+01  0.00000000000E+00 0.  1.
         11    1    3    3    0    0  0.27428851255E+01 -0.12639390774E+01  0.92972063830E+01  0.97754287677E+01  0.51100000000E-03 0. -1.
        -11    1    3    3    0    0  0.34547197517E+02  0.17196719587E+02  0.89806208946E+00  0.38601069112E+02  0.51100000000E-03 0.  1.
         12    1    3    3    0    0 -0.37570386039E+02 -0.14787250801E+02 -0.10146859469E+02  0.41631183630E+02  0.00000000000E+00 0. -1.
</event>
<event>
 7    1  0.2294706E-015  0.9000768E+02  0.7816164E-02  0.1186339E+00
        -11   -1    0    0    0    0  0.00000000000E+00  0.00000000000E+00  0.45593999997E+02  0.45594000000E+02  0.51100000000E-03 0.  1.
         11   -1    0    0    0    0 -0.00000000000E+00 -0.00000000000E+00 -0.45593999997E+02  0.45594000000E+02  0.51100000000E-03 0. -1.
    9900012    2    1    2    0    0 -0.86162352561E+00  0.79771347338E+00 -0.12009499482E+00  0.90007676022E+02  0.89999936545E+02 0.  0.
        -12    1    1    2    0    0  0.86162352561E+00 -0.79771347338E+00  0.12009499482E+00  0.11803239781E+01  0.00000000000E+00 0.  1.
         11    1    3    3    0    0  0.30584836302E+02  0.20434559690E+02  0.11845549655E+00  0.36783385832E+02  0.51100000000E-03 0. -1.
        -11    1    3    3    0    0  0.74849134785E+01  0.73009244751E+00  0.49179059584E+01  0.89856977491E+01  0.51100000000E-03 0.  1.
        -12    1    3    3    0    0 -0.38931373306E+02 -0.20366938664E+02 -0.51564564498E+01  0.44238592441E+02  0.00000000000E+00 0.  1.
</event>
<event>
 7    1  0.2294706E-015  0.9000771E+02  0.7816164E-02  0.1186339E+00
        -11   -1    0    0    0    0  0.00000000000E+00  0.00000000000E+00  0.45593999997E+02  0.45594000000E+02  0.51100000000E-03 0. -1.
         11   -1    0    0    0    0 -0.00000000000E+00 -0.00000000000E+00 -0.45593999997E+02  0.45594000000E+02  0.51100000000E-03 0.  1.
    9900012    2    1    2    0    0  0.16430306943E+00  0.11491345088E+01 -0.21349877200E+00  0.90007708789E+02  0.89999969745E+02 0.  0.
        -12    1    1    2    0    0 -0.16430306943E+00 -0.11491345088E+01  0.21349877200E+00  0.11802912113E+01  0.00000000000E+00 0.  1.
         11    1    3    3    0    0  0.69310683155E+01 -0.39775832572E+02  0.56533766369E+01  0.40769072009E+02  0.51100000000E-03 0. -1.
        -11    1    3    3    0    0  0.48737911074E+01 -0.96543986220E+00 -0.26777878352E+01  0.56441528893E+01  0.51100000000E-03 0.  1.
        -12    1    3    3    0    0 -0.11640556354E+02  0.41890406943E+02 -0.31890875736E+01  0.43594483890E+02  0.00000000000E+00 0.  1.
</event>
<event>
 7    1  0.2294706E-015  0.9000773E+02  0.7816164E-02  0.1186339E+00
        -11   -1    0    0    0    0  0.00000000000E+00  0.00000000000E+00  0.45593999997E+02  0.45594000000E+02  0.51100000000E-03 0.  1.
         11   -1    0    0    0    0 -0.00000000000E+00 -0.00000000000E+00 -0.45593999997E+02  0.45594000000E+02  0.51100000000E-03 0. -1.
    9900012    2    1    2    0    0  0.15130537897E+00  0.64524028340E+00 -0.97663127626E+00  0.90007730120E+02  0.89999991357E+02 0.  0.
        -12    1    1    2    0    0 -0.15130537897E+00 -0.64524028340E+00  0.97663127626E+00  0.11802698805E+01  0.00000000000E+00 0.  1.
         11    1    3    3    0    0 -0.11507360826E+02 -0.27969951302E+02  0.21254667391E+02  0.36966179342E+02  0.51100000000E-03 0. -1.
        -11    1    3    3    0    0 -0.40173004777E+01 -0.75883667641E+01 -0.54453763222E+01  0.10167307255E+02  0.51100000000E-03 0.  1.
        -12    1    3    3    0    0  0.15675966683E+02  0.36203558349E+02 -0.16785922345E+02  0.42874243522E+02  0.00000000000E+00 0.  1.
</event>
<event>
 7    1  0.2294706E-015  0.9000788E+02  0.7816164E-02  0.1186339E+00
        -11   -1    0    0    0    0  0.00000000000E+00  0.00000000000E+00  0.45593999997E+02  0.45594000000E+02  0.51100000000E-03 0.  1.
         11   -1    0    0    0    0 -0.00000000000E+00 -0.00000000000E+00 -0.45593999997E+02  0.45594000000E+02  0.51100000000E-03 0. -1.
    9900012    2    1    2    0    0 -0.64482922082E+00 -0.54865241651E+00 -0.82210939312E+00  0.90007877950E+02  0.90000141139E+02 0.  0.
        -12    1    1    2    0    0  0.64482922082E+00  0.54865241651E+00  0.82210939312E+00  0.11801220498E+01  0.00000000000E+00 0.  1.
         11    1    3    3    0    0 -0.36801020462E+01  0.92114199989E+01  0.22876739754E+01  0.10179727990E+02  0.51100000000E-03 0. -1.
        -11    1    3    3    0    0 -0.96546431953E+01  0.31730595504E+02 -0.12484966080E+02  0.35438922170E+02  0.51100000000E-03 0.  1.
         12    1    3    3    0    0  0.12689916021E+02 -0.41490667919E+02  0.93751827118E+01  0.44389227791E+02  0.00000000000E+00 0. -1.
</event>
<event>
 7    1  0.2294706E-015  0.9000776E+02  0.7816164E-02  0.1186339E+00
        -11   -1    0    0    0    0  0.00000000000E+00  0.00000000000E+00  0.45593999997E+02  0.45594000000E+02  0.51100000000E-03 0. -1.
         11   -1    0    0    0    0 -0.00000000000E+00 -0.00000000000E+00 -0.45593999997E+02  0.45594000000E+02  0.51100000000E-03 0.  1.
    9900012    2    1    2    0    0  0.23416475825E+00  0.11336739814E+01  0.23001345942E+00  0.90007764421E+02  0.90000026111E+02 0.  0.
        -12    1    1    2    0    0 -0.23416475825E+00 -0.11336739814E+01 -0.23001345942E+00  0.11802355789E+01  0.00000000000E+00 0.  1.
         11    1    3    3    0    0 -0.35052540837E+02 -0.13642796633E+02  0.39624115336E+00  0.37616000936E+02  0.51100000000E-03 0. -1.
        -11    1    3    3    0    0  0.79509571910E+00 -0.79547696026E+01  0.68059792481E+01  0.10499137604E+02  0.51100000000E-03 0.  1.
        -12    1    3    3    0    0  0.34491609876E+02  0.22731240217E+02 -0.69722069421E+01  0.41892625882E+02  0.00000000000E+00 0.  1.
</event>
<event>
 7    1  0.2294706E-015  0.9000768E+02  0.7816164E-02  0.1186339E+00
        -11   -1    0    0    0    0  0.00000000000E+00  0.00000000000E+00  0.45593999997E+02  0.45594000000E+02  0.51100000000E-03 0.  1.
         11   -1    0    0    0    0 -0.00000000000E+00 -0.00000000000E+00 -0.45593999997E+02  0.45594000000E+02  0.51100000000E-03 0. -1.
    9900012    2    1    2    0    0  0.20842474143E+00 -0.11169943066E+01  0.31942954337E+00  0.90007681235E+02  0.89999941827E+02 0.  0.
        -12    1    1    2    0    0 -0.20842474143E+00  0.11169943066E+01 -0.31942954337E+00  0.11803187650E+01  0.00000000000E+00 0.  1.
         11    1    3    3    0    0  0.77851090327E+01  0.57276795333E+01  0.33827761780E+01  0.10239990743E+02  0.51100000000E-03 0. -1.
        -11    1    3    3    0    0  0.13399130389E+02 -0.12965471968E+02  0.32824993423E+02  0.37750766244E+02  0.51100000000E-03 0.  1.
         12    1    3    3    0    0 -0.20975814680E+02  0.61207981282E+01 -0.35888340057E+02  0.42016924248E+02  0.00000000000E+00 0. -1.
</event>
<event>
 7    1  0.2294706E-015  0.9000760E+02  0.7816164E-02  0.1186339E+00
        -11   -1    0    0    0    0  0.00000000000E+00  0.00000000000E+00  0.45593999997E+02  0.45594000000E+02  0.51100000000E-03 0.  1.
         11   -1    0    0    0    0 -0.00000000000E+00 -0.00000000000E+00 -0.45593999997E+02  0.45594000000E+02  0.51100000000E-03 0. -1.
    9900012    2    1    2    0    0  0.69193156091E+00 -0.32871344170E+00 -0.89806032171E+00  0.90007604239E+02  0.89999863815E+02 0.  0.
        -12    1    1    2    0    0 -0.69193156091E+00  0.32871344170E+00  0.89806032171E+00  0.11803957612E+01  0.00000000000E+00 0.  1.
         11    1    3    3    0    0  0.61476983530E+01 -0.44829311494E+01  0.55683140419E+01  0.94285199400E+01  0.51100000000E-03 0. -1.
        -11    1    3    3    0    0  0.18620250737E+02  0.12165802865E+02  0.29262904861E+02  0.36756470152E+02  0.51100000000E-03 0.  1.
         12    1    3    3    0    0 -0.24076017529E+02 -0.80115851568E+01 -0.35729279224E+02  0.43822614147E+02  0.00000000000E+00 0. -1.
</event>
<event>
 7    1  0.2294706E-015  0.9000777E+02  0.7816164E-02  0.1186339E+00
        -11   -1    0    0    0    0  0.00000000000E+00  0.00000000000E+00  0.45593999997E+02  0.45594000000E+02  0.51100000000E-03 0. -1.
         11   -1    0    0    0    0 -0.00000000000E+00 -0.00000000000E+00 -0.45593999997E+02  0.45594000000E+02  0.51100000000E-03 0.  1.
    9900012    2    1    2    0    0  0.10641082907E+01  0.42956062370E+00  0.27584815846E+00  0.90007770789E+02  0.90000032563E+02 0.  0.
        -12    1    1    2    0    0 -0.10641082907E+01 -0.42956062370E+00 -0.27584815846E+00  0.11802292109E+01  0.00000000000E+00 0.  1.
         11    1    3    3    0    0 -0.82509893241E+01 -0.21378506045E+01  0.22075342949E+01  0.88046827290E+01  0.51100000000E-03 0. -1.
        -11    1    3    3    0    0 -0.27260860355E+02 -0.17919036738E+02 -0.16834759014E+02  0.36710427622E+02  0.51100000000E-03 0.  1.
         12    1    3    3    0    0  0.36575957969E+02  0.20486447966E+02  0.14903072878E+02  0.44492660438E+02  0.00000000000E+00 0. -1.
</event>
<event>
 7    1  0.2294706E-015  0.9000778E+02  0.7816164E-02  0.1186339E+00
        -11   -1    0    0    0    0  0.00000000000E+00  0.00000000000E+00  0.45593999997E+02  0.45594000000E+02  0.51100000000E-03 0.  1.
         11   -1    0    0    0    0 -0.00000000000E+00 -0.00000000000E+00 -0.45593999997E+02  0.45594000000E+02  0.51100000000E-03 0. -1.
    9900012    2    1    2    0    0  0.11169758496E+01  0.30088089529E+00 -0.23399953034E+00  0.90007779621E+02  0.90000041512E+02 0.  0.
        -12    1    1    2    0    0 -0.11169758496E+01 -0.30088089529E+00  0.23399953034E+00  0.11802203786E+01  0.00000000000E+00 0.  1.
         11    1    3    3    0    0 -0.11668880915E+01 -0.46782526168E+01  0.82050603930E+01  0.95168635420E+01  0.51100000000E-03 0. -1.
        -11    1    3    3    0    0  0.14599281610E+02  0.30399597786E+02  0.20971824428E+02  0.39712617506E+02  0.51100000000E-03 0.  1.
         12    1    3    3    0    0 -0.12315417669E+02 -0.25420464274E+02 -0.29410884351E+02  0.40778298574E+02  0.00000000000E+00 0. -1.
</event>
<event>
 7    1  0.2294706E-015  0.9000772E+02  0.7816164E-02  0.1186339E+00
        -11   -1    0    0    0    0  0.00000000000E+00  0.00000000000E+00  0.45593999997E+02  0.45594000000E+02  0.51100000000E-03 0.  1.
         11   -1    0    0    0    0 -0.00000000000E+00 -0.00000000000E+00 -0.45593999997E+02  0.45594000000E+02  0.51100000000E-03 0. -1.
    9900012    2    1    2    0    0  0.57045668118E+00 -0.39655816186E+00 -0.95413893593E+00  0.90007720241E+02  0.89999981348E+02 0.  0.
        -12    1    1    2    0    0 -0.57045668118E+00  0.39655816186E+00  0.95413893593E+00  0.11802797592E+01  0.00000000000E+00 0.  1.
         11    1    3    3    0    0  0.12773582060E+02 -0.56995043411E-01  0.20061523864E+01  0.12930285950E+02  0.51100000000E-03 0. -1.
        -11    1    3    3    0    0  0.29510751264E+02  0.13462141059E+02 -0.61876499248E+01  0.33021215816E+02  0.51100000000E-03 0.  1.
         12    1    3    3    0    0 -0.41713876643E+02 -0.13801704178E+02  0.32273586024E+01  0.44056218476E+02  0.00000000000E+00 0. -1.
</event>
<event>
 7    1  0.2294706E-015  0.9000770E+02  0.7816164E-02  0.1186339E+00
        -11   -1    0    0    0    0  0.00000000000E+00  0.00000000000E+00  0.45593999997E+02  0.45594000000E+02  0.51100000000E-03 0.  1.
         11   -1    0    0    0    0 -0.00000000000E+00 -0.00000000000E+00 -0.45593999997E+02  0.45594000000E+02  0.51100000000E-03 0. -1.
    9900012    2    1    2    0    0 -0.49762895886E+00 -0.74236920358E+00 -0.77094199921E+00  0.90007704198E+02  0.89999965093E+02 0.  0.
        -12    1    1    2    0    0  0.49762895886E+00  0.74236920358E+00  0.77094199921E+00  0.11802958024E+01  0.00000000000E+00 0.  1.
         11    1    3    3    0    0 -0.12249734483E+02  0.94190781154E+01 -0.32822894814E+02  0.36278333089E+02  0.51100000000E-03 0. -1.
        -11    1    3    3    0    0  0.27875323605E+01  0.80882080744E+01 -0.60935043110E+01  0.10503344304E+02  0.51100000000E-03 0.  1.
        -12    1    3    3    0    0  0.89645731636E+01 -0.18249655393E+02  0.38145457126E+02  0.43226026805E+02  0.00000000000E+00 0.  1.
</event>
<event>
 7    1  0.2294706E-015  0.9000776E+02  0.7816164E-02  0.1186339E+00
        -11   -1    0    0    0    0  0.00000000000E+00  0.00000000000E+00  0.45593999997E+02  0.45594000000E+02  0.51100000000E-03 0.  1.
         11   -1    0    0    0    0 -0.00000000000E+00 -0.00000000000E+00 -0.45593999997E+02  0.45594000000E+02  0.51100000000E-03 0. -1.
    9900012    2    1    2    0    0  0.50455257252E+00  0.18006244475E+00 -0.10516553242E+01  0.90007756507E+02  0.90000018093E+02 0.  0.
        -12    1    1    2    0    0 -0.50455257252E+00 -0.18006244475E+00  0.10516553242E+01  0.11802434933E+01  0.00000000000E+00 0.  1.
         11    1    3    3    0    0 -0.10781485984E+02  0.42010347274E+01 -0.10089575849E+02  0.15352155349E+02  0.51100000000E-03 0. -1.
        -11    1    3    3    0    0 -0.22914693215E+02 -0.22458785765E+02 -0.66265604438E+01  0.32762654452E+02  0.51100000000E-03 0.  1.
         12    1    3    3    0    0  0.34200731771E+02  0.18437813482E+02  0.15664480968E+02  0.41892946706E+02  0.00000000000E+00 0. -1.
</event>
<event>
 7    1  0.2294706E-015  0.9000708E+02  0.7816164E-02  0.1186340E+00
        -11   -1    0    0    0    0  0.00000000000E+00  0.00000000000E+00  0.45593999997E+02  0.45594000000E+02  0.51100000000E-03 0.  1.
         11   -1    0    0    0    0 -0.00000000000E+00 -0.00000000000E+00 -0.45593999997E+02  0.45594000000E+02  0.51100000000E-03 0. -1.
    9900012    2    1    2    0    0  0.11055935953E+01 -0.40784816172E+00 -0.76832496224E-01  0.90007076398E+02  0.89999329004E+02 0.  0.
        -12    1    1    2    0    0 -0.11055935953E+01  0.40784816172E+00  0.76832496224E-01  0.11809236018E+01  0.00000000000E+00 0.  1.
         11    1    3    3    0    0  0.18030851192E+02 -0.32963590081E+02 -0.30770498265E+01  0.37698515908E+02  0.51100000000E-03 0. -1.
        -11    1    3    3    0    0 -0.35313532397E+01 -0.84001990675E+01  0.10702537887E+01  0.91749247141E+01  0.51100000000E-03 0.  1.
        -12    1    3    3    0    0 -0.13393904357E+02  0.40955940987E+02  0.19299635416E+01  0.43133635777E+02  0.00000000000E+00 0.  1.
</event>
<event>
 7    1  0.2294706E-015  0.9000753E+02  0.7816164E-02  0.1186339E+00
        -11   -1    0    0    0    0  0.00000000000E+00  0.00000000000E+00  0.45593999997E+02  0.45594000000E+02  0.51100000000E-03 0. -1.
         11   -1    0    0    0    0 -0.00000000000E+00 -0.00000000000E+00 -0.45593999997E+02  0.45594000000E+02  0.51100000000E-03 0.  1.
    9900012    2    1    2    0    0 -0.10448456115E+01  0.51329631611E+00 -0.19580960474E+00  0.90007526849E+02  0.89999785403E+02 0.  0.
        -12    1    1    2    0    0  0.10448456115E+01 -0.51329631611E+00  0.19580960474E+00  0.11804731515E+01  0.00000000000E+00 0.  1.
         11    1    3    3    0    0  0.82921213055E+01 -0.39166464491E+02  0.45321642866E+01  0.40290342886E+02  0.51100000000E-03 0. -1.
        -11    1    3    3    0    0  0.90384777004E+01  0.55894488619E+01 -0.25492260202E+01  0.10928612505E+02  0.51100000000E-03 0.  1.
        -12    1    3    3    0    0 -0.18375444617E+02  0.34090311946E+02 -0.21787478711E+01  0.38788571458E+02  0.00000000000E+00 0.  1.
</event>
<event>
 7    1  0.2294706E-015  0.9000776E+02  0.7816164E-02  0.1186339E+00
        -11   -1    0    0    0    0  0.00000000000E+00  0.00000000000E+00  0.45593999997E+02  0.45594000000E+02  0.51100000000E-03 0. -1.
         11   -1    0    0    0    0 -0.00000000000E+00 -0.00000000000E+00 -0.45593999997E+02  0.45594000000E+02  0.51100000000E-03 0.  1.
    9900012    2    1    2    0    0  0.28095518565E+00 -0.27173189117E+00  0.11136403477E+01  0.90007758982E+02  0.90000020600E+02 0.  0.
        -12    1    1    2    0    0 -0.28095518565E+00  0.27173189117E+00 -0.11136403477E+01  0.11802410182E+01  0.00000000000E+00 0.  1.
         11    1    3    3    0    0 -0.97399954564E+01 -0.46872957469E+01 -0.25869280795E+01  0.11114425314E+02  0.51100000000E-03 0. -1.
        -11    1    3    3    0    0 -0.32598472372E+02  0.51530575747E+01  0.12638695137E+02  0.35340501106E+02  0.51100000000E-03 0.  1.
         12    1    3    3    0    0  0.42619423015E+02 -0.73749371890E+00 -0.89381267101E+01  0.43552832562E+02  0.00000000000E+00 0. -1.
</event>
<event>
 7    1  0.2294706E-015  0.9000782E+02  0.7816164E-02  0.1186339E+00
        -11   -1    0    0    0    0  0.00000000000E+00  0.00000000000E+00  0.45593999997E+02  0.45594000000E+02  0.51100000000E-03 0. -1.
         11   -1    0    0    0    0 -0.00000000000E+00 -0.00000000000E+00 -0.45593999997E+02  0.45594000000E+02  0.51100000000E-03 0.  1.
    9900012    2    1    2    0    0  0.64942114158E+00 -0.97298284533E+00  0.15614929392E+00  0.90007819489E+02  0.90000081906E+02 0.  0.
        -12    1    1    2    0    0 -0.64942114158E+00  0.97298284533E+00 -0.15614929392E+00  0.11801805110E+01  0.00000000000E+00 0.  1.
         11    1    3    3    0    0 -0.34168417472E+02 -0.16825844292E+02  0.69940656197E+01  0.38723465016E+02  0.51100000000E-03 0. -1.
        -11    1    3    3    0    0 -0.10434897856E+00 -0.38951625889E+01  0.76859064467E+01  0.86172117574E+01  0.51100000000E-03 0.  1.
        -12    1    3    3    0    0  0.34922187593E+02  0.19748024036E+02 -0.14523822772E+02  0.42667142715E+02  0.00000000000E+00 0.  1.
</event>
<event>
 7    1  0.2294706E-015  0.9000733E+02  0.7816164E-02  0.1186340E+00
        -11   -1    0    0    0    0  0.00000000000E+00  0.00000000000E+00  0.45593999997E+02  0.45594000000E+02  0.51100000000E-03 0.  1.
         11   -1    0    0    0    0 -0.00000000000E+00 -0.00000000000E+00 -0.45593999997E+02  0.45594000000E+02  0.51100000000E-03 0. -1.
    9900012    2    1    2    0    0 -0.11366507317E+01  0.18001390783E+00  0.26379950254E+00  0.90007334903E+02  0.89999590923E+02 0.  0.
        -12    1    1    2    0    0  0.11366507317E+01 -0.18001390783E+00 -0.26379950254E+00  0.11806650967E+01  0.00000000000E+00 0.  1.
         11    1    3    3    0    0 -0.74171609435E+01  0.70387252473E+01  0.63693334240E+01  0.12046839341E+02  0.51100000000E-03 0. -1.
        -11    1    3    3    0    0  0.39605229172E+02  0.59907837670E+01 -0.11880363917E+02  0.41780458530E+02  0.51100000000E-03 0.  1.
         12    1    3    3    0    0 -0.33324718960E+02 -0.12849495107E+02  0.57748299950E+01  0.36180037033E+02  0.00000000000E+00 0. -1.
</event>
<event>
 7    1  0.2294706E-015  0.9000777E+02  0.7816164E-02  0.1186339E+00
        -11   -1    0    0    0    0  0.00000000000E+00  0.00000000000E+00  0.45593999997E+02  0.45594000000E+02  0.51100000000E-03 0.  1.
         11   -1    0    0    0    0 -0.00000000000E+00 -0.00000000000E+00 -0.45593999997E+02  0.45594000000E+02  0.51100000000E-03 0. -1.
    9900012    2    1    2    0    0 -0.51376379822E+00 -0.55616283325E+00 -0.90535239640E+00  0.90007774047E+02  0.90000035865E+02 0.  0.
        -12    1    1    2    0    0  0.51376379822E+00  0.55616283325E+00  0.90535239640E+00  0.11802259526E+01  0.00000000000E+00 0.  1.
         11    1    3    3    0    0 -0.29451438995E+01 -0.14220929182E+02  0.48846178334E+01  0.15322147076E+02  0.51100000000E-03 0. -1.
        -11    1    3    3    0    0  0.10698323809E+02  0.34907879654E+02  0.18874554835E+02  0.41100644943E+02  0.51100000000E-03 0.  1.
         12    1    3    3    0    0 -0.82669437080E+01 -0.21243113305E+02 -0.24664525064E+02  0.33584982028E+02  0.00000000000E+00 0. -1.
</event>
<event>
 7    1  0.2294706E-015  0.9000778E+02  0.7816164E-02  0.1186339E+00
        -11   -1    0    0    0    0  0.00000000000E+00  0.00000000000E+00  0.45593999997E+02  0.45594000000E+02  0.51100000000E-03 0. -1.
         11   -1    0    0    0    0 -0.00000000000E+00 -0.00000000000E+00 -0.45593999997E+02  0.45594000000E+02  0.51100000000E-03 0.  1.
    9900012    2    1    2    0    0  0.87718475500E-02 -0.21992320346E-01  0.11799845221E+01  0.90007777953E+02  0.90000039822E+02 0.  0.
        -12    1    1    2    0    0 -0.87718475500E-02  0.21992320346E-01 -0.11799845221E+01  0.11802220468E+01  0.00000000000E+00 0.  1.
         11    1    3    3    0    0 -0.23063667044E+01  0.37002334376E+02 -0.80674557066E+01  0.37941743746E+02  0.51100000000E-03 0. -1.
        -11    1    3    3    0    0  0.65326785871E+01  0.52792881964E+01  0.37514497612E+01  0.91989210756E+01  0.51100000000E-03 0.  1.
        -12    1    3    3    0    0 -0.42175400352E+01 -0.42303614893E+02  0.54959904674E+01  0.42867113131E+02  0.00000000000E+00 0.  1.
</event>
<event>
 7    1  0.2294706E-015  0.9000772E+02  0.7816164E-02  0.1186339E+00
        -11   -1    0    0    0    0  0.00000000000E+00  0.00000000000E+00  0.45593999997E+02  0.45594000000E+02  0.51100000000E-03 0. -1.
         11   -1    0    0    0    0 -0.00000000000E+00 -0.00000000000E+00 -0.45593999997E+02  0.45594000000E+02  0.51100000000E-03 0.  1.
    9900012    2    1    2    0    0  0.17959446442E+00 -0.84069331462E+00  0.80872265139E+00  0.90007723868E+02  0.89999985023E+02 0.  0.
        -12    1    1    2    0    0 -0.17959446442E+00  0.84069331462E+00 -0.80872265139E+00  0.11802761320E+01  0.00000000000E+00 0.  1.
         11    1    3    3    0    0 -0.25042716094E+02  0.26982631676E+02 -0.13179925610E+01  0.36836627780E+02  0.51100000000E-03 0. -1.
        -11    1    3    3    0    0 -0.73709109262E+00  0.82960126260E+01 -0.17893652008E+01  0.85187415064E+01  0.51100000000E-03 0.  1.
        -12    1    3    3    0    0  0.25959401651E+02 -0.36119337616E+02  0.39160804131E+01  0.44652354582E+02  0.00000000000E+00 0.  1.
</event>
<event>
 7    1  0.2294706E-015  0.9000769E+02  0.7816164E-02  0.1186339E+00
        -11   -1    0    0    0    0  0.00000000000E+00  0.00000000000E+00  0.45593999997E+02  0.45594000000E+02  0.51100000000E-03 0.  1.
         11   -1    0    0    0    0 -0.00000000000E+00 -0.00000000000E+00 -0.45593999997E+02  0.45594000000E+02  0.51100000000E-03 0. -1.
    9900012    2    1    2    0    0  0.66140178001E+00  0.58320010474E+00 -0.78457369416E+00  0.90007690482E+02  0.89999951196E+02 0.  0.
        -12    1    1    2    0    0 -0.66140178001E+00 -0.58320010474E+00  0.78457369416E+00  0.11803095180E+01  0.00000000000E+00 0.  1.
         11    1    3    3    0    0  0.90018172211E+01 -0.19136856663E+02 -0.36845879444E+02  0.42483771354E+02  0.51100000000E-03 0. -1.
        -11    1    3    3    0    0  0.53203263605E+01  0.53978090989E+01  0.15441505834E+01  0.77347667668E+01  0.51100000000E-03 0.  1.
        -12    1    3    3    0    0 -0.13660741802E+02  0.14322247669E+02  0.34517155166E+02  0.39789152361E+02  0.00000000000E+00 0.  1.
</event>
<event>
 7    1  0.2294706E-015  0.9000729E+02  0.7816164E-02  0.1186340E+00
        -11   -1    0    0    0    0  0.00000000000E+00  0.00000000000E+00  0.45593999997E+02  0.45594000000E+02  0.51100000000E-03 0.  1.
         11   -1    0    0    0    0 -0.00000000000E+00 -0.00000000000E+00 -0.45593999997E+02  0.45594000000E+02  0.51100000000E-03 0. -1.
    9900012    2    1    2    0    0 -0.22020328111E+00 -0.11457755060E+01  0.18108608321E+00  0.90007287010E+02  0.89999542397E+02 0.  0.
        -12    1    1    2    0    0  0.22020328111E+00  0.11457755060E+01 -0.18108608321E+00  0.11807129900E+01  0.00000000000E+00 0.  1.
         11    1    3    3    0    0 -0.50277099022E+01  0.14739405676E+01 -0.83850151366E+01  0.98873073564E+01  0.51100000000E-03 0. -1.
        -11    1    3    3    0    0 -0.10815777406E+02 -0.33148446673E+02 -0.15567048662E+02  0.38185515081E+02  0.51100000000E-03 0.  1.
         12    1    3    3    0    0  0.15623284027E+02  0.30528730599E+02  0.24133149881E+02  0.41934464572E+02  0.00000000000E+00 0. -1.
</event>
<event>
 7    1  0.2294706E-015  0.9000779E+02  0.7816164E-02  0.1186339E+00
        -11   -1    0    0    0    0  0.00000000000E+00  0.00000000000E+00  0.45593999997E+02  0.45594000000E+02  0.51100000000E-03 0. -1.
         11   -1    0    0    0    0 -0.00000000000E+00 -0.00000000000E+00 -0.45593999997E+02  0.45594000000E+02  0.51100000000E-03 0.  1.
    9900012    2    1    2    0    0 -0.36175522710E+00  0.71519249124E+00  0.86632637396E+00  0.90007793014E+02  0.90000055082E+02 0.  0.
        -12    1    1    2    0    0  0.36175522710E+00 -0.71519249124E+00 -0.86632637396E+00  0.11802069861E+01  0.00000000000E+00 0.  1.
         11    1    3    3    0    0 -0.17227237291E+02  0.21792753416E+02  0.24430647963E+02  0.36994031496E+02  0.51100000000E-03 0. -1.
        -11    1    3    3    0    0 -0.10454167877E+02  0.28679140261E+00  0.10126022133E+01  0.10507009033E+02  0.51100000000E-03 0.  1.
        -12    1    3    3    0    0  0.27319649941E+02 -0.21364352327E+02 -0.24576923803E+02  0.42506752486E+02  0.00000000000E+00 0.  1.
</event>
<event>
 7    1  0.2294706E-015  0.9000783E+02  0.7816164E-02  0.1186339E+00
        -11   -1    0    0    0    0  0.00000000000E+00  0.00000000000E+00  0.45593999997E+02  0.45594000000E+02  0.51100000000E-03 0.  1.
         11   -1    0    0    0    0 -0.00000000000E+00 -0.00000000000E+00 -0.45593999997E+02  0.45594000000E+02  0.51100000000E-03 0. -1.
    9900012    2    1    2    0    0  0.19335415579E+00 -0.34005679104E+00 -0.11134559889E+01  0.90007826839E+02  0.90000089353E+02 0.  0.
        -12    1    1    2    0    0 -0.19335415579E+00  0.34005679104E+00  0.11134559889E+01  0.11801731610E+01  0.00000000000E+00 0.  1.
         11    1    3    3    0    0  0.27859570669E+02  0.12357914959E+02 -0.21233768472E+02  0.37144941294E+02  0.51100000000E-03 0. -1.
        -11    1    3    3    0    0  0.29687761733E+00  0.87717650613E+01 -0.44992320549E+01  0.98628133894E+01  0.51100000000E-03 0.  1.
        -12    1    3    3    0    0 -0.27963094130E+02 -0.21469736812E+02  0.24619544538E+02  0.43000072155E+02  0.00000000000E+00 0.  1.
</event>
<event>
 7    1  0.2294706E-015  0.9000776E+02  0.7816164E-02  0.1186339E+00
        -11   -1    0    0    0    0  0.00000000000E+00  0.00000000000E+00  0.45593999997E+02  0.45594000000E+02  0.51100000000E-03 0.  1.
         11   -1    0    0    0    0 -0.00000000000E+00 -0.00000000000E+00 -0.45593999997E+02  0.45594000000E+02  0.51100000000E-03 0. -1.
    9900012    2    1    2    0    0  0.93528950430E+00  0.56807678931E+00  0.44214757045E+00  0.90007757580E+02  0.90000019180E+02 0.  0.
        -12    1    1    2    0    0 -0.93528950430E+00 -0.56807678931E+00 -0.44214757045E+00  0.11802424198E+01  0.00000000000E+00 0.  1.
         11    1    3    3    0    0  0.74298906688E+01  0.37189792058E+02  0.71183361277E+01  0.38586974721E+02  0.51100000000E-03 0. -1.
        -11    1    3    3    0    0 -0.81411203585E+01  0.33179951878E+01  0.45523562724E+01  0.99000444772E+01  0.51100000000E-03 0.  1.
        -12    1    3    3    0    0  0.16465191940E+01 -0.39939710456E+02 -0.11228544830E+02  0.41520738382E+02  0.00000000000E+00 0.  1.
</event>
<event>
 7    1  0.2294706E-015  0.9000766E+02  0.7816164E-02  0.1186339E+00
        -11   -1    0    0    0    0  0.00000000000E+00  0.00000000000E+00  0.45593999997E+02  0.45594000000E+02  0.51100000000E-03 0. -1.
         11   -1    0    0    0    0 -0.00000000000E+00 -0.00000000000E+00 -0.45593999997E+02  0.45594000000E+02  0.51100000000E-03 0.  1.
    9900012    2    1    2    0    0 -0.78681023725E+00 -0.87439352879E+00 -0.97764326032E-01  0.90007664346E+02  0.89999924715E+02 0.  0.
        -12    1    1    2    0    0  0.78681023725E+00  0.87439352879E+00  0.97764326032E-01  0.11803356540E+01  0.00000000000E+00 0.  1.
         11    1    3    3    0    0 -0.99630137060E+01  0.82977985539E+01 -0.28930445648E+01  0.13284758562E+02  0.51100000000E-03 0. -1.
        -11    1    3    3    0    0 -0.12517878450E+02 -0.34932675704E+02 -0.13269765519E+02  0.39409082582E+02  0.51100000000E-03 0.  1.
         12    1    3    3    0    0  0.21694081919E+02  0.25760483621E+02  0.16065045758E+02  0.37313823202E+02  0.00000000000E+00 0. -1.
</event>
<event>
 7    1  0.2294706E-015  0.9000773E+02  0.7816164E-02  0.1186339E+00
        -11   -1    0    0    0    0  0.00000000000E+00  0.00000000000E+00  0.45593999997E+02  0.45594000000E+02  0.51100000000E-03 0. -1.
         11   -1    0    0    0    0 -0.00000000000E+00 -0.00000000000E+00 -0.45593999997E+02  0.45594000000E+02  0.51100000000E-03 0.  1.
    9900012    2    1    2    0    0  0.99149162795E+00  0.58131468575E+00 -0.26842679585E+00  0.90007730812E+02  0.89999992058E+02 0.  0.
        -12    1    1    2    0    0 -0.99149162795E+00 -0.58131468575E+00  0.26842679585E+00  0.11802691883E+01  0.00000000000E+00 0.  1.
         11    1    3    3    0    0 -0.12368275241E+02  0.13560061297E+01  0.33999977364E+02  0.36205130107E+02  0.51100000000E-03 0. -1.
        -11    1    3    3    0    0 -0.43701966561E+01 -0.44914140715E+01  0.65988074056E+01  0.91003120063E+01  0.51100000000E-03 0.  1.
        -12    1    3    3    0    0  0.17729963525E+02  0.37167226276E+01 -0.40867211566E+02  0.44702288698E+02  0.00000000000E+00 0.  1.
</event>
<event>
 7    1  0.2294706E-015  0.9000721E+02  0.7816164E-02  0.1186340E+00
        -11   -1    0    0    0    0  0.00000000000E+00  0.00000000000E+00  0.45593999997E+02  0.45594000000E+02  0.51100000000E-03 0. -1.
         11   -1    0    0    0    0 -0.00000000000E+00 -0.00000000000E+00 -0.45593999997E+02  0.45594000000E+02  0.51100000000E-03 0.  1.
    9900012    2    1    2    0    0  0.23024873623E+00 -0.77643366296E+00  0.85930960010E+00  0.90007205055E+02  0.89999459360E+02 0.  0.
        -12    1    1    2    0    0 -0.23024873623E+00  0.77643366296E+00 -0.85930960010E+00  0.11807949451E+01  0.00000000000E+00 0.  1.
         11    1    3    3    0    0 -0.52705370656E+01 -0.60411197792E+01 -0.54672244343E+01  0.97038256591E+01  0.51100000000E-03 0. -1.
        -11    1    3    3    0    0  0.47188561687E+01 -0.36650119883E+02 -0.38826539663E+01  0.37156074780E+02  0.51100000000E-03 0.  1.
         12    1    3    3    0    0  0.78192963313E+00  0.41914806000E+02  0.10209188001E+02  0.43147304615E+02  0.00000000000E+00 0. -1.
</event>
<event>
 7    1  0.2294706E-015  0.9000772E+02  0.7816164E-02  0.1186339E+00
        -11   -1    0    0    0    0  0.00000000000E+00  0.00000000000E+00  0.45593999997E+02  0.45594000000E+02  0.51100000000E-03 0. -1.
         11   -1    0    0    0    0 -0.00000000000E+00 -0.00000000000E+00 -0.45593999997E+02  0.45594000000E+02  0.51100000000E-03 0.  1.
    9900012    2    1    2    0    0  0.10604852968E+01 -0.20248554001E+00 -0.47690795450E+00  0.90007715858E+02  0.89999976907E+02 0.  0.
        -12    1    1    2    0    0 -0.10604852968E+01  0.20248554001E+00  0.47690795450E+00  0.11802841419E+01  0.00000000000E+00 0.  1.
         11    1    3    3    0    0 -0.92815093534E+01  0.11588724604E+01 -0.64675692406E+00  0.93759104111E+01  0.51100000000E-03 0. -1.
        -11    1    3    3    0    0 -0.11241354652E+02  0.23841125088E+02 -0.27009627577E+02  0.37739730815E+02  0.51100000000E-03 0.  1.
         12    1    3    3    0    0  0.21583349302E+02 -0.25202483088E+02  0.27179476547E+02  0.42892074632E+02  0.00000000000E+00 0. -1.
</event>
<event>
 7    1  0.2294706E-015  0.9000779E+02  0.7816164E-02  0.1186339E+00
        -11   -1    0    0    0    0  0.00000000000E+00  0.00000000000E+00  0.45593999997E+02  0.45594000000E+02  0.51100000000E-03 0.  1.
         11   -1    0    0    0    0 -0.00000000000E+00 -0.00000000000E+00 -0.45593999997E+02  0.45594000000E+02  0.51100000000E-03 0. -1.
    9900012    2    1    2    0    0 -0.94393627368E+00 -0.23718645436E+00 -0.66754192519E+00  0.90007794372E+02  0.90000056458E+02 0.  0.
        -12    1    1    2    0    0  0.94393627368E+00  0.23718645436E+00  0.66754192519E+00  0.11802056282E+01  0.00000000000E+00 0.  1.
         11    1    3    3    0    0 -0.91996264262E+01 -0.28533895819E+00 -0.30903180609E+01  0.97089963787E+01  0.51100000000E-03 0. -1.
        -11    1    3    3    0    0 -0.23864573157E+02  0.11749460461E+02  0.27225969468E+02  0.38063382493E+02  0.51100000000E-03 0.  1.
         12    1    3    3    0    0  0.32120263310E+02 -0.11701307957E+02 -0.24803193332E+02  0.42235415500E+02  0.00000000000E+00 0. -1.
</event>
<event>
 7    1  0.2294706E-015  0.9000765E+02  0.7816164E-02  0.1186339E+00
        -11   -1    0    0    0    0  0.00000000000E+00  0.00000000000E+00  0.45593999997E+02  0.45594000000E+02  0.51100000000E-03 0. -1.
         11   -1    0    0    0    0 -0.00000000000E+00 -0.00000000000E+00 -0.45593999997E+02  0.45594000000E+02  0.51100000000E-03 0.  1.
    9900012    2    1    2    0    0 -0.11075846085E+01  0.38749775744E+00 -0.12779085627E+00  0.90007648917E+02  0.89999909082E+02 0.  0.
        -12    1    1    2    0    0  0.11075846085E+01 -0.38749775744E+00  0.12779085627E+00  0.11803510833E+01  0.00000000000E+00 0.  1.
         11    1    3    3    0    0  0.22998268510E+02 -0.20939096036E+02  0.99623361007E+01  0.32659060582E+02  0.51100000000E-03 0. -1.
        -11    1    3    3    0    0  0.12372759440E+02  0.71486432835E+00  0.41905321623E+01  0.13082689602E+02  0.51100000000E-03 0.  1.
        -12    1    3    3    0    0 -0.36478612558E+02  0.20611729465E+02 -0.14280659119E+02  0.44265898732E+02  0.00000000000E+00 0.  1.
</event>
<event>
 7    1  0.2294706E-015  0.9000778E+02  0.7816164E-02  0.1186339E+00
        -11   -1    0    0    0    0  0.00000000000E+00  0.00000000000E+00  0.45593999997E+02  0.45594000000E+02  0.51100000000E-03 0.  1.
         11   -1    0    0    0    0 -0.00000000000E+00 -0.00000000000E+00 -0.45593999997E+02  0.45594000000E+02  0.51100000000E-03 0. -1.
    9900012    2    1    2    0    0 -0.29050543591E+00 -0.10606593331E+01 -0.42839322695E+00  0.90007782907E+02  0.90000044842E+02 0.  0.
        -12    1    1    2    0    0  0.29050543591E+00  0.10606593331E+01  0.42839322695E+00  0.11802170927E+01  0.00000000000E+00 0.  1.
         11    1    3    3    0    0  0.69380555139E+01 -0.14303875173E+02  0.93034009435E+01  0.18419846054E+02  0.51100000000E-03 0. -1.
        -11    1    3    3    0    0  0.27672781785E+02 -0.62773233688E+01 -0.13495856008E+02  0.31421740404E+02  0.51100000000E-03 0.  1.
         12    1    3    3    0    0 -0.34901342735E+02  0.19520539208E+02  0.37640618374E+01  0.40166196449E+02  0.00000000000E+00 0. -1.
</event>
<event>
 7    1  0.2294706E-015  0.9000772E+02  0.7816164E-02  0.1186339E+00
        -11   -1    0    0    0    0  0.00000000000E+00  0.00000000000E+00  0.45593999997E+02  0.45594000000E+02  0.51100000000E-03 0. -1.
         11   -1    0    0    0    0 -0.00000000000E+00 -0.00000000000E+00 -0.45593999997E+02  0.45594000000E+02  0.51100000000E-03 0.  1.
    9900012    2    1    2    0    0  0.96456064872E+00  0.41418887266E+00  0.53956208795E+00  0.90007721679E+02  0.89999982806E+02 0.  0.
        -12    1    1    2    0    0 -0.96456064872E+00 -0.41418887266E+00 -0.53956208795E+00  0.11802783206E+01  0.00000000000E+00 0.  1.
         11    1    3    3    0    0  0.26651842021E+02 -0.32280626849E+02  0.28435934219E+00  0.41862159684E+02  0.51100000000E-03 0. -1.
        -11    1    3    3    0    0  0.65802549461E+00  0.53388401595E+01  0.77499389154E+01  0.94338626900E+01  0.51100000000E-03 0.  1.
        -12    1    3    3    0    0 -0.26345306867E+02  0.27355975562E+02 -0.74947361696E+01  0.38711699306E+02  0.00000000000E+00 0.  1.
</event>
<event>
 7    1  0.2294706E-015  0.9000784E+02  0.7816164E-02  0.1186339E+00
        -11   -1    0    0    0    0  0.00000000000E+00  0.00000000000E+00  0.45593999997E+02  0.45594000000E+02  0.51100000000E-03 0.  1.
         11   -1    0    0    0    0 -0.00000000000E+00 -0.00000000000E+00 -0.45593999997E+02  0.45594000000E+02  0.51100000000E-03 0. -1.
    9900012    2    1    2    0    0 -0.70608014322E+00  0.79919717843E+00  0.50548669517E+00  0.90007838105E+02  0.90000100768E+02 0.  0.
        -12    1    1    2    0    0  0.70608014322E+00 -0.79919717843E+00 -0.50548669517E+00  0.11801618947E+01  0.00000000000E+00 0.  1.
         11    1    3    3    0    0 -0.92517646453E+01  0.34903502493E+01 -0.41016907176E+01  0.10705211858E+02  0.51100000000E-03 0. -1.
        -11    1    3    3    0    0 -0.20152861528E+02 -0.20140717322E+02  0.26743515352E+02  0.39076872132E+02  0.51100000000E-03 0.  1.
         12    1    3    3    0    0  0.28698546030E+02  0.17449564251E+02 -0.22136337939E+02  0.40225754115E+02  0.00000000000E+00 0. -1.
</event>
<event>
 7    1  0.2294706E-015  0.9000778E+02  0.7816164E-02  0.1186339E+00
        -11   -1    0    0    0    0  0.00000000000E+00  0.00000000000E+00  0.45593999997E+02  0.45594000000E+02  0.51100000000E-03 0.  1.
         11   -1    0    0    0    0 -0.00000000000E+00 -0.00000000000E+00 -0.45593999997E+02  0.45594000000E+02  0.51100000000E-03 0. -1.
    9900012    2    1    2    0    0 -0.12802813610E-02 -0.15792351737E+00 -0.11696081696E+01  0.90007777671E+02  0.90000039536E+02 0.  0.
        -12    1    1    2    0    0  0.12802813610E-02  0.15792351737E+00  0.11696081696E+01  0.11802223294E+01  0.00000000000E+00 0.  1.
         11    1    3    3    0    0  0.61661804059E+01  0.12186278662E+02 -0.35318690253E+02  0.37867361274E+02  0.51100000000E-03 0. -1.
        -11    1    3    3    0    0  0.32748579955E+01  0.90451769459E+01 -0.12668246326E+01  0.97028225679E+01  0.51100000000E-03 0.  1.
        -12    1    3    3    0    0 -0.94423186828E+01 -0.21389379125E+02  0.35415906716E+02  0.42437593829E+02  0.00000000000E+00 0.  1.
</event>
<event>
 7    1  0.2294706E-015  0.9000772E+02  0.7816164E-02  0.1186339E+00
        -11   -1    0    0    0    0  0.00000000000E+00  0.00000000000E+00  0.45593999997E+02  0.45594000000E+02  0.51100000000E-03 0. -1.
         11   -1    0    0    0    0 -0.00000000000E+00 -0.00000000000E+00 -0.45593999997E+02  0.45594000000E+02  0.51100000000E-03 0.  1.
    9900012    2    1    2    0    0 -0.92322395772E+00  0.64537427644E+00  0.35244122206E+00  0.90007718149E+02  0.89999979229E+02 0.  0.
        -12    1    1    2    0    0  0.92322395772E+00 -0.64537427644E+00 -0.35244122206E+00  0.11802818510E+01  0.00000000000E+00 0.  1.
         11    1    3    3    0    0  0.79157384615E+01 -0.19676355277E+01  0.35638634276E+01  0.89012149593E+01  0.51100000000E-03 0. -1.
        -11    1    3    3    0    0 -0.15270405675E+02 -0.37206809533E+02  0.28424481173E+01  0.40318872463E+02  0.51100000000E-03 0.  1.
         12    1    3    3    0    0  0.64314432554E+01  0.39819819337E+02 -0.60538703228E+01  0.40787630727E+02  0.00000000000E+00 0. -1.
</event>
<event>
 7    1  0.2294706E-015  0.9000774E+02  0.7816164E-02  0.1186339E+00
        -11   -1    0    0    0    0  0.00000000000E+00  0.00000000000E+00  0.45593999997E+02  0.45594000000E+02  0.51100000000E-03 0.  1.
         11   -1    0    0    0    0 -0.00000000000E+00 -0.00000000000E+00 -0.45593999997E+02  0.45594000000E+02  0.51100000000E-03 0. -1.
    9900012    2    1    2    0    0 -0.21489697836E+00  0.10442037793E+01  0.50643472079E+00  0.90007738008E+02  0.89999999349E+02 0.  0.
        -12    1    1    2    0    0  0.21489697836E+00 -0.10442037793E+01 -0.50643472079E+00  0.11802619923E+01  0.00000000000E+00 0.  1.
         11    1    3    3    0    0  0.49936815087E+01 -0.65422220581E+00 -0.75231061817E+01  0.90532860657E+01  0.51100000000E-03 0. -1.
        -11    1    3    3    0    0 -0.12189899589E+01  0.39114583181E+02  0.16359098283E+02  0.42415287938E+02  0.51100000000E-03 0.  1.
         12    1    3    3    0    0 -0.39895885281E+01 -0.37416157196E+02 -0.83295573806E+01  0.38539164004E+02  0.00000000000E+00 0. -1.
</event>
<event>
 7    1  0.2294706E-015  0.9000768E+02  0.7816164E-02  0.1186339E+00
        -11   -1    0    0    0    0  0.00000000000E+00  0.00000000000E+00  0.45593999997E+02  0.45594000000E+02  0.51100000000E-03 0.  1.
         11   -1    0    0    0    0 -0.00000000000E+00 -0.00000000000E+00 -0.45593999997E+02  0.45594000000E+02  0.51100000000E-03 0. -1.
    9900012    2    1    2    0    0 -0.48233368439E+00 -0.61546449506E+00 -0.88414018907E+00  0.90007683855E+02  0.89999944482E+02 0.  0.
        -12    1    1    2    0    0  0.48233368439E+00  0.61546449506E+00  0.88414018907E+00  0.11803161448E+01  0.00000000000E+00 0.  1.
         11    1    3    3    0    0 -0.81965913010E+01 -0.79357439142E+01 -0.24456992186E+01  0.11667972633E+02  0.51100000000E-03 0. -1.
        -11    1    3    3    0    0 -0.13266685163E+02  0.65511826161E+01  0.35484315431E+02  0.38445540324E+02  0.51100000000E-03 0.  1.
         12    1    3    3    0    0  0.20980942780E+02  0.76909680310E+00 -0.33922756402E+02  0.39894170899E+02  0.00000000000E+00 0. -1.
</event>
<event>
 7    1  0.2294706E-015  0.9000779E+02  0.7816164E-02  0.1186339E+00
        -11   -1    0    0    0    0  0.00000000000E+00  0.00000000000E+00  0.45593999997E+02  0.45594000000E+02  0.51100000000E-03 0.  1.
         11   -1    0    0    0    0 -0.00000000000E+00 -0.00000000000E+00 -0.45593999997E+02  0.45594000000E+02  0.51100000000E-03 0. -1.
    9900012    2    1    2    0    0 -0.12550771665E+00  0.11216195129E+01 -0.34511741109E+00  0.90007793007E+02  0.90000055075E+02 0.  0.
        -12    1    1    2    0    0  0.12550771665E+00 -0.11216195129E+01  0.34511741109E+00  0.11802069929E+01  0.00000000000E+00 0.  1.
         11    1    3    3    0    0 -0.16820215365E+02 -0.16003098022E+02 -0.33678759900E+02  0.40905716714E+02  0.51100000000E-03 0. -1.
        -11    1    3    3    0    0 -0.67125519129E+01 -0.44735084754E+00  0.73436116798E+01  0.99592725000E+01  0.51100000000E-03 0.  1.
        -12    1    3    3    0    0  0.23407259561E+02  0.17572068382E+02  0.25990030809E+02  0.39142803794E+02  0.00000000000E+00 0.  1.
</event>
<event>
 7    1  0.2294706E-015  0.9000769E+02  0.7816164E-02  0.1186339E+00
        -11   -1    0    0    0    0  0.00000000000E+00  0.00000000000E+00  0.45593999997E+02  0.45594000000E+02  0.51100000000E-03 0.  1.
         11   -1    0    0    0    0 -0.00000000000E+00 -0.00000000000E+00 -0.45593999997E+02  0.45594000000E+02  0.51100000000E-03 0. -1.
    9900012    2    1    2    0    0 -0.69410090432E+00 -0.45652596465E+00 -0.83841412140E+00  0.90007690608E+02  0.89999951324E+02 0.  0.
        -12    1    1    2    0    0  0.69410090432E+00  0.45652596465E+00  0.83841412140E+00  0.11803093920E+01  0.00000000000E+00 0.  1.
         11    1    3    3    0    0 -0.81738768924E+01 -0.32922232026E+02  0.13567265155E+02  0.36534316869E+02  0.51100000000E-03 0. -1.
        -11    1    3    3    0    0 -0.83267729636E+01 -0.44615834097E+01  0.26845752815E+01  0.98207850609E+01  0.51100000000E-03 0.  1.
        -12    1    3    3    0    0  0.15806548952E+02  0.36927289471E+02 -0.17090254558E+02  0.43652588678E+02  0.00000000000E+00 0.  1.
</event>
<event>
 7    1  0.2294706E-015  0.9000776E+02  0.7816164E-02  0.1186339E+00
        -11   -1    0    0    0    0  0.00000000000E+00  0.00000000000E+00  0.45593999997E+02  0.45594000000E+02  0.51100000000E-03 0.  1.
         11   -1    0    0    0    0 -0.00000000000E+00 -0.00000000000E+00 -0.45593999997E+02  0.45594000000E+02  0.51100000000E-03 0. -1.
    9900012    2    1    2    0    0 -0.85459463293E+00  0.80372312866E+00 -0.12911487076E+00  0.90007757015E+02  0.90000018607E+02 0.  0.
        -12    1    1    2    0    0  0.85459463293E+00 -0.80372312866E+00  0.12911487076E+00  0.11802429852E+01  0.00000000000E+00 0.  1.
         11    1    3    3    0    0 -0.35896127669E+02 -0.13580612118E+02 -0.52074631252E+01  0.38730900836E+02  0.51100000000E-03 0. -1.
        -11    1    3    3    0    0 -0.79383181615E+00 -0.66319624270E+01  0.70176554526E+01  0.96881671589E+01  0.51100000000E-03 0.  1.
        -12    1    3    3    0    0  0.35835364852E+02  0.21016297673E+02 -0.19393071982E+01  0.41588689020E+02  0.00000000000E+00 0.  1.
</event>
<event>
 7    1  0.2294706E-015  0.9000762E+02  0.7816164E-02  0.1186339E+00
        -11   -1    0    0    0    0  0.00000000000E+00  0.00000000000E+00  0.45593999997E+02  0.45594000000E+02  0.51100000000E-03 0.  1.
         11   -1    0    0    0    0 -0.00000000000E+00 -0.00000000000E+00 -0.45593999997E+02  0.45594000000E+02  0.51100000000E-03 0. -1.
    9900012    2    1    2    0    0  0.68673756748E+00 -0.64358628455E+00 -0.71237514766E+00  0.90007622881E+02  0.89999882703E+02 0.  0.
        -12    1    1    2    0    0 -0.68673756748E+00  0.64358628455E+00  0.71237514766E+00  0.11803771191E+01  0.00000000000E+00 0.  1.
         11    1    3    3    0    0 -0.31359145802E+02 -0.94785470068E+01 -0.97850805645E+01  0.34190447214E+02  0.51100000000E-03 0. -1.
        -11    1    3    3    0    0 -0.88635892501E+01 -0.67362411984E+01  0.36177587660E+01  0.11705910414E+02  0.51100000000E-03 0.  1.
        -12    1    3    3    0    0  0.40909472619E+02  0.15571201921E+02  0.54549466508E+01  0.44111265253E+02  0.00000000000E+00 0.  1.
</event>
<event>
 7    1  0.2294706E-015  0.9000773E+02  0.7816164E-02  0.1186339E+00
        -11   -1    0    0    0    0  0.00000000000E+00  0.00000000000E+00  0.45593999997E+02  0.45594000000E+02  0.51100000000E-03 0.  1.
         11   -1    0    0    0    0 -0.00000000000E+00 -0.00000000000E+00 -0.45593999997E+02  0.45594000000E+02  0.51100000000E-03 0. -1.
    9900012    2    1    2    0    0  0.77547550801E-01 -0.69993551794E+00 -0.94715639921E+00  0.90007733676E+02  0.89999994960E+02 0.  0.
        -12    1    1    2    0    0 -0.77547550801E-01  0.69993551794E+00  0.94715639921E+00  0.11802663244E+01  0.00000000000E+00 0.  1.
         11    1    3    3    0    0  0.28434318091E+01  0.34762670871E+01  0.73440041211E+01  0.86083641946E+01  0.51100000000E-03 0. -1.
        -11    1    3    3    0    0  0.36596976719E+02  0.11855452334E+02 -0.43592883115E+01  0.38715550492E+02  0.51100000000E-03 0.  1.
         12    1    3    3    0    0 -0.39362860978E+02 -0.16031654939E+02 -0.39318722088E+01  0.42683818989E+02  0.00000000000E+00 0. -1.
</event>
<event>
 7    1  0.2294706E-015  0.9000779E+02  0.7816164E-02  0.1186339E+00
        -11   -1    0    0    0    0  0.00000000000E+00  0.00000000000E+00  0.45593999997E+02  0.45594000000E+02  0.51100000000E-03 0.  1.
         11   -1    0    0    0    0 -0.00000000000E+00 -0.00000000000E+00 -0.45593999997E+02  0.45594000000E+02  0.51100000000E-03 0. -1.
    9900012    2    1    2    0    0  0.41279536805E+00  0.77286114858E-01 -0.11029606243E+01  0.90007790147E+02  0.90000052176E+02 0.  0.
        -12    1    1    2    0    0 -0.41279536805E+00 -0.77286114858E-01  0.11029606243E+01  0.11802098534E+01  0.00000000000E+00 0.  1.
         11    1    3    3    0    0 -0.40177545942E+02  0.50283812742E+01 -0.89947553120E+01  0.41478011518E+02  0.51100000000E-03 0. -1.
        -11    1    3    3    0    0  0.36227039219E+01  0.73454906845E+01  0.46931259777E+01  0.94395788468E+01  0.51100000000E-03 0.  1.
        -12    1    3    3    0    0  0.36967637388E+02 -0.12296585844E+02  0.31986687100E+01  0.39090199782E+02  0.00000000000E+00 0.  1.
</event>
<event>
 7    1  0.2294706E-015  0.9000767E+02  0.7816164E-02  0.1186339E+00
        -11   -1    0    0    0    0  0.00000000000E+00  0.00000000000E+00  0.45593999997E+02  0.45594000000E+02  0.51100000000E-03 0.  1.
         11   -1    0    0    0    0 -0.00000000000E+00 -0.00000000000E+00 -0.45593999997E+02  0.45594000000E+02  0.51100000000E-03 0. -1.
    9900012    2    1    2    0    0 -0.76686321123E+00  0.83526985421E+00  0.32775805552E+00  0.90007669429E+02  0.89999929865E+02 0.  0.
        -12    1    1    2    0    0  0.76686321123E+00 -0.83526985421E+00 -0.32775805552E+00  0.11803305711E+01  0.00000000000E+00 0.  1.
         11    1    3    3    0    0 -0.58274214603E+01 -0.31322800395E+01 -0.70083706683E+01  0.96378046674E+01  0.51100000000E-03 0. -1.
        -11    1    3    3    0    0 -0.32020928899E+02  0.12747298004E+02  0.20443337015E+02  0.40071979269E+02  0.51100000000E-03 0.  1.
         12    1    3    3    0    0  0.37081487148E+02 -0.87797481104E+01 -0.13107208292E+02  0.40297885493E+02  0.00000000000E+00 0. -1.
</event>
<event>
 7    1  0.2294706E-015  0.9000694E+02  0.7816164E-02  0.1186341E+00
        -11   -1    0    0    0    0  0.00000000000E+00  0.00000000000E+00  0.45593999997E+02  0.45594000000E+02  0.51100000000E-03 0.  1.
         11   -1    0    0    0    0 -0.00000000000E+00 -0.00000000000E+00 -0.45593999997E+02  0.45594000000E+02  0.51100000000E-03 0. -1.
    9900012    2    1    2    0    0 -0.18990744136E+00 -0.28286395225E+00 -0.11308483538E+01  0.90006943333E+02  0.89999194181E+02 0.  0.
        -12    1    1    2    0    0  0.18990744136E+00  0.28286395225E+00  0.11308483538E+01  0.11810566672E+01  0.00000000000E+00 0.  1.
         11    1    3    3    0    0 -0.93167425764E+01  0.38539116313E+02 -0.14867004310E+02  0.42344928809E+02  0.51100000000E-03 0. -1.
        -11    1    3    3    0    0 -0.58821631644E+01 -0.60691322182E+01 -0.14299585690E+01  0.85719887508E+01  0.51100000000E-03 0.  1.
        -12    1    3    3    0    0  0.15008998299E+02 -0.32752848047E+02  0.15166114526E+02  0.39090025773E+02  0.00000000000E+00 0.  1.
</event>
<event>
 7    1  0.2294706E-015  0.9000770E+02  0.7816164E-02  0.1186339E+00
        -11   -1    0    0    0    0  0.00000000000E+00  0.00000000000E+00  0.45593999997E+02  0.45594000000E+02  0.51100000000E-03 0.  1.
         11   -1    0    0    0    0 -0.00000000000E+00 -0.00000000000E+00 -0.45593999997E+02  0.45594000000E+02  0.51100000000E-03 0. -1.
    9900012    2    1    2    0    0 -0.88729190884E+00 -0.49895281389E+00  0.59739106313E+00  0.90007696258E+02  0.89999957048E+02 0.  0.
        -12    1    1    2    0    0  0.88729190884E+00  0.49895281389E+00 -0.59739106313E+00  0.11803037424E+01  0.00000000000E+00 0.  1.
         11    1    3    3    0    0 -0.28298047416E+02  0.31438760507E+02 -0.59558003139E+01  0.42715883549E+02  0.51100000000E-03 0. -1.
        -11    1    3    3    0    0  0.79522908860E+01  0.65526812033E+00 -0.23184612597E+01  0.83092460259E+01  0.51100000000E-03 0.  1.
        -12    1    3    3    0    0  0.19458464621E+02 -0.32592981441E+02  0.88716526367E+01  0.38982566682E+02  0.00000000000E+00 0.  1.
</event>
<event>
 7    1  0.2294706E-015  0.9000780E+02  0.7816164E-02  0.1186339E+00
        -11   -1    0    0    0    0  0.00000000000E+00  0.00000000000E+00  0.45593999997E+02  0.45594000000E+02  0.51100000000E-03 0.  1.
         11   -1    0    0    0    0 -0.00000000000E+00 -0.00000000000E+00 -0.45593999997E+02  0.45594000000E+02  0.51100000000E-03 0. -1.
    9900012    2    1    2    0    0  0.26068325171E+00  0.95115863174E-01 -0.11471141014E+01  0.90007799362E+02  0.90000061513E+02 0.  0.
        -12    1    1    2    0    0 -0.26068325171E+00 -0.95115863174E-01  0.11471141014E+01  0.11802006384E+01  0.00000000000E+00 0.  1.
         11    1    3    3    0    0 -0.53761949783E+01  0.12058095053E+01 -0.73500735869E+01  0.91859148157E+01  0.51100000000E-03 0. -1.
        -11    1    3    3    0    0  0.12683973577E+01 -0.39685630360E+02 -0.59351677566E+01  0.40147033583E+02  0.51100000000E-03 0.  1.
         12    1    3    3    0    0  0.43684808723E+01  0.38574936718E+02  0.12138127242E+02  0.40674850963E+02  0.00000000000E+00 0. -1.
</event>
<event>
 7    1  0.2294706E-015  0.9000778E+02  0.7816164E-02  0.1186339E+00
        -11   -1    0    0    0    0  0.00000000000E+00  0.00000000000E+00  0.45593999997E+02  0.45594000000E+02  0.51100000000E-03 0.  1.
         11   -1    0    0    0    0 -0.00000000000E+00 -0.00000000000E+00 -0.45593999997E+02  0.45594000000E+02  0.51100000000E-03 0. -1.
    9900012    2    1    2    0    0 -0.21795072251E+00  0.20895231129E+00 -0.11409431466E+01  0.90007781864E+02  0.90000043784E+02 0.  0.
        -12    1    1    2    0    0  0.21795072251E+00 -0.20895231129E+00  0.11409431466E+01  0.11802181365E+01  0.00000000000E+00 0.  1.
         11    1    3    3    0    0 -0.37679834455E+02 -0.14848158513E+02 -0.12644710864E+02  0.42427897059E+02  0.51100000000E-03 0. -1.
        -11    1    3    3    0    0  0.92183463246E+01 -0.29034617686E+01 -0.42851889605E+01  0.10572173092E+02  0.51100000000E-03 0.  1.
        -12    1    3    3    0    0  0.28243537408E+02  0.17960572593E+02  0.15788956677E+02  0.37007711712E+02  0.00000000000E+00 0.  1.
</event>
<event>
 7    1  0.2294706E-015  0.9000778E+02  0.7816164E-02  0.1186339E+00
        -11   -1    0    0    0    0  0.00000000000E+00  0.00000000000E+00  0.45593999997E+02  0.45594000000E+02  0.51100000000E-03 0.  1.
         11   -1    0    0    0    0 -0.00000000000E+00 -0.00000000000E+00 -0.45593999997E+02  0.45594000000E+02  0.51100000000E-03 0. -1.
    9900012    2    1    2    0    0  0.96359986391E+00 -0.66955988469E+00 -0.12684863528E+00  0.90007777261E+02  0.90000039121E+02 0.  0.
        -12    1    1    2    0    0 -0.96359986391E+00  0.66955988469E+00  0.12684863528E+00  0.11802227388E+01  0.00000000000E+00 0.  1.
         11    1    3    3    0    0  0.32802811555E+01 -0.56563364526E+01 -0.78160845026E+01  0.10190464353E+02  0.51100000000E-03 0. -1.
        -11    1    3    3    0    0  0.37733239790E+02  0.96464375474E+01  0.64570882349E+01  0.39478413483E+02  0.51100000000E-03 0.  1.
         12    1    3    3    0    0 -0.40049921081E+02 -0.46596609794E+01  0.12321476324E+01  0.40338899425E+02  0.00000000000E+00 0. -1.
</event>
<event>
 7    1  0.2294706E-015  0.9000773E+02  0.7816164E-02  0.1186339E+00
        -11   -1    0    0    0    0  0.00000000000E+00  0.00000000000E+00  0.45593999997E+02  0.45594000000E+02  0.51100000000E-03 0.  1.
         11   -1    0    0    0    0 -0.00000000000E+00 -0.00000000000E+00 -0.45593999997E+02  0.45594000000E+02  0.51100000000E-03 0. -1.
    9900012    2    1    2    0    0  0.70984512038E+00 -0.65076617722E+00 -0.68239382096E+00  0.90007729675E+02  0.89999990907E+02 0.  0.
        -12    1    1    2    0    0 -0.70984512038E+00  0.65076617722E+00  0.68239382096E+00  0.11802703246E+01  0.00000000000E+00 0.  1.
         11    1    3    3    0    0  0.40278378084E+01  0.22377300768E+01  0.78441990548E+01  0.90973827214E+01  0.51100000000E-03 0. -1.
        -11    1    3    3    0    0 -0.35984536209E+01 -0.86888966837E+01  0.35386525767E+02  0.36614914996E+02  0.51100000000E-03 0.  1.
         12    1    3    3    0    0  0.28046093291E+00  0.58004004297E+01 -0.43913118642E+02  0.44295431958E+02  0.00000000000E+00 0. -1.
</event>
<event>
 7    1  0.2294706E-015  0.9000782E+02  0.7816164E-02  0.1186339E+00
        -11   -1    0    0    0    0  0.00000000000E+00  0.00000000000E+00  0.45593999997E+02  0.45594000000E+02  0.51100000000E-03 0.  1.
         11   -1    0    0    0    0 -0.00000000000E+00 -0.00000000000E+00 -0.45593999997E+02  0.45594000000E+02  0.51100000000E-03 0. -1.
    9900012    2    1    2    0    0  0.52877473796E+00 -0.88322385682E+00 -0.57718746872E+00  0.90007816760E+02  0.90000079142E+02 0.  0.
        -12    1    1    2    0    0 -0.52877473796E+00  0.88322385682E+00  0.57718746872E+00  0.11801832395E+01  0.00000000000E+00 0.  1.
         11    1    3    3    0    0 -0.29026101242E+01  0.70238384679E+00  0.83232129689E+01  0.88427576574E+01  0.51100000000E-03 0. -1.
        -11    1    3    3    0    0 -0.14089254419E+02  0.23448186047E+02  0.23908548975E+02  0.36331023015E+02  0.51100000000E-03 0.  1.
         12    1    3    3    0    0  0.17520639281E+02 -0.25033793751E+02 -0.32808949413E+02  0.44834036088E+02  0.00000000000E+00 0. -1.
</event>
<event>
 7    1  0.2294706E-015  0.9000768E+02  0.7816164E-02  0.1186339E+00
        -11   -1    0    0    0    0  0.00000000000E+00  0.00000000000E+00  0.45593999997E+02  0.45594000000E+02  0.51100000000E-03 0. -1.
         11   -1    0    0    0    0 -0.00000000000E+00 -0.00000000000E+00 -0.45593999997E+02  0.45594000000E+02  0.51100000000E-03 0.  1.
    9900012    2    1    2    0    0  0.93078585678E+00 -0.92698114414E-01  0.71985752342E+00  0.90007682201E+02  0.89999942806E+02 0.  0.
        -12    1    1    2    0    0 -0.93078585678E+00  0.92698114414E-01 -0.71985752342E+00  0.11803177986E+01  0.00000000000E+00 0.  1.
         11    1    3    3    0    0  0.65657762719E+01  0.57175534138E+01 -0.39423589743E+01  0.95573024246E+01  0.51100000000E-03 0. -1.
        -11    1    3    3    0    0  0.34456609276E+02 -0.11477285337E+02 -0.95259210518E+01  0.37546360325E+02  0.51100000000E-03 0.  1.
         12    1    3    3    0    0 -0.40091599691E+02  0.56670338093E+01  0.14188137550E+02  0.42904019452E+02  0.00000000000E+00 0. -1.
</event>
<event>
 7    1  0.2294706E-015  0.9000775E+02  0.7816164E-02  0.1186339E+00
        -11   -1    0    0    0    0  0.00000000000E+00  0.00000000000E+00  0.45593999997E+02  0.45594000000E+02  0.51100000000E-03 0.  1.
         11   -1    0    0    0    0 -0.00000000000E+00 -0.00000000000E+00 -0.45593999997E+02  0.45594000000E+02  0.51100000000E-03 0. -1.
    9900012    2    1    2    0    0 -0.75899314934E-01  0.11285617758E+01  0.33702826228E+00  0.90007745605E+02  0.90000007047E+02 0.  0.
        -12    1    1    2    0    0  0.75899314934E-01 -0.11285617758E+01 -0.33702826228E+00  0.11802543952E+01  0.00000000000E+00 0.  1.
         11    1    3    3    0    0 -0.11072378984E+01 -0.35457493509E+01  0.90701991474E+01  0.98013686318E+01  0.51100000000E-03 0. -1.
        -11    1    3    3    0    0 -0.29075888123E+02  0.11299624718E+02  0.20817657474E+02  0.37502848584E+02  0.51100000000E-03 0.  1.
         12    1    3    3    0    0  0.30107226706E+02 -0.66253135918E+01 -0.29550828360E+02  0.42703528389E+02  0.00000000000E+00 0. -1.
</event>
<event>
 7    1  0.2606768E-015  0.9000776E+02  0.7816164E-02  0.1186339E+00
        -11   -1    0    0    0    0  0.00000000000E+00  0.00000000000E+00  0.45593999997E+02  0.45594000000E+02  0.51100000000E-03 0.  1.
         11   -1    0    0    0    0 -0.00000000000E+00 -0.00000000000E+00 -0.45593999997E+02  0.45594000000E+02  0.51100000000E-03 0. -1.
    9900012    2    1    2    0    0  0.87798632837E+00 -0.49318761974E+00 -0.61552605285E+00  0.90007760049E+02  0.90000021681E+02 0.  0.
        -12    1    1    2    0    0 -0.87798632837E+00  0.49318761974E+00  0.61552605285E+00  0.11802399514E+01  0.00000000000E+00 0.  1.
         11    1    3    3    0    0 -0.68868912443E+00 -0.16294724714E+02 -0.34448287288E+02  0.38113998000E+02  0.51100000000E-03 0. -1.
        -11    1    3    3    0    0  0.59872391459E+01 -0.79555753429E+01 -0.43069884535E+00  0.99661283046E+01  0.51100000000E-03 0.  1.
        -12    1    3    3    0    0 -0.44205636931E+01  0.23757112437E+02  0.34263460080E+02  0.41927633744E+02  0.00000000000E+00 0.  1.
</event>
<event>
 7    1  0.2294706E-015  0.9000767E+02  0.7816164E-02  0.1186339E+00
        -11   -1    0    0    0    0  0.00000000000E+00  0.00000000000E+00  0.45593999997E+02  0.45594000000E+02  0.51100000000E-03 0. -1.
         11   -1    0    0    0    0 -0.00000000000E+00 -0.00000000000E+00 -0.45593999997E+02  0.45594000000E+02  0.51100000000E-03 0.  1.
    9900012    2    1    2    0    0  0.53999851449E+00  0.17277440420E+00  0.10352442580E+01  0.90007669511E+02  0.89999929948E+02 0.  0.
        -12    1    1    2    0    0 -0.53999851449E+00 -0.17277440420E+00 -0.10352442580E+01  0.11803304894E+01  0.00000000000E+00 0.  1.
         11    1    3    3    0    0 -0.16102173047E+02 -0.29966892384E+02  0.24363919177E+02  0.41843699333E+02  0.51100000000E-03 0. -1.
        -11    1    3    3    0    0 -0.46173109760E+01  0.30725632479E+00 -0.61687466461E+01  0.77115110415E+01  0.51100000000E-03 0.  1.
        -12    1    3    3    0    0  0.21259482537E+02  0.29832410463E+02 -0.17159928272E+02  0.40452459136E+02  0.00000000000E+00 0.  1.
</event>
<event>
 7    1  0.2294706E-015  0.9000773E+02  0.7816164E-02  0.1186339E+00
        -11   -1    0    0    0    0  0.00000000000E+00  0.00000000000E+00  0.45593999997E+02  0.45594000000E+02  0.51100000000E-03 0.  1.
         11   -1    0    0    0    0 -0.00000000000E+00 -0.00000000000E+00 -0.45593999997E+02  0.45594000000E+02  0.51100000000E-03 0. -1.
    9900012    2    1    2    0    0  0.13689463872E+00  0.45963149790E+00 -0.10784439127E+01  0.90007727773E+02  0.89999988980E+02 0.  0.
        -12    1    1    2    0    0 -0.13689463872E+00 -0.45963149790E+00  0.10784439127E+01  0.11802722265E+01  0.00000000000E+00 0.  1.
         11    1    3    3    0    0 -0.70588018040E+01  0.29183450007E+01  0.43746696031E+01  0.88023380331E+01  0.51100000000E-03 0. -1.
        -11    1    3    3    0    0  0.28376920396E+01 -0.25641550632E+02 -0.34947604129E+02  0.43438193442E+02  0.51100000000E-03 0.  1.
         12    1    3    3    0    0  0.43580044031E+01  0.23182837129E+02  0.29494490613E+02  0.37767196298E+02  0.00000000000E+00 0. -1.
</event>
<event>
 7    1  0.2294706E-015  0.9000761E+02  0.7816164E-02  0.1186339E+00
        -11   -1    0    0    0    0  0.00000000000E+00  0.00000000000E+00  0.45593999997E+02  0.45594000000E+02  0.51100000000E-03 0. -1.
         11   -1    0    0    0    0 -0.00000000000E+00 -0.00000000000E+00 -0.45593999997E+02  0.45594000000E+02  0.51100000000E-03 0.  1.
    9900012    2    1    2    0    0  0.96856289709E+00  0.36954132770E+00  0.56449713176E+00  0.90007605197E+02  0.89999864786E+02 0.  0.
        -12    1    1    2    0    0 -0.96856289709E+00 -0.36954132770E+00 -0.56449713176E+00  0.11803948027E+01  0.00000000000E+00 0.  1.
         11    1    3    3    0    0 -0.57656730960E+01 -0.35668155163E+01 -0.50413324615E+01  0.84486799221E+01  0.51100000000E-03 0. -1.
        -11    1    3    3    0    0 -0.77438070616E+01 -0.52258930519E+01 -0.35667446472E+02  0.36870628474E+02  0.51100000000E-03 0.  1.
         12    1    3    3    0    0  0.14478043055E+02  0.91622498960E+01  0.41273276065E+02  0.44688296801E+02  0.00000000000E+00 0. -1.
</event>
<event>
 7    1  0.2294706E-015  0.9000773E+02  0.7816164E-02  0.1186339E+00
        -11   -1    0    0    0    0  0.00000000000E+00  0.00000000000E+00  0.45593999997E+02  0.45594000000E+02  0.51100000000E-03 0. -1.
         11   -1    0    0    0    0 -0.00000000000E+00 -0.00000000000E+00 -0.45593999997E+02  0.45594000000E+02  0.51100000000E-03 0.  1.
    9900012    2    1    2    0    0  0.80082718527E+00 -0.81846684527E+00 -0.28605314004E+00  0.90007729456E+02  0.89999990685E+02 0.  0.
        -12    1    1    2    0    0 -0.80082718527E+00  0.81846684527E+00  0.28605314004E+00  0.11802705437E+01  0.00000000000E+00 0.  1.
         11    1    3    3    0    0  0.16650095855E+02 -0.38147359309E+02  0.13069630521E+02  0.43626390596E+02  0.51100000000E-03 0. -1.
        -11    1    3    3    0    0  0.14175198471E+01  0.86677304481E+01  0.28086234232E+01  0.92210237735E+01  0.51100000000E-03 0.  1.
        -12    1    3    3    0    0 -0.17266788517E+02  0.28661162016E+02 -0.16164307084E+02  0.37160315086E+02  0.00000000000E+00 0.  1.
</event>
<event>
 7    1  0.2294706E-015  0.9000779E+02  0.7816164E-02  0.1186339E+00
        -11   -1    0    0    0    0  0.00000000000E+00  0.00000000000E+00  0.45593999997E+02  0.45594000000E+02  0.51100000000E-03 0.  1.
         11   -1    0    0    0    0 -0.00000000000E+00 -0.00000000000E+00 -0.45593999997E+02  0.45594000000E+02  0.51100000000E-03 0. -1.
    9900012    2    1    2    0    0  0.14892303653E+00 -0.11435613755E+01  0.25098218753E+00  0.90007786990E+02  0.90000048978E+02 0.  0.
        -12    1    1    2    0    0 -0.14892303653E+00  0.11435613755E+01 -0.25098218753E+00  0.11802130100E+01  0.00000000000E+00 0.  1.
         11    1    3    3    0    0 -0.28078418560E+02 -0.86515592826E+01 -0.19553346234E+02  0.35292781359E+02  0.51100000000E-03 0. -1.
        -11    1    3    3    0    0 -0.95202307993E+01 -0.44106097335E+01  0.89308487954E-01  0.10492675968E+02  0.51100000000E-03 0.  1.
        -12    1    3    3    0    0  0.37747572396E+02  0.11918607641E+02  0.19715019934E+02  0.44222329663E+02  0.00000000000E+00 0.  1.
</event>
<event>
 7    1  0.2294706E-015  0.9000769E+02  0.7816164E-02  0.1186339E+00
        -11   -1    0    0    0    0  0.00000000000E+00  0.00000000000E+00  0.45593999997E+02  0.45594000000E+02  0.51100000000E-03 0.  1.
         11   -1    0    0    0    0 -0.00000000000E+00 -0.00000000000E+00 -0.45593999997E+02  0.45594000000E+02  0.51100000000E-03 0. -1.
    9900012    2    1    2    0    0  0.67783762770E-01 -0.11165052873E+01  0.37677001396E+00  0.90007688881E+02  0.89999949574E+02 0.  0.
        -12    1    1    2    0    0 -0.67783762770E-01  0.11165052873E+01 -0.37677001396E+00  0.11803111194E+01  0.00000000000E+00 0.  1.
         11    1    3    3    0    0  0.91558636930E+00 -0.63524999244E+01  0.84759232382E+01  0.10631736861E+02  0.51100000000E-03 0. -1.
        -11    1    3    3    0    0  0.19693319385E+02  0.11515577930E+02  0.28763377967E+02  0.36711950041E+02  0.51100000000E-03 0.  1.
         12    1    3    3    0    0 -0.20541121992E+02 -0.62795832933E+01 -0.36862531191E+02  0.42664001978E+02  0.00000000000E+00 0. -1.
</event>
<event>
 7    1  0.2294706E-015  0.9000808E+02  0.7816164E-02  0.1186338E+00
        -11   -1    0    0    0    0  0.00000000000E+00  0.00000000000E+00  0.45593999997E+02  0.45594000000E+02  0.51100000000E-03 0.  1.
         11   -1    0    0    0    0 -0.00000000000E+00 -0.00000000000E+00 -0.45593999997E+02  0.45594000000E+02  0.51100000000E-03 0. -1.
    9900012    2    1    2    0    0  0.56706019497E+00 -0.29277271121E+00 -0.99244053675E+00  0.90008079942E+02  0.90000345796E+02 0.  0.
        -12    1    1    2    0    0 -0.56706019497E+00  0.29277271121E+00  0.99244053675E+00  0.11799200584E+01  0.00000000000E+00 0.  1.
         11    1    3    3    0    0 -0.11328090145E+02  0.27625247173E+01 -0.16590275557E+02  0.20277929195E+02  0.51100000000E-03 0. -1.
        -11    1    3    3    0    0 -0.17997234027E+02  0.20681853272E+02  0.15631847647E+02  0.31559374970E+02  0.51100000000E-03 0.  1.
        -12    1    3    3    0    0  0.29892384367E+02 -0.23737150700E+02 -0.34012626844E-01  0.38170775776E+02  0.00000000000E+00 0.  1.
</event>
<event>
 7    1  0.2294706E-015  0.9000752E+02  0.7816164E-02  0.1186339E+00
        -11   -1    0    0    0    0  0.00000000000E+00  0.00000000000E+00  0.45593999997E+02  0.45594000000E+02  0.51100000000E-03 0.  1.
         11   -1    0    0    0    0 -0.00000000000E+00 -0.00000000000E+00 -0.45593999997E+02  0.45594000000E+02  0.51100000000E-03 0. -1.
    9900012    2    1    2    0    0 -0.38675504804E+00  0.86941998361E+00  0.69861184689E+00  0.90007521670E+02  0.89999780156E+02 0.  0.
        -12    1    1    2    0    0  0.38675504804E+00 -0.86941998361E+00 -0.69861184689E+00  0.11804783300E+01  0.00000000000E+00 0.  1.
         11    1    3    3    0    0  0.35764398212E+02  0.30806571970E+00  0.45598280406E+01  0.36055223144E+02  0.51100000000E-03 0. -1.
        -11    1    3    3    0    0  0.60555723492E+01  0.47224979809E+01  0.67604456984E+01  0.10231107954E+02  0.51100000000E-03 0.  1.
        -12    1    3    3    0    0 -0.42206725609E+02 -0.41611437170E+01 -0.10621661892E+02  0.43721190572E+02  0.00000000000E+00 0.  1.
</event>
<event>
 7    1  0.2940586E-015  0.9000774E+02  0.7816164E-02  0.1186339E+00
        -11   -1    0    0    0    0  0.00000000000E+00  0.00000000000E+00  0.45593999997E+02  0.45594000000E+02  0.51100000000E-03 0. -1.
         11   -1    0    0    0    0 -0.00000000000E+00 -0.00000000000E+00 -0.45593999997E+02  0.45594000000E+02  0.51100000000E-03 0.  1.
    9900012    2    1    2    0    0 -0.84288352197E-01 -0.32652516572E+00  0.11310617192E+01  0.90007735698E+02  0.89999997009E+02 0.  0.
        -12    1    1    2    0    0  0.84288352197E-01  0.32652516572E+00 -0.11310617192E+01  0.11802643021E+01  0.00000000000E+00 0.  1.
         11    1    3    3    0    0 -0.21396535586E+02  0.60636205388E+01  0.34450497109E+02  0.41005072619E+02  0.51100000000E-03 0. -1.
        -11    1    3    3    0    0  0.43344895658E+01 -0.81685243390E+01  0.22780004145E+01  0.95237532424E+01  0.51100000000E-03 0.  1.
        -12    1    3    3    0    0  0.16977757668E+02  0.17783786344E+01 -0.35597435805E+02  0.39478909837E+02  0.00000000000E+00 0.  1.
</event>
<event>
 7    1  0.2294706E-015  0.9000774E+02  0.7816164E-02  0.1186339E+00
        -11   -1    0    0    0    0  0.00000000000E+00  0.00000000000E+00  0.45593999997E+02  0.45594000000E+02  0.51100000000E-03 0.  1.
         11   -1    0    0    0    0 -0.00000000000E+00 -0.00000000000E+00 -0.45593999997E+02  0.45594000000E+02  0.51100000000E-03 0. -1.
    9900012    2    1    2    0    0 -0.30537373691E+00  0.14181413627E+00 -0.11312152244E+01  0.90007740600E+02  0.90000001975E+02 0.  0.
        -12    1    1    2    0    0  0.30537373691E+00 -0.14181413627E+00  0.11312152244E+01  0.11802594004E+01  0.00000000000E+00 0.  1.
         11    1    3    3    0    0 -0.38551105593E+02 -0.41600777224E+01  0.88623095913E+01  0.39774797556E+02  0.51100000000E-03 0. -1.
        -11    1    3    3    0    0 -0.19212591430E+01  0.40101168603E+01 -0.90161294653E+01  0.10053002772E+02  0.51100000000E-03 0.  1.
        -12    1    3    3    0    0  0.40166990999E+02  0.29177499833E+00 -0.97739535034E+00  0.40179940272E+02  0.00000000000E+00 0.  1.
</event>
<event>
 7    1  0.2294706E-015  0.9000774E+02  0.7816164E-02  0.1186339E+00
        -11   -1    0    0    0    0  0.00000000000E+00  0.00000000000E+00  0.45593999997E+02  0.45594000000E+02  0.51100000000E-03 0.  1.
         11   -1    0    0    0    0 -0.00000000000E+00 -0.00000000000E+00 -0.45593999997E+02  0.45594000000E+02  0.51100000000E-03 0. -1.
    9900012    2    1    2    0    0  0.98442422564E+00  0.63529187247E+00 -0.14256425649E+00  0.90007740966E+02  0.90000002347E+02 0.  0.
        -12    1    1    2    0    0 -0.98442422564E+00 -0.63529187247E+00  0.14256425649E+00  0.11802590336E+01  0.00000000000E+00 0.  1.
         11    1    3    3    0    0 -0.53073863936E+01  0.12464562343E+02  0.12026647834E+01  0.13600737758E+02  0.51100000000E-03 0. -1.
        -11    1    3    3    0    0 -0.12785281933E+02 -0.19302470079E+02  0.30651217719E+02  0.38412835526E+02  0.51100000000E-03 0.  1.
        -12    1    3    3    0    0  0.19077092552E+02  0.74731996089E+01 -0.31996446759E+02  0.37994167682E+02  0.00000000000E+00 0.  1.
</event>
<event>
 7    1  0.2294706E-015  0.9000776E+02  0.7816164E-02  0.1186339E+00
        -11   -1    0    0    0    0  0.00000000000E+00  0.00000000000E+00  0.45593999997E+02  0.45594000000E+02  0.51100000000E-03 0. -1.
         11   -1    0    0    0    0 -0.00000000000E+00 -0.00000000000E+00 -0.45593999997E+02  0.45594000000E+02  0.51100000000E-03 0.  1.
    9900012    2    1    2    0    0  0.50796844524E+00 -0.80022655319E+00  0.70325157898E+00  0.90007763896E+02  0.90000025579E+02 0.  0.
        -12    1    1    2    0    0 -0.50796844524E+00  0.80022655319E+00 -0.70325157898E+00  0.11802361040E+01  0.00000000000E+00 0.  1.
         11    1    3    3    0    0  0.23337508150E+01  0.39858602442E+01 -0.10536685159E+02  0.11504573402E+02  0.51100000000E-03 0. -1.
        -11    1    3    3    0    0  0.96179118540E+01 -0.33606431247E+02 -0.14849276767E+02  0.37978908230E+02  0.51100000000E-03 0.  1.
         12    1    3    3    0    0 -0.11443694224E+02  0.28820344450E+02  0.26089213505E+02  0.40524282264E+02  0.00000000000E+00 0. -1.
</event>
<event>
 7    1  0.2294706E-015  0.9000799E+02  0.7816164E-02  0.1186339E+00
        -11   -1    0    0    0    0  0.00000000000E+00  0.00000000000E+00  0.45593999997E+02  0.45594000000E+02  0.51100000000E-03 0.  1.
         11   -1    0    0    0    0 -0.00000000000E+00 -0.00000000000E+00 -0.45593999997E+02  0.45594000000E+02  0.51100000000E-03 0. -1.
    9900012    2    1    2    0    0 -0.66047449161E+00 -0.97647844588E+00 -0.51865396877E-01  0.90007988674E+02  0.90000253324E+02 0.  0.
        -12    1    1    2    0    0  0.66047449161E+00  0.97647844588E+00  0.51865396877E-01  0.11800113257E+01  0.00000000000E+00 0.  1.
         11    1    3    3    0    0  0.29198326218E+02  0.22699058759E+02  0.13179506587E+02  0.39261799711E+02  0.51100000000E-03 0. -1.
        -11    1    3    3    0    0  0.63571804454E+01 -0.17140863213E+01 -0.25904420061E+01  0.70754664285E+01  0.51100000000E-03 0.  1.
        -12    1    3    3    0    0 -0.36215981155E+02 -0.21961450884E+02 -0.10640929977E+02  0.43670722534E+02  0.00000000000E+00 0.  1.
</event>
<event>
 7    1  0.2294706E-015  0.9000770E+02  0.7816164E-02  0.1186339E+00
        -11   -1    0    0    0    0  0.00000000000E+00  0.00000000000E+00  0.45593999997E+02  0.45594000000E+02  0.51100000000E-03 0.  1.
         11   -1    0    0    0    0 -0.00000000000E+00 -0.00000000000E+00 -0.45593999997E+02  0.45594000000E+02  0.51100000000E-03 0. -1.
    9900012    2    1    2    0    0 -0.96523507523E+00  0.43049815730E-01 -0.67791900278E+00  0.90007700796E+02  0.89999961646E+02 0.  0.
        -12    1    1    2    0    0  0.96523507523E+00 -0.43049815730E-01  0.67791900278E+00  0.11802992042E+01  0.00000000000E+00 0.  1.
         11    1    3    3    0    0  0.12627049960E+01 -0.52752973484E+01  0.59066193893E+01  0.80194350731E+01  0.51100000000E-03 0. -1.
        -11    1    3    3    0    0  0.13520687599E+02  0.35386612845E+02  0.16101992680E+02  0.41161821270E+02  0.51100000000E-03 0.  1.
         12    1    3    3    0    0 -0.15748627670E+02 -0.30068265681E+02 -0.22686531072E+02  0.40826444452E+02  0.00000000000E+00 0. -1.
</event>
<event>
 7    1  0.2294706E-015  0.9000773E+02  0.7816164E-02  0.1186339E+00
        -11   -1    0    0    0    0  0.00000000000E+00  0.00000000000E+00  0.45593999997E+02  0.45594000000E+02  0.51100000000E-03 0.  1.
         11   -1    0    0    0    0 -0.00000000000E+00 -0.00000000000E+00 -0.45593999997E+02  0.45594000000E+02  0.51100000000E-03 0. -1.
    9900012    2    1    2    0    0 -0.10269640645E+01 -0.47251155488E+00  0.33930050059E+00  0.90007725799E+02  0.89999986980E+02 0.  0.
        -12    1    1    2    0    0  0.10269640645E+01  0.47251155488E+00 -0.33930050059E+00  0.11802742007E+01  0.00000000000E+00 0.  1.
         11    1    3    3    0    0  0.58345461581E+01  0.60282452623E+01  0.16713940748E+01  0.85542520555E+01  0.51100000000E-03 0. -1.
        -11    1    3    3    0    0  0.34005728329E+01  0.24273634561E+02  0.28354487721E+02  0.37479997393E+02  0.51100000000E-03 0.  1.
         12    1    3    3    0    0 -0.10262083056E+02 -0.30774391379E+02 -0.29686581295E+02  0.43973476351E+02  0.00000000000E+00 0. -1.
</event>
<event>
 7    1  0.2294706E-015  0.9000771E+02  0.7816164E-02  0.1186339E+00
        -11   -1    0    0    0    0  0.00000000000E+00  0.00000000000E+00  0.45593999997E+02  0.45594000000E+02  0.51100000000E-03 0.  1.
         11   -1    0    0    0    0 -0.00000000000E+00 -0.00000000000E+00 -0.45593999997E+02  0.45594000000E+02  0.51100000000E-03 0. -1.
    9900012    2    1    2    0    0 -0.41746954565E-01  0.20761638407E+00 -0.11611352140E+01  0.90007710901E+02  0.89999971885E+02 0.  0.
        -12    1    1    2    0    0  0.41746954565E-01 -0.20761638407E+00  0.11611352140E+01  0.11802890986E+01  0.00000000000E+00 0.  1.
         11    1    3    3    0    0 -0.32164040720E+01  0.52011168757E+01  0.74812269144E+01  0.96625891104E+01  0.51100000000E-03 0. -1.
        -11    1    3    3    0    0 -0.24066084673E+02  0.24883131958E+02  0.96962263862E+01  0.35949457492E+02  0.51100000000E-03 0.  1.
         12    1    3    3    0    0  0.27240741791E+02 -0.29876632450E+02 -0.18338588515E+02  0.44395664299E+02  0.00000000000E+00 0. -1.
</event>
<event>
 7    1  0.2294706E-015  0.9000773E+02  0.7816164E-02  0.1186339E+00
        -11   -1    0    0    0    0  0.00000000000E+00  0.00000000000E+00  0.45593999997E+02  0.45594000000E+02  0.51100000000E-03 0.  1.
         11   -1    0    0    0    0 -0.00000000000E+00 -0.00000000000E+00 -0.45593999997E+02  0.45594000000E+02  0.51100000000E-03 0. -1.
    9900012    2    1    2    0    0 -0.13381930051E+00 -0.63259511466E+00 -0.98739199944E+00  0.90007734291E+02  0.89999995583E+02 0.  0.
        -12    1    1    2    0    0  0.13381930051E+00  0.63259511466E+00  0.98739199944E+00  0.11802657094E+01  0.00000000000E+00 0.  1.
         11    1    3    3    0    0  0.28383863969E+01  0.75103419252E+01  0.45737959039E+01  0.92401992621E+01  0.51100000000E-03 0. -1.
        -11    1    3    3    0    0 -0.27726571233E+02  0.21059474574E+02  0.14299664178E+02  0.37639668138E+02  0.51100000000E-03 0.  1.
         12    1    3    3    0    0  0.24754365535E+02 -0.29202411614E+02 -0.19860852082E+02  0.43127866891E+02  0.00000000000E+00 0. -1.
</event>
<event>
 7    1  0.2294706E-015  0.9000776E+02  0.7816164E-02  0.1186339E+00
        -11   -1    0    0    0    0  0.00000000000E+00  0.00000000000E+00  0.45593999997E+02  0.45594000000E+02  0.51100000000E-03 0. -1.
         11   -1    0    0    0    0 -0.00000000000E+00 -0.00000000000E+00 -0.45593999997E+02  0.45594000000E+02  0.51100000000E-03 0.  1.
    9900012    2    1    2    0    0 -0.61480290212E-01  0.10936501699E+01 -0.43944363831E+00  0.90007762214E+02  0.90000023875E+02 0.  0.
        -12    1    1    2    0    0  0.61480290212E-01 -0.10936501699E+01  0.43944363831E+00  0.11802377860E+01  0.00000000000E+00 0.  1.
         11    1    3    3    0    0 -0.25705068743E+01  0.91263554309E+01  0.12455511086E+02  0.15653677706E+02  0.51100000000E-03 0. -1.
        -11    1    3    3    0    0 -0.34793709596E+02  0.56367689997E+00 -0.85066437875E+01  0.35822938851E+02  0.51100000000E-03 0.  1.
         12    1    3    3    0    0  0.37302736180E+02 -0.85963821609E+01 -0.43883109373E+01  0.38531145657E+02  0.00000000000E+00 0. -1.
</event>
<event>
 7    1  0.2294706E-015  0.9000767E+02  0.7816164E-02  0.1186339E+00
        -11   -1    0    0    0    0  0.00000000000E+00  0.00000000000E+00  0.45593999997E+02  0.45594000000E+02  0.51100000000E-03 0.  1.
         11   -1    0    0    0    0 -0.00000000000E+00 -0.00000000000E+00 -0.45593999997E+02  0.45594000000E+02  0.51100000000E-03 0. -1.
    9900012    2    1    2    0    0  0.30196551394E+00  0.10425838690E+01 -0.46368905158E+00  0.90007672998E+02  0.89999933481E+02 0.  0.
        -12    1    1    2    0    0 -0.30196551394E+00 -0.10425838690E+01  0.46368905158E+00  0.11803270022E+01  0.00000000000E+00 0.  1.
         11    1    3    3    0    0  0.12790525252E+01 -0.10993926953E+02  0.48664330576E+01  0.12090681377E+02  0.51100000000E-03 0. -1.
        -11    1    3    3    0    0 -0.29639247664E+02 -0.16756256855E+02  0.83354828387E+01  0.35053351057E+02  0.51100000000E-03 0.  1.
         12    1    3    3    0    0  0.28662160653E+02  0.28792767677E+02 -0.13665604948E+02  0.42863640564E+02  0.00000000000E+00 0. -1.
</event>
<event>
 7    1  0.2294706E-015  0.9000753E+02  0.7816164E-02  0.1186339E+00
        -11   -1    0    0    0    0  0.00000000000E+00  0.00000000000E+00  0.45593999997E+02  0.45594000000E+02  0.51100000000E-03 0.  1.
         11   -1    0    0    0    0 -0.00000000000E+00 -0.00000000000E+00 -0.45593999997E+02  0.45594000000E+02  0.51100000000E-03 0. -1.
    9900012    2    1    2    0    0 -0.66880565202E+00 -0.24958177541E+00 -0.94017285542E+00  0.90007526764E+02  0.89999785317E+02 0.  0.
        -12    1    1    2    0    0  0.66880565202E+00  0.24958177541E+00  0.94017285542E+00  0.11804732360E+01  0.00000000000E+00 0.  1.
         11    1    3    3    0    0 -0.25914044815E+02  0.28782931431E+01 -0.33028148408E+02  0.42079459093E+02  0.51100000000E-03 0. -1.
        -11    1    3    3    0    0  0.19480429869E+01 -0.77236695570E+01 -0.54017554569E-01  0.79657304161E+01  0.51100000000E-03 0.  1.
        -12    1    3    3    0    0  0.23297196176E+02  0.45957946385E+01  0.32141993107E+02  0.39962337255E+02  0.00000000000E+00 0.  1.
</event>
<event>
 7    1  0.2294706E-015  0.9000771E+02  0.7816164E-02  0.1186339E+00
        -11   -1    0    0    0    0  0.00000000000E+00  0.00000000000E+00  0.45593999997E+02  0.45594000000E+02  0.51100000000E-03 0. -1.
         11   -1    0    0    0    0 -0.00000000000E+00 -0.00000000000E+00 -0.45593999997E+02  0.45594000000E+02  0.51100000000E-03 0.  1.
    9900012    2    1    2    0    0 -0.78061007923E+00 -0.25394749101E+00 -0.84808662246E+00  0.90007706671E+02  0.89999967599E+02 0.  0.
        -12    1    1    2    0    0  0.78061007923E+00  0.25394749101E+00  0.84808662246E+00  0.11802933293E+01  0.00000000000E+00 0.  1.
         11    1    3    3    0    0 -0.11949609984E+02  0.75388214951E+01  0.12704810221E+02  0.19001031849E+02  0.51100000000E-03 0. -1.
        -11    1    3    3    0    0 -0.30343735886E+01  0.37957376506E+01 -0.39190014161E+02  0.39490153932E+02  0.51100000000E-03 0.  1.
         12    1    3    3    0    0  0.14203373493E+02 -0.11588506637E+02  0.25637117317E+02  0.31516520890E+02  0.00000000000E+00 0. -1.
</event>
<event>
 7    1  0.2294706E-015  0.9000767E+02  0.7816164E-02  0.1186339E+00
        -11   -1    0    0    0    0  0.00000000000E+00  0.00000000000E+00  0.45593999997E+02  0.45594000000E+02  0.51100000000E-03 0. -1.
         11   -1    0    0    0    0 -0.00000000000E+00 -0.00000000000E+00 -0.45593999997E+02  0.45594000000E+02  0.51100000000E-03 0.  1.
    9900012    2    1    2    0    0  0.55108062402E+00  0.10428310586E+01  0.44647791698E-01  0.90007669582E+02  0.89999930020E+02 0.  0.
        -12    1    1    2    0    0 -0.55108062402E+00 -0.10428310586E+01 -0.44647791698E-01  0.11803304182E+01  0.00000000000E+00 0.  1.
         11    1    3    3    0    0  0.95580340195E+01  0.21713317624E+01  0.94797491536E-01  0.98020244218E+01  0.51100000000E-03 0. -1.
        -11    1    3    3    0    0  0.16787617782E+01 -0.18322625219E+02 -0.35156749482E+02  0.39680396550E+02  0.51100000000E-03 0.  1.
         12    1    3    3    0    0 -0.10685715174E+02  0.17194124515E+02  0.35106599782E+02  0.40525248609E+02  0.00000000000E+00 0. -1.
</event>
<event>
 7    1  0.2294706E-015  0.9000775E+02  0.7816164E-02  0.1186339E+00
        -11   -1    0    0    0    0  0.00000000000E+00  0.00000000000E+00  0.45593999997E+02  0.45594000000E+02  0.51100000000E-03 0. -1.
         11   -1    0    0    0    0 -0.00000000000E+00 -0.00000000000E+00 -0.45593999997E+02  0.45594000000E+02  0.51100000000E-03 0.  1.
    9900012    2    1    2    0    0 -0.17114190414E+00 -0.31344068900E+00  0.11249221820E+01  0.90007752343E+02  0.90000013874E+02 0.  0.
        -12    1    1    2    0    0  0.17114190414E+00  0.31344068900E+00 -0.11249221820E+01  0.11802476572E+01  0.00000000000E+00 0.  1.
         11    1    3    3    0    0 -0.17688140484E+02 -0.21920269036E+02  0.22714447423E+02  0.36184452882E+02  0.51100000000E-03 0. -1.
        -11    1    3    3    0    0 -0.94422943808E+01  0.14110210503E+02  0.21681396890E+01  0.17115951436E+02  0.51100000000E-03 0.  1.
        -12    1    3    3    0    0  0.26959292961E+02  0.74966178444E+01 -0.23757664930E+02  0.36707348024E+02  0.00000000000E+00 0.  1.
</event>
<event>
 7    1  0.2294706E-015  0.9000822E+02  0.7816164E-02  0.1186338E+00
        -11   -1    0    0    0    0  0.00000000000E+00  0.00000000000E+00  0.45593999997E+02  0.45594000000E+02  0.51100000000E-03 0. -1.
         11   -1    0    0    0    0 -0.00000000000E+00 -0.00000000000E+00 -0.45593999997E+02  0.45594000000E+02  0.51100000000E-03 0.  1.
    9900012    2    1    2    0    0  0.74514056692E+00  0.19116344902E+00  0.89448641351E+00  0.90008218718E+02  0.90000486404E+02 0.  0.
        -12    1    1    2    0    0 -0.74514056692E+00 -0.19116344902E+00 -0.89448641351E+00  0.11797812817E+01  0.00000000000E+00 0.  1.
         11    1    3    3    0    0  0.15834076790E+01 -0.60590656127E+01 -0.74128884119E+01  0.97041419427E+01  0.51100000000E-03 0. -1.
        -11    1    3    3    0    0 -0.82581013468E+01  0.25211664171E+02 -0.28065460678E+02  0.38619869646E+02  0.51100000000E-03 0.  1.
         12    1    3    3    0    0  0.74198342347E+01 -0.18961435109E+02  0.36372835503E+02  0.41684207130E+02  0.00000000000E+00 0. -1.
</event>
<event>
 7    1  0.2294706E-015  0.9000746E+02  0.7816164E-02  0.1186340E+00
        -11   -1    0    0    0    0  0.00000000000E+00  0.00000000000E+00  0.45593999997E+02  0.45594000000E+02  0.51100000000E-03 0. -1.
         11   -1    0    0    0    0 -0.00000000000E+00 -0.00000000000E+00 -0.45593999997E+02  0.45594000000E+02  0.51100000000E-03 0.  1.
    9900012    2    1    2    0    0  0.18043355870E+00  0.80157090820E+00 -0.84769971123E+00  0.90007463262E+02  0.89999720976E+02 0.  0.
        -12    1    1    2    0    0 -0.18043355870E+00 -0.80157090820E+00  0.84769971123E+00  0.11805367383E+01  0.00000000000E+00 0.  1.
         11    1    3    3    0    0 -0.11757109919E+02 -0.84622360358E+01 -0.82986898611E+01  0.16694529824E+02  0.51100000000E-03 0. -1.
        -11    1    3    3    0    0  0.38495698466E+02  0.56956452533E+01 -0.11399449960E+02  0.40550050985E+02  0.51100000000E-03 0.  1.
         12    1    3    3    0    0 -0.26558154989E+02  0.35681616907E+01  0.18850440110E+02  0.32762882452E+02  0.00000000000E+00 0. -1.
</event>
<event>
 7    1  0.2294706E-015  0.9000802E+02  0.7816164E-02  0.1186338E+00
        -11   -1    0    0    0    0  0.00000000000E+00  0.00000000000E+00  0.45593999997E+02  0.45594000000E+02  0.51100000000E-03 0. -1.
         11   -1    0    0    0    0 -0.00000000000E+00 -0.00000000000E+00 -0.45593999997E+02  0.45594000000E+02  0.51100000000E-03 0.  1.
    9900012    2    1    2    0    0 -0.11086504834E+01  0.37894553639E+00 -0.14014531941E+00  0.90008022744E+02  0.90000287844E+02 0.  0.
        -12    1    1    2    0    0  0.11086504834E+01 -0.37894553639E+00  0.14014531941E+00  0.11799772559E+01  0.00000000000E+00 0.  1.
         11    1    3    3    0    0 -0.27029838374E+02 -0.32110450531E+02 -0.82246852334E+01  0.42770768561E+02  0.51100000000E-03 0. -1.
        -11    1    3    3    0    0  0.76228921494E+01  0.77062652122E+01  0.12014124100E+02  0.16181291246E+02  0.51100000000E-03 0.  1.
        -12    1    3    3    0    0  0.18298295741E+02  0.24783130855E+02 -0.39295841861E+01  0.31055962937E+02  0.00000000000E+00 0.  1.
</event>
<event>
 7    1  0.2294706E-015  0.9000783E+02  0.7816164E-02  0.1186339E+00
        -11   -1    0    0    0    0  0.00000000000E+00  0.00000000000E+00  0.45593999997E+02  0.45594000000E+02  0.51100000000E-03 0.  1.
         11   -1    0    0    0    0 -0.00000000000E+00 -0.00000000000E+00 -0.45593999997E+02  0.45594000000E+02  0.51100000000E-03 0. -1.
    9900012    2    1    2    0    0  0.24130635499E+00 -0.13426800670E+00 -0.11474067101E+01  0.90007831024E+02  0.90000093593E+02 0.  0.
        -12    1    1    2    0    0 -0.24130635499E+00  0.13426800670E+00  0.11474067101E+01  0.11801689765E+01  0.00000000000E+00 0.  1.
         11    1    3    3    0    0  0.31814970535E+02 -0.11796609667E+01  0.10727416627E+02  0.33595556520E+02  0.51100000000E-03 0. -1.
        -11    1    3    3    0    0  0.32030962210E+01  0.10861493271E+02  0.91911965073E+01  0.14584579356E+02  0.51100000000E-03 0.  1.
        -12    1    3    3    0    0 -0.34776760401E+02 -0.98161003112E+01 -0.21066019844E+02  0.41827695148E+02  0.00000000000E+00 0.  1.
</event>
<event>
 7    1  0.2294706E-015  0.9000778E+02  0.7816164E-02  0.1186339E+00
        -11   -1    0    0    0    0  0.00000000000E+00  0.00000000000E+00  0.45593999997E+02  0.45594000000E+02  0.51100000000E-03 0. -1.
         11   -1    0    0    0    0 -0.00000000000E+00 -0.00000000000E+00 -0.45593999997E+02  0.45594000000E+02  0.51100000000E-03 0.  1.
    9900012    2    1    2    0    0 -0.90072778309E+00 -0.34053971023E+00  0.68238742513E+00  0.90007775262E+02  0.90000037096E+02 0.  0.
        -12    1    1    2    0    0  0.90072778309E+00  0.34053971023E+00 -0.68238742513E+00  0.11802247377E+01  0.00000000000E+00 0.  1.
         11    1    3    3    0    0  0.39561059956E+01 -0.31026564088E+00  0.44028249519E+02  0.44206716632E+02  0.51100000000E-03 0. -1.
        -11    1    3    3    0    0  0.11401819901E+01  0.49912601235E+01 -0.73007028874E+01  0.89170037290E+01  0.51100000000E-03 0.  1.
        -12    1    3    3    0    0 -0.59970157688E+01 -0.50215341929E+01 -0.36045159206E+02  0.36884054902E+02  0.00000000000E+00 0.  1.
</event>
<event>
 7    1  0.2294706E-015  0.9000750E+02  0.7816164E-02  0.1186340E+00
        -11   -1    0    0    0    0  0.00000000000E+00  0.00000000000E+00  0.45593999997E+02  0.45594000000E+02  0.51100000000E-03 0. -1.
         11   -1    0    0    0    0 -0.00000000000E+00 -0.00000000000E+00 -0.45593999997E+02  0.45594000000E+02  0.51100000000E-03 0.  1.
    9900012    2    1    2    0    0 -0.43834930254E+00  0.28053803096E+00  0.10595849320E+01  0.90007503526E+02  0.89999761772E+02 0.  0.
        -12    1    1    2    0    0  0.43834930254E+00 -0.28053803096E+00 -0.10595849320E+01  0.11804964744E+01  0.00000000000E+00 0.  1.
         11    1    3    3    0    0 -0.84562466604E+01  0.17281797766E+02  0.28729725691E+02  0.34576954466E+02  0.51100000000E-03 0. -1.
        -11    1    3    3    0    0 -0.14680329714E+02  0.36097054152E+00 -0.21755403607E+02  0.26247665927E+02  0.51100000000E-03 0.  1.
         12    1    3    3    0    0  0.22698227072E+02 -0.17362230277E+02 -0.59147371519E+01  0.29182883133E+02  0.00000000000E+00 0. -1.
</event>
<event>
 7    1  0.2294706E-015  0.9000771E+02  0.7816164E-02  0.1186339E+00
        -11   -1    0    0    0    0  0.00000000000E+00  0.00000000000E+00  0.45593999997E+02  0.45594000000E+02  0.51100000000E-03 0.  1.
         11   -1    0    0    0    0 -0.00000000000E+00 -0.00000000000E+00 -0.45593999997E+02  0.45594000000E+02  0.51100000000E-03 0. -1.
    9900012    2    1    2    0    0  0.10021964168E+01 -0.56607332083E+00 -0.26123513972E+00  0.90007711704E+02  0.89999972699E+02 0.  0.
        -12    1    1    2    0    0 -0.10021964168E+01  0.56607332083E+00  0.26123513972E+00  0.11802882956E+01  0.00000000000E+00 0.  1.
         11    1    3    3    0    0 -0.74339523309E+01  0.17503405629E+02 -0.23498079732E+02  0.30229002750E+02  0.51100000000E-03 0. -1.
        -11    1    3    3    0    0  0.23972458904E+02  0.70872844149E+01  0.66119072695E+01  0.25857797746E+02  0.51100000000E-03 0.  1.
        -12    1    3    3    0    0 -0.15536310156E+02 -0.25156763365E+02  0.16624937323E+02  0.33920911209E+02  0.00000000000E+00 0.  1.
</event>
<event>
 7    1  0.2294706E-015  0.9000772E+02  0.7816164E-02  0.1186339E+00
        -11   -1    0    0    0    0  0.00000000000E+00  0.00000000000E+00  0.45593999997E+02  0.45594000000E+02  0.51100000000E-03 0.  1.
         11   -1    0    0    0    0 -0.00000000000E+00 -0.00000000000E+00 -0.45593999997E+02  0.45594000000E+02  0.51100000000E-03 0. -1.
    9900012    2    1    2    0    0 -0.65308854262E+00 -0.96954625406E+00 -0.16282669096E+00  0.90007721594E+02  0.89999982720E+02 0.  0.
        -12    1    1    2    0    0  0.65308854262E+00  0.96954625406E+00  0.16282669096E+00  0.11802784055E+01  0.00000000000E+00 0.  1.
         11    1    3    3    0    0  0.12892146033E+02 -0.84611289555E+01  0.10621944571E+01  0.15457243929E+02  0.51100000000E-03 0. -1.
        -11    1    3    3    0    0 -0.98797356409E+01  0.19186118736E+02  0.32305454265E+02  0.38850465944E+02  0.51100000000E-03 0.  1.
         12    1    3    3    0    0 -0.36654989350E+01 -0.11694536035E+02 -0.33530475413E+02  0.35700011722E+02  0.00000000000E+00 0. -1.
</event>
<event>
 7    1  0.2294706E-015  0.9000838E+02  0.7816164E-02  0.1186338E+00
        -11   -1    0    0    0    0  0.00000000000E+00  0.00000000000E+00  0.45593999997E+02  0.45594000000E+02  0.51100000000E-03 0.  1.
         11   -1    0    0    0    0 -0.00000000000E+00 -0.00000000000E+00 -0.45593999997E+02  0.45594000000E+02  0.51100000000E-03 0. -1.
    9900012    2    1    2    0    0  0.70588667744E+00 -0.92794974352E+00 -0.17926586546E+00  0.90008380155E+02  0.90000649971E+02 0.  0.
        -12    1    1    2    0    0 -0.70588667744E+00  0.92794974352E+00  0.17926586546E+00  0.11796198449E+01  0.00000000000E+00 0.  1.
         11    1    3    3    0    0 -0.49480505409E+01  0.56709616668E+01 -0.55782187579E+00  0.75467990491E+01  0.51100000000E-03 0. -1.
        -11    1    3    3    0    0 -0.16032183763E+02 -0.18538584571E+02  0.33252422806E+02  0.41309002128E+02  0.51100000000E-03 0.  1.
         12    1    3    3    0    0  0.21686120981E+02  0.11939673161E+02 -0.32873866796E+02  0.41152578978E+02  0.00000000000E+00 0. -1.
</event>
<event>
 7    1  0.2294706E-015  0.9000773E+02  0.7816164E-02  0.1186339E+00
        -11   -1    0    0    0    0  0.00000000000E+00  0.00000000000E+00  0.45593999997E+02  0.45594000000E+02  0.51100000000E-03 0. -1.
         11   -1    0    0    0    0 -0.00000000000E+00 -0.00000000000E+00 -0.45593999997E+02  0.45594000000E+02  0.51100000000E-03 0.  1.
    9900012    2    1    2    0    0  0.82001866647E+00 -0.81608796637E+00 -0.23367418406E+00  0.90007731468E+02  0.89999992724E+02 0.  0.
        -12    1    1    2    0    0 -0.82001866647E+00  0.81608796637E+00  0.23367418406E+00  0.11802685315E+01  0.00000000000E+00 0.  1.
         11    1    3    3    0    0  0.39419535093E+02  0.13069584798E+02  0.51843491733E+01  0.41852016323E+02  0.51100000000E-03 0. -1.
        -11    1    3    3    0    0 -0.80004465196E+00 -0.89202534057E+01 -0.44939464510E+01  0.10020306743E+02  0.51100000000E-03 0.  1.
        -12    1    3    3    0    0 -0.37799471774E+02 -0.49654193587E+01 -0.92407690634E+00  0.38135408402E+02  0.00000000000E+00 0.  1.
</event>
<event>
 7    1  0.2294706E-015  0.9000773E+02  0.7816164E-02  0.1186339E+00
        -11   -1    0    0    0    0  0.00000000000E+00  0.00000000000E+00  0.45593999997E+02  0.45594000000E+02  0.51100000000E-03 0. -1.
         11   -1    0    0    0    0 -0.00000000000E+00 -0.00000000000E+00 -0.45593999997E+02  0.45594000000E+02  0.51100000000E-03 0.  1.
    9900012    2    1    2    0    0  0.48150843947E+00  0.55195220931E+00 -0.92549344820E+00  0.90007728954E+02  0.89999990177E+02 0.  0.
        -12    1    1    2    0    0 -0.48150843947E+00 -0.55195220931E+00  0.92549344820E+00  0.11802710457E+01  0.00000000000E+00 0.  1.
         11    1    3    3    0    0 -0.27008313976E+02  0.22484972144E+02 -0.83380443551E+01  0.36118499140E+02  0.51100000000E-03 0. -1.
        -11    1    3    3    0    0 -0.44006943603E+01  0.73814706551E+01 -0.34024001154E+01  0.92427564445E+01  0.51100000000E-03 0.  1.
        -12    1    3    3    0    0  0.31890516776E+02 -0.29314490590E+02  0.10814951022E+02  0.44646473370E+02  0.00000000000E+00 0.  1.
</event>
<event>
 7    1  0.2294706E-015  0.9000777E+02  0.7816164E-02  0.1186339E+00
        -11   -1    0    0    0    0  0.00000000000E+00  0.00000000000E+00  0.45593999997E+02  0.45594000000E+02  0.51100000000E-03 0.  1.
         11   -1    0    0    0    0 -0.00000000000E+00 -0.00000000000E+00 -0.45593999997E+02  0.45594000000E+02  0.51100000000E-03 0. -1.
    9900012    2    1    2    0    0 -0.77825098532E+00  0.88574616805E+00 -0.52223472836E-01  0.90007767751E+02  0.90000029485E+02 0.  0.
        -12    1    1    2    0    0  0.77825098532E+00 -0.88574616805E+00  0.52223472836E-01  0.11802322490E+01  0.00000000000E+00 0.  1.
         11    1    3    3    0    0 -0.16059070865E+02 -0.26250704152E+02 -0.25776838983E+02  0.40142728529E+02  0.51100000000E-03 0. -1.
        -11    1    3    3    0    0  0.12881420239E+02  0.25485563915E+01 -0.13653095068E+01  0.13201901278E+02  0.51100000000E-03 0.  1.
        -12    1    3    3    0    0  0.23993996411E+01  0.24587893929E+02  0.27089925017E+02  0.36663137944E+02  0.00000000000E+00 0.  1.
</event>
<event>
 7    1  0.2294706E-015  0.9000773E+02  0.7816164E-02  0.1186339E+00
        -11   -1    0    0    0    0  0.00000000000E+00  0.00000000000E+00  0.45593999997E+02  0.45594000000E+02  0.51100000000E-03 0. -1.
         11   -1    0    0    0    0 -0.00000000000E+00 -0.00000000000E+00 -0.45593999997E+02  0.45594000000E+02  0.51100000000E-03 0.  1.
    9900012    2    1    2    0    0  0.85337822015E+00 -0.76361461552E+00  0.28579209847E+00  0.90007729357E+02  0.89999990584E+02 0.  0.
        -12    1    1    2    0    0 -0.85337822015E+00  0.76361461552E+00 -0.28579209847E+00  0.11802706432E+01  0.00000000000E+00 0.  1.
         11    1    3    3    0    0  0.56142203109E+01 -0.61643335015E+01 -0.35571476916E+02  0.36535577831E+02  0.51100000000E-03 0. -1.
        -11    1    3    3    0    0 -0.15316977052E+02 -0.16249427121E+01 -0.37998371094E-01  0.15402975978E+02  0.51100000000E-03 0.  1.
         12    1    3    3    0    0  0.10556134961E+02  0.70256615981E+01  0.35895267386E+02  0.38069175548E+02  0.00000000000E+00 0. -1.
</event>
<event>
 7    1  0.2294706E-015  0.9000807E+02  0.7816164E-02  0.1186338E+00
        -11   -1    0    0    0    0  0.00000000000E+00  0.00000000000E+00  0.45593999997E+02  0.45594000000E+02  0.51100000000E-03 0. -1.
         11   -1    0    0    0    0 -0.00000000000E+00 -0.00000000000E+00 -0.45593999997E+02  0.45594000000E+02  0.51100000000E-03 0.  1.
    9900012    2    1    2    0    0  0.79836544831E+00  0.85602936283E+00 -0.14851886019E+00  0.90008071396E+02  0.90000337138E+02 0.  0.
        -12    1    1    2    0    0 -0.79836544831E+00 -0.85602936283E+00  0.14851886019E+00  0.11799286042E+01  0.00000000000E+00 0.  1.
         11    1    3    3    0    0  0.25735978930E+01 -0.42213145766E+01  0.74315477111E+01  0.89258503524E+01  0.51100000000E-03 0. -1.
        -11    1    3    3    0    0 -0.22681047434E+02 -0.31317892188E+02 -0.17595132802E+01  0.38708347563E+02  0.51100000000E-03 0.  1.
         12    1    3    3    0    0  0.20905814990E+02  0.36395236127E+02 -0.58205532911E+01  0.42373873481E+02  0.00000000000E+00 0. -1.
</event>
<event>
 7    1  0.2294706E-015  0.9000763E+02  0.7816164E-02  0.1186339E+00
        -11   -1    0    0    0    0  0.00000000000E+00  0.00000000000E+00  0.45593999997E+02  0.45594000000E+02  0.51100000000E-03 0. -1.
         11   -1    0    0    0    0 -0.00000000000E+00 -0.00000000000E+00 -0.45593999997E+02  0.45594000000E+02  0.51100000000E-03 0.  1.
    9900012    2    1    2    0    0  0.54955804811E+00 -0.32206027764E+00  0.99374726640E+00  0.90007631202E+02  0.89999891133E+02 0.  0.
        -12    1    1    2    0    0 -0.54955804811E+00  0.32206027764E+00 -0.99374726640E+00  0.11803687984E+01  0.00000000000E+00 0.  1.
         11    1    3    3    0    0 -0.86640612192E+01  0.34292314954E+01 -0.77006286062E+01  0.12088228433E+02  0.51100000000E-03 0. -1.
        -11    1    3    3    0    0 -0.30399620223E+02 -0.72410189605E+01 -0.11525064848E+02  0.33307602515E+02  0.51100000000E-03 0.  1.
         12    1    3    3    0    0  0.39613239491E+02  0.34897271874E+01  0.20219440721E+02  0.44611800253E+02  0.00000000000E+00 0. -1.
</event>
<event>
 7    1  0.2294706E-015  0.9000771E+02  0.7816164E-02  0.1186339E+00
        -11   -1    0    0    0    0  0.00000000000E+00  0.00000000000E+00  0.45593999997E+02  0.45594000000E+02  0.51100000000E-03 0. -1.
         11   -1    0    0    0    0 -0.00000000000E+00 -0.00000000000E+00 -0.45593999997E+02  0.45594000000E+02  0.51100000000E-03 0.  1.
    9900012    2    1    2    0    0  0.89692093505E+00 -0.66507512113E+00  0.38247293553E+00  0.90007712905E+02  0.89999973915E+02 0.  0.
        -12    1    1    2    0    0 -0.89692093505E+00  0.66507512113E+00 -0.38247293553E+00  0.11802870951E+01  0.00000000000E+00 0.  1.
         11    1    3    3    0    0 -0.69872788040E+01 -0.37920607934E+02 -0.18614992917E+02  0.42817199029E+02  0.51100000000E-03 0. -1.
        -11    1    3    3    0    0  0.75105422548E+01  0.32124472402E+01 -0.70955393386E-01  0.81690328167E+01  0.51100000000E-03 0.  1.
        -12    1    3    3    0    0  0.37365748426E+00  0.34043085572E+02  0.19068421246E+02  0.39021481059E+02  0.00000000000E+00 0.  1.
</event>
<event>
 7    1  0.2294706E-015  0.9000770E+02  0.7816164E-02  0.1186339E+00
        -11   -1    0    0    0    0  0.00000000000E+00  0.00000000000E+00  0.45593999997E+02  0.45594000000E+02  0.51100000000E-03 0. -1.
         11   -1    0    0    0    0 -0.00000000000E+00 -0.00000000000E+00 -0.45593999997E+02  0.45594000000E+02  0.51100000000E-03 0.  1.
    9900012    2    1    2    0    0 -0.10598580915E+01 -0.44667797416E+00  0.26511859663E+00  0.90007699929E+02  0.89999960768E+02 0.  0.
        -12    1    1    2    0    0  0.10598580915E+01  0.44667797416E+00 -0.26511859663E+00  0.11803000707E+01  0.00000000000E+00 0.  1.
         11    1    3    3    0    0 -0.86551895122E+00 -0.10773469872E+01  0.10481511341E+02  0.10572222086E+02  0.51100000000E-03 0. -1.
        -11    1    3    3    0    0  0.27160198143E+02  0.24503919092E+02  0.99424468041E+01  0.37907395884E+02  0.51100000000E-03 0.  1.
         12    1    3    3    0    0 -0.27354537283E+02 -0.23873250079E+02 -0.20158839548E+02  0.41528081959E+02  0.00000000000E+00 0. -1.
</event>
<event>
 7    1  0.2294706E-015  0.9000773E+02  0.7816164E-02  0.1186339E+00
        -11   -1    0    0    0    0  0.00000000000E+00  0.00000000000E+00  0.45593999997E+02  0.45594000000E+02  0.51100000000E-03 0.  1.
         11   -1    0    0    0    0 -0.00000000000E+00 -0.00000000000E+00 -0.45593999997E+02  0.45594000000E+02  0.51100000000E-03 0. -1.
    9900012    2    1    2    0    0 -0.62134209603E+00 -0.42747384497E+00 -0.90787070956E+00  0.90007733456E+02  0.89999994738E+02 0.  0.
        -12    1    1    2    0    0  0.62134209603E+00  0.42747384497E+00  0.90787070956E+00  0.11802665435E+01  0.00000000000E+00 0.  1.
         11    1    3    3    0    0  0.15396977802E+02 -0.31052550896E+02 -0.13757897946E+02  0.37290851408E+02  0.51100000000E-03 0. -1.
        -11    1    3    3    0    0 -0.10550099941E+02 -0.59070116499E+01 -0.30985473038E+01  0.12481922570E+02  0.51100000000E-03 0.  1.
        -12    1    3    3    0    0 -0.54682199573E+01  0.36532088701E+02  0.15948574541E+02  0.40234959478E+02  0.00000000000E+00 0.  1.
</event>
<event>
 7    1  0.2294706E-015  0.9000776E+02  0.7816164E-02  0.1186339E+00
        -11   -1    0    0    0    0  0.00000000000E+00  0.00000000000E+00  0.45593999997E+02  0.45594000000E+02  0.51100000000E-03 0. -1.
         11   -1    0    0    0    0 -0.00000000000E+00 -0.00000000000E+00 -0.45593999997E+02  0.45594000000E+02  0.51100000000E-03 0.  1.
    9900012    2    1    2    0    0  0.74377304034E+00  0.57410937214E+00  0.71426477926E+00  0.90007756770E+02  0.90000018360E+02 0.  0.
        -12    1    1    2    0    0 -0.74377304034E+00 -0.57410937214E+00 -0.71426477926E+00  0.11802432299E+01  0.00000000000E+00 0.  1.
         11    1    3    3    0    0  0.62494704482E+01  0.79580429454E+01 -0.10301828538E+00  0.10119137386E+02  0.51100000000E-03 0. -1.
        -11    1    3    3    0    0  0.88468695803E+00 -0.36037785902E+02  0.23289362540E+02  0.42917351870E+02  0.51100000000E-03 0.  1.
         12    1    3    3    0    0 -0.63903843658E+01  0.28653852329E+02 -0.22472079476E+02  0.36971267514E+02  0.00000000000E+00 0. -1.
</event>
<event>
 7    1  0.2568414E-015  0.9000784E+02  0.7816164E-02  0.1186339E+00
        -11   -1    0    0    0    0  0.00000000000E+00  0.00000000000E+00  0.45593999997E+02  0.45594000000E+02  0.51100000000E-03 0.  1.
         11   -1    0    0    0    0 -0.00000000000E+00 -0.00000000000E+00 -0.45593999997E+02  0.45594000000E+02  0.51100000000E-03 0. -1.
    9900012    2    1    2    0    0 -0.39058000793E+00 -0.10499422590E+01  0.37129213950E+00  0.90007835036E+02  0.90000097658E+02 0.  0.
        -12    1    1    2    0    0  0.39058000793E+00  0.10499422590E+01 -0.37129213950E+00  0.11801649642E+01  0.00000000000E+00 0.  1.
         11    1    3    3    0    0  0.15838245092E+02 -0.37537050997E+02  0.15126839934E+02  0.43459193410E+02  0.51100000000E-03 0. -1.
        -11    1    3    3    0    0 -0.78794839331E+01  0.47184512529E+01  0.23976617249E+01  0.94920404174E+01  0.51100000000E-03 0.  1.
        -12    1    3    3    0    0 -0.83493411670E+01  0.31768657485E+02 -0.17153209520E+02  0.37056601209E+02  0.00000000000E+00 0.  1.
</event>
<event>
 7    1  0.2294706E-015  0.9000773E+02  0.7816164E-02  0.1186339E+00
        -11   -1    0    0    0    0  0.00000000000E+00  0.00000000000E+00  0.45593999997E+02  0.45594000000E+02  0.51100000000E-03 0.  1.
         11   -1    0    0    0    0 -0.00000000000E+00 -0.00000000000E+00 -0.45593999997E+02  0.45594000000E+02  0.51100000000E-03 0. -1.
    9900012    2    1    2    0    0  0.11086967181E+01  0.13634725490E+00 -0.38110907106E+00  0.90007727527E+02  0.89999988730E+02 0.  0.
        -12    1    1    2    0    0 -0.11086967181E+01 -0.13634725490E+00  0.38110907106E+00  0.11802724731E+01  0.00000000000E+00 0.  1.
         11    1    3    3    0    0 -0.16326006559E+01  0.40227547220E+02  0.13640274609E+02  0.42508564218E+02  0.51100000000E-03 0. -1.
        -11    1    3    3    0    0  0.86764712165E+01 -0.66926608381E+01 -0.46133448053E+00  0.10967483377E+02  0.51100000000E-03 0.  1.
        -12    1    3    3    0    0 -0.59351738424E+01 -0.33398539127E+02 -0.13560049199E+02  0.36531679932E+02  0.00000000000E+00 0.  1.
</event>
<event>
 7    1  0.2294706E-015  0.9000774E+02  0.7816164E-02  0.1186339E+00
        -11   -1    0    0    0    0  0.00000000000E+00  0.00000000000E+00  0.45593999997E+02  0.45594000000E+02  0.51100000000E-03 0.  1.
         11   -1    0    0    0    0 -0.00000000000E+00 -0.00000000000E+00 -0.45593999997E+02  0.45594000000E+02  0.51100000000E-03 0. -1.
    9900012    2    1    2    0    0 -0.77040099254E+00  0.39362084547E+00  0.80284925126E+00  0.90007736479E+02  0.89999997800E+02 0.  0.
        -12    1    1    2    0    0  0.77040099254E+00 -0.39362084547E+00 -0.80284925126E+00  0.11802635212E+01  0.00000000000E+00 0.  1.
         11    1    3    3    0    0  0.26263802311E+00  0.15943156242E+02  0.64670860770E+01  0.17206871078E+02  0.51100000000E-03 0. -1.
        -11    1    3    3    0    0  0.25147892645E+02 -0.23075078601E+02 -0.22404817984E+02  0.40827094265E+02  0.51100000000E-03 0.  1.
         12    1    3    3    0    0 -0.26180931661E+02  0.75255432039E+01  0.16740581158E+02  0.31973771136E+02  0.00000000000E+00 0. -1.
</event>
<event>
 7    1  0.2294706E-015  0.9000783E+02  0.7816164E-02  0.1186339E+00
        -11   -1    0    0    0    0  0.00000000000E+00  0.00000000000E+00  0.45593999997E+02  0.45594000000E+02  0.51100000000E-03 0.  1.
         11   -1    0    0    0    0 -0.00000000000E+00 -0.00000000000E+00 -0.45593999997E+02  0.45594000000E+02  0.51100000000E-03 0. -1.
    9900012    2    1    2    0    0  0.72613641788E+00  0.85484520626E+00 -0.36710563709E+00  0.90007830108E+02  0.90000092666E+02 0.  0.
        -12    1    1    2    0    0 -0.72613641788E+00 -0.85484520626E+00  0.36710563709E+00  0.11801698915E+01  0.00000000000E+00 0.  1.
         11    1    3    3    0    0 -0.67460684812E+01  0.25982318417E+01  0.18897353409E+01  0.74720377794E+01  0.51100000000E-03 0. -1.
        -11    1    3    3    0    0  0.30510333740E+02 -0.16515321880E+02  0.25881367183E+02  0.43283732385E+02  0.51100000000E-03 0.  1.
         12    1    3    3    0    0 -0.23038128841E+02  0.14771935245E+02 -0.28138208161E+02  0.39252059944E+02  0.00000000000E+00 0. -1.
</event>
<event>
 7    1  0.2294706E-015  0.9000753E+02  0.7816164E-02  0.1186339E+00
        -11   -1    0    0    0    0  0.00000000000E+00  0.00000000000E+00  0.45593999997E+02  0.45594000000E+02  0.51100000000E-03 0.  1.
         11   -1    0    0    0    0 -0.00000000000E+00 -0.00000000000E+00 -0.45593999997E+02  0.45594000000E+02  0.51100000000E-03 0. -1.
    9900012    2    1    2    0    0 -0.33494587920E+00  0.10999164765E+01  0.26742224241E+00  0.90007525666E+02  0.89999784205E+02 0.  0.
        -12    1    1    2    0    0  0.33494587920E+00 -0.10999164765E+01 -0.26742224241E+00  0.11804743339E+01  0.00000000000E+00 0.  1.
         11    1    3    3    0    0  0.29769477987E+01  0.76013063817E+01  0.34653512665E+01  0.88685250502E+01  0.51100000000E-03 0. -1.
        -11    1    3    3    0    0 -0.16245195997E+02 -0.23029923398E+02  0.30444693980E+02  0.41486903434E+02  0.51100000000E-03 0.  1.
         12    1    3    3    0    0  0.12933302320E+02  0.16528533493E+02 -0.33642623004E+02  0.39652097182E+02  0.00000000000E+00 0. -1.
</event>
<event>
 7    1  0.2294706E-015  0.9000795E+02  0.7816164E-02  0.1186339E+00
        -11   -1    0    0    0    0  0.00000000000E+00  0.00000000000E+00  0.45593999997E+02  0.45594000000E+02  0.51100000000E-03 0. -1.
         11   -1    0    0    0    0 -0.00000000000E+00 -0.00000000000E+00 -0.45593999997E+02  0.45594000000E+02  0.51100000000E-03 0.  1.
    9900012    2    1    2    0    0 -0.23596977078E+00  0.10726723246E+01 -0.43152556061E+00  0.90007948324E+02  0.90000212442E+02 0.  0.
        -12    1    1    2    0    0  0.23596977078E+00 -0.10726723246E+01  0.43152556061E+00  0.11800516761E+01  0.00000000000E+00 0.  1.
         11    1    3    3    0    0  0.39946158602E+02 -0.78716899472E+01  0.71685148637E+01  0.41340617984E+02  0.51100000000E-03 0. -1.
        -11    1    3    3    0    0 -0.32740051148E+01  0.72766889766E+01  0.52489991467E+01  0.95509844654E+01  0.51100000000E-03 0.  1.
        -12    1    3    3    0    0 -0.36908123258E+02  0.16676732951E+01 -0.12849039571E+02  0.39116345874E+02  0.00000000000E+00 0.  1.
</event>
<event>
 7    1  0.2294706E-015  0.9000771E+02  0.7816164E-02  0.1186339E+00
        -11   -1    0    0    0    0  0.00000000000E+00  0.00000000000E+00  0.45593999997E+02  0.45594000000E+02  0.51100000000E-03 0.  1.
         11   -1    0    0    0    0 -0.00000000000E+00 -0.00000000000E+00 -0.45593999997E+02  0.45594000000E+02  0.51100000000E-03 0. -1.
    9900012    2    1    2    0    0 -0.10604573938E+01 -0.16441295022E+00 -0.49141071502E+00  0.90007709361E+02  0.89999970324E+02 0.  0.
        -12    1    1    2    0    0  0.10604573938E+01  0.16441295022E+00  0.49141071502E+00  0.11802906392E+01  0.00000000000E+00 0.  1.
         11    1    3    3    0    0 -0.97544376048E+01 -0.23857002209E+01  0.19648031638E+01  0.10232354092E+02  0.51100000000E-03 0. -1.
        -11    1    3    3    0    0 -0.27554930469E+02  0.22311456549E+02 -0.11657026893E+02  0.37322400281E+02  0.51100000000E-03 0.  1.
         12    1    3    3    0    0  0.36248910680E+02 -0.20090169278E+02  0.92008130146E+01  0.42452954988E+02  0.00000000000E+00 0. -1.
</event>
<event>
 7    1  0.2294706E-015  0.9000782E+02  0.7816164E-02  0.1186339E+00
        -11   -1    0    0    0    0  0.00000000000E+00  0.00000000000E+00  0.45593999997E+02  0.45594000000E+02  0.51100000000E-03 0. -1.
         11   -1    0    0    0    0 -0.00000000000E+00 -0.00000000000E+00 -0.45593999997E+02  0.45594000000E+02  0.51100000000E-03 0.  1.
    9900012    2    1    2    0    0  0.97355241647E+00 -0.30555327990E+00 -0.59301135156E+00  0.90007817990E+02  0.90000080387E+02 0.  0.
        -12    1    1    2    0    0 -0.97355241647E+00  0.30555327990E+00  0.59301135156E+00  0.11801820103E+01  0.00000000000E+00 0.  1.
         11    1    3    3    0    0  0.16549034622E+02 -0.33844487372E+02 -0.40531203938E+01  0.37891260966E+02  0.51100000000E-03 0. -1.
        -11    1    3    3    0    0 -0.22512529411E+01 -0.80059578133E+01  0.14427160195E+01  0.84406711870E+01  0.51100000000E-03 0.  1.
        -12    1    3    3    0    0 -0.13324229265E+02  0.41544891906E+02  0.20173930227E+01  0.43675885836E+02  0.00000000000E+00 0.  1.
</event>
<event>
 7    1  0.2294706E-015  0.9000772E+02  0.7816164E-02  0.1186339E+00
        -11   -1    0    0    0    0  0.00000000000E+00  0.00000000000E+00  0.45593999997E+02  0.45594000000E+02  0.51100000000E-03 0. -1.
         11   -1    0    0    0    0 -0.00000000000E+00 -0.00000000000E+00 -0.45593999997E+02  0.45594000000E+02  0.51100000000E-03 0.  1.
    9900012    2    1    2    0    0  0.44993093821E+00 -0.16436625846E-01  0.10910290468E+01  0.90007723595E+02  0.89999984746E+02 0.  0.
        -12    1    1    2    0    0 -0.44993093821E+00  0.16436625846E-01 -0.10910290468E+01  0.11802764053E+01  0.00000000000E+00 0.  1.
         11    1    3    3    0    0  0.18737342860E+01 -0.70427093191E+01  0.77454570161E+01  0.10634977169E+02  0.51100000000E-03 0. -1.
        -11    1    3    3    0    0  0.26767287614E+02 -0.11653981458E+02 -0.27117272668E+02  0.39845319013E+02  0.51100000000E-03 0.  1.
         12    1    3    3    0    0 -0.28191090962E+02  0.18680254151E+02  0.20462844698E+02  0.39527427413E+02  0.00000000000E+00 0. -1.
</event>
<event>
 7    1  0.2294706E-015  0.9000773E+02  0.7816164E-02  0.1186339E+00
        -11   -1    0    0    0    0  0.00000000000E+00  0.00000000000E+00  0.45593999997E+02  0.45594000000E+02  0.51100000000E-03 0. -1.
         11   -1    0    0    0    0 -0.00000000000E+00 -0.00000000000E+00 -0.45593999997E+02  0.45594000000E+02  0.51100000000E-03 0.  1.
    9900012    2    1    2    0    0  0.90983202780E-01 -0.10480291467E+01 -0.53516111994E+00  0.90007728650E+02  0.89999989868E+02 0.  0.
        -12    1    1    2    0    0 -0.90983202780E-01  0.10480291467E+01  0.53516111994E+00  0.11802713501E+01  0.00000000000E+00 0.  1.
         11    1    3    3    0    0 -0.27055622652E+02 -0.19456915868E+02  0.19274629823E+02  0.38497917440E+02  0.51100000000E-03 0. -1.
        -11    1    3    3    0    0  0.39460692657E+01 -0.97137431842E+00  0.89220374625E+01  0.98039677406E+01  0.51100000000E-03 0.  1.
        -12    1    3    3    0    0  0.23200536589E+02  0.19380261039E+02 -0.28731828406E+02  0.41705843469E+02  0.00000000000E+00 0.  1.
</event>
<event>
 7    1  0.2294706E-015  0.9000785E+02  0.7816164E-02  0.1186339E+00
        -11   -1    0    0    0    0  0.00000000000E+00  0.00000000000E+00  0.45593999997E+02  0.45594000000E+02  0.51100000000E-03 0.  1.
         11   -1    0    0    0    0 -0.00000000000E+00 -0.00000000000E+00 -0.45593999997E+02  0.45594000000E+02  0.51100000000E-03 0. -1.
    9900012    2    1    2    0    0 -0.66343704238E+00  0.39908555815E+00 -0.89069412690E+00  0.90007850001E+02  0.90000112821E+02 0.  0.
        -12    1    1    2    0    0  0.66343704238E+00 -0.39908555815E+00  0.89069412690E+00  0.11801499988E+01  0.00000000000E+00 0.  1.
         11    1    3    3    0    0 -0.45326717488E+01  0.29371366627E+02 -0.23995965862E+02  0.38197233782E+02  0.51100000000E-03 0. -1.
        -11    1    3    3    0    0  0.10778359702E+02  0.19837005306E+01 -0.22693789170E+01  0.11191880386E+02  0.51100000000E-03 0.  1.
        -12    1    3    3    0    0 -0.69091249953E+01 -0.30955981599E+02  0.25374650652E+02  0.40618735833E+02  0.00000000000E+00 0.  1.
</event>
<event>
 7    1  0.2294706E-015  0.9000773E+02  0.7816164E-02  0.1186339E+00
        -11   -1    0    0    0    0  0.00000000000E+00  0.00000000000E+00  0.45593999997E+02  0.45594000000E+02  0.51100000000E-03 0. -1.
         11   -1    0    0    0    0 -0.00000000000E+00 -0.00000000000E+00 -0.45593999997E+02  0.45594000000E+02  0.51100000000E-03 0.  1.
    9900012    2    1    2    0    0  0.24889238041E+00  0.95986951701E+00 -0.64011683752E+00  0.90007726103E+02  0.89999987287E+02 0.  0.
        -12    1    1    2    0    0 -0.24889238041E+00 -0.95986951701E+00  0.64011683752E+00  0.11802738972E+01  0.00000000000E+00 0.  1.
         11    1    3    3    0    0  0.76080038547E+00  0.73224602906E+01  0.51596221383E+01  0.89899356396E+01  0.51100000000E-03 0. -1.
        -11    1    3    3    0    0  0.26605552061E+00 -0.33114657713E+02  0.24049554778E+02  0.40927160007E+02  0.51100000000E-03 0.  1.
         12    1    3    3    0    0 -0.77796352566E+00  0.26752066940E+02 -0.29849293753E+02  0.40090630456E+02  0.00000000000E+00 0. -1.
</event>
<event>
 7    1  0.2294706E-015  0.9000768E+02  0.7816164E-02  0.1186339E+00
        -11   -1    0    0    0    0  0.00000000000E+00  0.00000000000E+00  0.45593999997E+02  0.45594000000E+02  0.51100000000E-03 0. -1.
         11   -1    0    0    0    0 -0.00000000000E+00 -0.00000000000E+00 -0.45593999997E+02  0.45594000000E+02  0.51100000000E-03 0.  1.
    9900012    2    1    2    0    0 -0.86582818288E-01 -0.11283138150E+01  0.33550683804E+00  0.90007680769E+02  0.89999941355E+02 0.  0.
        -12    1    1    2    0    0  0.86582818288E-01  0.11283138150E+01 -0.33550683804E+00  0.11803192314E+01  0.00000000000E+00 0.  1.
         11    1    3    3    0    0  0.25364692686E+02 -0.31270973669E+02  0.12427347850E+02  0.42138823003E+02  0.51100000000E-03 0. -1.
        -11    1    3    3    0    0 -0.31606750736E+01 -0.42509912073E+01 -0.80694676711E+00  0.53583538994E+01  0.51100000000E-03 0.  1.
        -12    1    3    3    0    0 -0.22290600430E+02  0.34393651061E+02 -0.11284894245E+02  0.42510503866E+02  0.00000000000E+00 0.  1.
</event>
<event>
 7    1  0.2294706E-015  0.9000780E+02  0.7816164E-02  0.1186339E+00
        -11   -1    0    0    0    0  0.00000000000E+00  0.00000000000E+00  0.45593999997E+02  0.45594000000E+02  0.51100000000E-03 0.  1.
         11   -1    0    0    0    0 -0.00000000000E+00 -0.00000000000E+00 -0.45593999997E+02  0.45594000000E+02  0.51100000000E-03 0. -1.
    9900012    2    1    2    0    0 -0.76518896499E+00 -0.54803207956E+00 -0.71204796894E+00  0.90007802719E+02  0.90000064915E+02 0.  0.
        -12    1    1    2    0    0  0.76518896499E+00  0.54803207956E+00  0.71204796894E+00  0.11801972812E+01  0.00000000000E+00 0.  1.
         11    1    3    3    0    0 -0.40181594191E+02  0.17571480423E+00 -0.11643934616E+02  0.41835064253E+02  0.51100000000E-03 0. -1.
        -11    1    3    3    0    0  0.61899785988E+01  0.27963057727E+01 -0.74140646343E+01  0.10055024400E+02  0.51100000000E-03 0.  1.
        -12    1    3    3    0    0  0.33226426628E+02 -0.35200526565E+01  0.18345951282E+02  0.38117714065E+02  0.00000000000E+00 0.  1.
</event>
<event>
 7    1  0.2294706E-015  0.9000715E+02  0.7816164E-02  0.1186340E+00
        -11   -1    0    0    0    0  0.00000000000E+00  0.00000000000E+00  0.45593999997E+02  0.45594000000E+02  0.51100000000E-03 0.  1.
         11   -1    0    0    0    0 -0.00000000000E+00 -0.00000000000E+00 -0.45593999997E+02  0.45594000000E+02  0.51100000000E-03 0. -1.
    9900012    2    1    2    0    0  0.38345936728E+00  0.11105727333E+01 -0.11826667321E+00  0.90007152894E+02  0.89999406510E+02 0.  0.
        -12    1    1    2    0    0 -0.38345936728E+00 -0.11105727333E+01  0.11826667321E+00  0.11808471062E+01  0.00000000000E+00 0.  1.
         11    1    3    3    0    0 -0.81398092250E+01  0.79268556339E+01  0.19751321382E+01  0.11532245301E+02  0.51100000000E-03 0. -1.
        -11    1    3    3    0    0 -0.83456431638E+01  0.30899704053E+02  0.12918573369E+02  0.34515663235E+02  0.51100000000E-03 0.  1.
         12    1    3    3    0    0  0.16868911756E+02 -0.37715986954E+02 -0.15011972181E+02  0.43959244358E+02  0.00000000000E+00 0. -1.
</event>
<event>
 7    1  0.2294706E-015  0.9000769E+02  0.7816164E-02  0.1186339E+00
        -11   -1    0    0    0    0  0.00000000000E+00  0.00000000000E+00  0.45593999997E+02  0.45594000000E+02  0.51100000000E-03 0.  1.
         11   -1    0    0    0    0 -0.00000000000E+00 -0.00000000000E+00 -0.45593999997E+02  0.45594000000E+02  0.51100000000E-03 0. -1.
    9900012    2    1    2    0    0 -0.19442260819E+00 -0.76410354343E+00 -0.87834015413E+00  0.90007688261E+02  0.89999948946E+02 0.  0.
        -12    1    1    2    0    0  0.19442260819E+00  0.76410354343E+00  0.87834015413E+00  0.11803117393E+01  0.00000000000E+00 0.  1.
         11    1    3    3    0    0 -0.78009807088E+01 -0.54374907455E+01 -0.13599344071E+00  0.95100000054E+01  0.51100000000E-03 0. -1.
        -11    1    3    3    0    0  0.31235247237E+02 -0.23176936641E+02 -0.14441984869E+02  0.41489540721E+02  0.51100000000E-03 0.  1.
         12    1    3    3    0    0 -0.23628689137E+02  0.27850323843E+02  0.13699638155E+02  0.39008147534E+02  0.00000000000E+00 0. -1.
</event>
<event>
 7    1  0.2294706E-015  0.9000767E+02  0.7816164E-02  0.1186339E+00
        -11   -1    0    0    0    0  0.00000000000E+00  0.00000000000E+00  0.45593999997E+02  0.45594000000E+02  0.51100000000E-03 0.  1.
         11   -1    0    0    0    0 -0.00000000000E+00 -0.00000000000E+00 -0.45593999997E+02  0.45594000000E+02  0.51100000000E-03 0. -1.
    9900012    2    1    2    0    0  0.11280755948E+01 -0.26052975922E+00 -0.22967214864E+00  0.90007669708E+02  0.89999930148E+02 0.  0.
        -12    1    1    2    0    0 -0.11280755948E+01  0.26052975922E+00  0.22967214864E+00  0.11803302922E+01  0.00000000000E+00 0.  1.
         11    1    3    3    0    0  0.75934565554E-01 -0.65169287665E+01 -0.62748319879E+01  0.90470792715E+01  0.51100000000E-03 0. -1.
        -11    1    3    3    0    0  0.25529860606E+02 -0.28274470168E+02  0.64216554388E+01  0.38632332374E+02  0.51100000000E-03 0.  1.
         12    1    3    3    0    0 -0.24477719576E+02  0.34530869175E+02 -0.37649559951E+00  0.42328258062E+02  0.00000000000E+00 0. -1.
</event>
<event>
 7    1  0.2294706E-015  0.9000754E+02  0.7816164E-02  0.1186339E+00
        -11   -1    0    0    0    0  0.00000000000E+00  0.00000000000E+00  0.45593999997E+02  0.45594000000E+02  0.51100000000E-03 0. -1.
         11   -1    0    0    0    0 -0.00000000000E+00 -0.00000000000E+00 -0.45593999997E+02  0.45594000000E+02  0.51100000000E-03 0.  1.
    9900012    2    1    2    0    0 -0.46711191582E+00  0.18520292596E+00  0.10681704144E+01  0.90007541742E+02  0.89999800492E+02 0.  0.
        -12    1    1    2    0    0  0.46711191582E+00 -0.18520292596E+00 -0.10681704144E+01  0.11804582585E+01  0.00000000000E+00 0.  1.
         11    1    3    3    0    0 -0.79541509484E+01 -0.62179845884E+01  0.17455152653E+01  0.10245910084E+02  0.51100000000E-03 0. -1.
        -11    1    3    3    0    0 -0.23447228141E+02  0.28594041173E+02  0.13166235749E+02  0.39252279706E+02  0.51100000000E-03 0.  1.
         12    1    3    3    0    0  0.30934267174E+02 -0.22190853659E+02 -0.13843580599E+02  0.40509351951E+02  0.00000000000E+00 0. -1.
</event>
<event>
 7    1  0.2294706E-015  0.9000756E+02  0.7816164E-02  0.1186339E+00
        -11   -1    0    0    0    0  0.00000000000E+00  0.00000000000E+00  0.45593999997E+02  0.45594000000E+02  0.51100000000E-03 0. -1.
         11   -1    0    0    0    0 -0.00000000000E+00 -0.00000000000E+00 -0.45593999997E+02  0.45594000000E+02  0.51100000000E-03 0.  1.
    9900012    2    1    2    0    0  0.99965613411E+00 -0.17558314382E+00  0.60273989354E+00  0.90007560588E+02  0.89999819587E+02 0.  0.
        -12    1    1    2    0    0 -0.99965613411E+00  0.17558314382E+00 -0.60273989354E+00  0.11804394123E+01  0.00000000000E+00 0.  1.
         11    1    3    3    0    0  0.46123098227E+01 -0.75849985716E+01  0.11491265845E+01  0.89513181935E+01  0.51100000000E-03 0. -1.
        -11    1    3    3    0    0 -0.62295482274E+01  0.42654205430E+02 -0.10445567938E+02  0.44354237698E+02  0.51100000000E-03 0.  1.
         12    1    3    3    0    0  0.26168945388E+01 -0.35244790002E+02  0.98991812467E+01  0.36702004696E+02  0.00000000000E+00 0. -1.
</event>
<event>
 7    1  0.2294706E-015  0.9000782E+02  0.7816164E-02  0.1186339E+00
        -11   -1    0    0    0    0  0.00000000000E+00  0.00000000000E+00  0.45593999997E+02  0.45594000000E+02  0.51100000000E-03 0.  1.
         11   -1    0    0    0    0 -0.00000000000E+00 -0.00000000000E+00 -0.45593999997E+02  0.45594000000E+02  0.51100000000E-03 0. -1.
    9900012    2    1    2    0    0  0.31124380364E+00  0.10448720225E+01  0.45188615736E+00  0.90007817240E+02  0.90000079627E+02 0.  0.
        -12    1    1    2    0    0 -0.31124380364E+00 -0.10448720225E+01 -0.45188615736E+00  0.11801827604E+01  0.00000000000E+00 0.  1.
         11    1    3    3    0    0 -0.64903180396E+01 -0.57287161659E+01  0.48630486617E+01  0.99293332964E+01  0.51100000000E-03 0. -1.
        -11    1    3    3    0    0 -0.30175694358E+02 -0.15490532767E+02 -0.12528458503E+02  0.36159250657E+02  0.51100000000E-03 0.  1.
         12    1    3    3    0    0  0.36977256201E+02  0.22264120955E+02  0.81172959990E+01  0.43919233286E+02  0.00000000000E+00 0. -1.
</event>
<event>
 7    1  0.2294706E-015  0.9000757E+02  0.7816164E-02  0.1186339E+00
        -11   -1    0    0    0    0  0.00000000000E+00  0.00000000000E+00  0.45593999997E+02  0.45594000000E+02  0.51100000000E-03 0.  1.
         11   -1    0    0    0    0 -0.00000000000E+00 -0.00000000000E+00 -0.45593999997E+02  0.45594000000E+02  0.51100000000E-03 0. -1.
    9900012    2    1    2    0    0 -0.56174544675E+00 -0.26255453111E+00 -0.10044516806E+01  0.90007569567E+02  0.89999828685E+02 0.  0.
        -12    1    1    2    0    0  0.56174544675E+00  0.26255453111E+00  0.10044516806E+01  0.11804304331E+01  0.00000000000E+00 0.  1.
         11    1    3    3    0    0  0.30102525683E+02  0.85202355767E+01 -0.22739616942E+02  0.38676176721E+02  0.51100000000E-03 0. -1.
        -11    1    3    3    0    0 -0.65223275305E+01  0.68569209064E+01 -0.61358386224E+01  0.11278591960E+02  0.51100000000E-03 0.  1.
        -12    1    3    3    0    0 -0.24141943599E+02 -0.15639711014E+02  0.27871003884E+02  0.40052800887E+02  0.00000000000E+00 0.  1.
</event>
<event>
 7    1  0.2294706E-015  0.9000780E+02  0.7816164E-02  0.1186339E+00
        -11   -1    0    0    0    0  0.00000000000E+00  0.00000000000E+00  0.45593999997E+02  0.45594000000E+02  0.51100000000E-03 0.  1.
         11   -1    0    0    0    0 -0.00000000000E+00 -0.00000000000E+00 -0.45593999997E+02  0.45594000000E+02  0.51100000000E-03 0. -1.
    9900012    2    1    2    0    0 -0.57112074308E+00  0.10130877684E+01  0.20084458193E+00  0.90007803289E+02  0.90000065493E+02 0.  0.
        -12    1    1    2    0    0  0.57112074308E+00 -0.10130877684E+01 -0.20084458193E+00  0.11801967106E+01  0.00000000000E+00 0.  1.
         11    1    3    3    0    0  0.21533325890E+01 -0.16265172629E+01 -0.92364960546E+01  0.96226430503E+01  0.51100000000E-03 0. -1.
        -11    1    3    3    0    0 -0.40103321304E+02 -0.62408034328E+01 -0.91230544223E+00  0.40596259786E+02  0.51100000000E-03 0.  1.
         12    1    3    3    0    0  0.37378867972E+02  0.88804084641E+01  0.10349646079E+02  0.39788900454E+02  0.00000000000E+00 0. -1.
</event>
<event>
 7    1  0.2294706E-015  0.9000782E+02  0.7816164E-02  0.1186339E+00
        -11   -1    0    0    0    0  0.00000000000E+00  0.00000000000E+00  0.45593999997E+02  0.45594000000E+02  0.51100000000E-03 0.  1.
         11   -1    0    0    0    0 -0.00000000000E+00 -0.00000000000E+00 -0.45593999997E+02  0.45594000000E+02  0.51100000000E-03 0. -1.
    9900012    2    1    2    0    0 -0.69005777302E+00 -0.95673429511E+00 -0.36228305849E-01  0.90007816653E+02  0.90000079033E+02 0.  0.
        -12    1    1    2    0    0  0.69005777302E+00  0.95673429511E+00  0.36228305849E-01  0.11801833466E+01  0.00000000000E+00 0.  1.
         11    1    3    3    0    0  0.75099796043E+01  0.60354509479E+01 -0.17592010284E+01  0.97939394689E+01  0.51100000000E-03 0. -1.
        -11    1    3    3    0    0  0.22612910244E+02 -0.31209282822E+02  0.10720529455E+02  0.40003659783E+02  0.51100000000E-03 0.  1.
         12    1    3    3    0    0 -0.30812947622E+02  0.24217097579E+02 -0.89975567329E+01  0.40210217401E+02  0.00000000000E+00 0. -1.
</event>
<event>
 7    1  0.2294706E-015  0.9000771E+02  0.7816164E-02  0.1186339E+00
        -11   -1    0    0    0    0  0.00000000000E+00  0.00000000000E+00  0.45593999997E+02  0.45594000000E+02  0.51100000000E-03 0.  1.
         11   -1    0    0    0    0 -0.00000000000E+00 -0.00000000000E+00 -0.45593999997E+02  0.45594000000E+02  0.51100000000E-03 0. -1.
    9900012    2    1    2    0    0  0.89853518781E+00  0.75197367486E+00 -0.14228189265E+00  0.90007714429E+02  0.89999975460E+02 0.  0.
        -12    1    1    2    0    0 -0.89853518781E+00 -0.75197367486E+00  0.14228189265E+00  0.11802855707E+01  0.00000000000E+00 0.  1.
         11    1    3    3    0    0 -0.26241973760E+02 -0.22909241622E+02 -0.11349994971E+02  0.36637370602E+02  0.51100000000E-03 0. -1.
        -11    1    3    3    0    0 -0.15451856701E+01 -0.49317642583E+01 -0.72150843864E+01  0.88750966427E+01  0.51100000000E-03 0.  1.
        -12    1    3    3    0    0  0.28685694618E+02  0.28592979555E+02  0.18422797465E+02  0.44495247184E+02  0.00000000000E+00 0.  1.
</event>
<event>
 7    1  0.2294706E-015  0.9000780E+02  0.7816164E-02  0.1186339E+00
        -11   -1    0    0    0    0  0.00000000000E+00  0.00000000000E+00  0.45593999997E+02  0.45594000000E+02  0.51100000000E-03 0.  1.
         11   -1    0    0    0    0 -0.00000000000E+00 -0.00000000000E+00 -0.45593999997E+02  0.45594000000E+02  0.51100000000E-03 0. -1.
    9900012    2    1    2    0    0  0.25799378484E+00  0.13916376223E+00 -0.11432184726E+01  0.90007798398E+02  0.90000060537E+02 0.  0.
        -12    1    1    2    0    0 -0.25799378484E+00 -0.13916376223E+00  0.11432184726E+01  0.11802016022E+01  0.00000000000E+00 0.  1.
         11    1    3    3    0    0  0.30012163139E+02  0.88102461238E+01 -0.21664496801E+02  0.38048663511E+02  0.51100000000E-03 0. -1.
        -11    1    3    3    0    0  0.50148208221E+01  0.73497293456E+01  0.90505141605E+00  0.89434930345E+01  0.51100000000E-03 0.  1.
        -12    1    3    3    0    0 -0.34768990177E+02 -0.16020811707E+02  0.19616226913E+02  0.43015641852E+02  0.00000000000E+00 0.  1.
</event>
<event>
 7    1  0.2294706E-015  0.9000769E+02  0.7816164E-02  0.1186339E+00
        -11   -1    0    0    0    0  0.00000000000E+00  0.00000000000E+00  0.45593999997E+02  0.45594000000E+02  0.51100000000E-03 0.  1.
         11   -1    0    0    0    0 -0.00000000000E+00 -0.00000000000E+00 -0.45593999997E+02  0.45594000000E+02  0.51100000000E-03 0. -1.
    9900012    2    1    2    0    0  0.10589577182E+01 -0.37324787029E+00 -0.36390041535E+00  0.90007691170E+02  0.89999951894E+02 0.  0.
        -12    1    1    2    0    0 -0.10589577182E+01  0.37324787029E+00  0.36390041535E+00  0.11803088299E+01  0.00000000000E+00 0.  1.
         11    1    3    3    0    0  0.32752447027E+01 -0.69154528529E+01  0.45723686623E+01  0.89138808309E+01  0.51100000000E-03 0. -1.
        -11    1    3    3    0    0  0.12515466171E+02  0.26517923595E+02  0.27533844349E+02  0.40223746098E+02  0.51100000000E-03 0.  1.
         12    1    3    3    0    0 -0.14731753156E+02 -0.19975718612E+02 -0.32470113427E+02  0.40870064241E+02  0.00000000000E+00 0. -1.
</event>
<event>
 7    1  0.2294706E-015  0.9000795E+02  0.7816164E-02  0.1186339E+00
        -11   -1    0    0    0    0  0.00000000000E+00  0.00000000000E+00  0.45593999997E+02  0.45594000000E+02  0.51100000000E-03 0.  1.
         11   -1    0    0    0    0 -0.00000000000E+00 -0.00000000000E+00 -0.45593999997E+02  0.45594000000E+02  0.51100000000E-03 0. -1.
    9900012    2    1    2    0    0 -0.10321706267E+01  0.46325035943E+00 -0.33546938410E+00  0.90007950507E+02  0.90000214654E+02 0.  0.
        -12    1    1    2    0    0  0.10321706267E+01 -0.46325035943E+00  0.33546938410E+00  0.11800494929E+01  0.00000000000E+00 0.  1.
         11    1    3    3    0    0  0.18645199572E+02 -0.28606851369E+02 -0.10935044711E+02  0.35854854838E+02  0.51100000000E-03 0. -1.
        -11    1    3    3    0    0  0.84098215206E+01 -0.42092444185E+01  0.34777838511E+01  0.10026854809E+02  0.51100000000E-03 0.  1.
        -12    1    3    3    0    0 -0.28087191719E+02  0.33279346147E+02  0.71217914757E+01  0.44126240861E+02  0.00000000000E+00 0.  1.
</event>
<event>
 7    1  0.2294706E-015  0.9000771E+02  0.7816164E-02  0.1186339E+00
        -11   -1    0    0    0    0  0.00000000000E+00  0.00000000000E+00  0.45593999997E+02  0.45594000000E+02  0.51100000000E-03 0.  1.
         11   -1    0    0    0    0 -0.00000000000E+00 -0.00000000000E+00 -0.45593999997E+02  0.45594000000E+02  0.51100000000E-03 0. -1.
    9900012    2    1    2    0    0  0.63769273000E+00 -0.46050433576E+00 -0.87998252175E+00  0.90007709570E+02  0.89999970536E+02 0.  0.
        -12    1    1    2    0    0 -0.63769273000E+00  0.46050433576E+00  0.87998252175E+00  0.11802904303E+01  0.00000000000E+00 0.  1.
         11    1    3    3    0    0 -0.21530456427E+01 -0.10198502349E+02 -0.32205832003E+01  0.10909501002E+02  0.51100000000E-03 0. -1.
        -11    1    3    3    0    0  0.40556842002E+02  0.27964348138E+01  0.18833410408E+01  0.40696737640E+02  0.51100000000E-03 0.  1.
         12    1    3    3    0    0 -0.37766103629E+02  0.69415631998E+01  0.45725963778E+00  0.38401470927E+02  0.00000000000E+00 0. -1.
</event>
<event>
 7    1  0.2294706E-015  0.9000776E+02  0.7816164E-02  0.1186339E+00
        -11   -1    0    0    0    0  0.00000000000E+00  0.00000000000E+00  0.45593999997E+02  0.45594000000E+02  0.51100000000E-03 0.  1.
         11   -1    0    0    0    0 -0.00000000000E+00 -0.00000000000E+00 -0.45593999997E+02  0.45594000000E+02  0.51100000000E-03 0. -1.
    9900012    2    1    2    0    0  0.10990222046E+01  0.11628208722E-01  0.43010718370E+00  0.90007755444E+02  0.90000017016E+02 0.  0.
        -12    1    1    2    0    0 -0.10990222046E+01 -0.11628208722E-01 -0.43010718370E+00  0.11802445555E+01  0.00000000000E+00 0.  1.
         11    1    3    3    0    0  0.35087236477E+02 -0.24789253269E+01 -0.13103228189E+02  0.37536033669E+02  0.51100000000E-03 0. -1.
        -11    1    3    3    0    0 -0.31299302970E+01 -0.12392611286E+01 -0.11863997917E+02  0.12332342788E+02  0.51100000000E-03 0.  1.
        -12    1    3    3    0    0 -0.30858283975E+02  0.37298146642E+01  0.25397333290E+02  0.40139378988E+02  0.00000000000E+00 0.  1.
</event>
<event>
 7    1  0.2294706E-015  0.9000780E+02  0.7816164E-02  0.1186339E+00
        -11   -1    0    0    0    0  0.00000000000E+00  0.00000000000E+00  0.45593999997E+02  0.45594000000E+02  0.51100000000E-03 0.  1.
         11   -1    0    0    0    0 -0.00000000000E+00 -0.00000000000E+00 -0.45593999997E+02  0.45594000000E+02  0.51100000000E-03 0. -1.
    9900012    2    1    2    0    0  0.65464526331E+00 -0.92031136581E+00  0.34253964335E+00  0.90007802204E+02  0.90000064393E+02 0.  0.
        -12    1    1    2    0    0 -0.65464526331E+00  0.92031136581E+00 -0.34253964335E+00  0.11801977962E+01  0.00000000000E+00 0.  1.
         11    1    3    3    0    0  0.16833364207E+01  0.21663667669E+00 -0.54151947398E+01  0.56749350028E+01  0.51100000000E-03 0. -1.
        -11    1    3    3    0    0  0.37874374593E+02 -0.46437830701E+01 -0.13891909260E+02  0.40608104057E+02  0.51100000000E-03 0.  1.
         12    1    3    3    0    0 -0.38903065750E+02  0.35068350276E+01  0.19649643643E+02  0.43724763144E+02  0.00000000000E+00 0. -1.
</event>
<event>
 7    1  0.2294706E-015  0.9000772E+02  0.7816164E-02  0.1186339E+00
        -11   -1    0    0    0    0  0.00000000000E+00  0.00000000000E+00  0.45593999997E+02  0.45594000000E+02  0.51100000000E-03 0.  1.
         11   -1    0    0    0    0 -0.00000000000E+00 -0.00000000000E+00 -0.45593999997E+02  0.45594000000E+02  0.51100000000E-03 0. -1.
    9900012    2    1    2    0    0  0.39862371996E+00  0.11067487832E+01 -0.96234298602E-01  0.90007722584E+02  0.89999983722E+02 0.  0.
        -12    1    1    2    0    0 -0.39862371996E+00 -0.11067487832E+01  0.96234298602E-01  0.11802774163E+01  0.00000000000E+00 0.  1.
         11    1    3    3    0    0  0.52636142191E+01  0.75316550641E+01 -0.17240219361E+01  0.93489953765E+01  0.51100000000E-03 0. -1.
        -11    1    3    3    0    0 -0.22486993429E+01  0.31875850060E+02 -0.18899055433E+02  0.37125473227E+02  0.51100000000E-03 0.  1.
         12    1    3    3    0    0 -0.26162911562E+01 -0.38300756341E+02  0.20526843071E+02  0.43533253981E+02  0.00000000000E+00 0. -1.
</event>
<event>
 7    1  0.2294706E-015  0.9000777E+02  0.7816164E-02  0.1186339E+00
        -11   -1    0    0    0    0  0.00000000000E+00  0.00000000000E+00  0.45593999997E+02  0.45594000000E+02  0.51100000000E-03 0.  1.
         11   -1    0    0    0    0 -0.00000000000E+00 -0.00000000000E+00 -0.45593999997E+02  0.45594000000E+02  0.51100000000E-03 0. -1.
    9900012    2    1    2    0    0  0.80907943551E+00  0.81665367348E+00 -0.26723348915E+00  0.90007768458E+02  0.90000030201E+02 0.  0.
        -12    1    1    2    0    0 -0.80907943551E+00 -0.81665367348E+00  0.26723348915E+00  0.11802315422E+01  0.00000000000E+00 0.  1.
         11    1    3    3    0    0 -0.81312762133E+01 -0.18386182333E+00  0.47117447335E+01  0.93995742841E+01  0.51100000000E-03 0. -1.
        -11    1    3    3    0    0  0.43138900226E+01 -0.10714178060E+02  0.35963225423E+02  0.37772434945E+02  0.51100000000E-03 0.  1.
         12    1    3    3    0    0  0.46264656263E+01  0.11714693557E+02 -0.40942203645E+02  0.42835759228E+02  0.00000000000E+00 0. -1.
</event>
<event>
 7    1  0.3215010E-015  0.9000779E+02  0.7816164E-02  0.1186339E+00
        -11   -1    0    0    0    0  0.00000000000E+00  0.00000000000E+00  0.45593999997E+02  0.45594000000E+02  0.51100000000E-03 0. -1.
         11   -1    0    0    0    0 -0.00000000000E+00 -0.00000000000E+00 -0.45593999997E+02  0.45594000000E+02  0.51100000000E-03 0.  1.
    9900012    2    1    2    0    0  0.66231424189E+00  0.11897656763E+00  0.96957364394E+00  0.90007792972E+02  0.90000055039E+02 0.  0.
        -12    1    1    2    0    0 -0.66231424189E+00 -0.11897656763E+00 -0.96957364394E+00  0.11802070283E+01  0.00000000000E+00 0.  1.
         11    1    3    3    0    0  0.19698585828E+02  0.23269301031E+02  0.24587311799E+02  0.39166702131E+02  0.51100000000E-03 0. -1.
        -11    1    3    3    0    0 -0.51189894552E+01  0.42135616504E+00  0.76940288370E+01  0.92509282813E+01  0.51100000000E-03 0.  1.
        -12    1    3    3    0    0 -0.13917282131E+02 -0.23571680628E+02 -0.31311766992E+02  0.41590162559E+02  0.00000000000E+00 0.  1.
</event>
<event>
 7    1  0.2294706E-015  0.9000804E+02  0.7816164E-02  0.1186338E+00
        -11   -1    0    0    0    0  0.00000000000E+00  0.00000000000E+00  0.45593999997E+02  0.45594000000E+02  0.51100000000E-03 0. -1.
         11   -1    0    0    0    0 -0.00000000000E+00 -0.00000000000E+00 -0.45593999997E+02  0.45594000000E+02  0.51100000000E-03 0.  1.
    9900012    2    1    2    0    0 -0.88042595320E-01 -0.11615578569E+01  0.18795581063E+00  0.90008044263E+02  0.90000309647E+02 0.  0.
        -12    1    1    2    0    0  0.88042595320E-01  0.11615578569E+01 -0.18795581063E+00  0.11799557365E+01  0.00000000000E+00 0.  1.
         11    1    3    3    0    0  0.85188189918E+01  0.21877380799E+02  0.28923766217E+02  0.37252843114E+02  0.51100000000E-03 0. -1.
        -11    1    3    3    0    0 -0.12041780190E+01  0.48325346901E+01 -0.22768048115E+02  0.23306382204E+02  0.51100000000E-03 0.  1.
        -12    1    3    3    0    0 -0.74026835681E+01 -0.27871473346E+02 -0.59677622914E+01  0.29448818945E+02  0.00000000000E+00 0.  1.
</event>
<event>
 7    1  0.2294706E-015  0.9000773E+02  0.7816164E-02  0.1186339E+00
        -11   -1    0    0    0    0  0.00000000000E+00  0.00000000000E+00  0.45593999997E+02  0.45594000000E+02  0.51100000000E-03 0.  1.
         11   -1    0    0    0    0 -0.00000000000E+00 -0.00000000000E+00 -0.45593999997E+02  0.45594000000E+02  0.51100000000E-03 0. -1.
    9900012    2    1    2    0    0 -0.52474350986E+00  0.56340874281E+00  0.89457069220E+00  0.90007728046E+02  0.89999989256E+02 0.  0.
        -12    1    1    2    0    0  0.52474350986E+00 -0.56340874281E+00 -0.89457069220E+00  0.11802719542E+01  0.00000000000E+00 0.  1.
         11    1    3    3    0    0 -0.18600737403E+02 -0.18883658888E+02 -0.22660400312E+02  0.34872248959E+02  0.51100000000E-03 0. -1.
        -11    1    3    3    0    0 -0.48037521838E+01  0.41469423491E+01 -0.99333860466E+01  0.11787507137E+02  0.51100000000E-03 0.  1.
        -12    1    3    3    0    0  0.22879746077E+02  0.15300125281E+02  0.33488357051E+02  0.43347971949E+02  0.00000000000E+00 0.  1.
</event>
<event>
 7    1  0.2294706E-015  0.9000772E+02  0.7816164E-02  0.1186339E+00
        -11   -1    0    0    0    0  0.00000000000E+00  0.00000000000E+00  0.45593999997E+02  0.45594000000E+02  0.51100000000E-03 0.  1.
         11   -1    0    0    0    0 -0.00000000000E+00 -0.00000000000E+00 -0.45593999997E+02  0.45594000000E+02  0.51100000000E-03 0. -1.
    9900012    2    1    2    0    0  0.11747705136E+01  0.10738863420E+00  0.38106104938E-01  0.90007716071E+02  0.89999977123E+02 0.  0.
        -12    1    1    2    0    0 -0.11747705136E+01 -0.10738863420E+00 -0.38106104938E-01  0.11802839293E+01  0.00000000000E+00 0.  1.
         11    1    3    3    0    0  0.32865003468E+02 -0.24756870869E+02 -0.83002135726E+01  0.41975047990E+02  0.51100000000E-03 0. -1.
        -11    1    3    3    0    0  0.39840748804E+01  0.38080836465E+01  0.29723206313E+01  0.62617125380E+01  0.51100000000E-03 0.  1.
        -12    1    3    3    0    0 -0.35674307834E+02  0.21056175857E+02  0.53659990462E+01  0.41770955543E+02  0.00000000000E+00 0.  1.
</event>
<event>
 7    1  0.2294706E-015  0.9000767E+02  0.7816164E-02  0.1186339E+00
        -11   -1    0    0    0    0  0.00000000000E+00  0.00000000000E+00  0.45593999997E+02  0.45594000000E+02  0.51100000000E-03 0. -1.
         11   -1    0    0    0    0 -0.00000000000E+00 -0.00000000000E+00 -0.45593999997E+02  0.45594000000E+02  0.51100000000E-03 0.  1.
    9900012    2    1    2    0    0  0.26003340201E+00 -0.95666831364E+00  0.64057714686E+00  0.90007673472E+02  0.89999933961E+02 0.  0.
        -12    1    1    2    0    0 -0.26003340201E+00  0.95666831364E+00 -0.64057714686E+00  0.11803265284E+01  0.00000000000E+00 0.  1.
         11    1    3    3    0    0  0.27812356329E+01 -0.85623482579E+01  0.48128436527E+01  0.10208454517E+02  0.51100000000E-03 0. -1.
        -11    1    3    3    0    0  0.20974301438E+02 -0.26617920447E+02 -0.14751225312E+02  0.36959892562E+02  0.51100000000E-03 0.  1.
         12    1    3    3    0    0 -0.23495503669E+02  0.34223600391E+02  0.10578958806E+02  0.42839326393E+02  0.00000000000E+00 0. -1.
</event>
<event>
 7    1  0.2294706E-015  0.9000769E+02  0.7816164E-02  0.1186339E+00
        -11   -1    0    0    0    0  0.00000000000E+00  0.00000000000E+00  0.45593999997E+02  0.45594000000E+02  0.51100000000E-03 0.  1.
         11   -1    0    0    0    0 -0.00000000000E+00 -0.00000000000E+00 -0.45593999997E+02  0.45594000000E+02  0.51100000000E-03 0. -1.
    9900012    2    1    2    0    0  0.90530779674E-01 -0.60737198885E+00  0.10079889692E+01  0.90007687195E+02  0.89999947866E+02 0.  0.
        -12    1    1    2    0    0 -0.90530779674E-01  0.60737198885E+00 -0.10079889692E+01  0.11803128047E+01  0.00000000000E+00 0.  1.
         11    1    3    3    0    0 -0.15913504649E+01 -0.26947081873E+02 -0.27939640972E+02  0.38849725297E+02  0.51100000000E-03 0. -1.
        -11    1    3    3    0    0 -0.49906801574E+01  0.30964861609E+01 -0.61708286982E+01  0.85190517114E+01  0.51100000000E-03 0.  1.
        -12    1    3    3    0    0  0.66725614020E+01  0.23243223723E+02  0.35118458639E+02  0.42638910187E+02  0.00000000000E+00 0.  1.
</event>
<event>
 7    1  0.3819431E-015  0.9000773E+02  0.7816164E-02  0.1186339E+00
        -11   -1    0    0    0    0  0.00000000000E+00  0.00000000000E+00  0.45593999997E+02  0.45594000000E+02  0.51100000000E-03 0.  1.
         11   -1    0    0    0    0 -0.00000000000E+00 -0.00000000000E+00 -0.45593999997E+02  0.45594000000E+02  0.51100000000E-03 0. -1.
    9900012    2    1    2    0    0  0.11739304877E+01  0.12130715574E+00 -0.14104113359E-01  0.90007734292E+02  0.89999995584E+02 0.  0.
        -12    1    1    2    0    0 -0.11739304877E+01 -0.12130715574E+00  0.14104113359E-01  0.11802657083E+01  0.00000000000E+00 0.  1.
         11    1    3    3    0    0 -0.52917348296E+01  0.29477534153E+02 -0.27906603721E+02  0.40935388220E+02  0.51100000000E-03 0. -1.
        -11    1    3    3    0    0  0.15682469098E+01  0.45006243596E+01  0.85100574486E+01  0.97537734255E+01  0.51100000000E-03 0.  1.
        -12    1    3    3    0    0  0.48974184076E+01 -0.33856851357E+02  0.19382442159E+02  0.39318572646E+02  0.00000000000E+00 0.  1.
</event>
<event>
 7    1  0.2294706E-015  0.9000765E+02  0.7816164E-02  0.1186339E+00
        -11   -1    0    0    0    0  0.00000000000E+00  0.00000000000E+00  0.45593999997E+02  0.45594000000E+02  0.51100000000E-03 0.  1.
         11   -1    0    0    0    0 -0.00000000000E+00 -0.00000000000E+00 -0.45593999997E+02  0.45594000000E+02  0.51100000000E-03 0. -1.
    9900012    2    1    2    0    0 -0.75572505210E+00  0.76961893600E+00 -0.47935860883E+00  0.90007653298E+02  0.89999913522E+02 0.  0.
        -12    1    1    2    0    0  0.75572505210E+00 -0.76961893600E+00  0.47935860883E+00  0.11803467020E+01  0.00000000000E+00 0.  1.
         11    1    3    3    0    0 -0.11118349500E+02  0.26130621849E+01 -0.92250193644E+00  0.11458481560E+02  0.51100000000E-03 0. -1.
        -11    1    3    3    0    0 -0.14135512395E+02  0.11066363550E+02  0.31922071712E+02  0.36623705103E+02  0.51100000000E-03 0.  1.
         12    1    3    3    0    0  0.24498136842E+02 -0.12909806799E+02 -0.31478928384E+02  0.41925466635E+02  0.00000000000E+00 0. -1.
</event>
<event>
 7    1  0.2294706E-015  0.9000779E+02  0.7816164E-02  0.1186339E+00
        -11   -1    0    0    0    0  0.00000000000E+00  0.00000000000E+00  0.45593999997E+02  0.45594000000E+02  0.51100000000E-03 0.  1.
         11   -1    0    0    0    0 -0.00000000000E+00 -0.00000000000E+00 -0.45593999997E+02  0.45594000000E+02  0.51100000000E-03 0. -1.
    9900012    2    1    2    0    0  0.40863481740E+00  0.85403684725E+00 -0.70465246848E+00  0.90007789658E+02  0.90000051681E+02 0.  0.
        -12    1    1    2    0    0 -0.40863481740E+00 -0.85403684725E+00  0.70465246848E+00  0.11802103422E+01  0.00000000000E+00 0.  1.
         11    1    3    3    0    0  0.49022412497E+01  0.88856457932E+01  0.49114573455E+01  0.11274266448E+02  0.51100000000E-03 0. -1.
        -11    1    3    3    0    0  0.13616021597E+02  0.31563099160E+02 -0.73804371927E+01  0.35158158742E+02  0.51100000000E-03 0.  1.
         12    1    3    3    0    0 -0.18109628029E+02 -0.39594708106E+02  0.17643273788E+01  0.43575364467E+02  0.00000000000E+00 0. -1.
</event>
<event>
 7    1  0.2294706E-015  0.9000770E+02  0.7816164E-02  0.1186339E+00
        -11   -1    0    0    0    0  0.00000000000E+00  0.00000000000E+00  0.45593999997E+02  0.45594000000E+02  0.51100000000E-03 0.  1.
         11   -1    0    0    0    0 -0.00000000000E+00 -0.00000000000E+00 -0.45593999997E+02  0.45594000000E+02  0.51100000000E-03 0. -1.
    9900012    2    1    2    0    0 -0.25387593479E+00  0.84505996918E+00 -0.78391799606E+00  0.90007700561E+02  0.89999961408E+02 0.  0.
        -12    1    1    2    0    0  0.25387593479E+00 -0.84505996918E+00  0.78391799606E+00  0.11802994393E+01  0.00000000000E+00 0.  1.
         11    1    3    3    0    0  0.23489006285E+01  0.89490401331E+01 -0.30007097772E+01  0.97266084991E+01  0.51100000000E-03 0. -1.
        -11    1    3    3    0    0  0.67749225728E+01  0.34402478330E+02  0.90674395689E+01  0.36216688856E+02  0.51100000000E-03 0.  1.
         12    1    3    3    0    0 -0.93776991361E+01 -0.42506458494E+02 -0.68506477878E+01  0.44064403206E+02  0.00000000000E+00 0. -1.
</event>
<event>
 7    1  0.2294706E-015  0.9000771E+02  0.7816164E-02  0.1186339E+00
        -11   -1    0    0    0    0  0.00000000000E+00  0.00000000000E+00  0.45593999997E+02  0.45594000000E+02  0.51100000000E-03 0.  1.
         11   -1    0    0    0    0 -0.00000000000E+00 -0.00000000000E+00 -0.45593999997E+02  0.45594000000E+02  0.51100000000E-03 0. -1.
    9900012    2    1    2    0    0 -0.71494834691E+00 -0.13290106694E+00 -0.92966248117E+00  0.90007709290E+02  0.89999970252E+02 0.  0.
        -12    1    1    2    0    0  0.71494834691E+00  0.13290106694E+00  0.92966248117E+00  0.11802907105E+01  0.00000000000E+00 0.  1.
         11    1    3    3    0    0 -0.77012423267E+01 -0.54357060149E+00 -0.84440470419E+01  0.11441439292E+02  0.51100000000E-03 0. -1.
        -11    1    3    3    0    0  0.97294086978E+00 -0.18141436415E+02  0.38147082495E+02  0.42252316295E+02  0.51100000000E-03 0.  1.
         12    1    3    3    0    0  0.60133531100E+01  0.18552105949E+02 -0.30632697934E+02  0.36313953703E+02  0.00000000000E+00 0. -1.
</event>
<event>
 7    1  0.2294706E-015  0.9000777E+02  0.7816164E-02  0.1186339E+00
        -11   -1    0    0    0    0  0.00000000000E+00  0.00000000000E+00  0.45593999997E+02  0.45594000000E+02  0.51100000000E-03 0. -1.
         11   -1    0    0    0    0 -0.00000000000E+00 -0.00000000000E+00 -0.45593999997E+02  0.45594000000E+02  0.51100000000E-03 0.  1.
    9900012    2    1    2    0    0 -0.10550701101E+01  0.52197062807E+00 -0.85480808373E-01  0.90007774071E+02  0.90000035889E+02 0.  0.
        -12    1    1    2    0    0  0.10550701101E+01 -0.52197062807E+00  0.85480808373E-01  0.11802259286E+01  0.00000000000E+00 0.  1.
         11    1    3    3    0    0 -0.15091464876E+02 -0.30560137111E+02  0.54247924993E+01  0.34512355270E+02  0.51100000000E-03 0. -1.
        -11    1    3    3    0    0  0.33673499638E+01 -0.74237808735E+01 -0.12508755514E+02  0.14930523534E+02  0.51100000000E-03 0.  1.
        -12    1    3    3    0    0  0.10669044802E+02  0.38505888613E+02  0.69984822060E+01  0.40564895267E+02  0.00000000000E+00 0.  1.
</event>
<event>
 7    1  0.2294706E-015  0.9000798E+02  0.7816164E-02  0.1186339E+00
        -11   -1    0    0    0    0  0.00000000000E+00  0.00000000000E+00  0.45593999997E+02  0.45594000000E+02  0.51100000000E-03 0.  1.
         11   -1    0    0    0    0 -0.00000000000E+00 -0.00000000000E+00 -0.45593999997E+02  0.45594000000E+02  0.51100000000E-03 0. -1.
    9900012    2    1    2    0    0  0.13905079698E+00  0.11304038139E+01 -0.30870094196E+00  0.90007981281E+02  0.90000245833E+02 0.  0.
        -12    1    1    2    0    0 -0.13905079698E+00 -0.11304038139E+01  0.30870094196E+00  0.11800187195E+01  0.00000000000E+00 0.  1.
         11    1    3    3    0    0 -0.22221061327E+01  0.77003783429E+01 -0.51444540962E+01  0.95236017607E+01  0.51100000000E-03 0. -1.
        -11    1    3    3    0    0  0.20845675923E+02  0.48793674543E+01  0.36356511826E+02  0.42191780999E+02  0.51100000000E-03 0.  1.
         12    1    3    3    0    0 -0.18484518994E+02 -0.11449341983E+02 -0.31520758671E+02  0.38292598521E+02  0.00000000000E+00 0. -1.
</event>
<event>
 7    1  0.2294706E-015  0.9000773E+02  0.7816164E-02  0.1186339E+00
        -11   -1    0    0    0    0  0.00000000000E+00  0.00000000000E+00  0.45593999997E+02  0.45594000000E+02  0.51100000000E-03 0.  1.
         11   -1    0    0    0    0 -0.00000000000E+00 -0.00000000000E+00 -0.45593999997E+02  0.45594000000E+02  0.51100000000E-03 0. -1.
    9900012    2    1    2    0    0  0.68533192517E+00 -0.88874203883E+00  0.36535521303E+00  0.90007734483E+02  0.89999995778E+02 0.  0.
        -12    1    1    2    0    0 -0.68533192517E+00  0.88874203883E+00 -0.36535521303E+00  0.11802655171E+01  0.00000000000E+00 0.  1.
         11    1    3    3    0    0  0.20352063032E+01  0.22903143306E+02 -0.27567978495E+02  0.35898321361E+02  0.51100000000E-03 0. -1.
        -11    1    3    3    0    0  0.71861456829E+01  0.42688884011E+01 -0.52118448264E+01  0.98502499822E+01  0.51100000000E-03 0.  1.
        -12    1    3    3    0    0 -0.85360200610E+01 -0.28060773746E+02  0.33145178534E+02  0.44259163139E+02  0.00000000000E+00 0.  1.
</event>
<event>
 7    1  0.2294706E-015  0.9000773E+02  0.7816164E-02  0.1186339E+00
        -11   -1    0    0    0    0  0.00000000000E+00  0.00000000000E+00  0.45593999997E+02  0.45594000000E+02  0.51100000000E-03 0.  1.
         11   -1    0    0    0    0 -0.00000000000E+00 -0.00000000000E+00 -0.45593999997E+02  0.45594000000E+02  0.51100000000E-03 0. -1.
    9900012    2    1    2    0    0  0.91506628562E+00 -0.25339964965E+00 -0.70105793928E+00  0.90007728877E+02  0.89999990098E+02 0.  0.
        -12    1    1    2    0    0 -0.91506628562E+00  0.25339964965E+00  0.70105793928E+00  0.11802711230E+01  0.00000000000E+00 0.  1.
         11    1    3    3    0    0  0.20893553834E+02  0.13001355793E+02 -0.35061093964E+02  0.42835220957E+02  0.51100000000E-03 0. -1.
        -11    1    3    3    0    0 -0.12858587065E+01 -0.57760546713E+01 -0.14484839262E+01  0.60921544731E+01  0.51100000000E-03 0.  1.
        -12    1    3    3    0    0 -0.18692628842E+02 -0.74787007711E+01  0.35808519951E+02  0.41080353447E+02  0.00000000000E+00 0.  1.
</event>
<event>
 7    1  0.2294706E-015  0.9000753E+02  0.7816164E-02  0.1186339E+00
        -11   -1    0    0    0    0  0.00000000000E+00  0.00000000000E+00  0.45593999997E+02  0.45594000000E+02  0.51100000000E-03 0.  1.
         11   -1    0    0    0    0 -0.00000000000E+00 -0.00000000000E+00 -0.45593999997E+02  0.45594000000E+02  0.51100000000E-03 0. -1.
    9900012    2    1    2    0    0 -0.98726668701E+00  0.61126768204E+00  0.21253421047E+00  0.90007527857E+02  0.89999786424E+02 0.  0.
        -12    1    1    2    0    0  0.98726668701E+00 -0.61126768204E+00 -0.21253421047E+00  0.11804721433E+01  0.00000000000E+00 0.  1.
         11    1    3    3    0    0 -0.33088846687E+02  0.47855683032E+01 -0.26414364337E+02  0.42608591653E+02  0.51100000000E-03 0. -1.
        -11    1    3    3    0    0  0.70129047065E+01  0.70424139643E+01  0.12943757492E+01  0.10022566323E+02  0.51100000000E-03 0.  1.
        -12    1    3    3    0    0  0.25088675293E+02 -0.11216714585E+02  0.25332522799E+02  0.37376369880E+02  0.00000000000E+00 0.  1.
</event>
<event>
 7    1  0.2294706E-015  0.9000782E+02  0.7816164E-02  0.1186339E+00
        -11   -1    0    0    0    0  0.00000000000E+00  0.00000000000E+00  0.45593999997E+02  0.45594000000E+02  0.51100000000E-03 0.  1.
         11   -1    0    0    0    0 -0.00000000000E+00 -0.00000000000E+00 -0.45593999997E+02  0.45594000000E+02  0.51100000000E-03 0. -1.
    9900012    2    1    2    0    0 -0.46051615028E+00  0.78276821604E+00 -0.75367876657E+00  0.90007816587E+02  0.90000078966E+02 0.  0.
        -12    1    1    2    0    0  0.46051615028E+00 -0.78276821604E+00  0.75367876657E+00  0.11801834128E+01  0.00000000000E+00 0.  1.
         11    1    3    3    0    0  0.23408285906E+02  0.28175473196E+02 -0.69657232883E+01  0.37287081410E+02  0.51100000000E-03 0. -1.
        -11    1    3    3    0    0 -0.92802230477E+00  0.54858226685E+01 -0.83783465619E+01  0.10057443369E+02  0.51100000000E-03 0.  1.
        -12    1    3    3    0    0 -0.22940779752E+02 -0.32878527649E+02  0.14590391084E+02  0.42663291808E+02  0.00000000000E+00 0.  1.
</event>
<event>
 7    1  0.2294706E-015  0.9000869E+02  0.7816164E-02  0.1186337E+00
        -11   -1    0    0    0    0  0.00000000000E+00  0.00000000000E+00  0.45593999997E+02  0.45594000000E+02  0.51100000000E-03 0.  1.
         11   -1    0    0    0    0 -0.00000000000E+00 -0.00000000000E+00 -0.45593999997E+02  0.45594000000E+02  0.51100000000E-03 0. -1.
    9900012    2    1    2    0    0 -0.12844098170E-02 -0.12139427085E+00 -0.11730447873E+01  0.90008689909E+02  0.90000963810E+02 0.  0.
        -12    1    1    2    0    0  0.12844098170E-02  0.12139427085E+00  0.11730447873E+01  0.11793100915E+01  0.00000000000E+00 0.  1.
         11    1    3    3    0    0  0.16188303244E+02  0.19600295586E+01 -0.23396496290E+01  0.16473519309E+02  0.51100000000E-03 0. -1.
        -11    1    3    3    0    0  0.18784947778E+02 -0.19925767571E+02  0.15820641331E+02  0.31625988818E+02  0.51100000000E-03 0.  1.
         12    1    3    3    0    0 -0.34974535431E+02  0.17844343741E+02 -0.14654036489E+02  0.41909181782E+02  0.00000000000E+00 0. -1.
</event>
<event>
 7    1  0.2294706E-015  0.9000853E+02  0.7816164E-02  0.1186337E+00
        -11   -1    0    0    0    0  0.00000000000E+00  0.00000000000E+00  0.45593999997E+02  0.45594000000E+02  0.51100000000E-03 0.  1.
         11   -1    0    0    0    0 -0.00000000000E+00 -0.00000000000E+00 -0.45593999997E+02  0.45594000000E+02  0.51100000000E-03 0. -1.
    9900012    2    1    2    0    0  0.68766038183E+00 -0.25269128971E+00 -0.92435380449E+00  0.90008525691E+02  0.90000797427E+02 0.  0.
        -12    1    1    2    0    0 -0.68766038183E+00  0.25269128971E+00  0.92435380449E+00  0.11794743085E+01  0.00000000000E+00 0.  1.
         11    1    3    3    0    0 -0.16158556720E+01 -0.80414140066E+00  0.12294117734E+02  0.12425898924E+02  0.51100000000E-03 0. -1.
        -11    1    3    3    0    0 -0.83800544039E+01  0.16689577224E+02  0.27069765046E+02  0.32886767546E+02  0.51100000000E-03 0.  1.
         12    1    3    3    0    0  0.10683570458E+02 -0.16138127113E+02 -0.40288236584E+02  0.44695859221E+02  0.00000000000E+00 0. -1.
</event>
<event>
 7    1  0.2294706E-015  0.9000786E+02  0.7816164E-02  0.1186339E+00
        -11   -1    0    0    0    0  0.00000000000E+00  0.00000000000E+00  0.45593999997E+02  0.45594000000E+02  0.51100000000E-03 0.  1.
         11   -1    0    0    0    0 -0.00000000000E+00 -0.00000000000E+00 -0.45593999997E+02  0.45594000000E+02  0.51100000000E-03 0. -1.
    9900012    2    1    2    0    0 -0.79717212752E+00  0.61396329878E+00 -0.61668054725E+00  0.90007860504E+02  0.90000123462E+02 0.  0.
        -12    1    1    2    0    0  0.79717212752E+00 -0.61396329878E+00  0.61668054725E+00  0.11801394962E+01  0.00000000000E+00 0.  1.
         11    1    3    3    0    0 -0.27970129082E+02  0.27668370403E+01 -0.22415353788E+02  0.35950404640E+02  0.51100000000E-03 0. -1.
        -11    1    3    3    0    0 -0.16952221825E+01 -0.81997383393E+01 -0.83891288534E+01  0.11852719952E+02  0.51100000000E-03 0.  1.
        -12    1    3    3    0    0  0.28868179137E+02  0.60468645978E+01  0.30187802094E+02  0.42204735912E+02  0.00000000000E+00 0.  1.
</event>
<event>
 7    1  0.2294706E-015  0.9000770E+02  0.7816164E-02  0.1186339E+00
        -11   -1    0    0    0    0  0.00000000000E+00  0.00000000000E+00  0.45593999997E+02  0.45594000000E+02  0.51100000000E-03 0.  1.
         11   -1    0    0    0    0 -0.00000000000E+00 -0.00000000000E+00 -0.45593999997E+02  0.45594000000E+02  0.51100000000E-03 0. -1.
    9900012    2    1    2    0    0  0.99870749887E+00 -0.58401482085E+00  0.23372204669E+00  0.90007696660E+02  0.89999957456E+02 0.  0.
        -12    1    1    2    0    0 -0.99870749887E+00  0.58401482085E+00 -0.23372204669E+00  0.11803033400E+01  0.00000000000E+00 0.  1.
         11    1    3    3    0    0 -0.21463668119E+02  0.17116146515E+02 -0.24540620180E+02  0.36822459990E+02  0.51100000000E-03 0. -1.
        -11    1    3    3    0    0 -0.78095162495E+01  0.29792943112E+01 -0.93119202204E+00  0.84102233910E+01  0.51100000000E-03 0.  1.
        -12    1    3    3    0    0  0.30271891867E+02 -0.20679455647E+02  0.25705534249E+02  0.44775013279E+02  0.00000000000E+00 0.  1.
</event>
<event>
 7    1  0.2294706E-015  0.9000776E+02  0.7816164E-02  0.1186339E+00
        -11   -1    0    0    0    0  0.00000000000E+00  0.00000000000E+00  0.45593999997E+02  0.45594000000E+02  0.51100000000E-03 0. -1.
         11   -1    0    0    0    0 -0.00000000000E+00 -0.00000000000E+00 -0.45593999997E+02  0.45594000000E+02  0.51100000000E-03 0.  1.
    9900012    2    1    2    0    0 -0.11773639993E+01  0.72405269658E-01  0.39277615860E-01  0.90007757974E+02  0.90000019579E+02 0.  0.
        -12    1    1    2    0    0  0.11773639993E+01 -0.72405269658E-01 -0.39277615860E-01  0.11802420264E+01  0.00000000000E+00 0.  1.
         11    1    3    3    0    0 -0.80148460213E+00  0.12627286062E+02  0.63688740026E+00  0.12668715668E+02  0.51100000000E-03 0. -1.
        -11    1    3    3    0    0 -0.11220904043E+02 -0.40520893304E+01 -0.36755946645E+02  0.38643598817E+02  0.51100000000E-03 0.  1.
         12    1    3    3    0    0  0.10845024645E+02 -0.85027914618E+01  0.36158336861E+02  0.38695443488E+02  0.00000000000E+00 0. -1.
</event>
<event>
 7    1  0.2294706E-015  0.9000792E+02  0.7816164E-02  0.1186339E+00
        -11   -1    0    0    0    0  0.00000000000E+00  0.00000000000E+00  0.45593999997E+02  0.45594000000E+02  0.51100000000E-03 0. -1.
         11   -1    0    0    0    0 -0.00000000000E+00 -0.00000000000E+00 -0.45593999997E+02  0.45594000000E+02  0.51100000000E-03 0.  1.
    9900012    2    1    2    0    0  0.29647741765E+00  0.10328218789E+01  0.48781328039E+00  0.90007923016E+02  0.90000186799E+02 0.  0.
        -12    1    1    2    0    0 -0.29647741765E+00 -0.10328218789E+01 -0.48781328039E+00  0.11800769845E+01  0.00000000000E+00 0.  1.
         11    1    3    3    0    0 -0.35829829550E+02 -0.41597752649E+00  0.15331495307E+02  0.38974407904E+02  0.51100000000E-03 0. -1.
        -11    1    3    3    0    0  0.23813853305E+01  0.12866211240E+02 -0.24297519966E+01  0.13308421499E+02  0.51100000000E-03 0.  1.
        -12    1    3    3    0    0  0.33744921637E+02 -0.11417411834E+02 -0.12413930030E+02  0.37725093613E+02  0.00000000000E+00 0.  1.
</event>
<event>
 7    1  0.2294706E-015  0.9000769E+02  0.7816164E-02  0.1186339E+00
        -11   -1    0    0    0    0  0.00000000000E+00  0.00000000000E+00  0.45593999997E+02  0.45594000000E+02  0.51100000000E-03 0.  1.
         11   -1    0    0    0    0 -0.00000000000E+00 -0.00000000000E+00 -0.45593999997E+02  0.45594000000E+02  0.51100000000E-03 0. -1.
    9900012    2    1    2    0    0  0.99624826466E+00  0.43686689932E+00 -0.45799364958E+00  0.90007694330E+02  0.89999955095E+02 0.  0.
        -12    1    1    2    0    0 -0.99624826466E+00 -0.43686689932E+00  0.45799364958E+00  0.11803056704E+01  0.00000000000E+00 0.  1.
         11    1    3    3    0    0 -0.12630802867E+00 -0.42603761815E+01  0.95692383038E+01  0.10475546807E+02  0.51100000000E-03 0. -1.
        -11    1    3    3    0    0  0.17345346086E+02  0.25995013792E+01  0.30859033873E+02  0.35495047684E+02  0.51100000000E-03 0.  1.
         12    1    3    3    0    0 -0.16222789793E+02  0.20977417016E+01 -0.40886265827E+02  0.44037099838E+02  0.00000000000E+00 0. -1.
</event>
<event>
 7    1  0.2294706E-015  0.9000776E+02  0.7816164E-02  0.1186339E+00
        -11   -1    0    0    0    0  0.00000000000E+00  0.00000000000E+00  0.45593999997E+02  0.45594000000E+02  0.51100000000E-03 0. -1.
         11   -1    0    0    0    0 -0.00000000000E+00 -0.00000000000E+00 -0.45593999997E+02  0.45594000000E+02  0.51100000000E-03 0.  1.
    9900012    2    1    2    0    0 -0.16726360284E+00 -0.92280989317E+00 -0.71651939395E+00  0.90007764746E+02  0.90000026441E+02 0.  0.
        -12    1    1    2    0    0  0.16726360284E+00  0.92280989317E+00  0.71651939395E+00  0.11802352535E+01  0.00000000000E+00 0.  1.
         11    1    3    3    0    0  0.83654014323E+01  0.44692092693E+01 -0.28031709940E+01  0.98899717138E+01  0.51100000000E-03 0. -1.
        -11    1    3    3    0    0  0.19776688832E+02  0.28930611325E+02  0.55970358188E+01  0.35488371377E+02  0.51100000000E-03 0.  1.
         12    1    3    3    0    0 -0.28309353867E+02 -0.34322630488E+02 -0.35103842187E+01  0.44629421656E+02  0.00000000000E+00 0. -1.
</event>
<event>
 7    1  0.2294706E-015  0.9000770E+02  0.7816164E-02  0.1186339E+00
        -11   -1    0    0    0    0  0.00000000000E+00  0.00000000000E+00  0.45593999997E+02  0.45594000000E+02  0.51100000000E-03 0.  1.
         11   -1    0    0    0    0 -0.00000000000E+00 -0.00000000000E+00 -0.45593999997E+02  0.45594000000E+02  0.51100000000E-03 0. -1.
    9900012    2    1    2    0    0  0.10240383702E+01  0.50540202030E+00 -0.29836957395E+00  0.90007699111E+02  0.89999959939E+02 0.  0.
        -12    1    1    2    0    0 -0.10240383702E+01 -0.50540202030E+00  0.29836957395E+00  0.11803008889E+01  0.00000000000E+00 0.  1.
         11    1    3    3    0    0 -0.10711897496E+02 -0.33461646467E+01  0.36851560240E+01  0.11811940611E+02  0.51100000000E-03 0. -1.
        -11    1    3    3    0    0  0.21652989331E+02  0.37308336272E+02 -0.37513082461E+01  0.43299378935E+02  0.51100000000E-03 0.  1.
         12    1    3    3    0    0 -0.99170534643E+01 -0.33456769605E+02 -0.23221735189E+00  0.34896379565E+02  0.00000000000E+00 0. -1.
</event>
<event>
 7    1  0.2640571E-015  0.9000779E+02  0.7816164E-02  0.1186339E+00
        -11   -1    0    0    0    0  0.00000000000E+00  0.00000000000E+00  0.45593999997E+02  0.45594000000E+02  0.51100000000E-03 0.  1.
         11   -1    0    0    0    0 -0.00000000000E+00 -0.00000000000E+00 -0.45593999997E+02  0.45594000000E+02  0.51100000000E-03 0. -1.
    9900012    2    1    2    0    0 -0.89314003270E+00  0.47372878954E+00 -0.60892370555E+00  0.90007785544E+02  0.90000047513E+02 0.  0.
        -12    1    1    2    0    0  0.89314003270E+00 -0.47372878954E+00  0.60892370555E+00  0.11802144565E+01  0.00000000000E+00 0.  1.
         11    1    3    3    0    0 -0.59175778318E+01  0.12657779125E+02 -0.36460439079E+02  0.39046135761E+02  0.51100000000E-03 0. -1.
        -11    1    3    3    0    0 -0.10433931465E+00  0.89215538166E+01 -0.14117263942E+00  0.89232807403E+01  0.51100000000E-03 0.  1.
        -12    1    3    3    0    0  0.51287771137E+01 -0.21105604152E+02  0.35992688013E+02  0.42038369042E+02  0.00000000000E+00 0.  1.
</event>
<event>
 7    1  0.2294706E-015  0.9000774E+02  0.7816164E-02  0.1186339E+00
        -11   -1    0    0    0    0  0.00000000000E+00  0.00000000000E+00  0.45593999997E+02  0.45594000000E+02  0.51100000000E-03 0.  1.
         11   -1    0    0    0    0 -0.00000000000E+00 -0.00000000000E+00 -0.45593999997E+02  0.45594000000E+02  0.51100000000E-03 0. -1.
    9900012    2    1    2    0    0 -0.43226945367E+00 -0.85037633496E-01 -0.10949586017E+01  0.90007736208E+02  0.89999997526E+02 0.  0.
        -12    1    1    2    0    0  0.43226945367E+00  0.85037633496E-01  0.10949586017E+01  0.11802637922E+01  0.00000000000E+00 0.  1.
         11    1    3    3    0    0  0.32140862742E+02  0.16552919479E+02  0.13371857809E+01  0.36177648723E+02  0.51100000000E-03 0. -1.
        -11    1    3    3    0    0 -0.18061682467E+01  0.85796177701E+01  0.88727842646E+01  0.12473908196E+02  0.51100000000E-03 0.  1.
        -12    1    3    3    0    0 -0.30766963949E+02 -0.25217574883E+02 -0.11304928647E+02  0.41356179288E+02  0.00000000000E+00 0.  1.
</event>
<event>
 7    1  0.2294706E-015  0.9000775E+02  0.7816164E-02  0.1186339E+00
        -11   -1    0    0    0    0  0.00000000000E+00  0.00000000000E+00  0.45593999997E+02  0.45594000000E+02  0.51100000000E-03 0. -1.
         11   -1    0    0    0    0 -0.00000000000E+00 -0.00000000000E+00 -0.45593999997E+02  0.45594000000E+02  0.51100000000E-03 0.  1.
    9900012    2    1    2    0    0 -0.90380733480E+00 -0.60338149231E+00  0.46050101170E+00  0.90007746593E+02  0.90000008048E+02 0.  0.
        -12    1    1    2    0    0  0.90380733480E+00  0.60338149231E+00 -0.46050101170E+00  0.11802534073E+01  0.00000000000E+00 0.  1.
         11    1    3    3    0    0  0.20642622454E+02 -0.27023099601E+01 -0.30360566928E+02  0.36812828814E+02  0.51100000000E-03 0. -1.
        -11    1    3    3    0    0  0.40869396725E+01  0.56696613429E+01 -0.52912162144E+01  0.87661339779E+01  0.51100000000E-03 0.  1.
        -12    1    3    3    0    0 -0.25633369461E+02 -0.35707328750E+01  0.36112284154E+02  0.44428783800E+02  0.00000000000E+00 0.  1.
</event>
<event>
 7    1  0.2294706E-015  0.9000696E+02  0.7816164E-02  0.1186341E+00
        -11   -1    0    0    0    0  0.00000000000E+00  0.00000000000E+00  0.45593999997E+02  0.45594000000E+02  0.51100000000E-03 0.  1.
         11   -1    0    0    0    0 -0.00000000000E+00 -0.00000000000E+00 -0.45593999997E+02  0.45594000000E+02  0.51100000000E-03 0. -1.
    9900012    2    1    2    0    0  0.70518541225E+00  0.94335658587E+00 -0.87400214426E-01  0.90006963628E+02  0.89999214745E+02 0.  0.
        -12    1    1    2    0    0 -0.70518541225E+00 -0.94335658587E+00  0.87400214426E-01  0.11810363717E+01  0.00000000000E+00 0.  1.
         11    1    3    3    0    0 -0.52120261021E+01  0.44483571789E+01  0.78747821237E+01  0.10438644138E+02  0.51100000000E-03 0. -1.
        -11    1    3    3    0    0  0.14287948850E+02  0.30696767336E+01  0.33612878623E+02  0.36652339723E+02  0.51100000000E-03 0.  1.
         12    1    3    3    0    0 -0.83707373359E+01 -0.65746773265E+01 -0.41575060961E+02  0.42915979767E+02  0.00000000000E+00 0. -1.
</event>
<event>
 7    1  0.2294706E-015  0.9000708E+02  0.7816164E-02  0.1186340E+00
        -11   -1    0    0    0    0  0.00000000000E+00  0.00000000000E+00  0.45593999997E+02  0.45594000000E+02  0.51100000000E-03 0.  1.
         11   -1    0    0    0    0 -0.00000000000E+00 -0.00000000000E+00 -0.45593999997E+02  0.45594000000E+02  0.51100000000E-03 0. -1.
    9900012    2    1    2    0    0  0.62699406519E+00  0.11802415107E-02 -0.10007291418E+01  0.90007075885E+02  0.89999328484E+02 0.  0.
        -12    1    1    2    0    0 -0.62699406519E+00 -0.11802415107E-02  0.10007291418E+01  0.11809241152E+01  0.00000000000E+00 0.  1.
         11    1    3    3    0    0 -0.19029239125E+01  0.28334147536E+01  0.76960783849E+01  0.84189655748E+01  0.51100000000E-03 0. -1.
        -11    1    3    3    0    0 -0.31506678059E+02 -0.91975580230E+01  0.18392739728E+02  0.37623911424E+02  0.51100000000E-03 0.  1.
         12    1    3    3    0    0  0.34036596037E+02  0.63653235109E+01 -0.27089547255E+02  0.43964198885E+02  0.00000000000E+00 0. -1.
</event>
<event>
 7    1  0.2294706E-015  0.9000771E+02  0.7816164E-02  0.1186339E+00
        -11   -1    0    0    0    0  0.00000000000E+00  0.00000000000E+00  0.45593999997E+02  0.45594000000E+02  0.51100000000E-03 0.  1.
         11   -1    0    0    0    0 -0.00000000000E+00 -0.00000000000E+00 -0.45593999997E+02  0.45594000000E+02  0.51100000000E-03 0. -1.
    9900012    2    1    2    0    0 -0.89117072490E+00  0.40026125066E+00 -0.66232838894E+00  0.90007714770E+02  0.89999975805E+02 0.  0.
        -12    1    1    2    0    0  0.89117072490E+00 -0.40026125066E+00  0.66232838894E+00  0.11802852301E+01  0.00000000000E+00 0.  1.
         11    1    3    3    0    0 -0.16410550887E+01 -0.65957938749E+00  0.91270059406E+01  0.92967921604E+01  0.51100000000E-03 0. -1.
        -11    1    3    3    0    0  0.67371049635E+01 -0.26817646291E+02  0.23918832132E+02  0.36560706594E+02  0.51100000000E-03 0.  1.
         12    1    3    3    0    0 -0.59872205997E+01  0.27877486929E+02 -0.33708166461E+02  0.44150216015E+02  0.00000000000E+00 0. -1.
</event>
<event>
 7    1  0.2294706E-015  0.9000761E+02  0.7816164E-02  0.1186339E+00
        -11   -1    0    0    0    0  0.00000000000E+00  0.00000000000E+00  0.45593999997E+02  0.45594000000E+02  0.51100000000E-03 0.  1.
         11   -1    0    0    0    0 -0.00000000000E+00 -0.00000000000E+00 -0.45593999997E+02  0.45594000000E+02  0.51100000000E-03 0. -1.
    9900012    2    1    2    0    0 -0.78262557538E+00 -0.86823651801E+00 -0.16426301866E+00  0.90007610326E+02  0.89999869983E+02 0.  0.
        -12    1    1    2    0    0  0.78262557538E+00  0.86823651801E+00  0.16426301866E+00  0.11803896737E+01  0.00000000000E+00 0.  1.
         11    1    3    3    0    0 -0.24272014109E+02  0.18090750685E+02 -0.17403023888E+02  0.34918063663E+02  0.51100000000E-03 0. -1.
        -11    1    3    3    0    0 -0.86080204870E+01 -0.35156395687E+01 -0.73120222278E+01  0.11828922504E+02  0.51100000000E-03 0.  1.
        -12    1    3    3    0    0  0.32097409020E+02 -0.15443347635E+02  0.24550783097E+02  0.43260624160E+02  0.00000000000E+00 0.  1.
</event>
<event>
 7    1  0.2294706E-015  0.9000773E+02  0.7816164E-02  0.1186339E+00
        -11   -1    0    0    0    0  0.00000000000E+00  0.00000000000E+00  0.45593999997E+02  0.45594000000E+02  0.51100000000E-03 0.  1.
         11   -1    0    0    0    0 -0.00000000000E+00 -0.00000000000E+00 -0.45593999997E+02  0.45594000000E+02  0.51100000000E-03 0. -1.
    9900012    2    1    2    0    0  0.34484842779E-01  0.99274357752E+00 -0.63741423618E+00  0.90007734808E+02  0.89999996107E+02 0.  0.
        -12    1    1    2    0    0 -0.34484842779E-01 -0.99274357752E+00  0.63741423618E+00  0.11802651921E+01  0.00000000000E+00 0.  1.
         11    1    3    3    0    0 -0.70412284583E+01  0.14531716114E+01  0.13856229879E+02  0.15610436018E+02  0.51100000000E-03 0. -1.
        -11    1    3    3    0    0  0.23430583781E+02  0.89895441865E+01  0.21955639412E+02  0.33344478752E+02  0.51100000000E-03 0.  1.
         12    1    3    3    0    0 -0.16354870479E+02 -0.94499722203E+01 -0.36449283528E+02  0.41052820038E+02  0.00000000000E+00 0. -1.
</event>
<event>
 7    1  0.2294706E-015  0.9000711E+02  0.7816164E-02  0.1186340E+00
        -11   -1    0    0    0    0  0.00000000000E+00  0.00000000000E+00  0.45593999997E+02  0.45594000000E+02  0.51100000000E-03 0.  1.
         11   -1    0    0    0    0 -0.00000000000E+00 -0.00000000000E+00 -0.45593999997E+02  0.45594000000E+02  0.51100000000E-03 0. -1.
    9900012    2    1    2    0    0 -0.71754452851E+00 -0.47964550193E+00 -0.80595481430E+00  0.90007113418E+02  0.89999366512E+02 0.  0.
        -12    1    1    2    0    0  0.71754452851E+00  0.47964550193E+00  0.80595481430E+00  0.11808865825E+01  0.00000000000E+00 0.  1.
         11    1    3    3    0    0 -0.14862410745E+02 -0.35010959391E+02 -0.19037482580E+02  0.42533331328E+02  0.51100000000E-03 0. -1.
        -11    1    3    3    0    0 -0.45704610485E+01  0.94215178519E+01 -0.13201896719E+01  0.10554478379E+02  0.51100000000E-03 0.  1.
        -12    1    3    3    0    0  0.18715327265E+02  0.25109796037E+02  0.19551717437E+02  0.36919303710E+02  0.00000000000E+00 0.  1.
</event>
<event>
 7    1  0.2294706E-015  0.9000776E+02  0.7816164E-02  0.1186339E+00
        -11   -1    0    0    0    0  0.00000000000E+00  0.00000000000E+00  0.45593999997E+02  0.45594000000E+02  0.51100000000E-03 0.  1.
         11   -1    0    0    0    0 -0.00000000000E+00 -0.00000000000E+00 -0.45593999997E+02  0.45594000000E+02  0.51100000000E-03 0. -1.
    9900012    2    1    2    0    0  0.11116553969E+01 -0.17146324151E+00  0.35748299131E+00  0.90007757883E+02  0.90000019487E+02 0.  0.
        -12    1    1    2    0    0 -0.11116553969E+01  0.17146324151E+00 -0.35748299131E+00  0.11802421166E+01  0.00000000000E+00 0.  1.
         11    1    3    3    0    0 -0.28791209897E+02  0.11752633427E+02 -0.21381388982E+02  0.37738865310E+02  0.51100000000E-03 0. -1.
        -11    1    3    3    0    0 -0.76658599318E+00 -0.70512469793E+01 -0.69940886857E+01  0.99611753750E+01  0.51100000000E-03 0.  1.
        -12    1    3    3    0    0  0.30669451287E+02 -0.48728496892E+01  0.28732960659E+02  0.42307717199E+02  0.00000000000E+00 0.  1.
</event>
<event>
 7    1  0.2294706E-015  0.9000781E+02  0.7816164E-02  0.1186339E+00
        -11   -1    0    0    0    0  0.00000000000E+00  0.00000000000E+00  0.45593999997E+02  0.45594000000E+02  0.51100000000E-03 0. -1.
         11   -1    0    0    0    0 -0.00000000000E+00 -0.00000000000E+00 -0.45593999997E+02  0.45594000000E+02  0.51100000000E-03 0.  1.
    9900012    2    1    2    0    0 -0.15146107243E+00 -0.10164658243E+01 -0.58026536702E+00  0.90007808861E+02  0.90000071138E+02 0.  0.
        -12    1    1    2    0    0  0.15146107243E+00  0.10164658243E+01  0.58026536702E+00  0.11801911390E+01  0.00000000000E+00 0.  1.
         11    1    3    3    0    0 -0.20965069765E+01 -0.90888409840E+01 -0.42265965525E+01  0.10240434103E+02  0.51100000000E-03 0. -1.
        -11    1    3    3    0    0 -0.13968904231E+02 -0.95203437452E+01 -0.32440938552E+02  0.36581166259E+02  0.51100000000E-03 0.  1.
         12    1    3    3    0    0  0.15913950135E+02  0.17592718905E+02  0.36087269738E+02  0.43186208499E+02  0.00000000000E+00 0. -1.
</event>
<event>
 7    1  0.2294706E-015  0.9000774E+02  0.7816164E-02  0.1186339E+00
        -11   -1    0    0    0    0  0.00000000000E+00  0.00000000000E+00  0.45593999997E+02  0.45594000000E+02  0.51100000000E-03 0.  1.
         11   -1    0    0    0    0 -0.00000000000E+00 -0.00000000000E+00 -0.45593999997E+02  0.45594000000E+02  0.51100000000E-03 0. -1.
    9900012    2    1    2    0    0 -0.11041473123E+01  0.32636386913E+00  0.25952370021E+00  0.90007742734E+02  0.90000004138E+02 0.  0.
        -12    1    1    2    0    0  0.11041473123E+01 -0.32636386913E+00 -0.25952370021E+00  0.11802572657E+01  0.00000000000E+00 0.  1.
         11    1    3    3    0    0 -0.71443068556E+01 -0.43566991605E+01 -0.20764731831E+01  0.86216987400E+01  0.51100000000E-03 0. -1.
        -11    1    3    3    0    0 -0.22227969691E+01 -0.72752693485E+01  0.40155364720E+02  0.40869593667E+02  0.51100000000E-03 0.  1.
         12    1    3    3    0    0  0.82629565124E+01  0.11958332378E+02 -0.37819367836E+02  0.40516450327E+02  0.00000000000E+00 0. -1.
</event>
<event>
 7    1  0.2294706E-015  0.9000764E+02  0.7816164E-02  0.1186339E+00
        -11   -1    0    0    0    0  0.00000000000E+00  0.00000000000E+00  0.45593999997E+02  0.45594000000E+02  0.51100000000E-03 0.  1.
         11   -1    0    0    0    0 -0.00000000000E+00 -0.00000000000E+00 -0.45593999997E+02  0.45594000000E+02  0.51100000000E-03 0. -1.
    9900012    2    1    2    0    0 -0.46939182855E+00 -0.35368268318E+00 -0.10236303910E+01  0.90007644415E+02  0.89999904521E+02 0.  0.
        -12    1    1    2    0    0  0.46939182855E+00  0.35368268318E+00  0.10236303910E+01  0.11803555847E+01  0.00000000000E+00 0.  1.
         11    1    3    3    0    0 -0.53579121488E+01 -0.43662439855E+01  0.75708695888E+01  0.10251310927E+02  0.51100000000E-03 0. -1.
        -11    1    3    3    0    0 -0.10072249575E+02  0.32258460968E+02  0.17897892009E+02  0.38241248072E+02  0.51100000000E-03 0.  1.
         12    1    3    3    0    0  0.14960769896E+02 -0.28245899666E+02 -0.26492391989E+02  0.41515085416E+02  0.00000000000E+00 0. -1.
</event>
<event>
 7    1  0.2294706E-015  0.9000776E+02  0.7816164E-02  0.1186339E+00
        -11   -1    0    0    0    0  0.00000000000E+00  0.00000000000E+00  0.45593999997E+02  0.45594000000E+02  0.51100000000E-03 0.  1.
         11   -1    0    0    0    0 -0.00000000000E+00 -0.00000000000E+00 -0.45593999997E+02  0.45594000000E+02  0.51100000000E-03 0. -1.
    9900012    2    1    2    0    0  0.10029139107E+01 -0.39219158348E+00 -0.48302041228E+00  0.90007763045E+02  0.90000024718E+02 0.  0.
        -12    1    1    2    0    0 -0.10029139107E+01  0.39219158348E+00  0.48302041228E+00  0.11802369546E+01  0.00000000000E+00 0.  1.
         11    1    3    3    0    0  0.37897163512E+01 -0.78222585918E+01 -0.16350188562E+01  0.88443748462E+01  0.51100000000E-03 0. -1.
        -11    1    3    3    0    0 -0.54987869300E+01 -0.28514280683E+02  0.24686235676E+02  0.38114447296E+02  0.51100000000E-03 0.  1.
         12    1    3    3    0    0  0.27119844895E+01  0.35944347691E+02 -0.23534237232E+02  0.43048940903E+02  0.00000000000E+00 0. -1.
</event>
<event>
 7    1  0.2294706E-015  0.9000768E+02  0.7816164E-02  0.1186339E+00
        -11   -1    0    0    0    0  0.00000000000E+00  0.00000000000E+00  0.45593999997E+02  0.45594000000E+02  0.51100000000E-03 0.  1.
         11   -1    0    0    0    0 -0.00000000000E+00 -0.00000000000E+00 -0.45593999997E+02  0.45594000000E+02  0.51100000000E-03 0. -1.
    9900012    2    1    2    0    0 -0.66483578259E+00 -0.58779804579E+00 -0.77822328060E+00  0.90007684519E+02  0.89999945155E+02 0.  0.
        -12    1    1    2    0    0  0.66483578259E+00  0.58779804579E+00  0.77822328060E+00  0.11803154811E+01  0.00000000000E+00 0.  1.
         11    1    3    3    0    0  0.29072459476E+02 -0.82772831675E+01 -0.11936617068E+02  0.32499294514E+02  0.51100000000E-03 0. -1.
        -11    1    3    3    0    0  0.40409379498E+01 -0.14847992860E+02  0.62390805330E+01  0.16604764306E+02  0.51100000000E-03 0.  1.
        -12    1    3    3    0    0 -0.33778233208E+02  0.22537477982E+02  0.49193132548E+01  0.40903625699E+02  0.00000000000E+00 0.  1.
</event>
<event>
 7    1  0.2294706E-015  0.9000772E+02  0.7816164E-02  0.1186339E+00
        -11   -1    0    0    0    0  0.00000000000E+00  0.00000000000E+00  0.45593999997E+02  0.45594000000E+02  0.51100000000E-03 0.  1.
         11   -1    0    0    0    0 -0.00000000000E+00 -0.00000000000E+00 -0.45593999997E+02  0.45594000000E+02  0.51100000000E-03 0. -1.
    9900012    2    1    2    0    0 -0.47590639759E+00 -0.53695945517E+00 -0.93715354892E+00  0.90007716504E+02  0.89999977562E+02 0.  0.
        -12    1    1    2    0    0  0.47590639759E+00  0.53695945517E+00  0.93715354892E+00  0.11802834956E+01  0.00000000000E+00 0.  1.
         11    1    3    3    0    0  0.21742355199E+02  0.26798298458E+02  0.15460008109E+02  0.37813895076E+02  0.51100000000E-03 0. -1.
        -11    1    3    3    0    0 -0.32644490427E+01  0.66290456758E+01  0.38633774553E+01  0.83382587959E+01  0.51100000000E-03 0.  1.
        -12    1    3    3    0    0 -0.18953812554E+02 -0.33964303589E+02 -0.20260539113E+02  0.43855562632E+02  0.00000000000E+00 0.  1.
</event>
<event>
 7    1  0.2294706E-015  0.9000802E+02  0.7816164E-02  0.1186338E+00
        -11   -1    0    0    0    0  0.00000000000E+00  0.00000000000E+00  0.45593999997E+02  0.45594000000E+02  0.51100000000E-03 0.  1.
         11   -1    0    0    0    0 -0.00000000000E+00 -0.00000000000E+00 -0.45593999997E+02  0.45594000000E+02  0.51100000000E-03 0. -1.
    9900012    2    1    2    0    0 -0.64716809614E+00  0.62735354436E+00 -0.76154550247E+00  0.90008020947E+02  0.90000286023E+02 0.  0.
        -12    1    1    2    0    0  0.64716809614E+00 -0.62735354436E+00  0.76154550247E+00  0.11799790535E+01  0.00000000000E+00 0.  1.
         11    1    3    3    0    0  0.55875655943E+01 -0.72741821353E+01 -0.41740739290E+00  0.91819847637E+01  0.51100000000E-03 0. -1.
        -11    1    3    3    0    0 -0.55815558353E+01  0.23413047211E+02  0.34853362256E+02  0.42356598141E+02  0.51100000000E-03 0.  1.
         12    1    3    3    0    0 -0.65317785511E+00 -0.15511511531E+02 -0.35197500366E+02  0.38469438042E+02  0.00000000000E+00 0. -1.
</event>
<event>
 7    1  0.2294706E-015  0.9000773E+02  0.7816164E-02  0.1186339E+00
        -11   -1    0    0    0    0  0.00000000000E+00  0.00000000000E+00  0.45593999997E+02  0.45594000000E+02  0.51100000000E-03 0.  1.
         11   -1    0    0    0    0 -0.00000000000E+00 -0.00000000000E+00 -0.45593999997E+02  0.45594000000E+02  0.51100000000E-03 0. -1.
    9900012    2    1    2    0    0 -0.15093675726E+00  0.11431425043E+01  0.25193056876E+00  0.90007734902E+02  0.89999996203E+02 0.  0.
        -12    1    1    2    0    0  0.15093675726E+00 -0.11431425043E+01 -0.25193056876E+00  0.11802650979E+01  0.00000000000E+00 0.  1.
         11    1    3    3    0    0 -0.20502423551E+02 -0.79868956954E+01 -0.80077698343E+01  0.23415043290E+02  0.51100000000E-03 0. -1.
        -11    1    3    3    0    0 -0.22326793557E+02  0.67063816470E+01  0.21490647535E+01  0.23411103026E+02  0.51100000000E-03 0.  1.
        -12    1    3    3    0    0  0.42678280350E+02  0.24236565527E+01  0.61106356496E+01  0.43181588586E+02  0.00000000000E+00 0.  1.
</event>
<event>
 7    1  0.2294706E-015  0.9000779E+02  0.7816164E-02  0.1186339E+00
        -11   -1    0    0    0    0  0.00000000000E+00  0.00000000000E+00  0.45593999997E+02  0.45594000000E+02  0.51100000000E-03 0.  1.
         11   -1    0    0    0    0 -0.00000000000E+00 -0.00000000000E+00 -0.45593999997E+02  0.45594000000E+02  0.51100000000E-03 0. -1.
    9900012    2    1    2    0    0  0.32838260853E+00  0.10676081797E+01  0.38113310026E+00  0.90007794593E+02  0.90000056681E+02 0.  0.
        -12    1    1    2    0    0 -0.32838260853E+00 -0.10676081797E+01 -0.38113310026E+00  0.11802054072E+01  0.00000000000E+00 0.  1.
         11    1    3    3    0    0 -0.35136324091E+01  0.69323343443E+01  0.49791731383E+01  0.92301157940E+01  0.51100000000E-03 0. -1.
        -11    1    3    3    0    0 -0.14061854222E+02 -0.39830755131E+02 -0.30686148964E+01  0.42351401348E+02  0.51100000000E-03 0.  1.
         12    1    3    3    0    0  0.17903869240E+02  0.33966028966E+02 -0.15294251416E+01  0.38426277451E+02  0.00000000000E+00 0. -1.
</event>
<event>
 7    1  0.2294706E-015  0.9000768E+02  0.7816164E-02  0.1186339E+00
        -11   -1    0    0    0    0  0.00000000000E+00  0.00000000000E+00  0.45593999997E+02  0.45594000000E+02  0.51100000000E-03 0.  1.
         11   -1    0    0    0    0 -0.00000000000E+00 -0.00000000000E+00 -0.45593999997E+02  0.45594000000E+02  0.51100000000E-03 0. -1.
    9900012    2    1    2    0    0 -0.11155028883E+01 -0.11603984353E+00  0.36788634011E+00  0.90007681273E+02  0.89999941865E+02 0.  0.
        -12    1    1    2    0    0  0.11155028883E+01  0.11603984353E+00 -0.36788634011E+00  0.11803187274E+01  0.00000000000E+00 0.  1.
         11    1    3    3    0    0 -0.20414223868E+02  0.37113080819E+02 -0.10071017872E+01  0.42369040092E+02  0.51100000000E-03 0. -1.
        -11    1    3    3    0    0 -0.34137978133E+01 -0.38828856304E+01  0.49197360295E+01  0.71368493882E+01  0.51100000000E-03 0.  1.
        -12    1    3    3    0    0  0.22712518793E+02 -0.33346235032E+02 -0.35447479022E+01  0.40501791793E+02  0.00000000000E+00 0.  1.
</event>
<event>
 7    1  0.2294706E-015  0.9000773E+02  0.7816164E-02  0.1186339E+00
        -11   -1    0    0    0    0  0.00000000000E+00  0.00000000000E+00  0.45593999997E+02  0.45594000000E+02  0.51100000000E-03 0. -1.
         11   -1    0    0    0    0 -0.00000000000E+00 -0.00000000000E+00 -0.45593999997E+02  0.45594000000E+02  0.51100000000E-03 0.  1.
    9900012    2    1    2    0    0  0.10013399467E+01 -0.11014577189E+00  0.61499023608E+00  0.90007734449E+02  0.89999995744E+02 0.  0.
        -12    1    1    2    0    0 -0.10013399467E+01  0.11014577189E+00 -0.61499023608E+00  0.11802655508E+01  0.00000000000E+00 0.  1.
         11    1    3    3    0    0  0.67007189075E+00  0.92747372148E+01 -0.13239073313E+00  0.92998534563E+01  0.51100000000E-03 0. -1.
        -11    1    3    3    0    0  0.22709733880E+02  0.28536856576E+02  0.31773203816E+01  0.36608462973E+02  0.51100000000E-03 0.  1.
         12    1    3    3    0    0 -0.22378465824E+02 -0.37921739563E+02 -0.24299394123E+01  0.44099418020E+02  0.00000000000E+00 0. -1.
</event>
<event>
 7    1  0.2294706E-015  0.9000767E+02  0.7816164E-02  0.1186339E+00
        -11   -1    0    0    0    0  0.00000000000E+00  0.00000000000E+00  0.45593999997E+02  0.45594000000E+02  0.51100000000E-03 0.  1.
         11   -1    0    0    0    0 -0.00000000000E+00 -0.00000000000E+00 -0.45593999997E+02  0.45594000000E+02  0.51100000000E-03 0. -1.
    9900012    2    1    2    0    0  0.30166333166E+00  0.98363141665E+00  0.57849195343E+00  0.90007667644E+02  0.89999928057E+02 0.  0.
        -12    1    1    2    0    0 -0.30166333166E+00 -0.98363141665E+00 -0.57849195343E+00  0.11803323556E+01  0.00000000000E+00 0.  1.
         11    1    3    3    0    0  0.35375766385E+02  0.37896555015E+01 -0.10848712352E+02  0.37195441873E+02  0.51100000000E-03 0. -1.
        -11    1    3    3    0    0  0.77081062836E+01 -0.41453707322E+01  0.16414091577E+01  0.89046743495E+01  0.51100000000E-03 0.  1.
        -12    1    3    3    0    0 -0.42782209337E+02  0.13393466473E+01  0.97857951473E+01  0.43907551422E+02  0.00000000000E+00 0.  1.
</event>
<event>
 7    1  0.2294706E-015  0.9000780E+02  0.7816164E-02  0.1186339E+00
        -11   -1    0    0    0    0  0.00000000000E+00  0.00000000000E+00  0.45593999997E+02  0.45594000000E+02  0.51100000000E-03 0.  1.
         11   -1    0    0    0    0 -0.00000000000E+00 -0.00000000000E+00 -0.45593999997E+02  0.45594000000E+02  0.51100000000E-03 0. -1.
    9900012    2    1    2    0    0 -0.87159095816E+00  0.59236228735E+00 -0.53132700701E+00  0.90007799904E+02  0.90000062063E+02 0.  0.
        -12    1    1    2    0    0  0.87159095816E+00 -0.59236228735E+00  0.53132700701E+00  0.11802000958E+01  0.00000000000E+00 0.  1.
         11    1    3    3    0    0  0.14056821117E+01  0.38998127471E+02  0.19067973986E+02  0.43432908269E+02  0.51100000000E-03 0. -1.
        -11    1    3    3    0    0 -0.19134091500E+00 -0.84220108813E+01  0.30297208521E+01  0.89524347153E+01  0.51100000000E-03 0.  1.
        -12    1    3    3    0    0 -0.20859321548E+01 -0.29983754303E+02 -0.22629021845E+02  0.37622456920E+02  0.00000000000E+00 0.  1.
</event>
<event>
 7    1  0.2294706E-015  0.9000745E+02  0.7816164E-02  0.1186340E+00
        -11   -1    0    0    0    0  0.00000000000E+00  0.00000000000E+00  0.45593999997E+02  0.45594000000E+02  0.51100000000E-03 0.  1.
         11   -1    0    0    0    0 -0.00000000000E+00 -0.00000000000E+00 -0.45593999997E+02  0.45594000000E+02  0.51100000000E-03 0. -1.
    9900012    2    1    2    0    0  0.73731845220E+00 -0.84271336545E+00 -0.37402365004E+00  0.90007450125E+02  0.89999707666E+02 0.  0.
        -12    1    1    2    0    0 -0.73731845220E+00  0.84271336545E+00  0.37402365004E+00  0.11805498749E+01  0.00000000000E+00 0.  1.
         11    1    3    3    0    0 -0.11416618946E+01 -0.68391116864E+01  0.52591164983E+01  0.87025942767E+01  0.51100000000E-03 0. -1.
        -11    1    3    3    0    0 -0.11703713482E+02  0.12178324593E+02  0.34540418390E+02  0.38449044227E+02  0.51100000000E-03 0.  1.
         12    1    3    3    0    0  0.13582693829E+02 -0.61819262720E+01 -0.40173558538E+02  0.42855811621E+02  0.00000000000E+00 0. -1.
</event>
<event>
 7    1  0.2294706E-015  0.9000643E+02  0.7816164E-02  0.1186342E+00
        -11   -1    0    0    0    0  0.00000000000E+00  0.00000000000E+00  0.45593999997E+02  0.45594000000E+02  0.51100000000E-03 0.  1.
         11   -1    0    0    0    0 -0.00000000000E+00 -0.00000000000E+00 -0.45593999997E+02  0.45594000000E+02  0.51100000000E-03 0. -1.
    9900012    2    1    2    0    0  0.10322543860E+01  0.56846901493E+00 -0.86094017770E-01  0.90006425492E+02  0.89998669499E+02 0.  0.
        -12    1    1    2    0    0 -0.10322543860E+01 -0.56846901493E+00  0.86094017770E-01  0.11815745081E+01  0.00000000000E+00 0.  1.
         11    1    3    3    0    0 -0.29147207265E+01 -0.36672926665E+02  0.26654847727E+01  0.36885009915E+02  0.51100000000E-03 0. -1.
        -11    1    3    3    0    0 -0.61677363592E+01 -0.51745322393E+01  0.40112837555E+01  0.89948403722E+01  0.51100000000E-03 0.  1.
        -12    1    3    3    0    0  0.10114711472E+02  0.42415927920E+02 -0.67628625460E+01  0.44126575204E+02  0.00000000000E+00 0.  1.
</event>
<event>
 7    1  0.2294706E-015  0.9000774E+02  0.7816164E-02  0.1186339E+00
        -11   -1    0    0    0    0  0.00000000000E+00  0.00000000000E+00  0.45593999997E+02  0.45594000000E+02  0.51100000000E-03 0.  1.
         11   -1    0    0    0    0 -0.00000000000E+00 -0.00000000000E+00 -0.45593999997E+02  0.45594000000E+02  0.51100000000E-03 0. -1.
    9900012    2    1    2    0    0  0.61502005583E+00 -0.14790833183E+00  0.99643687507E+00  0.90007740287E+02  0.90000001659E+02 0.  0.
        -12    1    1    2    0    0 -0.61502005583E+00  0.14790833183E+00 -0.99643687507E+00  0.11802597128E+01  0.00000000000E+00 0.  1.
         11    1    3    3    0    0  0.30764552553E+02  0.39598495050E+01  0.25237151107E+02  0.39988146970E+02  0.51100000000E-03 0. -1.
        -11    1    3    3    0    0  0.54853404958E+01  0.27768417786E+01 -0.84242001195E+01  0.10429139875E+02  0.51100000000E-03 0.  1.
        -12    1    3    3    0    0 -0.35634872993E+02 -0.68845996154E+01 -0.15816514112E+02  0.39590453442E+02  0.00000000000E+00 0.  1.
</event>
<event>
 7    1  0.2294706E-015  0.9000769E+02  0.7816164E-02  0.1186339E+00
        -11   -1    0    0    0    0  0.00000000000E+00  0.00000000000E+00  0.45593999997E+02  0.45594000000E+02  0.51100000000E-03 0.  1.
         11   -1    0    0    0    0 -0.00000000000E+00 -0.00000000000E+00 -0.45593999997E+02  0.45594000000E+02  0.51100000000E-03 0. -1.
    9900012    2    1    2    0    0 -0.58696855104E+00 -0.49053512582E+00 -0.89886889843E+00  0.90007694071E+02  0.89999954833E+02 0.  0.
        -12    1    1    2    0    0  0.58696855104E+00  0.49053512582E+00  0.89886889843E+00  0.11803059290E+01  0.00000000000E+00 0.  1.
         11    1    3    3    0    0 -0.99874747654E+01  0.17817137616E+01 -0.36654220336E+02  0.38032302386E+02  0.51100000000E-03 0. -1.
        -11    1    3    3    0    0 -0.74291803266E+00  0.49990945940E+01 -0.63175721263E+01  0.80904012134E+01  0.51100000000E-03 0.  1.
        -12    1    3    3    0    0  0.10143424247E+02 -0.72713434813E+01  0.42072923564E+02  0.43884990471E+02  0.00000000000E+00 0.  1.
</event>
<event>
 7    1  0.2294706E-015  0.9000769E+02  0.7816164E-02  0.1186339E+00
        -11   -1    0    0    0    0  0.00000000000E+00  0.00000000000E+00  0.45593999997E+02  0.45594000000E+02  0.51100000000E-03 0.  1.
         11   -1    0    0    0    0 -0.00000000000E+00 -0.00000000000E+00 -0.45593999997E+02  0.45594000000E+02  0.51100000000E-03 0. -1.
    9900012    2    1    2    0    0  0.42717274860E+00  0.82340153026E+00 -0.72983737927E+00  0.90007691042E+02  0.89999951763E+02 0.  0.
        -12    1    1    2    0    0 -0.42717274860E+00 -0.82340153026E+00  0.72983737927E+00  0.11803089584E+01  0.00000000000E+00 0.  1.
         11    1    3    3    0    0  0.28013876297E+02  0.86229267949E+01 -0.20684641104E+02  0.35874594207E+02  0.51100000000E-03 0. -1.
        -11    1    3    3    0    0  0.18127429771E+01  0.39228002815E+00 -0.10709887379E+02  0.10869296603E+02  0.51100000000E-03 0.  1.
        -12    1    3    3    0    0 -0.29399446526E+02 -0.81918052928E+01  0.30664691103E+02  0.43263800231E+02  0.00000000000E+00 0.  1.
</event>
<event>
 7    1  0.2294706E-015  0.9000779E+02  0.7816164E-02  0.1186339E+00
        -11   -1    0    0    0    0  0.00000000000E+00  0.00000000000E+00  0.45593999997E+02  0.45594000000E+02  0.51100000000E-03 0.  1.
         11   -1    0    0    0    0 -0.00000000000E+00 -0.00000000000E+00 -0.45593999997E+02  0.45594000000E+02  0.51100000000E-03 0. -1.
    9900012    2    1    2    0    0 -0.78123881594E+00  0.78981325322E+00 -0.39845173198E+00  0.90007786949E+02  0.90000048937E+02 0.  0.
        -12    1    1    2    0    0  0.78123881594E+00 -0.78981325322E+00  0.39845173198E+00  0.11802130508E+01  0.00000000000E+00 0.  1.
         11    1    3    3    0    0  0.28676892636E+01  0.13698522855E+02  0.23138383837E+02  0.27041782060E+02  0.51100000000E-03 0. -1.
        -11    1    3    3    0    0 -0.17925451260E+02  0.14439718395E+02  0.17387312055E+01  0.23083553814E+02  0.51100000000E-03 0.  1.
         12    1    3    3    0    0  0.14276523180E+02 -0.27348427997E+02 -0.25275566774E+02  0.39882451076E+02  0.00000000000E+00 0. -1.
</event>
<event>
 7    1  0.2294706E-015  0.9000772E+02  0.7816164E-02  0.1186339E+00
        -11   -1    0    0    0    0  0.00000000000E+00  0.00000000000E+00  0.45593999997E+02  0.45594000000E+02  0.51100000000E-03 0.  1.
         11   -1    0    0    0    0 -0.00000000000E+00 -0.00000000000E+00 -0.45593999997E+02  0.45594000000E+02  0.51100000000E-03 0. -1.
    9900012    2    1    2    0    0 -0.51336040656E+00 -0.10440584112E+01  0.19867900648E+00  0.90007716042E+02  0.89999977094E+02 0.  0.
        -12    1    1    2    0    0  0.51336040656E+00  0.10440584112E+01 -0.19867900648E+00  0.11802839576E+01  0.00000000000E+00 0.  1.
         11    1    3    3    0    0 -0.43223936225E+01  0.80316780271E+01  0.41475862218E+01  0.10019651206E+02  0.51100000000E-03 0. -1.
        -11    1    3    3    0    0  0.20204855135E+02  0.28429977110E+02 -0.14412666038E+02  0.37738901840E+02  0.51100000000E-03 0.  1.
         12    1    3    3    0    0 -0.16395821919E+02 -0.37505713549E+02  0.10463758823E+02  0.42249162996E+02  0.00000000000E+00 0. -1.
</event>
<event>
 7    1  0.2294706E-015  0.9000768E+02  0.7816164E-02  0.1186339E+00
        -11   -1    0    0    0    0  0.00000000000E+00  0.00000000000E+00  0.45593999997E+02  0.45594000000E+02  0.51100000000E-03 0.  1.
         11   -1    0    0    0    0 -0.00000000000E+00 -0.00000000000E+00 -0.45593999997E+02  0.45594000000E+02  0.51100000000E-03 0. -1.
    9900012    2    1    2    0    0  0.74324957398E+00 -0.47608591089E+00 -0.78362567241E+00  0.90007683552E+02  0.89999944175E+02 0.  0.
        -12    1    1    2    0    0 -0.74324957398E+00  0.47608591089E+00  0.78362567241E+00  0.11803164483E+01  0.00000000000E+00 0.  1.
         11    1    3    3    0    0 -0.25652341240E+02 -0.13616928424E+02 -0.22013729055E+02  0.36442662060E+02  0.51100000000E-03 0. -1.
        -11    1    3    3    0    0  0.81316940627E+00 -0.95305810540E+00 -0.10421313844E+02  0.10496349209E+02  0.51100000000E-03 0.  1.
        -12    1    3    3    0    0  0.25582421408E+02  0.14093900618E+02  0.31651417227E+02  0.43068672283E+02  0.00000000000E+00 0.  1.
</event>
<event>
 7    1  0.2294706E-015  0.9000792E+02  0.7816164E-02  0.1186339E+00
        -11   -1    0    0    0    0  0.00000000000E+00  0.00000000000E+00  0.45593999997E+02  0.45594000000E+02  0.51100000000E-03 0. -1.
         11   -1    0    0    0    0 -0.00000000000E+00 -0.00000000000E+00 -0.45593999997E+02  0.45594000000E+02  0.51100000000E-03 0.  1.
    9900012    2    1    2    0    0  0.83498645013E+00  0.78726485974E+00 -0.27494033464E+00  0.90007923511E+02  0.90000187302E+02 0.  0.
        -12    1    1    2    0    0 -0.83498645013E+00 -0.78726485974E+00  0.27494033464E+00  0.11800764886E+01  0.00000000000E+00 0.  1.
         11    1    3    3    0    0  0.38218076010E+02 -0.10224295351E+02  0.16238605011E+02  0.42765053984E+02  0.51100000000E-03 0. -1.
        -11    1    3    3    0    0 -0.72690588619E+01 -0.59224413396E+01 -0.12012828767E+01  0.94529153688E+01  0.51100000000E-03 0.  1.
        -12    1    3    3    0    0 -0.30114030698E+02  0.16934001550E+02 -0.15312262469E+02  0.37789954158E+02  0.00000000000E+00 0.  1.
</event>
<event>
 7    1  0.2294706E-015  0.9000771E+02  0.7816164E-02  0.1186339E+00
        -11   -1    0    0    0    0  0.00000000000E+00  0.00000000000E+00  0.45593999997E+02  0.45594000000E+02  0.51100000000E-03 0.  1.
         11   -1    0    0    0    0 -0.00000000000E+00 -0.00000000000E+00 -0.45593999997E+02  0.45594000000E+02  0.51100000000E-03 0. -1.
    9900012    2    1    2    0    0 -0.47522983490E+00  0.27203713252E+00 -0.10455812233E+01  0.90007708641E+02  0.89999969595E+02 0.  0.
        -12    1    1    2    0    0  0.47522983490E+00 -0.27203713252E+00  0.10455812233E+01  0.11802913589E+01  0.00000000000E+00 0.  1.
         11    1    3    3    0    0 -0.13765788030E+02 -0.15281791046E+01 -0.30768022325E+02  0.33741716754E+02  0.51100000000E-03 0. -1.
        -11    1    3    3    0    0  0.16027441278E+02 -0.42970792009E+01 -0.76704101524E+01  0.18280562238E+02  0.51100000000E-03 0.  1.
        -12    1    3    3    0    0 -0.27368830826E+01  0.60972954380E+01  0.37392851254E+02  0.37985429649E+02  0.00000000000E+00 0.  1.
</event>
<event>
 7    1  0.2294706E-015  0.9000772E+02  0.7816164E-02  0.1186339E+00
        -11   -1    0    0    0    0  0.00000000000E+00  0.00000000000E+00  0.45593999997E+02  0.45594000000E+02  0.51100000000E-03 0.  1.
         11   -1    0    0    0    0 -0.00000000000E+00 -0.00000000000E+00 -0.45593999997E+02  0.45594000000E+02  0.51100000000E-03 0. -1.
    9900012    2    1    2    0    0 -0.34981107349E+00 -0.63528021122E+00 -0.93118670893E+00  0.90007721465E+02  0.89999982588E+02 0.  0.
        -12    1    1    2    0    0  0.34981107349E+00  0.63528021122E+00  0.93118670893E+00  0.11802785353E+01  0.00000000000E+00 0.  1.
         11    1    3    3    0    0  0.35183712601E+02 -0.83086656571E+01 -0.12871131285E+02  0.38374387008E+02  0.51100000000E-03 0. -1.
        -11    1    3    3    0    0  0.55510624063E+01 -0.19498704644E+01  0.70067716503E+01  0.91493790984E+01  0.51100000000E-03 0.  1.
        -12    1    3    3    0    0 -0.41084586081E+02  0.96232559103E+01  0.49331729255E+01  0.42483955358E+02  0.00000000000E+00 0.  1.
</event>
<event>
 7    1  0.2294706E-015  0.9000754E+02  0.7816164E-02  0.1186339E+00
        -11   -1    0    0    0    0  0.00000000000E+00  0.00000000000E+00  0.45593999997E+02  0.45594000000E+02  0.51100000000E-03 0.  1.
         11   -1    0    0    0    0 -0.00000000000E+00 -0.00000000000E+00 -0.45593999997E+02  0.45594000000E+02  0.51100000000E-03 0. -1.
    9900012    2    1    2    0    0 -0.75154886566E+00 -0.80629850571E+00  0.42253809990E+00  0.90007541859E+02  0.89999800611E+02 0.  0.
        -12    1    1    2    0    0  0.75154886566E+00  0.80629850571E+00 -0.42253809990E+00  0.11804581414E+01  0.00000000000E+00 0.  1.
         11    1    3    3    0    0 -0.40872017075E+01 -0.77228365466E+01 -0.38381903820E+01  0.95435385362E+01  0.51100000000E-03 0. -1.
        -11    1    3    3    0    0  0.40261114237E+02 -0.51055082724E+01 -0.39399088898E+01  0.40774335270E+02  0.51100000000E-03 0.  1.
         12    1    3    3    0    0 -0.36925461396E+02  0.12022046313E+02  0.82006373717E+01  0.39689668053E+02  0.00000000000E+00 0. -1.
</event>
<event>
 7    1  0.2294706E-015  0.9000768E+02  0.7816164E-02  0.1186339E+00
        -11   -1    0    0    0    0  0.00000000000E+00  0.00000000000E+00  0.45593999997E+02  0.45594000000E+02  0.51100000000E-03 0.  1.
         11   -1    0    0    0    0 -0.00000000000E+00 -0.00000000000E+00 -0.45593999997E+02  0.45594000000E+02  0.51100000000E-03 0. -1.
    9900012    2    1    2    0    0  0.49072097551E-01 -0.41239369337E+00  0.11048444163E+01  0.90007678936E+02  0.89999939498E+02 0.  0.
        -12    1    1    2    0    0 -0.49072097551E-01  0.41239369337E+00 -0.11048444163E+01  0.11803210637E+01  0.00000000000E+00 0.  1.
         11    1    3    3    0    0  0.30479406440E+02  0.11457199917E+02 -0.20231509404E+02  0.38335044280E+02  0.51100000000E-03 0. -1.
        -11    1    3    3    0    0  0.52395477810E+01  0.53187658893E+01  0.34817932805E+01  0.82380225931E+01  0.51100000000E-03 0.  1.
        -12    1    3    3    0    0 -0.35669882124E+02 -0.17188359499E+02  0.17854560540E+02  0.43434612063E+02  0.00000000000E+00 0.  1.
</event>
<event>
 7    1  0.2294706E-015  0.9000777E+02  0.7816164E-02  0.1186339E+00
        -11   -1    0    0    0    0  0.00000000000E+00  0.00000000000E+00  0.45593999997E+02  0.45594000000E+02  0.51100000000E-03 0. -1.
         11   -1    0    0    0    0 -0.00000000000E+00 -0.00000000000E+00 -0.45593999997E+02  0.45594000000E+02  0.51100000000E-03 0.  1.
    9900012    2    1    2    0    0 -0.51663868542E+00  0.42764074657E+00  0.97115973450E+00  0.90007769781E+02  0.90000031542E+02 0.  0.
        -12    1    1    2    0    0  0.51663868542E+00 -0.42764074657E+00 -0.97115973450E+00  0.11802302188E+01  0.00000000000E+00 0.  1.
         11    1    3    3    0    0 -0.28818873600E+02 -0.29052741936E+02 -0.56729610548E+01  0.41313094498E+02  0.51100000000E-03 0. -1.
        -11    1    3    3    0    0  0.29860801140E+01 -0.73057328445E+00  0.86980756201E+01  0.92253418107E+01  0.51100000000E-03 0.  1.
        -12    1    3    3    0    0  0.25316154801E+02  0.30210955967E+02 -0.20539548308E+01  0.39469333473E+02  0.00000000000E+00 0.  1.
</event>
<event>
 7    1  0.2294706E-015  0.9000769E+02  0.7816164E-02  0.1186339E+00
        -11   -1    0    0    0    0  0.00000000000E+00  0.00000000000E+00  0.45593999997E+02  0.45594000000E+02  0.51100000000E-03 0.  1.
         11   -1    0    0    0    0 -0.00000000000E+00 -0.00000000000E+00 -0.45593999997E+02  0.45594000000E+02  0.51100000000E-03 0. -1.
    9900012    2    1    2    0    0  0.10224378557E+01  0.37706384449E-01 -0.58850094590E+00  0.90007688895E+02  0.89999949589E+02 0.  0.
        -12    1    1    2    0    0 -0.10224378557E+01 -0.37706384449E-01  0.58850094590E+00  0.11803111046E+01  0.00000000000E+00 0.  1.
         11    1    3    3    0    0 -0.12515807330E+02 -0.26468447193E+01 -0.21140654764E+02  0.24709886770E+02  0.51100000000E-03 0. -1.
        -11    1    3    3    0    0  0.51191014741E+01 -0.27049529062E+02  0.20618268445E+02  0.34394697503E+02  0.51100000000E-03 0.  1.
         12    1    3    3    0    0  0.84191437120E+01  0.29734080166E+02 -0.66114627048E-01  0.30903104622E+02  0.00000000000E+00 0. -1.
</event>
<event>
 7    1  0.2294706E-015  0.9000774E+02  0.7816164E-02  0.1186339E+00
        -11   -1    0    0    0    0  0.00000000000E+00  0.00000000000E+00  0.45593999997E+02  0.45594000000E+02  0.51100000000E-03 0. -1.
         11   -1    0    0    0    0 -0.00000000000E+00 -0.00000000000E+00 -0.45593999997E+02  0.45594000000E+02  0.51100000000E-03 0.  1.
    9900012    2    1    2    0    0 -0.80825043480E+00 -0.74689858694E+00 -0.42648493861E+00  0.90007739153E+02  0.90000000510E+02 0.  0.
        -12    1    1    2    0    0  0.80825043480E+00  0.74689858694E+00  0.42648493861E+00  0.11802608472E+01  0.00000000000E+00 0.  1.
         11    1    3    3    0    0 -0.86689006307E+01  0.37305383144E+01 -0.34458137040E+01  0.10046909306E+02  0.51100000000E-03 0. -1.
        -11    1    3    3    0    0 -0.25958646826E+02  0.19088885044E+02 -0.14296816737E+02  0.35251040358E+02  0.51100000000E-03 0.  1.
         12    1    3    3    0    0  0.33819297022E+02 -0.23566321945E+02  0.17316145502E+02  0.44709789489E+02  0.00000000000E+00 0. -1.
</event>
<event>
 7    1  0.2294706E-015  0.9000775E+02  0.7816164E-02  0.1186339E+00
        -11   -1    0    0    0    0  0.00000000000E+00  0.00000000000E+00  0.45593999997E+02  0.45594000000E+02  0.51100000000E-03 0.  1.
         11   -1    0    0    0    0 -0.00000000000E+00 -0.00000000000E+00 -0.45593999997E+02  0.45594000000E+02  0.51100000000E-03 0. -1.
    9900012    2    1    2    0    0 -0.68623038875E+00 -0.89387663452E+00  0.35079410749E+00  0.90007752530E+02  0.90000014064E+02 0.  0.
        -12    1    1    2    0    0  0.68623038875E+00  0.89387663452E+00 -0.35079410749E+00  0.11802474698E+01  0.00000000000E+00 0.  1.
         11    1    3    3    0    0 -0.79135788893E+01  0.33630422360E+02  0.11414656733E+02  0.36385772323E+02  0.51100000000E-03 0. -1.
        -11    1    3    3    0    0 -0.17446781014E+00  0.29409723843E+01  0.97106208816E+01  0.10147704950E+02  0.51100000000E-03 0.  1.
         12    1    3    3    0    0  0.74018163107E+01 -0.37465271379E+02 -0.20774483507E+02  0.43474275257E+02  0.00000000000E+00 0. -1.
</event>
<event>
 7    1  0.2294706E-015  0.9000774E+02  0.7816164E-02  0.1186339E+00
        -11   -1    0    0    0    0  0.00000000000E+00  0.00000000000E+00  0.45593999997E+02  0.45594000000E+02  0.51100000000E-03 0.  1.
         11   -1    0    0    0    0 -0.00000000000E+00 -0.00000000000E+00 -0.45593999997E+02  0.45594000000E+02  0.51100000000E-03 0. -1.
    9900012    2    1    2    0    0 -0.11023356225E+00 -0.27728129392E+00 -0.11419136908E+01  0.90007744421E+02  0.90000005848E+02 0.  0.
        -12    1    1    2    0    0  0.11023356225E+00  0.27728129392E+00  0.11419136908E+01  0.11802555788E+01  0.00000000000E+00 0.  1.
         11    1    3    3    0    0  0.48476182894E+01 -0.27901556087E+02 -0.25954475237E+02  0.38413943045E+02  0.51100000000E-03 0. -1.
        -11    1    3    3    0    0  0.69894994969E+01  0.68922979913E+01 -0.68037395167E+01  0.11943523203E+02  0.51100000000E-03 0.  1.
        -12    1    3    3    0    0 -0.11947351349E+02  0.20731976801E+02  0.31616301063E+02  0.39650278174E+02  0.00000000000E+00 0.  1.
</event>
<event>
 7    1  0.2294706E-015  0.9000776E+02  0.7816164E-02  0.1186339E+00
        -11   -1    0    0    0    0  0.00000000000E+00  0.00000000000E+00  0.45593999997E+02  0.45594000000E+02  0.51100000000E-03 0.  1.
         11   -1    0    0    0    0 -0.00000000000E+00 -0.00000000000E+00 -0.45593999997E+02  0.45594000000E+02  0.51100000000E-03 0. -1.
    9900012    2    1    2    0    0 -0.87504666662E+00 -0.55702253385E+00  0.56301884491E+00  0.90007758079E+02  0.90000019686E+02 0.  0.
        -12    1    1    2    0    0  0.87504666662E+00  0.55702253385E+00 -0.56301884491E+00  0.11802419208E+01  0.00000000000E+00 0.  1.
         11    1    3    3    0    0  0.17931624093E+02  0.33796562440E+02 -0.93569030739E+01  0.39386576531E+02  0.51100000000E-03 0. -1.
        -11    1    3    3    0    0 -0.80808040856E+01  0.20804602870E+01 -0.50995157912E+01  0.97792009511E+01  0.51100000000E-03 0.  1.
        -12    1    3    3    0    0 -0.10725866674E+02 -0.36434045261E+02  0.15019437710E+02  0.40841980598E+02  0.00000000000E+00 0.  1.
</event>
<event>
 7    1  0.2294706E-015  0.9000773E+02  0.7816164E-02  0.1186339E+00
        -11   -1    0    0    0    0  0.00000000000E+00  0.00000000000E+00  0.45593999997E+02  0.45594000000E+02  0.51100000000E-03 0. -1.
         11   -1    0    0    0    0 -0.00000000000E+00 -0.00000000000E+00 -0.45593999997E+02  0.45594000000E+02  0.51100000000E-03 0.  1.
    9900012    2    1    2    0    0 -0.14032812475E+00 -0.11188478522E+01  0.34858910112E+00  0.90007734411E+02  0.89999995705E+02 0.  0.
        -12    1    1    2    0    0  0.14032812475E+00  0.11188478522E+01 -0.34858910112E+00  0.11802655889E+01  0.00000000000E+00 0.  1.
         11    1    3    3    0    0  0.82022217742E+01 -0.25173084993E+01 -0.45360505411E+01  0.97051037546E+01  0.51100000000E-03 0. -1.
        -11    1    3    3    0    0  0.58395537705E+01 -0.37073773431E+02 -0.56856642421E+01  0.37959081164E+02  0.51100000000E-03 0.  1.
         12    1    3    3    0    0 -0.14182103670E+02  0.38472234078E+02  0.10570303884E+02  0.42343549493E+02  0.00000000000E+00 0. -1.
</event>
<event>
 7    1  0.2294706E-015  0.9000766E+02  0.7816164E-02  0.1186339E+00
        -11   -1    0    0    0    0  0.00000000000E+00  0.00000000000E+00  0.45593999997E+02  0.45594000000E+02  0.51100000000E-03 0.  1.
         11   -1    0    0    0    0 -0.00000000000E+00 -0.00000000000E+00 -0.45593999997E+02  0.45594000000E+02  0.51100000000E-03 0. -1.
    9900012    2    1    2    0    0 -0.93365468740E+00  0.60252071751E+00 -0.39807857983E+00  0.90007657318E+02  0.89999917595E+02 0.  0.
        -12    1    1    2    0    0  0.93365468740E+00 -0.60252071751E+00  0.39807857983E+00  0.11803426816E+01  0.00000000000E+00 0.  1.
         11    1    3    3    0    0 -0.32257158918E+02 -0.85210066842E+01  0.25473825969E+01  0.33460738407E+02  0.51100000000E-03 0. -1.
        -11    1    3    3    0    0  0.15786062614E+02 -0.11641817123E+02 -0.17946806532E+02  0.26586078006E+02  0.51100000000E-03 0.  1.
        -12    1    3    3    0    0  0.15537441617E+02  0.20765344525E+02  0.15001345356E+02  0.29960840905E+02  0.00000000000E+00 0.  1.
</event>
<event>
 7    1  0.2294706E-015  0.9000778E+02  0.7816164E-02  0.1186339E+00
        -11   -1    0    0    0    0  0.00000000000E+00  0.00000000000E+00  0.45593999997E+02  0.45594000000E+02  0.51100000000E-03 0.  1.
         11   -1    0    0    0    0 -0.00000000000E+00 -0.00000000000E+00 -0.45593999997E+02  0.45594000000E+02  0.51100000000E-03 0. -1.
    9900012    2    1    2    0    0 -0.92566009142E+00  0.66006313574E+00 -0.31684745590E+00  0.90007778725E+02  0.90000040604E+02 0.  0.
        -12    1    1    2    0    0  0.92566009142E+00 -0.66006313574E+00  0.31684745590E+00  0.11802212752E+01  0.00000000000E+00 0.  1.
         11    1    3    3    0    0 -0.81785236447E+01 -0.66280383663E+01  0.13723165017E+00  0.10527961549E+02  0.51100000000E-03 0. -1.
        -11    1    3    3    0    0  0.12978791899E+02 -0.12121294695E+02  0.34664111926E+02  0.38948369416E+02  0.51100000000E-03 0.  1.
         12    1    3    3    0    0 -0.57259283457E+01  0.19409396197E+02 -0.35118191032E+02  0.40531447760E+02  0.00000000000E+00 0. -1.
</event>
<event>
 7    1  0.2294706E-015  0.9000770E+02  0.7816164E-02  0.1186339E+00
        -11   -1    0    0    0    0  0.00000000000E+00  0.00000000000E+00  0.45593999997E+02  0.45594000000E+02  0.51100000000E-03 0. -1.
         11   -1    0    0    0    0 -0.00000000000E+00 -0.00000000000E+00 -0.45593999997E+02  0.45594000000E+02  0.51100000000E-03 0.  1.
    9900012    2    1    2    0    0  0.11501171805E+01 -0.16033372653E+00 -0.21127899160E+00  0.90007696969E+02  0.89999957769E+02 0.  0.
        -12    1    1    2    0    0 -0.11501171805E+01  0.16033372653E+00  0.21127899160E+00  0.11803030311E+01  0.00000000000E+00 0.  1.
         11    1    3    3    0    0 -0.16485512179E+02  0.38602366787E+02  0.78586683512E+01  0.42704490418E+02  0.51100000000E-03 0. -1.
        -11    1    3    3    0    0 -0.14092253869E+01 -0.10701899691E+01 -0.46018545637E+01  0.49303436440E+01  0.51100000000E-03 0.  1.
        -12    1    3    3    0    0  0.19044854746E+02 -0.37692510544E+02 -0.34680927791E+01  0.42372862907E+02  0.00000000000E+00 0.  1.
</event>
<event>
 7    1  0.2294706E-015  0.9000707E+02  0.7816164E-02  0.1186340E+00
        -11   -1    0    0    0    0  0.00000000000E+00  0.00000000000E+00  0.45593999997E+02  0.45594000000E+02  0.51100000000E-03 0.  1.
         11   -1    0    0    0    0 -0.00000000000E+00 -0.00000000000E+00 -0.45593999997E+02  0.45594000000E+02  0.51100000000E-03 0. -1.
    9900012    2    1    2    0    0 -0.70691380703E-01 -0.28324322907E+00 -0.11442801008E+01  0.90007067764E+02  0.89999320255E+02 0.  0.
        -12    1    1    2    0    0  0.70691380703E-01  0.28324322907E+00  0.11442801008E+01  0.11809322365E+01  0.00000000000E+00 0.  1.
         11    1    3    3    0    0 -0.28819783652E+02  0.25378458520E+02 -0.12656544296E+02  0.40433082993E+02  0.51100000000E-03 0. -1.
        -11    1    3    3    0    0 -0.17144209188E+01  0.83051775828E+00  0.89179520304E+01  0.91191483983E+01  0.51100000000E-03 0.  1.
        -12    1    3    3    0    0  0.30463513190E+02 -0.26492219507E+02  0.25943121647E+01  0.40454836372E+02  0.00000000000E+00 0.  1.
</event>
<event>
 7    1  0.2294706E-015  0.9000780E+02  0.7816164E-02  0.1186339E+00
        -11   -1    0    0    0    0  0.00000000000E+00  0.00000000000E+00  0.45593999997E+02  0.45594000000E+02  0.51100000000E-03 0.  1.
         11   -1    0    0    0    0 -0.00000000000E+00 -0.00000000000E+00 -0.45593999997E+02  0.45594000000E+02  0.51100000000E-03 0. -1.
    9900012    2    1    2    0    0 -0.10184739143E+01 -0.31777454268E+00 -0.50458288737E+00  0.90007799312E+02  0.90000061463E+02 0.  0.
        -12    1    1    2    0    0  0.10184739143E+01  0.31777454268E+00  0.50458288737E+00  0.11802006882E+01  0.00000000000E+00 0.  1.
         11    1    3    3    0    0 -0.30500489569E+01  0.79620065899E+01 -0.33630116321E+02  0.34694107160E+02  0.51100000000E-03 0. -1.
        -11    1    3    3    0    0  0.20202753249E+02 -0.64915806355E+01  0.50330189189E+01  0.21808785791E+02  0.51100000000E-03 0.  1.
        -12    1    3    3    0    0 -0.18171178207E+02 -0.17882004971E+01  0.28092514515E+02  0.33504906360E+02  0.00000000000E+00 0.  1.
</event>
<event>
 7    1  0.2294706E-015  0.9000773E+02  0.7816164E-02  0.1186339E+00
        -11   -1    0    0    0    0  0.00000000000E+00  0.00000000000E+00  0.45593999997E+02  0.45594000000E+02  0.51100000000E-03 0. -1.
         11   -1    0    0    0    0 -0.00000000000E+00 -0.00000000000E+00 -0.45593999997E+02  0.45594000000E+02  0.51100000000E-03 0.  1.
    9900012    2    1    2    0    0 -0.99063351047E+00 -0.62188544465E+00  0.15789288975E+00  0.90007734596E+02  0.89999995893E+02 0.  0.
        -12    1    1    2    0    0  0.99063351047E+00  0.62188544465E+00 -0.15789288975E+00  0.11802654036E+01  0.00000000000E+00 0.  1.
         11    1    3    3    0    0 -0.30653078903E+02 -0.19889081802E+02  0.23102736893E+02  0.43231045250E+02  0.51100000000E-03 0. -1.
        -11    1    3    3    0    0  0.13434216807E+00  0.96789318669E+01 -0.63123509781E+01  0.11556190767E+02  0.51100000000E-03 0.  1.
        -12    1    3    3    0    0  0.29528103225E+02  0.95882644904E+01 -0.16632493026E+02  0.35220498580E+02  0.00000000000E+00 0.  1.
</event>
<event>
 7    1  0.2294706E-015  0.9000780E+02  0.7816164E-02  0.1186339E+00
        -11   -1    0    0    0    0  0.00000000000E+00  0.00000000000E+00  0.45593999997E+02  0.45594000000E+02  0.51100000000E-03 0. -1.
         11   -1    0    0    0    0 -0.00000000000E+00 -0.00000000000E+00 -0.45593999997E+02  0.45594000000E+02  0.51100000000E-03 0.  1.
    9900012    2    1    2    0    0  0.48140735156E+00  0.10584162683E+01  0.20216052505E+00  0.90007802172E+02  0.90000064361E+02 0.  0.
        -12    1    1    2    0    0 -0.48140735156E+00 -0.10584162683E+01 -0.20216052505E+00  0.11801978279E+01  0.00000000000E+00 0.  1.
         11    1    3    3    0    0  0.65477317878E+01 -0.16890913629E+01  0.69538622722E+01  0.96995887520E+01  0.51100000000E-03 0. -1.
        -11    1    3    3    0    0  0.27842639244E+01  0.18915683673E+02 -0.38846744236E+02  0.43296936987E+02  0.51100000000E-03 0.  1.
         12    1    3    3    0    0 -0.88505883606E+01 -0.16168176042E+02  0.32095042489E+02  0.37011276433E+02  0.00000000000E+00 0. -1.
</event>
<event>
 7    1  0.2294706E-015  0.9000777E+02  0.7816164E-02  0.1186339E+00
        -11   -1    0    0    0    0  0.00000000000E+00  0.00000000000E+00  0.45593999997E+02  0.45594000000E+02  0.51100000000E-03 0.  1.
         11   -1    0    0    0    0 -0.00000000000E+00 -0.00000000000E+00 -0.45593999997E+02  0.45594000000E+02  0.51100000000E-03 0. -1.
    9900012    2    1    2    0    0  0.17816382082E-01  0.18003228335E+00 -0.11662774861E+01  0.90007774504E+02  0.90000036328E+02 0.  0.
        -12    1    1    2    0    0 -0.17816382082E-01 -0.18003228335E+00  0.11662774861E+01  0.11802254959E+01  0.00000000000E+00 0.  1.
         11    1    3    3    0    0 -0.26064971042E+01 -0.57099621439E+01  0.32529227916E+01  0.70695828582E+01  0.51100000000E-03 0. -1.
        -11    1    3    3    0    0  0.97712074098E+01  0.27749959597E+02  0.29691428779E+02  0.41798536997E+02  0.51100000000E-03 0.  1.
         12    1    3    3    0    0 -0.71468939235E+01 -0.21859965170E+02 -0.34110629057E+02  0.41139654649E+02  0.00000000000E+00 0. -1.
</event>
<event>
 7    1  0.2294706E-015  0.9000779E+02  0.7816164E-02  0.1186339E+00
        -11   -1    0    0    0    0  0.00000000000E+00  0.00000000000E+00  0.45593999997E+02  0.45594000000E+02  0.51100000000E-03 0.  1.
         11   -1    0    0    0    0 -0.00000000000E+00 -0.00000000000E+00 -0.45593999997E+02  0.45594000000E+02  0.51100000000E-03 0. -1.
    9900012    2    1    2    0    0  0.79577690281E-02 -0.58966072505E-01 -0.11787101715E+01  0.90007789005E+02  0.90000051020E+02 0.  0.
        -12    1    1    2    0    0 -0.79577690281E-02  0.58966072505E-01  0.11787101715E+01  0.11802109948E+01  0.00000000000E+00 0.  1.
         11    1    3    3    0    0 -0.22972057693E+01 -0.50711929068E+01  0.74902357526E+01  0.93326193395E+01  0.51100000000E-03 0. -1.
        -11    1    3    3    0    0 -0.32682239108E+02 -0.94839155416E+01  0.13706954925E+02  0.36687246022E+02  0.51100000000E-03 0.  1.
         12    1    3    3    0    0  0.34987402646E+02  0.14496142376E+02 -0.22375900849E+02  0.43987923644E+02  0.00000000000E+00 0. -1.
</event>
<event>
 7    1  0.2294706E-015  0.9000773E+02  0.7816164E-02  0.1186339E+00
        -11   -1    0    0    0    0  0.00000000000E+00  0.00000000000E+00  0.45593999997E+02  0.45594000000E+02  0.51100000000E-03 0. -1.
         11   -1    0    0    0    0 -0.00000000000E+00 -0.00000000000E+00 -0.45593999997E+02  0.45594000000E+02  0.51100000000E-03 0.  1.
    9900012    2    1    2    0    0 -0.17281658699E-01 -0.46878105504E+00  0.10830478205E+01  0.90007725915E+02  0.89999987098E+02 0.  0.
        -12    1    1    2    0    0  0.17281658699E-01  0.46878105504E+00 -0.10830478205E+01  0.11802740846E+01  0.00000000000E+00 0.  1.
         11    1    3    3    0    0 -0.79033604693E+01  0.65862270031E+01  0.38985022455E+01  0.11001809527E+02  0.51100000000E-03 0. -1.
        -11    1    3    3    0    0 -0.34899095525E+02  0.26705893145E+00  0.37656152153E+01  0.35102678632E+02  0.51100000000E-03 0.  1.
         12    1    3    3    0    0  0.42785174335E+02 -0.73220669895E+01 -0.65810696403E+01  0.43903237757E+02  0.00000000000E+00 0. -1.
</event>
<event>
 7    1  0.2294706E-015  0.9000774E+02  0.7816164E-02  0.1186339E+00
        -11   -1    0    0    0    0  0.00000000000E+00  0.00000000000E+00  0.45593999997E+02  0.45594000000E+02  0.51100000000E-03 0. -1.
         11   -1    0    0    0    0 -0.00000000000E+00 -0.00000000000E+00 -0.45593999997E+02  0.45594000000E+02  0.51100000000E-03 0.  1.
    9900012    2    1    2    0    0 -0.75692198251E+00  0.42963881813E+00  0.79717651644E+00  0.90007741215E+02  0.90000002599E+02 0.  0.
        -12    1    1    2    0    0  0.75692198251E+00 -0.42963881813E+00 -0.79717651644E+00  0.11802587852E+01  0.00000000000E+00 0.  1.
         11    1    3    3    0    0 -0.36577978982E+02 -0.24214526637E+01 -0.20594321647E+01  0.36715844543E+02  0.51100000000E-03 0. -1.
        -11    1    3    3    0    0 -0.64616376269E+01  0.79661488344E+01 -0.19148082385E+01  0.10434499457E+02  0.51100000000E-03 0.  1.
        -12    1    3    3    0    0  0.42282694626E+02 -0.51150573526E+01  0.47714169197E+01  0.42857397215E+02  0.00000000000E+00 0.  1.
</event>
<event>
 7    1  0.2294706E-015  0.9000776E+02  0.7816164E-02  0.1186339E+00
        -11   -1    0    0    0    0  0.00000000000E+00  0.00000000000E+00  0.45593999997E+02  0.45594000000E+02  0.51100000000E-03 0. -1.
         11   -1    0    0    0    0 -0.00000000000E+00 -0.00000000000E+00 -0.45593999997E+02  0.45594000000E+02  0.51100000000E-03 0.  1.
    9900012    2    1    2    0    0  0.98507415254E+00 -0.63198955814E+00  0.15228886085E+00  0.90007756896E+02  0.90000018487E+02 0.  0.
        -12    1    1    2    0    0 -0.98507415254E+00  0.63198955814E+00 -0.15228886085E+00  0.11802431041E+01  0.00000000000E+00 0.  1.
         11    1    3    3    0    0  0.10486252009E+01 -0.35751913354E+00 -0.98291973778E+01  0.98914385251E+01  0.51100000000E-03 0. -1.
        -11    1    3    3    0    0  0.88928874553E+01 -0.18971474101E+02 -0.29110819800E+02  0.35866977940E+02  0.51100000000E-03 0.  1.
         12    1    3    3    0    0 -0.89564385037E+01  0.18697003676E+02  0.39092306039E+02  0.44249340431E+02  0.00000000000E+00 0. -1.
</event>
<event>
 7    1  0.2294706E-015  0.9000757E+02  0.7816164E-02  0.1186339E+00
        -11   -1    0    0    0    0  0.00000000000E+00  0.00000000000E+00  0.45593999997E+02  0.45594000000E+02  0.51100000000E-03 0.  1.
         11   -1    0    0    0    0 -0.00000000000E+00 -0.00000000000E+00 -0.45593999997E+02  0.45594000000E+02  0.51100000000E-03 0. -1.
    9900012    2    1    2    0    0  0.82659091447E+00  0.21832218881E+00  0.81393571312E+00  0.90007572762E+02  0.89999831923E+02 0.  0.
        -12    1    1    2    0    0 -0.82659091447E+00 -0.21832218881E+00 -0.81393571312E+00  0.11804272375E+01  0.00000000000E+00 0.  1.
         11    1    3    3    0    0  0.85703063782E+01 -0.18920296930E+02  0.47203873432E+01  0.21300465823E+02  0.51100000000E-03 0. -1.
        -11    1    3    3    0    0 -0.34007555864E+02  0.21044099127E+02  0.62615428880E+01  0.40479314267E+02  0.51100000000E-03 0.  1.
         12    1    3    3    0    0  0.26263840401E+02 -0.19054800088E+01 -0.10167994518E+02  0.28227792673E+02  0.00000000000E+00 0. -1.
</event>
<event>
 7    1  0.2294706E-015  0.9000753E+02  0.7816164E-02  0.1186339E+00
        -11   -1    0    0    0    0  0.00000000000E+00  0.00000000000E+00  0.45593999997E+02  0.45594000000E+02  0.51100000000E-03 0.  1.
         11   -1    0    0    0    0 -0.00000000000E+00 -0.00000000000E+00 -0.45593999997E+02  0.45594000000E+02  0.51100000000E-03 0. -1.
    9900012    2    1    2    0    0 -0.32846659843E+00 -0.10746480195E+01 -0.36159050681E+00  0.90007531294E+02  0.89999789906E+02 0.  0.
        -12    1    1    2    0    0  0.32846659843E+00  0.10746480195E+01  0.36159050681E+00  0.11804687064E+01  0.00000000000E+00 0.  1.
         11    1    3    3    0    0  0.26569855713E+01 -0.22039414158E+01  0.93815745955E+01  0.99965430146E+01  0.51100000000E-03 0. -1.
        -11    1    3    3    0    0 -0.66026003090E+01  0.36639468347E+01  0.34617245538E+02  0.35431236588E+02  0.51100000000E-03 0.  1.
         12    1    3    3    0    0  0.36171481392E+01 -0.25346534384E+01 -0.44360410640E+02  0.44579751691E+02  0.00000000000E+00 0. -1.
</event>
<event>
 7    1  0.2294706E-015  0.9000819E+02  0.7816164E-02  0.1186338E+00
        -11   -1    0    0    0    0  0.00000000000E+00  0.00000000000E+00  0.45593999997E+02  0.45594000000E+02  0.51100000000E-03 0. -1.
         11   -1    0    0    0    0 -0.00000000000E+00 -0.00000000000E+00 -0.45593999997E+02  0.45594000000E+02  0.51100000000E-03 0.  1.
    9900012    2    1    2    0    0 -0.49019941321E+00  0.97302217330E-01  0.10687285950E+01  0.90008193238E+02  0.90000460587E+02 0.  0.
        -12    1    1    2    0    0  0.49019941321E+00 -0.97302217330E-01 -0.10687285950E+01  0.11798067621E+01  0.00000000000E+00 0.  1.
         11    1    3    3    0    0  0.15499179064E+01  0.89575879379E+01 -0.81995050220E+00  0.91275925779E+01  0.51100000000E-03 0. -1.
        -11    1    3    3    0    0 -0.32676841916E+02  0.55655121090E+01 -0.21693575860E+02  0.39615175836E+02  0.51100000000E-03 0.  1.
         12    1    3    3    0    0  0.30636724597E+02 -0.14425797830E+02  0.23582254957E+02  0.41265424824E+02  0.00000000000E+00 0. -1.
</event>
<event>
 7    1  0.2294706E-015  0.9000782E+02  0.7816164E-02  0.1186339E+00
        -11   -1    0    0    0    0  0.00000000000E+00  0.00000000000E+00  0.45593999997E+02  0.45594000000E+02  0.51100000000E-03 0. -1.
         11   -1    0    0    0    0 -0.00000000000E+00 -0.00000000000E+00 -0.45593999997E+02  0.45594000000E+02  0.51100000000E-03 0.  1.
    9900012    2    1    2    0    0  0.29229608212E+00  0.83453206232E+00  0.78163087864E+00  0.90007818830E+02  0.90000081239E+02 0.  0.
        -12    1    1    2    0    0 -0.29229608212E+00 -0.83453206232E+00 -0.78163087864E+00  0.11801811696E+01  0.00000000000E+00 0.  1.
         11    1    3    3    0    0  0.64693994591E+01 -0.53646295542E+01 -0.57189683829E+01  0.10165578156E+02  0.51100000000E-03 0. -1.
        -11    1    3    3    0    0  0.16421803222E+02 -0.20644406209E+01 -0.31083476293E+02  0.35215338063E+02  0.51100000000E-03 0.  1.
         12    1    3    3    0    0 -0.22598906599E+02  0.82636022375E+01  0.37584075555E+02  0.44626902612E+02  0.00000000000E+00 0. -1.
</event>
<event>
 7    1  0.2294706E-015  0.9000771E+02  0.7816164E-02  0.1186339E+00
        -11   -1    0    0    0    0  0.00000000000E+00  0.00000000000E+00  0.45593999997E+02  0.45594000000E+02  0.51100000000E-03 0.  1.
         11   -1    0    0    0    0 -0.00000000000E+00 -0.00000000000E+00 -0.45593999997E+02  0.45594000000E+02  0.51100000000E-03 0. -1.
    9900012    2    1    2    0    0 -0.10940434653E+01 -0.15352745013E+00 -0.41543695690E+00  0.90007707813E+02  0.89999968756E+02 0.  0.
        -12    1    1    2    0    0  0.10940434653E+01  0.15352745013E+00  0.41543695690E+00  0.11802921872E+01  0.00000000000E+00 0.  1.
         11    1    3    3    0    0  0.64030074347E+01 -0.35796375219E+02 -0.21030239088E+01  0.36425289194E+02  0.51100000000E-03 0. -1.
        -11    1    3    3    0    0  0.97437530071E+01 -0.38004764992E+01  0.12530509846E+01  0.10533493310E+02  0.51100000000E-03 0.  1.
        -12    1    3    3    0    0 -0.17240803907E+02  0.39443324268E+02  0.43453596729E+00  0.43048925308E+02  0.00000000000E+00 0.  1.
</event>
<event>
 7    1  0.2294706E-015  0.9000793E+02  0.7816164E-02  0.1186339E+00
        -11   -1    0    0    0    0  0.00000000000E+00  0.00000000000E+00  0.45593999997E+02  0.45594000000E+02  0.51100000000E-03 0.  1.
         11   -1    0    0    0    0 -0.00000000000E+00 -0.00000000000E+00 -0.45593999997E+02  0.45594000000E+02  0.51100000000E-03 0. -1.
    9900012    2    1    2    0    0  0.26951690349E+00  0.24697069453E+00 -0.11220200057E+01  0.90007931028E+02  0.90000194917E+02 0.  0.
        -12    1    1    2    0    0 -0.26951690349E+00 -0.24697069453E+00  0.11220200057E+01  0.11800689719E+01  0.00000000000E+00 0.  1.
         11    1    3    3    0    0  0.81155580508E+00  0.37730507665E+01  0.79152428540E+01  0.88059982177E+01  0.51100000000E-03 0. -1.
        -11    1    3    3    0    0  0.52357330204E+01 -0.37376001804E+02 -0.22927711412E+02  0.44159465146E+02  0.51100000000E-03 0.  1.
         12    1    3    3    0    0 -0.57777719220E+01  0.33849921732E+02  0.13890448552E+02  0.37042467664E+02  0.00000000000E+00 0. -1.
</event>
<event>
 7    1  0.2294706E-015  0.9000773E+02  0.7816164E-02  0.1186339E+00
        -11   -1    0    0    0    0  0.00000000000E+00  0.00000000000E+00  0.45593999997E+02  0.45594000000E+02  0.51100000000E-03 0. -1.
         11   -1    0    0    0    0 -0.00000000000E+00 -0.00000000000E+00 -0.45593999997E+02  0.45594000000E+02  0.51100000000E-03 0.  1.
    9900012    2    1    2    0    0  0.46255916479E+00 -0.10540235467E+01  0.26098129678E+00  0.90007729753E+02  0.89999990986E+02 0.  0.
        -12    1    1    2    0    0 -0.46255916479E+00  0.10540235467E+01 -0.26098129678E+00  0.11802702467E+01  0.00000000000E+00 0.  1.
         11    1    3    3    0    0  0.86319196334E+00 -0.60677086727E+01 -0.71705935741E+01  0.94328999448E+01  0.51100000000E-03 0. -1.
        -11    1    3    3    0    0  0.26335408341E+02 -0.16508064200E+02 -0.19721815772E+02  0.36810595401E+02  0.51100000000E-03 0.  1.
         12    1    3    3    0    0 -0.26736041140E+02  0.21521749326E+02  0.27153390643E+02  0.43764234408E+02  0.00000000000E+00 0. -1.
</event>
<event>
 7    1  0.2294706E-015  0.9000769E+02  0.7816164E-02  0.1186339E+00
        -11   -1    0    0    0    0  0.00000000000E+00  0.00000000000E+00  0.45593999997E+02  0.45594000000E+02  0.51100000000E-03 0. -1.
         11   -1    0    0    0    0 -0.00000000000E+00 -0.00000000000E+00 -0.45593999997E+02  0.45594000000E+02  0.51100000000E-03 0.  1.
    9900012    2    1    2    0    0  0.20292195641E+00 -0.83096838536E+00  0.81329098977E+00  0.90007691561E+02  0.89999952289E+02 0.  0.
        -12    1    1    2    0    0 -0.20292195641E+00  0.83096838536E+00 -0.81329098977E+00  0.11803084393E+01  0.00000000000E+00 0.  1.
         11    1    3    3    0    0  0.34252572361E+02  0.28217452075E+02  0.35984110888E+01  0.44524284133E+02  0.51100000000E-03 0. -1.
        -11    1    3    3    0    0 -0.61674095764E+01 -0.71619118421E+01 -0.33643814480E+01  0.10032396768E+02  0.51100000000E-03 0.  1.
        -12    1    3    3    0    0 -0.27882240828E+02 -0.21886508618E+02  0.57926134903E+00  0.35451010660E+02  0.00000000000E+00 0.  1.
</event>
<event>
 7    1  0.2749487E-015  0.9000785E+02  0.7816164E-02  0.1186339E+00
        -11   -1    0    0    0    0  0.00000000000E+00  0.00000000000E+00  0.45593999997E+02  0.45594000000E+02  0.51100000000E-03 0.  1.
         11   -1    0    0    0    0 -0.00000000000E+00 -0.00000000000E+00 -0.45593999997E+02  0.45594000000E+02  0.51100000000E-03 0. -1.
    9900012    2    1    2    0    0  0.10406771317E-01 -0.11725675790E+01 -0.13316260088E+00  0.90007849456E+02  0.90000112269E+02 0.  0.
        -12    1    1    2    0    0 -0.10406771317E-01  0.11725675790E+01  0.13316260088E+00  0.11801505440E+01  0.00000000000E+00 0.  1.
         11    1    3    3    0    0  0.25775323736E+02  0.93612365677E+01 -0.31877591753E+02  0.42049743400E+02  0.51100000000E-03 0. -1.
        -11    1    3    3    0    0  0.58366570504E+00  0.47410424994E+01  0.80905997581E+01  0.93955284228E+01  0.51100000000E-03 0.  1.
        -12    1    3    3    0    0 -0.26348582669E+02 -0.15274846646E+02  0.23653829394E+02  0.38562577634E+02  0.00000000000E+00 0.  1.
</event>
<event>
 7    1  0.2294706E-015  0.9000790E+02  0.7816164E-02  0.1186339E+00
        -11   -1    0    0    0    0  0.00000000000E+00  0.00000000000E+00  0.45593999997E+02  0.45594000000E+02  0.51100000000E-03 0.  1.
         11   -1    0    0    0    0 -0.00000000000E+00 -0.00000000000E+00 -0.45593999997E+02  0.45594000000E+02  0.51100000000E-03 0. -1.
    9900012    2    1    2    0    0  0.83525232629E+00  0.76080672734E+00 -0.34081594511E+00  0.90007903041E+02  0.90000166561E+02 0.  0.
        -12    1    1    2    0    0 -0.83525232629E+00 -0.76080672734E+00  0.34081594511E+00  0.11800969593E+01  0.00000000000E+00 0.  1.
         11    1    3    3    0    0 -0.24819740192E+00 -0.56715662184E+01  0.81910932772E+01  0.99660561235E+01  0.51100000000E-03 0. -1.
        -11    1    3    3    0    0 -0.17575230970E+02 -0.25286848798E+02  0.17072530457E+02  0.35210577420E+02  0.51100000000E-03 0.  1.
         12    1    3    3    0    0  0.18658680698E+02  0.31719221744E+02 -0.25604439680E+02  0.44831269497E+02  0.00000000000E+00 0. -1.
</event>
<event>
 7    1  0.2294706E-015  0.9000769E+02  0.7816164E-02  0.1186339E+00
        -11   -1    0    0    0    0  0.00000000000E+00  0.00000000000E+00  0.45593999997E+02  0.45594000000E+02  0.51100000000E-03 0. -1.
         11   -1    0    0    0    0 -0.00000000000E+00 -0.00000000000E+00 -0.45593999997E+02  0.45594000000E+02  0.51100000000E-03 0.  1.
    9900012    2    1    2    0    0 -0.49119084213E+00 -0.97143988085E+00  0.45625383435E+00  0.90007690106E+02  0.89999950815E+02 0.  0.
        -12    1    1    2    0    0  0.49119084213E+00  0.97143988085E+00 -0.45625383435E+00  0.11803098944E+01  0.00000000000E+00 0.  1.
         11    1    3    3    0    0 -0.15239707503E+00  0.53014673275E+01  0.62606410840E+01  0.82051451990E+01  0.51100000000E-03 0. -1.
        -11    1    3    3    0    0  0.10304247721E+02  0.35478772247E+02 -0.10636724777E+02  0.38445555211E+02  0.51100000000E-03 0.  1.
         12    1    3    3    0    0 -0.10643041488E+02 -0.41751679455E+02  0.48323375274E+01  0.43356989695E+02  0.00000000000E+00 0. -1.
</event>
<event>
 7    1  0.2294706E-015  0.9000777E+02  0.7816164E-02  0.1186339E+00
        -11   -1    0    0    0    0  0.00000000000E+00  0.00000000000E+00  0.45593999997E+02  0.45594000000E+02  0.51100000000E-03 0. -1.
         11   -1    0    0    0    0 -0.00000000000E+00 -0.00000000000E+00 -0.45593999997E+02  0.45594000000E+02  0.51100000000E-03 0.  1.
    9900012    2    1    2    0    0 -0.34229566064E+00  0.85610467458E+00  0.73679449253E+00  0.90007767965E+02  0.90000029702E+02 0.  0.
        -12    1    1    2    0    0  0.34229566064E+00 -0.85610467458E+00 -0.73679449253E+00  0.11802320354E+01  0.00000000000E+00 0.  1.
         11    1    3    3    0    0  0.58969512107E+01  0.31859835377E+02  0.23547455077E+02  0.40053786147E+02  0.51100000000E-03 0. -1.
        -11    1    3    3    0    0  0.28167582698E+01  0.52036995504E+01 -0.76456619630E+01  0.96679244554E+01  0.51100000000E-03 0.  1.
        -12    1    3    3    0    0 -0.90560051411E+01 -0.36207430253E+02 -0.15164998622E+02  0.40286057362E+02  0.00000000000E+00 0.  1.
</event>
<event>
 7    1  0.2552320E-015  0.9000777E+02  0.7816164E-02  0.1186339E+00
        -11   -1    0    0    0    0  0.00000000000E+00  0.00000000000E+00  0.45593999997E+02  0.45594000000E+02  0.51100000000E-03 0. -1.
         11   -1    0    0    0    0 -0.00000000000E+00 -0.00000000000E+00 -0.45593999997E+02  0.45594000000E+02  0.51100000000E-03 0.  1.
    9900012    2    1    2    0    0 -0.30687462663E+00 -0.41598861053E+00  0.10610043503E+01  0.90007767484E+02  0.90000029215E+02 0.  0.
        -12    1    1    2    0    0  0.30687462663E+00  0.41598861053E+00 -0.10610043503E+01  0.11802325160E+01  0.00000000000E+00 0.  1.
         11    1    3    3    0    0  0.39128942088E+02  0.58509305862E+01  0.36216100991E+01  0.39729379024E+02  0.51100000000E-03 0. -1.
        -11    1    3    3    0    0 -0.18898323973E+01  0.87370046744E+01  0.30781730657E+01  0.94541983719E+01  0.51100000000E-03 0.  1.
        -12    1    3    3    0    0 -0.37545984317E+02 -0.15003923871E+02 -0.56387788145E+01  0.40824190089E+02  0.00000000000E+00 0.  1.
</event>
<event>
 7    1  0.2294706E-015  0.9000797E+02  0.7816164E-02  0.1186339E+00
        -11   -1    0    0    0    0  0.00000000000E+00  0.00000000000E+00  0.45593999997E+02  0.45594000000E+02  0.51100000000E-03 0. -1.
         11   -1    0    0    0    0 -0.00000000000E+00 -0.00000000000E+00 -0.45593999997E+02  0.45594000000E+02  0.51100000000E-03 0.  1.
    9900012    2    1    2    0    0  0.34481008938E+00  0.78087656684E-01  0.11258255767E+01  0.90007968259E+02  0.90000232640E+02 0.  0.
        -12    1    1    2    0    0 -0.34481008938E+00 -0.78087656684E-01 -0.11258255767E+01  0.11800317407E+01  0.00000000000E+00 0.  1.
         11    1    3    3    0    0  0.70648357472E+01  0.14227719041E+02  0.11705897433E+02  0.19732408070E+02  0.51100000000E-03 0. -1.
        -11    1    3    3    0    0 -0.12337927471E+02  0.23914607398E+02  0.72488933152E+01  0.27868967613E+02  0.51100000000E-03 0.  1.
         12    1    3    3    0    0  0.56179018134E+01 -0.38064238782E+02 -0.17828965172E+02  0.42406592576E+02  0.00000000000E+00 0. -1.
</event>
<event>
 7    1  0.2294706E-015  0.9000774E+02  0.7816164E-02  0.1186339E+00
        -11   -1    0    0    0    0  0.00000000000E+00  0.00000000000E+00  0.45593999997E+02  0.45594000000E+02  0.51100000000E-03 0. -1.
         11   -1    0    0    0    0 -0.00000000000E+00 -0.00000000000E+00 -0.45593999997E+02  0.45594000000E+02  0.51100000000E-03 0.  1.
    9900012    2    1    2    0    0 -0.29296882700E+00  0.64962150727E+00  0.94083761449E+00  0.90007739752E+02  0.90000001117E+02 0.  0.
        -12    1    1    2    0    0  0.29296882700E+00 -0.64962150727E+00 -0.94083761449E+00  0.11802602481E+01  0.00000000000E+00 0.  1.
         11    1    3    3    0    0  0.83045471422E+01 -0.27026819827E+01 -0.45460710331E+01  0.98456465118E+01  0.51100000000E-03 0. -1.
        -11    1    3    3    0    0  0.93900623725E+01 -0.27484175303E+02 -0.20889176956E+02  0.35775842095E+02  0.51100000000E-03 0.  1.
         12    1    3    3    0    0 -0.17987578342E+02  0.30836478793E+02  0.26376085604E+02  0.44386251145E+02  0.00000000000E+00 0. -1.
</event>
<event>
 7    1  0.2294706E-015  0.9000771E+02  0.7816164E-02  0.1186339E+00
        -11   -1    0    0    0    0  0.00000000000E+00  0.00000000000E+00  0.45593999997E+02  0.45594000000E+02  0.51100000000E-03 0. -1.
         11   -1    0    0    0    0 -0.00000000000E+00 -0.00000000000E+00 -0.45593999997E+02  0.45594000000E+02  0.51100000000E-03 0.  1.
    9900012    2    1    2    0    0 -0.79310496324E+00  0.19699188446E+00  0.85161749286E+00  0.90007714594E+02  0.89999975627E+02 0.  0.
        -12    1    1    2    0    0  0.79310496324E+00 -0.19699188446E+00 -0.85161749286E+00  0.11802854059E+01  0.00000000000E+00 0.  1.
         11    1    3    3    0    0 -0.40295378903E+02 -0.13256422082E+02  0.11335843899E+02  0.43908446164E+02  0.51100000000E-03 0. -1.
        -11    1    3    3    0    0  0.34555809354E+01  0.36070708400E+01 -0.69588127246E+01  0.85660419356E+01  0.51100000000E-03 0.  1.
        -12    1    3    3    0    0  0.36046693004E+02  0.98463431265E+01 -0.35254136820E+01  0.37533226495E+02  0.00000000000E+00 0.  1.
</event>
<event>
 7    1  0.2294706E-015  0.9000773E+02  0.7816164E-02  0.1186339E+00
        -11   -1    0    0    0    0  0.00000000000E+00  0.00000000000E+00  0.45593999997E+02  0.45594000000E+02  0.51100000000E-03 0. -1.
         11   -1    0    0    0    0 -0.00000000000E+00 -0.00000000000E+00 -0.45593999997E+02  0.45594000000E+02  0.51100000000E-03 0.  1.
    9900012    2    1    2    0    0 -0.45336587046E+00 -0.58217411997E+00  0.92117445252E+00  0.90007733212E+02  0.89999994491E+02 0.  0.
        -12    1    1    2    0    0  0.45336587046E+00  0.58217411997E+00 -0.92117445252E+00  0.11802667878E+01  0.00000000000E+00 0.  1.
         11    1    3    3    0    0  0.11139781753E+02  0.22502911990E+02 -0.23111272748E+01  0.25215413839E+02  0.51100000000E-03 0. -1.
        -11    1    3    3    0    0 -0.13982149986E+02  0.11983986795E+02 -0.16288544895E+02  0.24585222244E+02  0.51100000000E-03 0.  1.
        -12    1    3    3    0    0  0.23890023620E+01 -0.35069072905E+02  0.19520846622E+02  0.40207097129E+02  0.00000000000E+00 0.  1.
</event>
<event>
 7    1  0.2294706E-015  0.9000773E+02  0.7816164E-02  0.1186339E+00
        -11   -1    0    0    0    0  0.00000000000E+00  0.00000000000E+00  0.45593999997E+02  0.45594000000E+02  0.51100000000E-03 0.  1.
         11   -1    0    0    0    0 -0.00000000000E+00 -0.00000000000E+00 -0.45593999997E+02  0.45594000000E+02  0.51100000000E-03 0. -1.
    9900012    2    1    2    0    0  0.68071370932E+00 -0.75758578330E+00  0.59642820365E+00  0.90007731397E+02  0.89999992651E+02 0.  0.
        -12    1    1    2    0    0 -0.68071370932E+00  0.75758578330E+00 -0.59642820365E+00  0.11802686030E+01  0.00000000000E+00 0.  1.
         11    1    3    3    0    0 -0.45910409045E+01  0.11600266365E+01 -0.68641490934E+01  0.83390563867E+01  0.51100000000E-03 0. -1.
        -11    1    3    3    0    0 -0.15300475268E+02 -0.34642853013E+02  0.17519057388E+02  0.41727079700E+02  0.51100000000E-03 0.  1.
         12    1    3    3    0    0  0.20572229882E+02  0.32725240593E+02 -0.10058480091E+02  0.39941595310E+02  0.00000000000E+00 0. -1.
</event>
<event>
 7    1  0.2294706E-015  0.9000754E+02  0.7816164E-02  0.1186339E+00
        -11   -1    0    0    0    0  0.00000000000E+00  0.00000000000E+00  0.45593999997E+02  0.45594000000E+02  0.51100000000E-03 0.  1.
         11   -1    0    0    0    0 -0.00000000000E+00 -0.00000000000E+00 -0.45593999997E+02  0.45594000000E+02  0.51100000000E-03 0. -1.
    9900012    2    1    2    0    0  0.11014461279E+01  0.42461646636E+00 -0.35699171580E-03  0.90007541257E+02  0.89999800001E+02 0.  0.
        -12    1    1    2    0    0 -0.11014461279E+01 -0.42461646636E+00  0.35699171579E-03  0.11804587429E+01  0.00000000000E+00 0.  1.
         11    1    3    3    0    0  0.68343970805E+01 -0.65439728997E+01 -0.32350034078E+01  0.99998906032E+01  0.51100000000E-03 0. -1.
        -11    1    3    3    0    0  0.12304463124E+02 -0.33999139444E+01  0.37670562805E+02  0.39774747390E+02  0.51100000000E-03 0.  1.
         12    1    3    3    0    0 -0.18037414077E+02  0.10368503310E+02 -0.34435916389E+02  0.40232903264E+02  0.00000000000E+00 0. -1.
</event>
<event>
 7    1  0.2294706E-015  0.9000773E+02  0.7816164E-02  0.1186339E+00
        -11   -1    0    0    0    0  0.00000000000E+00  0.00000000000E+00  0.45593999997E+02  0.45594000000E+02  0.51100000000E-03 0.  1.
         11   -1    0    0    0    0 -0.00000000000E+00 -0.00000000000E+00 -0.45593999997E+02  0.45594000000E+02  0.51100000000E-03 0. -1.
    9900012    2    1    2    0    0 -0.98349997516E+00  0.23090145032E+00 -0.61029245810E+00  0.90007726911E+02  0.89999988106E+02 0.  0.
        -12    1    1    2    0    0  0.98349997516E+00 -0.23090145032E+00  0.61029245810E+00  0.11802730893E+01  0.00000000000E+00 0.  1.
         11    1    3    3    0    0 -0.76240836261E+01 -0.59940440001E+01 -0.13352698610E+01  0.97896966488E+01  0.51100000000E-03 0. -1.
        -11    1    3    3    0    0  0.11045545960E+02 -0.33080503693E+02  0.15276144532E+02  0.38074721301E+02  0.51100000000E-03 0.  1.
         12    1    3    3    0    0 -0.44049623089E+01  0.39305449144E+02 -0.14551167129E+02  0.42143308961E+02  0.00000000000E+00 0. -1.
</event>
<event>
 7    1  0.2294706E-015  0.9000780E+02  0.7816164E-02  0.1186339E+00
        -11   -1    0    0    0    0  0.00000000000E+00  0.00000000000E+00  0.45593999997E+02  0.45594000000E+02  0.51100000000E-03 0.  1.
         11   -1    0    0    0    0 -0.00000000000E+00 -0.00000000000E+00 -0.45593999997E+02  0.45594000000E+02  0.51100000000E-03 0. -1.
    9900012    2    1    2    0    0 -0.39213039527E+00  0.24507345176E+00 -0.10858371242E+01  0.90007801074E+02  0.90000063249E+02 0.  0.
        -12    1    1    2    0    0  0.39213039527E+00 -0.24507345176E+00  0.10858371242E+01  0.11801989256E+01  0.00000000000E+00 0.  1.
         11    1    3    3    0    0 -0.40018826367E+02  0.55798949275E+01 -0.53009030734E+01  0.40752193374E+02  0.51100000000E-03 0. -1.
        -11    1    3    3    0    0  0.13326175094E+01  0.75839385243E+01  0.43439358873E+01  0.88409146711E+01  0.51100000000E-03 0.  1.
        -12    1    3    3    0    0  0.38294078462E+02 -0.12918760000E+02 -0.12886993819E+00  0.40414693029E+02  0.00000000000E+00 0.  1.
</event>
<event>
 7    1  0.2294706E-015  0.9000777E+02  0.7816164E-02  0.1186339E+00
        -11   -1    0    0    0    0  0.00000000000E+00  0.00000000000E+00  0.45593999997E+02  0.45594000000E+02  0.51100000000E-03 0. -1.
         11   -1    0    0    0    0 -0.00000000000E+00 -0.00000000000E+00 -0.45593999997E+02  0.45594000000E+02  0.51100000000E-03 0.  1.
    9900012    2    1    2    0    0 -0.67829234154E+00 -0.15807912589E+00  0.95281860282E+00  0.90007774259E+02  0.90000036079E+02 0.  0.
        -12    1    1    2    0    0  0.67829234154E+00  0.15807912589E+00 -0.95281860282E+00  0.11802257413E+01  0.00000000000E+00 0.  1.
         11    1    3    3    0    0 -0.37811791657E+01  0.74503967311E+01 -0.44242637068E+01  0.94540910162E+01  0.51100000000E-03 0. -1.
        -11    1    3    3    0    0  0.20449221955E+02  0.29970745303E+02 -0.78112679046E+01  0.37113773173E+02  0.51100000000E-03 0.  1.
         12    1    3    3    0    0 -0.17346335131E+02 -0.37579221160E+02  0.13188350214E+02  0.43439910070E+02  0.00000000000E+00 0. -1.
</event>
<event>
 7    1  0.2294706E-015  0.9000781E+02  0.7816164E-02  0.1186339E+00
        -11   -1    0    0    0    0  0.00000000000E+00  0.00000000000E+00  0.45593999997E+02  0.45594000000E+02  0.51100000000E-03 0.  1.
         11   -1    0    0    0    0 -0.00000000000E+00 -0.00000000000E+00 -0.45593999997E+02  0.45594000000E+02  0.51100000000E-03 0. -1.
    9900012    2    1    2    0    0 -0.29964688471E+00  0.18645256128E+00 -0.11261894418E+01  0.90007807019E+02  0.90000069272E+02 0.  0.
        -12    1    1    2    0    0  0.29964688471E+00 -0.18645256128E+00  0.11261894418E+01  0.11801929809E+01  0.00000000000E+00 0.  1.
         11    1    3    3    0    0  0.33444283533E+01  0.30007174441E+00  0.93160845517E+01  0.99027610138E+01  0.51100000000E-03 0. -1.
        -11    1    3    3    0    0 -0.19933968396E+02  0.31095321387E+02  0.11423868695E+02  0.38662473852E+02  0.51100000000E-03 0.  1.
         12    1    3    3    0    0  0.16289893158E+02 -0.31208940570E+02 -0.21866142688E+02  0.41442572153E+02  0.00000000000E+00 0. -1.
</event>
<event>
 7    1  0.2294706E-015  0.9000775E+02  0.7816164E-02  0.1186339E+00
        -11   -1    0    0    0    0  0.00000000000E+00  0.00000000000E+00  0.45593999997E+02  0.45594000000E+02  0.51100000000E-03 0. -1.
         11   -1    0    0    0    0 -0.00000000000E+00 -0.00000000000E+00 -0.45593999997E+02  0.45594000000E+02  0.51100000000E-03 0.  1.
    9900012    2    1    2    0    0 -0.10604449039E+01 -0.51729010146E+00  0.29431439063E-01  0.90007746361E+02  0.90000007813E+02 0.  0.
        -12    1    1    2    0    0  0.10604449039E+01  0.51729010146E+00 -0.29431439063E-01  0.11802536393E+01  0.00000000000E+00 0.  1.
         11    1    3    3    0    0  0.24619124314E+02  0.97089520502E+01  0.21006015441E+02  0.33787833859E+02  0.51100000000E-03 0. -1.
        -11    1    3    3    0    0  0.89104988520E+00  0.10838198223E+02  0.64193667297E+01  0.12628094872E+02  0.51100000000E-03 0.  1.
        -12    1    3    3    0    0 -0.26570619103E+02 -0.21064440375E+02 -0.27395950731E+02  0.43591817630E+02  0.00000000000E+00 0.  1.
</event>
<event>
 7    1  0.2294706E-015  0.9000774E+02  0.7816164E-02  0.1186339E+00
        -11   -1    0    0    0    0  0.00000000000E+00  0.00000000000E+00  0.45593999997E+02  0.45594000000E+02  0.51100000000E-03 0.  1.
         11   -1    0    0    0    0 -0.00000000000E+00 -0.00000000000E+00 -0.45593999997E+02  0.45594000000E+02  0.51100000000E-03 0. -1.
    9900012    2    1    2    0    0  0.32579690118E+00  0.94627165488E+00  0.62565141177E+00  0.90007740133E+02  0.90000001502E+02 0.  0.
        -12    1    1    2    0    0 -0.32579690118E+00 -0.94627165488E+00 -0.62565141177E+00  0.11802598674E+01  0.00000000000E+00 0.  1.
         11    1    3    3    0    0  0.15193576805E+02 -0.91465846765E+01 -0.36637022672E+02  0.40703516039E+02  0.51100000000E-03 0. -1.
        -11    1    3    3    0    0  0.44996277658E+01 -0.10454268367E+01 -0.12452418585E+01  0.47843698486E+01  0.51100000000E-03 0.  1.
        -12    1    3    3    0    0 -0.19367407670E+02  0.11138283168E+02  0.38507915942E+02  0.44519854245E+02  0.00000000000E+00 0.  1.
</event>
<event>
 7    1  0.2294706E-015  0.9000778E+02  0.7816164E-02  0.1186339E+00
        -11   -1    0    0    0    0  0.00000000000E+00  0.00000000000E+00  0.45593999997E+02  0.45594000000E+02  0.51100000000E-03 0.  1.
         11   -1    0    0    0    0 -0.00000000000E+00 -0.00000000000E+00 -0.45593999997E+02  0.45594000000E+02  0.51100000000E-03 0. -1.
    9900012    2    1    2    0    0 -0.32030594109E+00 -0.59624644237E+00 -0.96686052932E+00  0.90007777564E+02  0.90000039428E+02 0.  0.
        -12    1    1    2    0    0  0.32030594109E+00  0.59624644237E+00  0.96686052932E+00  0.11802224363E+01  0.00000000000E+00 0.  1.
         11    1    3    3    0    0 -0.98473703222E+01 -0.14400343667E+02 -0.33953270928E+02  0.38172833363E+02  0.51100000000E-03 0. -1.
        -11    1    3    3    0    0  0.62709360746E+01 -0.11504004224E+01 -0.67307422891E+01  0.92709736494E+01  0.51100000000E-03 0.  1.
        -12    1    3    3    0    0  0.32561283065E+01  0.14954497647E+02  0.39717152688E+02  0.42563970551E+02  0.00000000000E+00 0.  1.
</event>
<event>
 7    1  0.2294706E-015  0.9000778E+02  0.7816164E-02  0.1186339E+00
        -11   -1    0    0    0    0  0.00000000000E+00  0.00000000000E+00  0.45593999997E+02  0.45594000000E+02  0.51100000000E-03 0. -1.
         11   -1    0    0    0    0 -0.00000000000E+00 -0.00000000000E+00 -0.45593999997E+02  0.45594000000E+02  0.51100000000E-03 0.  1.
    9900012    2    1    2    0    0 -0.82235145136E+00  0.73270579034E+00 -0.42401870931E+00  0.90007783261E+02  0.90000045200E+02 0.  0.
        -12    1    1    2    0    0  0.82235145136E+00 -0.73270579034E+00  0.42401870931E+00  0.11802167388E+01  0.00000000000E+00 0.  1.
         11    1    3    3    0    0  0.13285766922E+01 -0.82625741071E+01 -0.12868086626E+02  0.15350013048E+02  0.51100000000E-03 0. -1.
        -11    1    3    3    0    0 -0.11837794782E+01 -0.24672314937E+02  0.28187256116E+02  0.37478605441E+02  0.51100000000E-03 0.  1.
         12    1    3    3    0    0 -0.96714866535E+00  0.33667594835E+02 -0.15743188199E+02  0.37179164772E+02  0.00000000000E+00 0. -1.
</event>
<event>
 7    1  0.2294706E-015  0.9000703E+02  0.7816164E-02  0.1186340E+00
        -11   -1    0    0    0    0  0.00000000000E+00  0.00000000000E+00  0.45593999997E+02  0.45594000000E+02  0.51100000000E-03 0. -1.
         11   -1    0    0    0    0 -0.00000000000E+00 -0.00000000000E+00 -0.45593999997E+02  0.45594000000E+02  0.51100000000E-03 0.  1.
    9900012    2    1    2    0    0 -0.23124712704E+00  0.73857815941E+00  0.89203345264E+00  0.90007027260E+02  0.89999279217E+02 0.  0.
        -12    1    1    2    0    0  0.23124712704E+00 -0.73857815941E+00 -0.89203345264E+00  0.11809727397E+01  0.00000000000E+00 0.  1.
         11    1    3    3    0    0  0.29655485085E+01 -0.25181074927E+02  0.24829984758E+02  0.35488155147E+02  0.51100000000E-03 0. -1.
        -11    1    3    3    0    0 -0.34773986135E+01 -0.10103173631E+02  0.96030780564E+00  0.10727935956E+02  0.51100000000E-03 0.  1.
        -12    1    3    3    0    0  0.28060297795E+00  0.36022826718E+02 -0.24898259111E+02  0.43790936157E+02  0.00000000000E+00 0.  1.
</event>
<event>
 7    1  0.2294706E-015  0.9000777E+02  0.7816164E-02  0.1186339E+00
        -11   -1    0    0    0    0  0.00000000000E+00  0.00000000000E+00  0.45593999997E+02  0.45594000000E+02  0.51100000000E-03 0.  1.
         11   -1    0    0    0    0 -0.00000000000E+00 -0.00000000000E+00 -0.45593999997E+02  0.45594000000E+02  0.51100000000E-03 0. -1.
    9900012    2    1    2    0    0 -0.82359786543E+00 -0.24497728674E+00  0.80908785574E+00  0.90007766772E+02  0.90000028493E+02 0.  0.
        -12    1    1    2    0    0  0.82359786543E+00  0.24497728674E+00 -0.80908785574E+00  0.11802332283E+01  0.00000000000E+00 0.  1.
         11    1    3    3    0    0 -0.23977486661E+02 -0.77170493121E+01 -0.36110404168E+02  0.44027650472E+02  0.51100000000E-03 0. -1.
        -11    1    3    3    0    0  0.90320726197E+01  0.53147350991E+00  0.48673373079E+01  0.10273839235E+02  0.51100000000E-03 0.  1.
        -12    1    3    3    0    0  0.14121816176E+02  0.69405985155E+01  0.32052154716E+02  0.35706277064E+02  0.00000000000E+00 0.  1.
</event>
<event>
 7    1  0.2294706E-015  0.9000771E+02  0.7816164E-02  0.1186339E+00
        -11   -1    0    0    0    0  0.00000000000E+00  0.00000000000E+00  0.45593999997E+02  0.45594000000E+02  0.51100000000E-03 0.  1.
         11   -1    0    0    0    0 -0.00000000000E+00 -0.00000000000E+00 -0.45593999997E+02  0.45594000000E+02  0.51100000000E-03 0. -1.
    9900012    2    1    2    0    0  0.24030743846E+00  0.29412307495E+00 -0.11175151168E+01  0.90007705086E+02  0.89999965993E+02 0.  0.
        -12    1    1    2    0    0 -0.24030743846E+00 -0.29412307495E+00  0.11175151168E+01  0.11802949142E+01  0.00000000000E+00 0.  1.
         11    1    3    3    0    0  0.21307793112E+01 -0.76141019174E+01 -0.69730971195E+01  0.10542241326E+02  0.51100000000E-03 0. -1.
        -11    1    3    3    0    0  0.18987296453E+02 -0.19657414434E+02  0.27418981485E+02  0.38713459091E+02  0.51100000000E-03 0.  1.
         12    1    3    3    0    0 -0.20877768325E+02  0.27565639427E+02 -0.21563399483E+02  0.40752004669E+02  0.00000000000E+00 0. -1.
</event>
<event>
 7    1  0.2294706E-015  0.9000773E+02  0.7816164E-02  0.1186339E+00
        -11   -1    0    0    0    0  0.00000000000E+00  0.00000000000E+00  0.45593999997E+02  0.45594000000E+02  0.51100000000E-03 0.  1.
         11   -1    0    0    0    0 -0.00000000000E+00 -0.00000000000E+00 -0.45593999997E+02  0.45594000000E+02  0.51100000000E-03 0. -1.
    9900012    2    1    2    0    0 -0.29289410299E+00  0.70907351893E-01 -0.11411493458E+01  0.90007730269E+02  0.89999991509E+02 0.  0.
        -12    1    1    2    0    0  0.29289410299E+00 -0.70907351893E-01  0.11411493458E+01  0.11802697308E+01  0.00000000000E+00 0.  1.
         11    1    3    3    0    0 -0.39368885144E+01 -0.77124356424E+01  0.43137362807E+01  0.96741446999E+01  0.51100000000E-03 0. -1.
        -11    1    3    3    0    0 -0.18277842100E+02  0.18364771637E+01  0.31785934588E+02  0.36712365739E+02  0.51100000000E-03 0.  1.
         12    1    3    3    0    0  0.21921836512E+02  0.59468658306E+01 -0.37240820215E+02  0.43621219831E+02  0.00000000000E+00 0. -1.
</event>
<event>
 7    1  0.2294706E-015  0.9000777E+02  0.7816164E-02  0.1186339E+00
        -11   -1    0    0    0    0  0.00000000000E+00  0.00000000000E+00  0.45593999997E+02  0.45594000000E+02  0.51100000000E-03 0.  1.
         11   -1    0    0    0    0 -0.00000000000E+00 -0.00000000000E+00 -0.45593999997E+02  0.45594000000E+02  0.51100000000E-03 0. -1.
    9900012    2    1    2    0    0 -0.68055414133E+00 -0.36078480466E+00 -0.89421914661E+00  0.90007768033E+02  0.90000029771E+02 0.  0.
        -12    1    1    2    0    0  0.68055414133E+00  0.36078480466E+00  0.89421914661E+00  0.11802319673E+01  0.00000000000E+00 0.  1.
         11    1    3    3    0    0 -0.42802885693E+01  0.55607260971E+01 -0.80261449886E+01  0.10661217032E+02  0.51100000000E-03 0. -1.
        -11    1    3    3    0    0  0.42397138894E+01 -0.36152154441E+02 -0.17460501068E+02  0.40371060704E+02  0.51100000000E-03 0.  1.
         12    1    3    3    0    0 -0.63997946135E+00  0.30230643539E+02  0.24592426910E+02  0.38975490296E+02  0.00000000000E+00 0. -1.
</event>
<event>
 7    1  0.2294706E-015  0.9000770E+02  0.7816164E-02  0.1186339E+00
        -11   -1    0    0    0    0  0.00000000000E+00  0.00000000000E+00  0.45593999997E+02  0.45594000000E+02  0.51100000000E-03 0. -1.
         11   -1    0    0    0    0 -0.00000000000E+00 -0.00000000000E+00 -0.45593999997E+02  0.45594000000E+02  0.51100000000E-03 0.  1.
    9900012    2    1    2    0    0 -0.17707302882E+00  0.11618266509E+01  0.10918484604E+00  0.90007696075E+02  0.89999956863E+02 0.  0.
        -12    1    1    2    0    0  0.17707302882E+00 -0.11618266509E+01 -0.10918484604E+00  0.11803039248E+01  0.00000000000E+00 0.  1.
         11    1    3    3    0    0  0.34896940543E+02  0.76174273170E+01  0.94795802634E+01  0.36955163380E+02  0.51100000000E-03 0. -1.
        -11    1    3    3    0    0  0.65970724178E+01 -0.52902091495E+01  0.38884814650E+01  0.93074145549E+01  0.51100000000E-03 0.  1.
        -12    1    3    3    0    0 -0.41671085990E+02 -0.11653915167E+01 -0.13258876882E+02  0.43745118141E+02  0.00000000000E+00 0.  1.
</event>
<event>
 7    1  0.2294706E-015  0.9000781E+02  0.7816164E-02  0.1186339E+00
        -11   -1    0    0    0    0  0.00000000000E+00  0.00000000000E+00  0.45593999997E+02  0.45594000000E+02  0.51100000000E-03 0.  1.
         11   -1    0    0    0    0 -0.00000000000E+00 -0.00000000000E+00 -0.45593999997E+02  0.45594000000E+02  0.51100000000E-03 0. -1.
    9900012    2    1    2    0    0  0.63588414414E+00 -0.98424929454E+00 -0.14057337852E+00  0.90007806714E+02  0.90000068962E+02 0.  0.
        -12    1    1    2    0    0 -0.63588414414E+00  0.98424929454E+00  0.14057337852E+00  0.11801932864E+01  0.00000000000E+00 0.  1.
         11    1    3    3    0    0  0.16997288365E+02  0.23924548407E+02 -0.18516890254E+02  0.34701110259E+02  0.51100000000E-03 0. -1.
        -11    1    3    3    0    0 -0.17320234436E+02 -0.64861996114E+00 -0.83159575640E+01  0.19224109322E+02  0.51100000000E-03 0.  1.
         12    1    3    3    0    0  0.95883021448E+00 -0.24260177741E+02  0.26692274440E+02  0.36082587132E+02  0.00000000000E+00 0. -1.
</event>
<event>
 7    1  0.2294706E-015  0.9000784E+02  0.7816164E-02  0.1186339E+00
        -11   -1    0    0    0    0  0.00000000000E+00  0.00000000000E+00  0.45593999997E+02  0.45594000000E+02  0.51100000000E-03 0.  1.
         11   -1    0    0    0    0 -0.00000000000E+00 -0.00000000000E+00 -0.45593999997E+02  0.45594000000E+02  0.51100000000E-03 0. -1.
    9900012    2    1    2    0    0  0.99045770987E+00 -0.55798857845E+00 -0.31688862246E+00  0.90007840635E+02  0.90000103331E+02 0.  0.
        -12    1    1    2    0    0 -0.99045770987E+00  0.55798857845E+00  0.31688862246E+00  0.11801593654E+01  0.00000000000E+00 0.  1.
         11    1    3    3    0    0 -0.31741481730E+01  0.14863368877E+02 -0.60156581737E+01  0.16345736279E+02  0.51100000000E-03 0. -1.
        -11    1    3    3    0    0 -0.29373550474E+02 -0.78111819926E+01  0.20034236488E+02  0.36403168317E+02  0.51100000000E-03 0.  1.
         12    1    3    3    0    0  0.33538156357E+02 -0.76101754626E+01 -0.14335466936E+02  0.37258936038E+02  0.00000000000E+00 0. -1.
</event>
<event>
 7    1  0.2294706E-015  0.9000767E+02  0.7816164E-02  0.1186339E+00
        -11   -1    0    0    0    0  0.00000000000E+00  0.00000000000E+00  0.45593999997E+02  0.45594000000E+02  0.51100000000E-03 0.  1.
         11   -1    0    0    0    0 -0.00000000000E+00 -0.00000000000E+00 -0.45593999997E+02  0.45594000000E+02  0.51100000000E-03 0. -1.
    9900012    2    1    2    0    0  0.52548669617E+00  0.10547217686E+01 -0.67788392253E-01  0.90007673967E+02  0.89999934464E+02 0.  0.
        -12    1    1    2    0    0 -0.52548669617E+00 -0.10547217686E+01  0.67788392253E-01  0.11803260326E+01  0.00000000000E+00 0.  1.
         11    1    3    3    0    0  0.21903738038E+02  0.23387525583E+02 -0.18991440953E+02  0.37248153278E+02  0.51100000000E-03 0. -1.
        -11    1    3    3    0    0  0.83801152931E+01  0.36583772937E+01  0.48129554637E+00  0.91565114762E+01  0.51100000000E-03 0.  1.
        -12    1    3    3    0    0 -0.29758366635E+02 -0.25991181108E+02  0.18442357014E+02  0.43603009213E+02  0.00000000000E+00 0.  1.
</event>
<event>
 7    1  0.2294706E-015  0.9000760E+02  0.7816164E-02  0.1186339E+00
        -11   -1    0    0    0    0  0.00000000000E+00  0.00000000000E+00  0.45593999997E+02  0.45594000000E+02  0.51100000000E-03 0.  1.
         11   -1    0    0    0    0 -0.00000000000E+00 -0.00000000000E+00 -0.45593999997E+02  0.45594000000E+02  0.51100000000E-03 0. -1.
    9900012    2    1    2    0    0 -0.59846533057E+00 -0.96969815797E+00 -0.30802070522E+00  0.90007596669E+02  0.89999856145E+02 0.  0.
        -12    1    1    2    0    0  0.59846533057E+00  0.96969815797E+00  0.30802070522E+00  0.11804033312E+01  0.00000000000E+00 0.  1.
         11    1    3    3    0    0  0.75620114840E+01 -0.17336424200E+02 -0.36531726976E+02  0.41137606856E+02  0.51100000000E-03 0. -1.
        -11    1    3    3    0    0  0.42973078257E+01  0.72591137032E+01 -0.10759251693E+01  0.85040697043E+01  0.51100000000E-03 0.  1.
        -12    1    3    3    0    0 -0.12457784640E+02  0.91076123393E+01  0.37299631440E+02  0.40365920109E+02  0.00000000000E+00 0.  1.
</event>
<event>
 7    1  0.2294706E-015  0.9000773E+02  0.7816164E-02  0.1186339E+00
        -11   -1    0    0    0    0  0.00000000000E+00  0.00000000000E+00  0.45593999997E+02  0.45594000000E+02  0.51100000000E-03 0.  1.
         11   -1    0    0    0    0 -0.00000000000E+00 -0.00000000000E+00 -0.45593999997E+02  0.45594000000E+02  0.51100000000E-03 0. -1.
    9900012    2    1    2    0    0 -0.61698088754E+00  0.65386723794E+00 -0.76474040895E+00  0.90007730678E+02  0.89999991922E+02 0.  0.
        -12    1    1    2    0    0  0.61698088754E+00 -0.65386723794E+00  0.76474040895E+00  0.11802693225E+01  0.00000000000E+00 0.  1.
         11    1    3    3    0    0 -0.38718115299E+01  0.19276246840E+01  0.89448857044E+01  0.99356752146E+01  0.51100000000E-03 0. -1.
        -11    1    3    3    0    0 -0.18214188252E+01 -0.13866021055E+02  0.32687771844E+02  0.35553825882E+02  0.51100000000E-03 0.  1.
         12    1    3    3    0    0  0.50762494676E+01  0.12592263609E+02 -0.42397397957E+02  0.44518229581E+02  0.00000000000E+00 0. -1.
</event>
<event>
 7    1  0.2294706E-015  0.9000735E+02  0.7816164E-02  0.1186340E+00
        -11   -1    0    0    0    0  0.00000000000E+00  0.00000000000E+00  0.45593999997E+02  0.45594000000E+02  0.51100000000E-03 0. -1.
         11   -1    0    0    0    0 -0.00000000000E+00 -0.00000000000E+00 -0.45593999997E+02  0.45594000000E+02  0.51100000000E-03 0.  1.
    9900012    2    1    2    0    0 -0.10240026624E+01 -0.55949138623E+00  0.17979583036E+00  0.90007348229E+02  0.89999604425E+02 0.  0.
        -12    1    1    2    0    0  0.10240026624E+01  0.55949138623E+00 -0.17979583036E+00  0.11806517710E+01  0.00000000000E+00 0.  1.
         11    1    3    3    0    0  0.13248988169E+02 -0.17737852590E+02  0.60524520124E+00  0.22147989164E+02  0.51100000000E-03 0. -1.
        -11    1    3    3    0    0  0.11167676866E+02 -0.19895876673E+02 -0.16861991536E+01  0.22878072100E+02  0.51100000000E-03 0.  1.
         12    1    3    3    0    0 -0.25440667697E+02  0.37074237876E+02  0.12607497827E+01  0.44981286965E+02  0.00000000000E+00 0. -1.
</event>
<event>
 7    1  0.2294706E-015  0.9000759E+02  0.7816164E-02  0.1186339E+00
        -11   -1    0    0    0    0  0.00000000000E+00  0.00000000000E+00  0.45593999997E+02  0.45594000000E+02  0.51100000000E-03 0.  1.
         11   -1    0    0    0    0 -0.00000000000E+00 -0.00000000000E+00 -0.45593999997E+02  0.45594000000E+02  0.51100000000E-03 0. -1.
    9900012    2    1    2    0    0  0.51887707795E+00  0.83443633843E+00 -0.65410829510E+00  0.90007586900E+02  0.89999846247E+02 0.  0.
        -12    1    1    2    0    0 -0.51887707795E+00 -0.83443633843E+00  0.65410829510E+00  0.11804131000E+01  0.00000000000E+00 0.  1.
         11    1    3    3    0    0 -0.12388137173E+02 -0.22381261923E+01 -0.40658609597E+01  0.13228997584E+02  0.51100000000E-03 0. -1.
        -11    1    3    3    0    0  0.17576990853E+02 -0.26316469087E+02  0.24737950557E+02  0.40168063815E+02  0.51100000000E-03 0.  1.
         12    1    3    3    0    0 -0.46699766018E+01  0.29389031618E+02 -0.21326197892E+02  0.36610525500E+02  0.00000000000E+00 0. -1.
</event>
<event>
 7    1  0.2294706E-015  0.9000773E+02  0.7816164E-02  0.1186339E+00
        -11   -1    0    0    0    0  0.00000000000E+00  0.00000000000E+00  0.45593999997E+02  0.45594000000E+02  0.51100000000E-03 0. -1.
         11   -1    0    0    0    0 -0.00000000000E+00 -0.00000000000E+00 -0.45593999997E+02  0.45594000000E+02  0.51100000000E-03 0.  1.
    9900012    2    1    2    0    0 -0.64587997114E+00 -0.46922685602E+00  0.86931067109E+00  0.90007730614E+02  0.89999991859E+02 0.  0.
        -12    1    1    2    0    0  0.64587997114E+00  0.46922685602E+00 -0.86931067109E+00  0.11802693855E+01  0.00000000000E+00 0.  1.
         11    1    3    3    0    0  0.33931075611E+02 -0.18983447762E+02  0.18472088606E+02  0.43045409033E+02  0.51100000000E-03 0. -1.
        -11    1    3    3    0    0  0.18960910200E+01  0.14377901262E+01 -0.36184503035E+01  0.43307718092E+01  0.51100000000E-03 0.  1.
        -12    1    3    3    0    0 -0.36473046603E+02  0.17076430780E+02 -0.13984327632E+02  0.42631549772E+02  0.00000000000E+00 0.  1.
</event>
<event>
 7    1  0.2294706E-015  0.9000770E+02  0.7816164E-02  0.1186339E+00
        -11   -1    0    0    0    0  0.00000000000E+00  0.00000000000E+00  0.45593999997E+02  0.45594000000E+02  0.51100000000E-03 0. -1.
         11   -1    0    0    0    0 -0.00000000000E+00 -0.00000000000E+00 -0.45593999997E+02  0.45594000000E+02  0.51100000000E-03 0.  1.
    9900012    2    1    2    0    0 -0.81690972411E-01  0.10858633169E+01  0.45534670112E+00  0.90007697845E+02  0.89999958657E+02 0.  0.
        -12    1    1    2    0    0  0.81690972411E-01 -0.10858633169E+01 -0.45534670112E+00  0.11803021546E+01  0.00000000000E+00 0.  1.
         11    1    3    3    0    0  0.76754398313E+01 -0.97275120380E-01  0.20260835165E+02  0.21666178271E+02  0.51100000000E-03 0. -1.
        -11    1    3    3    0    0 -0.41652019779E+01 -0.27202578404E+02 -0.27300579801E+02  0.38764040516E+02  0.51100000000E-03 0.  1.
         12    1    3    3    0    0 -0.35919288258E+01  0.28385716842E+02  0.74950913373E+01  0.29577479059E+02  0.00000000000E+00 0. -1.
</event>
<event>
 7    1  0.3255375E-015  0.9000777E+02  0.7816164E-02  0.1186339E+00
        -11   -1    0    0    0    0  0.00000000000E+00  0.00000000000E+00  0.45593999997E+02  0.45594000000E+02  0.51100000000E-03 0.  1.
         11   -1    0    0    0    0 -0.00000000000E+00 -0.00000000000E+00 -0.45593999997E+02  0.45594000000E+02  0.51100000000E-03 0. -1.
    9900012    2    1    2    0    0  0.67929505277E+00  0.56512814504E+00 -0.78239006317E+00  0.90007768751E+02  0.90000030499E+02 0.  0.
        -12    1    1    2    0    0 -0.67929505277E+00 -0.56512814504E+00  0.78239006317E+00  0.11802312485E+01  0.00000000000E+00 0.  1.
         11    1    3    3    0    0 -0.29232906794E+01 -0.34807760086E+02 -0.94913413926E+01  0.36196841745E+02  0.51100000000E-03 0. -1.
        -11    1    3    3    0    0 -0.12889367630E+01 -0.56607275689E+01 -0.74455102167E+01  0.94414414809E+01  0.51100000000E-03 0.  1.
        -12    1    3    3    0    0  0.48915224952E+01  0.41033615800E+02  0.16154461546E+02  0.44369485526E+02  0.00000000000E+00 0.  1.
</event>
<event>
 7    1  0.2294706E-015  0.9000746E+02  0.7816164E-02  0.1186340E+00
        -11   -1    0    0    0    0  0.00000000000E+00  0.00000000000E+00  0.45593999997E+02  0.45594000000E+02  0.51100000000E-03 0.  1.
         11   -1    0    0    0    0 -0.00000000000E+00 -0.00000000000E+00 -0.45593999997E+02  0.45594000000E+02  0.51100000000E-03 0. -1.
    9900012    2    1    2    0    0 -0.19942554471E-01  0.10625176662E+01  0.51413825784E+00  0.90007457902E+02  0.89999715546E+02 0.  0.
        -12    1    1    2    0    0  0.19942554471E-01 -0.10625176662E+01 -0.51413825784E+00  0.11805420977E+01  0.00000000000E+00 0.  1.
         11    1    3    3    0    0  0.33949444890E+02 -0.24467546497E+02 -0.11127571194E+01  0.41862439831E+02  0.51100000000E-03 0. -1.
        -11    1    3    3    0    0 -0.21436137513E+01  0.37362475896E+01 -0.73704825422E+01  0.85368986834E+01  0.51100000000E-03 0.  1.
        -12    1    3    3    0    0 -0.31825773693E+02  0.21793816573E+02  0.89973779194E+01  0.39608119388E+02  0.00000000000E+00 0.  1.
</event>
<event>
 7    1  0.2294706E-015  0.9000781E+02  0.7816164E-02  0.1186339E+00
        -11   -1    0    0    0    0  0.00000000000E+00  0.00000000000E+00  0.45593999997E+02  0.45594000000E+02  0.51100000000E-03 0. -1.
         11   -1    0    0    0    0 -0.00000000000E+00 -0.00000000000E+00 -0.45593999997E+02  0.45594000000E+02  0.51100000000E-03 0.  1.
    9900012    2    1    2    0    0 -0.47591369291E+00 -0.74136656469E+00  0.78531820259E+00  0.90007812343E+02  0.90000074666E+02 0.  0.
        -12    1    1    2    0    0  0.47591369291E+00  0.74136656469E+00 -0.78531820259E+00  0.11801876570E+01  0.00000000000E+00 0.  1.
         11    1    3    3    0    0  0.20686698900E+00 -0.54019617244E+01  0.29093031040E+01  0.61390576830E+01  0.51100000000E-03 0. -1.
        -11    1    3    3    0    0  0.41324627121E+02 -0.15216413971E+01 -0.21570143903E+01  0.41408850631E+02  0.51100000000E-03 0.  1.
         12    1    3    3    0    0 -0.42007407803E+02  0.61822365568E+01  0.33029488972E-01  0.42459904029E+02  0.00000000000E+00 0. -1.
</event>
<event>
 7    1  0.2294706E-015  0.9000775E+02  0.7816164E-02  0.1186339E+00
        -11   -1    0    0    0    0  0.00000000000E+00  0.00000000000E+00  0.45593999997E+02  0.45594000000E+02  0.51100000000E-03 0.  1.
         11   -1    0    0    0    0 -0.00000000000E+00 -0.00000000000E+00 -0.45593999997E+02  0.45594000000E+02  0.51100000000E-03 0. -1.
    9900012    2    1    2    0    0  0.87061746747E+00  0.63148146811E+00 -0.48606043401E+00  0.90007746483E+02  0.90000007936E+02 0.  0.
        -12    1    1    2    0    0 -0.87061746747E+00 -0.63148146811E+00  0.48606043401E+00  0.11802535172E+01  0.00000000000E+00 0.  1.
         11    1    3    3    0    0 -0.22512675794E+01 -0.10631618135E+02 -0.19329728128E+01  0.11037929790E+02  0.51100000000E-03 0. -1.
        -11    1    3    3    0    0 -0.33154904633E+02  0.11352482871E+02  0.17650513100E+02  0.39238593012E+02  0.51100000000E-03 0.  1.
         12    1    3    3    0    0  0.36276789680E+02 -0.89383267607E-01 -0.16203600721E+02  0.39731223681E+02  0.00000000000E+00 0. -1.
</event>
<event>
 7    1  0.2294706E-015  0.9000782E+02  0.7816164E-02  0.1186339E+00
        -11   -1    0    0    0    0  0.00000000000E+00  0.00000000000E+00  0.45593999997E+02  0.45594000000E+02  0.51100000000E-03 0.  1.
         11   -1    0    0    0    0 -0.00000000000E+00 -0.00000000000E+00 -0.45593999997E+02  0.45594000000E+02  0.51100000000E-03 0. -1.
    9900012    2    1    2    0    0  0.88372842735E-01  0.58426579341E+00 -0.10215914384E+01  0.90007819783E+02  0.90000082205E+02 0.  0.
        -12    1    1    2    0    0 -0.88372842735E-01 -0.58426579341E+00  0.10215914384E+01  0.11801802166E+01  0.00000000000E+00 0.  1.
         11    1    3    3    0    0  0.26815846924E+01 -0.97199184168E+01 -0.32386737183E+01  0.10590406895E+02  0.51100000000E-03 0. -1.
        -11    1    3    3    0    0  0.12828822280E+02 -0.30197303513E+02  0.12094761767E+02  0.34967686269E+02  0.51100000000E-03 0.  1.
         12    1    3    3    0    0 -0.15422034129E+02  0.40501487723E+02 -0.98776794868E+01  0.44449726619E+02  0.00000000000E+00 0. -1.
</event>
<event>
 7    1  0.2294706E-015  0.9000773E+02  0.7816164E-02  0.1186339E+00
        -11   -1    0    0    0    0  0.00000000000E+00  0.00000000000E+00  0.45593999997E+02  0.45594000000E+02  0.51100000000E-03 0.  1.
         11   -1    0    0    0    0 -0.00000000000E+00 -0.00000000000E+00 -0.45593999997E+02  0.45594000000E+02  0.51100000000E-03 0. -1.
    9900012    2    1    2    0    0 -0.72879091439E+00  0.72276314315E+00 -0.58267290378E+00  0.90007732882E+02  0.89999994156E+02 0.  0.
        -12    1    1    2    0    0  0.72879091439E+00 -0.72276314315E+00  0.58267290378E+00  0.11802671184E+01  0.00000000000E+00 0.  1.
         11    1    3    3    0    0 -0.54208892999E+01 -0.36117395558E+02  0.29869619957E+01  0.36643884140E+02  0.51100000000E-03 0. -1.
        -11    1    3    3    0    0  0.35001102596E+01 -0.52047156642E+01 -0.89821051141E+01  0.10955274963E+02  0.51100000000E-03 0.  1.
        -12    1    3    3    0    0  0.11919881259E+01  0.42044874365E+02  0.54124702146E+01  0.42408573778E+02  0.00000000000E+00 0.  1.
</event>
<event>
 7    1  0.2294706E-015  0.9000780E+02  0.7816164E-02  0.1186339E+00
        -11   -1    0    0    0    0  0.00000000000E+00  0.00000000000E+00  0.45593999997E+02  0.45594000000E+02  0.51100000000E-03 0. -1.
         11   -1    0    0    0    0 -0.00000000000E+00 -0.00000000000E+00 -0.45593999997E+02  0.45594000000E+02  0.51100000000E-03 0.  1.
    9900012    2    1    2    0    0 -0.37599463902E+00 -0.68480044947E+00  0.88461536775E+00  0.90007801723E+02  0.90000063906E+02 0.  0.
        -12    1    1    2    0    0  0.37599463902E+00  0.68480044947E+00 -0.88461536775E+00  0.11801982770E+01  0.00000000000E+00 0.  1.
         11    1    3    3    0    0 -0.19494420040E+02  0.30313608419E+02  0.10351000882E+02  0.37497873107E+02  0.51100000000E-03 0. -1.
        -11    1    3    3    0    0 -0.85764536895E+01 -0.13865767195E+01  0.42976744660E+01  0.96926858489E+01  0.51100000000E-03 0.  1.
        -12    1    3    3    0    0  0.27694879090E+02 -0.29611832149E+02 -0.13764059981E+02  0.42817242767E+02  0.00000000000E+00 0.  1.
</event>
<event>
 7    1  0.2294706E-015  0.9000681E+02  0.7816164E-02  0.1186341E+00
        -11   -1    0    0    0    0  0.00000000000E+00  0.00000000000E+00  0.45593999997E+02  0.45594000000E+02  0.51100000000E-03 0. -1.
         11   -1    0    0    0    0 -0.00000000000E+00 -0.00000000000E+00 -0.45593999997E+02  0.45594000000E+02  0.51100000000E-03 0.  1.
    9900012    2    1    2    0    0  0.54636501146E+00 -0.23440531596E+00  0.10206559704E+01  0.90006814499E+02  0.89999063646E+02 0.  0.
        -12    1    1    2    0    0 -0.54636501146E+00  0.23440531596E+00 -0.10206559704E+01  0.11811855010E+01  0.00000000000E+00 0.  1.
         11    1    3    3    0    0 -0.27677378970E+02 -0.19671220882E+02 -0.11426215890E+01  0.33974988183E+02  0.51100000000E-03 0. -1.
        -11    1    3    3    0    0  0.53258110770E+01 -0.88217768244E+01  0.14355849721E+02  0.17671401513E+02  0.51100000000E-03 0.  1.
        -12    1    3    3    0    0  0.22897932905E+02  0.28258592391E+02 -0.12192572161E+02  0.38360424804E+02  0.00000000000E+00 0.  1.
</event>
<event>
 7    1  0.2294706E-015  0.9000773E+02  0.7816164E-02  0.1186339E+00
        -11   -1    0    0    0    0  0.00000000000E+00  0.00000000000E+00  0.45593999997E+02  0.45594000000E+02  0.51100000000E-03 0. -1.
         11   -1    0    0    0    0 -0.00000000000E+00 -0.00000000000E+00 -0.45593999997E+02  0.45594000000E+02  0.51100000000E-03 0.  1.
    9900012    2    1    2    0    0  0.48851456552E+00  0.19198748918E-01  0.10742547266E+01  0.90007729569E+02  0.89999990799E+02 0.  0.
        -12    1    1    2    0    0 -0.48851456552E+00 -0.19198748918E-01 -0.10742547266E+01  0.11802704310E+01  0.00000000000E+00 0.  1.
         11    1    3    3    0    0  0.12528790620E+01  0.10059819227E+02  0.26989121287E+01  0.10490652781E+02  0.51100000000E-03 0. -1.
        -11    1    3    3    0    0  0.28817509103E+02  0.20653223163E+02 -0.81845088844E+01  0.36386682232E+02  0.51100000000E-03 0.  1.
         12    1    3    3    0    0 -0.29581873599E+02 -0.30693843641E+02  0.65598514823E+01  0.43130394556E+02  0.00000000000E+00 0. -1.
</event>
<event>
 7    1  0.2294706E-015  0.9000786E+02  0.7816164E-02  0.1186339E+00
        -11   -1    0    0    0    0  0.00000000000E+00  0.00000000000E+00  0.45593999997E+02  0.45594000000E+02  0.51100000000E-03 0.  1.
         11   -1    0    0    0    0 -0.00000000000E+00 -0.00000000000E+00 -0.45593999997E+02  0.45594000000E+02  0.51100000000E-03 0. -1.
    9900012    2    1    2    0    0  0.75679179669E+00 -0.11679370909E-01 -0.90545736637E+00  0.90007863028E+02  0.90000126020E+02 0.  0.
        -12    1    1    2    0    0 -0.75679179669E+00  0.11679370909E-01  0.90545736637E+00  0.11801369724E+01  0.00000000000E+00 0.  1.
         11    1    3    3    0    0 -0.99365857262E+01 -0.18134090334E+01 -0.11772121732E+01  0.10169071589E+02  0.51100000000E-03 0. -1.
        -11    1    3    3    0    0 -0.19390049140E+00  0.36844068762E+02  0.15677559611E+02  0.40041339588E+02  0.51100000000E-03 0.  1.
         12    1    3    3    0    0  0.10887278014E+02 -0.35042339100E+02 -0.15405804805E+02  0.39797451851E+02  0.00000000000E+00 0. -1.
</event>
<event>
 7    1  0.2294706E-015  0.9000758E+02  0.7816164E-02  0.1186339E+00
        -11   -1    0    0    0    0  0.00000000000E+00  0.00000000000E+00  0.45593999997E+02  0.45594000000E+02  0.51100000000E-03 0.  1.
         11   -1    0    0    0    0 -0.00000000000E+00 -0.00000000000E+00 -0.45593999997E+02  0.45594000000E+02  0.51100000000E-03 0. -1.
    9900012    2    1    2    0    0 -0.51784455811E+00  0.10435345841E+01 -0.19041196256E+00  0.90007583069E+02  0.89999842366E+02 0.  0.
        -12    1    1    2    0    0  0.51784455811E+00 -0.10435345841E+01  0.19041196256E+00  0.11804169306E+01  0.00000000000E+00 0.  1.
         11    1    3    3    0    0  0.24216078046E+02 -0.28632574864E+02 -0.44840310823E+01  0.37767040052E+02  0.51100000000E-03 0. -1.
        -11    1    3    3    0    0 -0.16892095992E+01 -0.63559351769E+01  0.67174440258E+01  0.94008188762E+01  0.51100000000E-03 0.  1.
        -12    1    3    3    0    0 -0.23044713005E+02  0.36032044625E+02 -0.24238249061E+01  0.42839724141E+02  0.00000000000E+00 0.  1.
</event>
<event>
 7    1  0.2294706E-015  0.9000778E+02  0.7816164E-02  0.1186339E+00
        -11   -1    0    0    0    0  0.00000000000E+00  0.00000000000E+00  0.45593999997E+02  0.45594000000E+02  0.51100000000E-03 0. -1.
         11   -1    0    0    0    0 -0.00000000000E+00 -0.00000000000E+00 -0.45593999997E+02  0.45594000000E+02  0.51100000000E-03 0.  1.
    9900012    2    1    2    0    0 -0.98072283944E+00 -0.74405686171E-02  0.65653969956E+00  0.90007780941E+02  0.90000042850E+02 0.  0.
        -12    1    1    2    0    0  0.98072283944E+00  0.74405686171E-02 -0.65653969956E+00  0.11802190589E+01  0.00000000000E+00 0.  1.
         11    1    3    3    0    0 -0.28661177846E+02  0.19518610310E+02 -0.67124502715E+01  0.35319912980E+02  0.51100000000E-03 0. -1.
        -11    1    3    3    0    0  0.32368772201E+01  0.11661947032E+02 -0.51194043077E+01  0.13141030532E+02  0.51100000000E-03 0.  1.
        -12    1    3    3    0    0  0.24443577787E+02 -0.31187997911E+02  0.12488394279E+02  0.41546837429E+02  0.00000000000E+00 0.  1.
</event>
<event>
 7    1  0.2294706E-015  0.9000772E+02  0.7816164E-02  0.1186339E+00
        -11   -1    0    0    0    0  0.00000000000E+00  0.00000000000E+00  0.45593999997E+02  0.45594000000E+02  0.51100000000E-03 0.  1.
         11   -1    0    0    0    0 -0.00000000000E+00 -0.00000000000E+00 -0.45593999997E+02  0.45594000000E+02  0.51100000000E-03 0. -1.
    9900012    2    1    2    0    0 -0.78129381861E+00  0.60719276250E+00  0.64338781411E+00  0.90007724201E+02  0.89999985361E+02 0.  0.
        -12    1    1    2    0    0  0.78129381861E+00 -0.60719276250E+00 -0.64338781411E+00  0.11802757988E+01  0.00000000000E+00 0.  1.
         11    1    3    3    0    0 -0.44489807331E+01 -0.82583557767E+01 -0.10963391365E+01  0.94443543697E+01  0.51100000000E-03 0. -1.
        -11    1    3    3    0    0 -0.20759311815E+02 -0.14273021737E+02  0.28159534982E+02  0.37783959390E+02  0.51100000000E-03 0.  1.
         12    1    3    3    0    0  0.24426998729E+02  0.23138570276E+02 -0.26419808032E+02  0.42779410442E+02  0.00000000000E+00 0. -1.
</event>
<event>
 7    1  0.2294706E-015  0.9000778E+02  0.7816164E-02  0.1186339E+00
        -11   -1    0    0    0    0  0.00000000000E+00  0.00000000000E+00  0.45593999997E+02  0.45594000000E+02  0.51100000000E-03 0.  1.
         11   -1    0    0    0    0 -0.00000000000E+00 -0.00000000000E+00 -0.45593999997E+02  0.45594000000E+02  0.51100000000E-03 0. -1.
    9900012    2    1    2    0    0 -0.69622741289E+00  0.41466234539E+00 -0.85804958779E+00  0.90007776900E+02  0.90000038755E+02 0.  0.
        -12    1    1    2    0    0  0.69622741289E+00 -0.41466234539E+00  0.85804958779E+00  0.11802231002E+01  0.00000000000E+00 0.  1.
         11    1    3    3    0    0  0.10369954919E+02 -0.67554751314E+00  0.42127423852E+01  0.11213363819E+02  0.51100000000E-03 0. -1.
        -11    1    3    3    0    0 -0.11863790874E+02  0.16283696574E+02  0.32512252996E+02  0.38248593480E+02  0.51100000000E-03 0.  1.
         12    1    3    3    0    0  0.79760854157E+00 -0.15193486716E+02 -0.37583044969E+02  0.40545819601E+02  0.00000000000E+00 0. -1.
</event>
<event>
 7    1  0.2294706E-015  0.9000772E+02  0.7816164E-02  0.1186339E+00
        -11   -1    0    0    0    0  0.00000000000E+00  0.00000000000E+00  0.45593999997E+02  0.45594000000E+02  0.51100000000E-03 0. -1.
         11   -1    0    0    0    0 -0.00000000000E+00 -0.00000000000E+00 -0.45593999997E+02  0.45594000000E+02  0.51100000000E-03 0.  1.
    9900012    2    1    2    0    0  0.83285749258E-02  0.11748127539E+01  0.11314777958E+00  0.90007721731E+02  0.89999982858E+02 0.  0.
        -12    1    1    2    0    0 -0.83285749258E-02 -0.11748127539E+01 -0.11314777958E+00  0.11802782688E+01  0.00000000000E+00 0.  1.
         11    1    3    3    0    0  0.13707566159E+02  0.34907862481E+02  0.11309473264E+02  0.39170912917E+02  0.51100000000E-03 0. -1.
        -11    1    3    3    0    0 -0.57999808874E+01  0.20497718820E+01  0.74987146643E+01  0.96990754683E+01  0.51100000000E-03 0.  1.
        -12    1    3    3    0    0 -0.78992566968E+01 -0.35782821609E+02 -0.18695040149E+02  0.41137733346E+02  0.00000000000E+00 0.  1.
</event>
<event>
 7    1  0.2294706E-015  0.9000724E+02  0.7816164E-02  0.1186340E+00
        -11   -1    0    0    0    0  0.00000000000E+00  0.00000000000E+00  0.45593999997E+02  0.45594000000E+02  0.51100000000E-03 0.  1.
         11   -1    0    0    0    0 -0.00000000000E+00 -0.00000000000E+00 -0.45593999997E+02  0.45594000000E+02  0.51100000000E-03 0. -1.
    9900012    2    1    2    0    0  0.36842954848E+00  0.90863652606E+00 -0.65790709874E+00  0.90007236510E+02  0.89999491231E+02 0.  0.
        -12    1    1    2    0    0 -0.36842954848E+00 -0.90863652606E+00  0.65790709874E+00  0.11807634900E+01  0.00000000000E+00 0.  1.
         11    1    3    3    0    0 -0.46918984241E+01  0.12074267408E+02 -0.36371787589E+02  0.38609697965E+02  0.51100000000E-03 0. -1.
        -11    1    3    3    0    0  0.56852486322E+01  0.10037677492E+02  0.22140589929E+01  0.11746449631E+02  0.51100000000E-03 0.  1.
        -12    1    3    3    0    0 -0.62492065962E+00 -0.21203308373E+02  0.33499821497E+02  0.39651088915E+02  0.00000000000E+00 0.  1.
</event>
<event>
 7    1  0.2294706E-015  0.9000775E+02  0.7816164E-02  0.1186339E+00
        -11   -1    0    0    0    0  0.00000000000E+00  0.00000000000E+00  0.45593999997E+02  0.45594000000E+02  0.51100000000E-03 0.  1.
         11   -1    0    0    0    0 -0.00000000000E+00 -0.00000000000E+00 -0.45593999997E+02  0.45594000000E+02  0.51100000000E-03 0. -1.
    9900012    2    1    2    0    0 -0.94120649333E+00  0.13315018669E+00 -0.69956530200E+00  0.90007749922E+02  0.90000011421E+02 0.  0.
        -12    1    1    2    0    0  0.94120649333E+00 -0.13315018669E+00  0.69956530200E+00  0.11802500782E+01  0.00000000000E+00 0.  1.
         11    1    3    3    0    0  0.28433228302E+02 -0.58099045581E+01 -0.25959310338E+02  0.38936990846E+02  0.51100000000E-03 0. -1.
        -11    1    3    3    0    0  0.47021856300E+01 -0.46037092501E+01  0.10659277939E+02  0.12526966712E+02  0.51100000000E-03 0.  1.
        -12    1    3    3    0    0 -0.34076620425E+02  0.10546763995E+02  0.14600467097E+02  0.38543792364E+02  0.00000000000E+00 0.  1.
</event>
<event>
 7    1  0.2294706E-015  0.9000768E+02  0.7816164E-02  0.1186339E+00
        -11   -1    0    0    0    0  0.00000000000E+00  0.00000000000E+00  0.45593999997E+02  0.45594000000E+02  0.51100000000E-03 0. -1.
         11   -1    0    0    0    0 -0.00000000000E+00 -0.00000000000E+00 -0.45593999997E+02  0.45594000000E+02  0.51100000000E-03 0.  1.
    9900012    2    1    2    0    0 -0.31838323904E+00  0.39100134894E-01  0.11358970749E+01  0.90007678488E+02  0.89999939044E+02 0.  0.
        -12    1    1    2    0    0  0.31838323904E+00 -0.39100134894E-01 -0.11358970749E+01  0.11803215122E+01  0.00000000000E+00 0.  1.
         11    1    3    3    0    0  0.17900950565E+01  0.29465421365E+01 -0.32170915937E+01  0.47155306654E+01  0.51100000000E-03 0. -1.
        -11    1    3    3    0    0 -0.35952267131E+02  0.15615740756E+02 -0.15197450384E+02  0.42040211342E+02  0.51100000000E-03 0.  1.
         12    1    3    3    0    0  0.33843788835E+02 -0.18523182757E+02  0.19550439052E+02  0.43251936481E+02  0.00000000000E+00 0. -1.
</event>
<event>
 7    1  0.2294706E-015  0.9000775E+02  0.7816164E-02  0.1186339E+00
        -11   -1    0    0    0    0  0.00000000000E+00  0.00000000000E+00  0.45593999997E+02  0.45594000000E+02  0.51100000000E-03 0. -1.
         11   -1    0    0    0    0 -0.00000000000E+00 -0.00000000000E+00 -0.45593999997E+02  0.45594000000E+02  0.51100000000E-03 0.  1.
    9900012    2    1    2    0    0  0.67218781770E+00  0.67855428171E+00  0.69333910551E+00  0.90007749395E+02  0.90000010887E+02 0.  0.
        -12    1    1    2    0    0 -0.67218781770E+00 -0.67855428171E+00 -0.69333910551E+00  0.11802506051E+01  0.00000000000E+00 0.  1.
         11    1    3    3    0    0 -0.82853929473E+01 -0.85980710206E+01 -0.28996535076E+00  0.11943979309E+02  0.51100000000E-03 0. -1.
        -11    1    3    3    0    0 -0.21172918512E+02 -0.11826624560E+02 -0.23584122857E+02  0.33828573396E+02  0.51100000000E-03 0.  1.
         12    1    3    3    0    0  0.30130499277E+02  0.21103249862E+02  0.24567427313E+02  0.44235196690E+02  0.00000000000E+00 0. -1.
</event>
<event>
 7    1  0.2294706E-015  0.9000783E+02  0.7816164E-02  0.1186339E+00
        -11   -1    0    0    0    0  0.00000000000E+00  0.00000000000E+00  0.45593999997E+02  0.45594000000E+02  0.51100000000E-03 0.  1.
         11   -1    0    0    0    0 -0.00000000000E+00 -0.00000000000E+00 -0.45593999997E+02  0.45594000000E+02  0.51100000000E-03 0. -1.
    9900012    2    1    2    0    0 -0.16655953983E+00  0.11427700961E+01  0.24316579650E+00  0.90007832564E+02  0.90000095154E+02 0.  0.
        -12    1    1    2    0    0  0.16655953983E+00 -0.11427700961E+01 -0.24316579650E+00  0.11801674362E+01  0.00000000000E+00 0.  1.
         11    1    3    3    0    0  0.29340796754E+01 -0.80295759276E+01  0.61343653019E+01  0.10522041201E+02  0.51100000000E-03 0. -1.
        -11    1    3    3    0    0  0.27461156574E+02 -0.12095770464E+02  0.18240254062E+02  0.35115945836E+02  0.51100000000E-03 0.  1.
         12    1    3    3    0    0 -0.30561795789E+02  0.21268116487E+02 -0.24131453567E+02  0.44369845526E+02  0.00000000000E+00 0. -1.
</event>
<event>
 7    1  0.2294706E-015  0.9000779E+02  0.7816164E-02  0.1186339E+00
        -11   -1    0    0    0    0  0.00000000000E+00  0.00000000000E+00  0.45593999997E+02  0.45594000000E+02  0.51100000000E-03 0. -1.
         11   -1    0    0    0    0 -0.00000000000E+00 -0.00000000000E+00 -0.45593999997E+02  0.45594000000E+02  0.51100000000E-03 0.  1.
    9900012    2    1    2    0    0  0.11314309186E+01  0.29214622270E+00  0.16558114445E+00  0.90007787115E+02  0.90000049105E+02 0.  0.
        -12    1    1    2    0    0 -0.11314309186E+01 -0.29214622270E+00 -0.16558114445E+00  0.11802128852E+01  0.00000000000E+00 0.  1.
         11    1    3    3    0    0  0.27157611137E+02  0.26939362091E+02  0.77657400403E+01  0.39032957756E+02  0.51100000000E-03 0. -1.
        -11    1    3    3    0    0 -0.21758546347E+01  0.66708585064E+01  0.43960400548E+01  0.82800884674E+01  0.51100000000E-03 0.  1.
        -12    1    3    3    0    0 -0.23850325584E+02 -0.33318074375E+02 -0.11996198951E+02  0.42694740891E+02  0.00000000000E+00 0.  1.
</event>
<event>
 7    1  0.2294706E-015  0.9000776E+02  0.7816164E-02  0.1186339E+00
        -11   -1    0    0    0    0  0.00000000000E+00  0.00000000000E+00  0.45593999997E+02  0.45594000000E+02  0.51100000000E-03 0.  1.
         11   -1    0    0    0    0 -0.00000000000E+00 -0.00000000000E+00 -0.45593999997E+02  0.45594000000E+02  0.51100000000E-03 0. -1.
    9900012    2    1    2    0    0 -0.10012544817E+01  0.22666559244E-01 -0.62445283516E+00  0.90007760341E+02  0.90000021977E+02 0.  0.
        -12    1    1    2    0    0  0.10012544817E+01 -0.22666559244E-01  0.62445283516E+00  0.11802396593E+01  0.00000000000E+00 0.  1.
         11    1    3    3    0    0 -0.31099534817E+02  0.27798384941E+01  0.19287976015E+02  0.36700607446E+02  0.51100000000E-03 0. -1.
        -11    1    3    3    0    0 -0.31086959396E+01 -0.71440879711E+00  0.88003578788E+01  0.93605912971E+01  0.51100000000E-03 0.  1.
        -12    1    3    3    0    0  0.33206976274E+02 -0.20427631378E+01 -0.28712786729E+02  0.43946561598E+02  0.00000000000E+00 0.  1.
</event>
<event>
 7    1  0.2294706E-015  0.9000758E+02  0.7816164E-02  0.1186339E+00
        -11   -1    0    0    0    0  0.00000000000E+00  0.00000000000E+00  0.45593999997E+02  0.45594000000E+02  0.51100000000E-03 0.  1.
         11   -1    0    0    0    0 -0.00000000000E+00 -0.00000000000E+00 -0.45593999997E+02  0.45594000000E+02  0.51100000000E-03 0. -1.
    9900012    2    1    2    0    0  0.11781394794E+01 -0.72691960073E-01 -0.93894942914E-02  0.90007582736E+02  0.89999842028E+02 0.  0.
        -12    1    1    2    0    0 -0.11781394794E+01  0.72691960073E-01  0.93894942914E-02  0.11804172638E+01  0.00000000000E+00 0.  1.
         11    1    3    3    0    0  0.30258418299E+02  0.65354528273E+01 -0.15665109134E+02  0.34694086903E+02  0.51100000000E-03 0. -1.
        -11    1    3    3    0    0 -0.31573903693E+00  0.11401731449E+02 -0.80114376951E+01  0.13938518766E+02  0.51100000000E-03 0.  1.
        -12    1    3    3    0    0 -0.28764539783E+02 -0.18009876237E+02  0.23667157335E+02  0.41374977067E+02  0.00000000000E+00 0.  1.
</event>
<event>
 7    1  0.2294706E-015  0.9000773E+02  0.7816164E-02  0.1186339E+00
        -11   -1    0    0    0    0  0.00000000000E+00  0.00000000000E+00  0.45593999997E+02  0.45594000000E+02  0.51100000000E-03 0.  1.
         11   -1    0    0    0    0 -0.00000000000E+00 -0.00000000000E+00 -0.45593999997E+02  0.45594000000E+02  0.51100000000E-03 0. -1.
    9900012    2    1    2    0    0 -0.23485404794E+00  0.74826975550E+00 -0.88202257848E+00  0.90007733979E+02  0.89999995268E+02 0.  0.
        -12    1    1    2    0    0  0.23485404794E+00 -0.74826975550E+00  0.88202257848E+00  0.11802660208E+01  0.00000000000E+00 0.  1.
         11    1    3    3    0    0  0.13768190008E+02  0.17649900219E+02 -0.27516890647E+02  0.35471979152E+02  0.51100000000E-03 0. -1.
        -11    1    3    3    0    0  0.10730663106E+02 -0.84879534067E+01 -0.40182661283E+01  0.14259696584E+02  0.51100000000E-03 0.  1.
        -12    1    3    3    0    0 -0.24733707161E+02 -0.84136770566E+01  0.30653134197E+02  0.40276058244E+02  0.00000000000E+00 0.  1.
</event>
<event>
 7    1  0.2294706E-015  0.9000780E+02  0.7816164E-02  0.1186339E+00
        -11   -1    0    0    0    0  0.00000000000E+00  0.00000000000E+00  0.45593999997E+02  0.45594000000E+02  0.51100000000E-03 0.  1.
         11   -1    0    0    0    0 -0.00000000000E+00 -0.00000000000E+00 -0.45593999997E+02  0.45594000000E+02  0.51100000000E-03 0. -1.
    9900012    2    1    2    0    0  0.55472573681E+00 -0.97365289031E+00 -0.37033719699E+00  0.90007800765E+02  0.90000062935E+02 0.  0.
        -12    1    1    2    0    0 -0.55472573681E+00  0.97365289031E+00  0.37033719699E+00  0.11801992346E+01  0.00000000000E+00 0.  1.
         11    1    3    3    0    0 -0.34104003225E+02 -0.14306864244E+02 -0.11627254052E+02  0.38768059501E+02  0.51100000000E-03 0. -1.
        -11    1    3    3    0    0  0.10359107052E+02 -0.94591948618E-02 -0.11424330424E+02  0.15421624892E+02  0.51100000000E-03 0.  1.
        -12    1    3    3    0    0  0.24299621909E+02  0.13342670549E+02  0.22681247279E+02  0.35818116372E+02  0.00000000000E+00 0.  1.
</event>
<event>
 7    1  0.2677633E-015  0.9000775E+02  0.7816164E-02  0.1186339E+00
        -11   -1    0    0    0    0  0.00000000000E+00  0.00000000000E+00  0.45593999997E+02  0.45594000000E+02  0.51100000000E-03 0.  1.
         11   -1    0    0    0    0 -0.00000000000E+00 -0.00000000000E+00 -0.45593999997E+02  0.45594000000E+02  0.51100000000E-03 0. -1.
    9900012    2    1    2    0    0  0.15845895818E+00 -0.11466974358E+01 -0.23014723850E+00  0.90007749178E+02  0.90000010667E+02 0.  0.
        -12    1    1    2    0    0 -0.15845895818E+00  0.11466974358E+01  0.23014723850E+00  0.11802508217E+01  0.00000000000E+00 0.  1.
         11    1    3    3    0    0 -0.44894743723E+01  0.40853774774E+02 -0.58933771239E+01  0.41520093782E+02  0.51100000000E-03 0. -1.
        -11    1    3    3    0    0 -0.35124603696E+01 -0.62668692978E+01 -0.66817298515E+01  0.98110418770E+01  0.51100000000E-03 0.  1.
        -12    1    3    3    0    0  0.81603937001E+01 -0.35733602912E+02  0.12344959737E+02  0.38676613520E+02  0.00000000000E+00 0.  1.
</event>
<event>
 7    1  0.2294706E-015  0.9000770E+02  0.7816164E-02  0.1186339E+00
        -11   -1    0    0    0    0  0.00000000000E+00  0.00000000000E+00  0.45593999997E+02  0.45594000000E+02  0.51100000000E-03 0. -1.
         11   -1    0    0    0    0 -0.00000000000E+00 -0.00000000000E+00 -0.45593999997E+02  0.45594000000E+02  0.51100000000E-03 0.  1.
    9900012    2    1    2    0    0  0.10969907063E+01 -0.32802438845E+00  0.28658455427E+00  0.90007695244E+02  0.89999956022E+02 0.  0.
        -12    1    1    2    0    0 -0.10969907063E+01  0.32802438845E+00 -0.28658455427E+00  0.11803047555E+01  0.00000000000E+00 0.  1.
         11    1    3    3    0    0 -0.30251635657E+02  0.18468717524E+02 -0.11355930594E+02  0.37218438264E+02  0.51100000000E-03 0. -1.
        -11    1    3    3    0    0 -0.79563725217E+01 -0.16784838033E+01  0.46038741537E+01  0.93443474393E+01  0.51100000000E-03 0.  1.
        -12    1    3    3    0    0  0.39304998885E+02 -0.17118258109E+02  0.70386409945E+01  0.43444909541E+02  0.00000000000E+00 0.  1.
</event>
<event>
 7    1  0.2294706E-015  0.9000773E+02  0.7816164E-02  0.1186339E+00
        -11   -1    0    0    0    0  0.00000000000E+00  0.00000000000E+00  0.45593999997E+02  0.45594000000E+02  0.51100000000E-03 0.  1.
         11   -1    0    0    0    0 -0.00000000000E+00 -0.00000000000E+00 -0.45593999997E+02  0.45594000000E+02  0.51100000000E-03 0. -1.
    9900012    2    1    2    0    0  0.88754808595E+00  0.76341074165E+00  0.14999508681E+00  0.90007730501E+02  0.89999991743E+02 0.  0.
        -12    1    1    2    0    0 -0.88754808595E+00 -0.76341074165E+00 -0.14999508681E+00  0.11802694995E+01  0.00000000000E+00 0.  1.
         11    1    3    3    0    0  0.73665194821E+01 -0.48638501625E+01  0.35716043606E+01  0.95225524758E+01  0.51100000000E-03 0. -1.
        -11    1    3    3    0    0  0.70731405745E+01 -0.34511915106E+02  0.89540397245E+01  0.36349366287E+02  0.51100000000E-03 0.  1.
         12    1    3    3    0    0 -0.13552111971E+02  0.40139176010E+02 -0.12375648998E+02  0.44135811738E+02  0.00000000000E+00 0. -1.
</event>
<event>
 7    1  0.2294706E-015  0.9000778E+02  0.7816164E-02  0.1186339E+00
        -11   -1    0    0    0    0  0.00000000000E+00  0.00000000000E+00  0.45593999997E+02  0.45594000000E+02  0.51100000000E-03 0. -1.
         11   -1    0    0    0    0 -0.00000000000E+00 -0.00000000000E+00 -0.45593999997E+02  0.45594000000E+02  0.51100000000E-03 0.  1.
    9900012    2    1    2    0    0 -0.92124820364E+00  0.48290504800E+00  0.55770123218E+00  0.90007777054E+02  0.90000038911E+02 0.  0.
        -12    1    1    2    0    0  0.92124820364E+00 -0.48290504800E+00 -0.55770123218E+00  0.11802229461E+01  0.00000000000E+00 0.  1.
         11    1    3    3    0    0 -0.31961226810E+02 -0.10599867735E+02 -0.19804612669E+02  0.39065328597E+02  0.51100000000E-03 0. -1.
        -11    1    3    3    0    0  0.78462427847E+00  0.86995180712E+00 -0.80891876407E+01  0.81735798982E+01  0.51100000000E-03 0.  1.
        -12    1    3    3    0    0  0.30255354328E+02  0.10212820976E+02  0.28451501542E+02  0.42768868558E+02  0.00000000000E+00 0.  1.
</event>
<event>
 7    1  0.2294706E-015  0.9000756E+02  0.7816164E-02  0.1186339E+00
        -11   -1    0    0    0    0  0.00000000000E+00  0.00000000000E+00  0.45593999997E+02  0.45594000000E+02  0.51100000000E-03 0. -1.
         11   -1    0    0    0    0 -0.00000000000E+00 -0.00000000000E+00 -0.45593999997E+02  0.45594000000E+02  0.51100000000E-03 0.  1.
    9900012    2    1    2    0    0  0.39956590766E+00 -0.99145327561E+00  0.50080445402E+00  0.90007560415E+02  0.89999819412E+02 0.  0.
        -12    1    1    2    0    0 -0.39956590766E+00  0.99145327561E+00 -0.50080445402E+00  0.11804395848E+01  0.00000000000E+00 0.  1.
         11    1    3    3    0    0  0.78419320551E+01 -0.57912239902E+01 -0.66857530621E+00  0.97714465082E+01  0.51100000000E-03 0. -1.
        -11    1    3    3    0    0  0.24511911890E+02  0.53414967111E+01 -0.27555824031E+02  0.37265115724E+02  0.51100000000E-03 0.  1.
         12    1    3    3    0    0 -0.31954278038E+02 -0.54172599653E+00  0.28725203791E+02  0.42970998183E+02  0.00000000000E+00 0. -1.
</event>
<event>
 7    1  0.2294706E-015  0.9000773E+02  0.7816164E-02  0.1186339E+00
        -11   -1    0    0    0    0  0.00000000000E+00  0.00000000000E+00  0.45593999997E+02  0.45594000000E+02  0.51100000000E-03 0.  1.
         11   -1    0    0    0    0 -0.00000000000E+00 -0.00000000000E+00 -0.45593999997E+02  0.45594000000E+02  0.51100000000E-03 0. -1.
    9900012    2    1    2    0    0 -0.21716637916E+00  0.10470483474E+01 -0.49956548409E+00  0.90007730052E+02  0.89999991288E+02 0.  0.
        -12    1    1    2    0    0  0.21716637916E+00 -0.10470483474E+01  0.49956548409E+00  0.11802699484E+01  0.00000000000E+00 0.  1.
         11    1    3    3    0    0  0.66635455884E+01 -0.71592498536E-01 -0.73477712967E+01  0.99195619150E+01  0.51100000000E-03 0. -1.
        -11    1    3    3    0    0  0.32752362372E+02  0.67784255780E+01  0.18721321458E+02  0.38329520890E+02  0.51100000000E-03 0.  1.
         12    1    3    3    0    0 -0.39633074339E+02 -0.56597847321E+01 -0.11873115645E+02  0.41758647247E+02  0.00000000000E+00 0. -1.
</event>
<event>
 7    1  0.2294706E-015  0.9000775E+02  0.7816164E-02  0.1186339E+00
        -11   -1    0    0    0    0  0.00000000000E+00  0.00000000000E+00  0.45593999997E+02  0.45594000000E+02  0.51100000000E-03 0. -1.
         11   -1    0    0    0    0 -0.00000000000E+00 -0.00000000000E+00 -0.45593999997E+02  0.45594000000E+02  0.51100000000E-03 0.  1.
    9900012    2    1    2    0    0  0.83978616651E+00 -0.72619362178E+00 -0.40048589855E+00  0.90007751324E+02  0.90000012842E+02 0.  0.
        -12    1    1    2    0    0 -0.83978616651E+00  0.72619362178E+00  0.40048589855E+00  0.11802486758E+01  0.00000000000E+00 0.  1.
         11    1    3    3    0    0 -0.92305784155E+01 -0.20817250643E+02  0.22760000569E+02  0.32195948944E+02  0.51100000000E-03 0. -1.
        -11    1    3    3    0    0  0.31627450945E+01 -0.34001086418E+01  0.13190047479E+02  0.13983599253E+02  0.51100000000E-03 0.  1.
        -12    1    3    3    0    0  0.69076194875E+01  0.23491165663E+02 -0.36350533947E+02  0.43828203128E+02  0.00000000000E+00 0.  1.
</event>
<event>
 7    1  0.2294706E-015  0.9000775E+02  0.7816164E-02  0.1186339E+00
        -11   -1    0    0    0    0  0.00000000000E+00  0.00000000000E+00  0.45593999997E+02  0.45594000000E+02  0.51100000000E-03 0.  1.
         11   -1    0    0    0    0 -0.00000000000E+00 -0.00000000000E+00 -0.45593999997E+02  0.45594000000E+02  0.51100000000E-03 0. -1.
    9900012    2    1    2    0    0 -0.64904365453E+00  0.28632000687E+00  0.94326851423E+00  0.90007749051E+02  0.90000010539E+02 0.  0.
        -12    1    1    2    0    0  0.64904365453E+00 -0.28632000687E+00 -0.94326851423E+00  0.11802509486E+01  0.00000000000E+00 0.  1.
         11    1    3    3    0    0  0.59843190548E+01  0.32197988403E+02  0.21716536954E+02  0.39295426060E+02  0.51100000000E-03 0. -1.
        -11    1    3    3    0    0  0.72379012753E+01 -0.19786157225E+01  0.48545337813E+01  0.89369252846E+01  0.51100000000E-03 0.  1.
        -12    1    3    3    0    0 -0.13871263985E+02 -0.29933052673E+02 -0.25627802221E+02  0.41775397707E+02  0.00000000000E+00 0.  1.
</event>
<event>
 7    1  0.2294706E-015  0.9000798E+02  0.7816164E-02  0.1186339E+00
        -11   -1    0    0    0    0  0.00000000000E+00  0.00000000000E+00  0.45593999997E+02  0.45594000000E+02  0.51100000000E-03 0.  1.
         11   -1    0    0    0    0 -0.00000000000E+00 -0.00000000000E+00 -0.45593999997E+02  0.45594000000E+02  0.51100000000E-03 0. -1.
    9900012    2    1    2    0    0  0.81285644349E+00  0.84382063290E+00 -0.14024209971E+00  0.90007984447E+02  0.90000249042E+02 0.  0.
        -12    1    1    2    0    0 -0.81285644349E+00 -0.84382063290E+00  0.14024209971E+00  0.11800155528E+01  0.00000000000E+00 0.  1.
         11    1    3    3    0    0  0.10498928171E+01  0.68227676336E+01  0.84495302409E+01  0.10910865899E+02  0.51100000000E-03 0. -1.
        -11    1    3    3    0    0  0.27497716399E+02  0.69087329265E+01  0.21965801843E+02  0.35865741992E+02  0.51100000000E-03 0.  1.
         12    1    3    3    0    0 -0.27734752772E+02 -0.12887679927E+02 -0.30555574184E+02  0.43231376556E+02  0.00000000000E+00 0. -1.
</event>
<event>
 7    1  0.2294706E-015  0.9000702E+02  0.7816164E-02  0.1186340E+00
        -11   -1    0    0    0    0  0.00000000000E+00  0.00000000000E+00  0.45593999997E+02  0.45594000000E+02  0.51100000000E-03 0. -1.
         11   -1    0    0    0    0 -0.00000000000E+00 -0.00000000000E+00 -0.45593999997E+02  0.45594000000E+02  0.51100000000E-03 0.  1.
    9900012    2    1    2    0    0  0.95251541658E+00 -0.75586923227E-01  0.69404963549E+00  0.90007024175E+02  0.89999276092E+02 0.  0.
        -12    1    1    2    0    0 -0.95251541658E+00  0.75586923227E-01 -0.69404963549E+00  0.11809758246E+01  0.00000000000E+00 0.  1.
         11    1    3    3    0    0  0.38260810354E+02  0.21436250714E+01  0.74831393328E+00  0.38328119069E+02  0.51100000000E-03 0. -1.
        -11    1    3    3    0    0  0.36011556305E+01 -0.69654774070E+01  0.62344012312E+01  0.10017682185E+02  0.51100000000E-03 0.  1.
        -12    1    3    3    0    0 -0.40909450568E+02  0.47462654124E+01 -0.62886655290E+01  0.41661222921E+02  0.00000000000E+00 0.  1.
</event>
<event>
 7    1  0.2294706E-015  0.9000772E+02  0.7816164E-02  0.1186339E+00
        -11   -1    0    0    0    0  0.00000000000E+00  0.00000000000E+00  0.45593999997E+02  0.45594000000E+02  0.51100000000E-03 0.  1.
         11   -1    0    0    0    0 -0.00000000000E+00 -0.00000000000E+00 -0.45593999997E+02  0.45594000000E+02  0.51100000000E-03 0. -1.
    9900012    2    1    2    0    0 -0.45692064232E+00 -0.10539760900E+01 -0.27097610413E+00  0.90007716085E+02  0.89999977137E+02 0.  0.
        -12    1    1    2    0    0  0.45692064232E+00  0.10539760900E+01  0.27097610413E+00  0.11802839152E+01  0.00000000000E+00 0.  1.
         11    1    3    3    0    0  0.77135654523E+01 -0.21492760331E+01  0.35291908093E+01  0.87506381186E+01  0.51100000000E-03 0. -1.
        -11    1    3    3    0    0  0.23163409319E+02  0.25116104313E+02 -0.18829211142E+02  0.39011554951E+02  0.51100000000E-03 0.  1.
         12    1    3    3    0    0 -0.31333895414E+02 -0.24020804370E+02  0.15029044229E+02  0.42245523015E+02  0.00000000000E+00 0. -1.
</event>
<event>
 7    1  0.2294706E-015  0.9000774E+02  0.7816164E-02  0.1186339E+00
        -11   -1    0    0    0    0  0.00000000000E+00  0.00000000000E+00  0.45593999997E+02  0.45594000000E+02  0.51100000000E-03 0. -1.
         11   -1    0    0    0    0 -0.00000000000E+00 -0.00000000000E+00 -0.45593999997E+02  0.45594000000E+02  0.51100000000E-03 0.  1.
    9900012    2    1    2    0    0 -0.35635590686E+00 -0.11221403015E+01  0.82675279625E-01  0.90007735796E+02  0.89999997109E+02 0.  0.
        -12    1    1    2    0    0  0.35635590686E+00  0.11221403015E+01 -0.82675279625E-01  0.11802642037E+01  0.00000000000E+00 0.  1.
         11    1    3    3    0    0  0.39205564209E+02 -0.42820275471E-01  0.11225501829E+02  0.40781000357E+02  0.51100000000E-03 0. -1.
        -11    1    3    3    0    0 -0.45953056868E+01  0.30409797448E+01  0.75630454300E+01  0.93575663824E+01  0.51100000000E-03 0.  1.
        -12    1    3    3    0    0 -0.34966614429E+02 -0.41202997709E+01 -0.18705871979E+02  0.39869169057E+02  0.00000000000E+00 0.  1.
</event>
<event>
 7    1  0.2294706E-015  0.9000806E+02  0.7816164E-02  0.1186338E+00
        -11   -1    0    0    0    0  0.00000000000E+00  0.00000000000E+00  0.45593999997E+02  0.45594000000E+02  0.51100000000E-03 0. -1.
         11   -1    0    0    0    0 -0.00000000000E+00 -0.00000000000E+00 -0.45593999997E+02  0.45594000000E+02  0.51100000000E-03 0.  1.
    9900012    2    1    2    0    0 -0.68833848037E+00 -0.62792724493E+00 -0.72399357448E+00  0.90008055432E+02  0.90000320963E+02 0.  0.
        -12    1    1    2    0    0  0.68833848037E+00  0.62792724493E+00  0.72399357448E+00  0.11799445683E+01  0.00000000000E+00 0.  1.
         11    1    3    3    0    0  0.35212793036E+02 -0.14380600574E+02  0.93478368192E+01  0.39167901651E+02  0.51100000000E-03 0. -1.
        -11    1    3    3    0    0  0.73128647711E+00 -0.71952958365E+01  0.76285704001E+00  0.72724832905E+01  0.51100000000E-03 0.  1.
        -12    1    3    3    0    0 -0.36632417993E+02  0.20947969165E+02 -0.10834687434E+02  0.43567670491E+02  0.00000000000E+00 0.  1.
</event>
<event>
 7    1  0.2294706E-015  0.9000774E+02  0.7816164E-02  0.1186339E+00
        -11   -1    0    0    0    0  0.00000000000E+00  0.00000000000E+00  0.45593999997E+02  0.45594000000E+02  0.51100000000E-03 0. -1.
         11   -1    0    0    0    0 -0.00000000000E+00 -0.00000000000E+00 -0.45593999997E+02  0.45594000000E+02  0.51100000000E-03 0.  1.
    9900012    2    1    2    0    0  0.10085408403E+01 -0.60561356295E+00  0.95299717945E-01  0.90007743905E+02  0.90000005324E+02 0.  0.
        -12    1    1    2    0    0 -0.10085408403E+01  0.60561356295E+00 -0.95299717945E-01  0.11802560953E+01  0.00000000000E+00 0.  1.
         11    1    3    3    0    0  0.99380056373E+01 -0.71728216453E+01  0.42791958737E+02  0.44512526992E+02  0.51100000000E-03 0. -1.
        -11    1    3    3    0    0 -0.54489853188E+01  0.21658781516E+01 -0.60640467939E+01  0.84353501974E+01  0.51100000000E-03 0.  1.
        -12    1    3    3    0    0 -0.34804794782E+01  0.44013299307E+01 -0.36632612225E+02  0.37059866716E+02  0.00000000000E+00 0.  1.
</event>
<event>
 7    1  0.2294706E-015  0.9000755E+02  0.7816164E-02  0.1186339E+00
        -11   -1    0    0    0    0  0.00000000000E+00  0.00000000000E+00  0.45593999997E+02  0.45594000000E+02  0.51100000000E-03 0.  1.
         11   -1    0    0    0    0 -0.00000000000E+00 -0.00000000000E+00 -0.45593999997E+02  0.45594000000E+02  0.51100000000E-03 0. -1.
    9900012    2    1    2    0    0 -0.11335840417E+01 -0.32905000577E+00 -0.13150354915E-01  0.90007551095E+02  0.89999809969E+02 0.  0.
        -12    1    1    2    0    0  0.11335840417E+01  0.32905000577E+00  0.13150354915E-01  0.11804489052E+01  0.00000000000E+00 0.  1.
         11    1    3    3    0    0  0.21295634108E+01 -0.81868223153E+01 -0.72206272845E+00  0.84900220723E+01  0.51100000000E-03 0. -1.
        -11    1    3    3    0    0 -0.15865831837E+02 -0.32611451157E+02 -0.10346848281E+02  0.37713242185E+02  0.51100000000E-03 0.  1.
         12    1    3    3    0    0  0.12602684385E+02  0.40469223467E+02  0.11055760655E+02  0.43804286838E+02  0.00000000000E+00 0. -1.
</event>
<event>
 7    1  0.2294706E-015  0.9000788E+02  0.7816164E-02  0.1186339E+00
        -11   -1    0    0    0    0  0.00000000000E+00  0.00000000000E+00  0.45593999997E+02  0.45594000000E+02  0.51100000000E-03 0. -1.
         11   -1    0    0    0    0 -0.00000000000E+00 -0.00000000000E+00 -0.45593999997E+02  0.45594000000E+02  0.51100000000E-03 0.  1.
    9900012    2    1    2    0    0  0.66072488930E+00 -0.90265196781E+00 -0.37597229359E+00  0.90007875803E+02  0.90000138964E+02 0.  0.
        -12    1    1    2    0    0 -0.66072488930E+00  0.90265196781E+00  0.37597229359E+00  0.11801241968E+01  0.00000000000E+00 0.  1.
         11    1    3    3    0    0 -0.23961266183E+01  0.22759650225E+01  0.10131868059E+02  0.10657213059E+02  0.51100000000E-03 0. -1.
        -11    1    3    3    0    0 -0.28764986519E+02  0.34038692983E+01 -0.29801665304E+02  0.41558994583E+02  0.51100000000E-03 0.  1.
         12    1    3    3    0    0  0.31821838027E+02 -0.65824862886E+01  0.19293824951E+02  0.37791668161E+02  0.00000000000E+00 0. -1.
</event>
<event>
 7    1  0.2294706E-015  0.9000769E+02  0.7816164E-02  0.1186339E+00
        -11   -1    0    0    0    0  0.00000000000E+00  0.00000000000E+00  0.45593999997E+02  0.45594000000E+02  0.51100000000E-03 0. -1.
         11   -1    0    0    0    0 -0.00000000000E+00 -0.00000000000E+00 -0.45593999997E+02  0.45594000000E+02  0.51100000000E-03 0.  1.
    9900012    2    1    2    0    0  0.56545435820E+00 -0.55351853022E+00  0.87579568680E+00  0.90007686703E+02  0.89999947367E+02 0.  0.
        -12    1    1    2    0    0 -0.56545435820E+00  0.55351853022E+00 -0.87579568680E+00  0.11803132972E+01  0.00000000000E+00 0.  1.
         11    1    3    3    0    0 -0.50954212137E+01 -0.14953955995E+00  0.76554233048E+01  0.91973466642E+01  0.51100000000E-03 0. -1.
        -11    1    3    3    0    0  0.20777732604E+02 -0.36154651279E+02 -0.28647637060E+01  0.41798084317E+02  0.51100000000E-03 0.  1.
         12    1    3    3    0    0 -0.15116857032E+02  0.35750672308E+02 -0.39148639120E+01  0.39012255721E+02  0.00000000000E+00 0. -1.
</event>
<event>
 7    1  0.2294706E-015  0.9000779E+02  0.7816164E-02  0.1186339E+00
        -11   -1    0    0    0    0  0.00000000000E+00  0.00000000000E+00  0.45593999997E+02  0.45594000000E+02  0.51100000000E-03 0. -1.
         11   -1    0    0    0    0 -0.00000000000E+00 -0.00000000000E+00 -0.45593999997E+02  0.45594000000E+02  0.51100000000E-03 0.  1.
    9900012    2    1    2    0    0 -0.64897159431E+00 -0.65556544956E+00  0.73617865138E+00  0.90007792732E+02  0.90000054796E+02 0.  0.
        -12    1    1    2    0    0  0.64897159431E+00  0.65556544956E+00 -0.73617865138E+00  0.11802072681E+01  0.00000000000E+00 0.  1.
         11    1    3    3    0    0 -0.32299036379E+02  0.77340089827E+00 -0.16535737371E+02  0.36294028581E+02  0.51100000000E-03 0. -1.
        -11    1    3    3    0    0 -0.57402554559E+01 -0.10846853743E+02  0.49753673639E+01  0.13242320397E+02  0.51100000000E-03 0.  1.
        -12    1    3    3    0    0  0.37390320241E+02  0.94178873950E+01  0.12296548658E+02  0.40471443755E+02  0.00000000000E+00 0.  1.
</event>
<event>
 7    1  0.2294706E-015  0.9000770E+02  0.7816164E-02  0.1186339E+00
        -11   -1    0    0    0    0  0.00000000000E+00  0.00000000000E+00  0.45593999997E+02  0.45594000000E+02  0.51100000000E-03 0.  1.
         11   -1    0    0    0    0 -0.00000000000E+00 -0.00000000000E+00 -0.45593999997E+02  0.45594000000E+02  0.51100000000E-03 0. -1.
    9900012    2    1    2    0    0  0.51131737482E+00 -0.12780175126E+00 -0.10560924746E+01  0.90007699165E+02  0.89999959994E+02 0.  0.
        -12    1    1    2    0    0 -0.51131737482E+00  0.12780175126E+00  0.10560924746E+01  0.11803008347E+01  0.00000000000E+00 0.  1.
         11    1    3    3    0    0  0.77772745396E+01 -0.11435134566E+02 -0.37095367283E+02  0.39589324015E+02  0.51100000000E-03 0. -1.
        -11    1    3    3    0    0 -0.18932162413E+02  0.22331413097E+01  0.13101858576E+02  0.23131631852E+02  0.51100000000E-03 0.  1.
        -12    1    3    3    0    0  0.11666205248E+02  0.90741915050E+01  0.22937416233E+02  0.27286743298E+02  0.00000000000E+00 0.  1.
</event>
<event>
 7    1  0.2294706E-015  0.9000778E+02  0.7816164E-02  0.1186339E+00
        -11   -1    0    0    0    0  0.00000000000E+00  0.00000000000E+00  0.45593999997E+02  0.45594000000E+02  0.51100000000E-03 0.  1.
         11   -1    0    0    0    0 -0.00000000000E+00 -0.00000000000E+00 -0.45593999997E+02  0.45594000000E+02  0.51100000000E-03 0. -1.
    9900012    2    1    2    0    0  0.22727637498E+00  0.11555125602E+01 -0.77884528203E-01  0.90007775518E+02  0.90000037355E+02 0.  0.
        -12    1    1    2    0    0 -0.22727637498E+00 -0.11555125602E+01  0.77884528203E-01  0.11802244817E+01  0.00000000000E+00 0.  1.
         11    1    3    3    0    0 -0.12702633471E+02  0.21781123863E+02 -0.28085367874E+02  0.37743372169E+02  0.51100000000E-03 0. -1.
        -11    1    3    3    0    0 -0.40313823567E+01  0.76888004006E+01 -0.43741176591E+00  0.86925844615E+01  0.51100000000E-03 0.  1.
        -12    1    3    3    0    0  0.16961292202E+02 -0.28314411703E+02  0.28444895112E+02  0.43571818888E+02  0.00000000000E+00 0.  1.
</event>
<event>
 7    1  0.2294706E-015  0.9000778E+02  0.7816164E-02  0.1186339E+00
        -11   -1    0    0    0    0  0.00000000000E+00  0.00000000000E+00  0.45593999997E+02  0.45594000000E+02  0.51100000000E-03 0. -1.
         11   -1    0    0    0    0 -0.00000000000E+00 -0.00000000000E+00 -0.45593999997E+02  0.45594000000E+02  0.51100000000E-03 0.  1.
    9900012    2    1    2    0    0  0.42447705948E+00 -0.10104240506E+01  0.43792529864E+00  0.90007781332E+02  0.90000043246E+02 0.  0.
        -12    1    1    2    0    0 -0.42447705948E+00  0.10104240506E+01 -0.43792529864E+00  0.11802186675E+01  0.00000000000E+00 0.  1.
         11    1    3    3    0    0  0.37530469100E+02 -0.10074846029E+02 -0.89385091682E+00  0.38869494505E+02  0.51100000000E-03 0. -1.
        -11    1    3    3    0    0  0.35109527390E+01 -0.46988160021E+01 -0.51005591266E+01  0.77731180759E+01  0.51100000000E-03 0.  1.
        -12    1    3    3    0    0 -0.40616944779E+02  0.13763237980E+02  0.64323353420E+01  0.43365168752E+02  0.00000000000E+00 0.  1.
</event>
<event>
 7    1  0.2294706E-015  0.9000789E+02  0.7816164E-02  0.1186339E+00
        -11   -1    0    0    0    0  0.00000000000E+00  0.00000000000E+00  0.45593999997E+02  0.45594000000E+02  0.51100000000E-03 0. -1.
         11   -1    0    0    0    0 -0.00000000000E+00 -0.00000000000E+00 -0.45593999997E+02  0.45594000000E+02  0.51100000000E-03 0.  1.
    9900012    2    1    2    0    0 -0.26692732363E+00 -0.84999255404E-01  0.11463779005E+01  0.90007890954E+02  0.90000154315E+02 0.  0.
        -12    1    1    2    0    0  0.26692732363E+00  0.84999255404E-01 -0.11463779005E+01  0.11801090459E+01  0.00000000000E+00 0.  1.
         11    1    3    3    0    0  0.26404175864E+01 -0.63445248704E+01  0.75767418268E+01  0.10228969539E+02  0.51100000000E-03 0. -1.
        -11    1    3    3    0    0  0.32865971666E+02 -0.10543059259E+02 -0.17550568797E+02  0.38721449578E+02  0.51100000000E-03 0.  1.
         12    1    3    3    0    0 -0.35773316576E+02  0.16802584874E+02  0.11120204870E+02  0.41057471837E+02  0.00000000000E+00 0. -1.
</event>
<event>
 7    1  0.2294706E-015  0.9000774E+02  0.7816164E-02  0.1186339E+00
        -11   -1    0    0    0    0  0.00000000000E+00  0.00000000000E+00  0.45593999997E+02  0.45594000000E+02  0.51100000000E-03 0. -1.
         11   -1    0    0    0    0 -0.00000000000E+00 -0.00000000000E+00 -0.45593999997E+02  0.45594000000E+02  0.51100000000E-03 0.  1.
    9900012    2    1    2    0    0  0.37296890643E+00 -0.11164278627E+01 -0.86633516845E-01  0.90007736324E+02  0.89999997644E+02 0.  0.
        -12    1    1    2    0    0 -0.37296890643E+00  0.11164278627E+01  0.86633516845E-01  0.11802636757E+01  0.00000000000E+00 0.  1.
         11    1    3    3    0    0 -0.28003137570E+02 -0.22749949966E+01  0.21999957062E+02  0.35684022012E+02  0.51100000000E-03 0. -1.
        -11    1    3    3    0    0  0.82009661221E+01  0.20252954138E+02 -0.94533583378E+01  0.23807645427E+02  0.51100000000E-03 0.  1.
        -12    1    3    3    0    0  0.20175140354E+02 -0.19094387004E+02 -0.12633232241E+02  0.30516068885E+02  0.00000000000E+00 0.  1.
</event>
<event>
 7    1  0.2294706E-015  0.9000785E+02  0.7816164E-02  0.1186339E+00
        -11   -1    0    0    0    0  0.00000000000E+00  0.00000000000E+00  0.45593999997E+02  0.45594000000E+02  0.51100000000E-03 0.  1.
         11   -1    0    0    0    0 -0.00000000000E+00 -0.00000000000E+00 -0.45593999997E+02  0.45594000000E+02  0.51100000000E-03 0. -1.
    9900012    2    1    2    0    0  0.77557296353E+00 -0.70741315428E+00 -0.53927253098E+00  0.90007846766E+02  0.90000109543E+02 0.  0.
        -12    1    1    2    0    0 -0.77557296353E+00  0.70741315428E+00  0.53927253098E+00  0.11801532338E+01  0.00000000000E+00 0.  1.
         11    1    3    3    0    0  0.93289763749E+01 -0.52763167212E+00 -0.57382854326E+01  0.10965222996E+02  0.51100000000E-03 0. -1.
        -11    1    3    3    0    0 -0.18055516400E+01  0.37804528161E+02 -0.71871925844E+01  0.38523993870E+02  0.51100000000E-03 0.  1.
         12    1    3    3    0    0 -0.67478517713E+01 -0.37984309643E+02  0.12386205486E+02  0.40518629900E+02  0.00000000000E+00 0. -1.
</event>
<event>
 7    1  0.2294706E-015  0.9000773E+02  0.7816164E-02  0.1186339E+00
        -11   -1    0    0    0    0  0.00000000000E+00  0.00000000000E+00  0.45593999997E+02  0.45594000000E+02  0.51100000000E-03 0. -1.
         11   -1    0    0    0    0 -0.00000000000E+00 -0.00000000000E+00 -0.45593999997E+02  0.45594000000E+02  0.51100000000E-03 0.  1.
    9900012    2    1    2    0    0 -0.11160937103E+00 -0.11163518013E+01  0.36653834817E+00  0.90007725305E+02  0.89999986479E+02 0.  0.
        -12    1    1    2    0    0  0.11160937103E+00  0.11163518013E+01 -0.36653834817E+00  0.11802746955E+01  0.00000000000E+00 0.  1.
         11    1    3    3    0    0  0.17184005792E+02 -0.27398554039E+02  0.23855469722E+02  0.40187737612E+02  0.51100000000E-03 0. -1.
        -11    1    3    3    0    0 -0.80446111101E+01 -0.19049825978E+01  0.41706407869E+01  0.92595340836E+01  0.51100000000E-03 0.  1.
        -12    1    3    3    0    0 -0.92510040527E+01  0.28187184835E+02 -0.27659572160E+02  0.40560453609E+02  0.00000000000E+00 0.  1.
</event>
<event>
 7    1  0.2294706E-015  0.9000786E+02  0.7816164E-02  0.1186339E+00
        -11   -1    0    0    0    0  0.00000000000E+00  0.00000000000E+00  0.45593999997E+02  0.45594000000E+02  0.51100000000E-03 0. -1.
         11   -1    0    0    0    0 -0.00000000000E+00 -0.00000000000E+00 -0.45593999997E+02  0.45594000000E+02  0.51100000000E-03 0.  1.
    9900012    2    1    2    0    0  0.11554475502E+01  0.19519517687E+00  0.13993263643E+00  0.90007855373E+02  0.90000118264E+02 0.  0.
        -12    1    1    2    0    0 -0.11554475502E+01 -0.19519517687E+00 -0.13993263643E+00  0.11801446272E+01  0.00000000000E+00 0.  1.
         11    1    3    3    0    0  0.68309041541E+01  0.11671078976E+01  0.60552871917E+01  0.92027113201E+01  0.51100000000E-03 0. -1.
        -11    1    3    3    0    0  0.48816133403E+01  0.37941055638E+02 -0.11858916863E+02  0.40049815994E+02  0.51100000000E-03 0.  1.
         12    1    3    3    0    0 -0.10557069944E+02 -0.38912968358E+02  0.59435623082E+01  0.40755328059E+02  0.00000000000E+00 0. -1.
</event>
<event>
 7    1  0.2294706E-015  0.9000773E+02  0.7816164E-02  0.1186339E+00
        -11   -1    0    0    0    0  0.00000000000E+00  0.00000000000E+00  0.45593999997E+02  0.45594000000E+02  0.51100000000E-03 0. -1.
         11   -1    0    0    0    0 -0.00000000000E+00 -0.00000000000E+00 -0.45593999997E+02  0.45594000000E+02  0.51100000000E-03 0.  1.
    9900012    2    1    2    0    0  0.86287626378E+00 -0.72340393343E+00  0.35377952080E+00  0.90007733654E+02  0.89999994939E+02 0.  0.
        -12    1    1    2    0    0 -0.86287626378E+00  0.72340393343E+00 -0.35377952080E+00  0.11802663457E+01  0.00000000000E+00 0.  1.
         11    1    3    3    0    0  0.99432310260E+01  0.18741034049E+00  0.59356289292E+01  0.11581651735E+02  0.51100000000E-03 0. -1.
        -11    1    3    3    0    0  0.21215350499E+02  0.11174258859E+02 -0.29473128083E+02  0.37995005423E+02  0.51100000000E-03 0.  1.
         12    1    3    3    0    0 -0.30295705261E+02 -0.12085073133E+02  0.23891278675E+02  0.40431076496E+02  0.00000000000E+00 0. -1.
</event>
<event>
 7    1  0.2294706E-015  0.9000767E+02  0.7816164E-02  0.1186339E+00
        -11   -1    0    0    0    0  0.00000000000E+00  0.00000000000E+00  0.45593999997E+02  0.45594000000E+02  0.51100000000E-03 0. -1.
         11   -1    0    0    0    0 -0.00000000000E+00 -0.00000000000E+00 -0.45593999997E+02  0.45594000000E+02  0.51100000000E-03 0.  1.
    9900012    2    1    2    0    0  0.85029513347E-01  0.55889467280E+00  0.10361396142E+01  0.90007670142E+02  0.89999930588E+02 0.  0.
        -12    1    1    2    0    0 -0.85029513347E-01 -0.55889467280E+00 -0.10361396142E+01  0.11803298580E+01  0.00000000000E+00 0.  1.
         11    1    3    3    0    0  0.76138999920E+01 -0.10532361063E+01  0.44808718462E+01  0.88971339288E+01  0.51100000000E-03 0. -1.
        -11    1    3    3    0    0  0.23994669111E+02  0.21912018175E+02 -0.22034657017E+02  0.39260753895E+02  0.51100000000E-03 0.  1.
         12    1    3    3    0    0 -0.31523539590E+02 -0.20299887396E+02  0.18589924786E+02  0.41849782318E+02  0.00000000000E+00 0. -1.
</event>
<event>
 7    1  0.2294706E-015  0.9000770E+02  0.7816164E-02  0.1186339E+00
        -11   -1    0    0    0    0  0.00000000000E+00  0.00000000000E+00  0.45593999997E+02  0.45594000000E+02  0.51100000000E-03 0.  1.
         11   -1    0    0    0    0 -0.00000000000E+00 -0.00000000000E+00 -0.45593999997E+02  0.45594000000E+02  0.51100000000E-03 0. -1.
    9900012    2    1    2    0    0 -0.96458885200E+00  0.68003750066E+00  0.14852838058E-01  0.90007702045E+02  0.89999962912E+02 0.  0.
        -12    1    1    2    0    0  0.96458885200E+00 -0.68003750066E+00 -0.14852838058E-01  0.11802979550E+01  0.00000000000E+00 0.  1.
         11    1    3    3    0    0 -0.19182261735E+02  0.33828209944E+02  0.59941270486E+01  0.39347636684E+02  0.51100000000E-03 0. -1.
        -11    1    3    3    0    0  0.27577630254E+01  0.54028154630E+01 -0.68054687653E+01  0.91164728491E+01  0.51100000000E-03 0.  1.
        -12    1    3    3    0    0  0.15459909858E+02 -0.38550987906E+02  0.82619455477E+00  0.41543592512E+02  0.00000000000E+00 0.  1.
</event>
<event>
 7    1  0.2294706E-015  0.9000781E+02  0.7816164E-02  0.1186339E+00
        -11   -1    0    0    0    0  0.00000000000E+00  0.00000000000E+00  0.45593999997E+02  0.45594000000E+02  0.51100000000E-03 0.  1.
         11   -1    0    0    0    0 -0.00000000000E+00 -0.00000000000E+00 -0.45593999997E+02  0.45594000000E+02  0.51100000000E-03 0. -1.
    9900012    2    1    2    0    0 -0.11270841692E+01  0.86969572226E-01  0.33907535172E+00  0.90007807420E+02  0.90000069678E+02 0.  0.
        -12    1    1    2    0    0  0.11270841692E+01 -0.86969572226E-01 -0.33907535172E+00  0.11801925796E+01  0.00000000000E+00 0.  1.
         11    1    3    3    0    0 -0.30585566048E+02 -0.14899455007E+02  0.73774669971E+01  0.34812320082E+02  0.51100000000E-03 0. -1.
        -11    1    3    3    0    0 -0.11571332554E+02  0.23707819625E+01 -0.11393496630E+01  0.11866526961E+02  0.51100000000E-03 0.  1.
        -12    1    3    3    0    0  0.41029814433E+02  0.12615642617E+02 -0.58990419823E+01  0.43328960377E+02  0.00000000000E+00 0.  1.
</event>
<event>
 7    1  0.2294706E-015  0.9000772E+02  0.7816164E-02  0.1186339E+00
        -11   -1    0    0    0    0  0.00000000000E+00  0.00000000000E+00  0.45593999997E+02  0.45594000000E+02  0.51100000000E-03 0. -1.
         11   -1    0    0    0    0 -0.00000000000E+00 -0.00000000000E+00 -0.45593999997E+02  0.45594000000E+02  0.51100000000E-03 0.  1.
    9900012    2    1    2    0    0  0.64966184305E+00 -0.90557341333E+00 -0.38851957968E+00  0.90007715636E+02  0.89999976682E+02 0.  0.
        -12    1    1    2    0    0 -0.64966184305E+00  0.90557341333E+00  0.38851957968E+00  0.11802843645E+01  0.00000000000E+00 0.  1.
         11    1    3    3    0    0 -0.23588053743E+02  0.14231218710E+02  0.23107633494E+02  0.35956732212E+02  0.51100000000E-03 0. -1.
        -11    1    3    3    0    0 -0.58906506444E+01  0.68752210410E+01  0.14473920730E+01  0.91686080433E+01  0.51100000000E-03 0.  1.
        -12    1    3    3    0    0  0.30128366231E+02 -0.22012013165E+02 -0.24943545147E+02  0.44882375381E+02  0.00000000000E+00 0.  1.
</event>
<event>
 7    1  0.2294706E-015  0.9000762E+02  0.7816164E-02  0.1186339E+00
        -11   -1    0    0    0    0  0.00000000000E+00  0.00000000000E+00  0.45593999997E+02  0.45594000000E+02  0.51100000000E-03 0.  1.
         11   -1    0    0    0    0 -0.00000000000E+00 -0.00000000000E+00 -0.45593999997E+02  0.45594000000E+02  0.51100000000E-03 0. -1.
    9900012    2    1    2    0    0  0.74139446104E+00 -0.91750165746E+00 -0.42645520287E-01  0.90007621383E+02  0.89999881186E+02 0.  0.
        -12    1    1    2    0    0 -0.74139446104E+00  0.91750165746E+00  0.42645520287E-01  0.11803786167E+01  0.00000000000E+00 0.  1.
         11    1    3    3    0    0  0.39830300925E+01 -0.85394473207E+01 -0.43740745622E+01  0.10388417483E+02  0.51100000000E-03 0. -1.
        -11    1    3    3    0    0  0.24622181004E+02 -0.17676613886E+02  0.22576806124E+02  0.37794532024E+02  0.51100000000E-03 0.  1.
         12    1    3    3    0    0 -0.27863816635E+02  0.25298559549E+02 -0.18245377082E+02  0.41824671877E+02  0.00000000000E+00 0. -1.
</event>
<event>
 7    1  0.2294706E-015  0.9000774E+02  0.7816164E-02  0.1186339E+00
        -11   -1    0    0    0    0  0.00000000000E+00  0.00000000000E+00  0.45593999997E+02  0.45594000000E+02  0.51100000000E-03 0.  1.
         11   -1    0    0    0    0 -0.00000000000E+00 -0.00000000000E+00 -0.45593999997E+02  0.45594000000E+02  0.51100000000E-03 0. -1.
    9900012    2    1    2    0    0 -0.53348424526E+00  0.59615596491E+00 -0.86775377895E+00  0.90007744098E+02  0.90000005520E+02 0.  0.
        -12    1    1    2    0    0  0.53348424526E+00 -0.59615596491E+00  0.86775377895E+00  0.11802559025E+01  0.00000000000E+00 0.  1.
         11    1    3    3    0    0  0.17331161085E+01  0.34838381302E+02 -0.14123428115E+02  0.37632269732E+02  0.51100000000E-03 0. -1.
        -11    1    3    3    0    0  0.69341954330E+00  0.67443813010E+01  0.87007689225E+01  0.11030452842E+02  0.51100000000E-03 0.  1.
        -12    1    3    3    0    0 -0.29600198971E+01 -0.40986606638E+02  0.45549054134E+01  0.41345021524E+02  0.00000000000E+00 0.  1.
</event>
<event>
 7    1  0.2294706E-015  0.9000767E+02  0.7816164E-02  0.1186339E+00
        -11   -1    0    0    0    0  0.00000000000E+00  0.00000000000E+00  0.45593999997E+02  0.45594000000E+02  0.51100000000E-03 0.  1.
         11   -1    0    0    0    0 -0.00000000000E+00 -0.00000000000E+00 -0.45593999997E+02  0.45594000000E+02  0.51100000000E-03 0. -1.
    9900012    2    1    2    0    0  0.66668882703E+00 -0.91207131751E+00 -0.34179178279E+00  0.90007673900E+02  0.89999934395E+02 0.  0.
        -12    1    1    2    0    0 -0.66668882703E+00  0.91207131751E+00  0.34179178279E+00  0.11803261003E+01  0.00000000000E+00 0.  1.
         11    1    3    3    0    0 -0.39028722243E+02 -0.47747741709E+00 -0.37421335014E+01  0.39210619837E+02  0.51100000000E-03 0. -1.
        -11    1    3    3    0    0 -0.50231198460E+01  0.74296484208E-01  0.34170105177E+01  0.60756245847E+01  0.51100000000E-03 0.  1.
        -12    1    3    3    0    0  0.44718530916E+02 -0.50889038463E+00 -0.16668799176E-01  0.44721429478E+02  0.00000000000E+00 0.  1.
</event>
<event>
 7    1  0.2294706E-015  0.9000775E+02  0.7816164E-02  0.1186339E+00
        -11   -1    0    0    0    0  0.00000000000E+00  0.00000000000E+00  0.45593999997E+02  0.45594000000E+02  0.51100000000E-03 0. -1.
         11   -1    0    0    0    0 -0.00000000000E+00 -0.00000000000E+00 -0.45593999997E+02  0.45594000000E+02  0.51100000000E-03 0.  1.
    9900012    2    1    2    0    0  0.39048617523E-02  0.96046360245E+00 -0.68592408740E+00  0.90007746877E+02  0.90000008336E+02 0.  0.
        -12    1    1    2    0    0 -0.39048617523E-02 -0.96046360245E+00  0.68592408740E+00  0.11802531225E+01  0.00000000000E+00 0.  1.
         11    1    3    3    0    0 -0.45309359093E+01 -0.39953231283E+00 -0.96432382820E+01  0.10662131640E+02  0.51100000000E-03 0. -1.
        -11    1    3    3    0    0  0.37251373060E+02  0.12747772941E+02 -0.89095628531E+01  0.40367695256E+02  0.51100000000E-03 0.  1.
         12    1    3    3    0    0 -0.32716532289E+02 -0.11387777026E+02  0.17866877048E+02  0.38977919981E+02  0.00000000000E+00 0. -1.
</event>
<event>
 7    1  0.2294706E-015  0.9000775E+02  0.7816164E-02  0.1186339E+00
        -11   -1    0    0    0    0  0.00000000000E+00  0.00000000000E+00  0.45593999997E+02  0.45594000000E+02  0.51100000000E-03 0. -1.
         11   -1    0    0    0    0 -0.00000000000E+00 -0.00000000000E+00 -0.45593999997E+02  0.45594000000E+02  0.51100000000E-03 0.  1.
    9900012    2    1    2    0    0 -0.23674429610E+00 -0.25727275302E+00  0.11272789930E+01  0.90007747883E+02  0.90000009355E+02 0.  0.
        -12    1    1    2    0    0  0.23674429610E+00  0.25727275302E+00 -0.11272789930E+01  0.11802521168E+01  0.00000000000E+00 0.  1.
         11    1    3    3    0    0 -0.99350214105E-01  0.32060763184E+02 -0.22728176318E+02  0.39299776150E+02  0.51100000000E-03 0. -1.
        -11    1    3    3    0    0 -0.22344598996E+01 -0.72636125216E+01 -0.73919445081E+01  0.10601590531E+02  0.51100000000E-03 0.  1.
        -12    1    3    3    0    0  0.20970658176E+01 -0.25054423416E+02  0.31247399819E+02  0.40106381203E+02  0.00000000000E+00 0.  1.
</event>
<event>
 7    1  0.2294706E-015  0.9000736E+02  0.7816164E-02  0.1186340E+00
        -11   -1    0    0    0    0  0.00000000000E+00  0.00000000000E+00  0.45593999997E+02  0.45594000000E+02  0.51100000000E-03 0.  1.
         11   -1    0    0    0    0 -0.00000000000E+00 -0.00000000000E+00 -0.45593999997E+02  0.45594000000E+02  0.51100000000E-03 0. -1.
    9900012    2    1    2    0    0  0.28078327448E+00 -0.11349332653E+01  0.16431636927E+00  0.90007359228E+02  0.89999615569E+02 0.  0.
        -12    1    1    2    0    0 -0.28078327448E+00  0.11349332653E+01 -0.16431636927E+00  0.11806407723E+01  0.00000000000E+00 0.  1.
         11    1    3    3    0    0 -0.67796183035E+01  0.24155785140E+01 -0.56979949780E+01  0.91796182344E+01  0.51100000000E-03 0. -1.
        -11    1    3    3    0    0  0.25665898027E+02 -0.28793984410E+02 -0.16865624234E+02  0.42098469578E+02  0.51100000000E-03 0.  1.
         12    1    3    3    0    0 -0.18605496449E+02  0.25243472631E+02  0.22727935581E+02  0.38729271415E+02  0.00000000000E+00 0. -1.
</event>
<event>
 7    1  0.2294706E-015  0.9000772E+02  0.7816164E-02  0.1186339E+00
        -11   -1    0    0    0    0  0.00000000000E+00  0.00000000000E+00  0.45593999997E+02  0.45594000000E+02  0.51100000000E-03 0. -1.
         11   -1    0    0    0    0 -0.00000000000E+00 -0.00000000000E+00 -0.45593999997E+02  0.45594000000E+02  0.51100000000E-03 0.  1.
    9900012    2    1    2    0    0 -0.11425897052E+01  0.13478099195E+00 -0.26339695958E+00  0.90007722444E+02  0.89999983581E+02 0.  0.
        -12    1    1    2    0    0  0.11425897052E+01 -0.13478099195E+00  0.26339695958E+00  0.11802775557E+01  0.00000000000E+00 0.  1.
         11    1    3    3    0    0  0.25278829834E+02  0.47286701151E+01 -0.21436053028E+02  0.33479604665E+02  0.51100000000E-03 0. -1.
        -11    1    3    3    0    0 -0.69125592825E+01  0.11855764087E+02 -0.94529945865E+01  0.16664384922E+02  0.51100000000E-03 0.  1.
        -12    1    3    3    0    0 -0.19508860257E+02 -0.16449653210E+02  0.30625650655E+02  0.39863732857E+02  0.00000000000E+00 0.  1.
</event>
<event>
 7    1  0.2294706E-015  0.9000778E+02  0.7816164E-02  0.1186339E+00
        -11   -1    0    0    0    0  0.00000000000E+00  0.00000000000E+00  0.45593999997E+02  0.45594000000E+02  0.51100000000E-03 0. -1.
         11   -1    0    0    0    0 -0.00000000000E+00 -0.00000000000E+00 -0.45593999997E+02  0.45594000000E+02  0.51100000000E-03 0.  1.
    9900012    2    1    2    0    0  0.25345153420E+00 -0.10536070187E+01 -0.46753257370E+00  0.90007783013E+02  0.90000044948E+02 0.  0.
        -12    1    1    2    0    0 -0.25345153420E+00  0.10536070187E+01  0.46753257370E+00  0.11802169874E+01  0.00000000000E+00 0.  1.
         11    1    3    3    0    0 -0.18792287566E+02 -0.36808307327E+02  0.16364338339E+01  0.41360361171E+02  0.51100000000E-03 0. -1.
        -11    1    3    3    0    0  0.10402480391E-01  0.16176422038E+02  0.97404605944E+01  0.18882619284E+02  0.51100000000E-03 0.  1.
        -12    1    3    3    0    0  0.19035336620E+02  0.19578278271E+02 -0.11844427002E+02  0.29764802558E+02  0.00000000000E+00 0.  1.
</event>
<event>
 7    1  0.2294706E-015  0.9000772E+02  0.7816164E-02  0.1186339E+00
        -11   -1    0    0    0    0  0.00000000000E+00  0.00000000000E+00  0.45593999997E+02  0.45594000000E+02  0.51100000000E-03 0.  1.
         11   -1    0    0    0    0 -0.00000000000E+00 -0.00000000000E+00 -0.45593999997E+02  0.45594000000E+02  0.51100000000E-03 0. -1.
    9900012    2    1    2    0    0 -0.51563217949E+00 -0.97898451799E+00 -0.41080692382E+00  0.90007724795E+02  0.89999985962E+02 0.  0.
        -12    1    1    2    0    0  0.51563217949E+00  0.97898451799E+00  0.41080692382E+00  0.11802752050E+01  0.00000000000E+00 0.  1.
         11    1    3    3    0    0 -0.48670337325E+01 -0.24288591079E+01 -0.34719546542E+02  0.35143054595E+02  0.51100000000E-03 0. -1.
        -11    1    3    3    0    0  0.82397358510E+01 -0.29368831554E+01 -0.81783247189E+01  0.11975121086E+02  0.51100000000E-03 0.  1.
        -12    1    3    3    0    0 -0.38883342981E+01  0.43867577453E+01  0.42487064337E+02  0.42889549113E+02  0.00000000000E+00 0.  1.
</event>
<event>
 7    1  0.2294706E-015  0.9000772E+02  0.7816164E-02  0.1186339E+00
        -11   -1    0    0    0    0  0.00000000000E+00  0.00000000000E+00  0.45593999997E+02  0.45594000000E+02  0.51100000000E-03 0.  1.
         11   -1    0    0    0    0 -0.00000000000E+00 -0.00000000000E+00 -0.45593999997E+02  0.45594000000E+02  0.51100000000E-03 0. -1.
    9900012    2    1    2    0    0 -0.31009481904E-01  0.54860316677E-01 -0.11785970469E+01  0.90007719423E+02  0.89999980519E+02 0.  0.
        -12    1    1    2    0    0  0.31009481904E-01 -0.54860316677E-01  0.11785970469E+01  0.11802805773E+01  0.00000000000E+00 0.  1.
         11    1    3    3    0    0 -0.30236791727E+01 -0.19767085517E+02 -0.39267675820E+02  0.44066207803E+02  0.51100000000E-03 0. -1.
        -11    1    3    3    0    0 -0.21725167549E+01  0.78729941099E+01  0.33214527839E+01  0.88167972735E+01  0.51100000000E-03 0.  1.
        -12    1    3    3    0    0  0.51651864457E+01  0.11948951724E+02  0.34767625989E+02  0.37124714346E+02  0.00000000000E+00 0.  1.
</event>
<event>
 7    1  0.3246278E-015  0.9000766E+02  0.7816164E-02  0.1186339E+00
        -11   -1    0    0    0    0  0.00000000000E+00  0.00000000000E+00  0.45593999997E+02  0.45594000000E+02  0.51100000000E-03 0.  1.
         11   -1    0    0    0    0 -0.00000000000E+00 -0.00000000000E+00 -0.45593999997E+02  0.45594000000E+02  0.51100000000E-03 0. -1.
    9900012    2    1    2    0    0 -0.69477887857E+00 -0.16457454181E-01 -0.95404704064E+00  0.90007663483E+02  0.89999923841E+02 0.  0.
        -12    1    1    2    0    0  0.69477887857E+00  0.16457454181E-01  0.95404704064E+00  0.11803365171E+01  0.00000000000E+00 0.  1.
         11    1    3    3    0    0  0.14987611310E+02 -0.30837321274E+02 -0.22211157495E+02  0.40852226300E+02  0.51100000000E-03 0. -1.
        -11    1    3    3    0    0 -0.82610705200E+01  0.21227314947E+01 -0.47139184614E+01  0.97453733975E+01  0.51100000000E-03 0.  1.
        -12    1    3    3    0    0 -0.74213196684E+01  0.28698132326E+02  0.25971028916E+02  0.39410063785E+02  0.00000000000E+00 0.  1.
</event>
<event>
 7    1  0.2294706E-015  0.9000772E+02  0.7816164E-02  0.1186339E+00
        -11   -1    0    0    0    0  0.00000000000E+00  0.00000000000E+00  0.45593999997E+02  0.45594000000E+02  0.51100000000E-03 0.  1.
         11   -1    0    0    0    0 -0.00000000000E+00 -0.00000000000E+00 -0.45593999997E+02  0.45594000000E+02  0.51100000000E-03 0. -1.
    9900012    2    1    2    0    0 -0.96007676179E+00  0.66167361330E+00 -0.18306572625E+00  0.90007715111E+02  0.89999976150E+02 0.  0.
        -12    1    1    2    0    0  0.96007676179E+00 -0.66167361330E+00  0.18306572625E+00  0.11802848890E+01  0.00000000000E+00 0.  1.
         11    1    3    3    0    0 -0.15593906270E+02 -0.15769508771E+02  0.16322163736E+02  0.27536527539E+02  0.51100000000E-03 0. -1.
        -11    1    3    3    0    0  0.10167802389E+02  0.15361060636E+02  0.19120483292E+02  0.26550692475E+02  0.51100000000E-03 0.  1.
         12    1    3    3    0    0  0.44660271199E+01  0.10701217479E+01 -0.35625712754E+02  0.35920495097E+02  0.00000000000E+00 0. -1.
</event>
<event>
 7    1  0.2294706E-015  0.9000821E+02  0.7816164E-02  0.1186338E+00
        -11   -1    0    0    0    0  0.00000000000E+00  0.00000000000E+00  0.45593999997E+02  0.45594000000E+02  0.51100000000E-03 0.  1.
         11   -1    0    0    0    0 -0.00000000000E+00 -0.00000000000E+00 -0.45593999997E+02  0.45594000000E+02  0.51100000000E-03 0. -1.
    9900012    2    1    2    0    0 -0.61498449952E+00 -0.97234427626E+00  0.26125085709E+00  0.90008207079E+02  0.90000474611E+02 0.  0.
        -12    1    1    2    0    0  0.61498449952E+00  0.97234427626E+00 -0.26125085709E+00  0.11797929210E+01  0.00000000000E+00 0.  1.
         11    1    3    3    0    0  0.14193947258E+01 -0.90214465666E+01 -0.21794654513E+01  0.93888896817E+01  0.51100000000E-03 0. -1.
        -11    1    3    3    0    0  0.32384168212E+02  0.46013776173E+01  0.23360308786E+02  0.40194664492E+02  0.51100000000E-03 0.  1.
         12    1    3    3    0    0 -0.34418547437E+02  0.34477246731E+01 -0.20919592478E+02  0.40424652906E+02  0.00000000000E+00 0. -1.
</event>
<event>
 7    1  0.2294706E-015  0.9000772E+02  0.7816164E-02  0.1186339E+00
        -11   -1    0    0    0    0  0.00000000000E+00  0.00000000000E+00  0.45593999997E+02  0.45594000000E+02  0.51100000000E-03 0.  1.
         11   -1    0    0    0    0 -0.00000000000E+00 -0.00000000000E+00 -0.45593999997E+02  0.45594000000E+02  0.51100000000E-03 0. -1.
    9900012    2    1    2    0    0 -0.37321639952E+00  0.69890984162E+00 -0.87481418990E+00  0.90007718121E+02  0.89999979200E+02 0.  0.
        -12    1    1    2    0    0  0.37321639952E+00 -0.69890984162E+00  0.87481418990E+00  0.11802818792E+01  0.00000000000E+00 0.  1.
         11    1    3    3    0    0  0.17399757884E+02  0.30986034471E+02 -0.16184476241E+02  0.39048984342E+02  0.51100000000E-03 0. -1.
        -11    1    3    3    0    0 -0.46305303608E+01  0.73772365975E+01  0.29639305319E+01  0.92005606186E+01  0.51100000000E-03 0.  1.
        -12    1    3    3    0    0 -0.13142443923E+02 -0.37664361227E+02  0.12345731520E+02  0.41758173160E+02  0.00000000000E+00 0.  1.
</event>
<event>
 7    1  0.2294706E-015  0.9000784E+02  0.7816164E-02  0.1186339E+00
        -11   -1    0    0    0    0  0.00000000000E+00  0.00000000000E+00  0.45593999997E+02  0.45594000000E+02  0.51100000000E-03 0. -1.
         11   -1    0    0    0    0 -0.00000000000E+00 -0.00000000000E+00 -0.45593999997E+02  0.45594000000E+02  0.51100000000E-03 0.  1.
    9900012    2    1    2    0    0 -0.18876782795E+00 -0.56172211432E+00  0.10205888520E+01  0.90007844658E+02  0.90000107407E+02 0.  0.
        -12    1    1    2    0    0  0.18876782795E+00  0.56172211432E+00 -0.10205888520E+01  0.11801553420E+01  0.00000000000E+00 0.  1.
         11    1    3    3    0    0 -0.13453098767E+01 -0.61579388000E+01  0.70223898009E+01  0.94363143073E+01  0.51100000000E-03 0. -1.
        -11    1    3    3    0    0 -0.32362965831E+02 -0.10257506425E+02 -0.21714524052E+02  0.40300106086E+02  0.51100000000E-03 0.  1.
         12    1    3    3    0    0  0.33519507880E+02  0.15853723111E+02  0.15712723103E+02  0.40271424265E+02  0.00000000000E+00 0. -1.
</event>
<event>
 7    1  0.2973213E-015  0.9000770E+02  0.7816164E-02  0.1186339E+00
        -11   -1    0    0    0    0  0.00000000000E+00  0.00000000000E+00  0.45593999997E+02  0.45594000000E+02  0.51100000000E-03 0.  1.
         11   -1    0    0    0    0 -0.00000000000E+00 -0.00000000000E+00 -0.45593999997E+02  0.45594000000E+02  0.51100000000E-03 0. -1.
    9900012    2    1    2    0    0  0.59549141250E-01  0.11074958644E+01 -0.40374373269E+00  0.90007702499E+02  0.89999963372E+02 0.  0.
        -12    1    1    2    0    0 -0.59549141250E-01 -0.11074958644E+01  0.40374373269E+00  0.11802975013E+01  0.00000000000E+00 0.  1.
         11    1    3    3    0    0  0.63825523495E+01  0.22478307996E+02 -0.35193467337E+02  0.42244425056E+02  0.51100000000E-03 0. -1.
        -11    1    3    3    0    0  0.79213951094E+01 -0.36574341423E+01  0.42830254388E+01  0.97195489687E+01  0.51100000000E-03 0.  1.
        -12    1    3    3    0    0 -0.14244398318E+02 -0.17713377989E+02  0.30506698166E+02  0.38043728474E+02  0.00000000000E+00 0.  1.
</event>
<event>
 7    1  0.2347304E-015  0.9000784E+02  0.7816164E-02  0.1186339E+00
        -11   -1    0    0    0    0  0.00000000000E+00  0.00000000000E+00  0.45593999997E+02  0.45594000000E+02  0.51100000000E-03 0.  1.
         11   -1    0    0    0    0 -0.00000000000E+00 -0.00000000000E+00 -0.45593999997E+02  0.45594000000E+02  0.51100000000E-03 0. -1.
    9900012    2    1    2    0    0 -0.33084920853E+00 -0.37809713098E+00 -0.10678808299E+01  0.90007835560E+02  0.90000098189E+02 0.  0.
        -12    1    1    2    0    0  0.33084920853E+00  0.37809713098E+00  0.10678808299E+01  0.11801644402E+01  0.00000000000E+00 0.  1.
         11    1    3    3    0    0  0.71815039337E+01 -0.21466664875E+02 -0.29543054887E+02  0.37218057337E+02  0.51100000000E-03 0. -1.
        -11    1    3    3    0    0  0.83397400299E+01 -0.47872761404E+01 -0.19572549614E+01  0.98132626510E+01  0.51100000000E-03 0.  1.
        -12    1    3    3    0    0 -0.15852093172E+02  0.25875843885E+02  0.30432429019E+02  0.42976515572E+02  0.00000000000E+00 0.  1.
</event>
<event>
 7    1  0.2294706E-015  0.9000778E+02  0.7816164E-02  0.1186339E+00
        -11   -1    0    0    0    0  0.00000000000E+00  0.00000000000E+00  0.45593999997E+02  0.45594000000E+02  0.51100000000E-03 0. -1.
         11   -1    0    0    0    0 -0.00000000000E+00 -0.00000000000E+00 -0.45593999997E+02  0.45594000000E+02  0.51100000000E-03 0.  1.
    9900012    2    1    2    0    0 -0.81537862426E+00 -0.50922635120E+00  0.68465713023E+00  0.90007784272E+02  0.90000046225E+02 0.  0.
        -12    1    1    2    0    0  0.81537862426E+00  0.50922635120E+00 -0.68465713023E+00  0.11802157276E+01  0.00000000000E+00 0.  1.
         11    1    3    3    0    0 -0.16443543410E+02  0.19826404168E+02 -0.35389167509E+02  0.43770647692E+02  0.51100000000E-03 0. -1.
        -11    1    3    3    0    0 -0.22445199645E+01 -0.44764103214E+01  0.55988542276E+01  0.75115436602E+01  0.51100000000E-03 0.  1.
        -12    1    3    3    0    0  0.17872684750E+02 -0.15859220198E+02  0.30474970412E+02  0.38725592921E+02  0.00000000000E+00 0.  1.
</event>
<event>
 7    1  0.2294706E-015  0.9000762E+02  0.7816164E-02  0.1186339E+00
        -11   -1    0    0    0    0  0.00000000000E+00  0.00000000000E+00  0.45593999997E+02  0.45594000000E+02  0.51100000000E-03 0. -1.
         11   -1    0    0    0    0 -0.00000000000E+00 -0.00000000000E+00 -0.45593999997E+02  0.45594000000E+02  0.51100000000E-03 0.  1.
    9900012    2    1    2    0    0  0.29565208785E+00 -0.11219795534E+01  0.21688514044E+00  0.90007624026E+02  0.89999883863E+02 0.  0.
        -12    1    1    2    0    0 -0.29565208785E+00  0.11219795534E+01 -0.21688514044E+00  0.11803759737E+01  0.00000000000E+00 0.  1.
         11    1    3    3    0    0  0.21309729423E+02 -0.11750697427E+02  0.21072280052E+02  0.32190440273E+02  0.51100000000E-03 0. -1.
        -11    1    3    3    0    0  0.15912637661E+02  0.32216945597E+01 -0.71256431008E+01  0.17730373460E+02  0.51100000000E-03 0.  1.
        -12    1    3    3    0    0 -0.36926714996E+02  0.74070233135E+01 -0.13729751810E+02  0.40086810294E+02  0.00000000000E+00 0.  1.
</event>
<event>
 7    1  0.2294706E-015  0.9000772E+02  0.7816164E-02  0.1186339E+00
        -11   -1    0    0    0    0  0.00000000000E+00  0.00000000000E+00  0.45593999997E+02  0.45594000000E+02  0.51100000000E-03 0.  1.
         11   -1    0    0    0    0 -0.00000000000E+00 -0.00000000000E+00 -0.45593999997E+02  0.45594000000E+02  0.51100000000E-03 0. -1.
    9900012    2    1    2    0    0  0.11802878996E+00  0.11722385332E+01 -0.70648053829E-01  0.90007718203E+02  0.89999979283E+02 0.  0.
        -12    1    1    2    0    0 -0.11802878996E+00 -0.11722385332E+01  0.70648053829E-01  0.11802817975E+01  0.00000000000E+00 0.  1.
         11    1    3    3    0    0  0.83120225394E+01 -0.13233368653E+02 -0.36016063878E+02  0.39260267729E+02  0.51100000000E-03 0. -1.
        -11    1    3    3    0    0 -0.65048696345E+01 -0.15168853911E+01 -0.39492098717E+01  0.77595443890E+01  0.51100000000E-03 0.  1.
        -12    1    3    3    0    0 -0.16891241149E+01  0.15922492577E+02  0.39894625696E+02  0.42987906085E+02  0.00000000000E+00 0.  1.
</event>
<event>
 7    1  0.2294706E-015  0.9000772E+02  0.7816164E-02  0.1186339E+00
        -11   -1    0    0    0    0  0.00000000000E+00  0.00000000000E+00  0.45593999997E+02  0.45594000000E+02  0.51100000000E-03 0.  1.
         11   -1    0    0    0    0 -0.00000000000E+00 -0.00000000000E+00 -0.45593999997E+02  0.45594000000E+02  0.51100000000E-03 0. -1.
    9900012    2    1    2    0    0  0.80483674210E+00 -0.81969516033E+00 -0.27093173873E+00  0.90007717684E+02  0.89999978758E+02 0.  0.
        -12    1    1    2    0    0 -0.80483674210E+00  0.81969516033E+00  0.27093173873E+00  0.11802823155E+01  0.00000000000E+00 0.  1.
         11    1    3    3    0    0  0.55643885310E+01 -0.15478244534E+01 -0.90578160026E+01  0.10742542123E+02  0.51100000000E-03 0. -1.
        -11    1    3    3    0    0  0.23907667499E+02 -0.25381313105E+02 -0.98655873206E+01  0.36236962257E+02  0.51100000000E-03 0.  1.
         12    1    3    3    0    0 -0.28667219287E+02  0.26109442398E+02  0.18652471584E+02  0.43028213305E+02  0.00000000000E+00 0. -1.
</event>
<event>
 7    1  0.2294706E-015  0.9000763E+02  0.7816164E-02  0.1186339E+00
        -11   -1    0    0    0    0  0.00000000000E+00  0.00000000000E+00  0.45593999997E+02  0.45594000000E+02  0.51100000000E-03 0.  1.
         11   -1    0    0    0    0 -0.00000000000E+00 -0.00000000000E+00 -0.45593999997E+02  0.45594000000E+02  0.51100000000E-03 0. -1.
    9900012    2    1    2    0    0  0.45955882006E+00  0.98123199490E+00 -0.46825762753E+00  0.90007628981E+02  0.89999888883E+02 0.  0.
        -12    1    1    2    0    0 -0.45955882006E+00 -0.98123199490E+00  0.46825762753E+00  0.11803710191E+01  0.00000000000E+00 0.  1.
         11    1    3    3    0    0  0.45200173263E+01  0.73210066793E+01  0.95531039011E+01  0.12856496017E+02  0.51100000000E-03 0. -1.
        -11    1    3    3    0    0  0.16959649319E+02 -0.61284444180E+01  0.28233558007E+02  0.33501064669E+02  0.51100000000E-03 0.  1.
         12    1    3    3    0    0 -0.21020107825E+02 -0.21133026644E+00 -0.38254919535E+02  0.43650068295E+02  0.00000000000E+00 0. -1.
</event>
<event>
 7    1  0.2294706E-015  0.9000768E+02  0.7816164E-02  0.1186339E+00
        -11   -1    0    0    0    0  0.00000000000E+00  0.00000000000E+00  0.45593999997E+02  0.45594000000E+02  0.51100000000E-03 0. -1.
         11   -1    0    0    0    0 -0.00000000000E+00 -0.00000000000E+00 -0.45593999997E+02  0.45594000000E+02  0.51100000000E-03 0.  1.
    9900012    2    1    2    0    0  0.67759100047E+00 -0.87896183828E+00  0.40180623464E+00  0.90007681514E+02  0.89999942110E+02 0.  0.
        -12    1    1    2    0    0 -0.67759100047E+00  0.87896183828E+00 -0.40180623464E+00  0.11803184855E+01  0.00000000000E+00 0.  1.
         11    1    3    3    0    0 -0.22933793460E+01 -0.36581778426E+02 -0.10073957108E+02  0.38012770403E+02  0.51100000000E-03 0. -1.
        -11    1    3    3    0    0  0.96503091562E+01 -0.39458366576E+01  0.44612174331E+01  0.11340218472E+02  0.51100000000E-03 0.  1.
        -12    1    3    3    0    0 -0.66793388097E+01  0.39648653246E+02  0.60145459093E+01  0.40654692640E+02  0.00000000000E+00 0.  1.
</event>
<event>
 7    1  0.2294706E-015  0.9000765E+02  0.7816164E-02  0.1186339E+00
        -11   -1    0    0    0    0  0.00000000000E+00  0.00000000000E+00  0.45593999997E+02  0.45594000000E+02  0.51100000000E-03 0. -1.
         11   -1    0    0    0    0 -0.00000000000E+00 -0.00000000000E+00 -0.45593999997E+02  0.45594000000E+02  0.51100000000E-03 0.  1.
    9900012    2    1    2    0    0  0.90132669151E+00  0.43783930235E+00 -0.62380011250E+00  0.90007652746E+02  0.89999912962E+02 0.  0.
        -12    1    1    2    0    0 -0.90132669151E+00 -0.43783930235E+00  0.62380011250E+00  0.11803472539E+01  0.00000000000E+00 0.  1.
         11    1    3    3    0    0 -0.32301697560E+02  0.27223855550E+02 -0.64349837595E+00  0.42248693077E+02  0.51100000000E-03 0. -1.
        -11    1    3    3    0    0  0.45278501563E+00  0.21006766446E+01  0.33311649121E+01  0.39641539536E+01  0.51100000000E-03 0.  1.
        -12    1    3    3    0    0  0.32750239236E+02 -0.28886692892E+02 -0.33114666486E+01  0.43794805715E+02  0.00000000000E+00 0.  1.
</event>
<event>
 7    1  0.2294706E-015  0.9000797E+02  0.7816164E-02  0.1186339E+00
        -11   -1    0    0    0    0  0.00000000000E+00  0.00000000000E+00  0.45593999997E+02  0.45594000000E+02  0.51100000000E-03 0.  1.
         11   -1    0    0    0    0 -0.00000000000E+00 -0.00000000000E+00 -0.45593999997E+02  0.45594000000E+02  0.51100000000E-03 0. -1.
    9900012    2    1    2    0    0  0.59881083007E+00  0.90405710157E+00  0.46537521768E+00  0.90007971294E+02  0.90000235715E+02 0.  0.
        -12    1    1    2    0    0 -0.59881083007E+00 -0.90405710157E+00 -0.46537521768E+00  0.11800287057E+01  0.00000000000E+00 0.  1.
         11    1    3    3    0    0  0.40976791965E+02  0.97360289330E+01 -0.13353105743E+02  0.44183630140E+02  0.51100000000E-03 0. -1.
        -11    1    3    3    0    0 -0.45524072578E+01  0.12008392354E+01  0.63057582718E+01  0.78694989901E+01  0.51100000000E-03 0.  1.
        -12    1    3    3    0    0 -0.35825573877E+02 -0.10032811067E+02  0.75127226889E+01  0.37954842164E+02  0.00000000000E+00 0.  1.
</event>
<event>
 7    1  0.2294706E-015  0.9000766E+02  0.7816164E-02  0.1186339E+00
        -11   -1    0    0    0    0  0.00000000000E+00  0.00000000000E+00  0.45593999997E+02  0.45594000000E+02  0.51100000000E-03 0.  1.
         11   -1    0    0    0    0 -0.00000000000E+00 -0.00000000000E+00 -0.45593999997E+02  0.45594000000E+02  0.51100000000E-03 0. -1.
    9900012    2    1    2    0    0 -0.46683317333E+00  0.29804369196E+00 -0.10423257645E+01  0.90007658417E+02  0.89999918708E+02 0.  0.
        -12    1    1    2    0    0  0.46683317333E+00 -0.29804369196E+00  0.10423257645E+01  0.11803415833E+01  0.00000000000E+00 0.  1.
         11    1    3    3    0    0  0.20345147271E+01  0.97867035896E+01 -0.13546131135E+01  0.10087308574E+02  0.51100000000E-03 0. -1.
        -11    1    3    3    0    0  0.30455257062E+02 -0.83280088108E+01  0.23711079040E+02  0.39485360363E+02  0.51100000000E-03 0.  1.
         12    1    3    3    0    0 -0.32956604962E+02 -0.11606510868E+01 -0.23398791691E+02  0.40434989480E+02  0.00000000000E+00 0. -1.
</event>
<event>
 7    1  0.2294706E-015  0.9000771E+02  0.7816164E-02  0.1186339E+00
        -11   -1    0    0    0    0  0.00000000000E+00  0.00000000000E+00  0.45593999997E+02  0.45594000000E+02  0.51100000000E-03 0.  1.
         11   -1    0    0    0    0 -0.00000000000E+00 -0.00000000000E+00 -0.45593999997E+02  0.45594000000E+02  0.51100000000E-03 0. -1.
    9900012    2    1    2    0    0  0.10991435896E+01  0.53390769510E-01 -0.42675188803E+00  0.90007710045E+02  0.89999971017E+02 0.  0.
        -12    1    1    2    0    0 -0.10991435896E+01 -0.53390769510E-01  0.42675188803E+00  0.11802899554E+01  0.00000000000E+00 0.  1.
         11    1    3    3    0    0  0.69490397102E+01  0.59973274922E+01  0.21269977005E+01  0.94223781193E+01  0.51100000000E-03 0. -1.
        -11    1    3    3    0    0 -0.69763760250E+01 -0.39296237500E+02  0.15294419364E+02  0.42740886374E+02  0.51100000000E-03 0.  1.
         12    1    3    3    0    0  0.11264799044E+01  0.33352300777E+02 -0.17848168953E+02  0.37844445551E+02  0.00000000000E+00 0. -1.
</event>
<event>
 7    1  0.2294706E-015  0.9000767E+02  0.7816164E-02  0.1186339E+00
        -11   -1    0    0    0    0  0.00000000000E+00  0.00000000000E+00  0.45593999997E+02  0.45594000000E+02  0.51100000000E-03 0.  1.
         11   -1    0    0    0    0 -0.00000000000E+00 -0.00000000000E+00 -0.45593999997E+02  0.45594000000E+02  0.51100000000E-03 0. -1.
    9900012    2    1    2    0    0 -0.61623758755E+00  0.85748590854E+00 -0.52740729229E+00  0.90007665598E+02  0.89999925984E+02 0.  0.
        -12    1    1    2    0    0  0.61623758755E+00 -0.85748590854E+00  0.52740729229E+00  0.11803344016E+01  0.00000000000E+00 0.  1.
         11    1    3    3    0    0  0.24537490225E+02 -0.21399661008E+02 -0.21728470948E+02  0.39142820130E+02  0.51100000000E-03 0. -1.
        -11    1    3    3    0    0  0.10648760002E+01  0.36654063288E+01 -0.70860130080E+01  0.80486486481E+01  0.51100000000E-03 0.  1.
        -12    1    3    3    0    0 -0.26218603813E+02  0.18591740588E+02  0.28287076663E+02  0.42816196820E+02  0.00000000000E+00 0.  1.
</event>
<event>
 7    1  0.2294706E-015  0.9000770E+02  0.7816164E-02  0.1186339E+00
        -11   -1    0    0    0    0  0.00000000000E+00  0.00000000000E+00  0.45593999997E+02  0.45594000000E+02  0.51100000000E-03 0.  1.
         11   -1    0    0    0    0 -0.00000000000E+00 -0.00000000000E+00 -0.45593999997E+02  0.45594000000E+02  0.51100000000E-03 0. -1.
    9900012    2    1    2    0    0 -0.11203275543E+01  0.36299845136E+00 -0.78708542360E-01  0.90007704808E+02  0.89999965712E+02 0.  0.
        -12    1    1    2    0    0  0.11203275543E+01 -0.36299845136E+00  0.78708542360E-01  0.11802951915E+01  0.00000000000E+00 0.  1.
         11    1    3    3    0    0 -0.63887250695E+01 -0.68802760411E+01  0.27055514493E+01  0.97710805606E+01  0.51100000000E-03 0. -1.
        -11    1    3    3    0    0  0.16569967516E+02 -0.18694655619E+02  0.28605282155E+02  0.37977837480E+02  0.51100000000E-03 0.  1.
         12    1    3    3    0    0 -0.11301570001E+02  0.25937930112E+02 -0.31389542147E+02  0.42258786768E+02  0.00000000000E+00 0. -1.
</event>
<event>
 7    1  0.2294706E-015  0.9000772E+02  0.7816164E-02  0.1186339E+00
        -11   -1    0    0    0    0  0.00000000000E+00  0.00000000000E+00  0.45593999997E+02  0.45594000000E+02  0.51100000000E-03 0. -1.
         11   -1    0    0    0    0 -0.00000000000E+00 -0.00000000000E+00 -0.45593999997E+02  0.45594000000E+02  0.51100000000E-03 0.  1.
    9900012    2    1    2    0    0 -0.10639531354E+01 -0.19629332190E+00  0.47174522947E+00  0.90007715753E+02  0.89999976801E+02 0.  0.
        -12    1    1    2    0    0  0.10639531354E+01  0.19629332190E+00 -0.47174522947E+00  0.11802842471E+01  0.00000000000E+00 0.  1.
         11    1    3    3    0    0 -0.20475040227E+02 -0.45586579872E+01  0.36313923093E+02  0.41936972299E+02  0.51100000000E-03 0. -1.
        -11    1    3    3    0    0  0.87940599824E+01  0.23571786651E+01  0.14729078256E+01  0.92228650623E+01  0.51100000000E-03 0.  1.
        -12    1    3    3    0    0  0.10617027109E+02  0.20051860002E+01 -0.37315085689E+02  0.38847878392E+02  0.00000000000E+00 0.  1.
</event>
<event>
 7    1  0.2294706E-015  0.9000772E+02  0.7816164E-02  0.1186339E+00
        -11   -1    0    0    0    0  0.00000000000E+00  0.00000000000E+00  0.45593999997E+02  0.45594000000E+02  0.51100000000E-03 0. -1.
         11   -1    0    0    0    0 -0.00000000000E+00 -0.00000000000E+00 -0.45593999997E+02  0.45594000000E+02  0.51100000000E-03 0.  1.
    9900012    2    1    2    0    0 -0.64607660908E+00  0.39311192093E+00  0.90615387357E+00  0.90007717487E+02  0.89999978558E+02 0.  0.
        -12    1    1    2    0    0  0.64607660908E+00 -0.39311192093E+00 -0.90615387357E+00  0.11802825127E+01  0.00000000000E+00 0.  1.
         11    1    3    3    0    0  0.11459313932E+02 -0.89566284719E+01  0.35083803190E+02  0.37979077344E+02  0.51100000000E-03 0. -1.
        -11    1    3    3    0    0  0.60703219067E+01  0.35403789160E+01  0.48823811111E+01  0.85569116213E+01  0.51100000000E-03 0.  1.
        -12    1    3    3    0    0 -0.18175712447E+02  0.58093614768E+01 -0.39060030427E+02  0.43471728522E+02  0.00000000000E+00 0.  1.
</event>
<event>
 7    1  0.2294706E-015  0.9000761E+02  0.7816164E-02  0.1186339E+00
        -11   -1    0    0    0    0  0.00000000000E+00  0.00000000000E+00  0.45593999997E+02  0.45594000000E+02  0.51100000000E-03 0.  1.
         11   -1    0    0    0    0 -0.00000000000E+00 -0.00000000000E+00 -0.45593999997E+02  0.45594000000E+02  0.51100000000E-03 0. -1.
    9900012    2    1    2    0    0 -0.77540178446E+00 -0.74532146497E+00 -0.48637476763E+00  0.90007613441E+02  0.89999873139E+02 0.  0.
        -12    1    1    2    0    0  0.77540178446E+00  0.74532146497E+00  0.48637476763E+00  0.11803865587E+01  0.00000000000E+00 0.  1.
         11    1    3    3    0    0 -0.77203103619E+01  0.56447189259E+01  0.12437494260E+00  0.95645968668E+01  0.51100000000E-03 0. -1.
        -11    1    3    3    0    0  0.86234710197E+01  0.25456335449E+02  0.27119734121E+02  0.38182053978E+02  0.51100000000E-03 0.  1.
         12    1    3    3    0    0 -0.16785624423E+01 -0.31846375840E+02 -0.27730483831E+02  0.42260962596E+02  0.00000000000E+00 0. -1.
</event>
<event>
 7    1  0.2294706E-015  0.9000787E+02  0.7816164E-02  0.1186339E+00
        -11   -1    0    0    0    0  0.00000000000E+00  0.00000000000E+00  0.45593999997E+02  0.45594000000E+02  0.51100000000E-03 0.  1.
         11   -1    0    0    0    0 -0.00000000000E+00 -0.00000000000E+00 -0.45593999997E+02  0.45594000000E+02  0.51100000000E-03 0. -1.
    9900012    2    1    2    0    0  0.31216394073E+00 -0.45309473230E+00 -0.10440194506E+01  0.90007865357E+02  0.90000128380E+02 0.  0.
        -12    1    1    2    0    0 -0.31216394073E+00  0.45309473230E+00  0.10440194506E+01  0.11801346429E+01  0.00000000000E+00 0.  1.
         11    1    3    3    0    0  0.30797402092E+02  0.16186580486E+02  0.41952958810E+01  0.35044056147E+02  0.51100000000E-03 0. -1.
        -11    1    3    3    0    0 -0.17295552935E+01 -0.61115045165E+01  0.16320638453E+02  0.17512997708E+02  0.51100000000E-03 0.  1.
        -12    1    3    3    0    0 -0.28755682858E+02 -0.10528170702E+02 -0.21559953784E+02  0.37450811502E+02  0.00000000000E+00 0.  1.
</event>
<event>
 7    1  0.2294706E-015  0.9000771E+02  0.7816164E-02  0.1186339E+00
        -11   -1    0    0    0    0  0.00000000000E+00  0.00000000000E+00  0.45593999997E+02  0.45594000000E+02  0.51100000000E-03 0.  1.
         11   -1    0    0    0    0 -0.00000000000E+00 -0.00000000000E+00 -0.45593999997E+02  0.45594000000E+02  0.51100000000E-03 0. -1.
    9900012    2    1    2    0    0 -0.11143639776E+01 -0.32158372510E+00  0.21878755979E+00  0.90007707171E+02  0.89999968105E+02 0.  0.
        -12    1    1    2    0    0  0.11143639776E+01  0.32158372510E+00 -0.21878755979E+00  0.11802928294E+01  0.00000000000E+00 0.  1.
         11    1    3    3    0    0 -0.25953421572E+01 -0.24136831652E+02  0.91582336279E+01  0.25946014849E+02  0.51100000000E-03 0. -1.
        -11    1    3    3    0    0 -0.23339578260E+02 -0.32568312187E+01 -0.13325874529E+02  0.27072528423E+02  0.51100000000E-03 0.  1.
         12    1    3    3    0    0  0.24820556440E+02  0.27072079146E+02  0.43864284609E+01  0.36989163899E+02  0.00000000000E+00 0. -1.
</event>
<event>
 7    1  0.2294706E-015  0.9000785E+02  0.7816164E-02  0.1186339E+00
        -11   -1    0    0    0    0  0.00000000000E+00  0.00000000000E+00  0.45593999997E+02  0.45594000000E+02  0.51100000000E-03 0. -1.
         11   -1    0    0    0    0 -0.00000000000E+00 -0.00000000000E+00 -0.45593999997E+02  0.45594000000E+02  0.51100000000E-03 0.  1.
    9900012    2    1    2    0    0 -0.59523910458E+00  0.28656164621E+00  0.97791366049E+00  0.90007854968E+02  0.90000117854E+02 0.  0.
        -12    1    1    2    0    0  0.59523910458E+00 -0.28656164621E+00 -0.97791366049E+00  0.11801450318E+01  0.00000000000E+00 0.  1.
         11    1    3    3    0    0  0.82174921596E+01 -0.45318256867E+01  0.16292925436E+01  0.95246635584E+01  0.51100000000E-03 0. -1.
        -11    1    3    3    0    0 -0.15054306414E+02 -0.31642822096E+02  0.17623615247E+02  0.39223617202E+02  0.51100000000E-03 0.  1.
         12    1    3    3    0    0  0.62415751495E+01  0.36461209429E+02 -0.18274994130E+02  0.41259574208E+02  0.00000000000E+00 0. -1.
</event>
<event>
 7    1  0.2294706E-015  0.9000743E+02  0.7816164E-02  0.1186340E+00
        -11   -1    0    0    0    0  0.00000000000E+00  0.00000000000E+00  0.45593999997E+02  0.45594000000E+02  0.51100000000E-03 0. -1.
         11   -1    0    0    0    0 -0.00000000000E+00 -0.00000000000E+00 -0.45593999997E+02  0.45594000000E+02  0.51100000000E-03 0.  1.
    9900012    2    1    2    0    0 -0.75623353324E+00 -0.29212978796E+00  0.85820278256E+00  0.90007431922E+02  0.89999689223E+02 0.  0.
        -12    1    1    2    0    0  0.75623353324E+00  0.29212978796E+00 -0.85820278256E+00  0.11805680776E+01  0.00000000000E+00 0.  1.
         11    1    3    3    0    0  0.12917461220E+01 -0.73503112490E+01  0.59291789008E+01  0.95315710248E+01  0.51100000000E-03 0. -1.
        -11    1    3    3    0    0 -0.31094981022E+02  0.14446030548E+02 -0.26748452717E+02  0.43486381390E+02  0.51100000000E-03 0.  1.
         12    1    3    3    0    0  0.29047001367E+02 -0.73878490867E+01  0.21677476599E+02  0.36989479508E+02  0.00000000000E+00 0. -1.
</event>
<event>
 7    1  0.2294706E-015  0.9000776E+02  0.7816164E-02  0.1186339E+00
        -11   -1    0    0    0    0  0.00000000000E+00  0.00000000000E+00  0.45593999997E+02  0.45594000000E+02  0.51100000000E-03 0.  1.
         11   -1    0    0    0    0 -0.00000000000E+00 -0.00000000000E+00 -0.45593999997E+02  0.45594000000E+02  0.51100000000E-03 0. -1.
    9900012    2    1    2    0    0 -0.92390192873E+00 -0.11976819864E+00 -0.72459307726E+00  0.90007756668E+02  0.90000018256E+02 0.  0.
        -12    1    1    2    0    0  0.92390192873E+00  0.11976819864E+00  0.72459307726E+00  0.11802433321E+01  0.00000000000E+00 0.  1.
         11    1    3    3    0    0 -0.75817824906E-01 -0.36400328817E+02 -0.11608607322E+02  0.38206667619E+02  0.51100000000E-03 0. -1.
        -11    1    3    3    0    0 -0.33251066000E+01 -0.16648963897E+01 -0.83841459466E+01  0.91718110210E+01  0.51100000000E-03 0.  1.
        -12    1    3    3    0    0  0.24770224962E+01  0.37945457008E+02  0.19268160192E+02  0.42629278028E+02  0.00000000000E+00 0.  1.
</event>
<event>
 7    1  0.2294706E-015  0.9000777E+02  0.7816164E-02  0.1186339E+00
        -11   -1    0    0    0    0  0.00000000000E+00  0.00000000000E+00  0.45593999997E+02  0.45594000000E+02  0.51100000000E-03 0.  1.
         11   -1    0    0    0    0 -0.00000000000E+00 -0.00000000000E+00 -0.45593999997E+02  0.45594000000E+02  0.51100000000E-03 0. -1.
    9900012    2    1    2    0    0  0.13007614565E+00 -0.18412822171E+00 -0.11585006283E+01  0.90007768365E+02  0.90000030108E+02 0.  0.
        -12    1    1    2    0    0 -0.13007614565E+00  0.18412822171E+00  0.11585006283E+01  0.11802316347E+01  0.00000000000E+00 0.  1.
         11    1    3    3    0    0  0.56597045903E+01  0.70274819934E+01 -0.39422537181E+01  0.98467824114E+01  0.51100000000E-03 0. -1.
        -11    1    3    3    0    0 -0.16439739699E+02 -0.39176606808E+02 -0.10668374711E+02  0.43805088535E+02  0.51100000000E-03 0.  1.
         12    1    3    3    0    0  0.10910111254E+02  0.31964996593E+02  0.13452127800E+02  0.36355897419E+02  0.00000000000E+00 0. -1.
</event>
<event>
 7    1  0.2294706E-015  0.9000774E+02  0.7816164E-02  0.1186339E+00
        -11   -1    0    0    0    0  0.00000000000E+00  0.00000000000E+00  0.45593999997E+02  0.45594000000E+02  0.51100000000E-03 0.  1.
         11   -1    0    0    0    0 -0.00000000000E+00 -0.00000000000E+00 -0.45593999997E+02  0.45594000000E+02  0.51100000000E-03 0. -1.
    9900012    2    1    2    0    0  0.38292832381E+00  0.81488364235E+00 -0.76311396812E+00  0.90007740545E+02  0.90000001921E+02 0.  0.
        -12    1    1    2    0    0 -0.38292832381E+00 -0.81488364235E+00  0.76311396812E+00  0.11802594546E+01  0.00000000000E+00 0.  1.
         11    1    3    3    0    0 -0.87850968023E+01  0.37974460374E+02 -0.14222901206E+02  0.41491306144E+02  0.51100000000E-03 0. -1.
        -11    1    3    3    0    0 -0.80299231631E+01 -0.35868354517E+01  0.13413819117E+01  0.88963116097E+01  0.51100000000E-03 0.  1.
        -12    1    3    3    0    0  0.17197948289E+02 -0.33572741280E+02  0.12118405326E+02  0.39620122792E+02  0.00000000000E+00 0.  1.
</event>
<event>
 7    1  0.2294706E-015  0.9000773E+02  0.7816164E-02  0.1186339E+00
        -11   -1    0    0    0    0  0.00000000000E+00  0.00000000000E+00  0.45593999997E+02  0.45594000000E+02  0.51100000000E-03 0. -1.
         11   -1    0    0    0    0 -0.00000000000E+00 -0.00000000000E+00 -0.45593999997E+02  0.45594000000E+02  0.51100000000E-03 0.  1.
    9900012    2    1    2    0    0  0.11040883047E+01  0.13541640133E+00 -0.39456832328E+00  0.90007731917E+02  0.89999993178E+02 0.  0.
        -12    1    1    2    0    0 -0.11040883047E+01 -0.13541640133E+00  0.39456832328E+00  0.11802680831E+01  0.00000000000E+00 0.  1.
         11    1    3    3    0    0 -0.97326301196E+01 -0.31579818799E+02  0.25943525520E+02  0.42012802348E+02  0.51100000000E-03 0. -1.
        -11    1    3    3    0    0 -0.30763849701E+01  0.61570832196E+00 -0.94735845902E+01  0.99795814777E+01  0.51100000000E-03 0.  1.
        -12    1    3    3    0    0  0.13913103394E+02  0.31099526879E+02 -0.16864509253E+02  0.38015348091E+02  0.00000000000E+00 0.  1.
</event>
<event>
 7    1  0.2294706E-015  0.9000730E+02  0.7816164E-02  0.1186340E+00
        -11   -1    0    0    0    0  0.00000000000E+00  0.00000000000E+00  0.45593999997E+02  0.45594000000E+02  0.51100000000E-03 0.  1.
         11   -1    0    0    0    0 -0.00000000000E+00 -0.00000000000E+00 -0.45593999997E+02  0.45594000000E+02  0.51100000000E-03 0. -1.
    9900012    2    1    2    0    0 -0.70191347560E+00  0.92133858249E+00  0.22915279374E+00  0.90007297534E+02  0.89999553060E+02 0.  0.
        -12    1    1    2    0    0  0.70191347560E+00 -0.92133858249E+00 -0.22915279374E+00  0.11807024662E+01  0.00000000000E+00 0.  1.
         11    1    3    3    0    0  0.47413612089E+01 -0.30459232880E+02 -0.15163123014E+02  0.34353539462E+02  0.51100000000E-03 0. -1.
        -11    1    3    3    0    0  0.12153212874E+02 -0.49199660679E+01  0.45947749269E+01  0.13893113624E+02  0.51100000000E-03 0.  1.
         12    1    3    3    0    0 -0.17596487559E+02  0.36300537531E+02  0.10797500881E+02  0.41760644448E+02  0.00000000000E+00 0. -1.
</event>
<event>
 7    1  0.2294706E-015  0.9000770E+02  0.7816164E-02  0.1186339E+00
        -11   -1    0    0    0    0  0.00000000000E+00  0.00000000000E+00  0.45593999997E+02  0.45594000000E+02  0.51100000000E-03 0.  1.
         11   -1    0    0    0    0 -0.00000000000E+00 -0.00000000000E+00 -0.45593999997E+02  0.45594000000E+02  0.51100000000E-03 0. -1.
    9900012    2    1    2    0    0 -0.92948448642E+00 -0.45211683606E+00  0.56986620966E+00  0.90007704045E+02  0.89999964939E+02 0.  0.
        -12    1    1    2    0    0  0.92948448642E+00  0.45211683606E+00 -0.56986620966E+00  0.11802959548E+01  0.00000000000E+00 0.  1.
         11    1    3    3    0    0 -0.58355491173E+01  0.36722137360E+01 -0.10908814068E+00  0.68957006683E+01  0.51100000000E-03 0. -1.
        -11    1    3    3    0    0 -0.36937177480E+02 -0.13333552202E+02 -0.60784285763E+01  0.39737714941E+02  0.51100000000E-03 0.  1.
         12    1    3    3    0    0  0.41843242110E+02  0.92092216298E+01  0.67573829267E+01  0.43374288436E+02  0.00000000000E+00 0. -1.
</event>
<event>
 7    1  0.2294706E-015  0.9000762E+02  0.7816164E-02  0.1186339E+00
        -11   -1    0    0    0    0  0.00000000000E+00  0.00000000000E+00  0.45593999997E+02  0.45594000000E+02  0.51100000000E-03 0.  1.
         11   -1    0    0    0    0 -0.00000000000E+00 -0.00000000000E+00 -0.45593999997E+02  0.45594000000E+02  0.51100000000E-03 0. -1.
    9900012    2    1    2    0    0 -0.19683075416E+00 -0.93746979588E+00  0.68971987120E+00  0.90007616391E+02  0.89999876127E+02 0.  0.
        -12    1    1    2    0    0  0.19683075416E+00  0.93746979588E+00 -0.68971987120E+00  0.11803836091E+01  0.00000000000E+00 0.  1.
         11    1    3    3    0    0 -0.18959380208E+01  0.12126149186E+02  0.81607389356E+01  0.14738919068E+02  0.51100000000E-03 0. -1.
        -11    1    3    3    0    0 -0.23239156157E+02 -0.43058812499E+01  0.24328515801E+02  0.33918662614E+02  0.51100000000E-03 0.  1.
         12    1    3    3    0    0  0.24938263424E+02 -0.87577377317E+01 -0.31799534865E+02  0.41350034709E+02  0.00000000000E+00 0. -1.
</event>
<event>
 7    1  0.2294706E-015  0.9000776E+02  0.7816164E-02  0.1186339E+00
        -11   -1    0    0    0    0  0.00000000000E+00  0.00000000000E+00  0.45593999997E+02  0.45594000000E+02  0.51100000000E-03 0.  1.
         11   -1    0    0    0    0 -0.00000000000E+00 -0.00000000000E+00 -0.45593999997E+02  0.45594000000E+02  0.51100000000E-03 0. -1.
    9900012    2    1    2    0    0 -0.37952143257E+00 -0.70190396003E+00 -0.86963219798E+00  0.90007760259E+02  0.90000021894E+02 0.  0.
        -12    1    1    2    0    0  0.37952143257E+00  0.70190396003E+00  0.86963219798E+00  0.11802397412E+01  0.00000000000E+00 0.  1.
         11    1    3    3    0    0  0.22508971622E+02 -0.40375459523E+01 -0.25651529858E+02  0.34365048598E+02  0.51100000000E-03 0. -1.
        -11    1    3    3    0    0  0.84188612877E+01  0.96936284354E+01 -0.31359035705E+01  0.13216563437E+02  0.51100000000E-03 0.  1.
        -12    1    3    3    0    0 -0.31307354342E+02 -0.63579864431E+01  0.27917801231E+02  0.42426148224E+02  0.00000000000E+00 0.  1.
</event>
<event>
 7    1  0.2294706E-015  0.9000788E+02  0.7816164E-02  0.1186339E+00
        -11   -1    0    0    0    0  0.00000000000E+00  0.00000000000E+00  0.45593999997E+02  0.45594000000E+02  0.51100000000E-03 0.  1.
         11   -1    0    0    0    0 -0.00000000000E+00 -0.00000000000E+00 -0.45593999997E+02  0.45594000000E+02  0.51100000000E-03 0. -1.
    9900012    2    1    2    0    0 -0.26163336078E+00 -0.11087030191E+01 -0.30825084713E+00  0.90007875860E+02  0.90000139022E+02 0.  0.
        -12    1    1    2    0    0  0.26163336078E+00  0.11087030191E+01  0.30825084713E+00  0.11801241396E+01  0.00000000000E+00 0.  1.
         11    1    3    3    0    0  0.62909518879E+01  0.67849383822E+01  0.20596432677E+01  0.94791136272E+01  0.51100000000E-03 0. -1.
        -11    1    3    3    0    0  0.32127696663E+02 -0.87821593516E+01  0.16852439467E+02  0.37327200966E+02  0.51100000000E-03 0.  1.
         12    1    3    3    0    0 -0.38680281912E+02  0.88851795027E+00 -0.19220333582E+02  0.43201561267E+02  0.00000000000E+00 0. -1.
</event>
<event>
 7    1  0.2294706E-015  0.9000773E+02  0.7816164E-02  0.1186339E+00
        -11   -1    0    0    0    0  0.00000000000E+00  0.00000000000E+00  0.45593999997E+02  0.45594000000E+02  0.51100000000E-03 0.  1.
         11   -1    0    0    0    0 -0.00000000000E+00 -0.00000000000E+00 -0.45593999997E+02  0.45594000000E+02  0.51100000000E-03 0. -1.
    9900012    2    1    2    0    0 -0.11033408347E+01 -0.34261864142E+00  0.24143190180E+00  0.90007729737E+02  0.89999990969E+02 0.  0.
        -12    1    1    2    0    0  0.11033408347E+01  0.34261864142E+00 -0.24143190180E+00  0.11802702632E+01  0.00000000000E+00 0.  1.
         11    1    3    3    0    0 -0.61484032146E+01  0.24962921180E+02  0.87992604969E+01  0.27173098489E+02  0.51100000000E-03 0. -1.
        -11    1    3    3    0    0  0.11203435409E+02  0.10416868325E+02  0.13498887597E+02  0.20402158643E+02  0.51100000000E-03 0.  1.
        -12    1    3    3    0    0 -0.61583730294E+01 -0.35722408147E+02 -0.22056716192E+02  0.42432472605E+02  0.00000000000E+00 0.  1.
</event>
<event>
 7    1  0.2294706E-015  0.9000773E+02  0.7816164E-02  0.1186339E+00
        -11   -1    0    0    0    0  0.00000000000E+00  0.00000000000E+00  0.45593999997E+02  0.45594000000E+02  0.51100000000E-03 0.  1.
         11   -1    0    0    0    0 -0.00000000000E+00 -0.00000000000E+00 -0.45593999997E+02  0.45594000000E+02  0.51100000000E-03 0. -1.
    9900012    2    1    2    0    0 -0.64028415115E+00  0.15435330996E+00 -0.97940969507E+00  0.90007732196E+02  0.89999993461E+02 0.  0.
        -12    1    1    2    0    0  0.64028415115E+00 -0.15435330996E+00  0.97940969507E+00  0.11802678041E+01  0.00000000000E+00 0.  1.
         11    1    3    3    0    0  0.72946810520E+01  0.21146880423E+02 -0.25892389353E+02  0.34217228846E+02  0.51100000000E-03 0. -1.
        -11    1    3    3    0    0 -0.43279847568E+01  0.43896161121E+01 -0.10437657217E+02  0.12122081921E+02  0.51100000000E-03 0.  1.
        -12    1    3    3    0    0 -0.36069804463E+01 -0.25382143225E+02  0.35350636874E+02  0.43668421429E+02  0.00000000000E+00 0.  1.
</event>
<event>
 7    1  0.2294706E-015  0.9000759E+02  0.7816164E-02  0.1186339E+00
        -11   -1    0    0    0    0  0.00000000000E+00  0.00000000000E+00  0.45593999997E+02  0.45594000000E+02  0.51100000000E-03 0.  1.
         11   -1    0    0    0    0 -0.00000000000E+00 -0.00000000000E+00 -0.45593999997E+02  0.45594000000E+02  0.51100000000E-03 0. -1.
    9900012    2    1    2    0    0  0.70988751599E-01  0.88075113870E+00 -0.78268673835E+00  0.90007593078E+02  0.89999852506E+02 0.  0.
        -12    1    1    2    0    0 -0.70988751599E-01 -0.88075113870E+00  0.78268673835E+00  0.11804069220E+01  0.00000000000E+00 0.  1.
         11    1    3    3    0    0 -0.64530461962E+01 -0.24935414589E+02 -0.30572245588E+02  0.39975979118E+02  0.51100000000E-03 0. -1.
        -11    1    3    3    0    0  0.35310700296E+01 -0.31058617029E+01 -0.34773911375E+01  0.58486820614E+01  0.51100000000E-03 0.  1.
        -12    1    3    3    0    0  0.29929649182E+01  0.28922027430E+02  0.33266949987E+02  0.44182931898E+02  0.00000000000E+00 0.  1.
</event>
<event>
 7    1  0.2294706E-015  0.9000798E+02  0.7816164E-02  0.1186339E+00
        -11   -1    0    0    0    0  0.00000000000E+00  0.00000000000E+00  0.45593999997E+02  0.45594000000E+02  0.51100000000E-03 0.  1.
         11   -1    0    0    0    0 -0.00000000000E+00 -0.00000000000E+00 -0.45593999997E+02  0.45594000000E+02  0.51100000000E-03 0. -1.
    9900012    2    1    2    0    0  0.40151204805E+00 -0.35014437162E+00 -0.10529134208E+01  0.90007983188E+02  0.90000247765E+02 0.  0.
        -12    1    1    2    0    0 -0.40151204805E+00  0.35014437162E+00  0.10529134208E+01  0.11800168123E+01  0.00000000000E+00 0.  1.
         11    1    3    3    0    0  0.23183795458E+02  0.35296677736E+02 -0.75392163651E+01  0.42897361395E+02  0.51100000000E-03 0. -1.
        -11    1    3    3    0    0 -0.71708974691E+01 -0.18781384227E+01 -0.40469590779E+01  0.84455344702E+01  0.51100000000E-03 0.  1.
        -12    1    3    3    0    0 -0.15611385941E+02 -0.33768683685E+02  0.10533262022E+02  0.38665087322E+02  0.00000000000E+00 0.  1.
</event>
<event>
 7    1  0.2294706E-015  0.9000764E+02  0.7816164E-02  0.1186339E+00
        -11   -1    0    0    0    0  0.00000000000E+00  0.00000000000E+00  0.45593999997E+02  0.45594000000E+02  0.51100000000E-03 0.  1.
         11   -1    0    0    0    0 -0.00000000000E+00 -0.00000000000E+00 -0.45593999997E+02  0.45594000000E+02  0.51100000000E-03 0. -1.
    9900012    2    1    2    0    0 -0.19918517220E+00 -0.11041378677E+00 -0.11581810662E+01  0.90007640174E+02  0.89999900224E+02 0.  0.
        -12    1    1    2    0    0  0.19918517220E+00  0.11041378677E+00  0.11581810662E+01  0.11803598261E+01  0.00000000000E+00 0.  1.
         11    1    3    3    0    0  0.40822794328E+02  0.15410537217E+02 -0.47060013235E+01  0.43887716309E+02  0.51100000000E-03 0. -1.
        -11    1    3    3    0    0 -0.91207110266E+01  0.18135516114E+01 -0.16453624664E+01  0.94437046218E+01  0.51100000000E-03 0.  1.
        -12    1    3    3    0    0 -0.31901268474E+02 -0.17334502615E+02  0.51931827237E+01  0.36676219243E+02  0.00000000000E+00 0.  1.
</event>
<event>
 7    1  0.2294706E-015  0.9000748E+02  0.7816164E-02  0.1186340E+00
        -11   -1    0    0    0    0  0.00000000000E+00  0.00000000000E+00  0.45593999997E+02  0.45594000000E+02  0.51100000000E-03 0.  1.
         11   -1    0    0    0    0 -0.00000000000E+00 -0.00000000000E+00 -0.45593999997E+02  0.45594000000E+02  0.51100000000E-03 0. -1.
    9900012    2    1    2    0    0  0.30712409960E+00 -0.14222815593E-01 -0.11397797173E+01  0.90007480917E+02  0.89999738865E+02 0.  0.
        -12    1    1    2    0    0 -0.30712409960E+00  0.14222815593E-01  0.11397797173E+01  0.11805190829E+01  0.00000000000E+00 0.  1.
         11    1    3    3    0    0 -0.39463486608E+01 -0.83324635349E+01 -0.54837824426E+00  0.92360346076E+01  0.51100000000E-03 0. -1.
        -11    1    3    3    0    0  0.15361760934E+02 -0.86430075593E+00  0.37237036056E+02  0.40290539452E+02  0.51100000000E-03 0.  1.
         12    1    3    3    0    0 -0.11108288174E+02  0.91825414752E+01 -0.37828437529E+02  0.40480906858E+02  0.00000000000E+00 0. -1.
</event>
<event>
 7    1  0.2294706E-015  0.9000787E+02  0.7816164E-02  0.1186339E+00
        -11   -1    0    0    0    0  0.00000000000E+00  0.00000000000E+00  0.45593999997E+02  0.45594000000E+02  0.51100000000E-03 0.  1.
         11   -1    0    0    0    0 -0.00000000000E+00 -0.00000000000E+00 -0.45593999997E+02  0.45594000000E+02  0.51100000000E-03 0. -1.
    9900012    2    1    2    0    0 -0.11614355395E+01  0.66408098340E-01  0.19840185302E+00  0.90007870412E+02  0.90000133502E+02 0.  0.
        -12    1    1    2    0    0  0.11614355395E+01 -0.66408098340E-01 -0.19840185302E+00  0.11801295875E+01  0.00000000000E+00 0.  1.
         11    1    3    3    0    0  0.14231580340E+02 -0.12349120099E+02 -0.34055628081E+02  0.38920745759E+02  0.51100000000E-03 0. -1.
        -11    1    3    3    0    0  0.56075993819E+01 -0.60439459991E+01  0.21621763205E+01  0.85234653029E+01  0.51100000000E-03 0.  1.
        -12    1    3    3    0    0 -0.21000615262E+02  0.18459474196E+02  0.32091853613E+02  0.42563659351E+02  0.00000000000E+00 0.  1.
</event>
<event>
 7    1  0.2294706E-015  0.9000775E+02  0.7816164E-02  0.1186339E+00
        -11   -1    0    0    0    0  0.00000000000E+00  0.00000000000E+00  0.45593999997E+02  0.45594000000E+02  0.51100000000E-03 0.  1.
         11   -1    0    0    0    0 -0.00000000000E+00 -0.00000000000E+00 -0.45593999997E+02  0.45594000000E+02  0.51100000000E-03 0. -1.
    9900012    2    1    2    0    0 -0.84549077324E+00 -0.25332467638E+00 -0.78355191255E+00  0.90007753569E+02  0.90000015116E+02 0.  0.
        -12    1    1    2    0    0  0.84549077324E+00  0.25332467638E+00  0.78355191255E+00  0.11802464315E+01  0.00000000000E+00 0.  1.
         11    1    3    3    0    0 -0.37901754081E+02  0.31332921281E+01  0.16067262138E+02  0.41285801371E+02  0.51100000000E-03 0. -1.
        -11    1    3    3    0    0  0.54209507070E+01  0.74329672537E+01  0.31949552138E+01  0.97387600772E+01  0.51100000000E-03 0.  1.
        -12    1    3    3    0    0  0.31635312601E+02 -0.10819584058E+02 -0.20045769264E+02  0.38983192121E+02  0.00000000000E+00 0.  1.
</event>
<event>
 7    1  0.2294706E-015  0.9000759E+02  0.7816164E-02  0.1186339E+00
        -11   -1    0    0    0    0  0.00000000000E+00  0.00000000000E+00  0.45593999997E+02  0.45594000000E+02  0.51100000000E-03 0. -1.
         11   -1    0    0    0    0 -0.00000000000E+00 -0.00000000000E+00 -0.45593999997E+02  0.45594000000E+02  0.51100000000E-03 0.  1.
    9900012    2    1    2    0    0 -0.10255926460E+01  0.72068362435E-01 -0.57993668054E+00  0.90007593003E+02  0.89999852431E+02 0.  0.
        -12    1    1    2    0    0  0.10255926460E+01 -0.72068362435E-01  0.57993668054E+00  0.11804069967E+01  0.00000000000E+00 0.  1.
         11    1    3    3    0    0  0.20579782838E+02 -0.26687773190E+02  0.11938371163E+02  0.35753173367E+02  0.51100000000E-03 0. -1.
        -11    1    3    3    0    0 -0.36476691785E+01 -0.10402011435E+02  0.32872577455E+00  0.11027936944E+02  0.51100000000E-03 0.  1.
        -12    1    3    3    0    0 -0.17957706306E+02  0.37161852988E+02 -0.12847033618E+02  0.43226482693E+02  0.00000000000E+00 0.  1.
</event>
<event>
 7    1  0.2294706E-015  0.9000781E+02  0.7816164E-02  0.1186339E+00
        -11   -1    0    0    0    0  0.00000000000E+00  0.00000000000E+00  0.45593999997E+02  0.45594000000E+02  0.51100000000E-03 0. -1.
         11   -1    0    0    0    0 -0.00000000000E+00 -0.00000000000E+00 -0.45593999997E+02  0.45594000000E+02  0.51100000000E-03 0.  1.
    9900012    2    1    2    0    0 -0.76739491108E+00 -0.57105574715E+00  0.69126420671E+00  0.90007811109E+02  0.90000073415E+02 0.  0.
        -12    1    1    2    0    0  0.76739491108E+00  0.57105574715E+00 -0.69126420671E+00  0.11801888914E+01  0.00000000000E+00 0.  1.
         11    1    3    3    0    0  0.26614873452E+02  0.23621279743E+02 -0.44475576185E+01  0.35862196176E+02  0.51100000000E-03 0. -1.
        -11    1    3    3    0    0  0.38951722884E+01 -0.90726040426E+01 -0.11891061784E+02  0.15455803502E+02  0.51100000000E-03 0.  1.
        -12    1    3    3    0    0 -0.31277440652E+02 -0.15119731447E+02  0.17029883610E+02  0.38689811430E+02  0.00000000000E+00 0.  1.
</event>
<event>
 7    1  0.2294706E-015  0.9000785E+02  0.7816164E-02  0.1186339E+00
        -11   -1    0    0    0    0  0.00000000000E+00  0.00000000000E+00  0.45593999997E+02  0.45594000000E+02  0.51100000000E-03 0.  1.
         11   -1    0    0    0    0 -0.00000000000E+00 -0.00000000000E+00 -0.45593999997E+02  0.45594000000E+02  0.51100000000E-03 0. -1.
    9900012    2    1    2    0    0 -0.69133291393E+00  0.86823798848E-01 -0.95251366171E+00  0.90007846686E+02  0.90000109462E+02 0.  0.
        -12    1    1    2    0    0  0.69133291393E+00 -0.86823798848E-01  0.95251366171E+00  0.11801533145E+01  0.00000000000E+00 0.  1.
         11    1    3    3    0    0  0.10837281310E+02 -0.70082014918E+01  0.37425626963E+02  0.39588370871E+02  0.51100000000E-03 0. -1.
        -11    1    3    3    0    0 -0.63831160373E+01  0.52485955152E+01  0.29173379224E+01  0.87637198747E+01  0.51100000000E-03 0.  1.
        -12    1    3    3    0    0 -0.51454981867E+01  0.18464297755E+01 -0.41295478547E+02  0.41655755940E+02  0.00000000000E+00 0.  1.
</event>
<event>
 7    1  0.2294706E-015  0.9000779E+02  0.7816164E-02  0.1186339E+00
        -11   -1    0    0    0    0  0.00000000000E+00  0.00000000000E+00  0.45593999997E+02  0.45594000000E+02  0.51100000000E-03 0. -1.
         11   -1    0    0    0    0 -0.00000000000E+00 -0.00000000000E+00 -0.45593999997E+02  0.45594000000E+02  0.51100000000E-03 0.  1.
    9900012    2    1    2    0    0 -0.97549807172E+00 -0.65539161560E+00 -0.10846616969E+00  0.90007788338E+02  0.90000050344E+02 0.  0.
        -12    1    1    2    0    0  0.97549807172E+00  0.65539161560E+00  0.10846616969E+00  0.11802116622E+01  0.00000000000E+00 0.  1.
         11    1    3    3    0    0 -0.15777864471E+02  0.20579448868E+02  0.10803811390E+02  0.28092295453E+02  0.51100000000E-03 0. -1.
        -11    1    3    3    0    0 -0.12988129784E+02  0.15618659050E+01 -0.20857641378E+02  0.24620563448E+02  0.51100000000E-03 0.  1.
         12    1    3    3    0    0  0.27790496183E+02 -0.22796706389E+02  0.99453638178E+01  0.37294929437E+02  0.00000000000E+00 0. -1.
</event>
<event>
 7    1  0.2294706E-015  0.9000776E+02  0.7816164E-02  0.1186339E+00
        -11   -1    0    0    0    0  0.00000000000E+00  0.00000000000E+00  0.45593999997E+02  0.45594000000E+02  0.51100000000E-03 0. -1.
         11   -1    0    0    0    0 -0.00000000000E+00 -0.00000000000E+00 -0.45593999997E+02  0.45594000000E+02  0.51100000000E-03 0.  1.
    9900012    2    1    2    0    0  0.82512496965E+00  0.24444713494E-01  0.84352200341E+00  0.90007763528E+02  0.90000025207E+02 0.  0.
        -12    1    1    2    0    0 -0.82512496965E+00 -0.24444713494E-01 -0.84352200341E+00  0.11802364720E+01  0.00000000000E+00 0.  1.
         11    1    3    3    0    0 -0.30752903374E+02  0.15818216813E+02  0.12596736359E+01  0.34605546188E+02  0.51100000000E-03 0. -1.
        -11    1    3    3    0    0 -0.79039523102E+01 -0.12848334803E+01 -0.94428798649E+01  0.12381083943E+02  0.51100000000E-03 0.  1.
        -12    1    3    3    0    0  0.39481980653E+02 -0.14508938619E+02  0.90267282323E+01  0.43021133397E+02  0.00000000000E+00 0.  1.
</event>
<event>
 7    1  0.2294706E-015  0.9000781E+02  0.7816164E-02  0.1186339E+00
        -11   -1    0    0    0    0  0.00000000000E+00  0.00000000000E+00  0.45593999997E+02  0.45594000000E+02  0.51100000000E-03 0. -1.
         11   -1    0    0    0    0 -0.00000000000E+00 -0.00000000000E+00 -0.45593999997E+02  0.45594000000E+02  0.51100000000E-03 0.  1.
    9900012    2    1    2    0    0 -0.73448088451E+00 -0.39261372161E+00  0.83621039791E+00  0.90007806993E+02  0.90000069245E+02 0.  0.
        -12    1    1    2    0    0  0.73448088451E+00  0.39261372161E+00 -0.83621039791E+00  0.11801930070E+01  0.00000000000E+00 0.  1.
         11    1    3    3    0    0 -0.20210530299E+02  0.31286759090E+02  0.37407012032E+01  0.37434204614E+02  0.51100000000E-03 0. -1.
        -11    1    3    3    0    0  0.89727689989E+01  0.74000924850E+01  0.20335963655E+01  0.11807093916E+02  0.51100000000E-03 0.  1.
        -12    1    3    3    0    0  0.10503280415E+02 -0.39079465297E+02 -0.49380871708E+01  0.40766508463E+02  0.00000000000E+00 0.  1.
</event>
<event>
 7    1  0.2294706E-015  0.9000771E+02  0.7816164E-02  0.1186339E+00
        -11   -1    0    0    0    0  0.00000000000E+00  0.00000000000E+00  0.45593999997E+02  0.45594000000E+02  0.51100000000E-03 0. -1.
         11   -1    0    0    0    0 -0.00000000000E+00 -0.00000000000E+00 -0.45593999997E+02  0.45594000000E+02  0.51100000000E-03 0.  1.
    9900012    2    1    2    0    0 -0.11416870713E+01 -0.29648406898E+00  0.41515616652E-01  0.90007713713E+02  0.89999974734E+02 0.  0.
        -12    1    1    2    0    0  0.11416870713E+01  0.29648406898E+00 -0.41515616652E-01  0.11802862866E+01  0.00000000000E+00 0.  1.
         11    1    3    3    0    0  0.76421437501E+01 -0.50465412137E+01  0.28062974396E+01  0.95783738129E+01  0.51100000000E-03 0. -1.
        -11    1    3    3    0    0 -0.16653180330E+02  0.36115739117E+02  0.16197251609E+02  0.42942123690E+02  0.51100000000E-03 0.  1.
         12    1    3    3    0    0  0.78693495085E+01 -0.31365681973E+02 -0.18962033432E+02  0.37487216210E+02  0.00000000000E+00 0. -1.
</event>
<event>
 7    1  0.2294706E-015  0.9000768E+02  0.7816164E-02  0.1186339E+00
        -11   -1    0    0    0    0  0.00000000000E+00  0.00000000000E+00  0.45593999997E+02  0.45594000000E+02  0.51100000000E-03 0.  1.
         11   -1    0    0    0    0 -0.00000000000E+00 -0.00000000000E+00 -0.45593999997E+02  0.45594000000E+02  0.51100000000E-03 0. -1.
    9900012    2    1    2    0    0  0.27986641156E+00  0.19258424844E+00 -0.11303715205E+01  0.90007680689E+02  0.89999941274E+02 0.  0.
        -12    1    1    2    0    0 -0.27986641156E+00 -0.19258424844E+00  0.11303715205E+01  0.11803193108E+01  0.00000000000E+00 0.  1.
         11    1    3    3    0    0 -0.27533398681E+02 -0.21615605463E+02 -0.25541908717E+02  0.43332569086E+02  0.51100000000E-03 0. -1.
        -11    1    3    3    0    0  0.50255956666E+01  0.14606058727E+02  0.62691856146E+01  0.16670220510E+02  0.51100000000E-03 0.  1.
        -12    1    3    3    0    0  0.22787669426E+02  0.72021309848E+01  0.18142351581E+02  0.30004891093E+02  0.00000000000E+00 0.  1.
</event>
<event>
 7    1  0.2294706E-015  0.9000776E+02  0.7816164E-02  0.1186339E+00
        -11   -1    0    0    0    0  0.00000000000E+00  0.00000000000E+00  0.45593999997E+02  0.45594000000E+02  0.51100000000E-03 0.  1.
         11   -1    0    0    0    0 -0.00000000000E+00 -0.00000000000E+00 -0.45593999997E+02  0.45594000000E+02  0.51100000000E-03 0. -1.
    9900012    2    1    2    0    0 -0.10929285129E+01 -0.34961301448E+00 -0.27612480855E+00  0.90007759811E+02  0.90000021440E+02 0.  0.
        -12    1    1    2    0    0  0.10929285129E+01  0.34961301448E+00  0.27612480855E+00  0.11802401892E+01  0.00000000000E+00 0.  1.
         11    1    3    3    0    0 -0.10653349652E+02  0.77956011645E+01 -0.35357623588E+02  0.37741579224E+02  0.51100000000E-03 0. -1.
        -11    1    3    3    0    0  0.19951744379E+01  0.13433837252E+02  0.49827234029E+01  0.14466383001E+02  0.51100000000E-03 0.  1.
        -12    1    3    3    0    0  0.75652467009E+01 -0.21579051431E+02  0.30098775376E+02  0.37799797585E+02  0.00000000000E+00 0.  1.
</event>
<event>
 7    1  0.2294706E-015  0.9000776E+02  0.7816164E-02  0.1186339E+00
        -11   -1    0    0    0    0  0.00000000000E+00  0.00000000000E+00  0.45593999997E+02  0.45594000000E+02  0.51100000000E-03 0.  1.
         11   -1    0    0    0    0 -0.00000000000E+00 -0.00000000000E+00 -0.45593999997E+02  0.45594000000E+02  0.51100000000E-03 0. -1.
    9900012    2    1    2    0    0 -0.26110612100E+00 -0.11125635561E+01 -0.29493252478E+00  0.90007763046E+02  0.90000024718E+02 0.  0.
        -12    1    1    2    0    0  0.26110612100E+00  0.11125635561E+01  0.29493252478E+00  0.11802369537E+01  0.00000000000E+00 0.  1.
         11    1    3    3    0    0  0.16932529448E+02 -0.36866954821E+02  0.35273045226E+01  0.40722534164E+02  0.51100000000E-03 0. -1.
        -11    1    3    3    0    0  0.69745578484E+01  0.34089852373E+01 -0.43613464441E+01  0.89043237023E+01  0.51100000000E-03 0.  1.
        -12    1    3    3    0    0 -0.24168193418E+02  0.32345406028E+02  0.53910939668E+00  0.40380905180E+02  0.00000000000E+00 0.  1.
</event>
<event>
 7    1  0.2987115E-015  0.9000775E+02  0.7816164E-02  0.1186339E+00
        -11   -1    0    0    0    0  0.00000000000E+00  0.00000000000E+00  0.45593999997E+02  0.45594000000E+02  0.51100000000E-03 0. -1.
         11   -1    0    0    0    0 -0.00000000000E+00 -0.00000000000E+00 -0.45593999997E+02  0.45594000000E+02  0.51100000000E-03 0.  1.
    9900012    2    1    2    0    0 -0.82240995267E+00  0.48544282398E+00  0.69352688181E+00  0.90007749009E+02  0.90000010496E+02 0.  0.
        -12    1    1    2    0    0  0.82240995267E+00 -0.48544282398E+00 -0.69352688181E+00  0.11802509908E+01  0.00000000000E+00 0.  1.
         11    1    3    3    0    0 -0.91393309494E+01  0.30605848777E+02  0.21064248711E+02  0.38261572414E+02  0.51100000000E-03 0. -1.
        -11    1    3    3    0    0  0.72304863858E+01  0.20911042567E+01  0.63754043080E+01  0.98639966920E+01  0.51100000000E-03 0.  1.
        -12    1    3    3    0    0  0.10864346109E+01 -0.32211510210E+02 -0.26746126137E+02  0.41882179904E+02  0.00000000000E+00 0.  1.
</event>
<event>
 7    1  0.2294706E-015  0.9000701E+02  0.7816164E-02  0.1186341E+00
        -11   -1    0    0    0    0  0.00000000000E+00  0.00000000000E+00  0.45593999997E+02  0.45594000000E+02  0.51100000000E-03 0. -1.
         11   -1    0    0    0    0 -0.00000000000E+00 -0.00000000000E+00 -0.45593999997E+02  0.45594000000E+02  0.51100000000E-03 0.  1.
    9900012    2    1    2    0    0  0.79761928887E+00  0.67719975855E+00  0.54767114160E+00  0.90007009008E+02  0.89999260724E+02 0.  0.
        -12    1    1    2    0    0 -0.79761928887E+00 -0.67719975855E+00 -0.54767114160E+00  0.11809909916E+01  0.00000000000E+00 0.  1.
         11    1    3    3    0    0  0.12887782177E+02 -0.24188251271E+02  0.27166138460E+02  0.38589707281E+02  0.51100000000E-03 0. -1.
        -11    1    3    3    0    0 -0.18267853386E+01 -0.57357303139E+01  0.37565790208E+01  0.70956066061E+01  0.51100000000E-03 0.  1.
        -12    1    3    3    0    0 -0.10263377549E+02  0.30601181343E+02 -0.30375046339E+02  0.44321695121E+02  0.00000000000E+00 0.  1.
</event>
<event>
 7    1  0.2572275E-015  0.9000744E+02  0.7816164E-02  0.1186340E+00
        -11   -1    0    0    0    0  0.00000000000E+00  0.00000000000E+00  0.45593999997E+02  0.45594000000E+02  0.51100000000E-03 0. -1.
         11   -1    0    0    0    0 -0.00000000000E+00 -0.00000000000E+00 -0.45593999997E+02  0.45594000000E+02  0.51100000000E-03 0.  1.
    9900012    2    1    2    0    0  0.16369265501E-01  0.11803379146E+01 -0.16148941690E-01  0.90007438128E+02  0.89999695511E+02 0.  0.
        -12    1    1    2    0    0 -0.16369265501E-01 -0.11803379146E+01  0.16148941690E-01  0.11805618721E+01  0.00000000000E+00 0.  1.
         11    1    3    3    0    0 -0.89920856964E+01  0.20526110069E+02  0.31856591885E+02  0.38948956937E+02  0.51100000000E-03 0. -1.
        -11    1    3    3    0    0 -0.32969955717E+01 -0.65460417368E+01  0.58422765542E+01  0.93729951359E+01  0.51100000000E-03 0.  1.
        -12    1    3    3    0    0  0.12305450534E+02 -0.12799730418E+02 -0.37715017380E+02  0.41685486055E+02  0.00000000000E+00 0.  1.
</event>
<event>
 7    1  0.2294706E-015  0.9000775E+02  0.7816164E-02  0.1186339E+00
        -11   -1    0    0    0    0  0.00000000000E+00  0.00000000000E+00  0.45593999997E+02  0.45594000000E+02  0.51100000000E-03 0.  1.
         11   -1    0    0    0    0 -0.00000000000E+00 -0.00000000000E+00 -0.45593999997E+02  0.45594000000E+02  0.51100000000E-03 0. -1.
    9900012    2    1    2    0    0  0.22699137211E-01 -0.73006452375E+00 -0.92707747219E+00  0.90007753374E+02  0.90000014918E+02 0.  0.
        -12    1    1    2    0    0 -0.22699137211E-01  0.73006452375E+00  0.92707747219E+00  0.11802466264E+01  0.00000000000E+00 0.  1.
         11    1    3    3    0    0 -0.26210247196E+02 -0.32704664601E+02 -0.76508913721E+01  0.42604087642E+02  0.51100000000E-03 0. -1.
        -11    1    3    3    0    0  0.93337693307E+01  0.34957966535E+00 -0.37243578183E+01  0.10055461068E+02  0.51100000000E-03 0.  1.
        -12    1    3    3    0    0  0.16899177003E+02  0.31625020411E+02  0.10448171718E+02  0.37348204664E+02  0.00000000000E+00 0.  1.
</event>
<event>
 7    1  0.2717876E-015  0.9000773E+02  0.7816164E-02  0.1186339E+00
        -11   -1    0    0    0    0  0.00000000000E+00  0.00000000000E+00  0.45593999997E+02  0.45594000000E+02  0.51100000000E-03 0. -1.
         11   -1    0    0    0    0 -0.00000000000E+00 -0.00000000000E+00 -0.45593999997E+02  0.45594000000E+02  0.51100000000E-03 0.  1.
    9900012    2    1    2    0    0 -0.48474902732E+00  0.54885845353E+00  0.92564347233E+00  0.90007727549E+02  0.89999988752E+02 0.  0.
        -12    1    1    2    0    0  0.48474902732E+00 -0.54885845353E+00 -0.92564347233E+00  0.11802724513E+01  0.00000000000E+00 0.  1.
         11    1    3    3    0    0  0.14709227125E+02  0.26210733371E+02  0.20246540154E+02  0.36239292142E+02  0.51100000000E-03 0. -1.
        -11    1    3    3    0    0  0.36226987668E+00  0.38386515332E+01  0.91428040338E+01  0.99225677583E+01  0.51100000000E-03 0.  1.
        -12    1    3    3    0    0 -0.15556246029E+02 -0.29500526451E+02 -0.28463700716E+02  0.43845867648E+02  0.00000000000E+00 0.  1.
</event>
<event>
 7    1  0.2294706E-015  0.9000775E+02  0.7816164E-02  0.1186339E+00
        -11   -1    0    0    0    0  0.00000000000E+00  0.00000000000E+00  0.45593999997E+02  0.45594000000E+02  0.51100000000E-03 0.  1.
         11   -1    0    0    0    0 -0.00000000000E+00 -0.00000000000E+00 -0.45593999997E+02  0.45594000000E+02  0.51100000000E-03 0. -1.
    9900012    2    1    2    0    0 -0.54795269540E+00  0.98156447914E+00  0.35954943851E+00  0.90007747153E+02  0.90000008616E+02 0.  0.
        -12    1    1    2    0    0  0.54795269540E+00 -0.98156447914E+00 -0.35954943851E+00  0.11802528466E+01  0.00000000000E+00 0.  1.
         11    1    3    3    0    0  0.20390651276E+02 -0.25041731779E+02 -0.16520805059E+02  0.36274012599E+02  0.51100000000E-03 0. -1.
        -11    1    3    3    0    0 -0.53930848617E+01 -0.10009533042E+02  0.10515052887E+01  0.11418484123E+02  0.51100000000E-03 0.  1.
        -12    1    3    3    0    0 -0.15545519110E+02  0.36032829300E+02  0.15828849209E+02  0.42315250431E+02  0.00000000000E+00 0.  1.
</event>
<event>
 7    1  0.2294706E-015  0.9000775E+02  0.7816164E-02  0.1186339E+00
        -11   -1    0    0    0    0  0.00000000000E+00  0.00000000000E+00  0.45593999997E+02  0.45594000000E+02  0.51100000000E-03 0.  1.
         11   -1    0    0    0    0 -0.00000000000E+00 -0.00000000000E+00 -0.45593999997E+02  0.45594000000E+02  0.51100000000E-03 0. -1.
    9900012    2    1    2    0    0  0.79307754782E+00  0.86210696789E+00 -0.14422323294E+00  0.90007745467E+02  0.90000006908E+02 0.  0.
        -12    1    1    2    0    0 -0.79307754782E+00 -0.86210696789E+00  0.14422323294E+00  0.11802545327E+01  0.00000000000E+00 0.  1.
         11    1    3    3    0    0 -0.86963414923E+01  0.13574315376E+02 -0.32271193789E+02  0.36073790237E+02  0.51100000000E-03 0. -1.
        -11    1    3    3    0    0 -0.80053690521E+01  0.58435888311E+01 -0.31538401284E+01  0.10400969758E+02  0.51100000000E-03 0.  1.
        -12    1    3    3    0    0  0.17494788092E+02 -0.18555797239E+02  0.35280810684E+02  0.43532985472E+02  0.00000000000E+00 0.  1.
</event>
<event>
 7    1  0.2294706E-015  0.9000763E+02  0.7816164E-02  0.1186339E+00
        -11   -1    0    0    0    0  0.00000000000E+00  0.00000000000E+00  0.45593999997E+02  0.45594000000E+02  0.51100000000E-03 0. -1.
         11   -1    0    0    0    0 -0.00000000000E+00 -0.00000000000E+00 -0.45593999997E+02  0.45594000000E+02  0.51100000000E-03 0.  1.
    9900012    2    1    2    0    0 -0.30975935150E-01 -0.82779505486E+00  0.84087443034E+00  0.90007629732E+02  0.89999889645E+02 0.  0.
        -12    1    1    2    0    0  0.30975935150E-01  0.82779505486E+00 -0.84087443034E+00  0.11803702678E+01  0.00000000000E+00 0.  1.
         11    1    3    3    0    0 -0.10858743627E+02 -0.55821489162E+01 -0.11546303072E+02  0.16804458175E+02  0.51100000000E-03 0. -1.
        -11    1    3    3    0    0 -0.66170088768E+01 -0.17205582684E+02 -0.22082422793E+02  0.28765435485E+02  0.51100000000E-03 0.  1.
         12    1    3    3    0    0  0.17444776569E+02  0.21959936546E+02  0.34469600295E+02  0.44437736071E+02  0.00000000000E+00 0. -1.
</event>
<event>
 7    1  0.2294706E-015  0.9000775E+02  0.7816164E-02  0.1186339E+00
        -11   -1    0    0    0    0  0.00000000000E+00  0.00000000000E+00  0.45593999997E+02  0.45594000000E+02  0.51100000000E-03 0.  1.
         11   -1    0    0    0    0 -0.00000000000E+00 -0.00000000000E+00 -0.45593999997E+02  0.45594000000E+02  0.51100000000E-03 0. -1.
    9900012    2    1    2    0    0  0.26825046087E+00  0.11436689268E+01 -0.11430058198E+00  0.90007745135E+02  0.90000006571E+02 0.  0.
        -12    1    1    2    0    0 -0.26825046087E+00 -0.11436689268E+01  0.11430058198E+00  0.11802548652E+01  0.00000000000E+00 0.  1.
         11    1    3    3    0    0  0.33086478850E+01 -0.29085078861E+00  0.89246336161E+01  0.95226482898E+01  0.51100000000E-03 0. -1.
        -11    1    3    3    0    0 -0.32740789832E+02 -0.49812942415E+01  0.19806423030E+02  0.38588430969E+02  0.51100000000E-03 0.  1.
         12    1    3    3    0    0  0.29700392408E+02  0.64158139569E+01 -0.28845357228E+02  0.41896665876E+02  0.00000000000E+00 0. -1.
</event>
<event>
 7    1  0.2294706E-015  0.9000752E+02  0.7816164E-02  0.1186339E+00
        -11   -1    0    0    0    0  0.00000000000E+00  0.00000000000E+00  0.45593999997E+02  0.45594000000E+02  0.51100000000E-03 0.  1.
         11   -1    0    0    0    0 -0.00000000000E+00 -0.00000000000E+00 -0.45593999997E+02  0.45594000000E+02  0.51100000000E-03 0. -1.
    9900012    2    1    2    0    0 -0.11543148199E+01  0.22764054585E-01 -0.24610554150E+00  0.90007521773E+02  0.89999780261E+02 0.  0.
        -12    1    1    2    0    0  0.11543148199E+01 -0.22764054585E-01  0.24610554150E+00  0.11804782265E+01  0.00000000000E+00 0.  1.
         11    1    3    3    0    0  0.79077891917E+01 -0.28118290321E+01  0.25374002758E+01  0.87680050654E+01  0.51100000000E-03 0. -1.
        -11    1    3    3    0    0  0.28823291418E+02 -0.16180537291E+02 -0.16154962199E+02  0.36790959747E+02  0.51100000000E-03 0.  1.
         12    1    3    3    0    0 -0.37885395430E+02  0.19015130378E+02  0.13371456382E+02  0.44448556961E+02  0.00000000000E+00 0. -1.
</event>
<event>
 7    1  0.2985833E-015  0.9000776E+02  0.7816164E-02  0.1186339E+00
        -11   -1    0    0    0    0  0.00000000000E+00  0.00000000000E+00  0.45593999997E+02  0.45594000000E+02  0.51100000000E-03 0.  1.
         11   -1    0    0    0    0 -0.00000000000E+00 -0.00000000000E+00 -0.45593999997E+02  0.45594000000E+02  0.51100000000E-03 0. -1.
    9900012    2    1    2    0    0 -0.35570067526E+00  0.44864249147E+00 -0.10320719237E+01  0.90007756165E+02  0.90000017746E+02 0.  0.
        -12    1    1    2    0    0  0.35570067526E+00 -0.44864249147E+00  0.10320719237E+01  0.11802438355E+01  0.00000000000E+00 0.  1.
         11    1    3    3    0    0 -0.29034888985E+02  0.19385383541E+02 -0.20113052060E+02  0.40290851776E+02  0.51100000000E-03 0. -1.
        -11    1    3    3    0    0 -0.63765200371E+01 -0.39780260728E+01  0.52645499340E+01  0.91760659047E+01  0.51100000000E-03 0.  1.
        -12    1    3    3    0    0  0.35055708347E+02 -0.14958714976E+02  0.13816430202E+02  0.40540838484E+02  0.00000000000E+00 0.  1.
</event>
<event>
 7    1  0.2294706E-015  0.9000771E+02  0.7816164E-02  0.1186339E+00
        -11   -1    0    0    0    0  0.00000000000E+00  0.00000000000E+00  0.45593999997E+02  0.45594000000E+02  0.51100000000E-03 0. -1.
         11   -1    0    0    0    0 -0.00000000000E+00 -0.00000000000E+00 -0.45593999997E+02  0.45594000000E+02  0.51100000000E-03 0.  1.
    9900012    2    1    2    0    0  0.90542831237E+00  0.39850526297E+00  0.64379849683E+00  0.90007710469E+02  0.89999971447E+02 0.  0.
        -12    1    1    2    0    0 -0.90542831237E+00 -0.39850526297E+00 -0.64379849683E+00  0.11802895314E+01  0.00000000000E+00 0.  1.
         11    1    3    3    0    0 -0.34883987543E+01  0.11752608518E+02 -0.25912418690E+01  0.12530254089E+02  0.51100000000E-03 0. -1.
        -11    1    3    3    0    0 -0.19973180669E+01  0.31298212671E+02  0.11797084293E+02  0.33507291653E+02  0.51100000000E-03 0.  1.
         12    1    3    3    0    0  0.63911451335E+01 -0.42652315925E+02 -0.85620439275E+01  0.43970164727E+02  0.00000000000E+00 0. -1.
</event>
<event>
 7    1  0.2294706E-015  0.9000774E+02  0.7816164E-02  0.1186339E+00
        -11   -1    0    0    0    0  0.00000000000E+00  0.00000000000E+00  0.45593999997E+02  0.45594000000E+02  0.51100000000E-03 0.  1.
         11   -1    0    0    0    0 -0.00000000000E+00 -0.00000000000E+00 -0.45593999997E+02  0.45594000000E+02  0.51100000000E-03 0. -1.
    9900012    2    1    2    0    0  0.57128779098E+00  0.72025879289E+00  0.74018222294E+00  0.90007740625E+02  0.90000002001E+02 0.  0.
        -12    1    1    2    0    0 -0.57128779098E+00 -0.72025879289E+00 -0.74018222294E+00  0.11802593749E+01  0.00000000000E+00 0.  1.
         11    1    3    3    0    0 -0.27146523419E+01 -0.14541085889E+01 -0.43139488355E+01  0.53003701703E+01  0.51100000000E-03 0. -1.
        -11    1    3    3    0    0  0.37553406859E+02 -0.20094061754E+02  0.93787470227E+01  0.43611816982E+02  0.51100000000E-03 0.  1.
         12    1    3    3    0    0 -0.34267466726E+02  0.22268429136E+02 -0.43246159642E+01  0.41095553473E+02  0.00000000000E+00 0. -1.
</event>
<event>
 7    1  0.2294706E-015  0.9000775E+02  0.7816164E-02  0.1186339E+00
        -11   -1    0    0    0    0  0.00000000000E+00  0.00000000000E+00  0.45593999997E+02  0.45594000000E+02  0.51100000000E-03 0.  1.
         11   -1    0    0    0    0 -0.00000000000E+00 -0.00000000000E+00 -0.45593999997E+02  0.45594000000E+02  0.51100000000E-03 0. -1.
    9900012    2    1    2    0    0  0.10857239531E+01 -0.33174255700E+00 -0.32272426898E+00  0.90007745544E+02  0.90000006985E+02 0.  0.
        -12    1    1    2    0    0 -0.10857239531E+01  0.33174255700E+00  0.32272426898E+00  0.11802544557E+01  0.00000000000E+00 0.  1.
         11    1    3    3    0    0  0.13543219429E+01 -0.38049340088E+02 -0.62893222194E+01  0.38589403252E+02  0.51100000000E-03 0. -1.
        -11    1    3    3    0    0 -0.12456680728E+02  0.31774388221E+01 -0.39921656879E+01  0.13461144059E+02  0.51100000000E-03 0.  1.
        -12    1    3    3    0    0  0.12188082739E+02  0.34540158709E+02  0.99587636384E+01  0.37957198233E+02  0.00000000000E+00 0.  1.
</event>
<event>
 7    1  0.2294706E-015  0.9000779E+02  0.7816164E-02  0.1186339E+00
        -11   -1    0    0    0    0  0.00000000000E+00  0.00000000000E+00  0.45593999997E+02  0.45594000000E+02  0.51100000000E-03 0.  1.
         11   -1    0    0    0    0 -0.00000000000E+00 -0.00000000000E+00 -0.45593999997E+02  0.45594000000E+02  0.51100000000E-03 0. -1.
    9900012    2    1    2    0    0  0.27338262695E+00  0.33599879531E+00 -0.10978479906E+01  0.90007786688E+02  0.90000048672E+02 0.  0.
        -12    1    1    2    0    0 -0.27338262695E+00 -0.33599879531E+00  0.10978479906E+01  0.11802133119E+01  0.00000000000E+00 0.  1.
         11    1    3    3    0    0  0.15321295613E+02  0.28784697142E+01 -0.12088696184E+01  0.15636145726E+02  0.51100000000E-03 0. -1.
        -11    1    3    3    0    0 -0.46215266011E+01  0.27203040787E+02  0.22587256620E+02  0.35658773087E+02  0.51100000000E-03 0.  1.
         12    1    3    3    0    0 -0.10426386385E+02 -0.29745511706E+02 -0.22476234993E+02  0.38712867875E+02  0.00000000000E+00 0. -1.
</event>
<event>
 7    1  0.2294706E-015  0.9000784E+02  0.7816164E-02  0.1186339E+00
        -11   -1    0    0    0    0  0.00000000000E+00  0.00000000000E+00  0.45593999997E+02  0.45594000000E+02  0.51100000000E-03 0. -1.
         11   -1    0    0    0    0 -0.00000000000E+00 -0.00000000000E+00 -0.45593999997E+02  0.45594000000E+02  0.51100000000E-03 0.  1.
    9900012    2    1    2    0    0  0.68198279555E+00  0.95428673469E+00  0.13047671083E+00  0.90007835657E+02  0.90000098287E+02 0.  0.
        -12    1    1    2    0    0 -0.68198279555E+00 -0.95428673469E+00 -0.13047671083E+00  0.11801643434E+01  0.00000000000E+00 0.  1.
         11    1    3    3    0    0  0.36671827683E+00 -0.10093294005E+01 -0.94141496319E+01  0.94752014061E+01  0.51100000000E-03 0. -1.
        -11    1    3    3    0    0 -0.29162771097E+02  0.24611752644E+01 -0.22554290286E+02  0.36948891896E+02  0.51100000000E-03 0.  1.
         12    1    3    3    0    0  0.29478035616E+02 -0.49755912915E+00  0.32098916629E+02  0.43583742355E+02  0.00000000000E+00 0. -1.
</event>
<event>
 7    1  0.2294706E-015  0.9000781E+02  0.7816164E-02  0.1186339E+00
        -11   -1    0    0    0    0  0.00000000000E+00  0.00000000000E+00  0.45593999997E+02  0.45594000000E+02  0.51100000000E-03 0.  1.
         11   -1    0    0    0    0 -0.00000000000E+00 -0.00000000000E+00 -0.45593999997E+02  0.45594000000E+02  0.51100000000E-03 0. -1.
    9900012    2    1    2    0    0  0.43157517870E-01 -0.86476685811E+00 -0.80198236297E+00  0.90007805101E+02  0.90000067328E+02 0.  0.
        -12    1    1    2    0    0 -0.43157517870E-01  0.86476685811E+00  0.80198236297E+00  0.11801948995E+01  0.00000000000E+00 0.  1.
         11    1    3    3    0    0  0.48720400957E+01 -0.41293087697E+02 -0.15128364059E+02  0.44246166677E+02  0.51100000000E-03 0. -1.
        -11    1    3    3    0    0  0.49887079355E+01  0.68298266336E+01  0.27674600366E+01  0.88990209589E+01  0.51100000000E-03 0.  1.
        -12    1    3    3    0    0 -0.98175905134E+01  0.33598494206E+02  0.11558921660E+02  0.36862617464E+02  0.00000000000E+00 0.  1.
</event>
<event>
 7    1  0.2294706E-015  0.9000771E+02  0.7816164E-02  0.1186339E+00
        -11   -1    0    0    0    0  0.00000000000E+00  0.00000000000E+00  0.45593999997E+02  0.45594000000E+02  0.51100000000E-03 0. -1.
         11   -1    0    0    0    0 -0.00000000000E+00 -0.00000000000E+00 -0.45593999997E+02  0.45594000000E+02  0.51100000000E-03 0.  1.
    9900012    2    1    2    0    0  0.73198177267E+00 -0.34062008875E+00  0.86096293541E+00  0.90007713367E+02  0.89999974383E+02 0.  0.
        -12    1    1    2    0    0 -0.73198177267E+00  0.34062008875E+00 -0.86096293541E+00  0.11802866332E+01  0.00000000000E+00 0.  1.
         11    1    3    3    0    0 -0.71043536912E+01  0.45687598809E+00 -0.61461620160E+01  0.94050988738E+01  0.51100000000E-03 0. -1.
        -11    1    3    3    0    0  0.11905380820E+02 -0.15208949840E+02 -0.32804280735E+02  0.38067979754E+02  0.51100000000E-03 0.  1.
         12    1    3    3    0    0 -0.40690453561E+01  0.14411453764E+02  0.39811405686E+02  0.42534634739E+02  0.00000000000E+00 0. -1.
</event>
<event>
 7    1  0.2294706E-015  0.9000763E+02  0.7816164E-02  0.1186339E+00
        -11   -1    0    0    0    0  0.00000000000E+00  0.00000000000E+00  0.45593999997E+02  0.45594000000E+02  0.51100000000E-03 0. -1.
         11   -1    0    0    0    0 -0.00000000000E+00 -0.00000000000E+00 -0.45593999997E+02  0.45594000000E+02  0.51100000000E-03 0.  1.
    9900012    2    1    2    0    0  0.10259976845E+01  0.45699242146E+00  0.36299825701E+00  0.90007626730E+02  0.89999886603E+02 0.  0.
        -12    1    1    2    0    0 -0.10259976845E+01 -0.45699242146E+00 -0.36299825701E+00  0.11803732700E+01  0.00000000000E+00 0.  1.
         11    1    3    3    0    0  0.85413478990E+01  0.38621164501E+02  0.47391081641E+01  0.39837270461E+02  0.51100000000E-03 0. -1.
        -11    1    3    3    0    0  0.87548210146E+01 -0.51772551418E+00 -0.24829213067E+01  0.91148137218E+01  0.51100000000E-03 0.  1.
        -12    1    3    3    0    0 -0.16270171229E+02 -0.37646446565E+02 -0.18931886004E+01  0.41055542547E+02  0.00000000000E+00 0.  1.
</event>
<event>
 7    1  0.2294706E-015  0.9000768E+02  0.7816164E-02  0.1186339E+00
        -11   -1    0    0    0    0  0.00000000000E+00  0.00000000000E+00  0.45593999997E+02  0.45594000000E+02  0.51100000000E-03 0.  1.
         11   -1    0    0    0    0 -0.00000000000E+00 -0.00000000000E+00 -0.45593999997E+02  0.45594000000E+02  0.51100000000E-03 0. -1.
    9900012    2    1    2    0    0 -0.83826896760E+00  0.26152819178E+00 -0.78871317414E+00  0.90007677871E+02  0.89999938419E+02 0.  0.
        -12    1    1    2    0    0  0.83826896760E+00 -0.26152819178E+00  0.78871317414E+00  0.11803221290E+01  0.00000000000E+00 0.  1.
         11    1    3    3    0    0  0.19099492157E+02  0.18345762261E+02  0.12168761759E+02  0.29145091467E+02  0.51100000000E-03 0. -1.
        -11    1    3    3    0    0  0.15521168965E+02 -0.46043577294E+00  0.63901599199E+01  0.16791451135E+02  0.51100000000E-03 0.  1.
        -12    1    3    3    0    0 -0.35458930090E+02 -0.17623798297E+02 -0.19347634853E+02  0.44071135269E+02  0.00000000000E+00 0.  1.
</event>
<event>
 7    1  0.3190943E-015  0.9000785E+02  0.7816164E-02  0.1186339E+00
        -11   -1    0    0    0    0  0.00000000000E+00  0.00000000000E+00  0.45593999997E+02  0.45594000000E+02  0.51100000000E-03 0.  1.
         11   -1    0    0    0    0 -0.00000000000E+00 -0.00000000000E+00 -0.45593999997E+02  0.45594000000E+02  0.51100000000E-03 0. -1.
    9900012    2    1    2    0    0 -0.26363616862E+00 -0.71804207332E+00 -0.89870272024E+00  0.90007849574E+02  0.90000112388E+02 0.  0.
        -12    1    1    2    0    0  0.26363616862E+00  0.71804207332E+00  0.89870272024E+00  0.11801504259E+01  0.00000000000E+00 0.  1.
         11    1    3    3    0    0 -0.30081930959E+02 -0.13876822211E+02 -0.16194565081E+02  0.36874824790E+02  0.51100000000E-03 0. -1.
        -11    1    3    3    0    0 -0.81155226074E+01  0.30726084837E+01 -0.38111621035E+01  0.94777416575E+01  0.51100000000E-03 0.  1.
        -12    1    3    3    0    0  0.37933817397E+02  0.10086171654E+02  0.19107024464E+02  0.43655283127E+02  0.00000000000E+00 0.  1.
</event>
<event>
 7    1  0.2294706E-015  0.9000767E+02  0.7816164E-02  0.1186339E+00
        -11   -1    0    0    0    0  0.00000000000E+00  0.00000000000E+00  0.45593999997E+02  0.45594000000E+02  0.51100000000E-03 0.  1.
         11   -1    0    0    0    0 -0.00000000000E+00 -0.00000000000E+00 -0.45593999997E+02  0.45594000000E+02  0.51100000000E-03 0. -1.
    9900012    2    1    2    0    0 -0.74425036447E+00 -0.91156754877E+00 -0.91153028915E-01  0.90007672556E+02  0.89999933033E+02 0.  0.
        -12    1    1    2    0    0  0.74425036447E+00  0.91156754877E+00  0.91153028915E-01  0.11803274443E+01  0.00000000000E+00 0.  1.
         11    1    3    3    0    0 -0.15804836132E+02 -0.33238843909E+02 -0.12205613663E+02  0.38776160134E+02  0.51100000000E-03 0. -1.
        -11    1    3    3    0    0  0.35450962624E+01 -0.71629122624E+01 -0.10049636573E+01  0.80551208434E+01  0.51100000000E-03 0.  1.
        -12    1    3    3    0    0  0.11515489505E+02  0.39490188623E+02  0.13119424291E+02  0.43176391578E+02  0.00000000000E+00 0.  1.
</event>
<event>
 7    1  0.2294706E-015  0.9000766E+02  0.7816164E-02  0.1186339E+00
        -11   -1    0    0    0    0  0.00000000000E+00  0.00000000000E+00  0.45593999997E+02  0.45594000000E+02  0.51100000000E-03 0.  1.
         11   -1    0    0    0    0 -0.00000000000E+00 -0.00000000000E+00 -0.45593999997E+02  0.45594000000E+02  0.51100000000E-03 0. -1.
    9900012    2    1    2    0    0 -0.13688604440E+00  0.90753064371E+00  0.74220214535E+00  0.90007655269E+02  0.89999915519E+02 0.  0.
        -12    1    1    2    0    0  0.13688604440E+00 -0.90753064371E+00 -0.74220214535E+00  0.11803447306E+01  0.00000000000E+00 0.  1.
         11    1    3    3    0    0  0.40622096887E+01 -0.85994106008E+01 -0.60853041016E+01  0.11290807611E+02  0.51100000000E-03 0. -1.
        -11    1    3    3    0    0  0.24914286007E+02  0.27360008759E+02  0.20059924294E+02  0.42091475259E+02  0.51100000000E-03 0.  1.
         12    1    3    3    0    0 -0.29113381740E+02 -0.17853067515E+02 -0.13232418047E+02  0.36625372399E+02  0.00000000000E+00 0. -1.
</event>
<event>
 7    1  0.2294706E-015  0.9000772E+02  0.7816164E-02  0.1186339E+00
        -11   -1    0    0    0    0  0.00000000000E+00  0.00000000000E+00  0.45593999997E+02  0.45594000000E+02  0.51100000000E-03 0.  1.
         11   -1    0    0    0    0 -0.00000000000E+00 -0.00000000000E+00 -0.45593999997E+02  0.45594000000E+02  0.51100000000E-03 0. -1.
    9900012    2    1    2    0    0 -0.10338949058E+01 -0.36924740162E+00  0.43332900438E+00  0.90007721920E+02  0.89999983049E+02 0.  0.
        -12    1    1    2    0    0  0.10338949058E+01  0.36924740162E+00 -0.43332900438E+00  0.11802780799E+01  0.00000000000E+00 0.  1.
         11    1    3    3    0    0  0.66281418623E+01 -0.27750146751E+01 -0.13638120160E+01  0.73138877808E+01  0.51100000000E-03 0. -1.
        -11    1    3    3    0    0 -0.20307520559E+02 -0.36285203962E+02  0.49083525144E+01  0.41870076934E+02  0.51100000000E-03 0.  1.
         12    1    3    3    0    0  0.12645483790E+02  0.38690971235E+02 -0.31112114941E+01  0.40823757205E+02  0.00000000000E+00 0. -1.
</event>
<event>
 7    1  0.2294706E-015  0.9000767E+02  0.7816164E-02  0.1186339E+00
        -11   -1    0    0    0    0  0.00000000000E+00  0.00000000000E+00  0.45593999997E+02  0.45594000000E+02  0.51100000000E-03 0.  1.
         11   -1    0    0    0    0 -0.00000000000E+00 -0.00000000000E+00 -0.45593999997E+02  0.45594000000E+02  0.51100000000E-03 0. -1.
    9900012    2    1    2    0    0  0.67916217628E+00 -0.95514043313E+00 -0.14010639052E+00  0.90007667712E+02  0.89999928126E+02 0.  0.
        -12    1    1    2    0    0 -0.67916217628E+00  0.95514043313E+00  0.14010639052E+00  0.11803322877E+01  0.00000000000E+00 0.  1.
         11    1    3    3    0    0  0.40851325288E+01 -0.72134262668E+01 -0.44566778342E+01  0.94118969323E+01  0.51100000000E-03 0. -1.
        -11    1    3    3    0    0 -0.57114897977E+01 -0.25165904868E+02  0.30268151140E+02  0.39775681732E+02  0.51100000000E-03 0.  1.
         12    1    3    3    0    0  0.23055194452E+01  0.31424190702E+02 -0.25951579696E+02  0.40820089048E+02  0.00000000000E+00 0. -1.
</event>
<event>
 7    1  0.2294706E-015  0.9000758E+02  0.7816164E-02  0.1186339E+00
        -11   -1    0    0    0    0  0.00000000000E+00  0.00000000000E+00  0.45593999997E+02  0.45594000000E+02  0.51100000000E-03 0.  1.
         11   -1    0    0    0    0 -0.00000000000E+00 -0.00000000000E+00 -0.45593999997E+02  0.45594000000E+02  0.51100000000E-03 0. -1.
    9900012    2    1    2    0    0  0.12832802400E+00 -0.92611994083E+00  0.72057571176E+00  0.90007578218E+02  0.89999837451E+02 0.  0.
        -12    1    1    2    0    0 -0.12832802400E+00  0.92611994083E+00 -0.72057571176E+00  0.11804217818E+01  0.00000000000E+00 0.  1.
         11    1    3    3    0    0 -0.27411616475E+02 -0.50449651961E+01  0.26039943254E+02  0.38143505824E+02  0.51100000000E-03 0. -1.
        -11    1    3    3    0    0 -0.85495217854E+00 -0.12277402931E+02 -0.89420946128E+01  0.15212712522E+02  0.51100000000E-03 0.  1.
        -12    1    3    3    0    0  0.28394896677E+02  0.16396248186E+02 -0.16377272929E+02  0.36651359872E+02  0.00000000000E+00 0.  1.
</event>
<event>
 7    1  0.2294706E-015  0.9000772E+02  0.7816164E-02  0.1186339E+00
        -11   -1    0    0    0    0  0.00000000000E+00  0.00000000000E+00  0.45593999997E+02  0.45594000000E+02  0.51100000000E-03 0.  1.
         11   -1    0    0    0    0 -0.00000000000E+00 -0.00000000000E+00 -0.45593999997E+02  0.45594000000E+02  0.51100000000E-03 0. -1.
    9900012    2    1    2    0    0 -0.61148143286E-01 -0.73087179893E+00 -0.92474289313E+00  0.90007719482E+02  0.89999980580E+02 0.  0.
        -12    1    1    2    0    0  0.61148143286E-01  0.73087179893E+00  0.92474289313E+00  0.11802805176E+01  0.00000000000E+00 0.  1.
         11    1    3    3    0    0  0.15876484502E+01 -0.11774046337E+02 -0.31551725300E+01  0.12292432985E+02  0.51100000000E-03 0. -1.
        -11    1    3    3    0    0  0.23095813801E+02 -0.19550990010E+02  0.18130635346E+02  0.35275739026E+02  0.51100000000E-03 0.  1.
         12    1    3    3    0    0 -0.24744610394E+02  0.30594164548E+02 -0.15900205709E+02  0.42439547471E+02  0.00000000000E+00 0. -1.
</event>
<event>
 7    1  0.2294706E-015  0.9000733E+02  0.7816164E-02  0.1186340E+00
        -11   -1    0    0    0    0  0.00000000000E+00  0.00000000000E+00  0.45593999997E+02  0.45594000000E+02  0.51100000000E-03 0. -1.
         11   -1    0    0    0    0 -0.00000000000E+00 -0.00000000000E+00 -0.45593999997E+02  0.45594000000E+02  0.51100000000E-03 0.  1.
    9900012    2    1    2    0    0  0.70117321649E+00 -0.72557077147E+00  0.61309998542E+00  0.90007327134E+02  0.89999583051E+02 0.  0.
        -12    1    1    2    0    0 -0.70117321649E+00  0.72557077147E+00 -0.61309998542E+00  0.11806728658E+01  0.00000000000E+00 0.  1.
         11    1    3    3    0    0  0.38975614664E+02 -0.12468274328E+02  0.85052255825E+01  0.41795876180E+02  0.51100000000E-03 0. -1.
        -11    1    3    3    0    0  0.71764505620E-01  0.53428915122E+01  0.49347532347E+01  0.72734743833E+01  0.51100000000E-03 0.  1.
        -12    1    3    3    0    0 -0.38346205953E+02  0.63998120443E+01 -0.12826878832E+02  0.40937976571E+02  0.00000000000E+00 0.  1.
</event>
<event>
 7    1  0.2294706E-015  0.9000765E+02  0.7816164E-02  0.1186339E+00
        -11   -1    0    0    0    0  0.00000000000E+00  0.00000000000E+00  0.45593999997E+02  0.45594000000E+02  0.51100000000E-03 0. -1.
         11   -1    0    0    0    0 -0.00000000000E+00 -0.00000000000E+00 -0.45593999997E+02  0.45594000000E+02  0.51100000000E-03 0.  1.
    9900012    2    1    2    0    0  0.36418396344E+00  0.33420887361E+00  0.10718702312E+01  0.90007647797E+02  0.89999907948E+02 0.  0.
        -12    1    1    2    0    0 -0.36418396344E+00 -0.33420887361E+00 -0.10718702312E+01  0.11803522030E+01  0.00000000000E+00 0.  1.
         11    1    3    3    0    0 -0.16090449320E+01  0.27657754725E+02  0.22640672571E+02  0.35779050809E+02  0.51100000000E-03 0. -1.
        -11    1    3    3    0    0  0.97738472001E+01  0.54269573037E+01 -0.16866540593E+02  0.20235121608E+02  0.51100000000E-03 0.  1.
        -12    1    3    3    0    0 -0.78006183047E+01 -0.32750503155E+02 -0.47022617472E+01  0.33993475380E+02  0.00000000000E+00 0.  1.
</event>
<event>
 7    1  0.2294706E-015  0.9000709E+02  0.7816164E-02  0.1186340E+00
        -11   -1    0    0    0    0  0.00000000000E+00  0.00000000000E+00  0.45593999997E+02  0.45594000000E+02  0.51100000000E-03 0.  1.
         11   -1    0    0    0    0 -0.00000000000E+00 -0.00000000000E+00 -0.45593999997E+02  0.45594000000E+02  0.51100000000E-03 0. -1.
    9900012    2    1    2    0    0 -0.45353082680E-01 -0.59332906774E+00 -0.10200273540E+01  0.90007088451E+02  0.89999341216E+02 0.  0.
        -12    1    1    2    0    0  0.45353082680E-01  0.59332906774E+00  0.10200273540E+01  0.11809115495E+01  0.00000000000E+00 0.  1.
         11    1    3    3    0    0  0.36395084063E+02 -0.30476488939E+01 -0.11589109213E+02  0.38317068786E+02  0.51100000000E-03 0. -1.
        -11    1    3    3    0    0  0.49718725984E+01 -0.10126390110E+01  0.87235965423E+01  0.10091882470E+02  0.51100000000E-03 0.  1.
        -12    1    3    3    0    0 -0.41412309744E+02  0.34669588371E+01  0.18454853171E+01  0.41598137194E+02  0.00000000000E+00 0.  1.
</event>
<event>
 7    1  0.2294706E-015  0.9000773E+02  0.7816164E-02  0.1186339E+00
        -11   -1    0    0    0    0  0.00000000000E+00  0.00000000000E+00  0.45593999997E+02  0.45594000000E+02  0.51100000000E-03 0. -1.
         11   -1    0    0    0    0 -0.00000000000E+00 -0.00000000000E+00 -0.45593999997E+02  0.45594000000E+02  0.51100000000E-03 0.  1.
    9900012    2    1    2    0    0 -0.43716829179E+00 -0.10274970272E+01  0.38233571525E+00  0.90007725941E+02  0.89999987123E+02 0.  0.
        -12    1    1    2    0    0  0.43716829179E+00  0.10274970272E+01 -0.38233571525E+00  0.11802740594E+01  0.00000000000E+00 0.  1.
         11    1    3    3    0    0  0.38768668899E+01 -0.76846268645E+01  0.33207891269E+02  0.34305212865E+02  0.51100000000E-03 0. -1.
        -11    1    3    3    0    0 -0.13407717026E+02 -0.15180176757E+02 -0.21289199161E+02  0.29384258429E+02  0.51100000000E-03 0.  1.
        -12    1    3    3    0    0  0.90936818448E+01  0.21837306595E+02 -0.11536356393E+02  0.26318254647E+02  0.00000000000E+00 0.  1.
</event>
<event>
 7    1  0.2294706E-015  0.9000783E+02  0.7816164E-02  0.1186339E+00
        -11   -1    0    0    0    0  0.00000000000E+00  0.00000000000E+00  0.45593999997E+02  0.45594000000E+02  0.51100000000E-03 0.  1.
         11   -1    0    0    0    0 -0.00000000000E+00 -0.00000000000E+00 -0.45593999997E+02  0.45594000000E+02  0.51100000000E-03 0. -1.
    9900012    2    1    2    0    0 -0.40000903487E+00 -0.69362875184E+00  0.86698584483E+00  0.90007833686E+02  0.90000096291E+02 0.  0.
        -12    1    1    2    0    0  0.40000903487E+00  0.69362875184E+00 -0.86698584483E+00  0.11801663139E+01  0.00000000000E+00 0.  1.
         11    1    3    3    0    0 -0.57399123106E+01 -0.80553051017E+01  0.12239412357E+01  0.99665724311E+01  0.51100000000E-03 0. -1.
        -11    1    3    3    0    0 -0.26729584883E+02 -0.49176576200E+01  0.25334044491E+02  0.37154648094E+02  0.51100000000E-03 0.  1.
         12    1    3    3    0    0  0.32069488159E+02  0.12279333970E+02 -0.25690999882E+02  0.42886613161E+02  0.00000000000E+00 0. -1.
</event>
<event>
 7    1  0.2294706E-015  0.9000775E+02  0.7816164E-02  0.1186339E+00
        -11   -1    0    0    0    0  0.00000000000E+00  0.00000000000E+00  0.45593999997E+02  0.45594000000E+02  0.51100000000E-03 0.  1.
         11   -1    0    0    0    0 -0.00000000000E+00 -0.00000000000E+00 -0.45593999997E+02  0.45594000000E+02  0.51100000000E-03 0. -1.
    9900012    2    1    2    0    0  0.78469094459E+00 -0.66764336882E+00 -0.57577182798E+00  0.90007745475E+02  0.90000006915E+02 0.  0.
        -12    1    1    2    0    0 -0.78469094459E+00  0.66764336882E+00  0.57577182798E+00  0.11802545252E+01  0.00000000000E+00 0.  1.
         11    1    3    3    0    0  0.55994565379E+01 -0.43482636455E+01 -0.14466188366E+02  0.16109994300E+02  0.51100000000E-03 0. -1.
        -11    1    3    3    0    0  0.30432468736E+02 -0.72305689721E+01  0.19076218620E+02  0.36637663655E+02  0.51100000000E-03 0.  1.
         12    1    3    3    0    0 -0.35247234330E+02  0.10911189249E+02 -0.51858020814E+01  0.37260087519E+02  0.00000000000E+00 0. -1.
</event>
<event>
 7    1  0.2294706E-015  0.9000773E+02  0.7816164E-02  0.1186339E+00
        -11   -1    0    0    0    0  0.00000000000E+00  0.00000000000E+00  0.45593999997E+02  0.45594000000E+02  0.51100000000E-03 0. -1.
         11   -1    0    0    0    0 -0.00000000000E+00 -0.00000000000E+00 -0.45593999997E+02  0.45594000000E+02  0.51100000000E-03 0.  1.
    9900012    2    1    2    0    0 -0.27591808579E+00 -0.79787377825E+00  0.82481222154E+00  0.90007725220E+02  0.89999986393E+02 0.  0.
        -12    1    1    2    0    0  0.27591808579E+00  0.79787377825E+00 -0.82481222154E+00  0.11802747802E+01  0.00000000000E+00 0.  1.
         11    1    3    3    0    0  0.81354143595E+01 -0.20597051251E+01  0.53742924045E+01  0.99654589013E+01  0.51100000000E-03 0. -1.
        -11    1    3    3    0    0  0.16738950790E+02 -0.21726447674E+02 -0.27595558421E+02  0.38906886883E+02  0.51100000000E-03 0.  1.
         12    1    3    3    0    0 -0.25150283235E+02  0.22988279021E+02  0.23046078238E+02  0.41135379436E+02  0.00000000000E+00 0. -1.
</event>
<event>
 7    1  0.2294706E-015  0.9000721E+02  0.7816164E-02  0.1186340E+00
        -11   -1    0    0    0    0  0.00000000000E+00  0.00000000000E+00  0.45593999997E+02  0.45594000000E+02  0.51100000000E-03 0. -1.
         11   -1    0    0    0    0 -0.00000000000E+00 -0.00000000000E+00 -0.45593999997E+02  0.45594000000E+02  0.51100000000E-03 0.  1.
    9900012    2    1    2    0    0  0.86479745898E+00 -0.59290118377E+00  0.54301344415E+00  0.90007207868E+02  0.89999462210E+02 0.  0.
        -12    1    1    2    0    0 -0.86479745898E+00  0.59290118377E+00 -0.54301344415E+00  0.11807921321E+01  0.00000000000E+00 0.  1.
         11    1    3    3    0    0  0.41612978839E+01 -0.44903645097E+01 -0.91467960071E+01  0.11006527653E+02  0.51100000000E-03 0. -1.
        -11    1    3    3    0    0  0.28521195197E+02 -0.22775899458E+02  0.84418524655E+01  0.37462848862E+02  0.51100000000E-03 0.  1.
         12    1    3    3    0    0 -0.31817695622E+02  0.26673362784E+02  0.12479569857E+01  0.41537831353E+02  0.00000000000E+00 0. -1.
</event>
<event>
 7    1  0.2294706E-015  0.9000764E+02  0.7816164E-02  0.1186339E+00
        -11   -1    0    0    0    0  0.00000000000E+00  0.00000000000E+00  0.45593999997E+02  0.45594000000E+02  0.51100000000E-03 0. -1.
         11   -1    0    0    0    0 -0.00000000000E+00 -0.00000000000E+00 -0.45593999997E+02  0.45594000000E+02  0.51100000000E-03 0.  1.
    9900012    2    1    2    0    0  0.41086387990E+00  0.65299597311E+00  0.89332748763E+00  0.90007641212E+02  0.89999901276E+02 0.  0.
        -12    1    1    2    0    0 -0.41086387990E+00 -0.65299597311E+00 -0.89332748763E+00  0.11803587882E+01  0.00000000000E+00 0.  1.
         11    1    3    3    0    0  0.12857027011E+02  0.29281797484E+02  0.24688312257E+02  0.40400984763E+02  0.51100000000E-03 0. -1.
        -11    1    3    3    0    0  0.65536554487E+00 -0.44279335790E+01  0.69988571098E+01  0.83078337057E+01  0.51100000000E-03 0.  1.
        -12    1    3    3    0    0 -0.13101528676E+02 -0.24200867932E+02 -0.30793841879E+02  0.41298822743E+02  0.00000000000E+00 0.  1.
</event>
<event>
 7    1  0.2294706E-015  0.9000774E+02  0.7816164E-02  0.1186339E+00
        -11   -1    0    0    0    0  0.00000000000E+00  0.00000000000E+00  0.45593999997E+02  0.45594000000E+02  0.51100000000E-03 0. -1.
         11   -1    0    0    0    0 -0.00000000000E+00 -0.00000000000E+00 -0.45593999997E+02  0.45594000000E+02  0.51100000000E-03 0.  1.
    9900012    2    1    2    0    0 -0.86445523609E+00  0.33372617785E+00  0.73100091872E+00  0.90007738012E+02  0.89999999354E+02 0.  0.
        -12    1    1    2    0    0  0.86445523609E+00 -0.33372617785E+00 -0.73100091872E+00  0.11802619879E+01  0.00000000000E+00 0.  1.
         11    1    3    3    0    0 -0.28294872902E+01 -0.15533771160E+02  0.91096211944E+01  0.18228802576E+02  0.51100000000E-03 0. -1.
        -11    1    3    3    0    0 -0.27735503853E+02  0.83864390446E+01  0.15574880843E+02  0.32896313583E+02  0.51100000000E-03 0.  1.
         12    1    3    3    0    0  0.29700535907E+02  0.74810582933E+01 -0.23953501118E+02  0.38882621853E+02  0.00000000000E+00 0. -1.
</event>
<event>
 7    1  0.2294706E-015  0.9000774E+02  0.7816164E-02  0.1186339E+00
        -11   -1    0    0    0    0  0.00000000000E+00  0.00000000000E+00  0.45593999997E+02  0.45594000000E+02  0.51100000000E-03 0.  1.
         11   -1    0    0    0    0 -0.00000000000E+00 -0.00000000000E+00 -0.45593999997E+02  0.45594000000E+02  0.51100000000E-03 0. -1.
    9900012    2    1    2    0    0  0.38938670812E+00  0.88646036385E+00 -0.67496154460E+00  0.90007742794E+02  0.90000004199E+02 0.  0.
        -12    1    1    2    0    0 -0.38938670812E+00 -0.88646036385E+00  0.67496154460E+00  0.11802572058E+01  0.00000000000E+00 0.  1.
         11    1    3    3    0    0  0.26134599852E+02 -0.93321394423E+01  0.72810826398E-01  0.27750881746E+02  0.51100000000E-03 0. -1.
        -11    1    3    3    0    0  0.15780470214E+02  0.44881477745E+01  0.96946546318E+01  0.19056574700E+02  0.51100000000E-03 0.  1.
        -12    1    3    3    0    0 -0.41525683358E+02  0.57304520317E+01 -0.10442427003E+02  0.43200286348E+02  0.00000000000E+00 0.  1.
</event>
<event>
 7    1  0.2294706E-015  0.9000775E+02  0.7816164E-02  0.1186339E+00
        -11   -1    0    0    0    0  0.00000000000E+00  0.00000000000E+00  0.45593999997E+02  0.45594000000E+02  0.51100000000E-03 0.  1.
         11   -1    0    0    0    0 -0.00000000000E+00 -0.00000000000E+00 -0.45593999997E+02  0.45594000000E+02  0.51100000000E-03 0. -1.
    9900012    2    1    2    0    0  0.86761432299E+00  0.43752789985E+00  0.66992583841E+00  0.90007751761E+02  0.90000013284E+02 0.  0.
        -12    1    1    2    0    0 -0.86761432299E+00 -0.43752789985E+00 -0.66992583841E+00  0.11802482390E+01  0.00000000000E+00 0.  1.
         11    1    3    3    0    0  0.37611442119E+01 -0.85422292784E+01 -0.17249636112E+01  0.94916482525E+01  0.51100000000E-03 0. -1.
        -11    1    3    3    0    0 -0.37294540247E+01 -0.74249550431E+01  0.39274522288E+02  0.40143827495E+02  0.51100000000E-03 0.  1.
         12    1    3    3    0    0  0.83592413581E+00  0.16404712221E+02 -0.36879632839E+02  0.40372276014E+02  0.00000000000E+00 0. -1.
</event>
<event>
 7    1  0.2294706E-015  0.9000772E+02  0.7816164E-02  0.1186339E+00
        -11   -1    0    0    0    0  0.00000000000E+00  0.00000000000E+00  0.45593999997E+02  0.45594000000E+02  0.51100000000E-03 0. -1.
         11   -1    0    0    0    0 -0.00000000000E+00 -0.00000000000E+00 -0.45593999997E+02  0.45594000000E+02  0.51100000000E-03 0.  1.
    9900012    2    1    2    0    0 -0.11737155568E+01  0.96264239476E-01 -0.78622783552E-01  0.90007721832E+02  0.89999982960E+02 0.  0.
        -12    1    1    2    0    0  0.11737155568E+01 -0.96264239476E-01  0.78622783552E-01  0.11802781681E+01  0.00000000000E+00 0.  1.
         11    1    3    3    0    0  0.18014324422E+02  0.87852897661E+01 -0.28454166195E+02  0.34804263744E+02  0.51100000000E-03 0. -1.
        -11    1    3    3    0    0  0.47873734646E+01  0.28167292422E+01 -0.82475622138E+01  0.99436005071E+01  0.51100000000E-03 0.  1.
        -12    1    3    3    0    0 -0.23975413443E+02 -0.11505754769E+02  0.36623105626E+02  0.45259857581E+02  0.00000000000E+00 0.  1.
</event>
<event>
 7    1  0.2294706E-015  0.9000770E+02  0.7816164E-02  0.1186339E+00
        -11   -1    0    0    0    0  0.00000000000E+00  0.00000000000E+00  0.45593999997E+02  0.45594000000E+02  0.51100000000E-03 0.  1.
         11   -1    0    0    0    0 -0.00000000000E+00 -0.00000000000E+00 -0.45593999997E+02  0.45594000000E+02  0.51100000000E-03 0. -1.
    9900012    2    1    2    0    0  0.64969024725E+00 -0.14616802768E+00 -0.97449961711E+00  0.90007698338E+02  0.89999959156E+02 0.  0.
        -12    1    1    2    0    0 -0.64969024725E+00  0.14616802768E+00  0.97449961711E+00  0.11803016621E+01  0.00000000000E+00 0.  1.
         11    1    3    3    0    0 -0.84751698990E+01  0.56471950464E+01 -0.86137697600E+00  0.10220630473E+02  0.51100000000E-03 0. -1.
        -11    1    3    3    0    0 -0.17726180938E+02  0.14390952330E+01  0.32426831324E+02  0.36983616315E+02  0.51100000000E-03 0.  1.
         12    1    3    3    0    0  0.26851041085E+02 -0.72324583071E+01 -0.32539953966E+02  0.42803451550E+02  0.00000000000E+00 0. -1.
</event>
<event>
 7    1  0.2294706E-015  0.9000774E+02  0.7816164E-02  0.1186339E+00
        -11   -1    0    0    0    0  0.00000000000E+00  0.00000000000E+00  0.45593999997E+02  0.45594000000E+02  0.51100000000E-03 0. -1.
         11   -1    0    0    0    0 -0.00000000000E+00 -0.00000000000E+00 -0.45593999997E+02  0.45594000000E+02  0.51100000000E-03 0.  1.
    9900012    2    1    2    0    0 -0.13121606546E-01 -0.31052401490E+00  0.11386003608E+01  0.90007742349E+02  0.90000003748E+02 0.  0.
        -12    1    1    2    0    0  0.13121606546E-01  0.31052401490E+00 -0.11386003608E+01  0.11802576507E+01  0.00000000000E+00 0.  1.
         11    1    3    3    0    0 -0.79058051584E+01  0.21106654700E+01 -0.19162494450E+00  0.81849486442E+01  0.51100000000E-03 0. -1.
        -11    1    3    3    0    0 -0.28863219576E+02  0.14703525087E+01 -0.23538991092E+02  0.37273737171E+02  0.51100000000E-03 0.  1.
         12    1    3    3    0    0  0.36755903128E+02 -0.38915419936E+01  0.24869216397E+02  0.44549056534E+02  0.00000000000E+00 0. -1.
</event>
<event>
 7    1  0.2294706E-015  0.9000776E+02  0.7816164E-02  0.1186339E+00
        -11   -1    0    0    0    0  0.00000000000E+00  0.00000000000E+00  0.45593999997E+02  0.45594000000E+02  0.51100000000E-03 0. -1.
         11   -1    0    0    0    0 -0.00000000000E+00 -0.00000000000E+00 -0.45593999997E+02  0.45594000000E+02  0.51100000000E-03 0.  1.
    9900012    2    1    2    0    0 -0.77656156056E+00 -0.76426945636E+00  0.45365563310E+00  0.90007763120E+02  0.90000024793E+02 0.  0.
        -12    1    1    2    0    0  0.77656156056E+00  0.76426945636E+00 -0.45365563310E+00  0.11802368799E+01  0.00000000000E+00 0.  1.
         11    1    3    3    0    0 -0.10507484900E+01 -0.49185070508E+01 -0.94167390799E+01  0.10675708836E+02  0.51100000000E-03 0. -1.
        -11    1    3    3    0    0  0.10341109302E+02 -0.26251529664E+02 -0.20748135692E+02  0.35022371225E+02  0.51100000000E-03 0.  1.
         12    1    3    3    0    0 -0.10066922372E+02  0.30405767258E+02  0.30618530405E+02  0.44309683059E+02  0.00000000000E+00 0. -1.
</event>
<event>
 7    1  0.2294706E-015  0.9000771E+02  0.7816164E-02  0.1186339E+00
        -11   -1    0    0    0    0  0.00000000000E+00  0.00000000000E+00  0.45593999997E+02  0.45594000000E+02  0.51100000000E-03 0.  1.
         11   -1    0    0    0    0 -0.00000000000E+00 -0.00000000000E+00 -0.45593999997E+02  0.45594000000E+02  0.51100000000E-03 0. -1.
    9900012    2    1    2    0    0 -0.86139211502E+00 -0.38342725876E+00 -0.70997467512E+00  0.90007713222E+02  0.89999974237E+02 0.  0.
        -12    1    1    2    0    0  0.86139211502E+00  0.38342725876E+00  0.70997467512E+00  0.11802867778E+01  0.00000000000E+00 0.  1.
         11    1    3    3    0    0 -0.54803961150E+01  0.16387421250E+01 -0.13562476163E+02  0.14719408183E+02  0.51100000000E-03 0. -1.
        -11    1    3    3    0    0  0.37738062795E+02 -0.13771412750E+00  0.17840385985E+02  0.41742780467E+02  0.51100000000E-03 0.  1.
         12    1    3    3    0    0 -0.33119058795E+02 -0.18844552563E+01 -0.49878844976E+01  0.33545524573E+02  0.00000000000E+00 0. -1.
</event>
<event>
 7    1  0.2294706E-015  0.9000761E+02  0.7816164E-02  0.1186339E+00
        -11   -1    0    0    0    0  0.00000000000E+00  0.00000000000E+00  0.45593999997E+02  0.45594000000E+02  0.51100000000E-03 0. -1.
         11   -1    0    0    0    0 -0.00000000000E+00 -0.00000000000E+00 -0.45593999997E+02  0.45594000000E+02  0.51100000000E-03 0.  1.
    9900012    2    1    2    0    0 -0.11216038337E+01 -0.19874423470E+00 -0.30955440434E+00  0.90007610929E+02  0.89999870593E+02 0.  0.
        -12    1    1    2    0    0  0.11216038337E+01  0.19874423470E+00  0.30955440434E+00  0.11803890714E+01  0.00000000000E+00 0.  1.
         11    1    3    3    0    0 -0.91294802034E+01  0.79656321125E+00  0.22126502304E+01  0.94274992993E+01  0.51100000000E-03 0. -1.
        -11    1    3    3    0    0  0.46712537024E+01  0.25334726083E+02 -0.31890504198E+02  0.40996014625E+02  0.51100000000E-03 0.  1.
         12    1    3    3    0    0  0.33366226674E+01 -0.26330033529E+02  0.29368299563E+02  0.39584097005E+02  0.00000000000E+00 0. -1.
</event>
<event>
 7    1  0.2294706E-015  0.9000775E+02  0.7816164E-02  0.1186339E+00
        -11   -1    0    0    0    0  0.00000000000E+00  0.00000000000E+00  0.45593999997E+02  0.45594000000E+02  0.51100000000E-03 0.  1.
         11   -1    0    0    0    0 -0.00000000000E+00 -0.00000000000E+00 -0.45593999997E+02  0.45594000000E+02  0.51100000000E-03 0. -1.
    9900012    2    1    2    0    0  0.93563279100E+00  0.47191145993E+00  0.54303048730E+00  0.90007749494E+02  0.90000010988E+02 0.  0.
        -12    1    1    2    0    0 -0.93563279100E+00 -0.47191145993E+00 -0.54303048730E+00  0.11802505055E+01  0.00000000000E+00 0.  1.
         11    1    3    3    0    0  0.54424597207E+01 -0.85062201128E+01  0.21959955146E+01  0.10334338149E+02  0.51100000000E-03 0. -1.
        -11    1    3    3    0    0 -0.19172548959E+02  0.36660562334E+02  0.15231036227E+02  0.44085915313E+02  0.51100000000E-03 0.  1.
         12    1    3    3    0    0  0.14665722030E+02 -0.27682430761E+02 -0.16884001254E+02  0.35587496032E+02  0.00000000000E+00 0. -1.
</event>
<event>
 7    1  0.2294706E-015  0.9000773E+02  0.7816164E-02  0.1186339E+00
        -11   -1    0    0    0    0  0.00000000000E+00  0.00000000000E+00  0.45593999997E+02  0.45594000000E+02  0.51100000000E-03 0.  1.
         11   -1    0    0    0    0 -0.00000000000E+00 -0.00000000000E+00 -0.45593999997E+02  0.45594000000E+02  0.51100000000E-03 0. -1.
    9900012    2    1    2    0    0 -0.10545330032E+01 -0.48110112156E+00 -0.22259462072E+00  0.90007726087E+02  0.89999987272E+02 0.  0.
        -12    1    1    2    0    0  0.10545330032E+01  0.48110112156E+00  0.22259462072E+00  0.11802739128E+01  0.00000000000E+00 0.  1.
         11    1    3    3    0    0  0.29359881935E+02  0.46693260421E+01 -0.18349781872E+02  0.34935938057E+02  0.51100000000E-03 0. -1.
        -11    1    3    3    0    0  0.10174314488E+01  0.31867639550E+01 -0.10949601262E+02  0.11449209550E+02  0.51100000000E-03 0.  1.
        -12    1    3    3    0    0 -0.31431846387E+02 -0.83371911187E+01  0.29076788513E+02  0.43622578480E+02  0.00000000000E+00 0.  1.
</event>
<event>
 7    1  0.2294706E-015  0.9000771E+02  0.7816164E-02  0.1186339E+00
        -11   -1    0    0    0    0  0.00000000000E+00  0.00000000000E+00  0.45593999997E+02  0.45594000000E+02  0.51100000000E-03 0. -1.
         11   -1    0    0    0    0 -0.00000000000E+00 -0.00000000000E+00 -0.45593999997E+02  0.45594000000E+02  0.51100000000E-03 0.  1.
    9900012    2    1    2    0    0 -0.59592903533E+00 -0.87939652816E+00  0.51441473860E+00  0.90007706735E+02  0.89999967664E+02 0.  0.
        -12    1    1    2    0    0  0.59592903533E+00  0.87939652816E+00 -0.51441473860E+00  0.11802932653E+01  0.00000000000E+00 0.  1.
         11    1    3    3    0    0  0.35463803554E+01 -0.34499297166E+01  0.73449484904E+01  0.88559074782E+01  0.51100000000E-03 0. -1.
        -11    1    3    3    0    0  0.84483866750E+01 -0.36950182819E+02  0.44587292067E+01  0.38165056192E+02  0.51100000000E-03 0.  1.
         12    1    3    3    0    0 -0.12590696066E+02  0.39520716007E+02 -0.11289262958E+02  0.42986743064E+02  0.00000000000E+00 0. -1.
</event>
<event>
 7    1  0.2294706E-015  0.9000763E+02  0.7816164E-02  0.1186339E+00
        -11   -1    0    0    0    0  0.00000000000E+00  0.00000000000E+00  0.45593999997E+02  0.45594000000E+02  0.51100000000E-03 0.  1.
         11   -1    0    0    0    0 -0.00000000000E+00 -0.00000000000E+00 -0.45593999997E+02  0.45594000000E+02  0.51100000000E-03 0. -1.
    9900012    2    1    2    0    0  0.90224845093E+00 -0.62155761809E+00 -0.43918212466E+00  0.90007632651E+02  0.89999892602E+02 0.  0.
        -12    1    1    2    0    0 -0.90224845093E+00  0.62155761809E+00  0.43918212466E+00  0.11803673489E+01  0.00000000000E+00 0.  1.
         11    1    3    3    0    0 -0.20388473218E+02  0.12597177852E+02 -0.39590899458E+01  0.24291009108E+02  0.51100000000E-03 0. -1.
        -11    1    3    3    0    0 -0.13021994593E+02  0.44480326901E+01 -0.17108494210E+02  0.21955817279E+02  0.51100000000E-03 0.  1.
        -12    1    3    3    0    0  0.34312716262E+02 -0.17666768160E+02  0.20628402031E+02  0.43760806264E+02  0.00000000000E+00 0.  1.
</event>
<event>
 7    1  0.2294706E-015  0.9000773E+02  0.7816164E-02  0.1186339E+00
        -11   -1    0    0    0    0  0.00000000000E+00  0.00000000000E+00  0.45593999997E+02  0.45594000000E+02  0.51100000000E-03 0. -1.
         11   -1    0    0    0    0 -0.00000000000E+00 -0.00000000000E+00 -0.45593999997E+02  0.45594000000E+02  0.51100000000E-03 0.  1.
    9900012    2    1    2    0    0 -0.35378232408E+00 -0.88591861896E+00  0.69499945296E+00  0.90007729704E+02  0.89999990936E+02 0.  0.
        -12    1    1    2    0    0  0.35378232408E+00  0.88591861896E+00 -0.69499945296E+00  0.11802702961E+01  0.00000000000E+00 0.  1.
         11    1    3    3    0    0  0.61351407401E+01 -0.28491091953E+02 -0.11231071529E+02  0.31233303388E+02  0.51100000000E-03 0. -1.
        -11    1    3    3    0    0 -0.77328968307E+01  0.13274757415E+02 -0.19138137122E+02  0.24541498947E+02  0.51100000000E-03 0.  1.
        -12    1    3    3    0    0  0.12439737665E+01  0.14330415918E+02  0.31064208104E+02  0.34232927369E+02  0.00000000000E+00 0.  1.
</event>
<event>
 7    1  0.2294706E-015  0.9000771E+02  0.7816164E-02  0.1186339E+00
        -11   -1    0    0    0    0  0.00000000000E+00  0.00000000000E+00  0.45593999997E+02  0.45594000000E+02  0.51100000000E-03 0. -1.
         11   -1    0    0    0    0 -0.00000000000E+00 -0.00000000000E+00 -0.45593999997E+02  0.45594000000E+02  0.51100000000E-03 0.  1.
    9900012    2    1    2    0    0  0.27852495497E+00  0.94980740034E+00  0.64294477973E+00  0.90007708410E+02  0.89999969361E+02 0.  0.
        -12    1    1    2    0    0 -0.27852495497E+00 -0.94980740034E+00 -0.64294477973E+00  0.11802915903E+01  0.00000000000E+00 0.  1.
         11    1    3    3    0    0 -0.20866352971E+01  0.42987916613E+01  0.10024087537E+02  0.11104773200E+02  0.51100000000E-03 0. -1.
        -11    1    3    3    0    0 -0.49172739825E+01  0.33187481710E+02 -0.21356425695E+02  0.39770409155E+02  0.51100000000E-03 0.  1.
         12    1    3    3    0    0  0.72824342346E+01 -0.36536465971E+02  0.11975282937E+02  0.39132526055E+02  0.00000000000E+00 0. -1.
</event>
<event>
 7    1  0.2294706E-015  0.9000770E+02  0.7816164E-02  0.1186339E+00
        -11   -1    0    0    0    0  0.00000000000E+00  0.00000000000E+00  0.45593999997E+02  0.45594000000E+02  0.51100000000E-03 0. -1.
         11   -1    0    0    0    0 -0.00000000000E+00 -0.00000000000E+00 -0.45593999997E+02  0.45594000000E+02  0.51100000000E-03 0.  1.
    9900012    2    1    2    0    0 -0.10095695626E+01 -0.54859236604E+00 -0.27003727877E+00  0.90007701556E+02  0.89999962416E+02 0.  0.
        -12    1    1    2    0    0  0.10095695626E+01  0.54859236604E+00  0.27003727877E+00  0.11802984444E+01  0.00000000000E+00 0.  1.
         11    1    3    3    0    0  0.80577613800E+01 -0.20106051604E+02 -0.27939391153E+02  0.35352374854E+02  0.51100000000E-03 0. -1.
        -11    1    3    3    0    0  0.62273928355E+01 -0.85063946884E+01 -0.23567160279E+01  0.10802466516E+02  0.51100000000E-03 0.  1.
        -12    1    3    3    0    0 -0.15294723778E+02  0.28063853927E+02  0.30026069902E+02  0.43852860186E+02  0.00000000000E+00 0.  1.
</event>
<event>
 7    1  0.2294706E-015  0.9000760E+02  0.7816164E-02  0.1186339E+00
        -11   -1    0    0    0    0  0.00000000000E+00  0.00000000000E+00  0.45593999997E+02  0.45594000000E+02  0.51100000000E-03 0.  1.
         11   -1    0    0    0    0 -0.00000000000E+00 -0.00000000000E+00 -0.45593999997E+02  0.45594000000E+02  0.51100000000E-03 0. -1.
    9900012    2    1    2    0    0 -0.93319594858E+00  0.21461614821E+00 -0.69024056869E+00  0.90007598877E+02  0.89999858382E+02 0.  0.
        -12    1    1    2    0    0  0.93319594858E+00 -0.21461614821E+00  0.69024056869E+00  0.11804011234E+01  0.00000000000E+00 0.  1.
         11    1    3    3    0    0 -0.32835248826E+02 -0.41545348441E+01 -0.21203991242E+02  0.39306780205E+02  0.51100000000E-03 0. -1.
        -11    1    3    3    0    0 -0.22861943241E+01 -0.24142262917E+01 -0.60324882896E+01  0.68881120999E+01  0.51100000000E-03 0.  1.
        -12    1    3    3    0    0  0.34188247202E+02  0.67833772840E+01  0.26546238963E+02  0.43812706572E+02  0.00000000000E+00 0.  1.
</event>
<event>
 7    1  0.2294706E-015  0.9000783E+02  0.7816164E-02  0.1186339E+00
        -11   -1    0    0    0    0  0.00000000000E+00  0.00000000000E+00  0.45593999997E+02  0.45594000000E+02  0.51100000000E-03 0.  1.
         11   -1    0    0    0    0 -0.00000000000E+00 -0.00000000000E+00 -0.45593999997E+02  0.45594000000E+02  0.51100000000E-03 0. -1.
    9900012    2    1    2    0    0  0.20268492246E+00  0.11375025068E+01 -0.24044643299E+00  0.90007827293E+02  0.90000089813E+02 0.  0.
        -12    1    1    2    0    0 -0.20268492246E+00 -0.11375025068E+01  0.24044643299E+00  0.11801727068E+01  0.00000000000E+00 0.  1.
         11    1    3    3    0    0  0.28009860855E+02  0.13952545944E+02  0.20304111821E+02  0.37302584368E+02  0.51100000000E-03 0. -1.
        -11    1    3    3    0    0  0.82723563962E+01 -0.25144405817E+01  0.20774191073E+01  0.88921292272E+01  0.51100000000E-03 0.  1.
        -12    1    3    3    0    0 -0.36079532329E+02 -0.10300602855E+02 -0.22621977361E+02  0.43813113698E+02  0.00000000000E+00 0.  1.
</event>
<event>
 7    1  0.2294706E-015  0.9000773E+02  0.7816164E-02  0.1186339E+00
        -11   -1    0    0    0    0  0.00000000000E+00  0.00000000000E+00  0.45593999997E+02  0.45594000000E+02  0.51100000000E-03 0.  1.
         11   -1    0    0    0    0 -0.00000000000E+00 -0.00000000000E+00 -0.45593999997E+02  0.45594000000E+02  0.51100000000E-03 0. -1.
    9900012    2    1    2    0    0 -0.27866096451E+00  0.10022354882E+01 -0.55759823993E+00  0.90007727275E+02  0.89999988476E+02 0.  0.
        -12    1    1    2    0    0  0.27866096451E+00 -0.10022354882E+01  0.55759823993E+00  0.11802727245E+01  0.00000000000E+00 0.  1.
         11    1    3    3    0    0 -0.34778925323E+01 -0.13584154878E+02 -0.38900587804E-01  0.14022357638E+02  0.51100000000E-03 0.  1.
        -11    1    3    3    0    0  0.17184553864E+02  0.41222722073E+02 -0.70112011504E+01  0.45208170151E+02  0.51100000000E-03 0. -1.
         12    1    3    3    0    0 -0.13985322296E+02 -0.26636331707E+02  0.64925034983E+01  0.30777199486E+02  0.00000000000E+00 0. -1.
</event>
<event>
 7    1  0.2294706E-015  0.9000778E+02  0.7816164E-02  0.1186339E+00
        -11   -1    0    0    0    0  0.00000000000E+00  0.00000000000E+00  0.45593999997E+02  0.45594000000E+02  0.51100000000E-03 0.  1.
         11   -1    0    0    0    0 -0.00000000000E+00 -0.00000000000E+00 -0.45593999997E+02  0.45594000000E+02  0.51100000000E-03 0. -1.
    9900012    2    1    2    0    0 -0.11657410011E+00 -0.83370849688E+00 -0.82719768831E+00  0.90007781633E+02  0.90000043550E+02 0.  0.
        -12    1    1    2    0    0  0.11657410011E+00  0.83370849688E+00  0.82719768831E+00  0.11802183671E+01  0.00000000000E+00 0.  1.
         11    1    3    3    0    0  0.10357205073E+02  0.43317885792E+01 -0.58196718532E+01  0.12645341828E+02  0.51100000000E-03 0. -1.
        -11    1    3    3    0    0  0.10768696694E+02 -0.59461145833E+01  0.36970846639E+02  0.38963631871E+02  0.51100000000E-03 0.  1.
         12    1    3    3    0    0 -0.21242475866E+02  0.78061750723E+00 -0.31978372474E+02  0.38398807934E+02  0.00000000000E+00 0. -1.
</event>
<event>
 7    1  0.2294706E-015  0.9000769E+02  0.7816164E-02  0.1186339E+00
        -11   -1    0    0    0    0  0.00000000000E+00  0.00000000000E+00  0.45593999997E+02  0.45594000000E+02  0.51100000000E-03 0. -1.
         11   -1    0    0    0    0 -0.00000000000E+00 -0.00000000000E+00 -0.45593999997E+02  0.45594000000E+02  0.51100000000E-03 0.  1.
    9900012    2    1    2    0    0 -0.18122219956E+00  0.20889255398E+00  0.11474523415E+01  0.90007693065E+02  0.89999953814E+02 0.  0.
        -12    1    1    2    0    0  0.18122219956E+00 -0.20889255398E+00 -0.11474523415E+01  0.11803069349E+01  0.00000000000E+00 0.  1.
         11    1    3    3    0    0 -0.80745464769E+01 -0.36711999559E+01 -0.40657592915E+01  0.97573771476E+01  0.51100000000E-03 0. -1.
        -11    1    3    3    0    0  0.33936472244E+02 -0.23725065461E+02 -0.26542199942E+01  0.41492261490E+02  0.51100000000E-03 0.  1.
         12    1    3    3    0    0 -0.26043147967E+02  0.27605157970E+02  0.78674316272E+01  0.38758054428E+02  0.00000000000E+00 0. -1.
</event>
<event>
 7    1  0.2294706E-015  0.9000763E+02  0.7816164E-02  0.1186339E+00
        -11   -1    0    0    0    0  0.00000000000E+00  0.00000000000E+00  0.45593999997E+02  0.45594000000E+02  0.51100000000E-03 0.  1.
         11   -1    0    0    0    0 -0.00000000000E+00 -0.00000000000E+00 -0.45593999997E+02  0.45594000000E+02  0.51100000000E-03 0. -1.
    9900012    2    1    2    0    0 -0.71461656922E+00  0.90602990750E+00  0.24841891748E+00  0.90007627604E+02  0.89999887488E+02 0.  0.
        -12    1    1    2    0    0  0.71461656922E+00 -0.90602990750E+00 -0.24841891748E+00  0.11803723958E+01  0.00000000000E+00 0.  1.
         11    1    3    3    0    0 -0.69144034018E+01 -0.40924838467E+01  0.22272813292E+01  0.83377563420E+01  0.51100000000E-03 0. -1.
        -11    1    3    3    0    0  0.12604404265E+02 -0.71081644573E+01  0.37333554400E+02  0.40039871294E+02  0.51100000000E-03 0.  1.
         12    1    3    3    0    0 -0.64046174326E+01  0.12106678211E+02 -0.39312416812E+02  0.41629999968E+02  0.00000000000E+00 0. -1.
</event>
<event>
 7    1  0.2294706E-015  0.9000771E+02  0.7816164E-02  0.1186339E+00
        -11   -1    0    0    0    0  0.00000000000E+00  0.00000000000E+00  0.45593999997E+02  0.45594000000E+02  0.51100000000E-03 0. -1.
         11   -1    0    0    0    0 -0.00000000000E+00 -0.00000000000E+00 -0.45593999997E+02  0.45594000000E+02  0.51100000000E-03 0.  1.
    9900012    2    1    2    0    0 -0.46264480757E+00  0.56677532513E+00  0.92618214515E+00  0.90007708573E+02  0.89999969526E+02 0.  0.
        -12    1    1    2    0    0  0.46264480757E+00 -0.56677532513E+00 -0.92618214515E+00  0.11802914272E+01  0.00000000000E+00 0.  1.
         11    1    3    3    0    0  0.33068885300E+01 -0.19426746083E+01 -0.82283739747E+01  0.90783057292E+01  0.51100000000E-03 0. -1.
        -11    1    3    3    0    0 -0.79262197053E+01  0.20052415544E+01 -0.35322149677E+02  0.36256036884E+02  0.51100000000E-03 0.  1.
         12    1    3    3    0    0  0.41566863678E+01  0.50420837908E+00  0.44476705796E+02  0.44673365959E+02  0.00000000000E+00 0. -1.
</event>
<event>
 7    1  0.2294706E-015  0.9000779E+02  0.7816164E-02  0.1186339E+00
        -11   -1    0    0    0    0  0.00000000000E+00  0.00000000000E+00  0.45593999997E+02  0.45594000000E+02  0.51100000000E-03 0.  1.
         11   -1    0    0    0    0 -0.00000000000E+00 -0.00000000000E+00 -0.45593999997E+02  0.45594000000E+02  0.51100000000E-03 0. -1.
    9900012    2    1    2    0    0 -0.45684397608E+00  0.81265963019E+00 -0.72372164585E+00  0.90007790225E+02  0.90000052256E+02 0.  0.
        -12    1    1    2    0    0  0.45684397608E+00 -0.81265963019E+00  0.72372164585E+00  0.11802097753E+01  0.00000000000E+00 0.  1.
         11    1    3    3    0    0  0.61231001836E+01  0.31553123108E+02 -0.30914859175E+02  0.44596193243E+02  0.51100000000E-03 0. -1.
        -11    1    3    3    0    0 -0.59541239393E+01 -0.39974995010E+01  0.64504308124E+01  0.96457064061E+01  0.51100000000E-03 0.  1.
        -12    1    3    3    0    0 -0.62582022040E+00 -0.26742963977E+02  0.23740706717E+02  0.35765890575E+02  0.00000000000E+00 0.  1.
</event>
<event>
 7    1  0.2294706E-015  0.9000791E+02  0.7816164E-02  0.1186339E+00
        -11   -1    0    0    0    0  0.00000000000E+00  0.00000000000E+00  0.45593999997E+02  0.45594000000E+02  0.51100000000E-03 0.  1.
         11   -1    0    0    0    0 -0.00000000000E+00 -0.00000000000E+00 -0.45593999997E+02  0.45594000000E+02  0.51100000000E-03 0. -1.
    9900012    2    1    2    0    0 -0.11655336139E+01 -0.12409074012E+00 -0.13689184852E+00  0.90007912505E+02  0.90000176150E+02 0.  0.
        -12    1    1    2    0    0  0.11655336139E+01  0.12409074012E+00  0.13689184852E+00  0.11800874947E+01  0.00000000000E+00 0.  1.
         11    1    3    3    0    0 -0.58901993328E+01  0.38028647791E+02  0.29066542500E+01  0.38591723727E+02  0.51100000000E-03 0. -1.
        -11    1    3    3    0    0  0.71645932396E+01  0.29783004490E+01  0.52739849469E+01  0.93817155859E+01  0.51100000000E-03 0.  1.
        -12    1    3    3    0    0 -0.24399275208E+01 -0.41131038980E+02 -0.83175310454E+01  0.42034473193E+02  0.00000000000E+00 0.  1.
</event>
<event>
 7    1  0.2367884E-015  0.9000772E+02  0.7816164E-02  0.1186339E+00
        -11   -1    0    0    0    0  0.00000000000E+00  0.00000000000E+00  0.45593999997E+02  0.45594000000E+02  0.51100000000E-03 0.  1.
         11   -1    0    0    0    0 -0.00000000000E+00 -0.00000000000E+00 -0.45593999997E+02  0.45594000000E+02  0.51100000000E-03 0. -1.
    9900012    2    1    2    0    0 -0.70747228787E+00 -0.42538093403E+00 -0.84355843220E+00  0.90007721725E+02  0.89999982852E+02 0.  0.
        -12    1    1    2    0    0  0.70747228787E+00  0.42538093403E+00  0.84355843220E+00  0.11802782747E+01  0.00000000000E+00 0.  1.
         11    1    3    3    0    0  0.17149256514E+02 -0.50834274664E+01 -0.32853956678E+02  0.37407495284E+02  0.51100000000E-03 0. -1.
        -11    1    3    3    0    0  0.67701873683E+00 -0.66791648763E+01 -0.58790089708E+01  0.89236956780E+01  0.51100000000E-03 0.  1.
        -12    1    3    3    0    0 -0.18533747539E+02  0.11337211409E+02  0.37889407216E+02  0.43676530763E+02  0.00000000000E+00 0.  1.
</event>
<event>
 7    1  0.2294706E-015  0.9000806E+02  0.7816164E-02  0.1186338E+00
        -11   -1    0    0    0    0  0.00000000000E+00  0.00000000000E+00  0.45593999997E+02  0.45594000000E+02  0.51100000000E-03 0.  1.
         11   -1    0    0    0    0 -0.00000000000E+00 -0.00000000000E+00 -0.45593999997E+02  0.45594000000E+02  0.51100000000E-03 0. -1.
    9900012    2    1    2    0    0 -0.35233423431E+00 -0.70043873718E+00  0.88175803287E+00  0.90008063109E+02  0.90000328742E+02 0.  0.
        -12    1    1    2    0    0  0.35233423431E+00  0.70043873718E+00 -0.88175803287E+00  0.11799368906E+01  0.00000000000E+00 0.  1.
         11    1    3    3    0    0  0.71837918210E+01 -0.42876238386E+01  0.10714292730E+01  0.84343668438E+01  0.51100000000E-03 0. -1.
        -11    1    3    3    0    0 -0.41001697852E+02  0.13686638564E+02  0.11474342608E+02  0.44722744107E+02  0.51100000000E-03 0.  1.
         12    1    3    3    0    0  0.33465571797E+02 -0.10099453463E+02 -0.11664013849E+02  0.36850952158E+02  0.00000000000E+00 0. -1.
</event>
<event>
 7    1  0.2294706E-015  0.9000762E+02  0.7816164E-02  0.1186339E+00
        -11   -1    0    0    0    0  0.00000000000E+00  0.00000000000E+00  0.45593999997E+02  0.45594000000E+02  0.51100000000E-03 0.  1.
         11   -1    0    0    0    0 -0.00000000000E+00 -0.00000000000E+00 -0.45593999997E+02  0.45594000000E+02  0.51100000000E-03 0. -1.
    9900012    2    1    2    0    0 -0.17984684702E+00  0.27615073232E+00 -0.11334434249E+01  0.90007619505E+02  0.89999879282E+02 0.  0.
        -12    1    1    2    0    0  0.17984684702E+00 -0.27615073232E+00  0.11334434249E+01  0.11803804949E+01  0.00000000000E+00 0.  1.
         11    1    3    3    0    0  0.67344198968E+01 -0.32808349337E+02  0.47409143267E+01  0.33826268882E+02  0.51100000000E-03 0. -1.
        -11    1    3    3    0    0  0.93914513928E+01 -0.72410486638E+01 -0.44321484515E+01  0.12660019162E+02  0.51100000000E-03 0.  1.
        -12    1    3    3    0    0 -0.16305718137E+02  0.40325548733E+02 -0.14422093001E+01  0.43521331462E+02  0.00000000000E+00 0.  1.
</event>
<event>
 7    1  0.2294706E-015  0.9000776E+02  0.7816164E-02  0.1186339E+00
        -11   -1    0    0    0    0  0.00000000000E+00  0.00000000000E+00  0.45593999997E+02  0.45594000000E+02  0.51100000000E-03 0.  1.
         11   -1    0    0    0    0 -0.00000000000E+00 -0.00000000000E+00 -0.45593999997E+02  0.45594000000E+02  0.51100000000E-03 0. -1.
    9900012    2    1    2    0    0  0.34103311726E+00 -0.69534026572E+00 -0.89059484350E+00  0.90007762377E+02  0.90000024040E+02 0.  0.
        -12    1    1    2    0    0 -0.34103311726E+00  0.69534026572E+00  0.89059484350E+00  0.11802376233E+01  0.00000000000E+00 0.  1.
         11    1    3    3    0    0  0.24657496808E+02 -0.98013525032E+01 -0.16460873743E+02  0.31225294624E+02  0.51100000000E-03 0. -1.
        -11    1    3    3    0    0 -0.68861237865E+00 -0.14997758775E+02 -0.85680548706E+01  0.17286368034E+02  0.51100000000E-03 0.  1.
        -12    1    3    3    0    0 -0.23627851312E+02  0.24103771012E+02  0.24138333770E+02  0.41496099718E+02  0.00000000000E+00 0.  1.
</event>
<event>
 7    1  0.2294706E-015  0.9000770E+02  0.7816164E-02  0.1186339E+00
        -11   -1    0    0    0    0  0.00000000000E+00  0.00000000000E+00  0.45593999997E+02  0.45594000000E+02  0.51100000000E-03 0.  1.
         11   -1    0    0    0    0 -0.00000000000E+00 -0.00000000000E+00 -0.45593999997E+02  0.45594000000E+02  0.51100000000E-03 0. -1.
    9900012    2    1    2    0    0 -0.80199512821E+00 -0.52029899788E+00 -0.69224437649E+00  0.90007699399E+02  0.89999960231E+02 0.  0.
        -12    1    1    2    0    0  0.80199512821E+00  0.52029899788E+00  0.69224437649E+00  0.11803006014E+01  0.00000000000E+00 0.  1.
         11    1    3    3    0    0 -0.19196953585E+00  0.36230499863E+02 -0.13430647185E+02  0.38640241417E+02  0.51100000000E-03 0. -1.
        -11    1    3    3    0    0  0.52929871833E+01 -0.33523283351E+01 -0.90856399740E+01  0.11036424810E+02  0.51100000000E-03 0.  1.
        -12    1    3    3    0    0 -0.59030127757E+01 -0.33398470526E+02  0.21824042783E+02  0.40331033172E+02  0.00000000000E+00 0.  1.
</event>
<event>
 7    1  0.2294706E-015  0.9000784E+02  0.7816164E-02  0.1186339E+00
        -11   -1    0    0    0    0  0.00000000000E+00  0.00000000000E+00  0.45593999997E+02  0.45594000000E+02  0.51100000000E-03 0. -1.
         11   -1    0    0    0    0 -0.00000000000E+00 -0.00000000000E+00 -0.45593999997E+02  0.45594000000E+02  0.51100000000E-03 0.  1.
    9900012    2    1    2    0    0  0.11728856645E+01 -0.51396689427E-01  0.12029419463E+00  0.90007841919E+02  0.90000104633E+02 0.  0.
        -12    1    1    2    0    0 -0.11728856645E+01  0.51396689427E-01 -0.12029419463E+00  0.11801580805E+01  0.00000000000E+00 0.  1.
         11    1    3    3    0    0  0.19376017308E+02 -0.73784028397E+01  0.15848022178E+02  0.26096564571E+02  0.51100000000E-03 0. -1.
        -11    1    3    3    0    0  0.14278286679E+02 -0.80304435829E+01  0.10473305506E+02  0.19443446791E+02  0.51100000000E-03 0.  1.
        -12    1    3    3    0    0 -0.32481418322E+02  0.15357449733E+02 -0.26201033490E+02  0.44467830557E+02  0.00000000000E+00 0.  1.
</event>
<event>
 7    1  0.2294706E-015  0.9000778E+02  0.7816164E-02  0.1186339E+00
        -11   -1    0    0    0    0  0.00000000000E+00  0.00000000000E+00  0.45593999997E+02  0.45594000000E+02  0.51100000000E-03 0.  1.
         11   -1    0    0    0    0 -0.00000000000E+00 -0.00000000000E+00 -0.45593999997E+02  0.45594000000E+02  0.51100000000E-03 0. -1.
    9900012    2    1    2    0    0  0.94982492238E+00  0.64117279628E+00  0.28222820289E+00  0.90007778539E+02  0.90000040416E+02 0.  0.
        -12    1    1    2    0    0 -0.94982492238E+00 -0.64117279628E+00 -0.28222820289E+00  0.11802214607E+01  0.00000000000E+00 0.  1.
         11    1    3    3    0    0 -0.17991212707E+02  0.28190457635E+02 -0.55764413898E+01  0.33904016505E+02  0.51100000000E-03 0. -1.
        -11    1    3    3    0    0  0.57540886619E+01  0.12196578722E+02  0.44596824279E+01  0.14204042962E+02  0.51100000000E-03 0.  1.
        -12    1    3    3    0    0  0.13186948968E+02 -0.39745863560E+02  0.13989871648E+01  0.41899719072E+02  0.00000000000E+00 0.  1.
</event>
<event>
 7    1  0.2294706E-015  0.9000776E+02  0.7816164E-02  0.1186339E+00
        -11   -1    0    0    0    0  0.00000000000E+00  0.00000000000E+00  0.45593999997E+02  0.45594000000E+02  0.51100000000E-03 0. -1.
         11   -1    0    0    0    0 -0.00000000000E+00 -0.00000000000E+00 -0.45593999997E+02  0.45594000000E+02  0.51100000000E-03 0.  1.
    9900012    2    1    2    0    0 -0.59553080424E+00 -0.57389155179E+00  0.84200252536E+00  0.90007755659E+02  0.90000017234E+02 0.  0.
        -12    1    1    2    0    0  0.59553080424E+00  0.57389155179E+00 -0.84200252536E+00  0.11802443411E+01  0.00000000000E+00 0.  1.
         11    1    3    3    0    0 -0.49346257802E+01 -0.29434915229E+02 -0.22037234389E+02  0.37099925416E+02  0.51100000000E-03 0. -1.
        -11    1    3    3    0    0 -0.33237370017E+01 -0.80373489917E+01 -0.23082889065E+00  0.87005453110E+01  0.51100000000E-03 0.  1.
        -12    1    3    3    0    0  0.76628319776E+01  0.36898372669E+02  0.23110065805E+02  0.44207284932E+02  0.00000000000E+00 0.  1.
</event>
<event>
 7    1  0.2294706E-015  0.9000784E+02  0.7816164E-02  0.1186339E+00
        -11   -1    0    0    0    0  0.00000000000E+00  0.00000000000E+00  0.45593999997E+02  0.45594000000E+02  0.51100000000E-03 0.  1.
         11   -1    0    0    0    0 -0.00000000000E+00 -0.00000000000E+00 -0.45593999997E+02  0.45594000000E+02  0.51100000000E-03 0. -1.
    9900012    2    1    2    0    0  0.12783065322E+00  0.99595341055E+00  0.62008552080E+00  0.90007843263E+02  0.90000105994E+02 0.  0.
        -12    1    1    2    0    0 -0.12783065322E+00 -0.99595341055E+00 -0.62008552080E+00  0.11801567375E+01  0.00000000000E+00 0.  1.
         11    1    3    3    0    0  0.13729426279E+02  0.49724201875E+01  0.40290139983E+01  0.15147774178E+02  0.51100000000E-03 0. -1.
        -11    1    3    3    0    0 -0.83828031800E+01  0.16490380792E+02  0.30052694568E+02  0.35289778957E+02  0.51100000000E-03 0.  1.
         12    1    3    3    0    0 -0.52187924459E+01 -0.20466847569E+02 -0.33461623045E+02  0.39570290128E+02  0.00000000000E+00 0. -1.
</event>
<event>
 7    1  0.2294706E-015  0.9000808E+02  0.7816164E-02  0.1186338E+00
        -11   -1    0    0    0    0  0.00000000000E+00  0.00000000000E+00  0.45593999997E+02  0.45594000000E+02  0.51100000000E-03 0.  1.
         11   -1    0    0    0    0 -0.00000000000E+00 -0.00000000000E+00 -0.45593999997E+02  0.45594000000E+02  0.51100000000E-03 0. -1.
    9900012    2    1    2    0    0  0.24434090545E+00 -0.63418025490E+00 -0.96453165347E+00  0.90008081196E+02  0.90000347067E+02 0.  0.
        -12    1    1    2    0    0 -0.24434090545E+00  0.63418025490E+00  0.96453165347E+00  0.11799188041E+01  0.00000000000E+00 0.  1.
         11    1    3    3    0    0 -0.11502115464E+02 -0.18722995139E+02 -0.38475846933E+02  0.44308464255E+02  0.51100000000E-03 0. -1.
        -11    1    3    3    0    0 -0.34216750232E+01  0.32767363092E+01  0.50133979488E+01  0.68977547114E+01  0.51100000000E-03 0.  1.
        -12    1    3    3    0    0  0.15168131393E+02  0.14812078575E+02  0.32497917331E+02  0.38801862230E+02  0.00000000000E+00 0.  1.
</event>
<event>
 7    1  0.2294706E-015  0.9000777E+02  0.7816164E-02  0.1186339E+00
        -11   -1    0    0    0    0  0.00000000000E+00  0.00000000000E+00  0.45593999997E+02  0.45594000000E+02  0.51100000000E-03 0. -1.
         11   -1    0    0    0    0 -0.00000000000E+00 -0.00000000000E+00 -0.45593999997E+02  0.45594000000E+02  0.51100000000E-03 0.  1.
    9900012    2    1    2    0    0 -0.36899554194E+00 -0.51482123002E-01  0.11198791802E+01  0.90007772269E+02  0.90000034063E+02 0.  0.
        -12    1    1    2    0    0  0.36899554194E+00  0.51482123002E-01 -0.11198791802E+01  0.11802277311E+01  0.00000000000E+00 0.  1.
         11    1    3    3    0    0 -0.84192151359E+01 -0.28089105635E+01  0.10984817894E+01  0.89431439975E+01  0.51100000000E-03 0. -1.
        -11    1    3    3    0    0 -0.27593334906E+02 -0.11218488768E+02 -0.21878230376E+02  0.36958132882E+02  0.51100000000E-03 0.  1.
         12    1    3    3    0    0  0.35643554500E+02  0.13975917209E+02  0.21899627767E+02  0.44106495389E+02  0.00000000000E+00 0. -1.
</event>
<event>
 7    1  0.2294706E-015  0.9000775E+02  0.7816164E-02  0.1186339E+00
        -11   -1    0    0    0    0  0.00000000000E+00  0.00000000000E+00  0.45593999997E+02  0.45594000000E+02  0.51100000000E-03 0.  1.
         11   -1    0    0    0    0 -0.00000000000E+00 -0.00000000000E+00 -0.45593999997E+02  0.45594000000E+02  0.51100000000E-03 0. -1.
    9900012    2    1    2    0    0  0.48274801393E+00 -0.74602714599E+00 -0.77677588688E+00  0.90007753023E+02  0.90000014563E+02 0.  0.
        -12    1    1    2    0    0 -0.48274801393E+00  0.74602714599E+00  0.77677588688E+00  0.11802469767E+01  0.00000000000E+00 0.  1.
         11    1    3    3    0    0  0.29170258381E+01 -0.58640938872E+01  0.71680945376E+01  0.97096970303E+01  0.51100000000E-03 0. -1.
        -11    1    3    3    0    0 -0.96480513399E+01 -0.28897924719E+02  0.19350805160E+02  0.36091946585E+02  0.51100000000E-03 0.  1.
         12    1    3    3    0    0  0.72137735157E+01  0.34015991460E+02 -0.27295675585E+02  0.44206109408E+02  0.00000000000E+00 0. -1.
</event>
<event>
 7    1  0.2294706E-015  0.9000742E+02  0.7816164E-02  0.1186340E+00
        -11   -1    0    0    0    0  0.00000000000E+00  0.00000000000E+00  0.45593999997E+02  0.45594000000E+02  0.51100000000E-03 0.  1.
         11   -1    0    0    0    0 -0.00000000000E+00 -0.00000000000E+00 -0.45593999997E+02  0.45594000000E+02  0.51100000000E-03 0. -1.
    9900012    2    1    2    0    0 -0.71623305349E+00 -0.63936528942E+00 -0.68701977715E+00  0.90007417968E+02  0.89999675085E+02 0.  0.
        -12    1    1    2    0    0  0.71623305349E+00  0.63936528942E+00  0.68701977715E+00  0.11805820321E+01  0.00000000000E+00 0.  1.
         11    1    3    3    0    0 -0.17294122562E+02 -0.31969931414E+02 -0.10328302689E+02  0.37786730826E+02  0.51100000000E-03 0. -1.
        -11    1    3    3    0    0 -0.85372693222E+01  0.11337704647E+02  0.13867164816E+02  0.19842549596E+02  0.51100000000E-03 0.  1.
        -12    1    3    3    0    0  0.25115158830E+02  0.19992861477E+02 -0.42258819044E+01  0.32378137547E+02  0.00000000000E+00 0.  1.
</event>
<event>
 7    1  0.2294706E-015  0.9000788E+02  0.7816164E-02  0.1186339E+00
        -11   -1    0    0    0    0  0.00000000000E+00  0.00000000000E+00  0.45593999997E+02  0.45594000000E+02  0.51100000000E-03 0.  1.
         11   -1    0    0    0    0 -0.00000000000E+00 -0.00000000000E+00 -0.45593999997E+02  0.45594000000E+02  0.51100000000E-03 0. -1.
    9900012    2    1    2    0    0  0.17530697691E+00  0.25705849083E+00 -0.11383653998E+01  0.90007878232E+02  0.90000141425E+02 0.  0.
        -12    1    1    2    0    0 -0.17530697691E+00 -0.25705849083E+00  0.11383653998E+01  0.11801217680E+01  0.00000000000E+00 0.  1.
         11    1    3    3    0    0 -0.18942278754E+02 -0.54559425900E-01  0.30576405259E+02  0.35968450897E+02  0.51100000000E-03 0. -1.
        -11    1    3    3    0    0 -0.10501299882E+00  0.17647395480E+01  0.89042541257E+01  0.90780545933E+01  0.51100000000E-03 0.  1.
        -12    1    3    3    0    0  0.19222598730E+02 -0.14531216313E+01 -0.40619024784E+02  0.44961372742E+02  0.00000000000E+00 0.  1.
</event>
<event>
 7    1  0.2294706E-015  0.9000768E+02  0.7816164E-02  0.1186339E+00
        -11   -1    0    0    0    0  0.00000000000E+00  0.00000000000E+00  0.45593999997E+02  0.45594000000E+02  0.51100000000E-03 0.  1.
         11   -1    0    0    0    0 -0.00000000000E+00 -0.00000000000E+00 -0.45593999997E+02  0.45594000000E+02  0.51100000000E-03 0. -1.
    9900012    2    1    2    0    0  0.44469810140E+00  0.91415794208E+00 -0.59975476358E+00  0.90007683551E+02  0.89999944173E+02 0.  0.
        -12    1    1    2    0    0 -0.44469810140E+00 -0.91415794208E+00  0.59975476358E+00  0.11803164495E+01  0.00000000000E+00 0.  1.
         11    1    3    3    0    0 -0.20451810964E+02 -0.24397804887E+02 -0.21053442117E+02  0.38167746597E+02  0.51100000000E-03 0. -1.
        -11    1    3    3    0    0  0.52356323792E+01 -0.83341039105E+01  0.87802790401E+00  0.98812988854E+01  0.51100000000E-03 0.  1.
        -12    1    3    3    0    0  0.15660876687E+02  0.33646066740E+02  0.19575659450E+02  0.41958638068E+02  0.00000000000E+00 0.  1.
</event>
<event>
 7    1  0.2294706E-015  0.9000772E+02  0.7816164E-02  0.1186339E+00
        -11   -1    0    0    0    0  0.00000000000E+00  0.00000000000E+00  0.45593999997E+02  0.45594000000E+02  0.51100000000E-03 0. -1.
         11   -1    0    0    0    0 -0.00000000000E+00 -0.00000000000E+00 -0.45593999997E+02  0.45594000000E+02  0.51100000000E-03 0.  1.
    9900012    2    1    2    0    0  0.65598787517E+00  0.83147472211E+00 -0.52095938263E+00  0.90007716566E+02  0.89999977625E+02 0.  0.
        -12    1    1    2    0    0 -0.65598787517E+00 -0.83147472211E+00  0.52095938263E+00  0.11802834338E+01  0.00000000000E+00 0.  1.
         11    1    3    3    0    0  0.18871043686E+02 -0.32308429171E+02  0.54665897004E+01  0.37813152322E+02  0.51100000000E-03 0. -1.
        -11    1    3    3    0    0  0.90654564811E+01  0.22567138186E+00 -0.35754340870E+00  0.90753108119E+01  0.51100000000E-03 0.  1.
        -12    1    3    3    0    0 -0.27280512291E+02  0.32914232511E+02 -0.56300056743E+01  0.43119253433E+02  0.00000000000E+00 0.  1.
</event>
<event>
 7    1  0.2294706E-015  0.9000775E+02  0.7816164E-02  0.1186339E+00
        -11   -1    0    0    0    0  0.00000000000E+00  0.00000000000E+00  0.45593999997E+02  0.45594000000E+02  0.51100000000E-03 0. -1.
         11   -1    0    0    0    0 -0.00000000000E+00 -0.00000000000E+00 -0.45593999997E+02  0.45594000000E+02  0.51100000000E-03 0.  1.
    9900012    2    1    2    0    0 -0.10592206207E+01  0.49267896637E+00  0.16827026910E+00  0.90007747582E+02  0.90000009050E+02 0.  0.
        -12    1    1    2    0    0  0.10592206207E+01 -0.49267896637E+00 -0.16827026910E+00  0.11802524182E+01  0.00000000000E+00 0.  1.
         11    1    3    3    0    0  0.99669537758E+01 -0.10665830153E+01  0.25153134583E+01  0.10334629599E+02  0.51100000000E-03 0. -1.
        -11    1    3    3    0    0  0.30151978749E+01  0.16470622504E+02 -0.36325474908E+02  0.39998911879E+02  0.51100000000E-03 0.  1.
         12    1    3    3    0    0 -0.14041372271E+02 -0.14911360523E+02  0.33978431719E+02  0.39674206104E+02  0.00000000000E+00 0. -1.
</event>
<event>
 7    1  0.2294706E-015  0.9000782E+02  0.7816164E-02  0.1186339E+00
        -11   -1    0    0    0    0  0.00000000000E+00  0.00000000000E+00  0.45593999997E+02  0.45594000000E+02  0.51100000000E-03 0.  1.
         11   -1    0    0    0    0 -0.00000000000E+00 -0.00000000000E+00 -0.45593999997E+02  0.45594000000E+02  0.51100000000E-03 0. -1.
    9900012    2    1    2    0    0  0.15362382008E+00 -0.30195748898E+00 -0.11305075944E+01  0.90007819495E+02  0.90000081912E+02 0.  0.
        -12    1    1    2    0    0 -0.15362382008E+00  0.30195748898E+00  0.11305075944E+01  0.11801805050E+01  0.00000000000E+00 0.  1.
         11    1    3    3    0    0  0.30593877135E+02  0.15562824555E+02  0.22573434635E+02  0.41082195387E+02  0.51100000000E-03 0. -1.
        -11    1    3    3    0    0 -0.47475888719E+01 -0.51459974037E+01  0.52561125931E+01  0.87548620336E+01  0.51100000000E-03 0.  1.
        -12    1    3    3    0    0 -0.25692664443E+02 -0.10718784641E+02 -0.28960054823E+02  0.40170762075E+02  0.00000000000E+00 0.  1.
</event>
<event>
 7    1  0.2294706E-015  0.9000770E+02  0.7816164E-02  0.1186339E+00
        -11   -1    0    0    0    0  0.00000000000E+00  0.00000000000E+00  0.45593999997E+02  0.45594000000E+02  0.51100000000E-03 0.  1.
         11   -1    0    0    0    0 -0.00000000000E+00 -0.00000000000E+00 -0.45593999997E+02  0.45594000000E+02  0.51100000000E-03 0. -1.
    9900012    2    1    2    0    0  0.31573339173E+00  0.11362806430E+01  0.47758802116E-01  0.90007702505E+02  0.89999963378E+02 0.  0.
        -12    1    1    2    0    0 -0.31573339173E+00 -0.11362806430E+01 -0.47758802116E-01  0.11802974953E+01  0.00000000000E+00 0.  1.
         11    1    3    3    0    0 -0.28547792619E+01  0.24019150503E+00  0.53417304409E+01  0.60614800963E+01  0.51100000000E-03 0. -1.
        -11    1    3    3    0    0  0.11859034850E+02  0.20371522941E+01  0.37955877502E+02  0.39817525466E+02  0.51100000000E-03 0.  1.
         12    1    3    3    0    0 -0.86885221961E+01 -0.11410631561E+01 -0.43249849141E+02  0.44128696942E+02  0.00000000000E+00 0. -1.
</event>
<event>
 7    1  0.2294706E-015  0.9000753E+02  0.7816164E-02  0.1186339E+00
        -11   -1    0    0    0    0  0.00000000000E+00  0.00000000000E+00  0.45593999997E+02  0.45594000000E+02  0.51100000000E-03 0.  1.
         11   -1    0    0    0    0 -0.00000000000E+00 -0.00000000000E+00 -0.45593999997E+02  0.45594000000E+02  0.51100000000E-03 0. -1.
    9900012    2    1    2    0    0 -0.71929044122E+00  0.40109439222E+00 -0.84573353951E+00  0.90007525235E+02  0.89999783768E+02 0.  0.
        -12    1    1    2    0    0  0.71929044122E+00 -0.40109439222E+00  0.84573353951E+00  0.11804747647E+01  0.00000000000E+00 0.  1.
         11    1    3    3    0    0 -0.84552250895E+00  0.37609842947E+02  0.22450293110E-01  0.37619352720E+02  0.51100000000E-03 0. -1.
        -11    1    3    3    0    0  0.88393241013E+01  0.34183654200E+01 -0.48512573025E+01  0.10646763376E+02  0.51100000000E-03 0.  1.
        -12    1    3    3    0    0 -0.87130920336E+01 -0.40627113974E+02  0.39830734699E+01  0.41741409139E+02  0.00000000000E+00 0.  1.
</event>
<event>
 7    1  0.2294706E-015  0.9000768E+02  0.7816164E-02  0.1186339E+00
        -11   -1    0    0    0    0  0.00000000000E+00  0.00000000000E+00  0.45593999997E+02  0.45594000000E+02  0.51100000000E-03 0.  1.
         11   -1    0    0    0    0 -0.00000000000E+00 -0.00000000000E+00 -0.45593999997E+02  0.45594000000E+02  0.51100000000E-03 0. -1.
    9900012    2    1    2    0    0 -0.93921762638E+00 -0.66672827746E+00 -0.25786832248E+00  0.90007681222E+02  0.89999941814E+02 0.  0.
        -12    1    1    2    0    0  0.93921762638E+00  0.66672827746E+00  0.25786832248E+00  0.11803187779E+01  0.00000000000E+00 0.  1.
         11    1    3    3    0    0  0.85195872680E+01 -0.35445419014E+02 -0.15084050804E+02  0.39452372365E+02  0.51100000000E-03 0. -1.
        -11    1    3    3    0    0 -0.76026069158E+01  0.12337812475E+01 -0.70688431434E+01  0.10454204500E+02  0.51100000000E-03 0.  1.
        -12    1    3    3    0    0 -0.18561979786E+01  0.33544909489E+02  0.21895025625E+02  0.40101104357E+02  0.00000000000E+00 0.  1.
</event>
<event>
 7    1  0.2294706E-015  0.9000773E+02  0.7816164E-02  0.1186339E+00
        -11   -1    0    0    0    0  0.00000000000E+00  0.00000000000E+00  0.45593999997E+02  0.45594000000E+02  0.51100000000E-03 0. -1.
         11   -1    0    0    0    0 -0.00000000000E+00 -0.00000000000E+00 -0.45593999997E+02  0.45594000000E+02  0.51100000000E-03 0.  1.
    9900012    2    1    2    0    0 -0.10255424450E+01  0.50366291409E+00  0.29599737635E+00  0.90007733893E+02  0.89999995180E+02 0.  0.
        -12    1    1    2    0    0  0.10255424450E+01 -0.50366291409E+00 -0.29599737635E+00  0.11802661075E+01  0.00000000000E+00 0.  1.
         11    1    3    3    0    0  0.15832407753E+02  0.44099927659E+01 -0.16379575801E+01  0.16516539491E+02  0.51100000000E-03 0. -1.
        -11    1    3    3    0    0  0.21679138612E+02  0.72378306899E+01 -0.17624120466E+02  0.28861407910E+02  0.51100000000E-03 0.  1.
         12    1    3    3    0    0 -0.38537088810E+02 -0.11144160542E+02  0.19558075422E+02  0.44629786492E+02  0.00000000000E+00 0. -1.
</event>
<event>
 7    1  0.2294706E-015  0.9000809E+02  0.7816164E-02  0.1186338E+00
        -11   -1    0    0    0    0  0.00000000000E+00  0.00000000000E+00  0.45593999997E+02  0.45594000000E+02  0.51100000000E-03 0.  1.
         11   -1    0    0    0    0 -0.00000000000E+00 -0.00000000000E+00 -0.45593999997E+02  0.45594000000E+02  0.51100000000E-03 0. -1.
    9900012    2    1    2    0    0  0.21617387309E+00  0.60276336334E+00 -0.99102607493E+00  0.90008090047E+02  0.90000356035E+02 0.  0.
        -12    1    1    2    0    0 -0.21617387309E+00 -0.60276336334E+00  0.99102607493E+00  0.11799099528E+01  0.00000000000E+00 0.  1.
         11    1    3    3    0    0 -0.52885161062E-01 -0.74040618288E+01  0.50438938225E+01  0.89590062819E+01  0.51100000000E-03 0. -1.
        -11    1    3    3    0    0  0.26524328204E+02  0.17000201667E+02  0.24408799886E+02  0.39853937767E+02  0.51100000000E-03 0.  1.
         12    1    3    3    0    0 -0.26255269170E+02 -0.89933764744E+01 -0.30443719784E+02  0.41195145999E+02  0.00000000000E+00 0. -1.
</event>
<event>
 7    1  0.2294706E-015  0.9000776E+02  0.7816164E-02  0.1186339E+00
        -11   -1    0    0    0    0  0.00000000000E+00  0.00000000000E+00  0.45593999997E+02  0.45594000000E+02  0.51100000000E-03 0.  1.
         11   -1    0    0    0    0 -0.00000000000E+00 -0.00000000000E+00 -0.45593999997E+02  0.45594000000E+02  0.51100000000E-03 0. -1.
    9900012    2    1    2    0    0  0.42933092290E+00 -0.10779593006E+01 -0.21596010578E+00  0.90007762709E+02  0.90000024377E+02 0.  0.
        -12    1    1    2    0    0 -0.42933092290E+00  0.10779593006E+01  0.21596010578E+00  0.11802372907E+01  0.00000000000E+00 0.  1.
         11    1    3    3    0    0  0.49488611229E+01 -0.53386671084E+01  0.39365514092E+01  0.82758099402E+01  0.51100000000E-03 0. -1.
        -11    1    3    3    0    0 -0.60124057447E+01 -0.38420988129E+02 -0.30862503310E+01  0.39010848402E+02  0.51100000000E-03 0.  1.
         12    1    3    3    0    0  0.14928755448E+01  0.42681695937E+02 -0.10662611840E+01  0.42721104367E+02  0.00000000000E+00 0. -1.
</event>
<event>
 7    1  0.2294706E-015  0.9000773E+02  0.7816164E-02  0.1186339E+00
        -11   -1    0    0    0    0  0.00000000000E+00  0.00000000000E+00  0.45593999997E+02  0.45594000000E+02  0.51100000000E-03 0.  1.
         11   -1    0    0    0    0 -0.00000000000E+00 -0.00000000000E+00 -0.45593999997E+02  0.45594000000E+02  0.51100000000E-03 0. -1.
    9900012    2    1    2    0    0  0.10385706376E+00  0.71588923283E+00 -0.93259976131E+00  0.90007734776E+02  0.89999996075E+02 0.  0.
        -12    1    1    2    0    0 -0.10385706376E+00 -0.71588923283E+00  0.93259976131E+00  0.11802652237E+01  0.00000000000E+00 0.  1.
         11    1    3    3    0    0 -0.41963368855E+02 -0.96543835857E+01 -0.89109568393E+01  0.43971997909E+02  0.51100000000E-03 0. -1.
        -11    1    3    3    0    0  0.73143639502E+01  0.17178332128E+01  0.69072884179E+01  0.10205954365E+02  0.51100000000E-03 0.  1.
        -12    1    3    3    0    0  0.34752861968E+02  0.86524396058E+01  0.10710686601E+01  0.35829782503E+02  0.00000000000E+00 0.  1.
</event>
<event>
 7    1  0.2947813E-015  0.9000774E+02  0.7816164E-02  0.1186339E+00
        -11   -1    0    0    0    0  0.00000000000E+00  0.00000000000E+00  0.45593999997E+02  0.45594000000E+02  0.51100000000E-03 0. -1.
         11   -1    0    0    0    0 -0.00000000000E+00 -0.00000000000E+00 -0.45593999997E+02  0.45594000000E+02  0.51100000000E-03 0.  1.
    9900012    2    1    2    0    0  0.10997769292E+00  0.46202679036E+00  0.10804812435E+01  0.90007744280E+02  0.90000005704E+02 0.  0.
        -12    1    1    2    0    0 -0.10997769292E+00 -0.46202679036E+00 -0.10804812435E+01  0.11802557204E+01  0.00000000000E+00 0.  1.
         11    1    3    3    0    0  0.69606227903E+01  0.11764755773E+02  0.34990344062E+02  0.37565728076E+02  0.51100000000E-03 0. -1.
        -11    1    3    3    0    0 -0.62677989475E+01  0.12656522113E+01  0.70944229615E+01  0.95508123520E+01  0.51100000000E-03 0.  1.
        -12    1    3    3    0    0 -0.58284614987E+00 -0.12568381193E+02 -0.41004285780E+02  0.42891203851E+02  0.00000000000E+00 0.  1.
</event>
<event>
 7    1  0.2294706E-015  0.9000771E+02  0.7816164E-02  0.1186339E+00
        -11   -1    0    0    0    0  0.00000000000E+00  0.00000000000E+00  0.45593999997E+02  0.45594000000E+02  0.51100000000E-03 0.  1.
         11   -1    0    0    0    0 -0.00000000000E+00 -0.00000000000E+00 -0.45593999997E+02  0.45594000000E+02  0.51100000000E-03 0. -1.
    9900012    2    1    2    0    0 -0.33182288855E+00  0.11066655432E+01  0.24137139152E+00  0.90007713932E+02  0.89999974956E+02 0.  0.
        -12    1    1    2    0    0  0.33182288855E+00 -0.11066655432E+01 -0.24137139152E+00  0.11802860680E+01  0.00000000000E+00 0.  1.
         11    1    3    3    0    0 -0.43867647064E+01 -0.38725818259E+01 -0.71307191185E+01  0.92243021414E+01  0.51100000000E-03 0. -1.
        -11    1    3    3    0    0 -0.29218025569E+02 -0.18472694862E+02 -0.10783723922E+02  0.36210801918E+02  0.51100000000E-03 0.  1.
         12    1    3    3    0    0  0.33272967387E+02  0.23451942231E+02  0.18155814432E+02  0.44572609873E+02  0.00000000000E+00 0. -1.
</event>
<event>
 7    1  0.2294706E-015  0.9000773E+02  0.7816164E-02  0.1186339E+00
        -11   -1    0    0    0    0  0.00000000000E+00  0.00000000000E+00  0.45593999997E+02  0.45594000000E+02  0.51100000000E-03 0. -1.
         11   -1    0    0    0    0 -0.00000000000E+00 -0.00000000000E+00 -0.45593999997E+02  0.45594000000E+02  0.51100000000E-03 0.  1.
    9900012    2    1    2    0    0  0.65361110784E+00  0.66667604938E+00  0.72206787428E+00  0.90007726112E+02  0.89999987297E+02 0.  0.
        -12    1    1    2    0    0 -0.65361110784E+00 -0.66667604938E+00 -0.72206787428E+00  0.11802738878E+01  0.00000000000E+00 0.  1.
         11    1    3    3    0    0 -0.32916845628E+02  0.14566677917E+02 -0.78247332614E+00  0.36004431621E+02  0.51100000000E-03 0. -1.
        -11    1    3    3    0    0 -0.37718550786E+01  0.86554151388E+01 -0.35477081394E+01  0.10086096136E+02  0.51100000000E-03 0.  1.
        -12    1    3    3    0    0  0.37342311814E+02 -0.22555417006E+02  0.50522493398E+01  0.43917198355E+02  0.00000000000E+00 0.  1.
</event>
<event>
 7    1  0.2294706E-015  0.9000775E+02  0.7816164E-02  0.1186339E+00
        -11   -1    0    0    0    0  0.00000000000E+00  0.00000000000E+00  0.45593999997E+02  0.45594000000E+02  0.51100000000E-03 0.  1.
         11   -1    0    0    0    0 -0.00000000000E+00 -0.00000000000E+00 -0.45593999997E+02  0.45594000000E+02  0.51100000000E-03 0. -1.
    9900012    2    1    2    0    0 -0.99845175891E+00 -0.28546129573E+00 -0.56088867082E+00  0.90007749956E+02  0.90000011455E+02 0.  0.
        -12    1    1    2    0    0  0.99845175891E+00  0.28546129573E+00  0.56088867082E+00  0.11802500444E+01  0.00000000000E+00 0.  1.
         11    1    3    3    0    0 -0.21059658553E+02  0.47856277278E+01 -0.12655090255E+02  0.25031235701E+02  0.51100000000E-03 0. -1.
        -11    1    3    3    0    0 -0.19018432715E+02  0.61392393244E+01  0.13797641818E+02  0.24285097538E+02  0.51100000000E-03 0.  1.
         12    1    3    3    0    0  0.39079639509E+02 -0.11210328348E+02 -0.17034402337E+01  0.40691416717E+02  0.00000000000E+00 0. -1.
</event>
<event>
 7    1  0.2294706E-015  0.9000778E+02  0.7816164E-02  0.1186339E+00
        -11   -1    0    0    0    0  0.00000000000E+00  0.00000000000E+00  0.45593999997E+02  0.45594000000E+02  0.51100000000E-03 0.  1.
         11   -1    0    0    0    0 -0.00000000000E+00 -0.00000000000E+00 -0.45593999997E+02  0.45594000000E+02  0.51100000000E-03 0. -1.
    9900012    2    1    2    0    0  0.24242659360E+00 -0.99086370893E+00 -0.59359012391E+00  0.90007775115E+02  0.90000036947E+02 0.  0.
        -12    1    1    2    0    0 -0.24242659360E+00  0.99086370893E+00  0.59359012391E+00  0.11802248846E+01  0.00000000000E+00 0.  1.
         11    1    3    3    0    0  0.45448535147E+01  0.80313737765E+01 -0.55186987174E+01  0.10752427354E+02  0.51100000000E-03 0. -1.
        -11    1    3    3    0    0  0.30722442776E+02  0.11368503981E+02  0.17080148126E+02  0.36943779357E+02  0.51100000000E-03 0.  1.
         12    1    3    3    0    0 -0.35024869697E+02 -0.20390741466E+02 -0.12155039533E+02  0.42311568405E+02  0.00000000000E+00 0. -1.
</event>
<event>
 7    1  0.2294706E-015  0.9000787E+02  0.7816164E-02  0.1186339E+00
        -11   -1    0    0    0    0  0.00000000000E+00  0.00000000000E+00  0.45593999997E+02  0.45594000000E+02  0.51100000000E-03 0.  1.
         11   -1    0    0    0    0 -0.00000000000E+00 -0.00000000000E+00 -0.45593999997E+02  0.45594000000E+02  0.51100000000E-03 0. -1.
    9900012    2    1    2    0    0  0.80742558693E+00 -0.72577862289E+00 -0.46262171195E+00  0.90007868848E+02  0.90000131917E+02 0.  0.
        -12    1    1    2    0    0 -0.80742558693E+00  0.72577862289E+00  0.46262171195E+00  0.11801311521E+01  0.00000000000E+00 0.  1.
         11    1    3    3    0    0 -0.24508118887E+01 -0.10587235843E+02  0.14424839469E+01  0.10962518046E+02  0.51100000000E-03 0. -1.
        -11    1    3    3    0    0 -0.11124528675E+02 -0.32293703552E+02  0.27222278729E+01  0.34264397736E+02  0.51100000000E-03 0.  1.
         12    1    3    3    0    0  0.14382766151E+02  0.42155160772E+02 -0.46273335318E+01  0.44780953066E+02  0.00000000000E+00 0. -1.
</event>
<event>
 7    1  0.2294706E-015  0.9000776E+02  0.7816164E-02  0.1186339E+00
        -11   -1    0    0    0    0  0.00000000000E+00  0.00000000000E+00  0.45593999997E+02  0.45594000000E+02  0.51100000000E-03 0.  1.
         11   -1    0    0    0    0 -0.00000000000E+00 -0.00000000000E+00 -0.45593999997E+02  0.45594000000E+02  0.51100000000E-03 0. -1.
    9900012    2    1    2    0    0 -0.53447513585E+00 -0.63654822811E+00 -0.83792542741E+00  0.90007755814E+02  0.90000017390E+02 0.  0.
        -12    1    1    2    0    0  0.53447513585E+00  0.63654822811E+00  0.83792542741E+00  0.11802441864E+01  0.00000000000E+00 0.  1.
         11    1    3    3    0    0  0.68044457054E+01  0.14400993734E+02 -0.35686972767E+02  0.39080034896E+02  0.51100000000E-03 0. -1.
        -11    1    3    3    0    0 -0.35277272700E+01  0.31197002681E+01 -0.50628251782E+01  0.69144478088E+01  0.51100000000E-03 0.  1.
        -12    1    3    3    0    0 -0.38111935712E+01 -0.18157242231E+02  0.39911872518E+02  0.44013273109E+02  0.00000000000E+00 0.  1.
</event>
<event>
 7    1  0.3329343E-015  0.9000772E+02  0.7816164E-02  0.1186339E+00
        -11   -1    0    0    0    0  0.00000000000E+00  0.00000000000E+00  0.45593999997E+02  0.45594000000E+02  0.51100000000E-03 0. -1.
         11   -1    0    0    0    0 -0.00000000000E+00 -0.00000000000E+00 -0.45593999997E+02  0.45594000000E+02  0.51100000000E-03 0.  1.
    9900012    2    1    2    0    0  0.71085782400E+00  0.71470217234E+00  0.61396101051E+00  0.90007717761E+02  0.89999978836E+02 0.  0.
        -12    1    1    2    0    0 -0.71085782400E+00 -0.71470217234E+00 -0.61396101051E+00  0.11802822389E+01  0.00000000000E+00 0.  1.
         11    1    3    3    0    0  0.40436783412E+01  0.36382447554E+02  0.18253973777E+02  0.40905273297E+02  0.51100000000E-03 0. -1.
        -11    1    3    3    0    0 -0.85619711333E+01  0.11411064878E+01 -0.36941244659E+01  0.93944680283E+01  0.51100000000E-03 0.  1.
        -12    1    3    3    0    0  0.52291506161E+01 -0.36808851870E+02 -0.13945888301E+02  0.39707976436E+02  0.00000000000E+00 0.  1.
</event>
<event>
 7    1  0.2294706E-015  0.9000772E+02  0.7816164E-02  0.1186339E+00
        -11   -1    0    0    0    0  0.00000000000E+00  0.00000000000E+00  0.45593999997E+02  0.45594000000E+02  0.51100000000E-03 0.  1.
         11   -1    0    0    0    0 -0.00000000000E+00 -0.00000000000E+00 -0.45593999997E+02  0.45594000000E+02  0.51100000000E-03 0. -1.
    9900012    2    1    2    0    0 -0.71420380340E+00 -0.77118921668E+00  0.53687124154E+00  0.90007724350E+02  0.89999985511E+02 0.  0.
        -12    1    1    2    0    0  0.71420380340E+00  0.77118921668E+00 -0.53687124154E+00  0.11802756503E+01  0.00000000000E+00 0.  1.
         11    1    3    3    0    0 -0.60320350097E+01 -0.75966705872E+01  0.15057744746E+01  0.98164253880E+01  0.51100000000E-03 0. -1.
        -11    1    3    3    0    0 -0.21653976674E+02 -0.45338543961E+01  0.30199699260E+02  0.37436244164E+02  0.51100000000E-03 0.  1.
         12    1    3    3    0    0  0.26971807880E+02  0.11359335767E+02 -0.31168602493E+02  0.42755054797E+02  0.00000000000E+00 0. -1.
</event>
<event>
 7    1  0.2294706E-015  0.9000775E+02  0.7816164E-02  0.1186339E+00
        -11   -1    0    0    0    0  0.00000000000E+00  0.00000000000E+00  0.45593999997E+02  0.45594000000E+02  0.51100000000E-03 0.  1.
         11   -1    0    0    0    0 -0.00000000000E+00 -0.00000000000E+00 -0.45593999997E+02  0.45594000000E+02  0.51100000000E-03 0. -1.
    9900012    2    1    2    0    0 -0.93596329023E+00  0.21833909017E-01 -0.71866265547E+00  0.90007754258E+02  0.90000015814E+02 0.  0.
        -12    1    1    2    0    0  0.93596329023E+00 -0.21833909017E-01  0.71866265547E+00  0.11802457425E+01  0.00000000000E+00 0.  1.
         11    1    3    3    0    0  0.13924964274E+02 -0.37032104526E+02 -0.38040442194E+01  0.39746096014E+02  0.51100000000E-03 0. -1.
        -11    1    3    3    0    0 -0.25220545828E+01 -0.38334240601E+01 -0.50086736581E+01  0.67928426611E+01  0.51100000000E-03 0.  1.
        -12    1    3    3    0    0 -0.12338872982E+02  0.40887362495E+02  0.80940552221E+01  0.43468815583E+02  0.00000000000E+00 0.  1.
</event>
<event>
 7    1  0.2294706E-015  0.9000784E+02  0.7816164E-02  0.1186339E+00
        -11   -1    0    0    0    0  0.00000000000E+00  0.00000000000E+00  0.45593999997E+02  0.45594000000E+02  0.51100000000E-03 0.  1.
         11   -1    0    0    0    0 -0.00000000000E+00 -0.00000000000E+00 -0.45593999997E+02  0.45594000000E+02  0.51100000000E-03 0. -1.
    9900012    2    1    2    0    0 -0.64828376336E+00 -0.97030490589E+00  0.17611783061E+00  0.90007838596E+02  0.90000101266E+02 0.  0.
        -12    1    1    2    0    0  0.64828376336E+00  0.97030490589E+00 -0.17611783061E+00  0.11801614036E+01  0.00000000000E+00 0.  1.
         11    1    3    3    0    0 -0.20929233120E+02  0.22029862828E+02 -0.26538522597E+02  0.40344030997E+02  0.51100000000E-03 0. -1.
        -11    1    3    3    0    0  0.24225673024E+01  0.66864503148E+01  0.32365410638E+01  0.78136194216E+01  0.51100000000E-03 0.  1.
        -12    1    3    3    0    0  0.17858382054E+02 -0.29686618048E+02  0.23478099364E+02  0.41850188178E+02  0.00000000000E+00 0.  1.
</event>
<event>
 7    1  0.2294706E-015  0.9000773E+02  0.7816164E-02  0.1186339E+00
        -11   -1    0    0    0    0  0.00000000000E+00  0.00000000000E+00  0.45593999997E+02  0.45594000000E+02  0.51100000000E-03 0.  1.
         11   -1    0    0    0    0 -0.00000000000E+00 -0.00000000000E+00 -0.45593999997E+02  0.45594000000E+02  0.51100000000E-03 0. -1.
    9900012    2    1    2    0    0  0.48220223355E-01  0.10452601006E+00 -0.11746437064E+01  0.90007729390E+02  0.89999990618E+02 0.  0.
        -12    1    1    2    0    0 -0.48220223355E-01 -0.10452601006E+00  0.11746437064E+01  0.11802706104E+01  0.00000000000E+00 0.  1.
         11    1    3    3    0    0 -0.15387565200E+02 -0.31218132623E+02  0.16161453945E+02  0.38373709243E+02  0.51100000000E-03 0. -1.
        -11    1    3    3    0    0  0.77309530790E+01 -0.67155784523E+00  0.71994665674E+01  0.10585411875E+02  0.51100000000E-03 0.  1.
        -12    1    3    3    0    0  0.77048323444E+01  0.31994216478E+02 -0.24535564218E+02  0.41048608271E+02  0.00000000000E+00 0.  1.
</event>
<event>
 7    1  0.2294706E-015  0.9000718E+02  0.7816164E-02  0.1186340E+00
        -11   -1    0    0    0    0  0.00000000000E+00  0.00000000000E+00  0.45593999997E+02  0.45594000000E+02  0.51100000000E-03 0. -1.
         11   -1    0    0    0    0 -0.00000000000E+00 -0.00000000000E+00 -0.45593999997E+02  0.45594000000E+02  0.51100000000E-03 0.  1.
    9900012    2    1    2    0    0 -0.88149167785E+00  0.22272812713E+00  0.75345723278E+00  0.90007181132E+02  0.89999435121E+02 0.  0.
        -12    1    1    2    0    0  0.88149167785E+00 -0.22272812713E+00 -0.75345723278E+00  0.11808188677E+01  0.00000000000E+00 0.  1.
         11    1    3    3    0    0 -0.23854063374E+02  0.24604191016E+02  0.13862769317E+02  0.36966997828E+02  0.51100000000E-03 0. -1.
        -11    1    3    3    0    0 -0.22152887526E+01  0.91681025109E+01 -0.19968433243E+01  0.96410057271E+01  0.51100000000E-03 0.  1.
        -12    1    3    3    0    0  0.25187860448E+02 -0.33549565399E+02 -0.11112468760E+02  0.43399177578E+02  0.00000000000E+00 0.  1.
</event>
<event>
 7    1  0.2858345E-015  0.9000808E+02  0.7816164E-02  0.1186338E+00
        -11   -1    0    0    0    0  0.00000000000E+00  0.00000000000E+00  0.45593999997E+02  0.45594000000E+02  0.51100000000E-03 0. -1.
         11   -1    0    0    0    0 -0.00000000000E+00 -0.00000000000E+00 -0.45593999997E+02  0.45594000000E+02  0.51100000000E-03 0.  1.
    9900012    2    1    2    0    0 -0.81377544508E+00  0.72031907161E+00 -0.45946889998E+00  0.90008084024E+02  0.90000349933E+02 0.  0.
        -12    1    1    2    0    0  0.81377544508E+00 -0.72031907161E+00  0.45946889998E+00  0.11799159758E+01  0.00000000000E+00 0.  1.
         11    1    3    3    0    0  0.32932365325E+02  0.87677489941E+01 -0.12779873047E+02  0.36396967781E+02  0.51100000000E-03 0. -1.
        -11    1    3    3    0    0  0.49363935792E+01  0.85817047840E+01  0.66610117310E+00  0.99225666842E+01  0.51100000000E-03 0.  1.
        -12    1    3    3    0    0 -0.38682534349E+02 -0.16629134707E+02  0.11654302974E+02  0.43688549559E+02  0.00000000000E+00 0.  1.
</event>
<event>
 7    1  0.2294706E-015  0.9000771E+02  0.7816164E-02  0.1186339E+00
        -11   -1    0    0    0    0  0.00000000000E+00  0.00000000000E+00  0.45593999997E+02  0.45594000000E+02  0.51100000000E-03 0.  1.
         11   -1    0    0    0    0 -0.00000000000E+00 -0.00000000000E+00 -0.45593999997E+02  0.45594000000E+02  0.51100000000E-03 0. -1.
    9900012    2    1    2    0    0  0.11580679630E+01  0.21791465381E+00  0.66933054350E-01  0.90007708410E+02  0.89999969361E+02 0.  0.
        -12    1    1    2    0    0 -0.11580679630E+01 -0.21791465381E+00 -0.66933054350E-01  0.11802915898E+01  0.00000000000E+00 0.  1.
         11    1    3    3    0    0  0.25087598114E+02 -0.28611170452E+02  0.13522769642E+02  0.40383808053E+02  0.51100000000E-03 0. -1.
        -11    1    3    3    0    0 -0.10656237260E+02 -0.47203581322E+01 -0.40469181060E+01  0.12337532973E+02  0.51100000000E-03 0.  1.
        -12    1    3    3    0    0 -0.13273292892E+02  0.33549443238E+02 -0.94089184816E+01  0.37286367385E+02  0.00000000000E+00 0.  1.
</event>
<event>
 7    1  0.2294706E-015  0.9000772E+02  0.7816164E-02  0.1186339E+00
        -11   -1    0    0    0    0  0.00000000000E+00  0.00000000000E+00  0.45593999997E+02  0.45594000000E+02  0.51100000000E-03 0. -1.
         11   -1    0    0    0    0 -0.00000000000E+00 -0.00000000000E+00 -0.45593999997E+02  0.45594000000E+02  0.51100000000E-03 0.  1.
    9900012    2    1    2    0    0  0.51667511010E+00  0.72121312868E+00  0.77843967630E+00  0.90007716188E+02  0.89999977242E+02 0.  0.
        -12    1    1    2    0    0 -0.51667511010E+00 -0.72121312868E+00 -0.77843967630E+00  0.11802838116E+01  0.00000000000E+00 0.  1.
         11    1    3    3    0    0  0.32155186982E+02  0.12871368726E+02  0.19178665911E+02  0.39591026877E+02  0.51100000000E-03 0. -1.
        -11    1    3    3    0    0 -0.29548356624E+01  0.10171705295E+02 -0.40129218814E+01  0.11326878859E+02  0.51100000000E-03 0.  1.
        -12    1    3    3    0    0 -0.28683676210E+02 -0.22321860893E+02 -0.14387304353E+02  0.39089810452E+02  0.00000000000E+00 0.  1.
</event>
<event>
 7    1  0.2294706E-015  0.9000771E+02  0.7816164E-02  0.1186339E+00
        -11   -1    0    0    0    0  0.00000000000E+00  0.00000000000E+00  0.45593999997E+02  0.45594000000E+02  0.51100000000E-03 0.  1.
         11   -1    0    0    0    0 -0.00000000000E+00 -0.00000000000E+00 -0.45593999997E+02  0.45594000000E+02  0.51100000000E-03 0. -1.
    9900012    2    1    2    0    0  0.32889068434E+00 -0.62551799975E+00 -0.94532212850E+00  0.90007713689E+02  0.89999974709E+02 0.  0.
        -12    1    1    2    0    0 -0.32889068434E+00  0.62551799975E+00  0.94532212850E+00  0.11802863114E+01  0.00000000000E+00 0.  1.
         11    1    3    3    0    0 -0.27053483348E+01  0.14300854454E+01  0.77109532646E+01  0.82959541045E+01  0.51100000000E-03 0. -1.
        -11    1    3    3    0    0 -0.36152414873E+02  0.91548754141E+01  0.71913555846E+01  0.37980579779E+02  0.51100000000E-03 0.  1.
         12    1    3    3    0    0  0.39186653892E+02 -0.11210478859E+02 -0.15847630978E+02  0.43731179805E+02  0.00000000000E+00 0. -1.
</event>
<event>
 7    1  0.2294706E-015  0.9000771E+02  0.7816164E-02  0.1186339E+00
        -11   -1    0    0    0    0  0.00000000000E+00  0.00000000000E+00  0.45593999997E+02  0.45594000000E+02  0.51100000000E-03 0. -1.
         11   -1    0    0    0    0 -0.00000000000E+00 -0.00000000000E+00 -0.45593999997E+02  0.45594000000E+02  0.51100000000E-03 0.  1.
    9900012    2    1    2    0    0  0.16398944512E+00 -0.65516770031E+00 -0.96796339995E+00  0.90007707495E+02  0.89999968434E+02 0.  0.
        -12    1    1    2    0    0 -0.16398944512E+00  0.65516770031E+00  0.96796339995E+00  0.11802925050E+01  0.00000000000E+00 0.  1.
         11    1    3    3    0    0 -0.25892016581E+02 -0.14027719560E+02 -0.23018246002E+02  0.37376638264E+02  0.51100000000E-03 0. -1.
        -11    1    3    3    0    0 -0.97342255524E+01  0.45366755005E+01  0.69582102458E+01  0.12796611340E+02  0.51100000000E-03 0.  1.
        -12    1    3    3    0    0  0.35790231578E+02  0.88358763590E+01  0.15092072356E+02  0.39834457891E+02  0.00000000000E+00 0.  1.
</event>
<event>
 7    1  0.2294706E-015  0.9000777E+02  0.7816164E-02  0.1186339E+00
        -11   -1    0    0    0    0  0.00000000000E+00  0.00000000000E+00  0.45593999997E+02  0.45594000000E+02  0.51100000000E-03 0.  1.
         11   -1    0    0    0    0 -0.00000000000E+00 -0.00000000000E+00 -0.45593999997E+02  0.45594000000E+02  0.51100000000E-03 0. -1.
    9900012    2    1    2    0    0  0.96417216304E+00  0.50060883443E+00 -0.46120603347E+00  0.90007767747E+02  0.90000029482E+02 0.  0.
        -12    1    1    2    0    0 -0.96417216304E+00 -0.50060883443E+00  0.46120603347E+00  0.11802322527E+01  0.00000000000E+00 0.  1.
         11    1    3    3    0    0 -0.33514636181E+02 -0.65148371831E+01 -0.11524368209E+02  0.36034497426E+02  0.51100000000E-03 0. -1.
        -11    1    3    3    0    0 -0.58381602111E+01  0.55585979251E+01 -0.61219681018E+01  0.10122283302E+02  0.51100000000E-03 0.  1.
        -12    1    3    3    0    0  0.40316968555E+02  0.14568480924E+01  0.17185130278E+02  0.43850987019E+02  0.00000000000E+00 0.  1.
</event>
<event>
 7    1  0.2294706E-015  0.9000773E+02  0.7816164E-02  0.1186339E+00
        -11   -1    0    0    0    0  0.00000000000E+00  0.00000000000E+00  0.45593999997E+02  0.45594000000E+02  0.51100000000E-03 0. -1.
         11   -1    0    0    0    0 -0.00000000000E+00 -0.00000000000E+00 -0.45593999997E+02  0.45594000000E+02  0.51100000000E-03 0.  1.
    9900012    2    1    2    0    0  0.10177680896E+01 -0.10569527206E+00  0.58822138432E+00  0.90007734025E+02  0.89999995314E+02 0.  0.
        -12    1    1    2    0    0 -0.10177680896E+01  0.10569527206E+00 -0.58822138432E+00  0.11802659750E+01  0.00000000000E+00 0.  1.
         11    1    3    3    0    0 -0.35511546652E+02 -0.92224756442E+01  0.40299158785E+01  0.36910218434E+02  0.51100000000E-03 0. -1.
        -11    1    3    3    0    0 -0.37225564468E+01 -0.76145626728E+01  0.30872933009E+01  0.90205527205E+01  0.51100000000E-03 0.  1.
        -12    1    3    3    0    0  0.40251871188E+02  0.16731343045E+02 -0.65289877951E+01  0.44076962870E+02  0.00000000000E+00 0.  1.
</event>
<event>
 7    1  0.2948372E-015  0.9000776E+02  0.7816164E-02  0.1186339E+00
        -11   -1    0    0    0    0  0.00000000000E+00  0.00000000000E+00  0.45593999997E+02  0.45594000000E+02  0.51100000000E-03 0.  1.
         11   -1    0    0    0    0 -0.00000000000E+00 -0.00000000000E+00 -0.45593999997E+02  0.45594000000E+02  0.51100000000E-03 0. -1.
    9900012    2    1    2    0    0 -0.26163955371E+00  0.95694728767E+00 -0.63933809824E+00  0.90007764188E+02  0.90000025876E+02 0.  0.
        -12    1    1    2    0    0  0.26163955371E+00 -0.95694728767E+00  0.63933809824E+00  0.11802358117E+01  0.00000000000E+00 0.  1.
         11    1    3    3    0    0 -0.21882009517E+02 -0.25440080733E+02 -0.16988002582E+02  0.37611331806E+02  0.51100000000E-03 0. -1.
        -11    1    3    3    0    0 -0.95145504817E+01  0.12301937976E+01  0.15700259681E+01  0.97213697311E+01  0.51100000000E-03 0.  1.
        -12    1    3    3    0    0  0.31134920445E+02  0.25166834223E+02  0.14778638516E+02  0.42675062651E+02  0.00000000000E+00 0.  1.
</event>
<event>
 7    1  0.2577965E-015  0.9000752E+02  0.7816164E-02  0.1186339E+00
        -11   -1    0    0    0    0  0.00000000000E+00  0.00000000000E+00  0.45593999997E+02  0.45594000000E+02  0.51100000000E-03 0.  1.
         11   -1    0    0    0    0 -0.00000000000E+00 -0.00000000000E+00 -0.45593999997E+02  0.45594000000E+02  0.51100000000E-03 0. -1.
    9900012    2    1    2    0    0  0.10786442978E+01  0.38468184856E+00  0.28648011514E+00  0.90007523612E+02  0.89999782124E+02 0.  0.
        -12    1    1    2    0    0 -0.10786442978E+01 -0.38468184856E+00 -0.28648011514E+00  0.11804763878E+01  0.00000000000E+00 0.  1.
         11    1    3    3    0    0  0.10193498025E+02 -0.51659203700E+00 -0.39468702450E+02  0.40767054623E+02  0.51100000000E-03 0. -1.
        -11    1    3    3    0    0 -0.94785433472E+01  0.74177659668E+00  0.24253399427E-01  0.95075551533E+01  0.51100000000E-03 0.  1.
        -12    1    3    3    0    0  0.36368961958E+00  0.15949728888E+00  0.39730929165E+02  0.39732913836E+02  0.00000000000E+00 0.  1.
</event>
<event>
 7    1  0.2294706E-015  0.9000776E+02  0.7816164E-02  0.1186339E+00
        -11   -1    0    0    0    0  0.00000000000E+00  0.00000000000E+00  0.45593999997E+02  0.45594000000E+02  0.51100000000E-03 0. -1.
         11   -1    0    0    0    0 -0.00000000000E+00 -0.00000000000E+00 -0.45593999997E+02  0.45594000000E+02  0.51100000000E-03 0.  1.
    9900012    2    1    2    0    0  0.76042299650E+00  0.90200736258E+00 -0.33280465579E-01  0.90007759344E+02  0.90000020968E+02 0.  0.
        -12    1    1    2    0    0 -0.76042299650E+00 -0.90200736258E+00  0.33280465579E-01  0.11802406556E+01  0.00000000000E+00 0.  1.
         11    1    3    3    0    0  0.28438116845E+01 -0.23397225675E+01  0.96170166285E+01  0.10297988914E+02  0.51100000000E-03 0. -1.
        -11    1    3    3    0    0  0.31080114086E+02 -0.17148304784E+02 -0.18141501756E+02  0.39864168558E+02  0.51100000000E-03 0.  1.
         12    1    3    3    0    0 -0.33163502774E+02  0.20390034714E+02  0.84912046617E+01  0.39845601872E+02  0.00000000000E+00 0. -1.
</event>
<event>
 7    1  0.2294706E-015  0.9000774E+02  0.7816164E-02  0.1186339E+00
        -11   -1    0    0    0    0  0.00000000000E+00  0.00000000000E+00  0.45593999997E+02  0.45594000000E+02  0.51100000000E-03 0. -1.
         11   -1    0    0    0    0 -0.00000000000E+00 -0.00000000000E+00 -0.45593999997E+02  0.45594000000E+02  0.51100000000E-03 0.  1.
    9900012    2    1    2    0    0 -0.14462012188E+00 -0.11093105441E-01  0.11713095351E+01  0.90007744069E+02  0.90000005490E+02 0.  0.
        -12    1    1    2    0    0  0.14462012188E+00  0.11093105441E-01 -0.11713095351E+01  0.11802559314E+01  0.00000000000E+00 0.  1.
         11    1    3    3    0    0 -0.95786849334E+01 -0.13503544036E+01  0.12691237299E+01  0.97562973187E+01  0.51100000000E-03 0. -1.
        -11    1    3    3    0    0 -0.36759096344E+01 -0.29914356782E+01 -0.38837159557E+02  0.39125259894E+02  0.51100000000E-03 0.  1.
         12    1    3    3    0    0  0.13109974446E+02  0.43306969764E+01  0.38739345362E+02  0.41126186856E+02  0.00000000000E+00 0. -1.
</event>
<event>
 7    1  0.2294706E-015  0.9000777E+02  0.7816164E-02  0.1186339E+00
        -11   -1    0    0    0    0  0.00000000000E+00  0.00000000000E+00  0.45593999997E+02  0.45594000000E+02  0.51100000000E-03 0. -1.
         11   -1    0    0    0    0 -0.00000000000E+00 -0.00000000000E+00 -0.45593999997E+02  0.45594000000E+02  0.51100000000E-03 0.  1.
    9900012    2    1    2    0    0 -0.81522976363E+00 -0.57745209122E+00 -0.62841260549E+00  0.90007765749E+02  0.90000027457E+02 0.  0.
        -12    1    1    2    0    0  0.81522976363E+00  0.57745209122E+00  0.62841260549E+00  0.11802342513E+01  0.00000000000E+00 0.  1.
         11    1    3    3    0    0  0.19330828683E+01  0.48736605926E+01  0.82151599359E+01  0.97456775024E+01  0.51100000000E-03 0. -1.
        -11    1    3    3    0    0 -0.22939451334E+02 -0.31799416210E+02 -0.21521912966E+02  0.44728224163E+02  0.51100000000E-03 0.  1.
         12    1    3    3    0    0  0.20191138702E+02  0.26348303526E+02  0.12678340424E+02  0.35533864083E+02  0.00000000000E+00 0. -1.
</event>
<event>
 7    1  0.2294706E-015  0.9000776E+02  0.7816164E-02  0.1186339E+00
        -11   -1    0    0    0    0  0.00000000000E+00  0.00000000000E+00  0.45593999997E+02  0.45594000000E+02  0.51100000000E-03 0. -1.
         11   -1    0    0    0    0 -0.00000000000E+00 -0.00000000000E+00 -0.45593999997E+02  0.45594000000E+02  0.51100000000E-03 0.  1.
    9900012    2    1    2    0    0  0.65927772506E+00 -0.91611844348E+00 -0.34504346396E+00  0.90007756333E+02  0.90000017917E+02 0.  0.
        -12    1    1    2    0    0 -0.65927772506E+00  0.91611844348E+00  0.34504346396E+00  0.11802436669E+01  0.00000000000E+00 0.  1.
         11    1    3    3    0    0  0.29369978616E+02  0.18011518940E+01  0.20018726843E+02  0.35589172746E+02  0.51100000000E-03 0. -1.
        -11    1    3    3    0    0  0.30368871308E+01  0.52191073428E+01  0.87409454209E+01  0.10623836031E+02  0.51100000000E-03 0.  1.
        -12    1    3    3    0    0 -0.31747588022E+02 -0.79363776803E+01 -0.29104715728E+02  0.43794747556E+02  0.00000000000E+00 0.  1.
</event>
<event>
 7    1  0.2294706E-015  0.9000769E+02  0.7816164E-02  0.1186339E+00
        -11   -1    0    0    0    0  0.00000000000E+00  0.00000000000E+00  0.45593999997E+02  0.45594000000E+02  0.51100000000E-03 0. -1.
         11   -1    0    0    0    0 -0.00000000000E+00 -0.00000000000E+00 -0.45593999997E+02  0.45594000000E+02  0.51100000000E-03 0.  1.
    9900012    2    1    2    0    0  0.22113185722E-01 -0.84085134372E+00  0.82801214026E+00  0.90007693226E+02  0.89999953977E+02 0.  0.
        -12    1    1    2    0    0 -0.22113185722E-01  0.84085134372E+00 -0.82801214026E+00  0.11803067735E+01  0.00000000000E+00 0.  1.
         11    1    3    3    0    0  0.44007808225E+01  0.59508178186E+01 -0.38862202432E+01  0.83595342333E+01  0.51100000000E-03 0. -1.
        -11    1    3    3    0    0 -0.43534276300E+01  0.32708981754E+02 -0.16411244654E+02  0.36853205707E+02  0.51100000000E-03 0.  1.
         12    1    3    3    0    0 -0.25240006821E-01 -0.39500650916E+02  0.21125477038E+02  0.44794953286E+02  0.00000000000E+00 0. -1.
</event>
<event>
 7    1  0.2294706E-015  0.9000763E+02  0.7816164E-02  0.1186339E+00
        -11   -1    0    0    0    0  0.00000000000E+00  0.00000000000E+00  0.45593999997E+02  0.45594000000E+02  0.51100000000E-03 0.  1.
         11   -1    0    0    0    0 -0.00000000000E+00 -0.00000000000E+00 -0.45593999997E+02  0.45594000000E+02  0.51100000000E-03 0. -1.
    9900012    2    1    2    0    0 -0.10176093732E+01 -0.59533528718E+00  0.57552237807E-01  0.90007633447E+02  0.89999893408E+02 0.  0.
        -12    1    1    2    0    0  0.10176093732E+01  0.59533528718E+00 -0.57552237807E-01  0.11803665535E+01  0.00000000000E+00 0.  1.
         11    1    3    3    0    0  0.11522052487E+02 -0.38046904587E+02 -0.53835706025E+01  0.40116174729E+02  0.51100000000E-03 0. -1.
        -11    1    3    3    0    0  0.40341077016E+01  0.31381731510E+01 -0.79921118209E+01  0.94866225440E+01  0.51100000000E-03 0.  1.
        -12    1    3    3    0    0 -0.16573769561E+02  0.34313396149E+02  0.13433234661E+02  0.40404836174E+02  0.00000000000E+00 0.  1.
</event>
<event>
 7    1  0.2294706E-015  0.9000753E+02  0.7816164E-02  0.1186339E+00
        -11   -1    0    0    0    0  0.00000000000E+00  0.00000000000E+00  0.45593999997E+02  0.45594000000E+02  0.51100000000E-03 0.  1.
         11   -1    0    0    0    0 -0.00000000000E+00 -0.00000000000E+00 -0.45593999997E+02  0.45594000000E+02  0.51100000000E-03 0. -1.
    9900012    2    1    2    0    0 -0.51665785353E+00 -0.10270688288E+01 -0.26777468725E+00  0.90007530178E+02  0.89999788776E+02 0.  0.
        -12    1    1    2    0    0  0.51665785353E+00  0.10270688288E+01  0.26777468725E+00  0.11804698217E+01  0.00000000000E+00 0.  1.
         11    1    3    3    0    0 -0.62161790087E+01 -0.26820952881E+02 -0.16940579641E+02  0.32326268478E+02  0.51100000000E-03 0. -1.
        -11    1    3    3    0    0  0.70048299371E+01 -0.13697496107E+02  0.19200350241E+01  0.15504050336E+02  0.51100000000E-03 0.  1.
        -12    1    3    3    0    0 -0.13053087819E+01  0.39491380159E+02  0.14752769930E+02  0.42177211364E+02  0.00000000000E+00 0.  1.
</event>
<event>
 7    1  0.2718860E-015  0.9000798E+02  0.7816164E-02  0.1186339E+00
        -11   -1    0    0    0    0  0.00000000000E+00  0.00000000000E+00  0.45593999997E+02  0.45594000000E+02  0.51100000000E-03 0. -1.
         11   -1    0    0    0    0 -0.00000000000E+00 -0.00000000000E+00 -0.45593999997E+02  0.45594000000E+02  0.51100000000E-03 0.  1.
    9900012    2    1    2    0    0  0.63293501581E+00  0.50044128398E+00  0.86103873386E+00  0.90007984782E+02  0.90000249381E+02 0.  0.
        -12    1    1    2    0    0 -0.63293501581E+00 -0.50044128398E+00 -0.86103873386E+00  0.11800152178E+01  0.00000000000E+00 0.  1.
         11    1    3    3    0    0 -0.10537661038E+02  0.20539386764E+02  0.29545337608E+02  0.37494475372E+02  0.51100000000E-03 0. -1.
        -11    1    3    3    0    0  0.41453956197E+01  0.21816886485E+01  0.78721444732E+01  0.91604982982E+01  0.51100000000E-03 0.  1.
        -12    1    3    3    0    0  0.70252004343E+01 -0.22220634129E+02 -0.36556443348E+02  0.43353011112E+02  0.00000000000E+00 0.  1.
</event>
<event>
 7    1  0.2294706E-015  0.9000770E+02  0.7816164E-02  0.1186339E+00
        -11   -1    0    0    0    0  0.00000000000E+00  0.00000000000E+00  0.45593999997E+02  0.45594000000E+02  0.51100000000E-03 0.  1.
         11   -1    0    0    0    0 -0.00000000000E+00 -0.00000000000E+00 -0.45593999997E+02  0.45594000000E+02  0.51100000000E-03 0. -1.
    9900012    2    1    2    0    0 -0.61516601585E+00  0.96227748598E+00 -0.29781297066E+00  0.90007703532E+02  0.89999964419E+02 0.  0.
        -12    1    1    2    0    0  0.61516601585E+00 -0.96227748598E+00  0.29781297066E+00  0.11802964681E+01  0.00000000000E+00 0.  1.
         11    1    3    3    0    0 -0.24652882978E+01  0.19342677204E+02 -0.20239281961E+02  0.28104187274E+02  0.51100000000E-03 0. -1.
        -11    1    3    3    0    0 -0.15732108921E+02 -0.10400811457E+02 -0.13565547244E+02  0.23231448563E+02  0.51100000000E-03 0.  1.
        -12    1    3    3    0    0  0.17582231203E+02 -0.79795882611E+01  0.33507016234E+02  0.38672067695E+02  0.00000000000E+00 0.  1.
</event>
<event>
 7    1  0.2294706E-015  0.9000771E+02  0.7816164E-02  0.1186339E+00
        -11   -1    0    0    0    0  0.00000000000E+00  0.00000000000E+00  0.45593999997E+02  0.45594000000E+02  0.51100000000E-03 0.  1.
         11   -1    0    0    0    0 -0.00000000000E+00 -0.00000000000E+00 -0.45593999997E+02  0.45594000000E+02  0.51100000000E-03 0. -1.
    9900012    2    1    2    0    0  0.10121786170E+01  0.44123598796E+00 -0.41701329739E+00  0.90007705613E+02  0.89999966527E+02 0.  0.
        -12    1    1    2    0    0 -0.10121786170E+01 -0.44123598796E+00  0.41701329739E+00  0.11802943870E+01  0.00000000000E+00 0.  1.
         11    1    3    3    0    0  0.19150514855E+02 -0.31676410331E+02  0.10483347433E+02  0.38471258939E+02  0.51100000000E-03 0. -1.
        -11    1    3    3    0    0 -0.43520040387E+01 -0.66942486033E+01  0.22584508723E+01  0.82978011617E+01  0.51100000000E-03 0.  1.
        -12    1    3    3    0    0 -0.13786332199E+02  0.38811894922E+02 -0.13158811602E+02  0.43238645513E+02  0.00000000000E+00 0.  1.
</event>
<event>
 7    1  0.2492907E-015  0.9000785E+02  0.7816164E-02  0.1186339E+00
        -11   -1    0    0    0    0  0.00000000000E+00  0.00000000000E+00  0.45593999997E+02  0.45594000000E+02  0.51100000000E-03 0.  1.
         11   -1    0    0    0    0 -0.00000000000E+00 -0.00000000000E+00 -0.45593999997E+02  0.45594000000E+02  0.51100000000E-03 0. -1.
    9900012    2    1    2    0    0  0.26147799802E+00  0.10740903582E+01 -0.41318229821E+00  0.90007847276E+02  0.90000110060E+02 0.  0.
        -12    1    1    2    0    0 -0.26147799802E+00 -0.10740903582E+01  0.41318229821E+00  0.11801527242E+01  0.00000000000E+00 0.  1.
         11    1    3    3    0    0  0.14215693620E+02  0.69309486804E+01 -0.32442412216E+02  0.36092022739E+02  0.51100000000E-03 0. -1.
        -11    1    3    3    0    0  0.21943278966E+01  0.85135333653E+01 -0.56680211749E+01  0.10460487062E+02  0.51100000000E-03 0.  1.
        -12    1    3    3    0    0 -0.16148543519E+02 -0.14370391687E+02  0.37697251093E+02  0.43455337474E+02  0.00000000000E+00 0.  1.
</event>
<event>
 7    1  0.2294706E-015  0.9000768E+02  0.7816164E-02  0.1186339E+00
        -11   -1    0    0    0    0  0.00000000000E+00  0.00000000000E+00  0.45593999997E+02  0.45594000000E+02  0.51100000000E-03 0. -1.
         11   -1    0    0    0    0 -0.00000000000E+00 -0.00000000000E+00 -0.45593999997E+02  0.45594000000E+02  0.51100000000E-03 0.  1.
    9900012    2    1    2    0    0 -0.12785973093E+00  0.10544513381E+01 -0.51472723948E+00  0.90007678067E+02  0.89999938617E+02 0.  0.
        -12    1    1    2    0    0  0.12785973093E+00 -0.10544513381E+01  0.51472723948E+00  0.11803219333E+01  0.00000000000E+00 0.  1.
         11    1    3    3    0    0 -0.29777106654E+02 -0.28527309258E+02 -0.12356776999E+01  0.41255428174E+02  0.51100000000E-03 0. -1.
        -11    1    3    3    0    0  0.89976679953E+01 -0.13895435026E+01  0.63553670696E+01  0.11103132502E+02  0.51100000000E-03 0.  1.
        -12    1    3    3    0    0  0.20651578928E+02  0.30971304098E+02 -0.56344166092E+01  0.37649117391E+02  0.00000000000E+00 0.  1.
</event>
<event>
 7    1  0.2294706E-015  0.9000782E+02  0.7816164E-02  0.1186339E+00
        -11   -1    0    0    0    0  0.00000000000E+00  0.00000000000E+00  0.45593999997E+02  0.45594000000E+02  0.51100000000E-03 0.  1.
         11   -1    0    0    0    0 -0.00000000000E+00 -0.00000000000E+00 -0.45593999997E+02  0.45594000000E+02  0.51100000000E-03 0. -1.
    9900012    2    1    2    0    0 -0.85499814063E+00 -0.22433178317E+00 -0.78196509728E+00  0.90007823749E+02  0.90000086223E+02 0.  0.
        -12    1    1    2    0    0  0.85499814063E+00  0.22433178317E+00  0.78196509728E+00  0.11801762507E+01  0.00000000000E+00 0.  1.
         11    1    3    3    0    0  0.13117036828E+02  0.28723715723E+02 -0.73918602127E+01  0.32430666008E+02  0.51100000000E-03 0. -1.
        -11    1    3    3    0    0  0.94046786493E+01  0.60504232585E+01 -0.71784234888E+01  0.13288542665E+02  0.51100000000E-03 0.  1.
        -12    1    3    3    0    0 -0.23376713618E+02 -0.34998470765E+02  0.13788318604E+02  0.44288615076E+02  0.00000000000E+00 0.  1.
</event>
<event>
 7    1  0.2294706E-015  0.9000774E+02  0.7816164E-02  0.1186339E+00
        -11   -1    0    0    0    0  0.00000000000E+00  0.00000000000E+00  0.45593999997E+02  0.45594000000E+02  0.51100000000E-03 0. -1.
         11   -1    0    0    0    0 -0.00000000000E+00 -0.00000000000E+00 -0.45593999997E+02  0.45594000000E+02  0.51100000000E-03 0.  1.
    9900012    2    1    2    0    0 -0.11512263189E+01  0.96495442335E-01  0.24160253749E+00  0.90007743590E+02  0.90000005005E+02 0.  0.
        -12    1    1    2    0    0  0.11512263189E+01 -0.96495442335E-01 -0.24160253749E+00  0.11802564102E+01  0.00000000000E+00 0.  1.
         11    1    3    3    0    0  0.10635169933E+02  0.30840734213E+02  0.18353332327E+02  0.37431304200E+02  0.51100000000E-03 0. -1.
        -11    1    3    3    0    0 -0.71470589417E+01  0.44759381311E+01  0.53655151355E+01  0.99951601588E+01  0.51100000000E-03 0.  1.
        -12    1    3    3    0    0 -0.46393373105E+01 -0.35220176902E+02 -0.23477244925E+02  0.42581279231E+02  0.00000000000E+00 0.  1.
</event>
<event>
 7    1  0.2294706E-015  0.9000773E+02  0.7816164E-02  0.1186339E+00
        -11   -1    0    0    0    0  0.00000000000E+00  0.00000000000E+00  0.45593999997E+02  0.45594000000E+02  0.51100000000E-03 0.  1.
         11   -1    0    0    0    0 -0.00000000000E+00 -0.00000000000E+00 -0.45593999997E+02  0.45594000000E+02  0.51100000000E-03 0. -1.
    9900012    2    1    2    0    0 -0.74638945916E+00  0.85481968914E+00 -0.32437400266E+00  0.90007732056E+02  0.89999993319E+02 0.  0.
        -12    1    1    2    0    0  0.74638945916E+00 -0.85481968914E+00  0.32437400266E+00  0.11802679439E+01  0.00000000000E+00 0.  1.
         11    1    3    3    0    0 -0.16019003863E+02 -0.19164156243E+01 -0.36656590115E+02  0.40049803155E+02  0.51100000000E-03 0. -1.
        -11    1    3    3    0    0 -0.52536294564E+01 -0.31942542578E+01 -0.16570056680E+01  0.63678529171E+01  0.51100000000E-03 0.  1.
        -12    1    3    3    0    0  0.20526243860E+02  0.59654895713E+01  0.37989221781E+02  0.43590075984E+02  0.00000000000E+00 0.  1.
</event>
<event>
 7    1  0.2294706E-015  0.9000768E+02  0.7816164E-02  0.1186339E+00
        -11   -1    0    0    0    0  0.00000000000E+00  0.00000000000E+00  0.45593999997E+02  0.45594000000E+02  0.51100000000E-03 0. -1.
         11   -1    0    0    0    0 -0.00000000000E+00 -0.00000000000E+00 -0.45593999997E+02  0.45594000000E+02  0.51100000000E-03 0.  1.
    9900012    2    1    2    0    0  0.15321442948E+00 -0.23388249962E+00  0.11467280866E+01  0.90007677591E+02  0.89999938135E+02 0.  0.
        -12    1    1    2    0    0 -0.15321442948E+00  0.23388249962E+00 -0.11467280866E+01  0.11803224092E+01  0.00000000000E+00 0.  1.
         11    1    3    3    0    0 -0.86027364226E+01  0.24877174866E+01  0.40560964043E+01  0.98309577637E+01  0.51100000000E-03 0. -1.
        -11    1    3    3    0    0 -0.32728491885E+02  0.12555560469E+02 -0.71153806115E+01  0.35769049767E+02  0.51100000000E-03 0.  1.
         12    1    3    3    0    0  0.41484442737E+02 -0.15277160455E+02  0.42060122938E+01  0.44407670060E+02  0.00000000000E+00 0. -1.
</event>
<event>
 7    1  0.2294706E-015  0.9000780E+02  0.7816164E-02  0.1186339E+00
        -11   -1    0    0    0    0  0.00000000000E+00  0.00000000000E+00  0.45593999997E+02  0.45594000000E+02  0.51100000000E-03 0.  1.
         11   -1    0    0    0    0 -0.00000000000E+00 -0.00000000000E+00 -0.45593999997E+02  0.45594000000E+02  0.51100000000E-03 0. -1.
    9900012    2    1    2    0    0 -0.11414337529E+01  0.12797685590E+00 -0.27132524530E+00  0.90007802357E+02  0.90000064548E+02 0.  0.
        -12    1    1    2    0    0  0.11414337529E+01 -0.12797685590E+00  0.27132524530E+00  0.11801976430E+01  0.00000000000E+00 0.  1.
         11    1    3    3    0    0 -0.35295425792E+02 -0.11788172318E+02 -0.13750126073E+02  0.39671073287E+02  0.51100000000E-03 0. -1.
        -11    1    3    3    0    0  0.49461333347E+01 -0.15666169508E+01 -0.94853563422E+01  0.10811591411E+02  0.51100000000E-03 0.  1.
        -12    1    3    3    0    0  0.29207858704E+02  0.13482766125E+02  0.22964157170E+02  0.39525137659E+02  0.00000000000E+00 0.  1.
</event>
<event>
 7    1  0.2294706E-015  0.9000776E+02  0.7816164E-02  0.1186339E+00
        -11   -1    0    0    0    0  0.00000000000E+00  0.00000000000E+00  0.45593999997E+02  0.45594000000E+02  0.51100000000E-03 0.  1.
         11   -1    0    0    0    0 -0.00000000000E+00 -0.00000000000E+00 -0.45593999997E+02  0.45594000000E+02  0.51100000000E-03 0. -1.
    9900012    2    1    2    0    0  0.66840159076E+00  0.71037176318E+00 -0.66451361376E+00  0.90007759740E+02  0.90000021369E+02 0.  0.
        -12    1    1    2    0    0 -0.66840159076E+00 -0.71037176318E+00  0.66451361376E+00  0.11802402600E+01  0.00000000000E+00 0.  1.
         11    1    3    3    0    0 -0.19176232628E+02  0.35549576644E+02  0.70418523611E+01  0.41001072941E+02  0.51100000000E-03 0. -1.
        -11    1    3    3    0    0  0.11982734883E+02  0.67944776475E+00 -0.24682471205E+01  0.12253155865E+02  0.51100000000E-03 0.  1.
        -12    1    3    3    0    0  0.78618993362E+01 -0.35518652646E+02 -0.52381188543E+01  0.36753530934E+02  0.00000000000E+00 0.  1.
</event>
<event>
 7    1  0.3888509E-015  0.9000819E+02  0.7816164E-02  0.1186338E+00
        -11   -1    0    0    0    0  0.00000000000E+00  0.00000000000E+00  0.45593999997E+02  0.45594000000E+02  0.51100000000E-03 0. -1.
         11   -1    0    0    0    0 -0.00000000000E+00 -0.00000000000E+00 -0.45593999997E+02  0.45594000000E+02  0.51100000000E-03 0.  1.
    9900012    2    1    2    0    0  0.10136206429E+01  0.33542823877E+00  0.50201522482E+00  0.90008187219E+02  0.90000454490E+02 0.  0.
        -12    1    1    2    0    0 -0.10136206429E+01 -0.33542823877E+00 -0.50201522482E+00  0.11798127805E+01  0.00000000000E+00 0.  1.
         11    1    3    3    0    0 -0.92621535952E+00 -0.35419917841E+02  0.13784410162E+02  0.38018921849E+02  0.51100000000E-03 0. -1.
        -11    1    3    3    0    0  0.33564303784E+01 -0.62678166977E+01 -0.60272652708E+01  0.93208946967E+01  0.51100000000E-03 0.  1.
        -12    1    3    3    0    0 -0.14165943760E+01  0.42023162778E+02 -0.72551296662E+01  0.42668370674E+02  0.00000000000E+00 0.  1.
</event>
<event>
 7    1  0.2294706E-015  0.9000747E+02  0.7816164E-02  0.1186340E+00
        -11   -1    0    0    0    0  0.00000000000E+00  0.00000000000E+00  0.45593999997E+02  0.45594000000E+02  0.51100000000E-03 0.  1.
         11   -1    0    0    0    0 -0.00000000000E+00 -0.00000000000E+00 -0.45593999997E+02  0.45594000000E+02  0.51100000000E-03 0. -1.
    9900012    2    1    2    0    0 -0.59943045155E+00 -0.98590483457E+00 -0.24966582820E+00  0.90007466970E+02  0.89999724734E+02 0.  0.
        -12    1    1    2    0    0  0.59943045155E+00  0.98590483457E+00  0.24966582820E+00  0.11805330300E+01  0.00000000000E+00 0.  1.
         11    1    3    3    0    0 -0.13411716159E+02 -0.18231883075E+02 -0.24651111145E+02  0.33465698435E+02  0.51100000000E-03 0. -1.
        -11    1    3    3    0    0 -0.77895759647E+01 -0.93328236091E+01 -0.37112747927E+01  0.12710336387E+02  0.51100000000E-03 0.  1.
        -12    1    3    3    0    0  0.20601861673E+02  0.26578801850E+02  0.28112720110E+02  0.43831432148E+02  0.00000000000E+00 0.  1.
</event>
<event>
 7    1  0.2294706E-015  0.9000778E+02  0.7816164E-02  0.1186339E+00
        -11   -1    0    0    0    0  0.00000000000E+00  0.00000000000E+00  0.45593999997E+02  0.45594000000E+02  0.51100000000E-03 0.  1.
         11   -1    0    0    0    0 -0.00000000000E+00 -0.00000000000E+00 -0.45593999997E+02  0.45594000000E+02  0.51100000000E-03 0. -1.
    9900012    2    1    2    0    0  0.93558307121E+00 -0.23324722003E+00 -0.68059395020E+00  0.90007776261E+02  0.90000038108E+02 0.  0.
        -12    1    1    2    0    0 -0.93558307121E+00  0.23324722003E+00  0.68059395020E+00  0.11802237389E+01  0.00000000000E+00 0.  1.
         11    1    3    3    0    0  0.33185779920E+02 -0.26444094696E+02 -0.11981126003E+02  0.44092329421E+02  0.51100000000E-03 0. -1.
        -11    1    3    3    0    0 -0.78129558168E+01 -0.10135343772E+01  0.12537598465E+01  0.79775588085E+01  0.51100000000E-03 0.  1.
        -12    1    3    3    0    0 -0.24437241032E+02  0.27224381853E+02  0.10046772206E+02  0.37937888032E+02  0.00000000000E+00 0.  1.
</event>
<event>
 7    1  0.2294706E-015  0.9000767E+02  0.7816164E-02  0.1186339E+00
        -11   -1    0    0    0    0  0.00000000000E+00  0.00000000000E+00  0.45593999997E+02  0.45594000000E+02  0.51100000000E-03 0. -1.
         11   -1    0    0    0    0 -0.00000000000E+00 -0.00000000000E+00 -0.45593999997E+02  0.45594000000E+02  0.51100000000E-03 0.  1.
    9900012    2    1    2    0    0 -0.11607232423E+01 -0.21421959934E+00 -0.42614776400E-03  0.90007674340E+02  0.89999934841E+02 0.  0.
        -12    1    1    2    0    0  0.11607232423E+01  0.21421959934E+00  0.42614776401E-03  0.11803256600E+01  0.00000000000E+00 0.  1.
         11    1    3    3    0    0 -0.84046951981E+01 -0.32003109279E+02  0.20924899588E+02  0.39149576345E+02  0.51100000000E-03 0. -1.
        -11    1    3    3    0    0 -0.95836203519E+00 -0.65766807879E+01 -0.57655400366E+01  0.87984453258E+01  0.51100000000E-03 0.  1.
        -12    1    3    3    0    0  0.82023339910E+01  0.38365570468E+02 -0.15159785700E+02  0.42059652670E+02  0.00000000000E+00 0.  1.
</event>
<event>
 7    1  0.2294706E-015  0.9000774E+02  0.7816164E-02  0.1186339E+00
        -11   -1    0    0    0    0  0.00000000000E+00  0.00000000000E+00  0.45593999997E+02  0.45594000000E+02  0.51100000000E-03 0.  1.
         11   -1    0    0    0    0 -0.00000000000E+00 -0.00000000000E+00 -0.45593999997E+02  0.45594000000E+02  0.51100000000E-03 0. -1.
    9900012    2    1    2    0    0  0.87965553706E+00 -0.71734830717E+00 -0.32345181441E+00  0.90007744293E+02  0.90000005718E+02 0.  0.
        -12    1    1    2    0    0 -0.87965553706E+00  0.71734830717E+00  0.32345181441E+00  0.11802557070E+01  0.00000000000E+00 0.  1.
         11    1    3    3    0    0  0.12647893318E+02 -0.29510403696E+02 -0.18968026762E+02  0.37291006572E+02  0.51100000000E-03 0. -1.
        -11    1    3    3    0    0 -0.77998899952E+00 -0.79485084215E+01 -0.31747606417E+01  0.85945491074E+01  0.51100000000E-03 0.  1.
        -12    1    3    3    0    0 -0.10988248782E+02  0.36741563810E+02  0.21819335589E+02  0.44122188613E+02  0.00000000000E+00 0.  1.
</event>
<event>
 7    1  0.2294706E-015  0.9000685E+02  0.7816164E-02  0.1186341E+00
        -11   -1    0    0    0    0  0.00000000000E+00  0.00000000000E+00  0.45593999997E+02  0.45594000000E+02  0.51100000000E-03 0. -1.
         11   -1    0    0    0    0 -0.00000000000E+00 -0.00000000000E+00 -0.45593999997E+02  0.45594000000E+02  0.51100000000E-03 0.  1.
    9900012    2    1    2    0    0  0.49278022496E+00 -0.10229372092E+01  0.32539220007E+00  0.90006850997E+02  0.89999100625E+02 0.  0.
        -12    1    1    2    0    0 -0.49278022496E+00  0.10229372092E+01 -0.32539220007E+00  0.11811490033E+01  0.00000000000E+00 0.  1.
         11    1    3    3    0    0 -0.12918030959E+01 -0.72277454589E+01 -0.21779349874E+01  0.76584894547E+01  0.51100000000E-03 0. -1.
        -11    1    3    3    0    0 -0.15270284588E+02 -0.34741598045E+02  0.71968093261E+00  0.37956266505E+02  0.51100000000E-03 0.  1.
         12    1    3    3    0    0  0.17054867909E+02  0.40946406294E+02  0.17836462548E+01  0.44392095037E+02  0.00000000000E+00 0. -1.
</event>
<event>
 7    1  0.2294706E-015  0.9000785E+02  0.7816164E-02  0.1186339E+00
        -11   -1    0    0    0    0  0.00000000000E+00  0.00000000000E+00  0.45593999997E+02  0.45594000000E+02  0.51100000000E-03 0.  1.
         11   -1    0    0    0    0 -0.00000000000E+00 -0.00000000000E+00 -0.45593999997E+02  0.45594000000E+02  0.51100000000E-03 0. -1.
    9900012    2    1    2    0    0  0.11008555602E+01 -0.99796655585E-01  0.41342547929E+00  0.90007846212E+02  0.90000108982E+02 0.  0.
        -12    1    1    2    0    0 -0.11008555602E+01  0.99796655585E-01 -0.41342547929E+00  0.11801537882E+01  0.00000000000E+00 0.  1.
         11    1    3    3    0    0 -0.97731226158E+01  0.21239731650E+01 -0.35656563460E+02  0.37032630283E+02  0.51100000000E-03 0. -1.
        -11    1    3    3    0    0 -0.21677140904E+01 -0.44441628059E+01 -0.66311335751E+01  0.82717289713E+01  0.51100000000E-03 0.  1.
        -12    1    3    3    0    0  0.13041692266E+02  0.22203929853E+01  0.42701122514E+02  0.44703486957E+02  0.00000000000E+00 0.  1.
</event>
<event>
 7    1  0.2294706E-015  0.9000771E+02  0.7816164E-02  0.1186339E+00
        -11   -1    0    0    0    0  0.00000000000E+00  0.00000000000E+00  0.45593999997E+02  0.45594000000E+02  0.51100000000E-03 0. -1.
         11   -1    0    0    0    0 -0.00000000000E+00 -0.00000000000E+00 -0.45593999997E+02  0.45594000000E+02  0.51100000000E-03 0.  1.
    9900012    2    1    2    0    0  0.29767580708E+00  0.26321735777E+00  0.11113890924E+01  0.90007711909E+02  0.89999972906E+02 0.  0.
        -12    1    1    2    0    0 -0.29767580708E+00 -0.26321735777E+00 -0.11113890924E+01  0.11802880912E+01  0.00000000000E+00 0.  1.
         11    1    3    3    0    0  0.38214897578E+00  0.48109547148E+01  0.77327988977E+01  0.91152346191E+01  0.51100000000E-03 0. -1.
        -11    1    3    3    0    0  0.95540709168E+01  0.35057119071E+02  0.86734395758E+01  0.37356531195E+02  0.51100000000E-03 0.  1.
         12    1    3    3    0    0 -0.96385440855E+01 -0.39604856428E+02 -0.15294849381E+02  0.43535946094E+02  0.00000000000E+00 0. -1.
</event>
<event>
 7    1  0.2294706E-015  0.9000780E+02  0.7816164E-02  0.1186339E+00
        -11   -1    0    0    0    0  0.00000000000E+00  0.00000000000E+00  0.45593999997E+02  0.45594000000E+02  0.51100000000E-03 0. -1.
         11   -1    0    0    0    0 -0.00000000000E+00 -0.00000000000E+00 -0.45593999997E+02  0.45594000000E+02  0.51100000000E-03 0.  1.
    9900012    2    1    2    0    0 -0.11497726714E+01  0.44362152624E-01  0.26255039280E+00  0.90007797515E+02  0.90000059642E+02 0.  0.
        -12    1    1    2    0    0  0.11497726714E+01 -0.44362152624E-01 -0.26255039280E+00  0.11802024849E+01  0.00000000000E+00 0.  1.
         11    1    3    3    0    0  0.95808011845E+01  0.17034126653E+01  0.11741480204E+01  0.98016320009E+01  0.51100000000E-03 0. -1.
        -11    1    3    3    0    0  0.14708159450E+02 -0.35121793891E+02 -0.23250664333E+01  0.38148083762E+02  0.51100000000E-03 0.  1.
         12    1    3    3    0    0 -0.25438733306E+02  0.33462743378E+02  0.14134688057E+01  0.42058081752E+02  0.00000000000E+00 0. -1.
</event>
<event>
 7    1  0.2294706E-015  0.9000774E+02  0.7816164E-02  0.1186339E+00
        -11   -1    0    0    0    0  0.00000000000E+00  0.00000000000E+00  0.45593999997E+02  0.45594000000E+02  0.51100000000E-03 0. -1.
         11   -1    0    0    0    0 -0.00000000000E+00 -0.00000000000E+00 -0.45593999997E+02  0.45594000000E+02  0.51100000000E-03 0.  1.
    9900012    2    1    2    0    0  0.10513456909E+01  0.24220107917E+00  0.47855306731E+00  0.90007744874E+02  0.90000006306E+02 0.  0.
        -12    1    1    2    0    0 -0.10513456909E+01 -0.24220107917E+00 -0.47855306731E+00  0.11802551262E+01  0.00000000000E+00 0.  1.
         11    1    3    3    0    0 -0.35325873491E+02  0.14738847394E+01 -0.26953101065E+01  0.35459193039E+02  0.51100000000E-03 0. -1.
        -11    1    3    3    0    0 -0.68011134881E+01 -0.11412362799E+01 -0.73783787712E+01  0.10099407828E+02  0.51100000000E-03 0.  1.
        -12    1    3    3    0    0  0.43178332670E+02 -0.90447380281E-01  0.10552241945E+02  0.44449144007E+02  0.00000000000E+00 0.  1.
</event>
<event>
 7    1  0.2294706E-015  0.9000775E+02  0.7816164E-02  0.1186339E+00
        -11   -1    0    0    0    0  0.00000000000E+00  0.00000000000E+00  0.45593999997E+02  0.45594000000E+02  0.51100000000E-03 0.  1.
         11   -1    0    0    0    0 -0.00000000000E+00 -0.00000000000E+00 -0.45593999997E+02  0.45594000000E+02  0.51100000000E-03 0. -1.
    9900012    2    1    2    0    0 -0.61872735652E-01  0.32630936894E+00 -0.11325569983E+01  0.90007749436E+02  0.90000010928E+02 0.  0.
        -12    1    1    2    0    0  0.61872735652E-01 -0.32630936894E+00  0.11325569983E+01  0.11802505641E+01  0.00000000000E+00 0.  1.
         11    1    3    3    0    0 -0.35646931997E+02 -0.18662127724E+02  0.81522806218E+01  0.41054091776E+02  0.51100000000E-03 0. -1.
        -11    1    3    3    0    0  0.17139547246E+00  0.21625533403E+01 -0.95009215765E+01  0.97454360817E+01  0.51100000000E-03 0.  1.
        -12    1    3    3    0    0  0.35413663789E+02  0.16825883753E+02  0.21608395641E+00  0.39208221578E+02  0.00000000000E+00 0.  1.
</event>
<event>
 7    1  0.2294706E-015  0.9000736E+02  0.7816164E-02  0.1186340E+00
        -11   -1    0    0    0    0  0.00000000000E+00  0.00000000000E+00  0.45593999997E+02  0.45594000000E+02  0.51100000000E-03 0. -1.
         11   -1    0    0    0    0 -0.00000000000E+00 -0.00000000000E+00 -0.45593999997E+02  0.45594000000E+02  0.51100000000E-03 0.  1.
    9900012    2    1    2    0    0  0.88888743554E+00 -0.36166992367E+00 -0.68773947467E+00  0.90007359669E+02  0.89999616016E+02 0.  0.
        -12    1    1    2    0    0 -0.88888743554E+00  0.36166992367E+00  0.68773947467E+00  0.11806403312E+01  0.00000000000E+00 0.  1.
         11    1    3    3    0    0  0.35148460641E+02 -0.32482765416E+01  0.14404632561E+02  0.38124257703E+02  0.51100000000E-03 0. -1.
        -11    1    3    3    0    0  0.56423686228E+01 -0.48122623455E+01 -0.74901816618E+01  0.10540256835E+02  0.51100000000E-03 0.  1.
        -12    1    3    3    0    0 -0.39901941829E+02  0.76988689634E+01 -0.76021903737E+01  0.41342845131E+02  0.00000000000E+00 0.  1.
</event>
<event>
 7    1  0.2294706E-015  0.9000789E+02  0.7816164E-02  0.1186339E+00
        -11   -1    0    0    0    0  0.00000000000E+00  0.00000000000E+00  0.45593999997E+02  0.45594000000E+02  0.51100000000E-03 0.  1.
         11   -1    0    0    0    0 -0.00000000000E+00 -0.00000000000E+00 -0.45593999997E+02  0.45594000000E+02  0.51100000000E-03 0. -1.
    9900012    2    1    2    0    0 -0.10417985263E+01  0.73946492404E-01 -0.54939902806E+00  0.90007893418E+02  0.90000156811E+02 0.  0.
        -12    1    1    2    0    0  0.10417985263E+01 -0.73946492404E-01  0.54939902806E+00  0.11801065821E+01  0.00000000000E+00 0.  1.
         11    1    3    3    0    0  0.93659050496E+01 -0.39150316557E+02  0.26828668830E+01  0.40344333417E+02  0.51100000000E-03 0. -1.
        -11    1    3    3    0    0  0.45363972886E+01  0.60856068968E+00  0.56943004373E+01  0.73057719787E+01  0.51100000000E-03 0.  1.
        -12    1    3    3    0    0 -0.14944100864E+02  0.38615702359E+02 -0.89265663484E+01  0.42357788022E+02  0.00000000000E+00 0.  1.
</event>
<event>
 7    1  0.2294706E-015  0.9000761E+02  0.7816164E-02  0.1186339E+00
        -11   -1    0    0    0    0  0.00000000000E+00  0.00000000000E+00  0.45593999997E+02  0.45594000000E+02  0.51100000000E-03 0. -1.
         11   -1    0    0    0    0 -0.00000000000E+00 -0.00000000000E+00 -0.45593999997E+02  0.45594000000E+02  0.51100000000E-03 0.  1.
    9900012    2    1    2    0    0 -0.61169211341E+00  0.39592774221E+00  0.92865756138E+00  0.90007605623E+02  0.89999865217E+02 0.  0.
        -12    1    1    2    0    0  0.61169211341E+00 -0.39592774221E+00 -0.92865756138E+00  0.11803943769E+01  0.00000000000E+00 0.  1.
         11    1    3    3    0    0 -0.20391757301E+02  0.18592690950E+02  0.32491772853E+02  0.42628948216E+02  0.51100000000E-03 0. -1.
        -11    1    3    3    0    0 -0.14827257412E+01 -0.24413838601E+01  0.28043143799E+01  0.40028752389E+01  0.51100000000E-03 0.  1.
        -12    1    3    3    0    0  0.21262790929E+02 -0.15755379348E+02 -0.34367429672E+02  0.43375782168E+02  0.00000000000E+00 0.  1.
</event>
<event>
 7    1  0.2294706E-015  0.9000771E+02  0.7816164E-02  0.1186339E+00
        -11   -1    0    0    0    0  0.00000000000E+00  0.00000000000E+00  0.45593999997E+02  0.45594000000E+02  0.51100000000E-03 0. -1.
         11   -1    0    0    0    0 -0.00000000000E+00 -0.00000000000E+00 -0.45593999997E+02  0.45594000000E+02  0.51100000000E-03 0.  1.
    9900012    2    1    2    0    0 -0.59929154821E+00 -0.43128353675E+00  0.92083197887E+00  0.90007708772E+02  0.89999969728E+02 0.  0.
        -12    1    1    2    0    0  0.59929154821E+00  0.43128353675E+00 -0.92083197887E+00  0.11802912277E+01  0.00000000000E+00 0.  1.
         11    1    3    3    0    0  0.33413668605E+01  0.91731152418E+01 -0.31335398556E+01  0.10253284743E+02  0.51100000000E-03 0. -1.
        -11    1    3    3    0    0 -0.12719829009E+02  0.21222133233E+02 -0.25946397931E+02  0.35852315893E+02  0.51100000000E-03 0.  1.
         12    1    3    3    0    0  0.87791706008E+01 -0.30826532012E+02  0.30000769766E+02  0.43902108137E+02  0.00000000000E+00 0. -1.
</event>
<event>
 7    1  0.2294706E-015  0.9000760E+02  0.7816164E-02  0.1186339E+00
        -11   -1    0    0    0    0  0.00000000000E+00  0.00000000000E+00  0.45593999997E+02  0.45594000000E+02  0.51100000000E-03 0. -1.
         11   -1    0    0    0    0 -0.00000000000E+00 -0.00000000000E+00 -0.45593999997E+02  0.45594000000E+02  0.51100000000E-03 0.  1.
    9900012    2    1    2    0    0  0.19830141862E+00 -0.59600933012E-01  0.11620959184E+01  0.90007600641E+02  0.89999860169E+02 0.  0.
        -12    1    1    2    0    0 -0.19830141862E+00  0.59600933012E-01 -0.11620959184E+01  0.11803993593E+01  0.00000000000E+00 0.  1.
         11    1    3    3    0    0  0.24406565114E+01  0.43019144423E+01  0.81239478844E+01  0.95111409181E+01  0.51100000000E-03 0. -1.
        -11    1    3    3    0    0 -0.30983158637E+02  0.23163666779E+02  0.48439582442E+01  0.38986863294E+02  0.51100000000E-03 0.  1.
         12    1    3    3    0    0  0.28740803544E+02 -0.27525182154E+02 -0.11805810210E+02  0.41509596429E+02  0.00000000000E+00 0. -1.
</event>
<event>
 7    1  0.2294706E-015  0.9000805E+02  0.7816164E-02  0.1186338E+00
        -11   -1    0    0    0    0  0.00000000000E+00  0.00000000000E+00  0.45593999997E+02  0.45594000000E+02  0.51100000000E-03 0.  1.
         11   -1    0    0    0    0 -0.00000000000E+00 -0.00000000000E+00 -0.45593999997E+02  0.45594000000E+02  0.51100000000E-03 0. -1.
    9900012    2    1    2    0    0 -0.26729210700E+00  0.83235836543E+00 -0.79246805675E+00  0.90008054603E+02  0.90000320123E+02 0.  0.
        -12    1    1    2    0    0  0.26729210700E+00 -0.83235836543E+00  0.79246805675E+00  0.11799453970E+01  0.00000000000E+00 0.  1.
         11    1    3    3    0    0 -0.80141425678E+01  0.74253509426E+01  0.47663906493E+00  0.10935698550E+02  0.51100000000E-03 0. -1.
        -11    1    3    3    0    0 -0.20831833265E+01  0.35363815211E+02  0.40350722459E+01  0.35654184710E+02  0.51100000000E-03 0.  1.
         12    1    3    3    0    0  0.98300337873E+01 -0.41956807788E+02 -0.53041793676E+01  0.43418171343E+02  0.00000000000E+00 0. -1.
</event>
<event>
 7    1  0.2294706E-015  0.9000787E+02  0.7816164E-02  0.1186339E+00
        -11   -1    0    0    0    0  0.00000000000E+00  0.00000000000E+00  0.45593999997E+02  0.45594000000E+02  0.51100000000E-03 0. -1.
         11   -1    0    0    0    0 -0.00000000000E+00 -0.00000000000E+00 -0.45593999997E+02  0.45594000000E+02  0.51100000000E-03 0.  1.
    9900012    2    1    2    0    0  0.10881123680E-01  0.80035199294E+00  0.86719592962E+00  0.90007868443E+02  0.90000131506E+02 0.  0.
        -12    1    1    2    0    0 -0.10881123680E-01 -0.80035199294E+00 -0.86719592962E+00  0.11801315570E+01  0.00000000000E+00 0.  1.
         11    1    3    3    0    0  0.54472958821E+01 -0.18550288901E+01  0.75263473022E+01  0.94741790455E+01  0.51100000000E-03 0. -1.
        -11    1    3    3    0    0 -0.25047905151E+02  0.28990508694E+02  0.15059075561E+02  0.41165797743E+02  0.51100000000E-03 0.  1.
         12    1    3    3    0    0  0.19611490392E+02 -0.26335127811E+02 -0.21718226933E+02  0.39367891655E+02  0.00000000000E+00 0. -1.
</event>
<event>
 7    1  0.2294706E-015  0.9000880E+02  0.7816164E-02  0.1186337E+00
        -11   -1    0    0    0    0  0.00000000000E+00  0.00000000000E+00  0.45593999997E+02  0.45594000000E+02  0.51100000000E-03 0. -1.
         11   -1    0    0    0    0 -0.00000000000E+00 -0.00000000000E+00 -0.45593999997E+02  0.45594000000E+02  0.51100000000E-03 0.  1.
    9900012    2    1    2    0    0 -0.12622796834E+00 -0.87223593916E+00  0.78344740760E+00  0.90008797357E+02  0.90001072675E+02 0.  0.
        -12    1    1    2    0    0  0.12622796834E+00  0.87223593916E+00 -0.78344740760E+00  0.11792026433E+01  0.00000000000E+00 0.  1.
         11    1    3    3    0    0  0.33531535810E+01  0.68671981649E+01 -0.10147939263E+02  0.12703649913E+02  0.51100000000E-03 0. -1.
        -11    1    3    3    0    0  0.28460418604E+02 -0.26036527209E+02  0.12251182979E+02  0.40472060250E+02  0.51100000000E-03 0.  1.
         12    1    3    3    0    0 -0.31939800153E+02  0.18297093105E+02 -0.13197963093E+01  0.36833087194E+02  0.00000000000E+00 0. -1.
</event>
<event>
 7    1  0.2294706E-015  0.9000773E+02  0.7816164E-02  0.1186339E+00
        -11   -1    0    0    0    0  0.00000000000E+00  0.00000000000E+00  0.45593999997E+02  0.45594000000E+02  0.51100000000E-03 0.  1.
         11   -1    0    0    0    0 -0.00000000000E+00 -0.00000000000E+00 -0.45593999997E+02  0.45594000000E+02  0.51100000000E-03 0. -1.
    9900012    2    1    2    0    0 -0.72714759596E+00 -0.23509314670E+00 -0.89945511120E+00  0.90007732271E+02  0.89999993537E+02 0.  0.
        -12    1    1    2    0    0  0.72714759596E+00  0.23509314670E+00  0.89945511120E+00  0.11802677285E+01  0.00000000000E+00 0.  1.
         11    1    3    3    0    0 -0.32346727482E+00 -0.58244110588E+01 -0.78283722371E+01  0.97627766236E+01  0.51100000000E-03 0. -1.
        -11    1    3    3    0    0  0.32225926568E+02 -0.15870733729E+02 -0.10576986633E+02  0.37446804653E+02  0.51100000000E-03 0.  1.
         12    1    3    3    0    0 -0.32629606889E+02  0.21460051641E+02  0.17505903758E+02  0.42798150995E+02  0.00000000000E+00 0. -1.
</event>
<event>
 7    1  0.2294706E-015  0.9000777E+02  0.7816164E-02  0.1186339E+00
        -11   -1    0    0    0    0  0.00000000000E+00  0.00000000000E+00  0.45593999997E+02  0.45594000000E+02  0.51100000000E-03 0.  1.
         11   -1    0    0    0    0 -0.00000000000E+00 -0.00000000000E+00 -0.45593999997E+02  0.45594000000E+02  0.51100000000E-03 0. -1.
    9900012    2    1    2    0    0  0.17304387338E+00 -0.95264764656E-01 -0.11635868611E+01  0.90007765303E+02  0.90000027005E+02 0.  0.
        -12    1    1    2    0    0 -0.17304387338E+00  0.95264764656E-01  0.11635868611E+01  0.11802346973E+01  0.00000000000E+00 0.  1.
         11    1    3    3    0    0  0.81029738530E+00  0.13708466248E+02 -0.48892876199E+01  0.14576822782E+02  0.51100000000E-03 0. -1.
        -11    1    3    3    0    0 -0.26039940639E+02  0.14900940507E+02  0.17461367945E+02  0.34713339039E+02  0.51100000000E-03 0.  1.
         12    1    3    3    0    0  0.25402687127E+02 -0.28704671519E+02 -0.13735667186E+02  0.40717603482E+02  0.00000000000E+00 0. -1.
</event>
<event>
 7    1  0.2294706E-015  0.9000778E+02  0.7816164E-02  0.1186339E+00
        -11   -1    0    0    0    0  0.00000000000E+00  0.00000000000E+00  0.45593999997E+02  0.45594000000E+02  0.51100000000E-03 0. -1.
         11   -1    0    0    0    0 -0.00000000000E+00 -0.00000000000E+00 -0.45593999997E+02  0.45594000000E+02  0.51100000000E-03 0.  1.
    9900012    2    1    2    0    0 -0.34890568478E+00  0.90707627051E+00 -0.66962739959E+00  0.90007778245E+02  0.90000040118E+02 0.  0.
        -12    1    1    2    0    0  0.34890568478E+00 -0.90707627051E+00  0.66962739959E+00  0.11802217553E+01  0.00000000000E+00 0.  1.
         11    1    3    3    0    0 -0.36637916184E+01  0.18490807999E+01  0.37602251109E+02  0.37825543718E+02  0.51100000000E-03 0. -1.
        -11    1    3    3    0    0  0.66435300485E+01 -0.67121179525E+00  0.52737149991E+01  0.85087653001E+01  0.51100000000E-03 0.  1.
        -12    1    3    3    0    0 -0.33286441149E+01 -0.27079273415E+00 -0.43545593508E+02  0.43673469227E+02  0.00000000000E+00 0.  1.
</event>
<event>
 7    1  0.2294706E-015  0.9000759E+02  0.7816164E-02  0.1186339E+00
        -11   -1    0    0    0    0  0.00000000000E+00  0.00000000000E+00  0.45593999997E+02  0.45594000000E+02  0.51100000000E-03 0. -1.
         11   -1    0    0    0    0 -0.00000000000E+00 -0.00000000000E+00 -0.45593999997E+02  0.45594000000E+02  0.51100000000E-03 0.  1.
    9900012    2    1    2    0    0  0.72810426512E+00 -0.68483510667E+00 -0.62788622879E+00  0.90007586487E+02  0.89999845829E+02 0.  0.
        -12    1    1    2    0    0 -0.72810426512E+00  0.68483510667E+00  0.62788622879E+00  0.11804135125E+01  0.00000000000E+00 0.  1.
         11    1    3    3    0    0 -0.14185382698E+02 -0.22319284220E+02  0.30769093640E+02  0.40572313886E+02  0.51100000000E-03 0. -1.
        -11    1    3    3    0    0 -0.72446818601E+01  0.69810985773E+01 -0.28867112366E+01  0.10466816833E+02  0.51100000000E-03 0.  1.
        -12    1    3    3    0    0  0.22158168823E+02  0.14653350536E+02 -0.28510268632E+02  0.38968455768E+02  0.00000000000E+00 0.  1.
</event>
<event>
 7    1  0.2294706E-015  0.9000784E+02  0.7816164E-02  0.1186339E+00
        -11   -1    0    0    0    0  0.00000000000E+00  0.00000000000E+00  0.45593999997E+02  0.45594000000E+02  0.51100000000E-03 0. -1.
         11   -1    0    0    0    0 -0.00000000000E+00 -0.00000000000E+00 -0.45593999997E+02  0.45594000000E+02  0.51100000000E-03 0.  1.
    9900012    2    1    2    0    0 -0.56424209876E+00 -0.46989214045E+00  0.92391329792E+00  0.90007837489E+02  0.90000100144E+02 0.  0.
        -12    1    1    2    0    0  0.56424209876E+00  0.46989214045E+00 -0.92391329792E+00  0.11801625107E+01  0.00000000000E+00 0.  1.
         11    1    3    3    0    0 -0.94377908993E+01  0.31587253590E+02  0.25893182172E+02  0.41919963856E+02  0.51100000000E-03 0. -1.
        -11    1    3    3    0    0  0.85674129523E+00  0.39581709934E+01 -0.37787335014E+01  0.55389484919E+01  0.51100000000E-03 0.  1.
        -12    1    3    3    0    0  0.80168075053E+01 -0.36015316724E+02 -0.21190535373E+02  0.42548925141E+02  0.00000000000E+00 0.  1.
</event>
<event>
 7    1  0.2294706E-015  0.9000769E+02  0.7816164E-02  0.1186339E+00
        -11   -1    0    0    0    0  0.00000000000E+00  0.00000000000E+00  0.45593999997E+02  0.45594000000E+02  0.51100000000E-03 0. -1.
         11   -1    0    0    0    0 -0.00000000000E+00 -0.00000000000E+00 -0.45593999997E+02  0.45594000000E+02  0.51100000000E-03 0.  1.
    9900012    2    1    2    0    0 -0.24022247088E+00 -0.36592136129E+00  0.10961436549E+01  0.90007688096E+02  0.89999948779E+02 0.  0.
        -12    1    1    2    0    0  0.24022247088E+00  0.36592136129E+00 -0.10961436549E+01  0.11803119039E+01  0.00000000000E+00 0.  1.
         11    1    3    3    0    0 -0.38867112491E+00  0.84423540452E+01 -0.29696740403E+01  0.89578664443E+01  0.51100000000E-03 0. -1.
        -11    1    3    3    0    0  0.49019617731E+01  0.35174618152E+02 -0.50779031771E+01  0.35875731244E+02  0.51100000000E-03 0.  1.
         12    1    3    3    0    0 -0.47535131191E+01 -0.43982893559E+02  0.91437208723E+01  0.45174090408E+02  0.00000000000E+00 0. -1.
</event>
<event>
 7    1  0.2294706E-015  0.9000757E+02  0.7816164E-02  0.1186339E+00
        -11   -1    0    0    0    0  0.00000000000E+00  0.00000000000E+00  0.45593999997E+02  0.45594000000E+02  0.51100000000E-03 0.  1.
         11   -1    0    0    0    0 -0.00000000000E+00 -0.00000000000E+00 -0.45593999997E+02  0.45594000000E+02  0.51100000000E-03 0. -1.
    9900012    2    1    2    0    0  0.68513707219E+00  0.88330905455E+00  0.37916085510E+00  0.90007571837E+02  0.89999830985E+02 0.  0.
        -12    1    1    2    0    0 -0.68513707219E+00 -0.88330905455E+00 -0.37916085510E+00  0.11804281628E+01  0.00000000000E+00 0.  1.
         11    1    3    3    0    0 -0.11853078109E+02  0.21284108508E+02 -0.29720643574E+02  0.38429485950E+02  0.51100000000E-03 0. -1.
        -11    1    3    3    0    0  0.65003125428E+01 -0.19857557927E+00 -0.65915818358E+01  0.92597217439E+01  0.51100000000E-03 0.  1.
        -12    1    3    3    0    0  0.60379026384E+01 -0.20202223875E+02  0.36691386265E+02  0.42318364144E+02  0.00000000000E+00 0.  1.
</event>
<event>
 7    1  0.2294706E-015  0.9000771E+02  0.7816164E-02  0.1186339E+00
        -11   -1    0    0    0    0  0.00000000000E+00  0.00000000000E+00  0.45593999997E+02  0.45594000000E+02  0.51100000000E-03 0.  1.
         11   -1    0    0    0    0 -0.00000000000E+00 -0.00000000000E+00 -0.45593999997E+02  0.45594000000E+02  0.51100000000E-03 0. -1.
    9900012    2    1    2    0    0  0.10932798057E+01  0.11067764094E+00 -0.43077016947E+00  0.90007714775E+02  0.89999975810E+02 0.  0.
        -12    1    1    2    0    0 -0.10932798057E+01 -0.11067764094E+00  0.43077016947E+00  0.11802852252E+01  0.00000000000E+00 0.  1.
         11    1    3    3    0    0  0.78225757731E+01  0.12661581473E+02 -0.86018978822E+01  0.17190142075E+02  0.51100000000E-03 0. -1.
        -11    1    3    3    0    0 -0.13439890597E+01  0.29591455734E+02  0.38216563081E+00  0.29624425899E+02  0.51100000000E-03 0.  1.
         12    1    3    3    0    0 -0.53853069076E+01 -0.42142359565E+02  0.77889620819E+01  0.43193146801E+02  0.00000000000E+00 0. -1.
</event>
<event>
 7    1  0.2294706E-015  0.9000760E+02  0.7816164E-02  0.1186339E+00
        -11   -1    0    0    0    0  0.00000000000E+00  0.00000000000E+00  0.45593999997E+02  0.45594000000E+02  0.51100000000E-03 0.  1.
         11   -1    0    0    0    0 -0.00000000000E+00 -0.00000000000E+00 -0.45593999997E+02  0.45594000000E+02  0.51100000000E-03 0. -1.
    9900012    2    1    2    0    0  0.43661604805E+00 -0.56044515968E+00 -0.94265858373E+00  0.90007602797E+02  0.89999862354E+02 0.  0.
        -12    1    1    2    0    0 -0.43661604805E+00  0.56044515968E+00  0.94265858373E+00  0.11803972026E+01  0.00000000000E+00 0.  1.
         11    1    3    3    0    0  0.13030426679E+02 -0.86408247171E+00 -0.33355268597E+02  0.35820561154E+02  0.51100000000E-03 0. -1.
        -11    1    3    3    0    0  0.31784278280E+01  0.64818384025E+01 -0.77542000751E+01  0.10594538763E+02  0.51100000000E-03 0.  1.
        -12    1    3    3    0    0 -0.15772238459E+02 -0.61782010905E+01  0.40166810088E+02  0.43592502880E+02  0.00000000000E+00 0.  1.
</event>
<event>
 7    1  0.2294706E-015  0.9000783E+02  0.7816164E-02  0.1186339E+00
        -11   -1    0    0    0    0  0.00000000000E+00  0.00000000000E+00  0.45593999997E+02  0.45594000000E+02  0.51100000000E-03 0.  1.
         11   -1    0    0    0    0 -0.00000000000E+00 -0.00000000000E+00 -0.45593999997E+02  0.45594000000E+02  0.51100000000E-03 0. -1.
    9900012    2    1    2    0    0 -0.98758837241E+00  0.16997570477E+00 -0.62335411907E+00  0.90007833532E+02  0.90000096135E+02 0.  0.
        -12    1    1    2    0    0  0.98758837241E+00 -0.16997570477E+00  0.62335411907E+00  0.11801664676E+01  0.00000000000E+00 0.  1.
         11    1    3    3    0    0 -0.32495665553E+01 -0.18001606853E+02 -0.22643291635E+01  0.18432165334E+02  0.51100000000E-03 0. -1.
        -11    1    3    3    0    0  0.30712173826E+02  0.63093072084E+01  0.18538119041E+02  0.36423987102E+02  0.51100000000E-03 0.  1.
         12    1    3    3    0    0 -0.28450195644E+02  0.11862275349E+02 -0.16897143996E+02  0.35151681096E+02  0.00000000000E+00 0. -1.
</event>
<event>
 7    1  0.2294706E-015  0.9000765E+02  0.7816164E-02  0.1186339E+00
        -11   -1    0    0    0    0  0.00000000000E+00  0.00000000000E+00  0.45593999997E+02  0.45594000000E+02  0.51100000000E-03 0. -1.
         11   -1    0    0    0    0 -0.00000000000E+00 -0.00000000000E+00 -0.45593999997E+02  0.45594000000E+02  0.51100000000E-03 0.  1.
    9900012    2    1    2    0    0  0.48456049912E+00  0.17189500754E+00  0.10624876029E+01  0.90007649765E+02  0.89999909942E+02 0.  0.
        -12    1    1    2    0    0 -0.48456049912E+00 -0.17189500754E+00 -0.10624876029E+01  0.11803502350E+01  0.00000000000E+00 0.  1.
         11    1    3    3    0    0 -0.26830078193E+01  0.78639802547E+01 -0.43781253897E+01  0.93919486048E+01  0.51100000000E-03 0. -1.
        -11    1    3    3    0    0  0.22883947410E+02  0.28754858361E+02 -0.68734456570E+01  0.37386644459E+02  0.51100000000E-03 0.  1.
         12    1    3    3    0    0 -0.19716379091E+02 -0.36446943608E+02  0.12314058650E+02  0.43229056701E+02  0.00000000000E+00 0. -1.
</event>
<event>
 7    1  0.2294706E-015  0.9000775E+02  0.7816164E-02  0.1186339E+00
        -11   -1    0    0    0    0  0.00000000000E+00  0.00000000000E+00  0.45593999997E+02  0.45594000000E+02  0.51100000000E-03 0.  1.
         11   -1    0    0    0    0 -0.00000000000E+00 -0.00000000000E+00 -0.45593999997E+02  0.45594000000E+02  0.51100000000E-03 0. -1.
    9900012    2    1    2    0    0 -0.30257569342E+00 -0.96287923785E+00 -0.61179461607E+00  0.90007753785E+02  0.90000015334E+02 0.  0.
        -12    1    1    2    0    0  0.30257569342E+00  0.96287923785E+00  0.61179461607E+00  0.11802462155E+01  0.00000000000E+00 0.  1.
         11    1    3    3    0    0 -0.26659744685E+02  0.31575767359E+02 -0.32272748197E+01  0.41451011737E+02  0.51100000000E-03 0. -1.
        -11    1    3    3    0    0 -0.20816069879E+01 -0.70259543068E+01  0.69582931694E+01  0.10105194984E+02  0.51100000000E-03 0.  1.
        -12    1    3    3    0    0  0.28438775980E+02 -0.25512692290E+02 -0.43428129658E+01  0.38451547063E+02  0.00000000000E+00 0.  1.
</event>
<event>
 7    1  0.2294706E-015  0.9000780E+02  0.7816164E-02  0.1186339E+00
        -11   -1    0    0    0    0  0.00000000000E+00  0.00000000000E+00  0.45593999997E+02  0.45594000000E+02  0.51100000000E-03 0.  1.
         11   -1    0    0    0    0 -0.00000000000E+00 -0.00000000000E+00 -0.45593999997E+02  0.45594000000E+02  0.51100000000E-03 0. -1.
    9900012    2    1    2    0    0 -0.42642344649E+00 -0.58192630977E+00 -0.93402482747E+00  0.90007797660E+02  0.90000059789E+02 0.  0.
        -12    1    1    2    0    0  0.42642344649E+00  0.58192630977E+00  0.93402482747E+00  0.11802023403E+01  0.00000000000E+00 0.  1.
         11    1    3    3    0    0  0.39782198142E+01 -0.29638289673E+02 -0.23130012261E+02  0.37805448220E+02  0.51100000000E-03 0. -1.
        -11    1    3    3    0    0 -0.99236890786E+01 -0.29101432084E+01 -0.33942228429E+01  0.10884359760E+02  0.51100000000E-03 0.  1.
        -12    1    3    3    0    0  0.55190458179E+01  0.31966506572E+02  0.25590210277E+02  0.41317989679E+02  0.00000000000E+00 0.  1.
</event>
<event>
 7    1  0.2294706E-015  0.9000731E+02  0.7816164E-02  0.1186340E+00
        -11   -1    0    0    0    0  0.00000000000E+00  0.00000000000E+00  0.45593999997E+02  0.45594000000E+02  0.51100000000E-03 0. -1.
         11   -1    0    0    0    0 -0.00000000000E+00 -0.00000000000E+00 -0.45593999997E+02  0.45594000000E+02  0.51100000000E-03 0.  1.
    9900012    2    1    2    0    0  0.47152134501E+00 -0.10330022889E+00  0.10775037137E+01  0.90007314788E+02  0.89999570542E+02 0.  0.
        -12    1    1    2    0    0 -0.47152134501E+00  0.10330022889E+00 -0.10775037137E+01  0.11806852117E+01  0.00000000000E+00 0.  1.
         11    1    3    3    0    0  0.43328434698E+01  0.72391373967E+01  0.16946049400E+01  0.86052500804E+01  0.51100000000E-03 0. -1.
        -11    1    3    3    0    0 -0.33151211164E+01  0.36836396439E+02 -0.33416832753E+01  0.37135925705E+02  0.51100000000E-03 0.  1.
         12    1    3    3    0    0 -0.54620100835E+00 -0.44178834065E+02  0.27245820490E+01  0.44266139002E+02  0.00000000000E+00 0. -1.
</event>
<event>
 7    1  0.2294706E-015  0.9000796E+02  0.7816164E-02  0.1186339E+00
        -11   -1    0    0    0    0  0.00000000000E+00  0.00000000000E+00  0.45593999997E+02  0.45594000000E+02  0.51100000000E-03 0.  1.
         11   -1    0    0    0    0 -0.00000000000E+00 -0.00000000000E+00 -0.45593999997E+02  0.45594000000E+02  0.51100000000E-03 0. -1.
    9900012    2    1    2    0    0 -0.76050675884E+00  0.20400711642E+00 -0.87892603169E+00  0.90007957457E+02  0.90000221695E+02 0.  0.
        -12    1    1    2    0    0  0.76050675884E+00 -0.20400711642E+00  0.87892603169E+00  0.11800425429E+01  0.00000000000E+00 0.  1.
         11    1    3    3    0    0  0.27018922496E+02 -0.26281765399E+02  0.78598338997E+01  0.38503640796E+02  0.51100000000E-03 0. -1.
        -11    1    3    3    0    0  0.68010448204E+00 -0.14501391213E+01  0.80699632896E+01  0.82273782783E+01  0.51100000000E-03 0.  1.
        -12    1    3    3    0    0 -0.28459533737E+02  0.27935911637E+02 -0.16808723221E+02  0.43276938383E+02  0.00000000000E+00 0.  1.
</event>
<event>
 7    1  0.2294706E-015  0.9000847E+02  0.7816164E-02  0.1186338E+00
        -11   -1    0    0    0    0  0.00000000000E+00  0.00000000000E+00  0.45593999997E+02  0.45594000000E+02  0.51100000000E-03 0.  1.
         11   -1    0    0    0    0 -0.00000000000E+00 -0.00000000000E+00 -0.45593999997E+02  0.45594000000E+02  0.51100000000E-03 0. -1.
    9900012    2    1    2    0    0 -0.20013860728E+00  0.11577145639E+01 -0.10459339192E+00  0.90008466935E+02  0.90000737896E+02 0.  0.
        -12    1    1    2    0    0  0.20013860728E+00 -0.11577145639E+01  0.10459339192E+00  0.11795330649E+01  0.00000000000E+00 0.  1.
         11    1    3    3    0    0  0.45047620968E+00  0.10576621834E+02  0.42131669276E+01  0.11393798053E+02  0.51100000000E-03 0. -1.
        -11    1    3    3    0    0 -0.35975305554E+02 -0.10797646334E+02  0.12338865217E+02  0.39535545667E+02  0.51100000000E-03 0.  1.
         12    1    3    3    0    0  0.35324690737E+02  0.13787390639E+01 -0.16656625537E+02  0.39079123216E+02  0.00000000000E+00 0. -1.
</event>
<event>
 7    1  0.2294706E-015  0.9000773E+02  0.7816164E-02  0.1186339E+00
        -11   -1    0    0    0    0  0.00000000000E+00  0.00000000000E+00  0.45593999997E+02  0.45594000000E+02  0.51100000000E-03 0.  1.
         11   -1    0    0    0    0 -0.00000000000E+00 -0.00000000000E+00 -0.45593999997E+02  0.45594000000E+02  0.51100000000E-03 0. -1.
    9900012    2    1    2    0    0 -0.50693382213E+00  0.50836746139E+00 -0.93681572779E+00  0.90007727538E+02  0.89999988742E+02 0.  0.
        -12    1    1    2    0    0  0.50693382213E+00 -0.50836746139E+00  0.93681572779E+00  0.11802724616E+01  0.00000000000E+00 0.  1.
         11    1    3    3    0    0 -0.54050759181E+01  0.26484268939E+02  0.21705111378E+02  0.34666168047E+02  0.51100000000E-03 0. -1.
        -11    1    3    3    0    0 -0.55786544407E+01  0.22386904502E+01  0.95420452000E+01  0.11277577185E+02  0.51100000000E-03 0.  1.
        -12    1    3    3    0    0  0.10476796537E+02 -0.28214591928E+02 -0.32183972306E+02  0.44063982306E+02  0.00000000000E+00 0.  1.
</event>
<event>
 7    1  0.2294706E-015  0.9000779E+02  0.7816164E-02  0.1186339E+00
        -11   -1    0    0    0    0  0.00000000000E+00  0.00000000000E+00  0.45593999997E+02  0.45594000000E+02  0.51100000000E-03 0. -1.
         11   -1    0    0    0    0 -0.00000000000E+00 -0.00000000000E+00 -0.45593999997E+02  0.45594000000E+02  0.51100000000E-03 0.  1.
    9900012    2    1    2    0    0  0.10610751386E+01 -0.29884348473E+00  0.42154253405E+00  0.90007794092E+02  0.90000056174E+02 0.  0.
        -12    1    1    2    0    0 -0.10610751386E+01  0.29884348473E+00 -0.42154253405E+00  0.11802059084E+01  0.00000000000E+00 0.  1.
         11    1    3    3    0    0 -0.45479621579E+01 -0.16425620547E+02 -0.62643017674E+00  0.17055127826E+02  0.51100000000E-03 0. -1.
        -11    1    3    3    0    0  0.18890408843E+02 -0.11116737421E+02 -0.24815100102E+02  0.33109191933E+02  0.51100000000E-03 0.  1.
         12    1    3    3    0    0 -0.13281371546E+02  0.27243514483E+02  0.25863072813E+02  0.39843474332E+02  0.00000000000E+00 0. -1.
</event>
<event>
 7    1  0.2294706E-015  0.9000775E+02  0.7816164E-02  0.1186339E+00
        -11   -1    0    0    0    0  0.00000000000E+00  0.00000000000E+00  0.45593999997E+02  0.45594000000E+02  0.51100000000E-03 0. -1.
         11   -1    0    0    0    0 -0.00000000000E+00 -0.00000000000E+00 -0.45593999997E+02  0.45594000000E+02  0.51100000000E-03 0.  1.
    9900012    2    1    2    0    0  0.17681065371E+00 -0.10328240992E+01  0.54314439645E+00  0.90007748560E+02  0.90000010041E+02 0.  0.
        -12    1    1    2    0    0 -0.17681065371E+00  0.10328240992E+01 -0.54314439645E+00  0.11802514404E+01  0.00000000000E+00 0.  1.
         11    1    3    3    0    0 -0.40949023874E+01 -0.78742770830E+01  0.54187127739E+01  0.10398793850E+02  0.51100000000E-03 0. -1.
        -11    1    3    3    0    0 -0.33806485221E+02  0.95084322491E+01 -0.17718452020E+02  0.39334873447E+02  0.51100000000E-03 0.  1.
         12    1    3    3    0    0  0.38078198262E+02 -0.26669792654E+01  0.12842883643E+02  0.40274081263E+02  0.00000000000E+00 0. -1.
</event>
<event>
 7    1  0.2294706E-015  0.9000806E+02  0.7816164E-02  0.1186338E+00
        -11   -1    0    0    0    0  0.00000000000E+00  0.00000000000E+00  0.45593999997E+02  0.45594000000E+02  0.51100000000E-03 0. -1.
         11   -1    0    0    0    0 -0.00000000000E+00 -0.00000000000E+00 -0.45593999997E+02  0.45594000000E+02  0.51100000000E-03 0.  1.
    9900012    2    1    2    0    0 -0.10651159639E+01 -0.50054867435E+00  0.85051373103E-01  0.90008061558E+02  0.90000327170E+02 0.  0.
        -12    1    1    2    0    0  0.10651159639E+01  0.50054867435E+00 -0.85051373103E-01  0.11799384424E+01  0.00000000000E+00 0.  1.
         11    1    3    3    0    0 -0.76425220358E+01 -0.50605852538E+01  0.23496106278E+01  0.94624698965E+01  0.51100000000E-03 0. -1.
        -11    1    3    3    0    0 -0.40726891776E+01 -0.30966176145E+02 -0.22314023950E+02  0.38384977886E+02  0.51100000000E-03 0.  1.
         12    1    3    3    0    0  0.10650095250E+02  0.35526212724E+02  0.20049464696E+02  0.42160613775E+02  0.00000000000E+00 0. -1.
</event>
<event>
 7    1  0.2294706E-015  0.9000701E+02  0.7816164E-02  0.1186340E+00
        -11   -1    0    0    0    0  0.00000000000E+00  0.00000000000E+00  0.45593999997E+02  0.45594000000E+02  0.51100000000E-03 0.  1.
         11   -1    0    0    0    0 -0.00000000000E+00 -0.00000000000E+00 -0.45593999997E+02  0.45594000000E+02  0.51100000000E-03 0. -1.
    9900012    2    1    2    0    0  0.83455928474E-01  0.88303670422E+00  0.77975180149E+00  0.90007012454E+02  0.89999264215E+02 0.  0.
        -12    1    1    2    0    0 -0.83455928474E-01 -0.88303670422E+00 -0.77975180149E+00  0.11809875465E+01  0.00000000000E+00 0.  1.
         11    1    3    3    0    0  0.19636255549E+02 -0.48975973207E+00 -0.38305551773E+02  0.43048085828E+02  0.51100000000E-03 0. -1.
        -11    1    3    3    0    0 -0.62985487636E+01  0.63127477767E+01  0.54019223938E+01  0.10426085883E+02  0.51100000000E-03 0.  1.
        -12    1    3    3    0    0 -0.13254250856E+02 -0.49399513404E+01  0.33683381181E+02  0.36532840743E+02  0.00000000000E+00 0.  1.
</event>
<event>
 7    1  0.2294706E-015  0.9000777E+02  0.7816164E-02  0.1186339E+00
        -11   -1    0    0    0    0  0.00000000000E+00  0.00000000000E+00  0.45593999997E+02  0.45594000000E+02  0.51100000000E-03 0.  1.
         11   -1    0    0    0    0 -0.00000000000E+00 -0.00000000000E+00 -0.45593999997E+02  0.45594000000E+02  0.51100000000E-03 0. -1.
    9900012    2    1    2    0    0  0.48679561989E+00  0.29643622545E+00 -0.10334914988E+01  0.90007767358E+02  0.90000029087E+02 0.  0.
        -12    1    1    2    0    0 -0.48679561989E+00 -0.29643622545E+00  0.10334914988E+01  0.11802326421E+01  0.00000000000E+00 0.  1.
         11    1    3    3    0    0  0.15593637617E+02 -0.17373551136E+02 -0.48033699676E+01  0.23834306713E+02  0.51100000000E-03 0. -1.
        -11    1    3    3    0    0  0.21841731512E+02 -0.52634580112E+01  0.31100330966E+01  0.22681215395E+02  0.51100000000E-03 0.  1.
        -12    1    3    3    0    0 -0.36948573508E+02  0.22933445373E+02  0.65984537220E+00  0.43492245250E+02  0.00000000000E+00 0.  1.
</event>
<event>
 7    1  0.2294706E-015  0.9000775E+02  0.7816164E-02  0.1186339E+00
        -11   -1    0    0    0    0  0.00000000000E+00  0.00000000000E+00  0.45593999997E+02  0.45594000000E+02  0.51100000000E-03 0. -1.
         11   -1    0    0    0    0 -0.00000000000E+00 -0.00000000000E+00 -0.45593999997E+02  0.45594000000E+02  0.51100000000E-03 0.  1.
    9900012    2    1    2    0    0  0.45495850085E+00 -0.10272837304E+01 -0.36151407727E+00  0.90007749379E+02  0.90000010871E+02 0.  0.
        -12    1    1    2    0    0 -0.45495850085E+00  0.10272837304E+01  0.36151407727E+00  0.11802506209E+01  0.00000000000E+00 0.  1.
         11    1    3    3    0    0 -0.19226019401E+01  0.88832287525E+01  0.12601337018E+02  0.15537111900E+02  0.51100000000E-03 0. -1.
        -11    1    3    3    0    0 -0.60505961427E+01  0.26276320028E+02  0.12200991336E+02  0.29595927046E+02  0.51100000000E-03 0.  1.
        -12    1    3    3    0    0  0.84281565837E+01 -0.36186832511E+02 -0.25163842431E+02  0.44874710433E+02  0.00000000000E+00 0.  1.
</event>
<event>
 7    1  0.2294706E-015  0.9000767E+02  0.7816164E-02  0.1186339E+00
        -11   -1    0    0    0    0  0.00000000000E+00  0.00000000000E+00  0.45593999997E+02  0.45594000000E+02  0.51100000000E-03 0.  1.
         11   -1    0    0    0    0 -0.00000000000E+00 -0.00000000000E+00 -0.45593999997E+02  0.45594000000E+02  0.51100000000E-03 0. -1.
    9900012    2    1    2    0    0  0.78560334421E+00 -0.81522013595E+00 -0.33378684695E+00  0.90007673713E+02  0.89999934206E+02 0.  0.
        -12    1    1    2    0    0 -0.78560334421E+00  0.81522013595E+00  0.33378684695E+00  0.11803262870E+01  0.00000000000E+00 0.  1.
         11    1    3    3    0    0 -0.69907896089E+01 -0.39727668671E+01 -0.50211673749E+01  0.94797752085E+01  0.51100000000E-03 0. -1.
        -11    1    3    3    0    0 -0.18311029565E+02 -0.14896425835E+02  0.31241288790E+02  0.39156294921E+02  0.51100000000E-03 0.  1.
         12    1    3    3    0    0  0.26087422518E+02  0.18053972566E+02 -0.26553908262E+02  0.41371603584E+02  0.00000000000E+00 0. -1.
</event>
<event>
 7    1  0.2294706E-015  0.9000778E+02  0.7816164E-02  0.1186339E+00
        -11   -1    0    0    0    0  0.00000000000E+00  0.00000000000E+00  0.45593999997E+02  0.45594000000E+02  0.51100000000E-03 0.  1.
         11   -1    0    0    0    0 -0.00000000000E+00 -0.00000000000E+00 -0.45593999997E+02  0.45594000000E+02  0.51100000000E-03 0. -1.
    9900012    2    1    2    0    0 -0.10984047185E+01 -0.38196000258E+00  0.20130366320E+00  0.90007784115E+02  0.90000046066E+02 0.  0.
        -12    1    1    2    0    0  0.10984047185E+01  0.38196000258E+00 -0.20130366320E+00  0.11802158845E+01  0.00000000000E+00 0.  1.
         11    1    3    3    0    0  0.79439160197E+01 -0.50515595371E+01  0.33909295634E+01  0.10006121079E+02  0.51100000000E-03 0. -1.
        -11    1    3    3    0    0 -0.23120254486E+02 -0.18580298113E+02 -0.29742243004E+02  0.42004460057E+02  0.51100000000E-03 0.  1.
         12    1    3    3    0    0  0.14077933747E+02  0.23249897647E+02  0.26552617104E+02  0.37997202980E+02  0.00000000000E+00 0. -1.
</event>
<event>
 7    1  0.2294706E-015  0.9000773E+02  0.7816164E-02  0.1186339E+00
        -11   -1    0    0    0    0  0.00000000000E+00  0.00000000000E+00  0.45593999997E+02  0.45594000000E+02  0.51100000000E-03 0. -1.
         11   -1    0    0    0    0 -0.00000000000E+00 -0.00000000000E+00 -0.45593999997E+02  0.45594000000E+02  0.51100000000E-03 0.  1.
    9900012    2    1    2    0    0  0.48985103829E+00  0.44904466656E+00  0.97541498778E+00  0.90007733271E+02  0.89999994551E+02 0.  0.
        -12    1    1    2    0    0 -0.48985103829E+00 -0.44904466656E+00 -0.97541498778E+00  0.11802667286E+01  0.00000000000E+00 0.  1.
         11    1    3    3    0    0  0.11988933284E+02 -0.18446275646E+02 -0.28161581334E+02  0.35736175929E+02  0.51100000000E-03 0. -1.
        -11    1    3    3    0    0 -0.40446779084E+01 -0.65986597979E+01 -0.63038534631E+01  0.99819987606E+01  0.51100000000E-03 0.  1.
        -12    1    3    3    0    0 -0.74544043377E+01  0.25493980111E+02  0.35440849785E+02  0.44289558582E+02  0.00000000000E+00 0.  1.
</event>
<event>
 7    1  0.2294706E-015  0.9000746E+02  0.7816164E-02  0.1186340E+00
        -11   -1    0    0    0    0  0.00000000000E+00  0.00000000000E+00  0.45593999997E+02  0.45594000000E+02  0.51100000000E-03 0.  1.
         11   -1    0    0    0    0 -0.00000000000E+00 -0.00000000000E+00 -0.45593999997E+02  0.45594000000E+02  0.51100000000E-03 0. -1.
    9900012    2    1    2    0    0 -0.43192199318E+00  0.14857290386E+00 -0.10886020158E+01  0.90007455691E+02  0.89999713306E+02 0.  0.
        -12    1    1    2    0    0  0.43192199318E+00 -0.14857290386E+00  0.10886020158E+01  0.11805443087E+01  0.00000000000E+00 0.  1.
         11    1    3    3    0    0 -0.81002315701E+01  0.19090930969E+01 -0.33501549488E+01  0.89711719627E+01  0.51100000000E-03 0. -1.
        -11    1    3    3    0    0 -0.13149952415E+02  0.19586656406E+02 -0.29299919201E+02  0.37617065583E+02  0.51100000000E-03 0.  1.
         12    1    3    3    0    0  0.20818261992E+02 -0.21347176599E+02  0.31561472134E+02  0.43419218145E+02  0.00000000000E+00 0. -1.
</event>
<event>
 7    1  0.2294706E-015  0.9000765E+02  0.7816164E-02  0.1186339E+00
        -11   -1    0    0    0    0  0.00000000000E+00  0.00000000000E+00  0.45593999997E+02  0.45594000000E+02  0.51100000000E-03 0.  1.
         11   -1    0    0    0    0 -0.00000000000E+00 -0.00000000000E+00 -0.45593999997E+02  0.45594000000E+02  0.51100000000E-03 0. -1.
    9900012    2    1    2    0    0  0.80619929273E-01 -0.10438524344E+01 -0.54507675966E+00  0.90007645752E+02  0.89999905875E+02 0.  0.
        -12    1    1    2    0    0 -0.80619929273E-01  0.10438524344E+01  0.54507675966E+00  0.11803542484E+01  0.00000000000E+00 0.  1.
         11    1    3    3    0    0 -0.36614263430E+02  0.90500335838E+01 -0.67823495810E+01  0.38321112464E+02  0.51100000000E-03 0. -1.
        -11    1    3    3    0    0 -0.78535219613E+00  0.67455420521E+01 -0.57347868128E+01  0.88885823222E+01  0.51100000000E-03 0.  1.
        -12    1    3    3    0    0  0.37480235555E+02 -0.16839428070E+02  0.11972059634E+02  0.42797950966E+02  0.00000000000E+00 0.  1.
</event>
<event>
 7    1  0.2294706E-015  0.9000777E+02  0.7816164E-02  0.1186339E+00
        -11   -1    0    0    0    0  0.00000000000E+00  0.00000000000E+00  0.45593999997E+02  0.45594000000E+02  0.51100000000E-03 0. -1.
         11   -1    0    0    0    0 -0.00000000000E+00 -0.00000000000E+00 -0.45593999997E+02  0.45594000000E+02  0.51100000000E-03 0.  1.
    9900012    2    1    2    0    0 -0.93473568414E+00 -0.58606395907E-01  0.71817113871E+00  0.90007773203E+02  0.90000035009E+02 0.  0.
        -12    1    1    2    0    0  0.93473568414E+00  0.58606395907E-01 -0.71817113871E+00  0.11802267974E+01  0.00000000000E+00 0.  1.
         11    1    3    3    0    0 -0.11982205833E+02  0.85658548411E+00  0.67974492144E+01  0.13802619730E+02  0.51100000000E-03 0. -1.
        -11    1    3    3    0    0  0.26635352909E+01  0.35419346177E+02 -0.13833638735E+02  0.38118159252E+02  0.51100000000E-03 0.  1.
         12    1    3    3    0    0  0.83839348581E+01 -0.36334538057E+02  0.77543606593E+01  0.38086994221E+02  0.00000000000E+00 0. -1.
</event>
<event>
 7    1  0.2294706E-015  0.9000777E+02  0.7816164E-02  0.1186339E+00
        -11   -1    0    0    0    0  0.00000000000E+00  0.00000000000E+00  0.45593999997E+02  0.45594000000E+02  0.51100000000E-03 0. -1.
         11   -1    0    0    0    0 -0.00000000000E+00 -0.00000000000E+00 -0.45593999997E+02  0.45594000000E+02  0.51100000000E-03 0.  1.
    9900012    2    1    2    0    0 -0.56375201169E+00  0.10136242770E+01 -0.21838220658E+00  0.90007770661E+02  0.90000032433E+02 0.  0.
        -12    1    1    2    0    0  0.56375201169E+00 -0.10136242770E+01  0.21838220658E+00  0.11802293395E+01  0.00000000000E+00 0.  1.
         11    1    3    3    0    0 -0.56255958956E+01 -0.72318939743E+01  0.28037284704E+00  0.91665821782E+01  0.51100000000E-03 0. -1.
        -11    1    3    3    0    0 -0.14231595932E+02  0.11866576937E+01 -0.36608996031E+02  0.39295865812E+02  0.51100000000E-03 0.  1.
         12    1    3    3    0    0  0.19293439815E+02  0.70588605576E+01  0.36110240978E+02  0.41545322670E+02  0.00000000000E+00 0. -1.
</event>
<event>
 7    1  0.2294706E-015  0.9000774E+02  0.7816164E-02  0.1186339E+00
        -11   -1    0    0    0    0  0.00000000000E+00  0.00000000000E+00  0.45593999997E+02  0.45594000000E+02  0.51100000000E-03 0. -1.
         11   -1    0    0    0    0 -0.00000000000E+00 -0.00000000000E+00 -0.45593999997E+02  0.45594000000E+02  0.51100000000E-03 0.  1.
    9900012    2    1    2    0    0  0.68440033403E+00 -0.50019997409E+00 -0.82122369523E+00  0.90007740626E+02  0.90000002003E+02 0.  0.
        -12    1    1    2    0    0 -0.68440033403E+00  0.50019997409E+00  0.82122369523E+00  0.11802593736E+01  0.00000000000E+00 0.  1.
         11    1    3    3    0    0 -0.33671273912E+02 -0.14579695817E+02  0.10561053154E+02  0.38181907508E+02  0.51100000000E-03 0. -1.
        -11    1    3    3    0    0 -0.14594660874E+00 -0.57462254911E+01  0.60832354386E+01  0.83693584862E+01  0.51100000000E-03 0.  1.
        -12    1    3    3    0    0  0.34501620855E+02  0.19825721334E+02 -0.17465512288E+02  0.43456474632E+02  0.00000000000E+00 0.  1.
</event>
<event>
 7    1  0.2294706E-015  0.9000772E+02  0.7816164E-02  0.1186339E+00
        -11   -1    0    0    0    0  0.00000000000E+00  0.00000000000E+00  0.45593999997E+02  0.45594000000E+02  0.51100000000E-03 0. -1.
         11   -1    0    0    0    0 -0.00000000000E+00 -0.00000000000E+00 -0.45593999997E+02  0.45594000000E+02  0.51100000000E-03 0.  1.
    9900012    2    1    2    0    0  0.38267824279E+00  0.46179861205E+00  0.10165476055E+01  0.90007716293E+02  0.89999977348E+02 0.  0.
        -12    1    1    2    0    0 -0.38267824279E+00 -0.46179861205E+00 -0.10165476055E+01  0.11802837073E+01  0.00000000000E+00 0.  1.
         11    1    3    3    0    0  0.70433587972E+01  0.36486992528E+02  0.21997940692E+02  0.43183549204E+02  0.51100000000E-03 0. -1.
        -11    1    3    3    0    0 -0.72471929935E+01 -0.32997504102E+01 -0.31862141671E-01  0.79631133681E+01  0.51100000000E-03 0.  1.
        -12    1    3    3    0    0  0.58651243912E+00 -0.32725443506E+02 -0.20949530945E+02  0.38861053721E+02  0.00000000000E+00 0.  1.
</event>
<event>
 7    1  0.2294706E-015  0.9000775E+02  0.7816164E-02  0.1186339E+00
        -11   -1    0    0    0    0  0.00000000000E+00  0.00000000000E+00  0.45593999997E+02  0.45594000000E+02  0.51100000000E-03 0.  1.
         11   -1    0    0    0    0 -0.00000000000E+00 -0.00000000000E+00 -0.45593999997E+02  0.45594000000E+02  0.51100000000E-03 0. -1.
    9900012    2    1    2    0    0 -0.32703739527E+00  0.42268369445E+00 -0.10523217004E+01  0.90007747517E+02  0.90000008984E+02 0.  0.
        -12    1    1    2    0    0  0.32703739527E+00 -0.42268369445E+00  0.10523217004E+01  0.11802524834E+01  0.00000000000E+00 0.  1.
         11    1    3    3    0    0  0.38909466336E+02  0.35437517774E+01 -0.28777008527E+01  0.39176343751E+02  0.51100000000E-03 0. -1.
        -11    1    3    3    0    0  0.55105204168E+00  0.34650365695E+01 -0.85050749625E+01  0.92003498390E+01  0.51100000000E-03 0.  1.
        -12    1    3    3    0    0 -0.39787555773E+02 -0.65861046525E+01  0.10330454115E+02  0.41631053927E+02  0.00000000000E+00 0.  1.
</event>
<event>
 7    1  0.2294706E-015  0.9000748E+02  0.7816164E-02  0.1186340E+00
        -11   -1    0    0    0    0  0.00000000000E+00  0.00000000000E+00  0.45593999997E+02  0.45594000000E+02  0.51100000000E-03 0.  1.
         11   -1    0    0    0    0 -0.00000000000E+00 -0.00000000000E+00 -0.45593999997E+02  0.45594000000E+02  0.51100000000E-03 0. -1.
    9900012    2    1    2    0    0  0.32064789160E+00 -0.10219084230E+01  0.49650996604E+00  0.90007477217E+02  0.89999735116E+02 0.  0.
        -12    1    1    2    0    0 -0.32064789160E+00  0.10219084230E+01 -0.49650996604E+00  0.11805227833E+01  0.00000000000E+00 0.  1.
         11    1    3    3    0    0  0.43265855860E+01 -0.69094060408E+00  0.95066276249E+01  0.10467698449E+02  0.51100000000E-03 0. -1.
        -11    1    3    3    0    0  0.17287198674E+02  0.23542957569E+02  0.20764979381E+02  0.35837165876E+02  0.51100000000E-03 0.  1.
         12    1    3    3    0    0 -0.21293136368E+02 -0.23873925388E+02 -0.29775097040E+02  0.43702612892E+02  0.00000000000E+00 0. -1.
</event>
<event>
 7    1  0.2294706E-015  0.9000761E+02  0.7816164E-02  0.1186339E+00
        -11   -1    0    0    0    0  0.00000000000E+00  0.00000000000E+00  0.45593999997E+02  0.45594000000E+02  0.51100000000E-03 0. -1.
         11   -1    0    0    0    0 -0.00000000000E+00 -0.00000000000E+00 -0.45593999997E+02  0.45594000000E+02  0.51100000000E-03 0.  1.
    9900012    2    1    2    0    0  0.37321298585E-01  0.35770015140E+00  0.11242660905E+01  0.90007611708E+02  0.89999871382E+02 0.  0.
        -12    1    1    2    0    0 -0.37321298585E-01 -0.35770015140E+00 -0.11242660905E+01  0.11803882920E+01  0.00000000000E+00 0.  1.
         11    1    3    3    0    0 -0.18954844076E+00 -0.53092080394E+01  0.95034975706E+01  0.10887611536E+02  0.51100000000E-03 0. -1.
        -11    1    3    3    0    0 -0.34408701785E+02  0.32030832142E+01 -0.22928363518E+02  0.41472018934E+02  0.51100000000E-03 0.  1.
         12    1    3    3    0    0  0.34635571524E+02  0.24638249766E+01  0.14549132038E+02  0.37647981239E+02  0.00000000000E+00 0. -1.
</event>
<event>
 7    1  0.2294706E-015  0.9000774E+02  0.7816164E-02  0.1186339E+00
        -11   -1    0    0    0    0  0.00000000000E+00  0.00000000000E+00  0.45593999997E+02  0.45594000000E+02  0.51100000000E-03 0. -1.
         11   -1    0    0    0    0 -0.00000000000E+00 -0.00000000000E+00 -0.45593999997E+02  0.45594000000E+02  0.51100000000E-03 0.  1.
    9900012    2    1    2    0    0 -0.91550762914E+00 -0.67480277857E+00  0.31542373683E+00  0.90007743611E+02  0.90000005027E+02 0.  0.
        -12    1    1    2    0    0  0.91550762914E+00  0.67480277857E+00 -0.31542373683E+00  0.11802563886E+01  0.00000000000E+00 0.  1.
         11    1    3    3    0    0 -0.58337440957E+01  0.97930495021E+01  0.43722064861E+01  0.12208709127E+02  0.51100000000E-03 0. -1.
        -11    1    3    3    0    0 -0.11399841913E+02 -0.14533976484E+02 -0.36695669391E+02  0.41082417412E+02  0.51100000000E-03 0.  1.
         12    1    3    3    0    0  0.16318078380E+02  0.40661242030E+01  0.32638886642E+02  0.36716617073E+02  0.00000000000E+00 0. -1.
</event>
<event>
 7    1  0.2294706E-015  0.9000776E+02  0.7816164E-02  0.1186339E+00
        -11   -1    0    0    0    0  0.00000000000E+00  0.00000000000E+00  0.45593999997E+02  0.45594000000E+02  0.51100000000E-03 0. -1.
         11   -1    0    0    0    0 -0.00000000000E+00 -0.00000000000E+00 -0.45593999997E+02  0.45594000000E+02  0.51100000000E-03 0.  1.
    9900012    2    1    2    0    0  0.98991504535E+00  0.42865711212E+00 -0.47883919693E+00  0.90007760324E+02  0.90000021960E+02 0.  0.
        -12    1    1    2    0    0 -0.98991504535E+00 -0.42865711212E+00  0.47883919693E+00  0.11802396762E+01  0.00000000000E+00 0.  1.
         11    1    3    3    0    0 -0.36056122193E+02  0.10401482746E+02  0.77259180412E+01  0.38313504156E+02  0.51100000000E-03 0. -1.
        -11    1    3    3    0    0  0.96193638758E+00  0.92229229170E+01  0.21750085597E+01  0.95246150181E+01  0.51100000000E-03 0.  1.
        -12    1    3    3    0    0  0.36084100851E+02 -0.19195748551E+02 -0.10379765798E+02  0.42169641149E+02  0.00000000000E+00 0.  1.
</event>
<event>
 7    1  0.2294706E-015  0.9000780E+02  0.7816164E-02  0.1186339E+00
        -11   -1    0    0    0    0  0.00000000000E+00  0.00000000000E+00  0.45593999997E+02  0.45594000000E+02  0.51100000000E-03 0.  1.
         11   -1    0    0    0    0 -0.00000000000E+00 -0.00000000000E+00 -0.45593999997E+02  0.45594000000E+02  0.51100000000E-03 0. -1.
    9900012    2    1    2    0    0 -0.91926280969E+00  0.70617417966E+00  0.22166713061E+00  0.90007804083E+02  0.90000066297E+02 0.  0.
        -12    1    1    2    0    0  0.91926280969E+00 -0.70617417966E+00 -0.22166713061E+00  0.11801959168E+01  0.00000000000E+00 0.  1.
         11    1    3    3    0    0  0.75039464177E+01  0.13084140414E+01 -0.77460547496E+01  0.10863817174E+02  0.51100000000E-03 0. -1.
        -11    1    3    3    0    0 -0.17133151533E+02 -0.37034332519E+02 -0.19592169810E+00  0.40805943834E+02  0.51100000000E-03 0.  1.
         12    1    3    3    0    0  0.87099423058E+01  0.36432092657E+02  0.81636435783E+01  0.38338043075E+02  0.00000000000E+00 0. -1.
</event>
<event>
 7    1  0.2294706E-015  0.9000770E+02  0.7816164E-02  0.1186339E+00
        -11   -1    0    0    0    0  0.00000000000E+00  0.00000000000E+00  0.45593999997E+02  0.45594000000E+02  0.51100000000E-03 0. -1.
         11   -1    0    0    0    0 -0.00000000000E+00 -0.00000000000E+00 -0.45593999997E+02  0.45594000000E+02  0.51100000000E-03 0.  1.
    9900012    2    1    2    0    0  0.87808781926E+00 -0.66300299435E+00  0.42718502042E+00  0.90007704177E+02  0.89999965072E+02 0.  0.
        -12    1    1    2    0    0 -0.87808781926E+00  0.66300299435E+00 -0.42718502042E+00  0.11802958233E+01  0.00000000000E+00 0.  1.
         11    1    3    3    0    0  0.85096322037E+01 -0.30028289162E+02  0.29641620399E+02  0.43043439110E+02  0.51100000000E-03 0. -1.
        -11    1    3    3    0    0  0.25711201922E+01  0.84561920284E+01  0.92838126457E+00  0.88870543318E+01  0.51100000000E-03 0.  1.
        -12    1    3    3    0    0 -0.10202664577E+02  0.20909094139E+02 -0.30142816643E+02  0.38077210735E+02  0.00000000000E+00 0.  1.
</event>
<event>
 7    1  0.2294706E-015  0.9000794E+02  0.7816164E-02  0.1186339E+00
        -11   -1    0    0    0    0  0.00000000000E+00  0.00000000000E+00  0.45593999997E+02  0.45594000000E+02  0.51100000000E-03 0.  1.
         11   -1    0    0    0    0 -0.00000000000E+00 -0.00000000000E+00 -0.45593999997E+02  0.45594000000E+02  0.51100000000E-03 0. -1.
    9900012    2    1    2    0    0 -0.34324534798E+00 -0.12685068223E+00 -0.11218861045E+01  0.90007941995E+02  0.90000206029E+02 0.  0.
        -12    1    1    2    0    0  0.34324534798E+00  0.12685068223E+00  0.11218861045E+01  0.11800580053E+01  0.00000000000E+00 0.  1.
         11    1    3    3    0    0 -0.10972121157E+02  0.22325439192E+01  0.44398343587E+00  0.11205749265E+02  0.51100000000E-03 0. -1.
        -11    1    3    3    0    0 -0.66425072199E+01  0.32641401456E+02  0.14836986746E+02  0.36465328288E+02  0.51100000000E-03 0.  1.
         12    1    3    3    0    0  0.17271383029E+02 -0.35000796058E+02 -0.16402856287E+02  0.42336864442E+02  0.00000000000E+00 0. -1.
</event>
<event>
 7    1  0.2294706E-015  0.9000778E+02  0.7816164E-02  0.1186339E+00
        -11   -1    0    0    0    0  0.00000000000E+00  0.00000000000E+00  0.45593999997E+02  0.45594000000E+02  0.51100000000E-03 0. -1.
         11   -1    0    0    0    0 -0.00000000000E+00 -0.00000000000E+00 -0.45593999997E+02  0.45594000000E+02  0.51100000000E-03 0.  1.
    9900012    2    1    2    0    0 -0.74957505228E+00 -0.91016372003E+00 -0.51599743940E-01  0.90007778288E+02  0.90000040161E+02 0.  0.
        -12    1    1    2    0    0  0.74957505228E+00  0.91016372003E+00  0.51599743940E-01  0.11802217122E+01  0.00000000000E+00 0.  1.
         11    1    3    3    0    0 -0.79453394417E+01 -0.58022483392E+01  0.19743454405E+01  0.10034567495E+02  0.51100000000E-03 0. -1.
        -11    1    3    3    0    0 -0.32667222104E+02  0.10241671143E+02 -0.15466396944E+02  0.37566589710E+02  0.51100000000E-03 0.  1.
         12    1    3    3    0    0  0.39862986493E+02 -0.53495865233E+01  0.13440451760E+02  0.42406621082E+02  0.00000000000E+00 0. -1.
</event>
<event>
 7    1  0.2294706E-015  0.9000774E+02  0.7816164E-02  0.1186339E+00
        -11   -1    0    0    0    0  0.00000000000E+00  0.00000000000E+00  0.45593999997E+02  0.45594000000E+02  0.51100000000E-03 0. -1.
         11   -1    0    0    0    0 -0.00000000000E+00 -0.00000000000E+00 -0.45593999997E+02  0.45594000000E+02  0.51100000000E-03 0.  1.
    9900012    2    1    2    0    0  0.41009335255E+00 -0.81531318549E+00  0.74839299759E+00  0.90007743999E+02  0.90000005420E+02 0.  0.
        -12    1    1    2    0    0 -0.41009335255E+00  0.81531318549E+00 -0.74839299759E+00  0.11802560007E+01  0.00000000000E+00 0.  1.
         11    1    3    3    0    0 -0.27955989146E+02 -0.86603058962E+01  0.21732082941E+02  0.36453006139E+02  0.51100000000E-03 0. -1.
        -11    1    3    3    0    0 -0.97306597747E+01  0.17312952961E+00 -0.80185779981E+00  0.97651774013E+01  0.51100000000E-03 0.  1.
        -12    1    3    3    0    0  0.38096742273E+02  0.76718631810E+01 -0.20181832144E+02  0.43789560459E+02  0.00000000000E+00 0.  1.
</event>
<event>
 7    1  0.2294706E-015  0.9000771E+02  0.7816164E-02  0.1186339E+00
        -11   -1    0    0    0    0  0.00000000000E+00  0.00000000000E+00  0.45593999997E+02  0.45594000000E+02  0.51100000000E-03 0. -1.
         11   -1    0    0    0    0 -0.00000000000E+00 -0.00000000000E+00 -0.45593999997E+02  0.45594000000E+02  0.51100000000E-03 0.  1.
    9900012    2    1    2    0    0 -0.82826774979E+00 -0.69636285390E+00  0.47131361883E+00  0.90007709690E+02  0.89999970657E+02 0.  0.
        -12    1    1    2    0    0  0.82826774979E+00  0.69636285390E+00 -0.47131361883E+00  0.11802903104E+01  0.00000000000E+00 0.  1.
         11    1    3    3    0    0 -0.64062148294E+01 -0.19790184341E+02 -0.46301151173E+01  0.21310301522E+02  0.51100000000E-03 0. -1.
        -11    1    3    3    0    0 -0.72118294270E+01  0.11931600410E+02 -0.28670949655E+02  0.31880980638E+02  0.51100000000E-03 0.  1.
         12    1    3    3    0    0  0.12789776507E+02  0.71622210770E+01  0.33772378391E+02  0.36816427530E+02  0.00000000000E+00 0. -1.
</event>
<event>
 7    1  0.2294706E-015  0.9000766E+02  0.7816164E-02  0.1186339E+00
        -11   -1    0    0    0    0  0.00000000000E+00  0.00000000000E+00  0.45593999997E+02  0.45594000000E+02  0.51100000000E-03 0. -1.
         11   -1    0    0    0    0 -0.00000000000E+00 -0.00000000000E+00 -0.45593999997E+02  0.45594000000E+02  0.51100000000E-03 0.  1.
    9900012    2    1    2    0    0 -0.78596773668E+00 -0.54651462250E+00  0.69048943994E+00  0.90007661412E+02  0.89999921743E+02 0.  0.
        -12    1    1    2    0    0  0.78596773668E+00  0.54651462250E+00 -0.69048943994E+00  0.11803385880E+01  0.00000000000E+00 0.  1.
         11    1    3    3    0    0  0.26900003181E+02 -0.28595613774E+02  0.92042665784E+01  0.40324159281E+02  0.51100000000E-03 0. -1.
        -11    1    3    3    0    0 -0.79689768569E+00 -0.18280577283E+01 -0.92689531448E+01  0.94810512941E+01  0.51100000000E-03 0.  1.
        -12    1    3    3    0    0 -0.26889073232E+02  0.29877156880E+02  0.75517600642E+00  0.40202450837E+02  0.00000000000E+00 0.  1.
</event>
<event>
 7    1  0.2294706E-015  0.9000772E+02  0.7816164E-02  0.1186339E+00
        -11   -1    0    0    0    0  0.00000000000E+00  0.00000000000E+00  0.45593999997E+02  0.45594000000E+02  0.51100000000E-03 0. -1.
         11   -1    0    0    0    0 -0.00000000000E+00 -0.00000000000E+00 -0.45593999997E+02  0.45594000000E+02  0.51100000000E-03 0.  1.
    9900012    2    1    2    0    0 -0.41139266180E+00 -0.10011381140E+01 -0.47068509055E+00  0.90007717873E+02  0.89999978949E+02 0.  0.
        -12    1    1    2    0    0  0.41139266180E+00  0.10011381140E+01  0.47068509055E+00  0.11802821273E+01  0.00000000000E+00 0.  1.
         11    1    3    3    0    0  0.36379634676E+01 -0.70603381071E+01  0.60561359583E+01  0.99879895567E+01  0.51100000000E-03 0. -1.
        -11    1    3    3    0    0  0.98486031407E+01 -0.23356126900E+02 -0.30463130871E+02  0.39629610020E+02  0.51100000000E-03 0.  1.
         12    1    3    3    0    0 -0.13897959270E+02  0.29415326893E+02  0.23936309822E+02  0.40390118296E+02  0.00000000000E+00 0. -1.
</event>
<event>
 7    1  0.2294706E-015  0.9000781E+02  0.7816164E-02  0.1186339E+00
        -11   -1    0    0    0    0  0.00000000000E+00  0.00000000000E+00  0.45593999997E+02  0.45594000000E+02  0.51100000000E-03 0.  1.
         11   -1    0    0    0    0 -0.00000000000E+00 -0.00000000000E+00 -0.45593999997E+02  0.45594000000E+02  0.51100000000E-03 0. -1.
    9900012    2    1    2    0    0 -0.11574180122E+00  0.29396069126E+00 -0.11371152454E+01  0.90007813517E+02  0.90000075856E+02 0.  0.
        -12    1    1    2    0    0  0.11574180122E+00 -0.29396069126E+00  0.11371152454E+01  0.11801864827E+01  0.00000000000E+00 0.  1.
         11    1    3    3    0    0  0.69154878482E+01 -0.81922434121E+01  0.50665937866E+01  0.11857790568E+02  0.51100000000E-03 0. -1.
        -11    1    3    3    0    0 -0.18412684825E+02 -0.13452227710E+02  0.27899417437E+02  0.36032858427E+02  0.51100000000E-03 0.  1.
         12    1    3    3    0    0  0.11381455176E+02  0.21938431814E+02 -0.34103126469E+02  0.42117164522E+02  0.00000000000E+00 0. -1.
</event>
<event>
 7    1  0.2294706E-015  0.9000794E+02  0.7816164E-02  0.1186339E+00
        -11   -1    0    0    0    0  0.00000000000E+00  0.00000000000E+00  0.45593999997E+02  0.45594000000E+02  0.51100000000E-03 0.  1.
         11   -1    0    0    0    0 -0.00000000000E+00 -0.00000000000E+00 -0.45593999997E+02  0.45594000000E+02  0.51100000000E-03 0. -1.
    9900012    2    1    2    0    0  0.50468933124E+00 -0.10415811623E+01  0.23008991605E+00  0.90007938981E+02  0.90000202975E+02 0.  0.
        -12    1    1    2    0    0 -0.50468933124E+00  0.10415811623E+01 -0.23008991605E+00  0.11800610188E+01  0.00000000000E+00 0.  1.
         11    1    3    3    0    0  0.55468087717E+01  0.41534348126E+01  0.51449668820E+01  0.86306890090E+01  0.51100000000E-03 0. -1.
        -11    1    3    3    0    0  0.35017959014E+02 -0.12086961491E+02  0.95075865368E+01  0.38245866360E+02  0.51100000000E-03 0.  1.
         12    1    3    3    0    0 -0.40060078455E+02  0.68919455160E+01 -0.14422463503E+02  0.43131383612E+02  0.00000000000E+00 0. -1.
</event>
<event>
 7    1  0.2294706E-015  0.9000773E+02  0.7816164E-02  0.1186339E+00
        -11   -1    0    0    0    0  0.00000000000E+00  0.00000000000E+00  0.45593999997E+02  0.45594000000E+02  0.51100000000E-03 0. -1.
         11   -1    0    0    0    0 -0.00000000000E+00 -0.00000000000E+00 -0.45593999997E+02  0.45594000000E+02  0.51100000000E-03 0.  1.
    9900012    2    1    2    0    0  0.18292297930E+00 -0.10713991238E+01  0.46008293473E+00  0.90007731723E+02  0.89999992982E+02 0.  0.
        -12    1    1    2    0    0 -0.18292297930E+00  0.10713991238E+01 -0.46008293473E+00  0.11802682770E+01  0.00000000000E+00 0.  1.
         11    1    3    3    0    0 -0.79955753403E+01  0.30267192237E+01  0.36625704096E+01  0.93007890282E+01  0.51100000000E-03 0. -1.
        -11    1    3    3    0    0 -0.77944987349E+01 -0.25682432311E+02 -0.31710639263E+02  0.41544027040E+02  0.51100000000E-03 0.  1.
         12    1    3    3    0    0  0.15972997054E+02  0.21584313964E+02  0.28508151788E+02  0.39162915655E+02  0.00000000000E+00 0. -1.
</event>
<event>
 7    1  0.2294706E-015  0.9000778E+02  0.7816164E-02  0.1186339E+00
        -11   -1    0    0    0    0  0.00000000000E+00  0.00000000000E+00  0.45593999997E+02  0.45594000000E+02  0.51100000000E-03 0.  1.
         11   -1    0    0    0    0 -0.00000000000E+00 -0.00000000000E+00 -0.45593999997E+02  0.45594000000E+02  0.51100000000E-03 0. -1.
    9900012    2    1    2    0    0  0.11720547340E+01  0.11066427361E+00  0.83455632907E-01  0.90007778104E+02  0.90000039975E+02 0.  0.
        -12    1    1    2    0    0 -0.11720547340E+01 -0.11066427361E+00 -0.83455632907E-01  0.11802218960E+01  0.00000000000E+00 0.  1.
         11    1    3    3    0    0 -0.24927059972E+01 -0.20018960089E+02 -0.31540399854E+02  0.37440207925E+02  0.51100000000E-03 0. -1.
        -11    1    3    3    0    0  0.11707906719E+01 -0.74865300170E+01 -0.30514209707E+01  0.81688464727E+01  0.51100000000E-03 0.  1.
        -12    1    3    3    0    0  0.24939700593E+01  0.27616154380E+02  0.34675276457E+02  0.44398723707E+02  0.00000000000E+00 0.  1.
</event>
<event>
 7    1  0.2294706E-015  0.9000755E+02  0.7816164E-02  0.1186339E+00
        -11   -1    0    0    0    0  0.00000000000E+00  0.00000000000E+00  0.45593999997E+02  0.45594000000E+02  0.51100000000E-03 0.  1.
         11   -1    0    0    0    0 -0.00000000000E+00 -0.00000000000E+00 -0.45593999997E+02  0.45594000000E+02  0.51100000000E-03 0. -1.
    9900012    2    1    2    0    0  0.52705536181E+00  0.90478389282E+00 -0.54501715766E+00  0.90007548837E+02  0.89999807681E+02 0.  0.
        -12    1    1    2    0    0 -0.52705536181E+00 -0.90478389282E+00  0.54501715766E+00  0.11804511634E+01  0.00000000000E+00 0.  1.
         11    1    3    3    0    0 -0.68387328371E+01  0.64659970445E+01  0.26545831203E+01  0.97787625188E+01  0.51100000000E-03 0. -1.
        -11    1    3    3    0    0 -0.27122447642E+02 -0.18844883289E+02  0.18009210518E+02  0.37617661490E+02  0.51100000000E-03 0.  1.
         12    1    3    3    0    0  0.34488235840E+02  0.13283670137E+02 -0.21208810796E+02  0.42611124828E+02  0.00000000000E+00 0. -1.
</event>
<event>
 7    1  0.2294706E-015  0.9000775E+02  0.7816164E-02  0.1186339E+00
        -11   -1    0    0    0    0  0.00000000000E+00  0.00000000000E+00  0.45593999997E+02  0.45594000000E+02  0.51100000000E-03 0.  1.
         11   -1    0    0    0    0 -0.00000000000E+00 -0.00000000000E+00 -0.45593999997E+02  0.45594000000E+02  0.51100000000E-03 0. -1.
    9900012    2    1    2    0    0  0.91792864279E+00 -0.71378570614E+00  0.20224620851E+00  0.90007751485E+02  0.90000013005E+02 0.  0.
        -12    1    1    2    0    0 -0.91792864279E+00  0.71378570614E+00 -0.20224620851E+00  0.11802485147E+01  0.00000000000E+00 0.  1.
         11    1    3    3    0    0 -0.22630789438E+01  0.65194364345E+01  0.91909161489E+01  0.11493368420E+02  0.51100000000E-03 0. -1.
        -11    1    3    3    0    0 -0.10626313318E+02  0.30936791968E+02  0.92805613087E+01  0.34001947745E+02  0.51100000000E-03 0.  1.
         12    1    3    3    0    0  0.13807320905E+02 -0.38170014109E+02 -0.18269231249E+02  0.44512435319E+02  0.00000000000E+00 0. -1.
</event>
<event>
 7    1  0.2294706E-015  0.9000778E+02  0.7816164E-02  0.1186339E+00
        -11   -1    0    0    0    0  0.00000000000E+00  0.00000000000E+00  0.45593999997E+02  0.45594000000E+02  0.51100000000E-03 0. -1.
         11   -1    0    0    0    0 -0.00000000000E+00 -0.00000000000E+00 -0.45593999997E+02  0.45594000000E+02  0.51100000000E-03 0.  1.
    9900012    2    1    2    0    0  0.38464944839E+00 -0.81359274282E+00  0.76357001714E+00  0.90007776496E+02  0.90000038345E+02 0.  0.
        -12    1    1    2    0    0 -0.38464944839E+00  0.81359274282E+00 -0.76357001714E+00  0.11802235044E+01  0.00000000000E+00 0.  1.
         11    1    3    3    0    0 -0.21931881477E+02  0.28480399579E+02  0.48561469589E+00  0.35949637095E+02  0.51100000000E-03 0. -1.
        -11    1    3    3    0    0 -0.93924995896E+01  0.14501245053E+01  0.25289310846E+01  0.98345006133E+01  0.51100000000E-03 0.  1.
        -12    1    3    3    0    0  0.31709030515E+02 -0.30744116828E+02 -0.22509757633E+01  0.44223638788E+02  0.00000000000E+00 0.  1.
</event>
<event>
 7    1  0.2294706E-015  0.9000764E+02  0.7816164E-02  0.1186339E+00
        -11   -1    0    0    0    0  0.00000000000E+00  0.00000000000E+00  0.45593999997E+02  0.45594000000E+02  0.51100000000E-03 0.  1.
         11   -1    0    0    0    0 -0.00000000000E+00 -0.00000000000E+00 -0.45593999997E+02  0.45594000000E+02  0.51100000000E-03 0. -1.
    9900012    2    1    2    0    0  0.37977410787E+00  0.29846304608E+00 -0.10770101287E+01  0.90007635912E+02  0.89999895906E+02 0.  0.
        -12    1    1    2    0    0 -0.37977410787E+00 -0.29846304608E+00  0.10770101287E+01  0.11803640880E+01  0.00000000000E+00 0.  1.
         11    1    3    3    0    0 -0.34582366742E+02  0.21896117534E+02 -0.32034149268E+01  0.41056569755E+02  0.51100000000E-03 0. -1.
        -11    1    3    3    0    0  0.53077640301E+01  0.25336493159E+01 -0.74946446328E+01  0.95268796722E+01  0.51100000000E-03 0.  1.
        -12    1    3    3    0    0  0.29654376820E+02 -0.24131303804E+02  0.96210494309E+01  0.39424186485E+02  0.00000000000E+00 0.  1.
</event>
<event>
 7    1  0.2294706E-015  0.9000773E+02  0.7816164E-02  0.1186339E+00
        -11   -1    0    0    0    0  0.00000000000E+00  0.00000000000E+00  0.45593999997E+02  0.45594000000E+02  0.51100000000E-03 0. -1.
         11   -1    0    0    0    0 -0.00000000000E+00 -0.00000000000E+00 -0.45593999997E+02  0.45594000000E+02  0.51100000000E-03 0.  1.
    9900012    2    1    2    0    0 -0.78623270178E+00 -0.74473332050E+00 -0.46930673195E+00  0.90007729527E+02  0.89999990757E+02 0.  0.
        -12    1    1    2    0    0  0.78623270178E+00  0.74473332050E+00  0.46930673195E+00  0.11802704727E+01  0.00000000000E+00 0.  1.
         11    1    3    3    0    0 -0.63051841913E+01 -0.62146172647E+01 -0.70301378859E+01  0.11304850923E+02  0.51100000000E-03 0. -1.
        -11    1    3    3    0    0 -0.34694442440E+02  0.14530102274E+01 -0.81967914618E+01  0.35679167107E+02  0.51100000000E-03 0.  1.
         12    1    3    3    0    0  0.40213393929E+02  0.40168737168E+01  0.14757622616E+02  0.43023711498E+02  0.00000000000E+00 0. -1.
</event>
<event>
 7    1  0.2294706E-015  0.9000773E+02  0.7816164E-02  0.1186339E+00
        -11   -1    0    0    0    0  0.00000000000E+00  0.00000000000E+00  0.45593999997E+02  0.45594000000E+02  0.51100000000E-03 0. -1.
         11   -1    0    0    0    0 -0.00000000000E+00 -0.00000000000E+00 -0.45593999997E+02  0.45594000000E+02  0.51100000000E-03 0.  1.
    9900012    2    1    2    0    0  0.11224007443E+01  0.27876494917E+00 -0.23568421283E+00  0.90007728685E+02  0.89999989904E+02 0.  0.
        -12    1    1    2    0    0 -0.11224007443E+01 -0.27876494917E+00  0.23568421283E+00  0.11802713145E+01  0.00000000000E+00 0.  1.
         11    1    3    3    0    0  0.15125042773E+02  0.27906239239E+02 -0.86194438179E+01  0.32891030986E+02  0.51100000000E-03 0. -1.
        -11    1    3    3    0    0  0.12102319982E+02  0.62790708721E+01  0.32673596232E+01  0.14020289553E+02  0.51100000000E-03 0.  1.
        -12    1    3    3    0    0 -0.26104962011E+02 -0.33906545162E+02  0.51163999819E+01  0.43096408147E+02  0.00000000000E+00 0.  1.
</event>
<event>
 7    1  0.2294706E-015  0.9000772E+02  0.7816164E-02  0.1186339E+00
        -11   -1    0    0    0    0  0.00000000000E+00  0.00000000000E+00  0.45593999997E+02  0.45594000000E+02  0.51100000000E-03 0. -1.
         11   -1    0    0    0    0 -0.00000000000E+00 -0.00000000000E+00 -0.45593999997E+02  0.45594000000E+02  0.51100000000E-03 0.  1.
    9900012    2    1    2    0    0 -0.89880634681E+00 -0.30835865498E+00  0.70008480607E+00  0.90007721793E+02  0.89999982921E+02 0.  0.
        -12    1    1    2    0    0  0.89880634681E+00  0.30835865498E+00 -0.70008480607E+00  0.11802782066E+01  0.00000000000E+00 0.  1.
         11    1    3    3    0    0 -0.36930733101E+01  0.58208880762E+01 -0.42809643122E+01  0.81146894070E+01  0.51100000000E-03 0. -1.
        -11    1    3    3    0    0 -0.33942715589E+02  0.15014005223E+02 -0.71649082500E+01  0.37800320169E+02  0.51100000000E-03 0.  1.
         12    1    3    3    0    0  0.36736982553E+02 -0.21143251954E+02  0.12145957368E+02  0.44092712217E+02  0.00000000000E+00 0. -1.
</event>
<event>
 7    1  0.2294706E-015  0.9000771E+02  0.7816164E-02  0.1186339E+00
        -11   -1    0    0    0    0  0.00000000000E+00  0.00000000000E+00  0.45593999997E+02  0.45594000000E+02  0.51100000000E-03 0.  1.
         11   -1    0    0    0    0 -0.00000000000E+00 -0.00000000000E+00 -0.45593999997E+02  0.45594000000E+02  0.51100000000E-03 0. -1.
    9900012    2    1    2    0    0  0.11679097407E+01 -0.16752626423E+00 -0.31845569528E-01  0.90007706667E+02  0.89999967595E+02 0.  0.
        -12    1    1    2    0    0 -0.11679097407E+01  0.16752626423E+00  0.31845569528E-01  0.11802933330E+01  0.00000000000E+00 0.  1.
         11    1    3    3    0    0 -0.37042882470E+01 -0.77890151311E+01  0.42722309254E+01  0.96250956083E+01  0.51100000000E-03 0. -1.
        -11    1    3    3    0    0 -0.32043179483E+02 -0.15978894375E+02  0.31258009669E+01  0.35942468596E+02  0.51100000000E-03 0.  1.
         12    1    3    3    0    0  0.36915377471E+02  0.23600383242E+02 -0.74298774618E+01  0.44440142462E+02  0.00000000000E+00 0. -1.
</event>
<event>
 7    1  0.2294706E-015  0.9000723E+02  0.7816164E-02  0.1186340E+00
        -11   -1    0    0    0    0  0.00000000000E+00  0.00000000000E+00  0.45593999997E+02  0.45594000000E+02  0.51100000000E-03 0. -1.
         11   -1    0    0    0    0 -0.00000000000E+00 -0.00000000000E+00 -0.45593999997E+02  0.45594000000E+02  0.51100000000E-03 0.  1.
    9900012    2    1    2    0    0  0.17074488838E+00 -0.10431540997E+01  0.52620315867E+00  0.90007231582E+02  0.89999486237E+02 0.  0.
        -12    1    1    2    0    0 -0.17074488838E+00  0.10431540997E+01 -0.52620315867E+00  0.11807684180E+01  0.00000000000E+00 0.  1.
         11    1    3    3    0    0 -0.34843821674E+02  0.13702143490E+01  0.22812180271E+02  0.41669712804E+02  0.51100000000E-03 0. -1.
        -11    1    3    3    0    0 -0.17322430563E+01 -0.56263426568E+01 -0.43582054256E+01  0.73246400929E+01  0.51100000000E-03 0.  1.
        -12    1    3    3    0    0  0.36746809618E+02  0.32129742080E+01 -0.17927771687E+02  0.41012878685E+02  0.00000000000E+00 0.  1.
</event>
<event>
 7    1  0.2294706E-015  0.9000765E+02  0.7816164E-02  0.1186339E+00
        -11   -1    0    0    0    0  0.00000000000E+00  0.00000000000E+00  0.45593999997E+02  0.45594000000E+02  0.51100000000E-03 0. -1.
         11   -1    0    0    0    0 -0.00000000000E+00 -0.00000000000E+00 -0.45593999997E+02  0.45594000000E+02  0.51100000000E-03 0.  1.
    9900012    2    1    2    0    0 -0.48550245108E+00  0.36477914768E+00  0.10121456139E+01  0.90007654627E+02  0.89999914868E+02 0.  0.
        -12    1    1    2    0    0  0.48550245108E+00 -0.36477914768E+00 -0.10121456139E+01  0.11803453734E+01  0.00000000000E+00 0.  1.
         11    1    3    3    0    0 -0.17598026308E+02  0.21713816383E+02 -0.11539063597E+02  0.30237895774E+02  0.51100000000E-03 0. -1.
        -11    1    3    3    0    0  0.27240784565E+01  0.64607451746E+01 -0.15953786533E+02  0.17426564109E+02  0.51100000000E-03 0.  1.
        -12    1    3    3    0    0  0.14388445401E+02 -0.27809782410E+02  0.28504995744E+02  0.42343194744E+02  0.00000000000E+00 0.  1.
</event>
<event>
 7    1  0.2294706E-015  0.9000772E+02  0.7816164E-02  0.1186339E+00
        -11   -1    0    0    0    0  0.00000000000E+00  0.00000000000E+00  0.45593999997E+02  0.45594000000E+02  0.51100000000E-03 0.  1.
         11   -1    0    0    0    0 -0.00000000000E+00 -0.00000000000E+00 -0.45593999997E+02  0.45594000000E+02  0.51100000000E-03 0. -1.
    9900012    2    1    2    0    0 -0.31957470935E-01  0.47024787876E+00 -0.10820795352E+01  0.90007724410E+02  0.89999985572E+02 0.  0.
        -12    1    1    2    0    0  0.31957470935E-01 -0.47024787876E+00  0.10820795352E+01  0.11802755898E+01  0.00000000000E+00 0.  1.
         11    1    3    3    0    0 -0.48969273403E+01  0.16482764364E+02 -0.38243147028E+02  0.41930892112E+02  0.51100000000E-03 0. -1.
        -11    1    3    3    0    0  0.84399529838E+01  0.15286869975E+01  0.22878746075E+01  0.88771651323E+01  0.51100000000E-03 0.  1.
        -12    1    3    3    0    0 -0.35749831145E+01 -0.17541203482E+02  0.34873192886E+02  0.39199667166E+02  0.00000000000E+00 0.  1.
</event>
<event>
 7    1  0.2294706E-015  0.9000761E+02  0.7816164E-02  0.1186339E+00
        -11   -1    0    0    0    0  0.00000000000E+00  0.00000000000E+00  0.45593999997E+02  0.45594000000E+02  0.51100000000E-03 0.  1.
         11   -1    0    0    0    0 -0.00000000000E+00 -0.00000000000E+00 -0.45593999997E+02  0.45594000000E+02  0.51100000000E-03 0. -1.
    9900012    2    1    2    0    0 -0.64731586597E+00 -0.84202817521E+00 -0.51506610046E+00  0.90007609232E+02  0.89999868873E+02 0.  0.
        -12    1    1    2    0    0  0.64731586597E+00  0.84202817521E+00  0.51506610046E+00  0.11803907684E+01  0.00000000000E+00 0.  1.
         11    1    3    3    0    0 -0.49232966738E+01  0.86946069027E+01 -0.21795157746E-01  0.99917723464E+01  0.51100000000E-03 0. -1.
        -11    1    3    3    0    0 -0.20036820877E+02 -0.33726424651E+02 -0.16012324477E+02  0.42371457917E+02  0.51100000000E-03 0.  1.
         12    1    3    3    0    0  0.24312801685E+02  0.24189789573E+02  0.15519053534E+02  0.37644378969E+02  0.00000000000E+00 0. -1.
</event>
<event>
 7    1  0.2294706E-015  0.9000781E+02  0.7816164E-02  0.1186339E+00
        -11   -1    0    0    0    0  0.00000000000E+00  0.00000000000E+00  0.45593999997E+02  0.45594000000E+02  0.51100000000E-03 0.  1.
         11   -1    0    0    0    0 -0.00000000000E+00 -0.00000000000E+00 -0.45593999997E+02  0.45594000000E+02  0.51100000000E-03 0. -1.
    9900012    2    1    2    0    0  0.34169638122E+00  0.10064293599E+01 -0.51302190883E+00  0.90007810205E+02  0.90000072500E+02 0.  0.
        -12    1    1    2    0    0 -0.34169638122E+00 -0.10064293599E+01  0.51302190883E+00  0.11801897950E+01  0.00000000000E+00 0.  1.
         11    1    3    3    0    0 -0.91277608141E+01 -0.60458836500E+01 -0.32723883980E+01  0.11427040416E+02  0.51100000000E-03 0. -1.
        -11    1    3    3    0    0  0.29213854875E+02 -0.22437788441E+02 -0.13905349005E+02  0.39373371687E+02  0.51100000000E-03 0.  1.
         12    1    3    3    0    0 -0.19744397680E+02  0.29490101451E+02  0.16664715494E+02  0.39207398101E+02  0.00000000000E+00 0. -1.
</event>
<event>
 7    1  0.2294706E-015  0.9000774E+02  0.7816164E-02  0.1186339E+00
        -11   -1    0    0    0    0  0.00000000000E+00  0.00000000000E+00  0.45593999997E+02  0.45594000000E+02  0.51100000000E-03 0.  1.
         11   -1    0    0    0    0 -0.00000000000E+00 -0.00000000000E+00 -0.45593999997E+02  0.45594000000E+02  0.51100000000E-03 0. -1.
    9900012    2    1    2    0    0 -0.92047216249E-02 -0.34188837811E+00 -0.11296210763E+01  0.90007738942E+02  0.90000000296E+02 0.  0.
        -12    1    1    2    0    0  0.92047216249E-02  0.34188837811E+00  0.11296210763E+01  0.11802610585E+01  0.00000000000E+00 0.  1.
         11    1    3    3    0    0 -0.24209328607E+01 -0.63166532540E+01 -0.75229491550E+01  0.10117103760E+02  0.51100000000E-03 0. -1.
        -11    1    3    3    0    0 -0.26684714520E+02  0.30166344200E+02 -0.44704011686E+01  0.40522423401E+02  0.51100000000E-03 0.  1.
         12    1    3    3    0    0  0.29096442659E+02 -0.24191579324E+02  0.10863729247E+02  0.39368211780E+02  0.00000000000E+00 0. -1.
</event>
<event>
 7    1  0.2294706E-015  0.9000769E+02  0.7816164E-02  0.1186339E+00
        -11   -1    0    0    0    0  0.00000000000E+00  0.00000000000E+00  0.45593999997E+02  0.45594000000E+02  0.51100000000E-03 0.  1.
         11   -1    0    0    0    0 -0.00000000000E+00 -0.00000000000E+00 -0.45593999997E+02  0.45594000000E+02  0.51100000000E-03 0. -1.
    9900012    2    1    2    0    0 -0.59617823184E+00 -0.53303442332E+00 -0.86808444785E+00  0.90007692926E+02  0.89999953673E+02 0.  0.
        -12    1    1    2    0    0  0.59617823184E+00  0.53303442332E+00  0.86808444785E+00  0.11803070741E+01  0.00000000000E+00 0.  1.
         11    1    3    3    0    0  0.45166869294E+01 -0.66614942031E+01  0.46365981892E+01  0.92883803145E+01  0.51100000000E-03 0. -1.
        -11    1    3    3    0    0  0.12354886294E+02  0.36229392942E+02  0.14079394533E+02  0.40785309597E+02  0.51100000000E-03 0.  1.
         12    1    3    3    0    0 -0.17467751455E+02 -0.30100933162E+02 -0.19584077170E+02  0.39934003014E+02  0.00000000000E+00 0. -1.
</event>
<event>
 7    1  0.2294706E-015  0.9000779E+02  0.7816164E-02  0.1186339E+00
        -11   -1    0    0    0    0  0.00000000000E+00  0.00000000000E+00  0.45593999997E+02  0.45594000000E+02  0.51100000000E-03 0. -1.
         11   -1    0    0    0    0 -0.00000000000E+00 -0.00000000000E+00 -0.45593999997E+02  0.45594000000E+02  0.51100000000E-03 0.  1.
    9900012    2    1    2    0    0 -0.66111702716E+00 -0.49419679933E+00  0.84356128827E+00  0.90007787372E+02  0.90000049365E+02 0.  0.
        -12    1    1    2    0    0  0.66111702716E+00  0.49419679933E+00 -0.84356128827E+00  0.11802126279E+01  0.00000000000E+00 0.  1.
         11    1    3    3    0    0 -0.57315993078E+01  0.47248454807E+01 -0.59929718927E+01  0.95441661662E+01  0.51100000000E-03 0. -1.
        -11    1    3    3    0    0  0.38950641479E+00 -0.42532671294E+02  0.47647663177E+01  0.42800500475E+02  0.51100000000E-03 0.  1.
         12    1    3    3    0    0  0.46809758658E+01  0.37313629014E+02  0.20717668632E+01  0.37663120730E+02  0.00000000000E+00 0. -1.
</event>
<event>
 7    1  0.2545377E-015  0.9000778E+02  0.7816164E-02  0.1186339E+00
        -11   -1    0    0    0    0  0.00000000000E+00  0.00000000000E+00  0.45593999997E+02  0.45594000000E+02  0.51100000000E-03 0. -1.
         11   -1    0    0    0    0 -0.00000000000E+00 -0.00000000000E+00 -0.45593999997E+02  0.45594000000E+02  0.51100000000E-03 0.  1.
    9900012    2    1    2    0    0  0.66022429140E+00  0.57196970534E+00  0.79364316842E+00  0.90007781826E+02  0.90000043746E+02 0.  0.
        -12    1    1    2    0    0 -0.66022429140E+00 -0.57196970534E+00 -0.79364316842E+00  0.11802181737E+01  0.00000000000E+00 0.  1.
         11    1    3    3    0    0  0.10377789613E+02  0.15409270911E+02  0.33470652560E+02  0.38280918619E+02  0.51100000000E-03 0. -1.
        -11    1    3    3    0    0  0.63441844934E+01 -0.67824989705E+01  0.45861303283E+01  0.10357777794E+02  0.51100000000E-03 0.  1.
        -12    1    3    3    0    0 -0.16061749816E+02 -0.80548022348E+01 -0.37263139720E+02  0.41369085414E+02  0.00000000000E+00 0.  1.
</event>
<event>
 7    1  0.2294706E-015  0.9000777E+02  0.7816164E-02  0.1186339E+00
        -11   -1    0    0    0    0  0.00000000000E+00  0.00000000000E+00  0.45593999997E+02  0.45594000000E+02  0.51100000000E-03 0. -1.
         11   -1    0    0    0    0 -0.00000000000E+00 -0.00000000000E+00 -0.45593999997E+02  0.45594000000E+02  0.51100000000E-03 0.  1.
    9900012    2    1    2    0    0 -0.36324418321E+00 -0.97954800537E+00  0.54908444898E+00  0.90007765124E+02  0.90000026823E+02 0.  0.
        -12    1    1    2    0    0  0.36324418321E+00  0.97954800537E+00 -0.54908444898E+00  0.11802348764E+01  0.00000000000E+00 0.  1.
         11    1    3    3    0    0  0.51931232034E+01 -0.31737875850E+02  0.21973101182E+02  0.38949691500E+02  0.51100000000E-03 0. -1.
        -11    1    3    3    0    0 -0.56933969265E+01 -0.19398797239E+01  0.59152853989E+01  0.84361426918E+01  0.51100000000E-03 0.  1.
        -12    1    3    3    0    0  0.13702953984E+00  0.32698207569E+02 -0.27339302132E+02  0.42621930932E+02  0.00000000000E+00 0.  1.
</event>
<event>
 7    1  0.2294706E-015  0.9000776E+02  0.7816164E-02  0.1186339E+00
        -11   -1    0    0    0    0  0.00000000000E+00  0.00000000000E+00  0.45593999997E+02  0.45594000000E+02  0.51100000000E-03 0.  1.
         11   -1    0    0    0    0 -0.00000000000E+00 -0.00000000000E+00 -0.45593999997E+02  0.45594000000E+02  0.51100000000E-03 0. -1.
    9900012    2    1    2    0    0  0.41429050603E+00  0.58768414525E+00 -0.93592903309E+00  0.90007757469E+02  0.90000019067E+02 0.  0.
        -12    1    1    2    0    0 -0.41429050603E+00 -0.58768414525E+00  0.93592903309E+00  0.11802425314E+01  0.00000000000E+00 0.  1.
         11    1    3    3    0    0  0.14436633740E-01 -0.70959001658E+01  0.47615696513E+01  0.85454405027E+01  0.51100000000E-03 0. -1.
        -11    1    3    3    0    0 -0.19419999424E+02  0.10909760307E+02  0.31859519102E+02  0.38874004235E+02  0.51100000000E-03 0.  1.
         12    1    3    3    0    0  0.19819853297E+02 -0.32261759964E+01 -0.37557017786E+02  0.42588312731E+02  0.00000000000E+00 0. -1.
</event>
<event>
 7    1  0.2294706E-015  0.9000774E+02  0.7816164E-02  0.1186339E+00
        -11   -1    0    0    0    0  0.00000000000E+00  0.00000000000E+00  0.45593999997E+02  0.45594000000E+02  0.51100000000E-03 0.  1.
         11   -1    0    0    0    0 -0.00000000000E+00 -0.00000000000E+00 -0.45593999997E+02  0.45594000000E+02  0.51100000000E-03 0. -1.
    9900012    2    1    2    0    0 -0.51962453623E+00 -0.96394265420E-01 -0.10553227527E+01  0.90007742560E+02  0.90000003961E+02 0.  0.
        -12    1    1    2    0    0  0.51962453623E+00  0.96394265420E-01  0.10553227527E+01  0.11802574403E+01  0.00000000000E+00 0.  1.
         11    1    3    3    0    0  0.29994665822E+02  0.86735043153E+01  0.24162997704E+02  0.39481136169E+02  0.51100000000E-03 0. -1.
        -11    1    3    3    0    0  0.23031988127E+01  0.64263880401E+01 -0.78623004502E+01  0.10412442396E+02  0.51100000000E-03 0.  1.
        -12    1    3    3    0    0 -0.32817489171E+02 -0.15196286621E+02 -0.17356020007E+02  0.40114163995E+02  0.00000000000E+00 0.  1.
</event>
<event>
 7    1  0.2294706E-015  0.9000773E+02  0.7816164E-02  0.1186339E+00
        -11   -1    0    0    0    0  0.00000000000E+00  0.00000000000E+00  0.45593999997E+02  0.45594000000E+02  0.51100000000E-03 0.  1.
         11   -1    0    0    0    0 -0.00000000000E+00 -0.00000000000E+00 -0.45593999997E+02  0.45594000000E+02  0.51100000000E-03 0. -1.
    9900012    2    1    2    0    0  0.30722348630E+00  0.10249818065E+00 -0.11349641153E+01  0.90007730670E+02  0.89999991915E+02 0.  0.
        -12    1    1    2    0    0 -0.30722348630E+00 -0.10249818065E+00  0.11349641153E+01  0.11802693297E+01  0.00000000000E+00 0.  1.
         11    1    3    3    0    0 -0.67204217573E+01  0.42875030426E+01 -0.17105027890E+01  0.81530712611E+01  0.51100000000E-03 0. -1.
        -11    1    3    3    0    0 -0.24385371048E+02 -0.66577425027E+01  0.29662161822E+02  0.38971986100E+02  0.51100000000E-03 0.  1.
         12    1    3    3    0    0  0.31413016292E+02  0.24727376407E+01 -0.29086623148E+02  0.42882673309E+02  0.00000000000E+00 0. -1.
</event>
<event>
 7    1  0.2294706E-015  0.9000777E+02  0.7816164E-02  0.1186339E+00
        -11   -1    0    0    0    0  0.00000000000E+00  0.00000000000E+00  0.45593999997E+02  0.45594000000E+02  0.51100000000E-03 0. -1.
         11   -1    0    0    0    0 -0.00000000000E+00 -0.00000000000E+00 -0.45593999997E+02  0.45594000000E+02  0.51100000000E-03 0.  1.
    9900012    2    1    2    0    0  0.10059988147E+01 -0.53783124801E+00 -0.30274515049E+00  0.90007766679E+02  0.90000028399E+02 0.  0.
        -12    1    1    2    0    0 -0.10059988147E+01  0.53783124801E+00  0.30274515049E+00  0.11802333212E+01  0.00000000000E+00 0.  1.
         11    1    3    3    0    0  0.84284018279E+01 -0.66614175497E+01  0.19520844159E+02  0.22281736874E+02  0.51100000000E-03 0. -1.
        -11    1    3    3    0    0  0.20453933723E+02  0.12392957081E+02 -0.29117435434E+02  0.37679886365E+02  0.51100000000E-03 0.  1.
         12    1    3    3    0    0 -0.27876336736E+02 -0.62693707796E+01  0.92938461245E+01  0.30046143440E+02  0.00000000000E+00 0. -1.
</event>
<event>
 7    1  0.2294706E-015  0.9000778E+02  0.7816164E-02  0.1186339E+00
        -11   -1    0    0    0    0  0.00000000000E+00  0.00000000000E+00  0.45593999997E+02  0.45594000000E+02  0.51100000000E-03 0.  1.
         11   -1    0    0    0    0 -0.00000000000E+00 -0.00000000000E+00 -0.45593999997E+02  0.45594000000E+02  0.51100000000E-03 0. -1.
    9900012    2    1    2    0    0  0.31132173488E+00 -0.73715614711E+00 -0.86751874909E+00  0.90007784262E+02  0.90000046214E+02 0.  0.
        -12    1    1    2    0    0 -0.31132173488E+00  0.73715614711E+00  0.86751874909E+00  0.11802157378E+01  0.00000000000E+00 0.  1.
         11    1    3    3    0    0 -0.15785946223E+02 -0.28386528074E+02  0.20614095420E+02  0.38469884384E+02  0.51100000000E-03 0. -1.
        -11    1    3    3    0    0 -0.87741663828E+01  0.35541864977E+01  0.20294228783E+01  0.96817764307E+01  0.51100000000E-03 0.  1.
        -12    1    3    3    0    0  0.24871434341E+02  0.24095185429E+02 -0.23511037047E+02  0.41856123448E+02  0.00000000000E+00 0.  1.
</event>
<event>
 7    1  0.2294706E-015  0.9000776E+02  0.7816164E-02  0.1186339E+00
        -11   -1    0    0    0    0  0.00000000000E+00  0.00000000000E+00  0.45593999997E+02  0.45594000000E+02  0.51100000000E-03 0. -1.
         11   -1    0    0    0    0 -0.00000000000E+00 -0.00000000000E+00 -0.45593999997E+02  0.45594000000E+02  0.51100000000E-03 0.  1.
    9900012    2    1    2    0    0 -0.44058019889E+00  0.81485111786E+00  0.73135774199E+00  0.90007755363E+02  0.90000016934E+02 0.  0.
        -12    1    1    2    0    0  0.44058019889E+00 -0.81485111786E+00 -0.73135774199E+00  0.11802446368E+01  0.00000000000E+00 0.  1.
         11    1    3    3    0    0 -0.18487572645E+00 -0.19156917482E+01  0.10664278884E+02  0.10836553801E+02  0.51100000000E-03 0. -1.
        -11    1    3    3    0    0 -0.33308993296E+02  0.14069276241E+02 -0.21854062143E+02  0.42249657995E+02  0.51100000000E-03 0.  1.
         12    1    3    3    0    0  0.33053288823E+02 -0.11338733375E+02  0.11921141001E+02  0.36921543567E+02  0.00000000000E+00 0. -1.
</event>
<event>
 7    1  0.2294706E-015  0.9000778E+02  0.7816164E-02  0.1186339E+00
        -11   -1    0    0    0    0  0.00000000000E+00  0.00000000000E+00  0.45593999997E+02  0.45594000000E+02  0.51100000000E-03 0.  1.
         11   -1    0    0    0    0 -0.00000000000E+00 -0.00000000000E+00 -0.45593999997E+02  0.45594000000E+02  0.51100000000E-03 0. -1.
    9900012    2    1    2    0    0  0.34955473858E+00  0.10137120312E+01 -0.49308202055E+00  0.90007775243E+02  0.90000037076E+02 0.  0.
        -12    1    1    2    0    0 -0.34955473858E+00 -0.10137120312E+01  0.49308202055E+00  0.11802247568E+01  0.00000000000E+00 0.  1.
         11    1    3    3    0    0 -0.10683593112E+01 -0.92557521657E+00 -0.40092714655E+02  0.40117625176E+02  0.51100000000E-03 0. -1.
        -11    1    3    3    0    0  0.20118926251E+01 -0.95333708769E+01  0.12096574967E+01  0.98181537843E+01  0.51100000000E-03 0.  1.
        -12    1    3    3    0    0 -0.59397857531E+00  0.11472658125E+02  0.38389975138E+02  0.40071996283E+02  0.00000000000E+00 0.  1.
</event>
<event>
 7    1  0.2294706E-015  0.9000776E+02  0.7816164E-02  0.1186339E+00
        -11   -1    0    0    0    0  0.00000000000E+00  0.00000000000E+00  0.45593999997E+02  0.45594000000E+02  0.51100000000E-03 0. -1.
         11   -1    0    0    0    0 -0.00000000000E+00 -0.00000000000E+00 -0.45593999997E+02  0.45594000000E+02  0.51100000000E-03 0.  1.
    9900012    2    1    2    0    0  0.10443005643E+01  0.12420082455E+00  0.53570637580E+00  0.90007758146E+02  0.90000019753E+02 0.  0.
        -12    1    1    2    0    0 -0.10443005643E+01 -0.12420082455E+00 -0.53570637580E+00  0.11802418543E+01  0.00000000000E+00 0.  1.
         11    1    3    3    0    0 -0.30690483670E+02 -0.26014162074E+02  0.26019389310E+01  0.40316404884E+02  0.51100000000E-03 0. -1.
        -11    1    3    3    0    0  0.11250919249E+01  0.11972544705E+02 -0.92924372784E+01  0.15197271117E+02  0.51100000000E-03 0.  1.
        -12    1    3    3    0    0  0.30609692309E+02  0.14165818194E+02  0.72262047232E+01  0.34494082145E+02  0.00000000000E+00 0.  1.
</event>
<event>
 7    1  0.2294706E-015  0.9000774E+02  0.7816164E-02  0.1186339E+00
        -11   -1    0    0    0    0  0.00000000000E+00  0.00000000000E+00  0.45593999997E+02  0.45594000000E+02  0.51100000000E-03 0.  1.
         11   -1    0    0    0    0 -0.00000000000E+00 -0.00000000000E+00 -0.45593999997E+02  0.45594000000E+02  0.51100000000E-03 0. -1.
    9900012    2    1    2    0    0  0.11249824017E+01 -0.84478948611E-01 -0.34683264885E+00  0.90007739443E+02  0.90000000803E+02 0.  0.
        -12    1    1    2    0    0 -0.11249824017E+01  0.84478948611E-01  0.34683264885E+00  0.11802605573E+01  0.00000000000E+00 0.  1.
         11    1    3    3    0    0 -0.24736705454E+02  0.18938822947E+02  0.21330591817E+02  0.37756824004E+02  0.51100000000E-03 0. -1.
        -11    1    3    3    0    0 -0.77198819808E+01  0.12649366194E+01 -0.65441928527E+01  0.10199171672E+02  0.51100000000E-03 0.  1.
        -12    1    3    3    0    0  0.33581569836E+02 -0.20288238515E+02 -0.15133231614E+02  0.42051743766E+02  0.00000000000E+00 0.  1.
</event>
<event>
 7    1  0.2294706E-015  0.9000778E+02  0.7816164E-02  0.1186339E+00
        -11   -1    0    0    0    0  0.00000000000E+00  0.00000000000E+00  0.45593999997E+02  0.45594000000E+02  0.51100000000E-03 0. -1.
         11   -1    0    0    0    0 -0.00000000000E+00 -0.00000000000E+00 -0.45593999997E+02  0.45594000000E+02  0.51100000000E-03 0.  1.
    9900012    2    1    2    0    0  0.29680061800E+00  0.74454836575E+00  0.86630610096E+00  0.90007775811E+02  0.90000037652E+02 0.  0.
        -12    1    1    2    0    0 -0.29680061800E+00 -0.74454836575E+00 -0.86630610096E+00  0.11802241890E+01  0.00000000000E+00 0.  1.
         11    1    3    3    0    0  0.89437293731E+01  0.37714098957E+02  0.11888362842E+02  0.40542283193E+02  0.51100000000E-03 0. -1.
        -11    1    3    3    0    0 -0.25957265310E+01  0.17591731483E+01  0.59692381028E+01  0.67427212740E+01  0.51100000000E-03 0.  1.
        -12    1    3    3    0    0 -0.60512022241E+01 -0.38728723739E+02 -0.16991294843E+02  0.42722771344E+02  0.00000000000E+00 0.  1.
</event>
<event>
 7    1  0.2294706E-015  0.9000772E+02  0.7816164E-02  0.1186339E+00
        -11   -1    0    0    0    0  0.00000000000E+00  0.00000000000E+00  0.45593999997E+02  0.45594000000E+02  0.51100000000E-03 0. -1.
         11   -1    0    0    0    0 -0.00000000000E+00 -0.00000000000E+00 -0.45593999997E+02  0.45594000000E+02  0.51100000000E-03 0.  1.
    9900012    2    1    2    0    0 -0.50871419810E+00 -0.96558855495E+00  0.44933956240E+00  0.90007721459E+02  0.89999982582E+02 0.  0.
        -12    1    1    2    0    0  0.50871419810E+00  0.96558855495E+00 -0.44933956240E+00  0.11802785413E+01  0.00000000000E+00 0.  1.
         11    1    3    3    0    0  0.46819684317E+00 -0.80386873697E+01 -0.61237601628E+01  0.10116330447E+02  0.51100000000E-03 0. -1.
        -11    1    3    3    0    0  0.14847218546E+02  0.17730306397E+02 -0.30453324743E+02  0.38238836954E+02  0.51100000000E-03 0.  1.
         12    1    3    3    0    0 -0.15824129588E+02 -0.10657207582E+02  0.37026424468E+02  0.41652554058E+02  0.00000000000E+00 0. -1.
</event>
<event>
 7    1  0.2294706E-015  0.9000770E+02  0.7816164E-02  0.1186339E+00
        -11   -1    0    0    0    0  0.00000000000E+00  0.00000000000E+00  0.45593999997E+02  0.45594000000E+02  0.51100000000E-03 0.  1.
         11   -1    0    0    0    0 -0.00000000000E+00 -0.00000000000E+00 -0.45593999997E+02  0.45594000000E+02  0.51100000000E-03 0. -1.
    9900012    2    1    2    0    0 -0.80821233520E+00  0.62188856337E+00 -0.59426777788E+00  0.90007700565E+02  0.89999961413E+02 0.  0.
        -12    1    1    2    0    0  0.80821233520E+00 -0.62188856337E+00  0.59426777788E+00  0.11802994348E+01  0.00000000000E+00 0.  1.
         11    1    3    3    0    0 -0.58801682484E+01  0.95369153895E+00  0.80976462731E+01  0.10052749952E+02  0.51100000000E-03 0. -1.
        -11    1    3    3    0    0 -0.46533002123E+01  0.14716714784E+02  0.31980722192E+02  0.35510582776E+02  0.51100000000E-03 0.  1.
         12    1    3    3    0    0  0.97252561256E+01 -0.15048517760E+02 -0.40672636243E+02  0.44444367837E+02  0.00000000000E+00 0. -1.
</event>
<event>
 7    1  0.2294706E-015  0.9000767E+02  0.7816164E-02  0.1186339E+00
        -11   -1    0    0    0    0  0.00000000000E+00  0.00000000000E+00  0.45593999997E+02  0.45594000000E+02  0.51100000000E-03 0. -1.
         11   -1    0    0    0    0 -0.00000000000E+00 -0.00000000000E+00 -0.45593999997E+02  0.45594000000E+02  0.51100000000E-03 0.  1.
    9900012    2    1    2    0    0 -0.20284300969E+00  0.37635258927E+00  0.11001737973E+01  0.90007674222E+02  0.89999934722E+02 0.  0.
        -12    1    1    2    0    0  0.20284300969E+00 -0.37635258927E+00 -0.11001737973E+01  0.11803257781E+01  0.00000000000E+00 0.  1.
         11    1    3    3    0    0 -0.25347686663E+02  0.23765246901E+02 -0.15143243221E+02  0.37902638364E+02  0.51100000000E-03 0. -1.
        -11    1    3    3    0    0  0.14344668335E+02 -0.21276203225E+02 -0.68196165416E+01  0.26550960498E+02  0.51100000000E-03 0.  1.
        -12    1    3    3    0    0  0.10800175318E+02 -0.21126910859E+01  0.23063033560E+02  0.25554075360E+02  0.00000000000E+00 0.  1.
</event>
<event>
 7    1  0.2294706E-015  0.9000696E+02  0.7816164E-02  0.1186341E+00
        -11   -1    0    0    0    0  0.00000000000E+00  0.00000000000E+00  0.45593999997E+02  0.45594000000E+02  0.51100000000E-03 0.  1.
         11   -1    0    0    0    0 -0.00000000000E+00 -0.00000000000E+00 -0.45593999997E+02  0.45594000000E+02  0.51100000000E-03 0. -1.
    9900012    2    1    2    0    0  0.60629139328E+00 -0.33003315570E+00 -0.95830491390E+00  0.90006958322E+02  0.89999209368E+02 0.  0.
        -12    1    1    2    0    0 -0.60629139328E+00  0.33003315570E+00  0.95830491390E+00  0.11810416781E+01  0.00000000000E+00 0.  1.
         11    1    3    3    0    0  0.54633831500E+01 -0.40855080135E+02 -0.90221510017E+01  0.42194612657E+02  0.51100000000E-03 0. -1.
        -11    1    3    3    0    0  0.77237982625E+01  0.47406143055E+01  0.29890983411E+01  0.95428084308E+01  0.51100000000E-03 0.  1.
        -12    1    3    3    0    0 -0.12580890019E+02  0.35784432674E+02  0.50747477467E+01  0.38269537235E+02  0.00000000000E+00 0.  1.
</event>
<event>
 7    1  0.2294706E-015  0.9000776E+02  0.7816164E-02  0.1186339E+00
        -11   -1    0    0    0    0  0.00000000000E+00  0.00000000000E+00  0.45593999997E+02  0.45594000000E+02  0.51100000000E-03 0. -1.
         11   -1    0    0    0    0 -0.00000000000E+00 -0.00000000000E+00 -0.45593999997E+02  0.45594000000E+02  0.51100000000E-03 0.  1.
    9900012    2    1    2    0    0 -0.57116352055E+00 -0.10307215214E+01 -0.65949589140E-01  0.90007761054E+02  0.90000022700E+02 0.  0.
        -12    1    1    2    0    0  0.57116352055E+00  0.10307215214E+01  0.65949589140E-01  0.11802389462E+01  0.00000000000E+00 0.  1.
         11    1    3    3    0    0 -0.15169319731E+02  0.79274445395E+01  0.11628436955E+02  0.20692346032E+02  0.51100000000E-03 0. -1.
        -11    1    3    3    0    0 -0.20268556601E+02 -0.27859548058E+01  0.14665239493E+02  0.25172309797E+02  0.51100000000E-03 0.  1.
        -12    1    3    3    0    0  0.34866712812E+02 -0.61722112552E+01 -0.26359626037E+02  0.44143105225E+02  0.00000000000E+00 0.  1.
</event>
<event>
 7    1  0.2294706E-015  0.9000791E+02  0.7816164E-02  0.1186339E+00
        -11   -1    0    0    0    0  0.00000000000E+00  0.00000000000E+00  0.45593999997E+02  0.45594000000E+02  0.51100000000E-03 0.  1.
         11   -1    0    0    0    0 -0.00000000000E+00 -0.00000000000E+00 -0.45593999997E+02  0.45594000000E+02  0.51100000000E-03 0. -1.
    9900012    2    1    2    0    0  0.10797446152E+00  0.85515936908E+00  0.80601936713E+00  0.90007905406E+02  0.90000168957E+02 0.  0.
        -12    1    1    2    0    0 -0.10797446152E+00 -0.85515936908E+00 -0.80601936713E+00  0.11800945941E+01  0.00000000000E+00 0.  1.
         11    1    3    3    0    0 -0.27068523798E+02  0.91615095614E+00 -0.26602420898E+02  0.37963576111E+02  0.51100000000E-03 0. -1.
        -11    1    3    3    0    0 -0.83596797465E+01  0.19815992138E+01  0.43115007707E+01  0.96124929163E+01  0.51100000000E-03 0.  1.
        -12    1    3    3    0    0  0.35536178006E+02 -0.20425908009E+01  0.23096939495E+02  0.42431836379E+02  0.00000000000E+00 0.  1.
</event>
<event>
 7    1  0.2294706E-015  0.9000776E+02  0.7816164E-02  0.1186339E+00
        -11   -1    0    0    0    0  0.00000000000E+00  0.00000000000E+00  0.45593999997E+02  0.45594000000E+02  0.51100000000E-03 0.  1.
         11   -1    0    0    0    0 -0.00000000000E+00 -0.00000000000E+00 -0.45593999997E+02  0.45594000000E+02  0.51100000000E-03 0. -1.
    9900012    2    1    2    0    0 -0.52972023436E+00  0.90151765831E+00 -0.54738197566E+00  0.90007760769E+02  0.90000022411E+02 0.  0.
        -12    1    1    2    0    0  0.52972023436E+00 -0.90151765831E+00  0.54738197566E+00  0.11802392309E+01  0.00000000000E+00 0.  1.
         11    1    3    3    0    0 -0.13612347129E+02 -0.27065782108E+02 -0.21066888054E+02  0.36900763244E+02  0.51100000000E-03 0. -1.
        -11    1    3    3    0    0  0.30264261345E+01 -0.37494586343E+01 -0.79635656778E+01  0.93078501150E+01  0.51100000000E-03 0.  1.
        -12    1    3    3    0    0  0.10056200760E+02  0.31716758400E+02  0.28483071756E+02  0.43799147410E+02  0.00000000000E+00 0.  1.
</event>
<event>
 7    1  0.2294706E-015  0.9000759E+02  0.7816164E-02  0.1186339E+00
        -11   -1    0    0    0    0  0.00000000000E+00  0.00000000000E+00  0.45593999997E+02  0.45594000000E+02  0.51100000000E-03 0. -1.
         11   -1    0    0    0    0 -0.00000000000E+00 -0.00000000000E+00 -0.45593999997E+02  0.45594000000E+02  0.51100000000E-03 0.  1.
    9900012    2    1    2    0    0 -0.70947504397E+00 -0.58337205997E+00  0.74141703328E+00  0.90007586083E+02  0.89999845419E+02 0.  0.
        -12    1    1    2    0    0  0.70947504397E+00  0.58337205997E+00 -0.74141703328E+00  0.11804139171E+01  0.00000000000E+00 0.  1.
         11    1    3    3    0    0 -0.23396157864E+00  0.50815469054E+00 -0.88922203201E+01  0.89098003172E+01  0.51100000000E-03 0. -1.
        -11    1    3    3    0    0 -0.34565777072E+02  0.18172585188E+02  0.14463930932E+02  0.41644220431E+02  0.51100000000E-03 0.  1.
         12    1    3    3    0    0  0.34090263607E+02 -0.19264111939E+02 -0.48302935785E+01  0.39453565335E+02  0.00000000000E+00 0. -1.
</event>
<event>
 7    1  0.2294706E-015  0.9000778E+02  0.7816164E-02  0.1186339E+00
        -11   -1    0    0    0    0  0.00000000000E+00  0.00000000000E+00  0.45593999997E+02  0.45594000000E+02  0.51100000000E-03 0.  1.
         11   -1    0    0    0    0 -0.00000000000E+00 -0.00000000000E+00 -0.45593999997E+02  0.45594000000E+02  0.51100000000E-03 0. -1.
    9900012    2    1    2    0    0 -0.98054726912E+00 -0.36231460796E+00  0.54788982398E+00  0.90007776258E+02  0.90000038105E+02 0.  0.
        -12    1    1    2    0    0  0.98054726912E+00  0.36231460796E+00 -0.54788982398E+00  0.11802237421E+01  0.00000000000E+00 0.  1.
         11    1    3    3    0    0 -0.39353981169E+01 -0.28262110541E+02 -0.25947723877E+02  0.38568363010E+02  0.51100000000E-03 0. -1.
        -11    1    3    3    0    0  0.31807903715E+01 -0.59466558652E+01 -0.21701708559E+01  0.70844749398E+01  0.51100000000E-03 0.  1.
        -12    1    3    3    0    0 -0.22593952372E+00  0.33846451799E+02  0.28665784557E+02  0.44354938308E+02  0.00000000000E+00 0.  1.
</event>
<event>
 7    1  0.2445501E-015  0.9000788E+02  0.7816164E-02  0.1186339E+00
        -11   -1    0    0    0    0  0.00000000000E+00  0.00000000000E+00  0.45593999997E+02  0.45594000000E+02  0.51100000000E-03 0. -1.
         11   -1    0    0    0    0 -0.00000000000E+00 -0.00000000000E+00 -0.45593999997E+02  0.45594000000E+02  0.51100000000E-03 0.  1.
    9900012    2    1    2    0    0 -0.58257910378E+00  0.34453092582E+00  0.96674117479E+00  0.90007877773E+02  0.90000140960E+02 0.  0.
        -12    1    1    2    0    0  0.58257910378E+00 -0.34453092582E+00 -0.96674117479E+00  0.11801222267E+01  0.00000000000E+00 0.  1.
         11    1    3    3    0    0 -0.33046117384E+02  0.17929354815E+02 -0.36274458175E+01  0.37771232462E+02  0.51100000000E-03 0. -1.
        -11    1    3    3    0    0 -0.40503255505E+01  0.12567348569E+01 -0.81751503044E+01  0.92096472423E+01  0.51100000000E-03 0.  1.
        -12    1    3    3    0    0  0.36513863831E+02 -0.18841558746E+02  0.12769337297E+02  0.43026998069E+02  0.00000000000E+00 0.  1.
</event>
<event>
 7    1  0.2822881E-015  0.9000778E+02  0.7816164E-02  0.1186339E+00
        -11   -1    0    0    0    0  0.00000000000E+00  0.00000000000E+00  0.45593999997E+02  0.45594000000E+02  0.51100000000E-03 0. -1.
         11   -1    0    0    0    0 -0.00000000000E+00 -0.00000000000E+00 -0.45593999997E+02  0.45594000000E+02  0.51100000000E-03 0.  1.
    9900012    2    1    2    0    0 -0.75438188641E+00 -0.48383399986E-01  0.90635759916E+00  0.90007780918E+02  0.90000042826E+02 0.  0.
        -12    1    1    2    0    0  0.75438188641E+00  0.48383399986E-01 -0.90635759916E+00  0.11802190820E+01  0.00000000000E+00 0.  1.
         11    1    3    3    0    0  0.31250486604E+01  0.18184895662E+02  0.38326265631E+02  0.42536560708E+02  0.51100000000E-03 0. -1.
        -11    1    3    3    0    0 -0.35229267295E+01 -0.96070904997E+01 -0.12776735884E+01  0.10312111843E+02  0.51100000000E-03 0.  1.
        -12    1    3    3    0    0 -0.35650381728E+00 -0.86261885624E+01 -0.36142234443E+02  0.37159108367E+02  0.00000000000E+00 0.  1.
</event>
<event>
 7    1  0.2294706E-015  0.9000763E+02  0.7816164E-02  0.1186339E+00
        -11   -1    0    0    0    0  0.00000000000E+00  0.00000000000E+00  0.45593999997E+02  0.45594000000E+02  0.51100000000E-03 0.  1.
         11   -1    0    0    0    0 -0.00000000000E+00 -0.00000000000E+00 -0.45593999997E+02  0.45594000000E+02  0.51100000000E-03 0. -1.
    9900012    2    1    2    0    0 -0.86364406251E+00  0.19375868718E+00 -0.78092221399E+00  0.90007634379E+02  0.89999894352E+02 0.  0.
        -12    1    1    2    0    0  0.86364406251E+00 -0.19375868718E+00  0.78092221399E+00  0.11803656213E+01  0.00000000000E+00 0.  1.
         11    1    3    3    0    0 -0.55565200210E+00 -0.38943627253E+01 -0.74714557806E+01  0.84437824419E+01  0.51100000000E-03 0. -1.
        -11    1    3    3    0    0 -0.18145160731E+01  0.42457465582E+02 -0.49149205191E+00  0.42499063718E+02  0.51100000000E-03 0.  1.
         12    1    3    3    0    0  0.15065240127E+01 -0.38369344169E+02  0.71820256185E+01  0.39064788219E+02  0.00000000000E+00 0. -1.
</event>
<event>
 7    1  0.2294706E-015  0.9000780E+02  0.7816164E-02  0.1186339E+00
        -11   -1    0    0    0    0  0.00000000000E+00  0.00000000000E+00  0.45593999997E+02  0.45594000000E+02  0.51100000000E-03 0. -1.
         11   -1    0    0    0    0 -0.00000000000E+00 -0.00000000000E+00 -0.45593999997E+02  0.45594000000E+02  0.51100000000E-03 0.  1.
    9900012    2    1    2    0    0 -0.33239872780E+00  0.11187188748E+01 -0.17564899583E+00  0.90007799422E+02  0.90000061574E+02 0.  0.
        -12    1    1    2    0    0  0.33239872780E+00 -0.11187188748E+01  0.17564899583E+00  0.11802005782E+01  0.00000000000E+00 0.  1.
         11    1    3    3    0    0  0.48217723521E-01  0.57865529844E+01  0.36352633677E+02  0.36810331374E+02  0.51100000000E-03 0. -1.
        -11    1    3    3    0    0  0.42914097446E+01  0.65888322994E+01  0.53966768648E+01  0.95369298052E+01  0.51100000000E-03 0.  1.
        -12    1    3    3    0    0 -0.46720261959E+01 -0.11256666409E+02 -0.41924959537E+02  0.43660538242E+02  0.00000000000E+00 0.  1.
</event>
<event>
 7    1  0.2294706E-015  0.9000773E+02  0.7816164E-02  0.1186339E+00
        -11   -1    0    0    0    0  0.00000000000E+00  0.00000000000E+00  0.45593999997E+02  0.45594000000E+02  0.51100000000E-03 0.  1.
         11   -1    0    0    0    0 -0.00000000000E+00 -0.00000000000E+00 -0.45593999997E+02  0.45594000000E+02  0.51100000000E-03 0. -1.
    9900012    2    1    2    0    0  0.38281428707E-01  0.84368693440E+00 -0.82448272208E+00  0.90007726782E+02  0.89999987975E+02 0.  0.
        -12    1    1    2    0    0 -0.38281428707E-01 -0.84368693440E+00  0.82448272208E+00  0.11802732184E+01  0.00000000000E+00 0.  1.
         11    1    3    3    0    0 -0.46461651536E+01  0.11011311227E+02  0.14165693681E+01  0.12035052746E+02  0.51100000000E-03 0. -1.
        -11    1    3    3    0    0  0.14949315500E+02 -0.26138993112E+02  0.28747215862E+02  0.41630894957E+02  0.51100000000E-03 0.  1.
         12    1    3    3    0    0 -0.10264868918E+02  0.15971368820E+02 -0.30988267952E+02  0.36341779078E+02  0.00000000000E+00 0. -1.
</event>
<event>
 7    1  0.2294706E-015  0.9000777E+02  0.7816164E-02  0.1186339E+00
        -11   -1    0    0    0    0  0.00000000000E+00  0.00000000000E+00  0.45593999997E+02  0.45594000000E+02  0.51100000000E-03 0.  1.
         11   -1    0    0    0    0 -0.00000000000E+00 -0.00000000000E+00 -0.45593999997E+02  0.45594000000E+02  0.51100000000E-03 0. -1.
    9900012    2    1    2    0    0  0.57482621954E+00 -0.90304834458E+00 -0.49702384014E+00  0.90007765196E+02  0.90000026896E+02 0.  0.
        -12    1    1    2    0    0 -0.57482621954E+00  0.90304834458E+00  0.49702384014E+00  0.11802348042E+01  0.00000000000E+00 0.  1.
         11    1    3    3    0    0  0.17084666309E+02  0.27412678589E+02 -0.17294490420E+02  0.36639325451E+02  0.51100000000E-03 0. -1.
        -11    1    3    3    0    0  0.11284634552E+02 -0.17155144588E+01  0.78981428414E+01  0.13880440463E+02  0.51100000000E-03 0.  1.
        -12    1    3    3    0    0 -0.27794474642E+02 -0.26600212475E+02  0.88993237389E+01  0.39487999282E+02  0.00000000000E+00 0.  1.
</event>
<event>
 7    1  0.2294706E-015  0.9000764E+02  0.7816164E-02  0.1186339E+00
        -11   -1    0    0    0    0  0.00000000000E+00  0.00000000000E+00  0.45593999997E+02  0.45594000000E+02  0.51100000000E-03 0.  1.
         11   -1    0    0    0    0 -0.00000000000E+00 -0.00000000000E+00 -0.45593999997E+02  0.45594000000E+02  0.51100000000E-03 0. -1.
    9900012    2    1    2    0    0 -0.41252352481E+00  0.11049343364E+01  0.46881118730E-01  0.90007638451E+02  0.89999898479E+02 0.  0.
        -12    1    1    2    0    0  0.41252352481E+00 -0.11049343364E+01 -0.46881118730E-01  0.11803615487E+01  0.00000000000E+00 0.  1.
         11    1    3    3    0    0 -0.93226958169E+01 -0.26897333840E+01 -0.91067184042E+00  0.97455962585E+01  0.51100000000E-03 0. -1.
        -11    1    3    3    0    0  0.14402111594E+02  0.17513903637E+01  0.39082978900E+02  0.41688936500E+02  0.51100000000E-03 0.  1.
         12    1    3    3    0    0 -0.54919393019E+01  0.20432773568E+01 -0.38125425940E+02  0.38573105693E+02  0.00000000000E+00 0. -1.
</event>
<event>
 7    1  0.2294706E-015  0.9000744E+02  0.7816164E-02  0.1186340E+00
        -11   -1    0    0    0    0  0.00000000000E+00  0.00000000000E+00  0.45593999997E+02  0.45594000000E+02  0.51100000000E-03 0. -1.
         11   -1    0    0    0    0 -0.00000000000E+00 -0.00000000000E+00 -0.45593999997E+02  0.45594000000E+02  0.51100000000E-03 0.  1.
    9900012    2    1    2    0    0  0.65931145879E-01 -0.52159396139E+00  0.10570320620E+01  0.90007439135E+02  0.89999696531E+02 0.  0.
        -12    1    1    2    0    0 -0.65931145879E-01  0.52159396139E+00 -0.10570320620E+01  0.11805608653E+01  0.00000000000E+00 0.  1.
         11    1    3    3    0    0 -0.22600493401E+02 -0.12354834869E+02  0.12515646354E+02  0.28636788412E+02  0.51100000000E-03 0. -1.
        -11    1    3    3    0    0 -0.14121011424E+02  0.80191894011E+01  0.95465446484E+01  0.18837379788E+02  0.51100000000E-03 0.  1.
        -12    1    3    3    0    0  0.36787435972E+02  0.38140515067E+01 -0.21005158941E+02  0.42533270934E+02  0.00000000000E+00 0.  1.
</event>
<event>
 7    1  0.2294706E-015  0.9000777E+02  0.7816164E-02  0.1186339E+00
        -11   -1    0    0    0    0  0.00000000000E+00  0.00000000000E+00  0.45593999997E+02  0.45594000000E+02  0.51100000000E-03 0. -1.
         11   -1    0    0    0    0 -0.00000000000E+00 -0.00000000000E+00 -0.45593999997E+02  0.45594000000E+02  0.51100000000E-03 0.  1.
    9900012    2    1    2    0    0  0.64838085525E-01  0.10912984316E+01  0.44474821925E+00  0.90007772385E+02  0.90000034181E+02 0.  0.
        -12    1    1    2    0    0 -0.64838085525E-01 -0.10912984316E+01 -0.44474821925E+00  0.11802276147E+01  0.00000000000E+00 0.  1.
         11    1    3    3    0    0 -0.97786647226E+01 -0.13752163019E+01  0.24088421582E+01  0.10164449047E+02  0.51100000000E-03 0. -1.
        -11    1    3    3    0    0 -0.17497650136E+02  0.20208763034E+02 -0.27564990489E+02  0.38397793745E+02  0.51100000000E-03 0.  1.
         12    1    3    3    0    0  0.27341152944E+02 -0.17742248300E+02  0.25600896550E+02  0.41445529592E+02  0.00000000000E+00 0. -1.
</event>
<event>
 7    1  0.2294706E-015  0.9000794E+02  0.7816164E-02  0.1186339E+00
        -11   -1    0    0    0    0  0.00000000000E+00  0.00000000000E+00  0.45593999997E+02  0.45594000000E+02  0.51100000000E-03 0. -1.
         11   -1    0    0    0    0 -0.00000000000E+00 -0.00000000000E+00 -0.45593999997E+02  0.45594000000E+02  0.51100000000E-03 0.  1.
    9900012    2    1    2    0    0  0.80198854344E+00  0.76979965101E+00  0.39593298497E+00  0.90007940656E+02  0.90000204673E+02 0.  0.
        -12    1    1    2    0    0 -0.80198854344E+00 -0.76979965101E+00 -0.39593298497E+00  0.11800593439E+01  0.00000000000E+00 0.  1.
         11    1    3    3    0    0  0.67023898720E+01  0.69072287247E+01  0.16038394351E+02  0.18704596554E+02  0.51100000000E-03 0. -1.
        -11    1    3    3    0    0  0.17830150121E+02  0.16461215216E+02  0.13221069029E+02  0.27634806427E+02  0.51100000000E-03 0.  1.
        -12    1    3    3    0    0 -0.23730551449E+02 -0.22598644290E+02 -0.28863530394E+02  0.43668537675E+02  0.00000000000E+00 0.  1.
</event>
<event>
 7    1  0.2294706E-015  0.9000771E+02  0.7816164E-02  0.1186339E+00
        -11   -1    0    0    0    0  0.00000000000E+00  0.00000000000E+00  0.45593999997E+02  0.45594000000E+02  0.51100000000E-03 0. -1.
         11   -1    0    0    0    0 -0.00000000000E+00 -0.00000000000E+00 -0.45593999997E+02  0.45594000000E+02  0.51100000000E-03 0.  1.
    9900012    2    1    2    0    0 -0.35619703558E+00 -0.75008026119E+00  0.83880476667E+00  0.90007707594E+02  0.89999968535E+02 0.  0.
        -12    1    1    2    0    0  0.35619703558E+00  0.75008026119E+00 -0.83880476667E+00  0.11802924057E+01  0.00000000000E+00 0.  1.
         11    1    3    3    0    0 -0.36593884658E+02  0.13431748095E+02  0.54498874418E+01  0.39360202294E+02  0.51100000000E-03 0. -1.
        -11    1    3    3    0    0 -0.54140966169E+01 -0.57769000900E+01 -0.10693482078E+00  0.79181091268E+01  0.51100000000E-03 0.  1.
        -12    1    3    3    0    0  0.41651784239E+02 -0.84049282664E+01 -0.45041478544E+01  0.42729396174E+02  0.00000000000E+00 0.  1.
</event>
<event>
 7    1  0.2294706E-015  0.9000757E+02  0.7816164E-02  0.1186339E+00
        -11   -1    0    0    0    0  0.00000000000E+00  0.00000000000E+00  0.45593999997E+02  0.45594000000E+02  0.51100000000E-03 0. -1.
         11   -1    0    0    0    0 -0.00000000000E+00 -0.00000000000E+00 -0.45593999997E+02  0.45594000000E+02  0.51100000000E-03 0.  1.
    9900012    2    1    2    0    0 -0.64148526068E+00 -0.43687759493E+00  0.88940757375E+00  0.90007571601E+02  0.89999830746E+02 0.  0.
        -12    1    1    2    0    0  0.64148526068E+00  0.43687759493E+00 -0.88940757375E+00  0.11804283989E+01  0.00000000000E+00 0.  1.
         11    1    3    3    0    0 -0.31248317421E+02  0.11700288592E+02  0.18487589693E+02  0.38146363755E+02  0.51100000000E-03 0. -1.
        -11    1    3    3    0    0 -0.79329388383E+01 -0.54750327345E+01 -0.42570605551E+01  0.10537080568E+02  0.51100000000E-03 0.  1.
        -12    1    3    3    0    0  0.38539770999E+02 -0.66621334523E+01 -0.13341121564E+02  0.41324127279E+02  0.00000000000E+00 0.  1.
</event>
<event>
 7    1  0.2294706E-015  0.9000774E+02  0.7816164E-02  0.1186339E+00
        -11   -1    0    0    0    0  0.00000000000E+00  0.00000000000E+00  0.45593999997E+02  0.45594000000E+02  0.51100000000E-03 0. -1.
         11   -1    0    0    0    0 -0.00000000000E+00 -0.00000000000E+00 -0.45593999997E+02  0.45594000000E+02  0.51100000000E-03 0.  1.
    9900012    2    1    2    0    0 -0.46951163960E+00 -0.10646406123E+01 -0.19774226678E+00  0.90007744597E+02  0.90000006025E+02 0.  0.
        -12    1    1    2    0    0  0.46951163960E+00  0.10646406123E+01  0.19774226678E+00  0.11802554034E+01  0.00000000000E+00 0.  1.
         11    1    3    3    0    0  0.47519562747E+01 -0.89281730206E+01  0.42409235423E+01  0.10967168945E+02  0.51100000000E-03 0. -1.
        -11    1    3    3    0    0  0.31095568134E+01 -0.31438489190E+02 -0.18338447143E+02  0.36528709121E+02  0.51100000000E-03 0.  1.
         12    1    3    3    0    0 -0.83310247277E+01  0.39302021599E+02  0.13899781334E+02  0.42511866530E+02  0.00000000000E+00 0. -1.
</event>
<event>
 7    1  0.2294706E-015  0.9000763E+02  0.7816164E-02  0.1186339E+00
        -11   -1    0    0    0    0  0.00000000000E+00  0.00000000000E+00  0.45593999997E+02  0.45594000000E+02  0.51100000000E-03 0.  1.
         11   -1    0    0    0    0 -0.00000000000E+00 -0.00000000000E+00 -0.45593999997E+02  0.45594000000E+02  0.51100000000E-03 0. -1.
    9900012    2    1    2    0    0 -0.47202219011E+00 -0.95038648993E+00  0.51693681999E+00  0.90007634335E+02  0.89999894308E+02 0.  0.
        -12    1    1    2    0    0  0.47202219011E+00  0.95038648993E+00 -0.51693681999E+00  0.11803656654E+01  0.00000000000E+00 0.  1.
         11    1    3    3    0    0 -0.12079610037E+02  0.29167102108E+01 -0.40821639514E+02  0.42671189695E+02  0.51100000000E-03 0. -1.
        -11    1    3    3    0    0  0.32704140875E+01  0.66297650603E+01  0.59353520873E+01  0.94803901671E+01  0.51100000000E-03 0.  1.
        -12    1    3    3    0    0  0.83371737590E+01 -0.10496861761E+02  0.35403224247E+02  0.37856054472E+02  0.00000000000E+00 0.  1.
</event>
<event>
 7    1  0.2294706E-015  0.9000775E+02  0.7816164E-02  0.1186339E+00
        -11   -1    0    0    0    0  0.00000000000E+00  0.00000000000E+00  0.45593999997E+02  0.45594000000E+02  0.51100000000E-03 0. -1.
         11   -1    0    0    0    0 -0.00000000000E+00 -0.00000000000E+00 -0.45593999997E+02  0.45594000000E+02  0.51100000000E-03 0.  1.
    9900012    2    1    2    0    0 -0.90914382228E-01  0.11059257579E+01  0.40204705830E+00  0.90007754668E+02  0.90000016229E+02 0.  0.
        -12    1    1    2    0    0  0.90914382228E-01 -0.11059257579E+01 -0.40204705830E+00  0.11802453321E+01  0.00000000000E+00 0.  1.
         11    1    3    3    0    0 -0.88637320868E+01 -0.85655559013E+01 -0.54855430647E+01  0.13491689197E+02  0.51100000000E-03 0. -1.
        -11    1    3    3    0    0 -0.25729107054E+01  0.20481127249E+02 -0.30539437332E+02  0.36861276099E+02  0.51100000000E-03 0.  1.
         12    1    3    3    0    0  0.11345728410E+02 -0.10809645589E+02  0.36427027455E+02  0.39654789372E+02  0.00000000000E+00 0. -1.
</event>
<event>
 7    1  0.2294706E-015  0.9000782E+02  0.7816164E-02  0.1186339E+00
        -11   -1    0    0    0    0  0.00000000000E+00  0.00000000000E+00  0.45593999997E+02  0.45594000000E+02  0.51100000000E-03 0. -1.
         11   -1    0    0    0    0 -0.00000000000E+00 -0.00000000000E+00 -0.45593999997E+02  0.45594000000E+02  0.51100000000E-03 0.  1.
    9900012    2    1    2    0    0 -0.12918435588E+00 -0.53641114511E+00  0.10432638437E+01  0.90007819945E+02  0.90000082368E+02 0.  0.
        -12    1    1    2    0    0  0.12918435588E+00  0.53641114511E+00 -0.10432638437E+01  0.11801800549E+01  0.00000000000E+00 0.  1.
         11    1    3    3    0    0  0.32651432950E+02 -0.25391847070E+02  0.89081724595E+01  0.42310962033E+02  0.51100000000E-03 0. -1.
        -11    1    3    3    0    0 -0.57516833307E+01  0.14142007335E+01 -0.10251433150E+02  0.11839497741E+02  0.51100000000E-03 0.  1.
        -12    1    3    3    0    0 -0.27028933975E+02  0.23441235191E+02  0.23865245346E+01  0.35857360172E+02  0.00000000000E+00 0.  1.
</event>
<event>
 7    1  0.2294706E-015  0.9000771E+02  0.7816164E-02  0.1186339E+00
        -11   -1    0    0    0    0  0.00000000000E+00  0.00000000000E+00  0.45593999997E+02  0.45594000000E+02  0.51100000000E-03 0. -1.
         11   -1    0    0    0    0 -0.00000000000E+00 -0.00000000000E+00 -0.45593999997E+02  0.45594000000E+02  0.51100000000E-03 0.  1.
    9900012    2    1    2    0    0  0.37182422609E+00 -0.19685962099E+00  0.11027611037E+01  0.90007708080E+02  0.89999969026E+02 0.  0.
        -12    1    1    2    0    0 -0.37182422609E+00  0.19685962099E+00 -0.11027611037E+01  0.11802919204E+01  0.00000000000E+00 0.  1.
         11    1    3    3    0    0  0.46909437001E+01 -0.32519878914E+02 -0.10010775689E+02  0.34347679799E+02  0.51100000000E-03 0. -1.
        -11    1    3    3    0    0  0.64268191442E+01 -0.93877499093E+01  0.36301245858E+01  0.11942012286E+02  0.51100000000E-03 0.  1.
        -12    1    3    3    0    0 -0.10745938618E+02  0.41710769203E+02  0.74834122070E+01  0.43718015995E+02  0.00000000000E+00 0.  1.
</event>
<event>
 7    1  0.2294706E-015  0.9000771E+02  0.7816164E-02  0.1186339E+00
        -11   -1    0    0    0    0  0.00000000000E+00  0.00000000000E+00  0.45593999997E+02  0.45594000000E+02  0.51100000000E-03 0. -1.
         11   -1    0    0    0    0 -0.00000000000E+00 -0.00000000000E+00 -0.45593999997E+02  0.45594000000E+02  0.51100000000E-03 0.  1.
    9900012    2    1    2    0    0 -0.60850989299E+00  0.99686675548E+00  0.17047493819E+00  0.90007707950E+02  0.89999968895E+02 0.  0.
        -12    1    1    2    0    0  0.60850989299E+00 -0.99686675548E+00 -0.17047493819E+00  0.11802920497E+01  0.00000000000E+00 0.  1.
         11    1    3    3    0    0 -0.95851330222E+01 -0.42563844766E+00  0.36161274959E+00  0.96013908984E+01  0.51100000000E-03 0. -1.
        -11    1    3    3    0    0 -0.20221181985E+01 -0.35252830053E+02 -0.16269242990E+02  0.38878519216E+02  0.51100000000E-03 0.  1.
         12    1    3    3    0    0  0.10998741328E+02  0.36675335256E+02  0.16078105178E+02  0.41527797835E+02  0.00000000000E+00 0. -1.
</event>
<event>
 7    1  0.2294706E-015  0.9000743E+02  0.7816164E-02  0.1186340E+00
        -11   -1    0    0    0    0  0.00000000000E+00  0.00000000000E+00  0.45593999997E+02  0.45594000000E+02  0.51100000000E-03 0. -1.
         11   -1    0    0    0    0 -0.00000000000E+00 -0.00000000000E+00 -0.45593999997E+02  0.45594000000E+02  0.51100000000E-03 0.  1.
    9900012    2    1    2    0    0  0.51476272912E+00 -0.10534845096E+01  0.13759395409E+00  0.90007431334E+02  0.89999688627E+02 0.  0.
        -12    1    1    2    0    0 -0.51476272912E+00  0.10534845096E+01 -0.13759395409E+00  0.11805686662E+01  0.00000000000E+00 0.  1.
         11    1    3    3    0    0  0.59725135950E+01  0.48186258372E+01  0.81669736024E+01  0.11206673533E+02  0.51100000000E-03 0. -1.
        -11    1    3    3    0    0  0.10833395943E+02 -0.36966007074E+02 -0.17695905677E+02  0.42390956874E+02  0.51100000000E-03 0.  1.
         12    1    3    3    0    0 -0.16291146809E+02  0.31093896727E+02  0.96665260287E+01  0.36409800927E+02  0.00000000000E+00 0. -1.
</event>
<event>
 7    1  0.2294706E-015  0.9000771E+02  0.7816164E-02  0.1186339E+00
        -11   -1    0    0    0    0  0.00000000000E+00  0.00000000000E+00  0.45593999997E+02  0.45594000000E+02  0.51100000000E-03 0. -1.
         11   -1    0    0    0    0 -0.00000000000E+00 -0.00000000000E+00 -0.45593999997E+02  0.45594000000E+02  0.51100000000E-03 0.  1.
    9900012    2    1    2    0    0  0.10878422954E+01 -0.12680512904E+00  0.43999310090E+00  0.90007714302E+02  0.89999975331E+02 0.  0.
        -12    1    1    2    0    0 -0.10878422954E+01  0.12680512904E+00 -0.43999310090E+00  0.11802856981E+01  0.00000000000E+00 0.  1.
         11    1    3    3    0    0 -0.57960943917E+01  0.64277485399E+01  0.23966538335E+01  0.89807912429E+01  0.51100000000E-03 0. -1.
        -11    1    3    3    0    0 -0.22621423954E+02  0.20659041128E+02  0.18692571668E+02  0.35887839694E+02  0.51100000000E-03 0.  1.
         12    1    3    3    0    0  0.29505360642E+02 -0.27213594797E+02 -0.20649232401E+02  0.45139083365E+02  0.00000000000E+00 0. -1.
</event>
<event>
 7    1  0.2294706E-015  0.9000759E+02  0.7816164E-02  0.1186339E+00
        -11   -1    0    0    0    0  0.00000000000E+00  0.00000000000E+00  0.45593999997E+02  0.45594000000E+02  0.51100000000E-03 0. -1.
         11   -1    0    0    0    0 -0.00000000000E+00 -0.00000000000E+00 -0.45593999997E+02  0.45594000000E+02  0.51100000000E-03 0.  1.
    9900012    2    1    2    0    0 -0.82930240258E+00  0.70676137548E+00  0.45400180809E+00  0.90007588310E+02  0.89999847675E+02 0.  0.
        -12    1    1    2    0    0  0.82930240258E+00 -0.70676137548E+00 -0.45400180809E+00  0.11804116903E+01  0.00000000000E+00 0.  1.
         11    1    3    3    0    0 -0.23194466411E+02  0.21500749764E+02  0.22585969388E+02  0.38863755942E+02  0.51100000000E-03 0. -1.
        -11    1    3    3    0    0 -0.73214902125E+01  0.21014545251E+01 -0.16918946573E-01  0.76171265294E+01  0.51100000000E-03 0.  1.
        -12    1    3    3    0    0  0.29686654221E+02 -0.22895442913E+02 -0.22115048633E+02  0.43526705838E+02  0.00000000000E+00 0.  1.
</event>
<event>
 7    1  0.2294706E-015  0.9000778E+02  0.7816164E-02  0.1186339E+00
        -11   -1    0    0    0    0  0.00000000000E+00  0.00000000000E+00  0.45593999997E+02  0.45594000000E+02  0.51100000000E-03 0.  1.
         11   -1    0    0    0    0 -0.00000000000E+00 -0.00000000000E+00 -0.45593999997E+02  0.45594000000E+02  0.51100000000E-03 0. -1.
    9900012    2    1    2    0    0  0.59344370291E+00  0.10107854740E+01 -0.13806313559E+00  0.90007777931E+02  0.90000039800E+02 0.  0.
        -12    1    1    2    0    0 -0.59344370291E+00 -0.10107854740E+01  0.13806313559E+00  0.11802220691E+01  0.00000000000E+00 0.  1.
         11    1    3    3    0    0 -0.21445169745E+01 -0.96725013017E+01 -0.47584470235E+01  0.10990862242E+02  0.51100000000E-03 0. -1.
        -11    1    3    3    0    0  0.21689868158E+02 -0.38563915061E+01 -0.29837661946E+02  0.37089192588E+02  0.51100000000E-03 0.  1.
         12    1    3    3    0    0 -0.18951907481E+02  0.14539678282E+02  0.34458045834E+02  0.41927723101E+02  0.00000000000E+00 0. -1.
</event>
<event>
 7    1  0.2294706E-015  0.9000778E+02  0.7816164E-02  0.1186339E+00
        -11   -1    0    0    0    0  0.00000000000E+00  0.00000000000E+00  0.45593999997E+02  0.45594000000E+02  0.51100000000E-03 0. -1.
         11   -1    0    0    0    0 -0.00000000000E+00 -0.00000000000E+00 -0.45593999997E+02  0.45594000000E+02  0.51100000000E-03 0.  1.
    9900012    2    1    2    0    0  0.71504984264E+00 -0.36764249163E+00 -0.86397986002E+00  0.90007780327E+02  0.90000042227E+02 0.  0.
        -12    1    1    2    0    0 -0.71504984264E+00  0.36764249163E+00  0.86397986002E+00  0.11802196735E+01  0.00000000000E+00 0.  1.
         11    1    3    3    0    0 -0.13685634900E+01  0.85167156927E+01 -0.14528807856E+01  0.87474724952E+01  0.51100000000E-03 0. -1.
        -11    1    3    3    0    0  0.32400191547E+02 -0.18828479019E+02 -0.20789603208E+02  0.42854307092E+02  0.51100000000E-03 0.  1.
         12    1    3    3    0    0 -0.30316578215E+02  0.99441208351E+01  0.21378504133E+02  0.38406000740E+02  0.00000000000E+00 0. -1.
</event>
<event>
 7    1  0.2294706E-015  0.9000774E+02  0.7816164E-02  0.1186339E+00
        -11   -1    0    0    0    0  0.00000000000E+00  0.00000000000E+00  0.45593999997E+02  0.45594000000E+02  0.51100000000E-03 0.  1.
         11   -1    0    0    0    0 -0.00000000000E+00 -0.00000000000E+00 -0.45593999997E+02  0.45594000000E+02  0.51100000000E-03 0. -1.
    9900012    2    1    2    0    0 -0.29968744423E+00 -0.35475013880E+00 -0.10850550153E+01  0.90007743837E+02  0.90000005255E+02 0.  0.
        -12    1    1    2    0    0  0.29968744423E+00  0.35475013880E+00  0.10850550153E+01  0.11802561635E+01  0.00000000000E+00 0.  1.
         11    1    3    3    0    0 -0.66848516494E+01 -0.35769237676E+02  0.85267349342E+01  0.37374199849E+02  0.51100000000E-03 0. -1.
        -11    1    3    3    0    0 -0.87258176989E+01 -0.35947058440E+01 -0.46063767963E+01  0.10501452855E+02  0.51100000000E-03 0.  1.
        -12    1    3    3    0    0  0.15110981904E+02  0.39009193381E+02 -0.50054131532E+01  0.42132091132E+02  0.00000000000E+00 0.  1.
</event>
<event>
 7    1  0.2294706E-015  0.9000778E+02  0.7816164E-02  0.1186339E+00
        -11   -1    0    0    0    0  0.00000000000E+00  0.00000000000E+00  0.45593999997E+02  0.45594000000E+02  0.51100000000E-03 0.  1.
         11   -1    0    0    0    0 -0.00000000000E+00 -0.00000000000E+00 -0.45593999997E+02  0.45594000000E+02  0.51100000000E-03 0. -1.
    9900012    2    1    2    0    0 -0.11021231546E+01  0.42194202215E+00  0.14069639549E-01  0.90007784565E+02  0.90000046521E+02 0.  0.
        -12    1    1    2    0    0  0.11021231546E+01 -0.42194202215E+00 -0.14069639549E-01  0.11802154348E+01  0.00000000000E+00 0.  1.
         11    1    3    3    0    0  0.85361713726E+01 -0.39539148133E+01 -0.33594562235E+01  0.99892747701E+01  0.51100000000E-03 0. -1.
        -11    1    3    3    0    0 -0.28391863842E+02 -0.11192607981E+02 -0.27226246673E+02  0.40897932882E+02  0.51100000000E-03 0.  1.
         12    1    3    3    0    0  0.18753569315E+02  0.15568464816E+02  0.30599772536E+02  0.39120576913E+02  0.00000000000E+00 0. -1.
</event>
<event>
 7    1  0.2294706E-015  0.9000711E+02  0.7816164E-02  0.1186340E+00
        -11   -1    0    0    0    0  0.00000000000E+00  0.00000000000E+00  0.45593999997E+02  0.45594000000E+02  0.51100000000E-03 0. -1.
         11   -1    0    0    0    0 -0.00000000000E+00 -0.00000000000E+00 -0.45593999997E+02  0.45594000000E+02  0.51100000000E-03 0.  1.
    9900012    2    1    2    0    0  0.78812445023E+00 -0.82458804964E+00 -0.30564501726E+00  0.90007108609E+02  0.89999361640E+02 0.  0.
        -12    1    1    2    0    0 -0.78812445023E+00  0.82458804964E+00  0.30564501726E+00  0.11808913910E+01  0.00000000000E+00 0.  1.
         11    1    3    3    0    0 -0.86566481156E+01 -0.39026606230E+01  0.38095980131E+01  0.10231390610E+02  0.51100000000E-03 0. -1.
        -11    1    3    3    0    0 -0.34643134899E+02  0.34042291913E+01  0.36757418920E+01  0.35003523404E+02  0.51100000000E-03 0.  1.
         12    1    3    3    0    0  0.44087907465E+02 -0.32615661793E+00 -0.77909849224E+01  0.44772194594E+02  0.00000000000E+00 0. -1.
</event>
<event>
 7    1  0.2294706E-015  0.9000769E+02  0.7816164E-02  0.1186339E+00
        -11   -1    0    0    0    0  0.00000000000E+00  0.00000000000E+00  0.45593999997E+02  0.45594000000E+02  0.51100000000E-03 0.  1.
         11   -1    0    0    0    0 -0.00000000000E+00 -0.00000000000E+00 -0.45593999997E+02  0.45594000000E+02  0.51100000000E-03 0. -1.
    9900012    2    1    2    0    0 -0.65943354811E+00 -0.82777783085E+00 -0.52255465807E+00  0.90007689824E+02  0.89999950529E+02 0.  0.
        -12    1    1    2    0    0  0.65943354811E+00  0.82777783085E+00  0.52255465807E+00  0.11803101763E+01  0.00000000000E+00 0.  1.
         11    1    3    3    0    0  0.45266220868E+01 -0.87136127959E+01 -0.11666480863E+02  0.15248741963E+02  0.51100000000E-03 0. -1.
        -11    1    3    3    0    0 -0.30021062027E+02  0.10390225432E+02  0.29830338305E+02  0.43578320681E+02  0.51100000000E-03 0.  1.
         12    1    3    3    0    0  0.24835006392E+02 -0.25043904669E+01 -0.18686412100E+02  0.31180627179E+02  0.00000000000E+00 0. -1.
</event>
<event>
 7    1  0.2294706E-015  0.9000683E+02  0.7816164E-02  0.1186341E+00
        -11   -1    0    0    0    0  0.00000000000E+00  0.00000000000E+00  0.45593999997E+02  0.45594000000E+02  0.51100000000E-03 0.  1.
         11   -1    0    0    0    0 -0.00000000000E+00 -0.00000000000E+00 -0.45593999997E+02  0.45594000000E+02  0.51100000000E-03 0. -1.
    9900012    2    1    2    0    0  0.99215954512E+00  0.42866089209E+00 -0.47648043485E+00  0.90006829255E+02  0.89999078597E+02 0.  0.
        -12    1    1    2    0    0 -0.99215954512E+00 -0.42866089209E+00  0.47648043485E+00  0.11811707447E+01  0.00000000000E+00 0.  1.
         11    1    3    3    0    0 -0.96183204799E+01  0.13940920352E+01  0.16519557617E+01  0.98582219267E+01  0.51100000000E-03 0. -1.
        -11    1    3    3    0    0 -0.16218147793E+02 -0.31268122575E+02  0.12105457553E+02  0.37246018714E+02  0.51100000000E-03 0.  1.
         12    1    3    3    0    0  0.26828627818E+02  0.30302691432E+02 -0.14233893749E+02  0.42902588615E+02  0.00000000000E+00 0. -1.
</event>
<event>
 7    1  0.2294706E-015  0.9000774E+02  0.7816164E-02  0.1186339E+00
        -11   -1    0    0    0    0  0.00000000000E+00  0.00000000000E+00  0.45593999997E+02  0.45594000000E+02  0.51100000000E-03 0.  1.
         11   -1    0    0    0    0 -0.00000000000E+00 -0.00000000000E+00 -0.45593999997E+02  0.45594000000E+02  0.51100000000E-03 0. -1.
    9900012    2    1    2    0    0  0.36017704828E-02 -0.83321773844E+00 -0.83591523321E+00  0.90007737720E+02  0.89999999058E+02 0.  0.
        -12    1    1    2    0    0 -0.36017704828E-02  0.83321773844E+00  0.83591523321E+00  0.11802622800E+01  0.00000000000E+00 0.  1.
         11    1    3    3    0    0 -0.61979238514E+01  0.12340853854E+02 -0.63521238385E+01  0.15200671414E+02  0.51100000000E-03 0. -1.
        -11    1    3    3    0    0 -0.28937860434E+02  0.83835748664E+01 -0.84332723750E+01  0.31285846277E+02  0.51100000000E-03 0.  1.
         12    1    3    3    0    0  0.35139386056E+02 -0.21557646459E+02  0.13949480980E+02  0.43521220029E+02  0.00000000000E+00 0. -1.
</event>
<event>
 7    1  0.2294706E-015  0.9000770E+02  0.7816164E-02  0.1186339E+00
        -11   -1    0    0    0    0  0.00000000000E+00  0.00000000000E+00  0.45593999997E+02  0.45594000000E+02  0.51100000000E-03 0.  1.
         11   -1    0    0    0    0 -0.00000000000E+00 -0.00000000000E+00 -0.45593999997E+02  0.45594000000E+02  0.51100000000E-03 0. -1.
    9900012    2    1    2    0    0 -0.50858654643E+00 -0.47384041105E+00 -0.95390381787E+00  0.90007696012E+02  0.89999956799E+02 0.  0.
        -12    1    1    2    0    0  0.50858654643E+00  0.47384041105E+00  0.95390381787E+00  0.11803039880E+01  0.00000000000E+00 0.  1.
         11    1    3    3    0    0  0.21213930498E+01 -0.27573501565E+00 -0.82204788648E+01  0.84942693210E+01  0.51100000000E-03 0. -1.
        -11    1    3    3    0    0 -0.23687356235E+02  0.19329015080E+02  0.31529379469E+02  0.43918144761E+02  0.51100000000E-03 0.  1.
         12    1    3    3    0    0  0.21057376639E+02 -0.19527120475E+02 -0.24262804422E+02  0.37595281929E+02  0.00000000000E+00 0. -1.
</event>
<event>
 7    1  0.2294706E-015  0.9000773E+02  0.7816164E-02  0.1186339E+00
        -11   -1    0    0    0    0  0.00000000000E+00  0.00000000000E+00  0.45593999997E+02  0.45594000000E+02  0.51100000000E-03 0. -1.
         11   -1    0    0    0    0 -0.00000000000E+00 -0.00000000000E+00 -0.45593999997E+02  0.45594000000E+02  0.51100000000E-03 0.  1.
    9900012    2    1    2    0    0  0.19713262811E+00 -0.30402016419E+00  0.11232728129E+01  0.90007732511E+02  0.89999993780E+02 0.  0.
        -12    1    1    2    0    0 -0.19713262811E+00  0.30402016419E+00 -0.11232728129E+01  0.11802674890E+01  0.00000000000E+00 0.  1.
         11    1    3    3    0    0 -0.52899834689E+01  0.45403206775E+01  0.31244898848E+01  0.76394289222E+01  0.51100000000E-03 0. -1.
        -11    1    3    3    0    0 -0.14971883900E+02  0.10571196216E+02 -0.35645815479E+02  0.40081562574E+02  0.51100000000E-03 0.  1.
         12    1    3    3    0    0  0.20458999997E+02 -0.15415537058E+02  0.33644598407E+02  0.42286741015E+02  0.00000000000E+00 0. -1.
</event>
<event>
 7    1  0.2294706E-015  0.9000770E+02  0.7816164E-02  0.1186339E+00
        -11   -1    0    0    0    0  0.00000000000E+00  0.00000000000E+00  0.45593999997E+02  0.45594000000E+02  0.51100000000E-03 0. -1.
         11   -1    0    0    0    0 -0.00000000000E+00 -0.00000000000E+00 -0.45593999997E+02  0.45594000000E+02  0.51100000000E-03 0.  1.
    9900012    2    1    2    0    0  0.42073284843E+00  0.35968914554E+00  0.10424606082E+01  0.90007696424E+02  0.89999957217E+02 0.  0.
        -12    1    1    2    0    0 -0.42073284843E+00 -0.35968914554E+00 -0.10424606082E+01  0.11803035757E+01  0.00000000000E+00 0.  1.
         11    1    3    3    0    0  0.33576323118E+02  0.32200612224E+01  0.19817011704E+02  0.39120994639E+02  0.51100000000E-03 0. -1.
        -11    1    3    3    0    0  0.69714100285E+01  0.64764301870E+00 -0.32422136556E+01  0.77156949729E+01  0.51100000000E-03 0.  1.
        -12    1    3    3    0    0 -0.40127000298E+02 -0.35080150956E+01 -0.15532337440E+02  0.43171006812E+02  0.00000000000E+00 0.  1.
</event>
<event>
 7    1  0.2294706E-015  0.9000775E+02  0.7816164E-02  0.1186339E+00
        -11   -1    0    0    0    0  0.00000000000E+00  0.00000000000E+00  0.45593999997E+02  0.45594000000E+02  0.51100000000E-03 0. -1.
         11   -1    0    0    0    0 -0.00000000000E+00 -0.00000000000E+00 -0.45593999997E+02  0.45594000000E+02  0.51100000000E-03 0.  1.
    9900012    2    1    2    0    0 -0.59672027611E+00  0.37507749215E+00  0.94669754579E+00  0.90007748139E+02  0.90000009614E+02 0.  0.
        -12    1    1    2    0    0  0.59672027611E+00 -0.37507749215E+00 -0.94669754579E+00  0.11802518614E+01  0.00000000000E+00 0.  1.
         11    1    3    3    0    0  0.77515744488E+01  0.49964569436E+00 -0.55601807279E+01  0.95525997636E+01  0.51100000000E-03 0. -1.
        -11    1    3    3    0    0  0.83645619746E+01  0.14492882710E+02 -0.31939759173E+02  0.36057700462E+02  0.51100000000E-03 0.  1.
         12    1    3    3    0    0 -0.16712856699E+02 -0.14617450912E+02  0.38446637447E+02  0.44397447913E+02  0.00000000000E+00 0. -1.
</event>
<event>
 7    1  0.2294706E-015  0.9000807E+02  0.7816164E-02  0.1186338E+00
        -11   -1    0    0    0    0  0.00000000000E+00  0.00000000000E+00  0.45593999997E+02  0.45594000000E+02  0.51100000000E-03 0.  1.
         11   -1    0    0    0    0 -0.00000000000E+00 -0.00000000000E+00 -0.45593999997E+02  0.45594000000E+02  0.51100000000E-03 0. -1.
    9900012    2    1    2    0    0 -0.41741279264E+00 -0.22956443977E+00 -0.10794922160E+01  0.90008069190E+02  0.90000334903E+02 0.  0.
        -12    1    1    2    0    0  0.41741279264E+00  0.22956443977E+00  0.10794922160E+01  0.11799308098E+01  0.00000000000E+00 0.  1.
         11    1    3    3    0    0  0.36356005494E+02 -0.55843339668E+01 -0.17123844983E+02  0.40573020452E+02  0.51100000000E-03 0. -1.
        -11    1    3    3    0    0 -0.30748977885E+01  0.81782367894E+01 -0.45398592334E+01  0.98462620072E+01  0.51100000000E-03 0.  1.
        -12    1    3    3    0    0 -0.33698520498E+02 -0.28234672624E+01  0.20584212001E+02  0.39588786731E+02  0.00000000000E+00 0.  1.
</event>
<event>
 7    1  0.2294706E-015  0.9000767E+02  0.7816164E-02  0.1186339E+00
        -11   -1    0    0    0    0  0.00000000000E+00  0.00000000000E+00  0.45593999997E+02  0.45594000000E+02  0.51100000000E-03 0. -1.
         11   -1    0    0    0    0 -0.00000000000E+00 -0.00000000000E+00 -0.45593999997E+02  0.45594000000E+02  0.51100000000E-03 0.  1.
    9900012    2    1    2    0    0  0.21374893721E+00  0.18432676351E-01  0.11606647643E+01  0.90007673322E+02  0.89999933810E+02 0.  0.
        -12    1    1    2    0    0 -0.21374893721E+00 -0.18432676351E-01 -0.11606647643E+01  0.11803266780E+01  0.00000000000E+00 0.  1.
         11    1    3    3    0    0 -0.23296945195E+02 -0.20001326758E+02  0.22421556428E+02  0.38020085749E+02  0.51100000000E-03 0. -1.
        -11    1    3    3    0    0 -0.78172167611E+01  0.10950348387E+01  0.25832416711E+01  0.83054871609E+01  0.51100000000E-03 0.  1.
        -12    1    3    3    0    0  0.31327910893E+02  0.18924724596E+02 -0.23844133334E+02  0.43682100412E+02  0.00000000000E+00 0.  1.
</event>
<event>
 7    1  0.2294706E-015  0.9000679E+02  0.7816164E-02  0.1186341E+00
        -11   -1    0    0    0    0  0.00000000000E+00  0.00000000000E+00  0.45593999997E+02  0.45594000000E+02  0.51100000000E-03 0. -1.
         11   -1    0    0    0    0 -0.00000000000E+00 -0.00000000000E+00 -0.45593999997E+02  0.45594000000E+02  0.51100000000E-03 0.  1.
    9900012    2    1    2    0    0 -0.16336997306E+00  0.57883668901E+00  0.10166170820E+01  0.90006792164E+02  0.89999041015E+02 0.  0.
        -12    1    1    2    0    0  0.16336997306E+00 -0.57883668901E+00 -0.10166170820E+01  0.11812078361E+01  0.00000000000E+00 0.  1.
         11    1    3    3    0    0 -0.34526574746E+02 -0.19667129390E+02  0.51741689335E+01  0.40070592291E+02  0.51100000000E-03 0. -1.
        -11    1    3    3    0    0 -0.39326191392E+01  0.54341326885E+01 -0.57642704846E+01  0.88443261955E+01  0.51100000000E-03 0.  1.
        -12    1    3    3    0    0  0.38295823912E+02  0.14811833391E+02  0.16067186331E+01  0.41091873677E+02  0.00000000000E+00 0.  1.
</event>
<event>
 7    1  0.2294706E-015  0.9000856E+02  0.7816164E-02  0.1186337E+00
        -11   -1    0    0    0    0  0.00000000000E+00  0.00000000000E+00  0.45593999997E+02  0.45594000000E+02  0.51100000000E-03 0. -1.
         11   -1    0    0    0    0 -0.00000000000E+00 -0.00000000000E+00 -0.45593999997E+02  0.45594000000E+02  0.51100000000E-03 0.  1.
    9900012    2    1    2    0    0 -0.20621997943E-01 -0.84292364506E+00  0.82470535367E+00  0.90008557565E+02  0.90000829721E+02 0.  0.
        -12    1    1    2    0    0  0.20621997943E-01  0.84292364506E+00 -0.82470535367E+00  0.11794424355E+01  0.00000000000E+00 0.  1.
         11    1    3    3    0    0 -0.84864215487E+01 -0.43417172407E+01  0.21339424920E+01  0.97684988674E+01  0.51100000000E-03 0. -1.
        -11    1    3    3    0    0 -0.35442513750E+02 -0.16298504991E+01  0.40465680050E+01  0.35709983288E+02  0.51100000000E-03 0.  1.
         12    1    3    3    0    0  0.43908313301E+02  0.51286440947E+01 -0.53558051433E+01  0.44530075409E+02  0.00000000000E+00 0. -1.
</event>
<event>
 7    1  0.2294706E-015  0.9000774E+02  0.7816164E-02  0.1186339E+00
        -11   -1    0    0    0    0  0.00000000000E+00  0.00000000000E+00  0.45593999997E+02  0.45594000000E+02  0.51100000000E-03 0.  1.
         11   -1    0    0    0    0 -0.00000000000E+00 -0.00000000000E+00 -0.45593999997E+02  0.45594000000E+02  0.51100000000E-03 0. -1.
    9900012    2    1    2    0    0 -0.94847423840E+00  0.38037276598E+00 -0.59052347572E+00  0.90007743758E+02  0.90000005175E+02 0.  0.
        -12    1    1    2    0    0  0.94847423840E+00 -0.38037276598E+00  0.59052347572E+00  0.11802562423E+01  0.00000000000E+00 0.  1.
         11    1    3    3    0    0  0.14853150815E+01 -0.87080702367E+01  0.28976129437E+01  0.92969247158E+01  0.51100000000E-03 0. -1.
        -11    1    3    3    0    0 -0.18687081794E+02 -0.31610289152E+02  0.31289930641E+00  0.36722136545E+02  0.51100000000E-03 0.  1.
         12    1    3    3    0    0  0.16253292474E+02  0.40698732154E+02 -0.38010357258E+01  0.43988682497E+02  0.00000000000E+00 0. -1.
</event>
<event>
 7    1  0.2294706E-015  0.9000769E+02  0.7816164E-02  0.1186339E+00
        -11   -1    0    0    0    0  0.00000000000E+00  0.00000000000E+00  0.45593999997E+02  0.45594000000E+02  0.51100000000E-03 0.  1.
         11   -1    0    0    0    0 -0.00000000000E+00 -0.00000000000E+00 -0.45593999997E+02  0.45594000000E+02  0.51100000000E-03 0. -1.
    9900012    2    1    2    0    0 -0.98894303097E+00 -0.63774816575E-01  0.64114390984E+00  0.90007686034E+02  0.89999946689E+02 0.  0.
        -12    1    1    2    0    0  0.98894303097E+00  0.63774816575E-01 -0.64114390984E+00  0.11803139662E+01  0.00000000000E+00 0.  1.
         11    1    3    3    0    0 -0.17657814337E+02  0.64759812114E+01 -0.32061080471E+02  0.37170547764E+02  0.51100000000E-03 0. -1.
        -11    1    3    3    0    0  0.36140898749E-02 -0.42616464200E+01 -0.78515187415E+01  0.89335317808E+01  0.51100000000E-03 0.  1.
        -12    1    3    3    0    0  0.16665257216E+02 -0.22781096079E+01  0.40553743123E+02  0.43903606489E+02  0.00000000000E+00 0.  1.
</event>
<event>
 7    1  0.3031040E-015  0.9000764E+02  0.7816164E-02  0.1186339E+00
        -11   -1    0    0    0    0  0.00000000000E+00  0.00000000000E+00  0.45593999997E+02  0.45594000000E+02  0.51100000000E-03 0. -1.
         11   -1    0    0    0    0 -0.00000000000E+00 -0.00000000000E+00 -0.45593999997E+02  0.45594000000E+02  0.51100000000E-03 0.  1.
    9900012    2    1    2    0    0  0.55592120746E+00 -0.10412464478E+01 -0.13818976797E-02  0.90007642231E+02  0.89999902308E+02 0.  0.
        -12    1    1    2    0    0 -0.55592120746E+00  0.10412464478E+01  0.13818976797E-02  0.11803577693E+01  0.00000000000E+00 0.  1.
         11    1    3    3    0    0 -0.85587470969E+01  0.35805729164E+02  0.18715259858E+01  0.36861972311E+02  0.51100000000E-03 0. -1.
        -11    1    3    3    0    0 -0.69945491533E+01  0.40000498542E+01 -0.43692182974E+01  0.91659252389E+01  0.51100000000E-03 0.  1.
        -12    1    3    3    0    0  0.16109217458E+02 -0.40847025466E+02  0.24963104139E+01  0.43979744681E+02  0.00000000000E+00 0.  1.
</event>
<event>
 7    1  0.2294706E-015  0.9000776E+02  0.7816164E-02  0.1186339E+00
        -11   -1    0    0    0    0  0.00000000000E+00  0.00000000000E+00  0.45593999997E+02  0.45594000000E+02  0.51100000000E-03 0. -1.
         11   -1    0    0    0    0 -0.00000000000E+00 -0.00000000000E+00 -0.45593999997E+02  0.45594000000E+02  0.51100000000E-03 0.  1.
    9900012    2    1    2    0    0 -0.25315144581E+00  0.90585112771E+00 -0.71295876191E+00  0.90007761839E+02  0.90000023495E+02 0.  0.
        -12    1    1    2    0    0  0.25315144581E+00 -0.90585112771E+00  0.71295876191E+00  0.11802381608E+01  0.00000000000E+00 0.  1.
         11    1    3    3    0    0 -0.10183658049E+01  0.62210792873E+01  0.68039813489E+01  0.92754007390E+01  0.51100000000E-03 0. -1.
        -11    1    3    3    0    0 -0.86366155657E+01 -0.14870505382E+01  0.35483613840E+02  0.36549819413E+02  0.51100000000E-03 0.  1.
         12    1    3    3    0    0  0.94018299249E+01 -0.38281776213E+01 -0.43000553951E+02  0.44182541687E+02  0.00000000000E+00 0. -1.
</event>
<event>
 7    1  0.2294706E-015  0.9000775E+02  0.7816164E-02  0.1186339E+00
        -11   -1    0    0    0    0  0.00000000000E+00  0.00000000000E+00  0.45593999997E+02  0.45594000000E+02  0.51100000000E-03 0.  1.
         11   -1    0    0    0    0 -0.00000000000E+00 -0.00000000000E+00 -0.45593999997E+02  0.45594000000E+02  0.51100000000E-03 0. -1.
    9900012    2    1    2    0    0 -0.82012733112E+00 -0.84427992096E+00  0.87017133114E-01  0.90007750278E+02  0.90000011782E+02 0.  0.
        -12    1    1    2    0    0  0.82012733112E+00  0.84427992096E+00 -0.87017133114E-01  0.11802497217E+01  0.00000000000E+00 0.  1.
         11    1    3    3    0    0 -0.40550400634E+02  0.11589908744E+02 -0.12481774146E+02  0.43982447207E+02  0.51100000000E-03 0.  1.
        -11    1    3    3    0    0  0.18363852478E+02 -0.11011474434E+02  0.44321973098E+00  0.21416817948E+02  0.51100000000E-03 0. -1.
        -12    1    3    3    0    0  0.21366420825E+02 -0.14227142306E+01  0.12125571549E+02  0.24608485123E+02  0.00000000000E+00 0.  1.
</event>
<event>
 7    1  0.2294706E-015  0.9000737E+02  0.7816164E-02  0.1186340E+00
        -11   -1    0    0    0    0  0.00000000000E+00  0.00000000000E+00  0.45593999997E+02  0.45594000000E+02  0.51100000000E-03 0.  1.
         11   -1    0    0    0    0 -0.00000000000E+00 -0.00000000000E+00 -0.45593999997E+02  0.45594000000E+02  0.51100000000E-03 0. -1.
    9900012    2    1    2    0    0  0.53872435181E+00 -0.10036613081E+01  0.31037816778E+00  0.90007366884E+02  0.89999623326E+02 0.  0.
        -12    1    1    2    0    0 -0.53872435181E+00  0.10036613081E+01 -0.31037816778E+00  0.11806331164E+01  0.00000000000E+00 0.  1.
         11    1    3    3    0    0 -0.80384331323E+00  0.68480899563E+01 -0.16983205516E+02  0.18329532727E+02  0.51100000000E-03 0. -1.
        -11    1    3    3    0    0 -0.19982239049E+02 -0.12067006766E+02  0.36062846884E+02  0.42958485254E+02  0.51100000000E-03 0.  1.
         12    1    3    3    0    0  0.21324806714E+02  0.42152555013E+01 -0.18769263201E+02  0.28719348903E+02  0.00000000000E+00 0. -1.
</event>
<event>
 7    1  0.2294706E-015  0.9000802E+02  0.7816164E-02  0.1186338E+00
        -11   -1    0    0    0    0  0.00000000000E+00  0.00000000000E+00  0.45593999997E+02  0.45594000000E+02  0.51100000000E-03 0. -1.
         11   -1    0    0    0    0 -0.00000000000E+00 -0.00000000000E+00 -0.45593999997E+02  0.45594000000E+02  0.51100000000E-03 0.  1.
    9900012    2    1    2    0    0 -0.68146927396E+00 -0.68656561247E+00  0.67571169593E+00  0.90008017370E+02  0.90000282399E+02 0.  0.
        -12    1    1    2    0    0  0.68146927396E+00  0.68656561247E+00 -0.67571169593E+00  0.11799826302E+01  0.00000000000E+00 0.  1.
         11    1    3    3    0    0  0.15112825492E+02 -0.18778514954E+02 -0.25663389609E+02  0.35208517218E+02  0.51100000000E-03 0. -1.
        -11    1    3    3    0    0  0.70185679951E+00 -0.12369189447E+01 -0.10196836339E+02  0.10295535101E+02  0.51100000000E-03 0.  1.
        -12    1    3    3    0    0 -0.16496151565E+02  0.19328868286E+02  0.36535937644E+02  0.44503965050E+02  0.00000000000E+00 0.  1.
</event>
<event>
 7    1  0.2294706E-015  0.9000768E+02  0.7816164E-02  0.1186339E+00
        -11   -1    0    0    0    0  0.00000000000E+00  0.00000000000E+00  0.45593999997E+02  0.45594000000E+02  0.51100000000E-03 0. -1.
         11   -1    0    0    0    0 -0.00000000000E+00 -0.00000000000E+00 -0.45593999997E+02  0.45594000000E+02  0.51100000000E-03 0.  1.
    9900012    2    1    2    0    0  0.27313332549E+00 -0.67926991195E+00  0.92582067678E+00  0.90007680826E+02  0.89999941413E+02 0.  0.
        -12    1    1    2    0    0 -0.27313332549E+00  0.67926991195E+00 -0.92582067678E+00  0.11803191739E+01  0.00000000000E+00 0.  1.
         11    1    3    3    0    0 -0.20455121724E+01  0.51329670743E+01 -0.73577047140E+01  0.92014830300E+01  0.51100000000E-03 0. -1.
        -11    1    3    3    0    0 -0.25356563350E+02 -0.11115433047E+02 -0.24925479495E+02  0.37253022496E+02  0.51100000000E-03 0.  1.
         12    1    3    3    0    0  0.27675208848E+02  0.53031960606E+01  0.33209004886E+02  0.43553175300E+02  0.00000000000E+00 0. -1.
</event>
<event>
 7    1  0.2294706E-015  0.9000770E+02  0.7816164E-02  0.1186339E+00
        -11   -1    0    0    0    0  0.00000000000E+00  0.00000000000E+00  0.45593999997E+02  0.45594000000E+02  0.51100000000E-03 0.  1.
         11   -1    0    0    0    0 -0.00000000000E+00 -0.00000000000E+00 -0.45593999997E+02  0.45594000000E+02  0.51100000000E-03 0. -1.
    9900012    2    1    2    0    0 -0.28402129669E+00 -0.96303619289E+00 -0.62048566030E+00  0.90007699504E+02  0.89999960338E+02 0.  0.
        -12    1    1    2    0    0  0.28402129669E+00  0.96303619289E+00  0.62048566030E+00  0.11803004958E+01  0.00000000000E+00 0.  1.
         11    1    3    3    0    0 -0.63043527161E+01  0.82413612736E+01 -0.17746059529E+00  0.10377687186E+02  0.51100000000E-03 0. -1.
        -11    1    3    3    0    0  0.20685995865E+02 -0.27051933474E+02 -0.27702405759E+02  0.43899212005E+02  0.51100000000E-03 0.  1.
         12    1    3    3    0    0 -0.14665664445E+02  0.17847536008E+02  0.27259380694E+02  0.35730800313E+02  0.00000000000E+00 0. -1.
</event>
<event>
 7    1  0.2294706E-015  0.9000779E+02  0.7816164E-02  0.1186339E+00
        -11   -1    0    0    0    0  0.00000000000E+00  0.00000000000E+00  0.45593999997E+02  0.45594000000E+02  0.51100000000E-03 0.  1.
         11   -1    0    0    0    0 -0.00000000000E+00 -0.00000000000E+00 -0.45593999997E+02  0.45594000000E+02  0.51100000000E-03 0. -1.
    9900012    2    1    2    0    0 -0.10388997026E+01  0.47421966902E+00 -0.29783774338E+00  0.90007786372E+02  0.90000048352E+02 0.  0.
        -12    1    1    2    0    0  0.10388997026E+01 -0.47421966902E+00  0.29783774338E+00  0.11802136281E+01  0.00000000000E+00 0.  1.
         11    1    3    3    0    0 -0.56430925126E+01 -0.35533219040E+01  0.58645257210E+01  0.88804984011E+01  0.51100000000E-03 0. -1.
        -11    1    3    3    0    0  0.25102657271E+02 -0.16519894705E+02  0.24598893225E+02  0.38834982571E+02  0.51100000000E-03 0.  1.
         12    1    3    3    0    0 -0.20498464462E+02  0.20547436278E+02 -0.30761256689E+02  0.42292305399E+02  0.00000000000E+00 0. -1.
</event>
<event>
 7    1  0.2294706E-015  0.9000772E+02  0.7816164E-02  0.1186339E+00
        -11   -1    0    0    0    0  0.00000000000E+00  0.00000000000E+00  0.45593999997E+02  0.45594000000E+02  0.51100000000E-03 0.  1.
         11   -1    0    0    0    0 -0.00000000000E+00 -0.00000000000E+00 -0.45593999997E+02  0.45594000000E+02  0.51100000000E-03 0. -1.
    9900012    2    1    2    0    0  0.10492996052E+01  0.51890770720E-01 -0.53789717944E+00  0.90007722198E+02  0.89999983331E+02 0.  0.
        -12    1    1    2    0    0 -0.10492996052E+01 -0.51890770720E-01  0.53789717944E+00  0.11802778017E+01  0.00000000000E+00 0.  1.
         11    1    3    3    0    0 -0.72750196213E+01 -0.77686807502E+01 -0.41752295361E+01  0.11432884720E+02  0.51100000000E-03 0. -1.
        -11    1    3    3    0    0 -0.34365372848E+02 -0.18203880424E+01  0.50788010223E+01  0.34786303104E+02  0.51100000000E-03 0.  1.
         12    1    3    3    0    0  0.42689692074E+02  0.96409595633E+01 -0.14414686656E+01  0.43788534374E+02  0.00000000000E+00 0. -1.
</event>
<event>
 7    1  0.2294706E-015  0.9000779E+02  0.7816164E-02  0.1186339E+00
        -11   -1    0    0    0    0  0.00000000000E+00  0.00000000000E+00  0.45593999997E+02  0.45594000000E+02  0.51100000000E-03 0.  1.
         11   -1    0    0    0    0 -0.00000000000E+00 -0.00000000000E+00 -0.45593999997E+02  0.45594000000E+02  0.51100000000E-03 0. -1.
    9900012    2    1    2    0    0  0.47661027527E+00 -0.10796984476E+01  0.52875559658E-03  0.90007785455E+02  0.90000047423E+02 0.  0.
        -12    1    1    2    0    0 -0.47661027527E+00  0.10796984476E+01 -0.52875559658E-03  0.11802145448E+01  0.00000000000E+00 0.  1.
         11    1    3    3    0    0  0.37350169965E+01  0.48616581346E+01  0.60107498991E+01  0.85857548528E+01  0.51100000000E-03 0. -1.
        -11    1    3    3    0    0  0.10860892315E+02  0.35641202042E+02 -0.17254941079E+01  0.37299217084E+02  0.51100000000E-03 0.  1.
         12    1    3    3    0    0 -0.14119299036E+02 -0.41582558624E+02 -0.42847270356E+01  0.44122813519E+02  0.00000000000E+00 0. -1.
</event>
<event>
 7    1  0.2294706E-015  0.9000775E+02  0.7816164E-02  0.1186339E+00
        -11   -1    0    0    0    0  0.00000000000E+00  0.00000000000E+00  0.45593999997E+02  0.45594000000E+02  0.51100000000E-03 0.  1.
         11   -1    0    0    0    0 -0.00000000000E+00 -0.00000000000E+00 -0.45593999997E+02  0.45594000000E+02  0.51100000000E-03 0. -1.
    9900012    2    1    2    0    0 -0.41259526166E+00  0.80717999351E+00 -0.75578400451E+00  0.90007752630E+02  0.90000014165E+02 0.  0.
        -12    1    1    2    0    0  0.41259526166E+00 -0.80717999351E+00  0.75578400451E+00  0.11802473696E+01  0.00000000000E+00 0.  1.
         11    1    3    3    0    0 -0.13641808373E+01 -0.66892553620E+01  0.64729573897E+01  0.94077789241E+01  0.51100000000E-03 0. -1.
        -11    1    3    3    0    0  0.13005989927E+02  0.16604913193E+02  0.32133606159E+02  0.38437580064E+02  0.51100000000E-03 0.  1.
         12    1    3    3    0    0 -0.12054404352E+02 -0.91084778371E+01 -0.39362347553E+02  0.42162393643E+02  0.00000000000E+00 0. -1.
</event>
<event>
 7    1  0.2294706E-015  0.9000774E+02  0.7816164E-02  0.1186339E+00
        -11   -1    0    0    0    0  0.00000000000E+00  0.00000000000E+00  0.45593999997E+02  0.45594000000E+02  0.51100000000E-03 0. -1.
         11   -1    0    0    0    0 -0.00000000000E+00 -0.00000000000E+00 -0.45593999997E+02  0.45594000000E+02  0.51100000000E-03 0.  1.
    9900012    2    1    2    0    0  0.88631324072E+00  0.30111283998E+00 -0.71889078390E+00  0.90007735596E+02  0.89999996906E+02 0.  0.
        -12    1    1    2    0    0 -0.88631324072E+00 -0.30111283998E+00  0.71889078390E+00  0.11802644035E+01  0.00000000000E+00 0.  1.
         11    1    3    3    0    0 -0.65200775021E+01 -0.53234660711E+01 -0.25623289258E+01  0.87986494094E+01  0.51100000000E-03 0. -1.
        -11    1    3    3    0    0 -0.51694155127E+01 -0.28066840895E+02 -0.23701659726E+02  0.37097696540E+02  0.51100000000E-03 0.  1.
         12    1    3    3    0    0  0.12575806256E+02  0.33691419806E+02  0.25545097868E+02  0.44111389647E+02  0.00000000000E+00 0. -1.
</event>
<event>
 7    1  0.2294706E-015  0.9000767E+02  0.7816164E-02  0.1186339E+00
        -11   -1    0    0    0    0  0.00000000000E+00  0.00000000000E+00  0.45593999997E+02  0.45594000000E+02  0.51100000000E-03 0.  1.
         11   -1    0    0    0    0 -0.00000000000E+00 -0.00000000000E+00 -0.45593999997E+02  0.45594000000E+02  0.51100000000E-03 0. -1.
    9900012    2    1    2    0    0  0.11622340960E+01  0.15359629960E+00 -0.13714709383E+00  0.90007665623E+02  0.89999926009E+02 0.  0.
        -12    1    1    2    0    0 -0.11622340960E+01 -0.15359629960E+00  0.13714709383E+00  0.11803343774E+01  0.00000000000E+00 0.  1.
         11    1    3    3    0    0  0.75501614953E+00 -0.12648526447E+01  0.10871242516E+02  0.10970588667E+02  0.51100000000E-03 0. -1.
        -11    1    3    3    0    0 -0.14126410831E+02 -0.29360490487E+02 -0.26155037011E+02  0.41781333702E+02  0.51100000000E-03 0.  1.
         12    1    3    3    0    0  0.14533628777E+02  0.30778939431E+02  0.15146647401E+02  0.37255743254E+02  0.00000000000E+00 0. -1.
</event>
<event>
 7    1  0.2294706E-015  0.9000786E+02  0.7816164E-02  0.1186339E+00
        -11   -1    0    0    0    0  0.00000000000E+00  0.00000000000E+00  0.45593999997E+02  0.45594000000E+02  0.51100000000E-03 0. -1.
         11   -1    0    0    0    0 -0.00000000000E+00 -0.00000000000E+00 -0.45593999997E+02  0.45594000000E+02  0.51100000000E-03 0.  1.
    9900012    2    1    2    0    0  0.83299428337E+00 -0.43426089679E+00  0.71433673100E+00  0.90007856378E+02  0.90000119282E+02 0.  0.
        -12    1    1    2    0    0 -0.83299428337E+00  0.43426089679E+00 -0.71433673100E+00  0.11801436217E+01  0.00000000000E+00 0.  1.
         11    1    3    3    0    0 -0.90836829697E+00 -0.19219028389E+02  0.22492586937E+02  0.29599200202E+02  0.51100000000E-03 0. -1.
        -11    1    3    3    0    0 -0.14377456364E+02  0.11068784711E+02  0.12305739341E+02  0.21923970158E+02  0.51100000000E-03 0.  1.
        -12    1    3    3    0    0  0.16118818945E+02  0.77159827820E+01 -0.34083989548E+02  0.38484686019E+02  0.00000000000E+00 0.  1.
</event>
<event>
 7    1  0.2294706E-015  0.9000788E+02  0.7816164E-02  0.1186339E+00
        -11   -1    0    0    0    0  0.00000000000E+00  0.00000000000E+00  0.45593999997E+02  0.45594000000E+02  0.51100000000E-03 0.  1.
         11   -1    0    0    0    0 -0.00000000000E+00 -0.00000000000E+00 -0.45593999997E+02  0.45594000000E+02  0.51100000000E-03 0. -1.
    9900012    2    1    2    0    0 -0.21054114767E+00  0.11601934356E+01  0.47990158766E-01  0.90007881600E+02  0.90000144837E+02 0.  0.
        -12    1    1    2    0    0  0.21054114767E+00 -0.11601934356E+01 -0.47990158766E-01  0.11801184001E+01  0.00000000000E+00 0.  1.
         11    1    3    3    0    0  0.34955619838E+02  0.24552910404E+02 -0.50052835042E+01  0.43009227274E+02  0.51100000000E-03 0. -1.
        -11    1    3    3    0    0 -0.25322171504E+01 -0.57751083943E+01  0.75403374640E+01  0.98295823916E+01  0.51100000000E-03 0.  1.
        -12    1    3    3    0    0 -0.32633943835E+02 -0.17617608574E+02 -0.24870638011E+01  0.37169071934E+02  0.00000000000E+00 0.  1.
</event>
<event>
 7    1  0.2294706E-015  0.9000772E+02  0.7816164E-02  0.1186339E+00
        -11   -1    0    0    0    0  0.00000000000E+00  0.00000000000E+00  0.45593999997E+02  0.45594000000E+02  0.51100000000E-03 0.  1.
         11   -1    0    0    0    0 -0.00000000000E+00 -0.00000000000E+00 -0.45593999997E+02  0.45594000000E+02  0.51100000000E-03 0. -1.
    9900012    2    1    2    0    0 -0.11328026292E+01  0.43623157845E-01 -0.32848848747E+00  0.90007724836E+02  0.89999986004E+02 0.  0.
        -12    1    1    2    0    0  0.11328026292E+01 -0.43623157845E-01  0.32848848747E+00  0.11802751641E+01  0.00000000000E+00 0.  1.
         11    1    3    3    0    0  0.21789780964E+02  0.29032196165E+01 -0.36976077833E+02  0.43016898665E+02  0.51100000000E-03 0. -1.
        -11    1    3    3    0    0 -0.59927415123E+01 -0.57894462087E+01  0.23938982750E+01  0.86695667394E+01  0.51100000000E-03 0.  1.
        -12    1    3    3    0    0 -0.16929842080E+02  0.29298497501E+01  0.34253691071E+02  0.38321259431E+02  0.00000000000E+00 0.  1.
</event>
<event>
 7    1  0.2294706E-015  0.9000768E+02  0.7816164E-02  0.1186339E+00
        -11   -1    0    0    0    0  0.00000000000E+00  0.00000000000E+00  0.45593999997E+02  0.45594000000E+02  0.51100000000E-03 0.  1.
         11   -1    0    0    0    0 -0.00000000000E+00 -0.00000000000E+00 -0.45593999997E+02  0.45594000000E+02  0.51100000000E-03 0. -1.
    9900012    2    1    2    0    0 -0.11310029251E+01  0.14175853230E+00 -0.30642057439E+00  0.90007679422E+02  0.89999939990E+02 0.  0.
        -12    1    1    2    0    0  0.11310029251E+01 -0.14175853230E+00  0.30642057439E+00  0.11803205779E+01  0.00000000000E+00 0.  1.
         11    1    3    3    0    0 -0.36073357019E+01 -0.67841443702E+01 -0.34333727400E+02  0.35182983432E+02  0.51100000000E-03 0. -1.
        -11    1    3    3    0    0 -0.81423673992E+01 -0.55212698191E+01 -0.60411145684E+01  0.11544593227E+02  0.51100000000E-03 0.  1.
        -12    1    3    3    0    0  0.10618700176E+02  0.12447172722E+02  0.40068421394E+02  0.43280102764E+02  0.00000000000E+00 0.  1.
</event>
<event>
 7    1  0.2294706E-015  0.9000766E+02  0.7816164E-02  0.1186339E+00
        -11   -1    0    0    0    0  0.00000000000E+00  0.00000000000E+00  0.45593999997E+02  0.45594000000E+02  0.51100000000E-03 0.  1.
         11   -1    0    0    0    0 -0.00000000000E+00 -0.00000000000E+00 -0.45593999997E+02  0.45594000000E+02  0.51100000000E-03 0. -1.
    9900012    2    1    2    0    0 -0.13555923053E+00  0.57551170259E+00 -0.10215755612E+01  0.90007658248E+02  0.89999918537E+02 0.  0.
        -12    1    1    2    0    0  0.13555923053E+00 -0.57551170259E+00  0.10215755612E+01  0.11803417522E+01  0.00000000000E+00 0.  1.
         11    1    3    3    0    0 -0.23515165232E+01 -0.64185784334E+01  0.68977646307E+01  0.97111758416E+01  0.51100000000E-03 0. -1.
        -11    1    3    3    0    0 -0.29330365657E+02 -0.22222803510E+02 -0.57423434860E+01  0.37243762624E+02  0.51100000000E-03 0.  1.
         12    1    3    3    0    0  0.31546322950E+02  0.29216893646E+02 -0.21769967059E+01  0.43052719782E+02  0.00000000000E+00 0. -1.
</event>
<event>
 7    1  0.2294706E-015  0.9000794E+02  0.7816164E-02  0.1186339E+00
        -11   -1    0    0    0    0  0.00000000000E+00  0.00000000000E+00  0.45593999997E+02  0.45594000000E+02  0.51100000000E-03 0. -1.
         11   -1    0    0    0    0 -0.00000000000E+00 -0.00000000000E+00 -0.45593999997E+02  0.45594000000E+02  0.51100000000E-03 0.  1.
    9900012    2    1    2    0    0  0.61682478678E+00  0.97847134005E+00  0.23380112384E+00  0.90007939855E+02  0.90000203861E+02 0.  0.
        -12    1    1    2    0    0 -0.61682478678E+00 -0.97847134005E+00 -0.23380112384E+00  0.11800601452E+01  0.00000000000E+00 0.  1.
         11    1    3    3    0    0  0.35020900417E+01 -0.26197403874E+01  0.89477683036E+01  0.99594293126E+01  0.51100000000E-03 0. -1.
        -11    1    3    3    0    0 -0.37466158316E+02 -0.24287914011E+01  0.11844857820E+02  0.39368930690E+02  0.51100000000E-03 0.  1.
         12    1    3    3    0    0  0.34580893061E+02  0.60270031285E+01 -0.20558825000E+02  0.40679579852E+02  0.00000000000E+00 0. -1.
</event>
<event>
 7    1  0.2294706E-015  0.9000774E+02  0.7816164E-02  0.1186339E+00
        -11   -1    0    0    0    0  0.00000000000E+00  0.00000000000E+00  0.45593999997E+02  0.45594000000E+02  0.51100000000E-03 0. -1.
         11   -1    0    0    0    0 -0.00000000000E+00 -0.00000000000E+00 -0.45593999997E+02  0.45594000000E+02  0.51100000000E-03 0.  1.
    9900012    2    1    2    0    0 -0.11733895955E+01 -0.12697095700E+00 -0.65280395522E-02  0.90007742663E+02  0.90000004066E+02 0.  0.
        -12    1    1    2    0    0  0.11733895955E+01  0.12697095700E+00  0.65280395522E-02  0.11802573372E+01  0.00000000000E+00 0.  1.
         11    1    3    3    0    0  0.21525137025E+01  0.74626456382E+00 -0.15855969787E+02  0.16018801584E+02  0.51100000000E-03 0. -1.
        -11    1    3    3    0    0 -0.78087247367E+01  0.11087516617E+02 -0.26492800570E+02  0.29762017557E+02  0.51100000000E-03 0.  1.
         12    1    3    3    0    0  0.44828214388E+01 -0.11960752138E+02  0.42342242318E+02  0.44226923522E+02  0.00000000000E+00 0. -1.
</event>
<event>
 7    1  0.2294706E-015  0.9000770E+02  0.7816164E-02  0.1186339E+00
        -11   -1    0    0    0    0  0.00000000000E+00  0.00000000000E+00  0.45593999997E+02  0.45594000000E+02  0.51100000000E-03 0.  1.
         11   -1    0    0    0    0 -0.00000000000E+00 -0.00000000000E+00 -0.45593999997E+02  0.45594000000E+02  0.51100000000E-03 0. -1.
    9900012    2    1    2    0    0  0.10750420118E+01  0.34715770642E+00 -0.34187892330E+00  0.90007697073E+02  0.89999957875E+02 0.  0.
        -12    1    1    2    0    0 -0.10750420118E+01 -0.34715770642E+00  0.34187892330E+00  0.11803029266E+01  0.00000000000E+00 0.  1.
         11    1    3    3    0    0 -0.21096305306E+02 -0.36269521144E+01 -0.30835358204E+02  0.37537024323E+02  0.51100000000E-03 0. -1.
        -11    1    3    3    0    0 -0.88762954243E+01 -0.40229947432E+01  0.28926824238E+01  0.10165663728E+02  0.51100000000E-03 0.  1.
        -12    1    3    3    0    0  0.31047642742E+02  0.79971045641E+01  0.27600796857E+02  0.42305009022E+02  0.00000000000E+00 0.  1.
</event>
<event>
 7    1  0.2294706E-015  0.9000775E+02  0.7816164E-02  0.1186339E+00
        -11   -1    0    0    0    0  0.00000000000E+00  0.00000000000E+00  0.45593999997E+02  0.45594000000E+02  0.51100000000E-03 0. -1.
         11   -1    0    0    0    0 -0.00000000000E+00 -0.00000000000E+00 -0.45593999997E+02  0.45594000000E+02  0.51100000000E-03 0.  1.
    9900012    2    1    2    0    0 -0.16127585003E+00  0.53945315378E+00  0.10372865183E+01  0.90007753023E+02  0.90000014563E+02 0.  0.
        -12    1    1    2    0    0  0.16127585003E+00 -0.53945315378E+00 -0.10372865183E+01  0.11802469767E+01  0.00000000000E+00 0.  1.
         11    1    3    3    0    0 -0.52387861950E+01 -0.94054761987E+01  0.27903011503E+01  0.11121764432E+02  0.51100000000E-03 0. -1.
        -11    1    3    3    0    0 -0.33132791387E+02 -0.10649492271E+02  0.42702052341E+01  0.35063202988E+02  0.51100000000E-03 0.  1.
         12    1    3    3    0    0  0.38210301732E+02  0.20594421623E+02 -0.60232198660E+01  0.43822785603E+02  0.00000000000E+00 0. -1.
</event>
<event>
 7    1  0.2294706E-015  0.9000770E+02  0.7816164E-02  0.1186339E+00
        -11   -1    0    0    0    0  0.00000000000E+00  0.00000000000E+00  0.45593999997E+02  0.45594000000E+02  0.51100000000E-03 0. -1.
         11   -1    0    0    0    0 -0.00000000000E+00 -0.00000000000E+00 -0.45593999997E+02  0.45594000000E+02  0.51100000000E-03 0.  1.
    9900012    2    1    2    0    0 -0.82201764902E-02  0.10169299208E+01  0.59908631537E+00  0.90007695612E+02  0.89999956394E+02 0.  0.
        -12    1    1    2    0    0  0.82201764902E-02 -0.10169299208E+01 -0.59908631537E+00  0.11803043881E+01  0.00000000000E+00 0.  1.
         11    1    3    3    0    0 -0.16861186272E+02 -0.33837431593E+02  0.13760710510E+02  0.40232182806E+02  0.51100000000E-03 0. -1.
        -11    1    3    3    0    0 -0.56710813817E+01  0.67351381179E+01  0.42314332592E+01  0.97687397956E+01  0.51100000000E-03 0.  1.
        -12    1    3    3    0    0  0.22524047477E+02  0.28119223396E+02 -0.17393057454E+02  0.40006773011E+02  0.00000000000E+00 0.  1.
</event>
<event>
 7    1  0.2294706E-015  0.9000765E+02  0.7816164E-02  0.1186339E+00
        -11   -1    0    0    0    0  0.00000000000E+00  0.00000000000E+00  0.45593999997E+02  0.45594000000E+02  0.51100000000E-03 0.  1.
         11   -1    0    0    0    0 -0.00000000000E+00 -0.00000000000E+00 -0.45593999997E+02  0.45594000000E+02  0.51100000000E-03 0. -1.
    9900012    2    1    2    0    0  0.12784221811E+00 -0.72534002714E+00 -0.92236861650E+00  0.90007650199E+02  0.89999910382E+02 0.  0.
        -12    1    1    2    0    0 -0.12784221811E+00  0.72534002714E+00  0.92236861650E+00  0.11803498009E+01  0.00000000000E+00 0.  1.
         11    1    3    3    0    0  0.37503817741E+00 -0.36440735526E+02 -0.61962566245E+01  0.36965679431E+02  0.51100000000E-03 0. -1.
        -11    1    3    3    0    0  0.47047478507E+01 -0.76995227793E+01 -0.43095593567E-01  0.90232566659E+01  0.51100000000E-03 0.  1.
        -12    1    3    3    0    0 -0.49519438100E+01  0.43414918279E+02  0.53169836015E+01  0.44018714103E+02  0.00000000000E+00 0.  1.
</event>
<event>
 7    1  0.3045788E-015  0.9000805E+02  0.7816164E-02  0.1186338E+00
        -11   -1    0    0    0    0  0.00000000000E+00  0.00000000000E+00  0.45593999997E+02  0.45594000000E+02  0.51100000000E-03 0.  1.
         11   -1    0    0    0    0 -0.00000000000E+00 -0.00000000000E+00 -0.45593999997E+02  0.45594000000E+02  0.51100000000E-03 0. -1.
    9900012    2    1    2    0    0  0.40893219575E+00  0.10317683739E+01 -0.40062537130E+00  0.90008054151E+02  0.90000319665E+02 0.  0.
        -12    1    1    2    0    0 -0.40893219575E+00 -0.10317683739E+01  0.40062537130E+00  0.11799458488E+01  0.00000000000E+00 0.  1.
         11    1    3    3    0    0 -0.18165494216E+01 -0.21305692834E+02 -0.30392475786E+02  0.37160933568E+02  0.51100000000E-03 0. -1.
        -11    1    3    3    0    0 -0.99210088208E+00  0.38980030905E+01 -0.88550675870E+01  0.97257860600E+01  0.51100000000E-03 0.  1.
        -12    1    3    3    0    0  0.32175824995E+01  0.18439458118E+02  0.38846918002E+02  0.43121334523E+02  0.00000000000E+00 0.  1.
</event>
<event>
 7    1  0.2294706E-015  0.9000735E+02  0.7816164E-02  0.1186340E+00
        -11   -1    0    0    0    0  0.00000000000E+00  0.00000000000E+00  0.45593999997E+02  0.45594000000E+02  0.51100000000E-03 0. -1.
         11   -1    0    0    0    0 -0.00000000000E+00 -0.00000000000E+00 -0.45593999997E+02  0.45594000000E+02  0.51100000000E-03 0.  1.
    9900012    2    1    2    0    0 -0.64716661607E+00  0.54938546816E+00  0.82053428946E+00  0.90007353761E+02  0.89999610030E+02 0.  0.
        -12    1    1    2    0    0  0.64716661607E+00 -0.54938546816E+00 -0.82053428946E+00  0.11806462390E+01  0.00000000000E+00 0.  1.
         11    1    3    3    0    0 -0.16502880728E+01  0.15082417130E+01 -0.64734775079E+01  0.68486608249E+01  0.51100000000E-03 0. -1.
        -11    1    3    3    0    0  0.77754360161E+01 -0.12297363587E+02 -0.35503871097E+02  0.38369355215E+02  0.51100000000E-03 0.  1.
         12    1    3    3    0    0 -0.67723145594E+01  0.11338507343E+02  0.42797882895E+02  0.44789337721E+02  0.00000000000E+00 0. -1.
</event>
<event>
 7    1  0.2294706E-015  0.9000770E+02  0.7816164E-02  0.1186339E+00
        -11   -1    0    0    0    0  0.00000000000E+00  0.00000000000E+00  0.45593999997E+02  0.45594000000E+02  0.51100000000E-03 0.  1.
         11   -1    0    0    0    0 -0.00000000000E+00 -0.00000000000E+00 -0.45593999997E+02  0.45594000000E+02  0.51100000000E-03 0. -1.
    9900012    2    1    2    0    0  0.48369100777E+00  0.86990642747E+00 -0.63435237652E+00  0.90007704647E+02  0.89999965548E+02 0.  0.
        -12    1    1    2    0    0 -0.48369100777E+00 -0.86990642747E+00  0.63435237652E+00  0.11802953533E+01  0.00000000000E+00 0.  1.
         11    1    3    3    0    0 -0.97035619071E+01 -0.36151583173E+01  0.25228132755E+00  0.10358191419E+02  0.51100000000E-03 0. -1.
        -11    1    3    3    0    0  0.81717125061E+01 -0.24094555671E+02  0.28775256180E+02  0.38410153173E+02  0.51100000000E-03 0.  1.
         12    1    3    3    0    0  0.20155404088E+01  0.28579620416E+02 -0.29661889884E+02  0.41239360055E+02  0.00000000000E+00 0. -1.
</event>
<event>
 7    1  0.2294706E-015  0.9000776E+02  0.7816164E-02  0.1186339E+00
        -11   -1    0    0    0    0  0.00000000000E+00  0.00000000000E+00  0.45593999997E+02  0.45594000000E+02  0.51100000000E-03 0.  1.
         11   -1    0    0    0    0 -0.00000000000E+00 -0.00000000000E+00 -0.45593999997E+02  0.45594000000E+02  0.51100000000E-03 0. -1.
    9900012    2    1    2    0    0  0.43380071376E+00  0.95218170830E+00  0.54600956844E+00  0.90007762942E+02  0.90000024613E+02 0.  0.
        -12    1    1    2    0    0 -0.43380071376E+00 -0.95218170830E+00 -0.54600956844E+00  0.11802370583E+01  0.00000000000E+00 0.  1.
         11    1    3    3    0    0 -0.11201107095E+02  0.24148991552E+02 -0.23780684178E+02  0.35695371316E+02  0.51100000000E-03 0. -1.
        -11    1    3    3    0    0 -0.14423551649E+02 -0.54473586636E+01  0.17145570550E+01  0.15512970854E+02  0.51100000000E-03 0.  1.
        -12    1    3    3    0    0  0.26058459457E+02 -0.17749451181E+02  0.22612136691E+02  0.38799420772E+02  0.00000000000E+00 0.  1.
</event>
<event>
 7    1  0.2294706E-015  0.9000775E+02  0.7816164E-02  0.1186339E+00
        -11   -1    0    0    0    0  0.00000000000E+00  0.00000000000E+00  0.45593999997E+02  0.45594000000E+02  0.51100000000E-03 0.  1.
         11   -1    0    0    0    0 -0.00000000000E+00 -0.00000000000E+00 -0.45593999997E+02  0.45594000000E+02  0.51100000000E-03 0. -1.
    9900012    2    1    2    0    0 -0.10194901951E+01  0.21860651490E-01 -0.59426905697E+00  0.90007748392E+02  0.90000009871E+02 0.  0.
        -12    1    1    2    0    0  0.10194901951E+01 -0.21860651490E-01  0.59426905697E+00  0.11802516080E+01  0.00000000000E+00 0.  1.
         11    1    3    3    0    0  0.16799139564E+02 -0.29337106601E+01 -0.40012795428E+02  0.43495304879E+02  0.51100000000E-03 0. -1.
        -11    1    3    3    0    0 -0.61451103867E+01  0.49709404669E+01  0.34150855170E+01  0.86101939664E+01  0.51100000000E-03 0.  1.
        -12    1    3    3    0    0 -0.11673519372E+02 -0.20153691553E+01  0.36003440854E+02  0.37902249546E+02  0.00000000000E+00 0.  1.
</event>
<event>
 7    1  0.2294706E-015  0.9000775E+02  0.7816164E-02  0.1186339E+00
        -11   -1    0    0    0    0  0.00000000000E+00  0.00000000000E+00  0.45593999997E+02  0.45594000000E+02  0.51100000000E-03 0. -1.
         11   -1    0    0    0    0 -0.00000000000E+00 -0.00000000000E+00 -0.45593999997E+02  0.45594000000E+02  0.51100000000E-03 0.  1.
    9900012    2    1    2    0    0  0.37849818168E+00 -0.10897514857E+01  0.24934961522E+00  0.90007748160E+02  0.90000009636E+02 0.  0.
        -12    1    1    2    0    0 -0.37849818168E+00  0.10897514857E+01 -0.24934961522E+00  0.11802518395E+01  0.00000000000E+00 0.  1.
         11    1    3    3    0    0  0.42602677293E+01  0.33882688275E+02  0.25902294140E+02  0.42861582890E+02  0.51100000000E-03 0. -1.
        -11    1    3    3    0    0 -0.71665115746E+01 -0.47047497425E+01 -0.26024281872E+01  0.89591400826E+01  0.51100000000E-03 0.  1.
        -12    1    3    3    0    0  0.32847420270E+01 -0.30267690019E+02 -0.23050516338E+02  0.38187025188E+02  0.00000000000E+00 0.  1.
</event>
<event>
 7    1  0.2294706E-015  0.9000775E+02  0.7816164E-02  0.1186339E+00
        -11   -1    0    0    0    0  0.00000000000E+00  0.00000000000E+00  0.45593999997E+02  0.45594000000E+02  0.51100000000E-03 0. -1.
         11   -1    0    0    0    0 -0.00000000000E+00 -0.00000000000E+00 -0.45593999997E+02  0.45594000000E+02  0.51100000000E-03 0.  1.
    9900012    2    1    2    0    0 -0.99225899197E+00  0.36129720738E+00  0.52714365341E+00  0.90007748327E+02  0.90000009805E+02 0.  0.
        -12    1    1    2    0    0  0.99225899197E+00 -0.36129720738E+00 -0.52714365341E+00  0.11802516725E+01  0.00000000000E+00 0.  1.
         11    1    3    3    0    0 -0.65234401238E+00 -0.37309240494E+01 -0.77591655672E+01  0.86342340443E+01  0.51100000000E-03 0. -1.
        -11    1    3    3    0    0  0.26920867266E+02 -0.14980698949E+02 -0.20807339823E+02  0.37176603209E+02  0.51100000000E-03 0.  1.
         12    1    3    3    0    0 -0.27260782246E+02  0.19072920206E+02  0.29093649044E+02  0.44196911074E+02  0.00000000000E+00 0. -1.
</event>
<event>
 7    1  0.2294706E-015  0.9000768E+02  0.7816164E-02  0.1186339E+00
        -11   -1    0    0    0    0  0.00000000000E+00  0.00000000000E+00  0.45593999997E+02  0.45594000000E+02  0.51100000000E-03 0. -1.
         11   -1    0    0    0    0 -0.00000000000E+00 -0.00000000000E+00 -0.45593999997E+02  0.45594000000E+02  0.51100000000E-03 0.  1.
    9900012    2    1    2    0    0 -0.84695155702E+00  0.64937589079E+00  0.50413187588E+00  0.90007675919E+02  0.89999936441E+02 0.  0.
        -12    1    1    2    0    0  0.84695155702E+00 -0.64937589079E+00 -0.50413187588E+00  0.11803240808E+01  0.00000000000E+00 0.  1.
         11    1    3    3    0    0  0.56419908262E+01 -0.42131685822E+01  0.59232520132E+01  0.92015088251E+01  0.51100000000E-03 0. -1.
        -11    1    3    3    0    0  0.82016889007E+00 -0.27872335701E+02  0.23540980350E+02  0.36492705169E+02  0.51100000000E-03 0.  1.
         12    1    3    3    0    0 -0.73091112733E+01  0.32734880174E+02 -0.28960100487E+02  0.44313461926E+02  0.00000000000E+00 0. -1.
</event>
<event>
 7    1  0.2294706E-015  0.9000776E+02  0.7816164E-02  0.1186339E+00
        -11   -1    0    0    0    0  0.00000000000E+00  0.00000000000E+00  0.45593999997E+02  0.45594000000E+02  0.51100000000E-03 0. -1.
         11   -1    0    0    0    0 -0.00000000000E+00 -0.00000000000E+00 -0.45593999997E+02  0.45594000000E+02  0.51100000000E-03 0.  1.
    9900012    2    1    2    0    0  0.46887993495E+00 -0.10389480919E+01  0.30611702842E+00  0.90007758853E+02  0.90000020469E+02 0.  0.
        -12    1    1    2    0    0 -0.46887993495E+00  0.10389480919E+01 -0.30611702842E+00  0.11802411475E+01  0.00000000000E+00 0.  1.
         11    1    3    3    0    0 -0.81457451992E+01  0.78392810234E-01 -0.23216917940E+01  0.84705113972E+01  0.51100000000E-03 0. -1.
        -11    1    3    3    0    0  0.42948260260E+02  0.81608017490E+01 -0.79471041649E+01  0.44433188153E+02  0.51100000000E-03 0.  1.
         12    1    3    3    0    0 -0.34333635126E+02 -0.92781426512E+01  0.10574912987E+02  0.37104059302E+02  0.00000000000E+00 0. -1.
</event>
<event>
 7    1  0.2294706E-015  0.9000764E+02  0.7816164E-02  0.1186339E+00
        -11   -1    0    0    0    0  0.00000000000E+00  0.00000000000E+00  0.45593999997E+02  0.45594000000E+02  0.51100000000E-03 0.  1.
         11   -1    0    0    0    0 -0.00000000000E+00 -0.00000000000E+00 -0.45593999997E+02  0.45594000000E+02  0.51100000000E-03 0. -1.
    9900012    2    1    2    0    0 -0.92605381700E+00 -0.37953761714E+00  0.62580180242E+00  0.90007638881E+02  0.89999898914E+02 0.  0.
        -12    1    1    2    0    0  0.92605381700E+00  0.37953761714E+00 -0.62580180242E+00  0.11803611188E+01  0.00000000000E+00 0.  1.
         11    1    3    3    0    0  0.31092691405E+02  0.16050118586E+02 -0.13587161635E+02  0.37536285472E+02  0.51100000000E-03 0. -1.
        -11    1    3    3    0    0  0.48436793687E+01 -0.87241944903E+01 -0.38610587263E+01  0.10699559527E+02  0.51100000000E-03 0.  1.
        -12    1    3    3    0    0 -0.36862424591E+02 -0.77054617131E+01  0.18074022164E+02  0.41771793882E+02  0.00000000000E+00 0.  1.
</event>
<event>
 7    1  0.2294706E-015  0.9000774E+02  0.7816164E-02  0.1186339E+00
        -11   -1    0    0    0    0  0.00000000000E+00  0.00000000000E+00  0.45593999997E+02  0.45594000000E+02  0.51100000000E-03 0. -1.
         11   -1    0    0    0    0 -0.00000000000E+00 -0.00000000000E+00 -0.45593999997E+02  0.45594000000E+02  0.51100000000E-03 0.  1.
    9900012    2    1    2    0    0 -0.80276809316E+00  0.15218899764E-01  0.86507620181E+00  0.90007735173E+02  0.89999996478E+02 0.  0.
        -12    1    1    2    0    0  0.80276809316E+00 -0.15218899764E-01 -0.86507620181E+00  0.11802648267E+01  0.00000000000E+00 0.  1.
         11    1    3    3    0    0  0.16026230981E+02  0.22449641389E+01  0.31054918746E+02  0.35018394052E+02  0.51100000000E-03 0. -1.
        -11    1    3    3    0    0  0.64600889261E+01  0.77750030006E+01  0.52715076057E+01  0.11400535658E+02  0.51100000000E-03 0.  1.
        -12    1    3    3    0    0 -0.23289088001E+02 -0.10004748240E+02 -0.35461350150E+02  0.43588805463E+02  0.00000000000E+00 0.  1.
</event>
<event>
 7    1  0.2327098E-015  0.9000788E+02  0.7816164E-02  0.1186339E+00
        -11   -1    0    0    0    0  0.00000000000E+00  0.00000000000E+00  0.45593999997E+02  0.45594000000E+02  0.51100000000E-03 0. -1.
         11   -1    0    0    0    0 -0.00000000000E+00 -0.00000000000E+00 -0.45593999997E+02  0.45594000000E+02  0.51100000000E-03 0.  1.
    9900012    2    1    2    0    0  0.77484970608E+00  0.84361293228E-01 -0.88610110801E+00  0.90007879638E+02  0.90000142849E+02 0.  0.
        -12    1    1    2    0    0 -0.77484970608E+00 -0.84361293228E-01  0.88610110801E+00  0.11801203618E+01  0.00000000000E+00 0.  1.
         11    1    3    3    0    0 -0.20099897068E+02  0.32497073313E+02 -0.10925403174E+02  0.39742044120E+02  0.51100000000E-03 0. -1.
        -11    1    3    3    0    0  0.63622520985E+01  0.14447213629E+01 -0.70954433261E+01  0.96390242160E+01  0.51100000000E-03 0.  1.
        -12    1    3    3    0    0  0.14512494675E+02 -0.33857433383E+02  0.17134745392E+02  0.40626811302E+02  0.00000000000E+00 0.  1.
</event>
<event>
 7    1  0.2294706E-015  0.9000799E+02  0.7816164E-02  0.1186339E+00
        -11   -1    0    0    0    0  0.00000000000E+00  0.00000000000E+00  0.45593999997E+02  0.45594000000E+02  0.51100000000E-03 0.  1.
         11   -1    0    0    0    0 -0.00000000000E+00 -0.00000000000E+00 -0.45593999997E+02  0.45594000000E+02  0.51100000000E-03 0. -1.
    9900012    2    1    2    0    0 -0.63777094179E+00 -0.86910901937E+00  0.47992099969E+00  0.90007988802E+02  0.90000253454E+02 0.  0.
        -12    1    1    2    0    0  0.63777094179E+00  0.86910901937E+00 -0.47992099969E+00  0.11800111981E+01  0.00000000000E+00 0.  1.
         11    1    3    3    0    0 -0.17200310622E+01  0.19154428253E+01 -0.36664934866E+02  0.36755202041E+02  0.51100000000E-03 0. -1.
        -11    1    3    3    0    0  0.74918432332E+00 -0.42183907337E+01 -0.74711826893E+01  0.86124716876E+01  0.51100000000E-03 0.  1.
        -12    1    3    3    0    0  0.33307579713E+00  0.14338388890E+01  0.44616038555E+02  0.44640315073E+02  0.00000000000E+00 0.  1.
</event>
<event>
 7    1  0.2294706E-015  0.9000776E+02  0.7816164E-02  0.1186339E+00
        -11   -1    0    0    0    0  0.00000000000E+00  0.00000000000E+00  0.45593999997E+02  0.45594000000E+02  0.51100000000E-03 0.  1.
         11   -1    0    0    0    0 -0.00000000000E+00 -0.00000000000E+00 -0.45593999997E+02  0.45594000000E+02  0.51100000000E-03 0. -1.
    9900012    2    1    2    0    0 -0.10747282832E+01 -0.12281116619E-01 -0.48762678273E+00  0.90007757827E+02  0.90000019430E+02 0.  0.
        -12    1    1    2    0    0  0.10747282832E+01  0.12281116619E-01  0.48762678273E+00  0.11802421734E+01  0.00000000000E+00 0.  1.
         11    1    3    3    0    0  0.15234619604E+02  0.85248394399E+01 -0.37830420448E+02  0.41664220063E+02  0.51100000000E-03 0. -1.
        -11    1    3    3    0    0  0.67884847790E+00 -0.58016723481E+01 -0.13517177809E+01  0.59956132723E+01  0.51100000000E-03 0.  1.
        -12    1    3    3    0    0 -0.16988196365E+02 -0.27354482084E+01  0.38694511446E+02  0.42347924491E+02  0.00000000000E+00 0.  1.
</event>
<event>
 7    1  0.2294706E-015  0.9000784E+02  0.7816164E-02  0.1186339E+00
        -11   -1    0    0    0    0  0.00000000000E+00  0.00000000000E+00  0.45593999997E+02  0.45594000000E+02  0.51100000000E-03 0.  1.
         11   -1    0    0    0    0 -0.00000000000E+00 -0.00000000000E+00 -0.45593999997E+02  0.45594000000E+02  0.51100000000E-03 0. -1.
    9900012    2    1    2    0    0 -0.92802171917E+00  0.64259024524E+00 -0.34442001853E+00  0.90007842517E+02  0.90000105239E+02 0.  0.
        -12    1    1    2    0    0  0.92802171917E+00 -0.64259024524E+00  0.34442001853E+00  0.11801574826E+01  0.00000000000E+00 0.  1.
         11    1    3    3    0    0  0.13942344823E+02 -0.27255252404E+02 -0.18387311849E+02  0.35711776770E+02  0.51100000000E-03 0. -1.
        -11    1    3    3    0    0  0.11822543773E+02 -0.92173415233E+00  0.53957416572E+01  0.13028283210E+02  0.51100000000E-03 0.  1.
        -12    1    3    3    0    0 -0.26692910315E+02  0.28819576801E+02  0.12647150173E+02  0.41267782538E+02  0.00000000000E+00 0.  1.
</event>
<event>
 7    1  0.2294706E-015  0.9000777E+02  0.7816164E-02  0.1186339E+00
        -11   -1    0    0    0    0  0.00000000000E+00  0.00000000000E+00  0.45593999997E+02  0.45594000000E+02  0.51100000000E-03 0. -1.
         11   -1    0    0    0    0 -0.00000000000E+00 -0.00000000000E+00 -0.45593999997E+02  0.45594000000E+02  0.51100000000E-03 0.  1.
    9900012    2    1    2    0    0 -0.94093374036E+00 -0.23817578447E+00 -0.67146061895E+00  0.90007769781E+02  0.90000031542E+02 0.  0.
        -12    1    1    2    0    0  0.94093374036E+00  0.23817578447E+00  0.67146061895E+00  0.11802302194E+01  0.00000000000E+00 0.  1.
         11    1    3    3    0    0  0.31136889667E+02 -0.50873534900E+01 -0.13982692707E+02  0.34509458983E+02  0.51100000000E-03 0. -1.
        -11    1    3    3    0    0  0.84691314548E+01  0.56879831389E+01 -0.45662033468E+01  0.11177188960E+02  0.51100000000E-03 0.  1.
        -12    1    3    3    0    0 -0.40546954863E+02 -0.83880543334E+00  0.17877435435E+02  0.44321121837E+02  0.00000000000E+00 0.  1.
</event>
<event>
 7    1  0.2294706E-015  0.9000784E+02  0.7816164E-02  0.1186339E+00
        -11   -1    0    0    0    0  0.00000000000E+00  0.00000000000E+00  0.45593999997E+02  0.45594000000E+02  0.51100000000E-03 0. -1.
         11   -1    0    0    0    0 -0.00000000000E+00 -0.00000000000E+00 -0.45593999997E+02  0.45594000000E+02  0.51100000000E-03 0.  1.
    9900012    2    1    2    0    0  0.11386818486E+01  0.27926312219E+00  0.13491774675E+00  0.90007836010E+02  0.90000098646E+02 0.  0.
        -12    1    1    2    0    0 -0.11386818486E+01 -0.27926312219E+00 -0.13491774675E+00  0.11801639895E+01  0.00000000000E+00 0.  1.
         11    1    3    3    0    0  0.96676093857E+01 -0.26133852706E+01 -0.40013664146E-01  0.10014691965E+02  0.51100000000E-03 0. -1.
        -11    1    3    3    0    0  0.22272187240E+02 -0.13257380172E+02  0.25971192034E+02  0.36692114539E+02  0.51100000000E-03 0.  1.
         12    1    3    3    0    0 -0.30801114777E+02  0.16150028565E+02 -0.25796260623E+02  0.43301029506E+02  0.00000000000E+00 0. -1.
</event>
<event>
 7    1  0.2294706E-015  0.9000779E+02  0.7816164E-02  0.1186339E+00
        -11   -1    0    0    0    0  0.00000000000E+00  0.00000000000E+00  0.45593999997E+02  0.45594000000E+02  0.51100000000E-03 0. -1.
         11   -1    0    0    0    0 -0.00000000000E+00 -0.00000000000E+00 -0.45593999997E+02  0.45594000000E+02  0.51100000000E-03 0.  1.
    9900012    2    1    2    0    0 -0.38908371195E+00 -0.31121855151E+00  0.10698869489E+01  0.90007787644E+02  0.90000049641E+02 0.  0.
        -12    1    1    2    0    0  0.38908371195E+00  0.31121855151E+00 -0.10698869489E+01  0.11802123559E+01  0.00000000000E+00 0.  1.
         11    1    3    3    0    0 -0.30568473011E+02  0.17857086448E+02  0.10850681458E+02  0.37027616274E+02  0.51100000000E-03 0. -1.
        -11    1    3    3    0    0 -0.31504689160E+01  0.68153302389E+01 -0.84514172355E+01  0.11304894259E+02  0.51100000000E-03 0.  1.
        -12    1    3    3    0    0  0.33329858215E+02 -0.24983635238E+02 -0.13293772737E+01  0.41675277111E+02  0.00000000000E+00 0.  1.
</event>
<event>
 7    1  0.2294706E-015  0.9000780E+02  0.7816164E-02  0.1186339E+00
        -11   -1    0    0    0    0  0.00000000000E+00  0.00000000000E+00  0.45593999997E+02  0.45594000000E+02  0.51100000000E-03 0.  1.
         11   -1    0    0    0    0 -0.00000000000E+00 -0.00000000000E+00 -0.45593999997E+02  0.45594000000E+02  0.51100000000E-03 0. -1.
    9900012    2    1    2    0    0 -0.68794685069E-01 -0.11525476446E+01 -0.24447427819E+00  0.90007802366E+02  0.90000064558E+02 0.  0.
        -12    1    1    2    0    0  0.68794685069E-01  0.11525476446E+01  0.24447427819E+00  0.11801976337E+01  0.00000000000E+00 0.  1.
         11    1    3    3    0    0  0.70755406192E+01  0.83678113595E+01  0.25021392447E+01  0.11240295506E+02  0.51100000000E-03 0. -1.
        -11    1    3    3    0    0 -0.15978045863E+02  0.27233358237E+02  0.17275763400E+02  0.35991745606E+02  0.51100000000E-03 0.  1.
         12    1    3    3    0    0  0.88337105586E+01 -0.36753717241E+02 -0.20022376923E+02  0.42775761254E+02  0.00000000000E+00 0. -1.
</event>
<event>
 7    1  0.2294706E-015  0.9000762E+02  0.7816164E-02  0.1186339E+00
        -11   -1    0    0    0    0  0.00000000000E+00  0.00000000000E+00  0.45593999997E+02  0.45594000000E+02  0.51100000000E-03 0.  1.
         11   -1    0    0    0    0 -0.00000000000E+00 -0.00000000000E+00 -0.45593999997E+02  0.45594000000E+02  0.51100000000E-03 0. -1.
    9900012    2    1    2    0    0  0.53092295083E+00 -0.39626386660E+00 -0.97693466548E+00  0.90007616345E+02  0.89999876081E+02 0.  0.
        -12    1    1    2    0    0 -0.53092295083E+00  0.39626386660E+00  0.97693466548E+00  0.11803836547E+01  0.00000000000E+00 0.  1.
         11    1    3    3    0    0 -0.14368635323E+02  0.34629024121E+02 -0.10373719293E+01  0.37506041292E+02  0.51100000000E-03 0. -1.
        -11    1    3    3    0    0  0.79634159182E+00  0.41793860064E+01 -0.89180270402E+01  0.98809227237E+01  0.51100000000E-03 0.  1.
        -12    1    3    3    0    0  0.14103216682E+02 -0.39204673994E+02  0.89784643041E+01  0.42620652330E+02  0.00000000000E+00 0.  1.
</event>
<event>
 7    1  0.2294706E-015  0.9000778E+02  0.7816164E-02  0.1186339E+00
        -11   -1    0    0    0    0  0.00000000000E+00  0.00000000000E+00  0.45593999997E+02  0.45594000000E+02  0.51100000000E-03 0. -1.
         11   -1    0    0    0    0 -0.00000000000E+00 -0.00000000000E+00 -0.45593999997E+02  0.45594000000E+02  0.51100000000E-03 0.  1.
    9900012    2    1    2    0    0 -0.62349686110E+00  0.87153844243E+00  0.49456163694E+00  0.90007780188E+02  0.90000042086E+02 0.  0.
        -12    1    1    2    0    0  0.62349686110E+00 -0.87153844243E+00 -0.49456163694E+00  0.11802198122E+01  0.00000000000E+00 0.  1.
         11    1    3    3    0    0 -0.25492423396E+02  0.25004842825E+02  0.19851956159E+02  0.40855917306E+02  0.51100000000E-03 0. -1.
        -11    1    3    3    0    0  0.11270727724E+01  0.60612404348E+01 -0.56677667188E+01  0.83745154178E+01  0.51100000000E-03 0.  1.
        -12    1    3    3    0    0  0.23741853763E+02 -0.30194544818E+02 -0.13689627803E+02  0.40777347464E+02  0.00000000000E+00 0.  1.
</event>
<event>
 7    1  0.2294706E-015  0.9000750E+02  0.7816164E-02  0.1186340E+00
        -11   -1    0    0    0    0  0.00000000000E+00  0.00000000000E+00  0.45593999997E+02  0.45594000000E+02  0.51100000000E-03 0. -1.
         11   -1    0    0    0    0 -0.00000000000E+00 -0.00000000000E+00 -0.45593999997E+02  0.45594000000E+02  0.51100000000E-03 0.  1.
    9900012    2    1    2    0    0  0.16297261003E+00 -0.50880179526E+00  0.10526784302E+01  0.90007503826E+02  0.89999762077E+02 0.  0.
        -12    1    1    2    0    0 -0.16297261003E+00  0.50880179526E+00 -0.10526784302E+01  0.11804961736E+01  0.00000000000E+00 0.  1.
         11    1    3    3    0    0 -0.62580322247E+01  0.29851359742E+01  0.57513528851E+01  0.90084440598E+01  0.51100000000E-03 0. -1.
        -11    1    3    3    0    0 -0.30674219414E+02 -0.17143214882E+02 -0.17756720655E+02  0.39371292611E+02  0.51100000000E-03 0.  1.
         12    1    3    3    0    0  0.37095224249E+02  0.13649277113E+02  0.13058046200E+02  0.41627767156E+02  0.00000000000E+00 0. -1.
</event>
<event>
 7    1  0.2294706E-015  0.9000767E+02  0.7816164E-02  0.1186339E+00
        -11   -1    0    0    0    0  0.00000000000E+00  0.00000000000E+00  0.45593999997E+02  0.45594000000E+02  0.51100000000E-03 0.  1.
         11   -1    0    0    0    0 -0.00000000000E+00 -0.00000000000E+00 -0.45593999997E+02  0.45594000000E+02  0.51100000000E-03 0. -1.
    9900012    2    1    2    0    0 -0.13129011212E+00 -0.11299010393E+01 -0.31505892744E+00  0.90007671410E+02  0.89999931873E+02 0.  0.
        -12    1    1    2    0    0  0.13129011212E+00  0.11299010393E+01  0.31505892744E+00  0.11803285898E+01  0.00000000000E+00 0.  1.
         11    1    3    3    0    0  0.22486524837E+02 -0.68875700540E+01 -0.27742916102E+02  0.36369655135E+02  0.51100000000E-03 0. -1.
        -11    1    3    3    0    0  0.39076568585E+01 -0.88718906220E+01 -0.35375788561E+01  0.10319626435E+02  0.51100000000E-03 0.  1.
        -12    1    3    3    0    0 -0.26525471808E+02  0.14629559637E+02  0.30965436031E+02  0.43318389840E+02  0.00000000000E+00 0.  1.
</event>
<event>
 7    1  0.2294706E-015  0.9000768E+02  0.7816164E-02  0.1186339E+00
        -11   -1    0    0    0    0  0.00000000000E+00  0.00000000000E+00  0.45593999997E+02  0.45594000000E+02  0.51100000000E-03 0.  1.
         11   -1    0    0    0    0 -0.00000000000E+00 -0.00000000000E+00 -0.45593999997E+02  0.45594000000E+02  0.51100000000E-03 0. -1.
    9900012    2    1    2    0    0 -0.33241137027E+00 -0.10945905275E+01 -0.29075016784E+00  0.90007677416E+02  0.89999937958E+02 0.  0.
        -12    1    1    2    0    0  0.33241137027E+00  0.10945905275E+01  0.29075016784E+00  0.11803225839E+01  0.00000000000E+00 0.  1.
         11    1    3    3    0    0  0.24433192915E+01  0.39934579466E+01 -0.12774184806E+02  0.13605047345E+02  0.51100000000E-03 0. -1.
        -11    1    3    3    0    0  0.14020155480E+02  0.22456481369E+02 -0.18003249195E+02  0.32015235389E+02  0.51100000000E-03 0.  1.
         12    1    3    3    0    0 -0.16795886142E+02 -0.27544529843E+02  0.30486683833E+02  0.44387394683E+02  0.00000000000E+00 0. -1.
</event>
<event>
 7    1  0.2294706E-015  0.9000771E+02  0.7816164E-02  0.1186339E+00
        -11   -1    0    0    0    0  0.00000000000E+00  0.00000000000E+00  0.45593999997E+02  0.45594000000E+02  0.51100000000E-03 0. -1.
         11   -1    0    0    0    0 -0.00000000000E+00 -0.00000000000E+00 -0.45593999997E+02  0.45594000000E+02  0.51100000000E-03 0.  1.
    9900012    2    1    2    0    0  0.67998425051E+00 -0.95869118051E+00 -0.10779200883E+00  0.90007709155E+02  0.89999970116E+02 0.  0.
        -12    1    1    2    0    0 -0.67998425051E+00  0.95869118051E+00  0.10779200883E+00  0.11802908445E+01  0.00000000000E+00 0.  1.
         11    1    3    3    0    0 -0.27065431435E+02  0.19935288035E+02  0.16239823487E+02  0.37332092828E+02  0.51100000000E-03 0. -1.
        -11    1    3    3    0    0 -0.42394199133E+01  0.61286768952E+01 -0.59396944360E+01  0.95296029267E+01  0.51100000000E-03 0.  1.
        -12    1    3    3    0    0  0.31984835599E+02 -0.27022656111E+02 -0.10407921060E+02  0.43146013400E+02  0.00000000000E+00 0.  1.
</event>
<event>
 7    1  0.2294706E-015  0.9000777E+02  0.7816164E-02  0.1186339E+00
        -11   -1    0    0    0    0  0.00000000000E+00  0.00000000000E+00  0.45593999997E+02  0.45594000000E+02  0.51100000000E-03 0.  1.
         11   -1    0    0    0    0 -0.00000000000E+00 -0.00000000000E+00 -0.45593999997E+02  0.45594000000E+02  0.51100000000E-03 0. -1.
    9900012    2    1    2    0    0 -0.61359996895E+00 -0.10041731277E+01  0.89900515218E-01  0.90007766678E+02  0.90000028398E+02 0.  0.
        -12    1    1    2    0    0  0.61359996895E+00  0.10041731277E+01 -0.89900515218E-01  0.11802333222E+01  0.00000000000E+00 0.  1.
         11    1    3    3    0    0  0.24384334258E+02  0.19385236843E+02 -0.20407744786E+02  0.37240558698E+02  0.51100000000E-03 0. -1.
        -11    1    3    3    0    0 -0.57453520863E+01  0.76206077468E+01 -0.45239993997E+01  0.10561690388E+02  0.51100000000E-03 0.  1.
        -12    1    3    3    0    0 -0.19252582140E+02 -0.28010017718E+02  0.25021644701E+02  0.42205517591E+02  0.00000000000E+00 0.  1.
</event>
<event>
 7    1  0.2294706E-015  0.9000777E+02  0.7816164E-02  0.1186339E+00
        -11   -1    0    0    0    0  0.00000000000E+00  0.00000000000E+00  0.45593999997E+02  0.45594000000E+02  0.51100000000E-03 0.  1.
         11   -1    0    0    0    0 -0.00000000000E+00 -0.00000000000E+00 -0.45593999997E+02  0.45594000000E+02  0.51100000000E-03 0. -1.
    9900012    2    1    2    0    0 -0.10543727514E+01  0.18306024522E+00 -0.49771386930E+00  0.90007774577E+02  0.90000036402E+02 0.  0.
        -12    1    1    2    0    0  0.10543727514E+01 -0.18306024522E+00  0.49771386930E+00  0.11802254225E+01  0.00000000000E+00 0.  1.
         11    1    3    3    0    0  0.89319168642E+01 -0.13033815277E+01  0.77071010280E+00  0.90593563016E+01  0.51100000000E-03 0. -1.
        -11    1    3    3    0    0  0.29829511570E+02  0.21086228370E+02  0.52694469965E+00  0.36533634618E+02  0.51100000000E-03 0.  1.
         12    1    3    3    0    0 -0.39815801186E+02 -0.19599786597E+02 -0.17953686718E+01  0.44414783658E+02  0.00000000000E+00 0. -1.
</event>
<event>
 7    1  0.2294706E-015  0.9000770E+02  0.7816164E-02  0.1186339E+00
        -11   -1    0    0    0    0  0.00000000000E+00  0.00000000000E+00  0.45593999997E+02  0.45594000000E+02  0.51100000000E-03 0. -1.
         11   -1    0    0    0    0 -0.00000000000E+00 -0.00000000000E+00 -0.45593999997E+02  0.45594000000E+02  0.51100000000E-03 0.  1.
    9900012    2    1    2    0    0  0.18970398530E-01  0.98288934177E+00  0.65320954795E+00  0.90007697476E+02  0.89999958283E+02 0.  0.
        -12    1    1    2    0    0 -0.18970398530E-01 -0.98288934177E+00 -0.65320954795E+00  0.11803025238E+01  0.00000000000E+00 0.  1.
         11    1    3    3    0    0 -0.79752018730E+01 -0.57017316354E-01 -0.37667740296E+01  0.88201860944E+01  0.51100000000E-03 0. -1.
        -11    1    3    3    0    0  0.14150161308E+02  0.89808587013E+01 -0.35908052918E+02  0.39626647003E+02  0.51100000000E-03 0.  1.
         12    1    3    3    0    0 -0.61559890367E+01 -0.79409520432E+01  0.40328036495E+02  0.41560864379E+02  0.00000000000E+00 0. -1.
</event>
<event>
 7    1  0.3396355E-015  0.9000777E+02  0.7816164E-02  0.1186339E+00
        -11   -1    0    0    0    0  0.00000000000E+00  0.00000000000E+00  0.45593999997E+02  0.45594000000E+02  0.51100000000E-03 0.  1.
         11   -1    0    0    0    0 -0.00000000000E+00 -0.00000000000E+00 -0.45593999997E+02  0.45594000000E+02  0.51100000000E-03 0. -1.
    9900012    2    1    2    0    0  0.88636023758E+00  0.24787133114E+00 -0.73882933519E+00  0.90007769745E+02  0.90000031506E+02 0.  0.
        -12    1    1    2    0    0 -0.88636023758E+00 -0.24787133114E+00  0.73882933519E+00  0.11802302547E+01  0.00000000000E+00 0.  1.
         11    1    3    3    0    0 -0.10959352174E+02  0.14243532327E+02 -0.32802703805E+02  0.37403248394E+02  0.51100000000E-03 0. -1.
        -11    1    3    3    0    0  0.25494448963E+01  0.90031598232E+01 -0.28443055149E+01  0.97799095192E+01  0.51100000000E-03 0.  1.
        -12    1    3    3    0    0  0.92962675157E+01 -0.22998820819E+02  0.34908179984E+02  0.42824611833E+02  0.00000000000E+00 0.  1.
</event>
<event>
 7    1  0.2294706E-015  0.9000678E+02  0.7816164E-02  0.1186341E+00
        -11   -1    0    0    0    0  0.00000000000E+00  0.00000000000E+00  0.45593999997E+02  0.45594000000E+02  0.51100000000E-03 0. -1.
         11   -1    0    0    0    0 -0.00000000000E+00 -0.00000000000E+00 -0.45593999997E+02  0.45594000000E+02  0.51100000000E-03 0.  1.
    9900012    2    1    2    0    0  0.26942489502E+00  0.14236941441E-01  0.11499943808E+01  0.90006780486E+02  0.89999029183E+02 0.  0.
        -12    1    1    2    0    0 -0.26942489502E+00 -0.14236941441E-01 -0.11499943808E+01  0.11812195141E+01  0.00000000000E+00 0.  1.
         11    1    3    3    0    0  0.49399485713E+01 -0.58158846242E+01  0.39964149052E+01  0.86138805544E+01  0.51100000000E-03 0. -1.
        -11    1    3    3    0    0  0.26290675648E+02 -0.35382066305E+01 -0.29358988857E+02  0.39568532436E+02  0.51100000000E-03 0.  1.
         12    1    3    3    0    0 -0.30961199325E+02  0.93683281962E+01  0.26512568332E+02  0.41824367495E+02  0.00000000000E+00 0. -1.
</event>
<event>
 7    1  0.2294706E-015  0.9000780E+02  0.7816164E-02  0.1186339E+00
        -11   -1    0    0    0    0  0.00000000000E+00  0.00000000000E+00  0.45593999997E+02  0.45594000000E+02  0.51100000000E-03 0.  1.
         11   -1    0    0    0    0 -0.00000000000E+00 -0.00000000000E+00 -0.45593999997E+02  0.45594000000E+02  0.51100000000E-03 0. -1.
    9900012    2    1    2    0    0  0.25322072540E+00  0.55275816732E+00 -0.10115422062E+01  0.90007796644E+02  0.90000058759E+02 0.  0.
        -12    1    1    2    0    0 -0.25322072540E+00 -0.55275816732E+00  0.10115422062E+01  0.11802033563E+01  0.00000000000E+00 0.  1.
         11    1    3    3    0    0  0.31428599230E+01 -0.10793146682E+02  0.22679329285E+01  0.11467916281E+02  0.51100000000E-03 0. -1.
        -11    1    3    3    0    0 -0.38770435013E+02  0.58632900786E+00  0.76423533188E+01  0.39520829664E+02  0.51100000000E-03 0.  1.
         12    1    3    3    0    0  0.35880795816E+02  0.10759575841E+02 -0.10921828453E+02  0.39019050699E+02  0.00000000000E+00 0. -1.
</event>
<event>
 7    1  0.2294706E-015  0.9000776E+02  0.7816164E-02  0.1186339E+00
        -11   -1    0    0    0    0  0.00000000000E+00  0.00000000000E+00  0.45593999997E+02  0.45594000000E+02  0.51100000000E-03 0. -1.
         11   -1    0    0    0    0 -0.00000000000E+00 -0.00000000000E+00 -0.45593999997E+02  0.45594000000E+02  0.51100000000E-03 0.  1.
    9900012    2    1    2    0    0 -0.41564629002E+00 -0.10461900089E+01  0.35454505304E+00  0.90007755293E+02  0.90000016863E+02 0.  0.
        -12    1    1    2    0    0  0.41564629002E+00  0.10461900089E+01 -0.35454505304E+00  0.11802447068E+01  0.00000000000E+00 0.  1.
         11    1    3    3    0    0  0.12376869665E+02  0.11599275060E+01  0.63366393891E+01  0.13952968628E+02  0.51100000000E-03 0. -1.
        -11    1    3    3    0    0  0.22833703821E+02 -0.76843863667E+00 -0.26443148033E+02  0.34945795258E+02  0.51100000000E-03 0.  1.
         12    1    3    3    0    0 -0.35626219776E+02 -0.14376788783E+01  0.20461053697E+02  0.41108991407E+02  0.00000000000E+00 0. -1.
</event>
<event>
 7    1  0.2294706E-015  0.9000766E+02  0.7816164E-02  0.1186339E+00
        -11   -1    0    0    0    0  0.00000000000E+00  0.00000000000E+00  0.45593999997E+02  0.45594000000E+02  0.51100000000E-03 0. -1.
         11   -1    0    0    0    0 -0.00000000000E+00 -0.00000000000E+00 -0.45593999997E+02  0.45594000000E+02  0.51100000000E-03 0.  1.
    9900012    2    1    2    0    0  0.79830887381E-02 -0.75478743569E+00  0.90742788352E+00  0.90007663960E+02  0.89999924325E+02 0.  0.
        -12    1    1    2    0    0 -0.79830887381E-02  0.75478743569E+00 -0.90742788352E+00  0.11803360397E+01  0.00000000000E+00 0.  1.
         11    1    3    3    0    0  0.29343501364E+01  0.34991741985E+02  0.26406724071E+02  0.43935720027E+02  0.51100000000E-03 0. -1.
        -11    1    3    3    0    0 -0.25423239507E+01 -0.13692438680E+02 -0.23980695079E+01  0.14131419805E+02  0.51100000000E-03 0.  1.
        -12    1    3    3    0    0 -0.38404309697E+00 -0.22054090741E+02 -0.23101226679E+02  0.31940524128E+02  0.00000000000E+00 0.  1.
</event>
<event>
 7    1  0.2294706E-015  0.9000770E+02  0.7816164E-02  0.1186339E+00
        -11   -1    0    0    0    0  0.00000000000E+00  0.00000000000E+00  0.45593999997E+02  0.45594000000E+02  0.51100000000E-03 0. -1.
         11   -1    0    0    0    0 -0.00000000000E+00 -0.00000000000E+00 -0.45593999997E+02  0.45594000000E+02  0.51100000000E-03 0.  1.
    9900012    2    1    2    0    0  0.31273295191E+00  0.62965505270E+00  0.94807596788E+00  0.90007696893E+02  0.89999957692E+02 0.  0.
        -12    1    1    2    0    0 -0.31273295191E+00 -0.62965505270E+00 -0.94807596788E+00  0.11803031075E+01  0.00000000000E+00 0.  1.
         11    1    3    3    0    0 -0.10590263103E+01 -0.76138108989E+01 -0.12480830716E+01  0.77877702037E+01  0.51100000000E-03 0. -1.
        -11    1    3    3    0    0 -0.31995337727E+02 -0.19981370907E+02 -0.45617450719E+01  0.37996925375E+02  0.51100000000E-03 0.  1.
         12    1    3    3    0    0  0.33367096989E+02  0.28224836859E+02  0.67579041114E+01  0.44223001314E+02  0.00000000000E+00 0. -1.
</event>
<event>
 7    1  0.2294706E-015  0.9000769E+02  0.7816164E-02  0.1186339E+00
        -11   -1    0    0    0    0  0.00000000000E+00  0.00000000000E+00  0.45593999997E+02  0.45594000000E+02  0.51100000000E-03 0. -1.
         11   -1    0    0    0    0 -0.00000000000E+00 -0.00000000000E+00 -0.45593999997E+02  0.45594000000E+02  0.51100000000E-03 0.  1.
    9900012    2    1    2    0    0 -0.29488085368E+00  0.39025978331E+00  0.10741805187E+01  0.90007694445E+02  0.89999955212E+02 0.  0.
        -12    1    1    2    0    0  0.29488085368E+00 -0.39025978331E+00 -0.10741805187E+01  0.11803055549E+01  0.00000000000E+00 0.  1.
         11    1    3    3    0    0  0.31469245365E+01  0.60728706019E+01 -0.88945716592E+01  0.11220351895E+02  0.51100000000E-03 0. -1.
        -11    1    3    3    0    0 -0.35000148883E+02  0.17334299938E+02  0.61852920511E+01  0.39544231112E+02  0.51100000000E-03 0.  1.
         12    1    3    3    0    0  0.31558343493E+02 -0.23016910757E+02  0.37834601267E+01  0.39243111438E+02  0.00000000000E+00 0. -1.
</event>
<event>
 7    1  0.2294706E-015  0.9000796E+02  0.7816164E-02  0.1186339E+00
        -11   -1    0    0    0    0  0.00000000000E+00  0.00000000000E+00  0.45593999997E+02  0.45594000000E+02  0.51100000000E-03 0.  1.
         11   -1    0    0    0    0 -0.00000000000E+00 -0.00000000000E+00 -0.45593999997E+02  0.45594000000E+02  0.51100000000E-03 0. -1.
    9900012    2    1    2    0    0  0.81955151675E+00 -0.83978662409E+00  0.12482577761E+00  0.90007962824E+02  0.90000227133E+02 0.  0.
        -12    1    1    2    0    0 -0.81955151675E+00  0.83978662409E+00 -0.12482577761E+00  0.11800371763E+01  0.00000000000E+00 0.  1.
         11    1    3    3    0    0 -0.30650186209E+02 -0.32534393102E+01 -0.27264390576E+02  0.41150525825E+02  0.51100000000E-03 0. -1.
        -11    1    3    3    0    0  0.14082036459E+01  0.90410809431E+01  0.31526625844E+01  0.96779886216E+01  0.51100000000E-03 0.  1.
        -12    1    3    3    0    0  0.30061534079E+02 -0.66274282570E+01  0.24236553769E+02  0.39179448377E+02  0.00000000000E+00 0.  1.
</event>
<event>
 7    1  0.2294706E-015  0.9000775E+02  0.7816164E-02  0.1186339E+00
        -11   -1    0    0    0    0  0.00000000000E+00  0.00000000000E+00  0.45593999997E+02  0.45594000000E+02  0.51100000000E-03 0.  1.
         11   -1    0    0    0    0 -0.00000000000E+00 -0.00000000000E+00 -0.45593999997E+02  0.45594000000E+02  0.51100000000E-03 0. -1.
    9900012    2    1    2    0    0 -0.10855813085E+01  0.29198909776E+00  0.35952298880E+00  0.90007745286E+02  0.90000006724E+02 0.  0.
        -12    1    1    2    0    0  0.10855813085E+01 -0.29198909776E+00 -0.35952298880E+00  0.11802547140E+01  0.00000000000E+00 0.  1.
         11    1    3    3    0    0 -0.14290275314E+01  0.48320472734E+01  0.94415393392E+01  0.10702030924E+02  0.51100000000E-03 0. -1.
        -11    1    3    3    0    0 -0.29910588882E+02  0.17787035931E+02  0.11233384060E+02  0.36567894282E+02  0.51100000000E-03 0.  1.
         12    1    3    3    0    0  0.30254035105E+02 -0.22327094107E+02 -0.20315400410E+02  0.42737820080E+02  0.00000000000E+00 0. -1.
</event>
<event>
 7    1  0.2294706E-015  0.9000776E+02  0.7816164E-02  0.1186339E+00
        -11   -1    0    0    0    0  0.00000000000E+00  0.00000000000E+00  0.45593999997E+02  0.45594000000E+02  0.51100000000E-03 0. -1.
         11   -1    0    0    0    0 -0.00000000000E+00 -0.00000000000E+00 -0.45593999997E+02  0.45594000000E+02  0.51100000000E-03 0.  1.
    9900012    2    1    2    0    0  0.79842182444E+00  0.10436630307E+00  0.86290141279E+00  0.90007759100E+02  0.90000020720E+02 0.  0.
        -12    1    1    2    0    0 -0.79842182444E+00 -0.10436630307E+00 -0.86290141279E+00  0.11802409005E+01  0.00000000000E+00 0.  1.
         11    1    3    3    0    0  0.97983683258E+01 -0.19017791502E+01 -0.40116417062E+01  0.10757232694E+02  0.51100000000E-03 0. -1.
        -11    1    3    3    0    0 -0.24211216964E+02  0.96958714695E+01 -0.30411766167E+02  0.40063305806E+02  0.51100000000E-03 0.  1.
         12    1    3    3    0    0  0.15211270463E+02 -0.76897260162E+01  0.35286309286E+02  0.39187220600E+02  0.00000000000E+00 0. -1.
</event>
<event>
 7    1  0.2294706E-015  0.9000778E+02  0.7816164E-02  0.1186339E+00
        -11   -1    0    0    0    0  0.00000000000E+00  0.00000000000E+00  0.45593999997E+02  0.45594000000E+02  0.51100000000E-03 0.  1.
         11   -1    0    0    0    0 -0.00000000000E+00 -0.00000000000E+00 -0.45593999997E+02  0.45594000000E+02  0.51100000000E-03 0. -1.
    9900012    2    1    2    0    0  0.49395957374E+00 -0.81853780279E+00 -0.69204458101E+00  0.90007777183E+02  0.90000039042E+02 0.  0.
        -12    1    1    2    0    0 -0.49395957374E+00  0.81853780279E+00  0.69204458101E+00  0.11802228168E+01  0.00000000000E+00 0.  1.
         11    1    3    3    0    0 -0.33091765288E+02 -0.18780985842E+02 -0.14805863852E+02  0.40828959866E+02  0.51100000000E-03 0. -1.
        -11    1    3    3    0    0 -0.29875957584E+01  0.88307179417E+01  0.40379115396E+01  0.10159332539E+02  0.51100000000E-03 0.  1.
        -12    1    3    3    0    0  0.36573320620E+02  0.91317300974E+01  0.10075907731E+02  0.39019484778E+02  0.00000000000E+00 0.  1.
</event>
<event>
 7    1  0.2294706E-015  0.9000764E+02  0.7816164E-02  0.1186339E+00
        -11   -1    0    0    0    0  0.00000000000E+00  0.00000000000E+00  0.45593999997E+02  0.45594000000E+02  0.51100000000E-03 0. -1.
         11   -1    0    0    0    0 -0.00000000000E+00 -0.00000000000E+00 -0.45593999997E+02  0.45594000000E+02  0.51100000000E-03 0.  1.
    9900012    2    1    2    0    0 -0.11218517524E+01 -0.71306246100E-01  0.36002505594E+00  0.90007638201E+02  0.89999898225E+02 0.  0.
        -12    1    1    2    0    0  0.11218517524E+01  0.71306246100E-01 -0.36002505594E+00  0.11803617988E+01  0.00000000000E+00 0.  1.
         11    1    3    3    0    0 -0.11256400640E+02 -0.15689730626E+02  0.93596807372E+00  0.19332621110E+02  0.51100000000E-03 0. -1.
        -11    1    3    3    0    0 -0.54581163816E+01 -0.16930442395E+00 -0.31857678396E+02  0.32322304550E+02  0.51100000000E-03 0.  1.
         12    1    3    3    0    0  0.15592665269E+02  0.15787728804E+02  0.31281735378E+02  0.38352712541E+02  0.00000000000E+00 0. -1.
</event>
<event>
 7    1  0.2294706E-015  0.9000783E+02  0.7816164E-02  0.1186339E+00
        -11   -1    0    0    0    0  0.00000000000E+00  0.00000000000E+00  0.45593999997E+02  0.45594000000E+02  0.51100000000E-03 0. -1.
         11   -1    0    0    0    0 -0.00000000000E+00 -0.00000000000E+00 -0.45593999997E+02  0.45594000000E+02  0.51100000000E-03 0.  1.
    9900012    2    1    2    0    0 -0.17082451067E+00  0.11499174637E+01  0.20326308413E+00  0.90007827526E+02  0.90000090049E+02 0.  0.
        -12    1    1    2    0    0  0.17082451067E+00 -0.11499174637E+01 -0.20326308413E+00  0.11801724739E+01  0.00000000000E+00 0.  1.
         11    1    3    3    0    0 -0.12065517195E+02  0.24169668300E+02  0.16429152405E+02  0.31617504960E+02  0.51100000000E-03 0. -1.
        -11    1    3    3    0    0  0.61302124449E+01  0.11024181245E+02  0.91133385457E+01  0.15561652112E+02  0.51100000000E-03 0.  1.
        -12    1    3    3    0    0  0.57644802389E+01 -0.34043932082E+02 -0.25339227866E+02  0.42828670454E+02  0.00000000000E+00 0.  1.
</event>
<event>
 7    1  0.2294706E-015  0.9000766E+02  0.7816164E-02  0.1186339E+00
        -11   -1    0    0    0    0  0.00000000000E+00  0.00000000000E+00  0.45593999997E+02  0.45594000000E+02  0.51100000000E-03 0.  1.
         11   -1    0    0    0    0 -0.00000000000E+00 -0.00000000000E+00 -0.45593999997E+02  0.45594000000E+02  0.51100000000E-03 0. -1.
    9900012    2    1    2    0    0 -0.30077282790E-01 -0.11684740608E+01 -0.16421229337E+00  0.90007660239E+02  0.89999920554E+02 0.  0.
        -12    1    1    2    0    0  0.30077282790E-01  0.11684740608E+01  0.16421229337E+00  0.11803397609E+01  0.00000000000E+00 0.  1.
         11    1    3    3    0    0 -0.83889608669E+01 -0.40446153301E+01  0.14701274668E+02  0.17402903629E+02  0.51100000000E-03 0. -1.
        -11    1    3    3    0    0 -0.16066142811E+02  0.25539499026E+02  0.91531063935E+01  0.31530402982E+02  0.51100000000E-03 0.  1.
         12    1    3    3    0    0  0.24425026395E+02 -0.22663357757E+02 -0.24018593355E+02  0.41074353628E+02  0.00000000000E+00 0. -1.
</event>
<event>
 7    1  0.2294706E-015  0.9000790E+02  0.7816164E-02  0.1186339E+00
        -11   -1    0    0    0    0  0.00000000000E+00  0.00000000000E+00  0.45593999997E+02  0.45594000000E+02  0.51100000000E-03 0.  1.
         11   -1    0    0    0    0 -0.00000000000E+00 -0.00000000000E+00 -0.45593999997E+02  0.45594000000E+02  0.51100000000E-03 0. -1.
    9900012    2    1    2    0    0 -0.20935619121E+00 -0.11591960599E+01  0.71266745256E-01  0.90007896416E+02  0.90000159849E+02 0.  0.
        -12    1    1    2    0    0  0.20935619121E+00  0.11591960599E+01 -0.71266745256E-01  0.11801035840E+01  0.00000000000E+00 0.  1.
         11    1    3    3    0    0  0.40485597192E+02  0.73488966357E+01 -0.29657612663E+01  0.41253916201E+02  0.51100000000E-03 0. -1.
        -11    1    3    3    0    0 -0.35571216261E+00 -0.69426804862E+01  0.46307754607E+01  0.83529291332E+01  0.51100000000E-03 0.  1.
        -12    1    3    3    0    0 -0.40339241220E+02 -0.15654122094E+01 -0.15937474491E+01  0.40401051082E+02  0.00000000000E+00 0.  1.
</event>
<event>
 7    1  0.2294706E-015  0.9000760E+02  0.7816164E-02  0.1186339E+00
        -11   -1    0    0    0    0  0.00000000000E+00  0.00000000000E+00  0.45593999997E+02  0.45594000000E+02  0.51100000000E-03 0. -1.
         11   -1    0    0    0    0 -0.00000000000E+00 -0.00000000000E+00 -0.45593999997E+02  0.45594000000E+02  0.51100000000E-03 0.  1.
    9900012    2    1    2    0    0  0.88846828184E+00  0.62623945435E+00 -0.46021496766E+00  0.90007597713E+02  0.89999857203E+02 0.  0.
        -12    1    1    2    0    0 -0.88846828184E+00 -0.62623945435E+00  0.46021496766E+00  0.11804022867E+01  0.00000000000E+00 0.  1.
         11    1    3    3    0    0  0.93787268721E+01  0.15274355151E+02 -0.17884276558E+02  0.25320224945E+02  0.51100000000E-03 0. -1.
        -11    1    3    3    0    0 -0.13912792000E+02  0.21339215621E+01 -0.19335419365E+02  0.23916058303E+02  0.51100000000E-03 0.  1.
         12    1    3    3    0    0  0.54225334097E+01 -0.16782037258E+02  0.36759480955E+02  0.40771314465E+02  0.00000000000E+00 0. -1.
</event>
<event>
 7    1  0.2492232E-015  0.9000773E+02  0.7816164E-02  0.1186339E+00
        -11   -1    0    0    0    0  0.00000000000E+00  0.00000000000E+00  0.45593999997E+02  0.45594000000E+02  0.51100000000E-03 0.  1.
         11   -1    0    0    0    0 -0.00000000000E+00 -0.00000000000E+00 -0.45593999997E+02  0.45594000000E+02  0.51100000000E-03 0. -1.
    9900012    2    1    2    0    0 -0.67764552288E+00 -0.50373070766E+00 -0.82467338445E+00  0.90007731271E+02  0.89999992524E+02 0.  0.
        -12    1    1    2    0    0  0.67764552288E+00  0.50373070766E+00  0.82467338445E+00  0.11802687285E+01  0.00000000000E+00 0.  1.
         11    1    3    3    0    0  0.63222788133E+01  0.65821036130E+01 -0.42139518643E+02  0.43116520373E+02  0.51100000000E-03 0. -1.
        -11    1    3    3    0    0  0.60905107087E+01 -0.27800982446E+01  0.60274901010E+01  0.90085461713E+01  0.51100000000E-03 0.  1.
        -12    1    3    3    0    0 -0.13090435045E+02 -0.43057360761E+01  0.35287355157E+02  0.37882664727E+02  0.00000000000E+00 0.  1.
</event>
<event>
 7    1  0.2294706E-015  0.9000771E+02  0.7816164E-02  0.1186339E+00
        -11   -1    0    0    0    0  0.00000000000E+00  0.00000000000E+00  0.45593999997E+02  0.45594000000E+02  0.51100000000E-03 0.  1.
         11   -1    0    0    0    0 -0.00000000000E+00 -0.00000000000E+00 -0.45593999997E+02  0.45594000000E+02  0.51100000000E-03 0. -1.
    9900012    2    1    2    0    0 -0.60544014614E+00  0.75546050310E+00  0.67514199802E+00  0.90007705520E+02  0.89999966433E+02 0.  0.
        -12    1    1    2    0    0  0.60544014614E+00 -0.75546050310E+00 -0.67514199802E+00  0.11802944801E+01  0.00000000000E+00 0.  1.
         11    1    3    3    0    0  0.20963935188E+01 -0.70229181511E+01  0.57190351204E+01  0.92964298584E+01  0.51100000000E-03 0. -1.
        -11    1    3    3    0    0  0.38295659961E+02  0.96768677558E+01 -0.31910057531E+01  0.39628043850E+02  0.51100000000E-03 0.  1.
         12    1    3    3    0    0 -0.40997493626E+02 -0.18984891016E+01 -0.18528873693E+01  0.41083231811E+02  0.00000000000E+00 0. -1.
</event>
<event>
 7    1  0.2294706E-015  0.9000775E+02  0.7816164E-02  0.1186339E+00
        -11   -1    0    0    0    0  0.00000000000E+00  0.00000000000E+00  0.45593999997E+02  0.45594000000E+02  0.51100000000E-03 0. -1.
         11   -1    0    0    0    0 -0.00000000000E+00 -0.00000000000E+00 -0.45593999997E+02  0.45594000000E+02  0.51100000000E-03 0.  1.
    9900012    2    1    2    0    0  0.75618347239E-01 -0.65158186210E+00  0.98118092169E+00  0.90007748731E+02  0.90000010214E+02 0.  0.
        -12    1    1    2    0    0 -0.75618347239E-01  0.65158186210E+00 -0.98118092169E+00  0.11802512692E+01  0.00000000000E+00 0.  1.
         11    1    3    3    0    0  0.13147277275E+02 -0.92056131407E+01  0.15672831833E+01  0.16126084146E+02  0.51100000000E-03 0. -1.
        -11    1    3    3    0    0  0.25187603143E+02 -0.99197236733E+01 -0.12412269373E+02  0.29780542323E+02  0.51100000000E-03 0.  1.
         12    1    3    3    0    0 -0.38259262070E+02  0.18473754952E+02  0.11826167111E+02  0.44101122262E+02  0.00000000000E+00 0. -1.
</event>
<event>
 7    1  0.2294706E-015  0.9000769E+02  0.7816164E-02  0.1186339E+00
        -11   -1    0    0    0    0  0.00000000000E+00  0.00000000000E+00  0.45593999997E+02  0.45594000000E+02  0.51100000000E-03 0. -1.
         11   -1    0    0    0    0 -0.00000000000E+00 -0.00000000000E+00 -0.45593999997E+02  0.45594000000E+02  0.51100000000E-03 0.  1.
    9900012    2    1    2    0    0 -0.53566777066E+00 -0.95706951009E+00 -0.43613164784E+00  0.90007689523E+02  0.89999950225E+02 0.  0.
        -12    1    1    2    0    0  0.53566777066E+00  0.95706951009E+00  0.43613164784E+00  0.11803104769E+01  0.00000000000E+00 0.  1.
         11    1    3    3    0    0  0.75579832591E+01  0.57431366774E+01 -0.36592396254E+00  0.94995068529E+01  0.51100000000E-03 0. -1.
        -11    1    3    3    0    0 -0.16021663910E+02 -0.52893056014E+01 -0.38082297863E+02  0.41652513478E+02  0.51100000000E-03 0.  1.
         12    1    3    3    0    0  0.79280128802E+01 -0.14109005861E+01  0.38012090178E+02  0.38855669193E+02  0.00000000000E+00 0. -1.
</event>
<event>
 7    1  0.2294706E-015  0.9000775E+02  0.7816164E-02  0.1186339E+00
        -11   -1    0    0    0    0  0.00000000000E+00  0.00000000000E+00  0.45593999997E+02  0.45594000000E+02  0.51100000000E-03 0.  1.
         11   -1    0    0    0    0 -0.00000000000E+00 -0.00000000000E+00 -0.45593999997E+02  0.45594000000E+02  0.51100000000E-03 0. -1.
    9900012    2    1    2    0    0 -0.65814423110E+00  0.90764214252E+00 -0.36881718770E+00  0.90007748245E+02  0.90000009722E+02 0.  0.
        -12    1    1    2    0    0  0.65814423110E+00 -0.90764214252E+00  0.36881718770E+00  0.11802517552E+01  0.00000000000E+00 0.  1.
         11    1    3    3    0    0  0.68627792122E+01 -0.11766748044E+01  0.84673140562E+01  0.10962559450E+02  0.51100000000E-03 0. -1.
        -11    1    3    3    0    0 -0.12854015015E+01 -0.34786127541E+02  0.11269661841E+02  0.36588689572E+02  0.51100000000E-03 0.  1.
         12    1    3    3    0    0 -0.62355219418E+01  0.36870444488E+02 -0.20105793085E+02  0.42456499222E+02  0.00000000000E+00 0. -1.
</event>
<event>
 7    1  0.2294706E-015  0.9000777E+02  0.7816164E-02  0.1186339E+00
        -11   -1    0    0    0    0  0.00000000000E+00  0.00000000000E+00  0.45593999997E+02  0.45594000000E+02  0.51100000000E-03 0.  1.
         11   -1    0    0    0    0 -0.00000000000E+00 -0.00000000000E+00 -0.45593999997E+02  0.45594000000E+02  0.51100000000E-03 0. -1.
    9900012    2    1    2    0    0 -0.13647055347E+00  0.18071831244E+00 -0.11582957983E+01  0.90007774396E+02  0.90000036218E+02 0.  0.
        -12    1    1    2    0    0  0.13647055347E+00 -0.18071831244E+00  0.11582957983E+01  0.11802256042E+01  0.00000000000E+00 0.  1.
         11    1    3    3    0    0  0.42900297539E+01  0.10139927306E+02  0.24013295869E+01  0.11268933628E+02  0.51100000000E-03 0. -1.
        -11    1    3    3    0    0  0.46113289570E+00  0.33942758333E+02 -0.61129496368E+01  0.34491906882E+02  0.51100000000E-03 0.  1.
         12    1    3    3    0    0 -0.48876332030E+01 -0.43901967327E+02  0.25533242515E+01  0.44246933886E+02  0.00000000000E+00 0. -1.
</event>
<event>
 7    1  0.2294706E-015  0.9000770E+02  0.7816164E-02  0.1186339E+00
        -11   -1    0    0    0    0  0.00000000000E+00  0.00000000000E+00  0.45593999997E+02  0.45594000000E+02  0.51100000000E-03 0. -1.
         11   -1    0    0    0    0 -0.00000000000E+00 -0.00000000000E+00 -0.45593999997E+02  0.45594000000E+02  0.51100000000E-03 0.  1.
    9900012    2    1    2    0    0 -0.11251200603E+00  0.11357619025E+01  0.30081319011E+00  0.90007702315E+02  0.89999963185E+02 0.  0.
        -12    1    1    2    0    0  0.11251200603E+00 -0.11357619025E+01 -0.30081319011E+00  0.11802976853E+01  0.00000000000E+00 0.  1.
         11    1    3    3    0    0  0.20025195299E+02 -0.11230646958E+02 -0.10767846538E+02  0.25359069328E+02  0.51100000000E-03 0. -1.
        -11    1    3    3    0    0 -0.30974990465E+00 -0.52248406165E+01 -0.21802361568E+02  0.22421816935E+02  0.51100000000E-03 0.  1.
         12    1    3    3    0    0 -0.19827957400E+02  0.17591249477E+02  0.32871021296E+02  0.42226816052E+02  0.00000000000E+00 0. -1.
</event>
<event>
 7    1  0.2294706E-015  0.9000773E+02  0.7816164E-02  0.1186339E+00
        -11   -1    0    0    0    0  0.00000000000E+00  0.00000000000E+00  0.45593999997E+02  0.45594000000E+02  0.51100000000E-03 0.  1.
         11   -1    0    0    0    0 -0.00000000000E+00 -0.00000000000E+00 -0.45593999997E+02  0.45594000000E+02  0.51100000000E-03 0. -1.
    9900012    2    1    2    0    0 -0.10081316047E+01  0.23666049939E+00  0.56629434653E+00  0.90007734432E+02  0.89999995726E+02 0.  0.
        -12    1    1    2    0    0  0.10081316047E+01 -0.23666049939E+00 -0.56629434653E+00  0.11802655681E+01  0.00000000000E+00 0.  1.
         11    1    3    3    0    0 -0.92623582938E+01  0.23794715200E+02 -0.29751925634E+02  0.39206591688E+02  0.51100000000E-03 0. -1.
        -11    1    3    3    0    0 -0.13502057354E+01  0.77916088645E+01  0.70714077903E+01  0.10608347309E+02  0.51100000000E-03 0.  1.
        -12    1    3    3    0    0  0.96044324245E+01 -0.31349663565E+02  0.23246812190E+02  0.40192795435E+02  0.00000000000E+00 0.  1.
</event>
<event>
 7    1  0.2294706E-015  0.9000783E+02  0.7816164E-02  0.1186339E+00
        -11   -1    0    0    0    0  0.00000000000E+00  0.00000000000E+00  0.45593999997E+02  0.45594000000E+02  0.51100000000E-03 0. -1.
         11   -1    0    0    0    0 -0.00000000000E+00 -0.00000000000E+00 -0.45593999997E+02  0.45594000000E+02  0.51100000000E-03 0.  1.
    9900012    2    1    2    0    0  0.10041646585E+01  0.17774311431E+00 -0.59403046971E+00  0.90007825659E+02  0.90000088158E+02 0.  0.
        -12    1    1    2    0    0 -0.10041646585E+01 -0.17774311431E+00  0.59403046971E+00  0.11801743409E+01  0.00000000000E+00 0.  1.
         11    1    3    3    0    0 -0.11304697050E+02  0.12971854089E+02  0.34190289991E+02  0.38275855364E+02  0.51100000000E-03 0. -1.
        -11    1    3    3    0    0 -0.79310656143E+01 -0.31406251450E+01  0.18976758437E+01  0.87387929343E+01  0.51100000000E-03 0.  1.
        -12    1    3    3    0    0  0.20239927322E+02 -0.96534858299E+01 -0.36681996305E+02  0.42993177361E+02  0.00000000000E+00 0.  1.
</event>
<event>
 7    1  0.2294706E-015  0.9000760E+02  0.7816164E-02  0.1186339E+00
        -11   -1    0    0    0    0  0.00000000000E+00  0.00000000000E+00  0.45593999997E+02  0.45594000000E+02  0.51100000000E-03 0. -1.
         11   -1    0    0    0    0 -0.00000000000E+00 -0.00000000000E+00 -0.45593999997E+02  0.45594000000E+02  0.51100000000E-03 0.  1.
    9900012    2    1    2    0    0  0.40898769726E+00  0.79651455635E+00  0.76917427808E+00  0.90007603692E+02  0.89999863260E+02 0.  0.
        -12    1    1    2    0    0 -0.40898769726E+00 -0.79651455635E+00 -0.76917427808E+00  0.11803963085E+01  0.00000000000E+00 0.  1.
         11    1    3    3    0    0  0.34857936967E+02  0.99287007635E+01  0.15233249723E+02  0.39315477434E+02  0.51100000000E-03 0. -1.
        -11    1    3    3    0    0  0.47954092339E+01  0.47701355756E+01 -0.36078685527E+01  0.76659545319E+01  0.51100000000E-03 0.  1.
        -12    1    3    3    0    0 -0.39244358504E+02 -0.13902321783E+02 -0.10856206892E+02  0.43026171726E+02  0.00000000000E+00 0.  1.
</event>
<event>
 7    1  0.2294706E-015  0.9000769E+02  0.7816164E-02  0.1186339E+00
        -11   -1    0    0    0    0  0.00000000000E+00  0.00000000000E+00  0.45593999997E+02  0.45594000000E+02  0.51100000000E-03 0.  1.
         11   -1    0    0    0    0 -0.00000000000E+00 -0.00000000000E+00 -0.45593999997E+02  0.45594000000E+02  0.51100000000E-03 0. -1.
    9900012    2    1    2    0    0 -0.28130351110E+00 -0.10376017749E+01  0.48721322539E+00  0.90007692483E+02  0.89999953223E+02 0.  0.
        -12    1    1    2    0    0  0.28130351110E+00  0.10376017749E+01 -0.48721322539E+00  0.11803075174E+01  0.00000000000E+00 0.  1.
         11    1    3    3    0    0 -0.23000303467E+01 -0.83394623046E+01 -0.63907666888E+01  0.10755401911E+02  0.51100000000E-03 0. -1.
        -11    1    3    3    0    0  0.12933336381E+02 -0.24732184916E+02  0.27858473208E+02  0.39434080316E+02  0.51100000000E-03 0.  1.
         12    1    3    3    0    0 -0.10914609545E+02  0.32034045445E+02 -0.20980493294E+02  0.39818210256E+02  0.00000000000E+00 0. -1.
</event>
<event>
 7    1  0.2294706E-015  0.9000764E+02  0.7816164E-02  0.1186339E+00
        -11   -1    0    0    0    0  0.00000000000E+00  0.00000000000E+00  0.45593999997E+02  0.45594000000E+02  0.51100000000E-03 0.  1.
         11   -1    0    0    0    0 -0.00000000000E+00 -0.00000000000E+00 -0.45593999997E+02  0.45594000000E+02  0.51100000000E-03 0. -1.
    9900012    2    1    2    0    0 -0.74471753285E+00 -0.67876592174E+00  0.61475325452E+00  0.90007640333E+02  0.89999900385E+02 0.  0.
        -12    1    1    2    0    0  0.74471753285E+00  0.67876592174E+00 -0.61475325452E+00  0.11803596673E+01  0.00000000000E+00 0.  1.
         11    1    3    3    0    0  0.26545608859E+01 -0.83092189357E+01  0.32690258943E+01  0.93153820843E+01  0.51100000000E-03 0. -1.
        -11    1    3    3    0    0  0.16697839250E+02 -0.15585664973E+02  0.28784373222E+02  0.36746032852E+02  0.51100000000E-03 0.  1.
         12    1    3    3    0    0 -0.20097117669E+02  0.23216117987E+02 -0.31438645862E+02  0.43946225397E+02  0.00000000000E+00 0. -1.
</event>
<event>
 7    1  0.2294706E-015  0.9000773E+02  0.7816164E-02  0.1186339E+00
        -11   -1    0    0    0    0  0.00000000000E+00  0.00000000000E+00  0.45593999997E+02  0.45594000000E+02  0.51100000000E-03 0. -1.
         11   -1    0    0    0    0 -0.00000000000E+00 -0.00000000000E+00 -0.45593999997E+02  0.45594000000E+02  0.51100000000E-03 0.  1.
    9900012    2    1    2    0    0 -0.68081304663E+00 -0.92866489339E+00  0.25908263041E+00  0.90007725160E+02  0.89999986332E+02 0.  0.
        -12    1    1    2    0    0  0.68081304663E+00  0.92866489339E+00 -0.25908263041E+00  0.11802748401E+01  0.00000000000E+00 0.  1.
         11    1    3    3    0    0  0.83075620520E+01  0.12175995413E+02 -0.62755141690E+01  0.16020378581E+02  0.51100000000E-03 0. -1.
        -11    1    3    3    0    0  0.29479860479E+02 -0.32567038935E+00 -0.86134030398E+01  0.30714148975E+02  0.51100000000E-03 0.  1.
         12    1    3    3    0    0 -0.38468235577E+02 -0.12778989917E+02  0.15147999839E+02  0.43273197604E+02  0.00000000000E+00 0. -1.
</event>
<event>
 7    1  0.2294706E-015  0.9000768E+02  0.7816164E-02  0.1186339E+00
        -11   -1    0    0    0    0  0.00000000000E+00  0.00000000000E+00  0.45593999997E+02  0.45594000000E+02  0.51100000000E-03 0.  1.
         11   -1    0    0    0    0 -0.00000000000E+00 -0.00000000000E+00 -0.45593999997E+02  0.45594000000E+02  0.51100000000E-03 0. -1.
    9900012    2    1    2    0    0  0.62084906511E+00  0.97429403232E+00 -0.24176729495E+00  0.90007680616E+02  0.89999941200E+02 0.  0.
        -12    1    1    2    0    0 -0.62084906511E+00 -0.97429403232E+00  0.24176729495E+00  0.11803193839E+01  0.00000000000E+00 0.  1.
         11    1    3    3    0    0  0.19997604821E+02 -0.40045333536E+01 -0.25343819719E+02  0.32530749825E+02  0.51100000000E-03 0. -1.
        -11    1    3    3    0    0 -0.15625534805E+01 -0.56421238301E+01 -0.12909691102E+02  0.14175163467E+02  0.51100000000E-03 0.  1.
        -12    1    3    3    0    0 -0.17814202275E+02  0.10620951216E+02  0.38011743527E+02  0.43301767324E+02  0.00000000000E+00 0.  1.
</event>
<event>
 7    1  0.2294706E-015  0.9000779E+02  0.7816164E-02  0.1186339E+00
        -11   -1    0    0    0    0  0.00000000000E+00  0.00000000000E+00  0.45593999997E+02  0.45594000000E+02  0.51100000000E-03 0. -1.
         11   -1    0    0    0    0 -0.00000000000E+00 -0.00000000000E+00 -0.45593999997E+02  0.45594000000E+02  0.51100000000E-03 0.  1.
    9900012    2    1    2    0    0 -0.26736706800E+00 -0.82195831398E+00  0.80361853934E+00  0.90007786724E+02  0.90000048709E+02 0.  0.
        -12    1    1    2    0    0  0.26736706800E+00  0.82195831398E+00 -0.80361853934E+00  0.11802132755E+01  0.00000000000E+00 0.  1.
         11    1    3    3    0    0  0.22117058469E+02  0.29129217069E+02 -0.99989291437E+01  0.37916409992E+02  0.51100000000E-03 0. -1.
        -11    1    3    3    0    0 -0.29359420786E+01  0.77342049824E+01  0.38214581106E+01  0.91126958114E+01  0.51100000000E-03 0.  1.
        -12    1    3    3    0    0 -0.19448483458E+02 -0.37685380366E+02  0.69810895724E+01  0.42978680921E+02  0.00000000000E+00 0.  1.
</event>
<event>
 7    1  0.2294706E-015  0.9000775E+02  0.7816164E-02  0.1186339E+00
        -11   -1    0    0    0    0  0.00000000000E+00  0.00000000000E+00  0.45593999997E+02  0.45594000000E+02  0.51100000000E-03 0.  1.
         11   -1    0    0    0    0 -0.00000000000E+00 -0.00000000000E+00 -0.45593999997E+02  0.45594000000E+02  0.51100000000E-03 0. -1.
    9900012    2    1    2    0    0 -0.91383752371E+00  0.46235603766E+00 -0.58662076820E+00  0.90007747463E+02  0.90000008930E+02 0.  0.
        -12    1    1    2    0    0  0.91383752371E+00 -0.46235603766E+00  0.58662076820E+00  0.11802525370E+01  0.00000000000E+00 0.  1.
         11    1    3    3    0    0  0.11255091701E+02  0.65688557575E+01 -0.43881943281E+01  0.13750752884E+02  0.51100000000E-03 0. -1.
        -11    1    3    3    0    0  0.97411933718E+01  0.31290295565E+02  0.29792610868E+01  0.32906677768E+02  0.51100000000E-03 0.  1.
         12    1    3    3    0    0 -0.21910122596E+02 -0.37396795285E+02  0.82231247311E+00  0.43350316811E+02  0.00000000000E+00 0. -1.
</event>
<event>
 7    1  0.2294706E-015  0.9000677E+02  0.7816164E-02  0.1186341E+00
        -11   -1    0    0    0    0  0.00000000000E+00  0.00000000000E+00  0.45593999997E+02  0.45594000000E+02  0.51100000000E-03 0.  1.
         11   -1    0    0    0    0 -0.00000000000E+00 -0.00000000000E+00 -0.45593999997E+02  0.45594000000E+02  0.51100000000E-03 0. -1.
    9900012    2    1    2    0    0 -0.33961381184E+00  0.94537519174E+00 -0.62147583401E+00  0.90006770130E+02  0.89999018690E+02 0.  0.
        -12    1    1    2    0    0  0.33961381184E+00 -0.94537519174E+00  0.62147583401E+00  0.11812298703E+01  0.00000000000E+00 0.  1.
         11    1    3    3    0    0 -0.14203690932E+01  0.84088854679E+01 -0.16840483863E+01  0.86926878698E+01  0.51100000000E-03 0. -1.
        -11    1    3    3    0    0 -0.54915934907E+01 -0.34305456841E+02  0.26545883704E+02  0.43723059248E+02  0.51100000000E-03 0.  1.
         12    1    3    3    0    0  0.65723487721E+01  0.26841946565E+02 -0.25483311152E+02  0.37591023011E+02  0.00000000000E+00 0. -1.
</event>
<event>
 7    1  0.2294706E-015  0.9000776E+02  0.7816164E-02  0.1186339E+00
        -11   -1    0    0    0    0  0.00000000000E+00  0.00000000000E+00  0.45593999997E+02  0.45594000000E+02  0.51100000000E-03 0.  1.
         11   -1    0    0    0    0 -0.00000000000E+00 -0.00000000000E+00 -0.45593999997E+02  0.45594000000E+02  0.51100000000E-03 0. -1.
    9900012    2    1    2    0    0  0.54515655749E+00  0.97761330780E+00  0.37421077075E+00  0.90007763942E+02  0.90000025626E+02 0.  0.
        -12    1    1    2    0    0 -0.54515655749E+00 -0.97761330780E+00 -0.37421077075E+00  0.11802360580E+01  0.00000000000E+00 0.  1.
         11    1    3    3    0    0  0.62734397923E+01 -0.77760128451E+00  0.69388065305E+01  0.93865726927E+01  0.51100000000E-03 0. -1.
        -11    1    3    3    0    0  0.29078647914E+02  0.71106433194E+01 -0.26650182502E+02  0.40079436630E+02  0.51100000000E-03 0.  1.
         12    1    3    3    0    0 -0.34806931149E+02 -0.53554287271E+01  0.20085586742E+02  0.40541754619E+02  0.00000000000E+00 0. -1.
</event>
<event>
 7    1  0.2294706E-015  0.9000775E+02  0.7816164E-02  0.1186339E+00
        -11   -1    0    0    0    0  0.00000000000E+00  0.00000000000E+00  0.45593999997E+02  0.45594000000E+02  0.51100000000E-03 0.  1.
         11   -1    0    0    0    0 -0.00000000000E+00 -0.00000000000E+00 -0.45593999997E+02  0.45594000000E+02  0.51100000000E-03 0. -1.
    9900012    2    1    2    0    0 -0.64255743599E+00 -0.16097413418E+00 -0.97682680685E+00  0.90007752847E+02  0.90000014385E+02 0.  0.
        -12    1    1    2    0    0  0.64255743599E+00  0.16097413418E+00  0.97682680685E+00  0.11802471525E+01  0.00000000000E+00 0.  1.
         11    1    3    3    0    0 -0.74103712224E+00  0.24019128826E+01 -0.12094838316E+02  0.12353276313E+02  0.51100000000E-03 0. -1.
        -11    1    3    3    0    0  0.80257152591E+01  0.26242688131E+02 -0.20424353326E+02  0.34208843810E+02  0.51100000000E-03 0.  1.
         12    1    3    3    0    0 -0.79272355729E+01 -0.28805575148E+02  0.31542364835E+02  0.43445632724E+02  0.00000000000E+00 0. -1.
</event>
<event>
 7    1  0.2399746E-015  0.9000751E+02  0.7816164E-02  0.1186339E+00
        -11   -1    0    0    0    0  0.00000000000E+00  0.00000000000E+00  0.45593999997E+02  0.45594000000E+02  0.51100000000E-03 0.  1.
         11   -1    0    0    0    0 -0.00000000000E+00 -0.00000000000E+00 -0.45593999997E+02  0.45594000000E+02  0.51100000000E-03 0. -1.
    9900012    2    1    2    0    0 -0.55847929840E+00  0.98267999568E+00 -0.34057019619E+00  0.90007514016E+02  0.89999772400E+02 0.  0.
        -12    1    1    2    0    0  0.55847929840E+00 -0.98267999568E+00  0.34057019619E+00  0.11804859843E+01  0.00000000000E+00 0.  1.
         11    1    3    3    0    0  0.35378476825E+02  0.94458176341E+01 -0.19208375395E+02  0.41349991279E+02  0.51100000000E-03 0. -1.
        -11    1    3    3    0    0 -0.88342938716E-01  0.34951412254E+01  0.89183751103E+01  0.95792082935E+01  0.51100000000E-03 0.  1.
        -12    1    3    3    0    0 -0.35848613184E+02 -0.11958278864E+02  0.99494300887E+01  0.39078314443E+02  0.00000000000E+00 0.  1.
</event>
<event>
 7    1  0.2294706E-015  0.9000774E+02  0.7816164E-02  0.1186339E+00
        -11   -1    0    0    0    0  0.00000000000E+00  0.00000000000E+00  0.45593999997E+02  0.45594000000E+02  0.51100000000E-03 0.  1.
         11   -1    0    0    0    0 -0.00000000000E+00 -0.00000000000E+00 -0.45593999997E+02  0.45594000000E+02  0.51100000000E-03 0. -1.
    9900012    2    1    2    0    0  0.82371852814E+00 -0.48504561752E+00 -0.69225868318E+00  0.90007744287E+02  0.90000005711E+02 0.  0.
        -12    1    1    2    0    0 -0.82371852814E+00  0.48504561752E+00  0.69225868318E+00  0.11802557134E+01  0.00000000000E+00 0.  1.
         11    1    3    3    0    0 -0.25000203699E+02  0.26188661861E+02 -0.16275100345E+01  0.36242309312E+02  0.51100000000E-03 0. -1.
        -11    1    3    3    0    0 -0.35657277309E+01  0.64295263463E+01 -0.52973402266E+01  0.90617347691E+01  0.51100000000E-03 0.  1.
        -12    1    3    3    0    0  0.29389649958E+02 -0.33103233825E+02  0.62325915779E+01  0.44703700206E+02  0.00000000000E+00 0.  1.
</event>
<event>
 7    1  0.2294706E-015  0.9000757E+02  0.7816164E-02  0.1186339E+00
        -11   -1    0    0    0    0  0.00000000000E+00  0.00000000000E+00  0.45593999997E+02  0.45594000000E+02  0.51100000000E-03 0. -1.
         11   -1    0    0    0    0 -0.00000000000E+00 -0.00000000000E+00 -0.45593999997E+02  0.45594000000E+02  0.51100000000E-03 0.  1.
    9900012    2    1    2    0    0  0.95060804335E+00  0.99912903681E-01 -0.69266278857E+00  0.90007567885E+02  0.89999826981E+02 0.  0.
        -12    1    1    2    0    0 -0.95060804335E+00 -0.99912903681E-01  0.69266278857E+00  0.11804321154E+01  0.00000000000E+00 0.  1.
         11    1    3    3    0    0  0.57375974527E+01 -0.74826265457E+01 -0.12505369875E+01  0.95117594361E+01  0.51100000000E-03 0. -1.
        -11    1    3    3    0    0  0.28199785599E+02  0.27926991875E+02 -0.87424245004E+01  0.40639571472E+02  0.51100000000E-03 0.  1.
         12    1    3    3    0    0 -0.32986775009E+02 -0.20344452426E+02  0.93002986994E+01  0.39856236976E+02  0.00000000000E+00 0. -1.
</event>
<event>
 7    1  0.2294706E-015  0.9000776E+02  0.7816164E-02  0.1186339E+00
        -11   -1    0    0    0    0  0.00000000000E+00  0.00000000000E+00  0.45593999997E+02  0.45594000000E+02  0.51100000000E-03 0.  1.
         11   -1    0    0    0    0 -0.00000000000E+00 -0.00000000000E+00 -0.45593999997E+02  0.45594000000E+02  0.51100000000E-03 0. -1.
    9900012    2    1    2    0    0 -0.73716812925E+00  0.43534859177E+00 -0.81241870601E+00  0.90007758753E+02  0.90000020369E+02 0.  0.
        -12    1    1    2    0    0  0.73716812925E+00 -0.43534859177E+00  0.81241870601E+00  0.11802412470E+01  0.00000000000E+00 0.  1.
         11    1    3    3    0    0 -0.62323730493E+01 -0.68752540522E+01  0.96489291863E-01  0.92801348348E+01  0.51100000000E-03 0. -1.
        -11    1    3    3    0    0 -0.32386558303E+02 -0.72476216851E+01  0.15901986266E+02  0.36800684047E+02  0.51100000000E-03 0.  1.
         12    1    3    3    0    0  0.37881763223E+02  0.14558224329E+02 -0.16810894264E+02  0.43926939872E+02  0.00000000000E+00 0. -1.
</event>
<event>
 7    1  0.2294706E-015  0.9000763E+02  0.7816164E-02  0.1186339E+00
        -11   -1    0    0    0    0  0.00000000000E+00  0.00000000000E+00  0.45593999997E+02  0.45594000000E+02  0.51100000000E-03 0. -1.
         11   -1    0    0    0    0 -0.00000000000E+00 -0.00000000000E+00 -0.45593999997E+02  0.45594000000E+02  0.51100000000E-03 0.  1.
    9900012    2    1    2    0    0  0.79464839804E+00 -0.69662027157E+00  0.52585296820E+00  0.90007632590E+02  0.89999892540E+02 0.  0.
        -12    1    1    2    0    0 -0.79464839804E+00  0.69662027157E+00 -0.52585296820E+00  0.11803674104E+01  0.00000000000E+00 0.  1.
         11    1    3    3    0    0  0.44113856495E+01 -0.57741816922E+01 -0.78101510658E+01  0.10667706290E+02  0.51100000000E-03 0. -1.
        -11    1    3    3    0    0  0.16763095274E+02  0.24557877378E+02 -0.22701838486E+02  0.37409412925E+02  0.51100000000E-03 0.  1.
         12    1    3    3    0    0 -0.20379832526E+02 -0.19480315957E+02  0.31037842520E+02  0.41930513375E+02  0.00000000000E+00 0. -1.
</event>
<event>
 7    1  0.2294706E-015  0.9000791E+02  0.7816164E-02  0.1186339E+00
        -11   -1    0    0    0    0  0.00000000000E+00  0.00000000000E+00  0.45593999997E+02  0.45594000000E+02  0.51100000000E-03 0.  1.
         11   -1    0    0    0    0 -0.00000000000E+00 -0.00000000000E+00 -0.45593999997E+02  0.45594000000E+02  0.51100000000E-03 0. -1.
    9900012    2    1    2    0    0 -0.10188995971E+01 -0.43821896634E+00  0.40301724285E+00  0.90007908838E+02  0.90000172435E+02 0.  0.
        -12    1    1    2    0    0  0.10188995971E+01  0.43821896634E+00 -0.40301724285E+00  0.11800911615E+01  0.00000000000E+00 0.  1.
         11    1    3    3    0    0  0.10886123295E+02 -0.27144034463E+02  0.42705114170E+01  0.29555770255E+02  0.51100000000E-03 0. -1.
        -11    1    3    3    0    0  0.15580463944E+01 -0.15631721955E+02  0.11058429518E+01  0.15748051586E+02  0.51100000000E-03 0.  1.
        -12    1    3    3    0    0 -0.13463069286E+02  0.42337537452E+02 -0.49733371260E+01  0.44704086998E+02  0.00000000000E+00 0.  1.
</event>
<event>
 7    1  0.2294706E-015  0.9000770E+02  0.7816164E-02  0.1186339E+00
        -11   -1    0    0    0    0  0.00000000000E+00  0.00000000000E+00  0.45593999997E+02  0.45594000000E+02  0.51100000000E-03 0. -1.
         11   -1    0    0    0    0 -0.00000000000E+00 -0.00000000000E+00 -0.45593999997E+02  0.45594000000E+02  0.51100000000E-03 0.  1.
    9900012    2    1    2    0    0 -0.26563978312E-01 -0.11712461467E+01 -0.14345927293E+00  0.90007701841E+02  0.89999962705E+02 0.  0.
        -12    1    1    2    0    0  0.26563978312E-01  0.11712461467E+01  0.14345927293E+00  0.11802981590E+01  0.00000000000E+00 0.  1.
         11    1    3    3    0    0  0.12651712189E+01 -0.99216265779E+00  0.93949389359E+01  0.95315225869E+01  0.51100000000E-03 0. -1.
        -11    1    3    3    0    0 -0.32023233117E+02  0.22842090932E+02  0.45018421607E+01  0.39591857250E+02  0.51100000000E-03 0.  1.
         12    1    3    3    0    0  0.30731497920E+02 -0.23021174421E+02 -0.14040240370E+02  0.40884322004E+02  0.00000000000E+00 0. -1.
</event>
<event>
 7    1  0.2294706E-015  0.9000787E+02  0.7816164E-02  0.1186339E+00
        -11   -1    0    0    0    0  0.00000000000E+00  0.00000000000E+00  0.45593999997E+02  0.45594000000E+02  0.51100000000E-03 0.  1.
         11   -1    0    0    0    0 -0.00000000000E+00 -0.00000000000E+00 -0.45593999997E+02  0.45594000000E+02  0.51100000000E-03 0. -1.
    9900012    2    1    2    0    0  0.10438489387E+01  0.27154162997E+00  0.47891689477E+00  0.90007865747E+02  0.90000128774E+02 0.  0.
        -12    1    1    2    0    0 -0.10438489387E+01 -0.27154162997E+00 -0.47891689477E+00  0.11801342533E+01  0.00000000000E+00 0.  1.
         11    1    3    3    0    0 -0.28141432143E+02 -0.29190002067E+02 -0.10904190254E+02  0.41986876391E+02  0.51100000000E-03 0. -1.
        -11    1    3    3    0    0 -0.22819316062E+01  0.84704873726E+01  0.30531346492E+01  0.92885951377E+01  0.51100000000E-03 0.  1.
        -12    1    3    3    0    0  0.31467212688E+02  0.20991056324E+02  0.83299724996E+01  0.38732394218E+02  0.00000000000E+00 0.  1.
</event>
<event>
 7    1  0.2294706E-015  0.9000780E+02  0.7816164E-02  0.1186339E+00
        -11   -1    0    0    0    0  0.00000000000E+00  0.00000000000E+00  0.45593999997E+02  0.45594000000E+02  0.51100000000E-03 0.  1.
         11   -1    0    0    0    0 -0.00000000000E+00 -0.00000000000E+00 -0.45593999997E+02  0.45594000000E+02  0.51100000000E-03 0. -1.
    9900012    2    1    2    0    0  0.10930392515E+01 -0.39025549381E+00 -0.21412457864E+00  0.90007795149E+02  0.90000057245E+02 0.  0.
        -12    1    1    2    0    0 -0.10930392515E+01  0.39025549381E+00  0.21412457864E+00  0.11802048513E+01  0.00000000000E+00 0.  1.
         11    1    3    3    0    0  0.11652373304E+02  0.33831856983E+01  0.10518983158E+02  0.16058416983E+02  0.51100000000E-03 0. -1.
        -11    1    3    3    0    0  0.29558895750E+02  0.91270435356E+01 -0.27436549295E+01  0.31057348314E+02  0.51100000000E-03 0.  1.
         12    1    3    3    0    0 -0.40118229802E+02 -0.12900484728E+02 -0.79894528072E+01  0.42892029852E+02  0.00000000000E+00 0. -1.
</event>
<event>
 7    1  0.2294706E-015  0.9000780E+02  0.7816164E-02  0.1186339E+00
        -11   -1    0    0    0    0  0.00000000000E+00  0.00000000000E+00  0.45593999997E+02  0.45594000000E+02  0.51100000000E-03 0.  1.
         11   -1    0    0    0    0 -0.00000000000E+00 -0.00000000000E+00 -0.45593999997E+02  0.45594000000E+02  0.51100000000E-03 0. -1.
    9900012    2    1    2    0    0 -0.66662182935E+00 -0.15903566276E+00 -0.96082482854E+00  0.90007804526E+02  0.90000066746E+02 0.  0.
        -12    1    1    2    0    0  0.66662182935E+00  0.15903566276E+00  0.96082482854E+00  0.11801954739E+01  0.00000000000E+00 0.  1.
         11    1    3    3    0    0 -0.44911979718E+01 -0.30956727266E+00  0.13405915936E+02  0.14141614952E+02  0.51100000000E-03 0. -1.
        -11    1    3    3    0    0  0.53989596721E+00  0.15538164586E+02  0.27250555827E+02  0.31373855987E+02  0.51100000000E-03 0.  1.
         12    1    3    3    0    0  0.32846801752E+01 -0.15387632976E+02 -0.41617296591E+02  0.44492333587E+02  0.00000000000E+00 0. -1.
</event>
<event>
 7    1  0.2294706E-015  0.9000773E+02  0.7816164E-02  0.1186339E+00
        -11   -1    0    0    0    0  0.00000000000E+00  0.00000000000E+00  0.45593999997E+02  0.45594000000E+02  0.51100000000E-03 0.  1.
         11   -1    0    0    0    0 -0.00000000000E+00 -0.00000000000E+00 -0.45593999997E+02  0.45594000000E+02  0.51100000000E-03 0. -1.
    9900012    2    1    2    0    0  0.55500423726E+00 -0.81695157970E+00 -0.64622308099E+00  0.90007727211E+02  0.89999988410E+02 0.  0.
        -12    1    1    2    0    0 -0.55500423726E+00  0.81695157970E+00  0.64622308099E+00  0.11802727894E+01  0.00000000000E+00 0.  1.
         11    1    3    3    0    0  0.19601747659E+02 -0.15814395859E+02 -0.28610615700E+02  0.38116806774E+02  0.51100000000E-03 0. -1.
        -11    1    3    3    0    0  0.72515971033E+01  0.32628921426E+01 -0.39715673313E+01  0.88885022929E+01  0.51100000000E-03 0.  1.
        -12    1    3    3    0    0 -0.26298340525E+02  0.11734552136E+02  0.31935959950E+02  0.43002418143E+02  0.00000000000E+00 0.  1.
</event>
<event>
 7    1  0.2294706E-015  0.9000798E+02  0.7816164E-02  0.1186339E+00
        -11   -1    0    0    0    0  0.00000000000E+00  0.00000000000E+00  0.45593999997E+02  0.45594000000E+02  0.51100000000E-03 0.  1.
         11   -1    0    0    0    0 -0.00000000000E+00 -0.00000000000E+00 -0.45593999997E+02  0.45594000000E+02  0.51100000000E-03 0. -1.
    9900012    2    1    2    0    0  0.99384004250E+00 -0.61260158318E+00 -0.17160168678E+00  0.90007980564E+02  0.90000245107E+02 0.  0.
        -12    1    1    2    0    0 -0.99384004250E+00  0.61260158318E+00  0.17160168678E+00  0.11800194357E+01  0.00000000000E+00 0.  1.
         11    1    3    3    0    0  0.96750774533E+01  0.27884163887E+02 -0.16186544835E+02  0.33662114511E+02  0.51100000000E-03 0. -1.
        -11    1    3    3    0    0  0.88584176262E+01 -0.39965735638E+01 -0.11835966296E+02  0.15314511468E+02  0.51100000000E-03 0.  1.
        -12    1    3    3    0    0 -0.17539655037E+02 -0.24500191906E+02  0.27850909444E+02  0.41031354585E+02  0.00000000000E+00 0.  1.
</event>
<event>
 7    1  0.2294706E-015  0.9000761E+02  0.7816164E-02  0.1186339E+00
        -11   -1    0    0    0    0  0.00000000000E+00  0.00000000000E+00  0.45593999997E+02  0.45594000000E+02  0.51100000000E-03 0.  1.
         11   -1    0    0    0    0 -0.00000000000E+00 -0.00000000000E+00 -0.45593999997E+02  0.45594000000E+02  0.51100000000E-03 0. -1.
    9900012    2    1    2    0    0  0.71379738890E+00  0.34650268578E+00 -0.87392534439E+00  0.90007611788E+02  0.89999871463E+02 0.  0.
        -12    1    1    2    0    0 -0.71379738890E+00 -0.34650268578E+00  0.87392534439E+00  0.11803882121E+01  0.00000000000E+00 0.  1.
         11    1    3    3    0    0 -0.52369667392E+01  0.29947571647E+01  0.52626586586E+01  0.80056209954E+01  0.51100000000E-03 0. -1.
        -11    1    3    3    0    0  0.38791535255E+02  0.24829552901E+01  0.16033171941E+02  0.42047721427E+02  0.51100000000E-03 0.  1.
         12    1    3    3    0    0 -0.32840771127E+02 -0.51312097690E+01 -0.22169755944E+02  0.39954269366E+02  0.00000000000E+00 0. -1.
</event>
<event>
 7    1  0.2294706E-015  0.9000780E+02  0.7816164E-02  0.1186339E+00
        -11   -1    0    0    0    0  0.00000000000E+00  0.00000000000E+00  0.45593999997E+02  0.45594000000E+02  0.51100000000E-03 0. -1.
         11   -1    0    0    0    0 -0.00000000000E+00 -0.00000000000E+00 -0.45593999997E+02  0.45594000000E+02  0.51100000000E-03 0.  1.
    9900012    2    1    2    0    0 -0.79461575756E+00  0.18145920888E+00  0.85353559366E+00  0.90007803128E+02  0.90000065329E+02 0.  0.
        -12    1    1    2    0    0  0.79461575756E+00 -0.18145920888E+00 -0.85353559366E+00  0.11801968718E+01  0.00000000000E+00 0.  1.
         11    1    3    3    0    0 -0.54412468916E+00  0.52656311056E+01 -0.56279411015E+01  0.77263616224E+01  0.51100000000E-03 0. -1.
        -11    1    3    3    0    0  0.76862506312E+01 -0.15053139805E+02 -0.35010506223E+02  0.38876869898E+02  0.51100000000E-03 0.  1.
         12    1    3    3    0    0 -0.79367416996E+01  0.99689679085E+01  0.41491982919E+02  0.43404571608E+02  0.00000000000E+00 0. -1.
</event>
<event>
 7    1  0.2294706E-015  0.9000777E+02  0.7816164E-02  0.1186339E+00
        -11   -1    0    0    0    0  0.00000000000E+00  0.00000000000E+00  0.45593999997E+02  0.45594000000E+02  0.51100000000E-03 0. -1.
         11   -1    0    0    0    0 -0.00000000000E+00 -0.00000000000E+00 -0.45593999997E+02  0.45594000000E+02  0.51100000000E-03 0.  1.
    9900012    2    1    2    0    0 -0.87741660297E+00 -0.49312516566E+00  0.61637061446E+00  0.90007769066E+02  0.90000030817E+02 0.  0.
        -12    1    1    2    0    0  0.87741660297E+00  0.49312516566E+00 -0.61637061446E+00  0.11802309344E+01  0.00000000000E+00 0.  1.
         11    1    3    3    0    0  0.61252353470E+01  0.41862595087E+01 -0.48945977992E+01  0.88882149280E+01  0.51100000000E-03 0. -1.
        -11    1    3    3    0    0 -0.20189213616E+01  0.31303375944E+02 -0.19573249870E+02  0.36974173414E+02  0.51100000000E-03 0.  1.
         12    1    3    3    0    0 -0.49837305884E+01 -0.35982760618E+02  0.25084218283E+02  0.44145380723E+02  0.00000000000E+00 0. -1.
</event>
<event>
 7    1  0.2294706E-015  0.9000806E+02  0.7816164E-02  0.1186338E+00
        -11   -1    0    0    0    0  0.00000000000E+00  0.00000000000E+00  0.45593999997E+02  0.45594000000E+02  0.51100000000E-03 0.  1.
         11   -1    0    0    0    0 -0.00000000000E+00 -0.00000000000E+00 -0.45593999997E+02  0.45594000000E+02  0.51100000000E-03 0. -1.
    9900012    2    1    2    0    0 -0.70701653835E+00 -0.89389779157E+00 -0.30550322620E+00  0.90008060227E+02  0.90000325821E+02 0.  0.
        -12    1    1    2    0    0  0.70701653835E+00  0.89389779157E+00  0.30550322620E+00  0.11799397732E+01  0.00000000000E+00 0.  1.
         11    1    3    3    0    0  0.22224717154E+02  0.24558956387E+02 -0.23242518862E+02  0.40463502996E+02  0.51100000000E-03 0. -1.
        -11    1    3    3    0    0  0.46422431540E+01 -0.81782361329E+01 -0.54231433240E+00  0.94195579962E+01  0.51100000000E-03 0.  1.
        -12    1    3    3    0    0 -0.27573976847E+02 -0.17274618046E+02  0.23479329968E+02  0.40124999234E+02  0.00000000000E+00 0.  1.
</event>
<event>
 7    1  0.2294706E-015  0.9000745E+02  0.7816164E-02  0.1186340E+00
        -11   -1    0    0    0    0  0.00000000000E+00  0.00000000000E+00  0.45593999997E+02  0.45594000000E+02  0.51100000000E-03 0.  1.
         11   -1    0    0    0    0 -0.00000000000E+00 -0.00000000000E+00 -0.45593999997E+02  0.45594000000E+02  0.51100000000E-03 0. -1.
    9900012    2    1    2    0    0  0.97026619667E+00 -0.55647505444E-02 -0.67250014388E+00  0.90007447628E+02  0.89999705136E+02 0.  0.
        -12    1    1    2    0    0 -0.97026619667E+00  0.55647505444E-02  0.67250014388E+00  0.11805523717E+01  0.00000000000E+00 0.  1.
         11    1    3    3    0    0 -0.19040532468E+02  0.30328410332E+02  0.22262772395E+02  0.42166163981E+02  0.51100000000E-03 0. -1.
        -11    1    3    3    0    0 -0.47355880133E+00 -0.17834641440E+01 -0.10355291257E+02  0.10518415260E+02  0.51100000000E-03 0.  1.
        -12    1    3    3    0    0  0.20484357466E+02 -0.28550510938E+02 -0.12579981282E+02  0.37322868387E+02  0.00000000000E+00 0.  1.
</event>
<event>
 7    1  0.2294706E-015  0.9000778E+02  0.7816164E-02  0.1186339E+00
        -11   -1    0    0    0    0  0.00000000000E+00  0.00000000000E+00  0.45593999997E+02  0.45594000000E+02  0.51100000000E-03 0. -1.
         11   -1    0    0    0    0 -0.00000000000E+00 -0.00000000000E+00 -0.45593999997E+02  0.45594000000E+02  0.51100000000E-03 0.  1.
    9900012    2    1    2    0    0 -0.26339750744E+00 -0.94735156638E+00  0.65274521224E+00  0.90007775636E+02  0.90000037474E+02 0.  0.
        -12    1    1    2    0    0  0.26339750744E+00  0.94735156638E+00 -0.65274521224E+00  0.11802243640E+01  0.00000000000E+00 0.  1.
         11    1    3    3    0    0 -0.42927010780E+02 -0.61351874674E+01  0.10095924208E+01  0.43374970397E+02  0.51100000000E-03 0. -1.
        -11    1    3    3    0    0  0.64228331904E+01  0.77181614901E+01  0.19577830995E+01  0.10230137727E+02  0.51100000000E-03 0.  1.
        -12    1    3    3    0    0  0.36240780083E+02 -0.25303255891E+01 -0.23146303080E+01  0.36402667513E+02  0.00000000000E+00 0.  1.
</event>
<event>
 7    1  0.2294706E-015  0.9000786E+02  0.7816164E-02  0.1186339E+00
        -11   -1    0    0    0    0  0.00000000000E+00  0.00000000000E+00  0.45593999997E+02  0.45594000000E+02  0.51100000000E-03 0. -1.
         11   -1    0    0    0    0 -0.00000000000E+00 -0.00000000000E+00 -0.45593999997E+02  0.45594000000E+02  0.51100000000E-03 0.  1.
    9900012    2    1    2    0    0 -0.41168994020E+00 -0.10781896497E+01  0.24646611246E+00  0.90007861418E+02  0.90000124389E+02 0.  0.
        -12    1    1    2    0    0  0.41168994020E+00  0.10781896497E+01 -0.24646611246E+00  0.11801385818E+01  0.00000000000E+00 0.  1.
         11    1    3    3    0    0  0.43771057586E+01 -0.10882354298E+01  0.82884814199E+01  0.94362193532E+01  0.51100000000E-03 0. -1.
        -11    1    3    3    0    0  0.51129288498E+01 -0.32491380749E+02 -0.26197083285E+02  0.42049007566E+02  0.51100000000E-03 0.  1.
         12    1    3    3    0    0 -0.99017245486E+01  0.32501426529E+02  0.18155067977E+02  0.38522634499E+02  0.00000000000E+00 0. -1.
</event>
<event>
 7    1  0.2294706E-015  0.9000772E+02  0.7816164E-02  0.1186339E+00
        -11   -1    0    0    0    0  0.00000000000E+00  0.00000000000E+00  0.45593999997E+02  0.45594000000E+02  0.51100000000E-03 0.  1.
         11   -1    0    0    0    0 -0.00000000000E+00 -0.00000000000E+00 -0.45593999997E+02  0.45594000000E+02  0.51100000000E-03 0. -1.
    9900012    2    1    2    0    0  0.20025262569E+00  0.92386925271E+00 -0.70670281469E+00  0.90007718517E+02  0.89999979602E+02 0.  0.
        -12    1    1    2    0    0 -0.20025262569E+00 -0.92386925271E+00  0.70670281469E+00  0.11802814827E+01  0.00000000000E+00 0.  1.
         11    1    3    3    0    0 -0.27438440076E+02  0.67660130924E+01 -0.30668628439E+02  0.41703857106E+02  0.51100000000E-03 0. -1.
        -11    1    3    3    0    0  0.75220949109E+01  0.74717989303E+01  0.10567849178E+01  0.10654880841E+02  0.51100000000E-03 0.  1.
        -12    1    3    3    0    0  0.20116597791E+02 -0.13313942770E+02  0.28905140706E+02  0.37648980571E+02  0.00000000000E+00 0.  1.
</event>
<event>
 7    1  0.2294706E-015  0.9000774E+02  0.7816164E-02  0.1186339E+00
        -11   -1    0    0    0    0  0.00000000000E+00  0.00000000000E+00  0.45593999997E+02  0.45594000000E+02  0.51100000000E-03 0. -1.
         11   -1    0    0    0    0 -0.00000000000E+00 -0.00000000000E+00 -0.45593999997E+02  0.45594000000E+02  0.51100000000E-03 0.  1.
    9900012    2    1    2    0    0 -0.45428717681E+00 -0.10890544185E+01 -0.24428504470E-01  0.90007740233E+02  0.90000001604E+02 0.  0.
        -12    1    1    2    0    0  0.45428717681E+00  0.10890544185E+01  0.24428504470E-01  0.11802597669E+01  0.00000000000E+00 0.  1.
         11    1    3    3    0    0 -0.60490062415E+00  0.73531723484E+01 -0.62010965953E+01  0.96378756786E+01  0.51100000000E-03 0. -1.
        -11    1    3    3    0    0 -0.23042287644E+02  0.15270643526E+02 -0.23179595944E+02  0.36075382769E+02  0.51100000000E-03 0.  1.
         12    1    3    3    0    0  0.23192901092E+02 -0.23712870293E+02  0.29356264035E+02  0.44294481785E+02  0.00000000000E+00 0. -1.
</event>
<event>
 7    1  0.2364260E-015  0.9000772E+02  0.7816164E-02  0.1186339E+00
        -11   -1    0    0    0    0  0.00000000000E+00  0.00000000000E+00  0.45593999997E+02  0.45594000000E+02  0.51100000000E-03 0.  1.
         11   -1    0    0    0    0 -0.00000000000E+00 -0.00000000000E+00 -0.45593999997E+02  0.45594000000E+02  0.51100000000E-03 0. -1.
    9900012    2    1    2    0    0  0.85846658625E+00  0.55975513742E+00 -0.58547541465E+00  0.90007715223E+02  0.89999976264E+02 0.  0.
        -12    1    1    2    0    0 -0.85846658625E+00 -0.55975513742E+00  0.58547541465E+00  0.11802847770E+01  0.00000000000E+00 0.  1.
         11    1    3    3    0    0  0.12152948729E+02 -0.14418877534E+02 -0.31912095512E+02  0.37067236643E+02  0.51100000000E-03 0. -1.
        -11    1    3    3    0    0 -0.24823897565E+01 -0.53328409894E+01 -0.67136356109E+01  0.89260492547E+01  0.51100000000E-03 0.  1.
        -12    1    3    3    0    0 -0.88120923864E+01  0.20311473661E+02  0.38040255708E+02  0.44014429325E+02  0.00000000000E+00 0.  1.
</event>
<event>
 7    1  0.2294706E-015  0.9000758E+02  0.7816164E-02  0.1186339E+00
        -11   -1    0    0    0    0  0.00000000000E+00  0.00000000000E+00  0.45593999997E+02  0.45594000000E+02  0.51100000000E-03 0. -1.
         11   -1    0    0    0    0 -0.00000000000E+00 -0.00000000000E+00 -0.45593999997E+02  0.45594000000E+02  0.51100000000E-03 0.  1.
    9900012    2    1    2    0    0  0.43252052099E+00  0.10225421275E+01  0.40090743563E+00  0.90007579238E+02  0.89999838484E+02 0.  0.
        -12    1    1    2    0    0 -0.43252052099E+00 -0.10225421275E+01 -0.40090743563E+00  0.11804207621E+01  0.00000000000E+00 0.  1.
         11    1    3    3    0    0  0.27634563585E+02 -0.12049496998E+02 -0.22354462302E+02  0.37531073359E+02  0.51100000000E-03 0. -1.
        -11    1    3    3    0    0 -0.16255419145E+01 -0.77402149427E+01 -0.50159804348E+01  0.93655418348E+01  0.51100000000E-03 0.  1.
        -12    1    3    3    0    0 -0.25576501149E+02  0.20812254068E+02  0.27771350172E+02  0.43110964044E+02  0.00000000000E+00 0.  1.
</event>
<event>
 7    1  0.2294706E-015  0.9000765E+02  0.7816164E-02  0.1186339E+00
        -11   -1    0    0    0    0  0.00000000000E+00  0.00000000000E+00  0.45593999997E+02  0.45594000000E+02  0.51100000000E-03 0.  1.
         11   -1    0    0    0    0 -0.00000000000E+00 -0.00000000000E+00 -0.45593999997E+02  0.45594000000E+02  0.51100000000E-03 0. -1.
    9900012    2    1    2    0    0 -0.74268685707E+00 -0.88481219113E+00  0.24240322153E+00  0.90007645942E+02  0.89999906068E+02 0.  0.
        -12    1    1    2    0    0  0.74268685707E+00  0.88481219113E+00 -0.24240322153E+00  0.11803540583E+01  0.00000000000E+00 0.  1.
         11    1    3    3    0    0  0.74555578467E+01  0.46631392281E+01  0.26551541445E+01  0.91858616394E+01  0.51100000000E-03 0. -1.
        -11    1    3    3    0    0  0.13777645892E+02  0.44417455376E+01  0.34102967652E+02  0.37048144794E+02  0.51100000000E-03 0.  1.
         12    1    3    3    0    0 -0.21975890596E+02 -0.99896969569E+01 -0.36515718575E+02  0.43773639508E+02  0.00000000000E+00 0. -1.
</event>
<event>
 7    1  0.2294706E-015  0.9000780E+02  0.7816164E-02  0.1186339E+00
        -11   -1    0    0    0    0  0.00000000000E+00  0.00000000000E+00  0.45593999997E+02  0.45594000000E+02  0.51100000000E-03 0.  1.
         11   -1    0    0    0    0 -0.00000000000E+00 -0.00000000000E+00 -0.45593999997E+02  0.45594000000E+02  0.51100000000E-03 0. -1.
    9900012    2    1    2    0    0 -0.62699454699E+00 -0.11264276669E-01 -0.99981426962E+00  0.90007797636E+02  0.90000059765E+02 0.  0.
        -12    1    1    2    0    0  0.62699454699E+00  0.11264276669E-01  0.99981426962E+00  0.11802023638E+01  0.00000000000E+00 0.  1.
         11    1    3    3    0    0  0.33813967119E+02 -0.94575602180E+01 -0.22687547336E+02  0.41803763252E+02  0.51100000000E-03 0. -1.
        -11    1    3    3    0    0 -0.46555960011E+01  0.68655477186E+01 -0.36038257479E+01  0.90442180361E+01  0.51100000000E-03 0.  1.
        -12    1    3    3    0    0 -0.29785365665E+02  0.25807482227E+01  0.25291558814E+02  0.39159816348E+02  0.00000000000E+00 0.  1.
</event>
<event>
 7    1  0.2294706E-015  0.9000780E+02  0.7816164E-02  0.1186339E+00
        -11   -1    0    0    0    0  0.00000000000E+00  0.00000000000E+00  0.45593999997E+02  0.45594000000E+02  0.51100000000E-03 0. -1.
         11   -1    0    0    0    0 -0.00000000000E+00 -0.00000000000E+00 -0.45593999997E+02  0.45594000000E+02  0.51100000000E-03 0.  1.
    9900012    2    1    2    0    0  0.31415873114E-01  0.18308722757E+00  0.11654868997E+01  0.90007801880E+02  0.90000064064E+02 0.  0.
        -12    1    1    2    0    0 -0.31415873114E-01 -0.18308722757E+00 -0.11654868997E+01  0.11801981204E+01  0.00000000000E+00 0.  1.
         11    1    3    3    0    0  0.22031480463E+01  0.67030570963E+01 -0.55374171815E+01  0.89692711550E+01  0.51100000000E-03 0. -1.
        -11    1    3    3    0    0 -0.29254506927E+02  0.32369802594E+01 -0.24710132807E+02  0.38430390062E+02  0.51100000000E-03 0.  1.
         12    1    3    3    0    0  0.27082774754E+02 -0.97569501281E+01  0.31413036888E+02  0.42608140662E+02  0.00000000000E+00 0. -1.
</event>
<event>
 7    1  0.2294706E-015  0.9000773E+02  0.7816164E-02  0.1186339E+00
        -11   -1    0    0    0    0  0.00000000000E+00  0.00000000000E+00  0.45593999997E+02  0.45594000000E+02  0.51100000000E-03 0. -1.
         11   -1    0    0    0    0 -0.00000000000E+00 -0.00000000000E+00 -0.45593999997E+02  0.45594000000E+02  0.51100000000E-03 0.  1.
    9900012    2    1    2    0    0  0.96940751408E+00  0.59968600311E+00  0.30603857464E+00  0.90007731454E+02  0.89999992710E+02 0.  0.
        -12    1    1    2    0    0 -0.96940751408E+00 -0.59968600311E+00 -0.30603857464E+00  0.11802685456E+01  0.00000000000E+00 0.  1.
         11    1    3    3    0    0  0.16375541082E+02  0.10648491843E+02 -0.63789850390E+01  0.20548483512E+02  0.51100000000E-03 0. -1.
        -11    1    3    3    0    0 -0.28105948098E+01 -0.36879621329E+02 -0.55358010554E+01  0.37398542835E+02  0.51100000000E-03 0.  1.
         12    1    3    3    0    0 -0.12595538758E+02  0.26830815489E+02  0.12220824669E+02  0.32060705108E+02  0.00000000000E+00 0. -1.
</event>
<event>
 7    1  0.2294706E-015  0.9000753E+02  0.7816164E-02  0.1186339E+00
        -11   -1    0    0    0    0  0.00000000000E+00  0.00000000000E+00  0.45593999997E+02  0.45594000000E+02  0.51100000000E-03 0.  1.
         11   -1    0    0    0    0 -0.00000000000E+00 -0.00000000000E+00 -0.45593999997E+02  0.45594000000E+02  0.51100000000E-03 0. -1.
    9900012    2    1    2    0    0 -0.56631130414E+00  0.77157829670E+00 -0.69098672724E+00  0.90007532204E+02  0.89999790828E+02 0.  0.
        -12    1    1    2    0    0  0.56631130414E+00 -0.77157829670E+00  0.69098672724E+00  0.11804677964E+01  0.00000000000E+00 0.  1.
         11    1    3    3    0    0  0.17418718487E+02 -0.28409557261E+02 -0.21578459061E+02  0.39700687566E+02  0.51100000000E-03 0. -1.
        -11    1    3    3    0    0 -0.43176056998E+01 -0.62320130213E+01  0.54090319968E+01  0.93132879630E+01  0.51100000000E-03 0.  1.
        -12    1    3    3    0    0 -0.13667424091E+02  0.35413148579E+02  0.15478440336E+02  0.40993556675E+02  0.00000000000E+00 0.  1.
</event>
<event>
 7    1  0.2294706E-015  0.9000772E+02  0.7816164E-02  0.1186339E+00
        -11   -1    0    0    0    0  0.00000000000E+00  0.00000000000E+00  0.45593999997E+02  0.45594000000E+02  0.51100000000E-03 0.  1.
         11   -1    0    0    0    0 -0.00000000000E+00 -0.00000000000E+00 -0.45593999997E+02  0.45594000000E+02  0.51100000000E-03 0. -1.
    9900012    2    1    2    0    0  0.51800099412E-01  0.47448595597E+00 -0.10794648085E+01  0.90007718489E+02  0.89999979573E+02 0.  0.
        -12    1    1    2    0    0 -0.51800099412E-01 -0.47448595597E+00  0.10794648085E+01  0.11802815111E+01  0.00000000000E+00 0.  1.
         11    1    3    3    0    0 -0.68340831609E+01 -0.11317633309E+01 -0.40792597554E+02  0.41376582705E+02  0.51100000000E-03 0. -1.
        -11    1    3    3    0    0 -0.73050875916E+01  0.43455221184E+01  0.27352953699E+01  0.89291493562E+01  0.51100000000E-03 0.  1.
        -12    1    3    3    0    0  0.14190970852E+02 -0.27392728315E+01  0.36977837375E+02  0.39701986428E+02  0.00000000000E+00 0.  1.
</event>
<event>
 7    1  0.2294706E-015  0.9000787E+02  0.7816164E-02  0.1186339E+00
        -11   -1    0    0    0    0  0.00000000000E+00  0.00000000000E+00  0.45593999997E+02  0.45594000000E+02  0.51100000000E-03 0.  1.
         11   -1    0    0    0    0 -0.00000000000E+00 -0.00000000000E+00 -0.45593999997E+02  0.45594000000E+02  0.51100000000E-03 0. -1.
    9900012    2    1    2    0    0  0.10602478017E+01 -0.37514603799E+00 -0.35756955598E+00  0.90007866136E+02  0.90000129168E+02 0.  0.
        -12    1    1    2    0    0 -0.10602478017E+01  0.37514603799E+00  0.35756955598E+00  0.11801338645E+01  0.00000000000E+00 0.  1.
         11    1    3    3    0    0 -0.21858301987E+02 -0.32852453943E+02 -0.44236519434E+01  0.39706898552E+02  0.51100000000E-03 0. -1.
        -11    1    3    3    0    0 -0.31257098886E+00 -0.17482993284E+01  0.85140752192E+01  0.86973402983E+01  0.51100000000E-03 0.  1.
        -12    1    3    3    0    0  0.23231120778E+02  0.34225607233E+02 -0.44479928318E+01  0.41603627285E+02  0.00000000000E+00 0.  1.
</event>
<event>
 7    1  0.2294706E-015  0.9000726E+02  0.7816164E-02  0.1186340E+00
        -11   -1    0    0    0    0  0.00000000000E+00  0.00000000000E+00  0.45593999997E+02  0.45594000000E+02  0.51100000000E-03 0. -1.
         11   -1    0    0    0    0 -0.00000000000E+00 -0.00000000000E+00 -0.45593999997E+02  0.45594000000E+02  0.51100000000E-03 0.  1.
    9900012    2    1    2    0    0 -0.52476620403E+00 -0.99520578300E+00  0.35824707057E+00  0.90007256555E+02  0.89999511540E+02 0.  0.
        -12    1    1    2    0    0  0.52476620403E+00  0.99520578300E+00 -0.35824707057E+00  0.11807434450E+01  0.00000000000E+00 0.  1.
         11    1    3    3    0    0 -0.84718747018E+01 -0.27262922934E+01  0.16746385375E+01  0.90559232066E+01  0.51100000000E-03 0. -1.
        -11    1    3    3    0    0  0.88088721371E+01  0.40772644740E+02  0.19880019295E+01  0.41760710474E+02  0.51100000000E-03 0.  1.
         12    1    3    3    0    0 -0.86176363932E+00 -0.39041558229E+02 -0.33043933965E+01  0.39190622874E+02  0.00000000000E+00 0. -1.
</event>
<event>
 7    1  0.2294706E-015  0.9000770E+02  0.7816164E-02  0.1186339E+00
        -11   -1    0    0    0    0  0.00000000000E+00  0.00000000000E+00  0.45593999997E+02  0.45594000000E+02  0.51100000000E-03 0. -1.
         11   -1    0    0    0    0 -0.00000000000E+00 -0.00000000000E+00 -0.45593999997E+02  0.45594000000E+02  0.51100000000E-03 0.  1.
    9900012    2    1    2    0    0  0.89796407822E+00 -0.64711514838E+00  0.40988843647E+00  0.90007700872E+02  0.89999961724E+02 0.  0.
        -12    1    1    2    0    0 -0.89796407822E+00  0.64711514838E+00 -0.40988843647E+00  0.11802991279E+01  0.00000000000E+00 0.  1.
         11    1    3    3    0    0 -0.17346355730E+02 -0.48836858323E+01  0.35814265087E+02  0.40092493417E+02  0.51100000000E-03 0. -1.
        -11    1    3    3    0    0  0.10535978807E+02 -0.57666519246E+01  0.32953985889E+00  0.12015395151E+02  0.51100000000E-03 0.  1.
        -12    1    3    3    0    0  0.77083410003E+01  0.10003222609E+02 -0.35733916510E+02  0.37899812304E+02  0.00000000000E+00 0.  1.
</event>
<event>
 7    1  0.2294706E-015  0.9000778E+02  0.7816164E-02  0.1186339E+00
        -11   -1    0    0    0    0  0.00000000000E+00  0.00000000000E+00  0.45593999997E+02  0.45594000000E+02  0.51100000000E-03 0. -1.
         11   -1    0    0    0    0 -0.00000000000E+00 -0.00000000000E+00 -0.45593999997E+02  0.45594000000E+02  0.51100000000E-03 0.  1.
    9900012    2    1    2    0    0 -0.45689508453E+00  0.10716088020E+01  0.18927931497E+00  0.90007777478E+02  0.90000039341E+02 0.  0.
        -12    1    1    2    0    0  0.45689508453E+00 -0.10716088020E+01 -0.18927931497E+00  0.11802225222E+01  0.00000000000E+00 0.  1.
         11    1    3    3    0    0 -0.24688263956E+02  0.52125675921E+01 -0.25114454286E+02  0.35600801289E+02  0.51100000000E-03 0. -1.
        -11    1    3    3    0    0 -0.68983726222E+00 -0.79256011910E+01 -0.88877094390E+01  0.11928219021E+02  0.51100000000E-03 0.  1.
        -12    1    3    3    0    0  0.24921206134E+02  0.37846424008E+01  0.34191443040E+02  0.42478757167E+02  0.00000000000E+00 0.  1.
</event>
<event>
 7    1  0.2294706E-015  0.9000775E+02  0.7816164E-02  0.1186339E+00
        -11   -1    0    0    0    0  0.00000000000E+00  0.00000000000E+00  0.45593999997E+02  0.45594000000E+02  0.51100000000E-03 0. -1.
         11   -1    0    0    0    0 -0.00000000000E+00 -0.00000000000E+00 -0.45593999997E+02  0.45594000000E+02  0.51100000000E-03 0.  1.
    9900012    2    1    2    0    0  0.67491897261E+00  0.90027294073E+00  0.35634749255E+00  0.90007749805E+02  0.90000011302E+02 0.  0.
        -12    1    1    2    0    0 -0.67491897261E+00 -0.90027294073E+00 -0.35634749255E+00  0.11802501950E+01  0.00000000000E+00 0.  1.
         11    1    3    3    0    0  0.36398228337E+01  0.63331301760E+01  0.58818624145E+01  0.93783342770E+01  0.51100000000E-03 0. -1.
        -11    1    3    3    0    0 -0.60062801121E+01 -0.33757026851E+02  0.22224839141E+02  0.40860197475E+02  0.51100000000E-03 0.  1.
         12    1    3    3    0    0  0.30413762511E+01  0.28324169616E+02 -0.27750354063E+02  0.39769218053E+02  0.00000000000E+00 0. -1.
</event>
<event>
 7    1  0.2294706E-015  0.9000784E+02  0.7816164E-02  0.1186339E+00
        -11   -1    0    0    0    0  0.00000000000E+00  0.00000000000E+00  0.45593999997E+02  0.45594000000E+02  0.51100000000E-03 0.  1.
         11   -1    0    0    0    0 -0.00000000000E+00 -0.00000000000E+00 -0.45593999997E+02  0.45594000000E+02  0.51100000000E-03 0. -1.
    9900012    2    1    2    0    0  0.71776493122E+00 -0.36152381835E+00 -0.86422795029E+00  0.90007840724E+02  0.90000103421E+02 0.  0.
        -12    1    1    2    0    0 -0.71776493122E+00  0.36152381835E+00  0.86422795029E+00  0.11801592764E+01  0.00000000000E+00 0.  1.
         11    1    3    3    0    0 -0.71172494999E+01 -0.12380145217E+01  0.46473640250E+01  0.85898727023E+01  0.51100000000E-03 0. -1.
        -11    1    3    3    0    0  0.48864616908E+01 -0.94656312257E+01  0.36515071150E+02  0.38037167398E+02  0.51100000000E-03 0.  1.
         12    1    3    3    0    0  0.29485527403E+01  0.10342121929E+02 -0.42026663125E+02  0.43380800623E+02  0.00000000000E+00 0. -1.
</event>
<event>
 7    1  0.2294706E-015  0.9000780E+02  0.7816164E-02  0.1186339E+00
        -11   -1    0    0    0    0  0.00000000000E+00  0.00000000000E+00  0.45593999997E+02  0.45594000000E+02  0.51100000000E-03 0.  1.
         11   -1    0    0    0    0 -0.00000000000E+00 -0.00000000000E+00 -0.45593999997E+02  0.45594000000E+02  0.51100000000E-03 0. -1.
    9900012    2    1    2    0    0 -0.73515826833E+00 -0.41761374733E+00  0.82341418454E+00  0.90007800932E+02  0.90000063104E+02 0.  0.
        -12    1    1    2    0    0  0.73515826833E+00  0.41761374733E+00 -0.82341418454E+00  0.11801990683E+01  0.00000000000E+00 0.  1.
         11    1    3    3    0    0 -0.74439979967E+01  0.18728786290E+02 -0.33845997028E+02  0.39392030376E+02  0.51100000000E-03 0. -1.
        -11    1    3    3    0    0 -0.92412337658E+01  0.89588031857E+00  0.27371136253E+01  0.96796071365E+01  0.51100000000E-03 0.  1.
        -12    1    3    3    0    0  0.15950073494E+02 -0.20042280355E+02  0.31932297587E+02  0.40936163419E+02  0.00000000000E+00 0.  1.
</event>
<event>
 7    1  0.2294706E-015  0.9000783E+02  0.7816164E-02  0.1186339E+00
        -11   -1    0    0    0    0  0.00000000000E+00  0.00000000000E+00  0.45593999997E+02  0.45594000000E+02  0.51100000000E-03 0.  1.
         11   -1    0    0    0    0 -0.00000000000E+00 -0.00000000000E+00 -0.45593999997E+02  0.45594000000E+02  0.51100000000E-03 0. -1.
    9900012    2    1    2    0    0  0.80692042432E+00  0.49514407571E+00 -0.70462915814E+00  0.90007834555E+02  0.90000097171E+02 0.  0.
        -12    1    1    2    0    0 -0.80692042432E+00 -0.49514407571E+00  0.70462915814E+00  0.11801654449E+01  0.00000000000E+00 0.  1.
         11    1    3    3    0    0 -0.12682843414E+02  0.38263122828E+01  0.30642496651E+02  0.33383495683E+02  0.51100000000E-03 0. -1.
        -11    1    3    3    0    0 -0.27214995615E+00  0.12391940246E+02  0.60446910127E+01  0.13790305956E+02  0.51100000000E-03 0.  1.
        -12    1    3    3    0    0  0.13761913794E+02 -0.15723108453E+02 -0.37391816821E+02  0.42834032917E+02  0.00000000000E+00 0.  1.
</event>
<event>
 7    1  0.2636293E-015  0.9000757E+02  0.7816164E-02  0.1186339E+00
        -11   -1    0    0    0    0  0.00000000000E+00  0.00000000000E+00  0.45593999997E+02  0.45594000000E+02  0.51100000000E-03 0. -1.
         11   -1    0    0    0    0 -0.00000000000E+00 -0.00000000000E+00 -0.45593999997E+02  0.45594000000E+02  0.51100000000E-03 0.  1.
    9900012    2    1    2    0    0 -0.65009861391E+00 -0.83388737753E+00  0.52479674778E+00  0.90007572962E+02  0.89999832125E+02 0.  0.
        -12    1    1    2    0    0  0.65009861391E+00  0.83388737753E+00 -0.52479674778E+00  0.11804270383E+01  0.00000000000E+00 0.  1.
         11    1    3    3    0    0  0.12533702436E+02 -0.32705733012E+01  0.34116664670E+02  0.36492974049E+02  0.51100000000E-03 0. -1.
        -11    1    3    3    0    0  0.86010676934E+01 -0.28325924944E+01  0.38796386307E+01  0.98515756035E+01  0.51100000000E-03 0.  1.
        -12    1    3    3    0    0 -0.21784868743E+02  0.52692784180E+01 -0.37471506553E+02  0.43663023310E+02  0.00000000000E+00 0.  1.
</event>
<event>
 7    1  0.2294706E-015  0.9000779E+02  0.7816164E-02  0.1186339E+00
        -11   -1    0    0    0    0  0.00000000000E+00  0.00000000000E+00  0.45593999997E+02  0.45594000000E+02  0.51100000000E-03 0.  1.
         11   -1    0    0    0    0 -0.00000000000E+00 -0.00000000000E+00 -0.45593999997E+02  0.45594000000E+02  0.51100000000E-03 0. -1.
    9900012    2    1    2    0    0 -0.10901926871E+01  0.24946892755E+00  0.37700003205E+00  0.90007794990E+02  0.90000057084E+02 0.  0.
        -12    1    1    2    0    0  0.10901926871E+01 -0.24946892755E+00 -0.37700003205E+00  0.11802050097E+01  0.00000000000E+00 0.  1.
         11    1    3    3    0    0  0.41738056471E+02  0.65014093720E+01  0.65826178653E+00  0.42246502703E+02  0.51100000000E-03 0. -1.
        -11    1    3    3    0    0 -0.61769915279E+01  0.60273413327E+01 -0.26700887625E+01  0.90340158367E+01  0.51100000000E-03 0.  1.
        -12    1    3    3    0    0 -0.36651257630E+02 -0.12279281777E+02  0.23888270080E+01  0.38727276451E+02  0.00000000000E+00 0.  1.
</event>
<event>
 7    1  0.2294706E-015  0.9000776E+02  0.7816164E-02  0.1186339E+00
        -11   -1    0    0    0    0  0.00000000000E+00  0.00000000000E+00  0.45593999997E+02  0.45594000000E+02  0.51100000000E-03 0. -1.
         11   -1    0    0    0    0 -0.00000000000E+00 -0.00000000000E+00 -0.45593999997E+02  0.45594000000E+02  0.51100000000E-03 0.  1.
    9900012    2    1    2    0    0 -0.11994673540E+00  0.10666605740E+01  0.49072638634E+00  0.90007760878E+02  0.90000022521E+02 0.  0.
        -12    1    1    2    0    0  0.11994673540E+00 -0.10666605740E+01 -0.49072638634E+00  0.11802391223E+01  0.00000000000E+00 0.  1.
         11    1    3    3    0    0  0.35898256335E+02 -0.13891863889E+02 -0.10352134395E+02  0.39860197905E+02  0.51100000000E-03 0. -1.
        -11    1    3    3    0    0 -0.58611001275E+01 -0.26421462662E+01 -0.81644506247E+01  0.10391904824E+02  0.51100000000E-03 0.  1.
        -12    1    3    3    0    0 -0.30157102943E+02  0.17600670729E+02  0.19007311406E+02  0.39755658150E+02  0.00000000000E+00 0.  1.
</event>
<event>
 7    1  0.2294706E-015  0.9000771E+02  0.7816164E-02  0.1186339E+00
        -11   -1    0    0    0    0  0.00000000000E+00  0.00000000000E+00  0.45593999997E+02  0.45594000000E+02  0.51100000000E-03 0. -1.
         11   -1    0    0    0    0 -0.00000000000E+00 -0.00000000000E+00 -0.45593999997E+02  0.45594000000E+02  0.51100000000E-03 0.  1.
    9900012    2    1    2    0    0  0.88127627094E+00 -0.38488520115E+00  0.68432119278E+00  0.90007711909E+02  0.89999972906E+02 0.  0.
        -12    1    1    2    0    0 -0.88127627094E+00  0.38488520115E+00 -0.68432119278E+00  0.11802880914E+01  0.00000000000E+00 0.  1.
         11    1    3    3    0    0 -0.49943553764E+01  0.11536846308E+02 -0.27760755831E+01  0.12874354519E+02  0.51100000000E-03 0. -1.
        -11    1    3    3    0    0 -0.15844663749E+02  0.17771039014E+02 -0.21981066095E+02  0.32404173556E+02  0.51100000000E-03 0.  1.
         12    1    3    3    0    0  0.21720295396E+02 -0.29692770523E+02  0.25441462871E+02  0.44729183834E+02  0.00000000000E+00 0. -1.
</event>
<event>
 7    1  0.2294706E-015  0.9000774E+02  0.7816164E-02  0.1186339E+00
        -11   -1    0    0    0    0  0.00000000000E+00  0.00000000000E+00  0.45593999997E+02  0.45594000000E+02  0.51100000000E-03 0.  1.
         11   -1    0    0    0    0 -0.00000000000E+00 -0.00000000000E+00 -0.45593999997E+02  0.45594000000E+02  0.51100000000E-03 0. -1.
    9900012    2    1    2    0    0 -0.24827323348E-01  0.10391219339E+01 -0.55913507325E+00  0.90007736123E+02  0.89999997440E+02 0.  0.
        -12    1    1    2    0    0  0.24827323348E-01 -0.10391219339E+01  0.55913507325E+00  0.11802638771E+01  0.00000000000E+00 0.  1.
         11    1    3    3    0    0 -0.16286146670E+01 -0.93594451451E+01 -0.75636243761E+01  0.12143311456E+02  0.51100000000E-03 0. -1.
        -11    1    3    3    0    0  0.31536017517E+02 -0.35223271708E+00 -0.18967864599E+02  0.36802504758E+02  0.51100000000E-03 0.  1.
         12    1    3    3    0    0 -0.29932230174E+02  0.10750799796E+02  0.25972353902E+02  0.41061919909E+02  0.00000000000E+00 0. -1.
</event>
<event>
 7    1  0.2294706E-015  0.9000779E+02  0.7816164E-02  0.1186339E+00
        -11   -1    0    0    0    0  0.00000000000E+00  0.00000000000E+00  0.45593999997E+02  0.45594000000E+02  0.51100000000E-03 0. -1.
         11   -1    0    0    0    0 -0.00000000000E+00 -0.00000000000E+00 -0.45593999997E+02  0.45594000000E+02  0.51100000000E-03 0.  1.
    9900012    2    1    2    0    0 -0.88647290033E+00  0.73036417915E+00  0.27132864052E+00  0.90007794396E+02  0.90000056482E+02 0.  0.
        -12    1    1    2    0    0  0.88647290033E+00 -0.73036417915E+00 -0.27132864052E+00  0.11802056043E+01  0.00000000000E+00 0.  1.
         11    1    3    3    0    0 -0.68961176181E+01 -0.41931505369E+01  0.10742524854E+02  0.13436546808E+02  0.51100000000E-03 0. -1.
        -11    1    3    3    0    0 -0.30693147001E+02  0.55691592253E+01 -0.21912115904E+02  0.38121196610E+02  0.51100000000E-03 0.  1.
         12    1    3    3    0    0  0.36702791719E+02 -0.64564450931E+00  0.11440919690E+02  0.38450050977E+02  0.00000000000E+00 0. -1.
</event>
<event>
 7    1  0.2294706E-015  0.9000773E+02  0.7816164E-02  0.1186339E+00
        -11   -1    0    0    0    0  0.00000000000E+00  0.00000000000E+00  0.45593999997E+02  0.45594000000E+02  0.51100000000E-03 0.  1.
         11   -1    0    0    0    0 -0.00000000000E+00 -0.00000000000E+00 -0.45593999997E+02  0.45594000000E+02  0.51100000000E-03 0. -1.
    9900012    2    1    2    0    0 -0.10215654302E+01  0.87348937000E-01 -0.58465640008E+00  0.90007725087E+02  0.89999986258E+02 0.  0.
        -12    1    1    2    0    0  0.10215654302E+01 -0.87348937000E-01  0.58465640008E+00  0.11802749134E+01  0.00000000000E+00 0.  1.
         11    1    3    3    0    0 -0.28279593267E+02  0.23275620624E+02 -0.10488288747E+02  0.38098479128E+02  0.51100000000E-03 0. -1.
        -11    1    3    3    0    0 -0.51966459946E+01  0.48317570894E+01  0.51539685452E+01  0.87700854153E+01  0.51100000000E-03 0.  1.
        -12    1    3    3    0    0  0.32454673832E+02 -0.28020028776E+02  0.47496638014E+01  0.43139160543E+02  0.00000000000E+00 0.  1.
</event>
<event>
 7    1  0.2294706E-015  0.9000817E+02  0.7816164E-02  0.1186338E+00
        -11   -1    0    0    0    0  0.00000000000E+00  0.00000000000E+00  0.45593999997E+02  0.45594000000E+02  0.51100000000E-03 0.  1.
         11   -1    0    0    0    0 -0.00000000000E+00 -0.00000000000E+00 -0.45593999997E+02  0.45594000000E+02  0.51100000000E-03 0. -1.
    9900012    2    1    2    0    0  0.61890088220E+00 -0.43065660417E+00 -0.90747039111E+00  0.90008166993E+02  0.90000433997E+02 0.  0.
        -12    1    1    2    0    0 -0.61890088220E+00  0.43065660417E+00  0.90747039111E+00  0.11798330066E+01  0.00000000000E+00 0.  1.
         11    1    3    3    0    0  0.37897692394E+02 -0.15480461326E+02  0.11067610563E+02  0.42407213720E+02  0.51100000000E-03 0. -1.
        -11    1    3    3    0    0 -0.55083007928E+01  0.62918095708E+01  0.57813631833E+01  0.10166238528E+02  0.51100000000E-03 0.  1.
        -12    1    3    3    0    0 -0.31770490719E+02  0.87579951509E+01 -0.17756444137E+02  0.37434714745E+02  0.00000000000E+00 0.  1.
</event>
<event>
 7    1  0.2754335E-015  0.9000772E+02  0.7816164E-02  0.1186339E+00
        -11   -1    0    0    0    0  0.00000000000E+00  0.00000000000E+00  0.45593999997E+02  0.45594000000E+02  0.51100000000E-03 0.  1.
         11   -1    0    0    0    0 -0.00000000000E+00 -0.00000000000E+00 -0.45593999997E+02  0.45594000000E+02  0.51100000000E-03 0. -1.
    9900012    2    1    2    0    0  0.51995118495E+00  0.10193912099E+01  0.28907145388E+00  0.90007716145E+02  0.89999977198E+02 0.  0.
        -12    1    1    2    0    0 -0.51995118495E+00 -0.10193912099E+01 -0.28907145388E+00  0.11802838553E+01  0.00000000000E+00 0.  1.
         11    1    3    3    0    0  0.11451415544E+02  0.34483018333E+02  0.78277501849E+01  0.37168362145E+02  0.51100000000E-03 0. -1.
        -11    1    3    3    0    0  0.60563899052E+01  0.64607094788E+01 -0.21929909003E+01  0.91230386935E+01  0.51100000000E-03 0.  1.
        -12    1    3    3    0    0 -0.16987854264E+02 -0.39924336602E+02 -0.53456878307E+01  0.43716315306E+02  0.00000000000E+00 0.  1.
</event>
<event>
 7    1  0.2294706E-015  0.9000771E+02  0.7816164E-02  0.1186339E+00
        -11   -1    0    0    0    0  0.00000000000E+00  0.00000000000E+00  0.45593999997E+02  0.45594000000E+02  0.51100000000E-03 0.  1.
         11   -1    0    0    0    0 -0.00000000000E+00 -0.00000000000E+00 -0.45593999997E+02  0.45594000000E+02  0.51100000000E-03 0. -1.
    9900012    2    1    2    0    0 -0.11579620637E+01  0.15825150691E+00 -0.16483848054E+00  0.90007707068E+02  0.89999968001E+02 0.  0.
        -12    1    1    2    0    0  0.11579620637E+01 -0.15825150691E+00  0.16483848054E+00  0.11802929319E+01  0.00000000000E+00 0.  1.
         11    1    3    3    0    0 -0.10951963813E+02  0.36824345544E+02 -0.47672012378E+01  0.38713100419E+02  0.51100000000E-03 0. -1.
        -11    1    3    3    0    0  0.42780566966E+01  0.35983123451E+01 -0.70682211740E+01  0.90116242519E+01  0.51100000000E-03 0.  1.
        -12    1    3    3    0    0  0.55159450531E+01 -0.40264406382E+02  0.11670583931E+02  0.42282982398E+02  0.00000000000E+00 0.  1.
</event>
<event>
 7    1  0.2294706E-015  0.9000774E+02  0.7816164E-02  0.1186339E+00
        -11   -1    0    0    0    0  0.00000000000E+00  0.00000000000E+00  0.45593999997E+02  0.45594000000E+02  0.51100000000E-03 0. -1.
         11   -1    0    0    0    0 -0.00000000000E+00 -0.00000000000E+00 -0.45593999997E+02  0.45594000000E+02  0.51100000000E-03 0.  1.
    9900012    2    1    2    0    0  0.11043490704E+01 -0.23289645761E+00  0.34524165155E+00  0.90007737560E+02  0.89999998896E+02 0.  0.
        -12    1    1    2    0    0 -0.11043490704E+01  0.23289645761E+00 -0.34524165155E+00  0.11802624399E+01  0.00000000000E+00 0.  1.
         11    1    3    3    0    0 -0.61199467493E+01  0.79025996428E+01  0.24453041442E+01  0.10290011756E+02  0.51100000000E-03 0. -1.
        -11    1    3    3    0    0 -0.21922653096E+02 -0.18870627848E+01 -0.31121507675E+02  0.38114458739E+02  0.51100000000E-03 0.  1.
         12    1    3    3    0    0  0.29146948916E+02 -0.62484333155E+01  0.29021445182E+02  0.41603267065E+02  0.00000000000E+00 0. -1.
</event>
<event>
 7    1  0.2294706E-015  0.9000762E+02  0.7816164E-02  0.1186339E+00
        -11   -1    0    0    0    0  0.00000000000E+00  0.00000000000E+00  0.45593999997E+02  0.45594000000E+02  0.51100000000E-03 0.  1.
         11   -1    0    0    0    0 -0.00000000000E+00 -0.00000000000E+00 -0.45593999997E+02  0.45594000000E+02  0.51100000000E-03 0. -1.
    9900012    2    1    2    0    0  0.94633761648E+00  0.61374371640E+00  0.34793859470E+00  0.90007619765E+02  0.89999879546E+02 0.  0.
        -12    1    1    2    0    0 -0.94633761648E+00 -0.61374371640E+00 -0.34793859470E+00  0.11803802351E+01  0.00000000000E+00 0.  1.
         11    1    3    3    0    0  0.71040137594E+01  0.18732142118E+02 -0.30724346626E+02  0.36678953580E+02  0.51100000000E-03 0. -1.
        -11    1    3    3    0    0 -0.77233636003E+00  0.82298790173E+01 -0.39588726510E+01  0.91651560282E+01  0.51100000000E-03 0.  1.
        -12    1    3    3    0    0 -0.53853397829E+01 -0.26348277419E+02  0.35031157872E+02  0.44163510157E+02  0.00000000000E+00 0.  1.
</event>
<event>
 7    1  0.2294706E-015  0.9000766E+02  0.7816164E-02  0.1186339E+00
        -11   -1    0    0    0    0  0.00000000000E+00  0.00000000000E+00  0.45593999997E+02  0.45594000000E+02  0.51100000000E-03 0.  1.
         11   -1    0    0    0    0 -0.00000000000E+00 -0.00000000000E+00 -0.45593999997E+02  0.45594000000E+02  0.51100000000E-03 0. -1.
    9900012    2    1    2    0    0 -0.61385721555E+00 -0.47209381571E+00 -0.89079603759E+00  0.90007656477E+02  0.89999916742E+02 0.  0.
        -12    1    1    2    0    0  0.61385721555E+00  0.47209381571E+00  0.89079603759E+00  0.11803435231E+01  0.00000000000E+00 0.  1.
         11    1    3    3    0    0  0.16085144409E+02 -0.18661580205E+02 -0.31717210423E+02  0.40161771421E+02  0.51100000000E-03 0. -1.
        -11    1    3    3    0    0  0.79161984284E+01  0.69055365464E-01  0.28617620399E+01  0.84178767178E+01  0.51100000000E-03 0.  1.
        -12    1    3    3    0    0 -0.24615200053E+02  0.18120431023E+02  0.27964652345E+02  0.41428008339E+02  0.00000000000E+00 0.  1.
</event>
<event>
 7    1  0.2294706E-015  0.9000770E+02  0.7816164E-02  0.1186339E+00
        -11   -1    0    0    0    0  0.00000000000E+00  0.00000000000E+00  0.45593999997E+02  0.45594000000E+02  0.51100000000E-03 0. -1.
         11   -1    0    0    0    0 -0.00000000000E+00 -0.00000000000E+00 -0.45593999997E+02  0.45594000000E+02  0.51100000000E-03 0.  1.
    9900012    2    1    2    0    0 -0.50115791383E+00 -0.15946760048E+00  0.10566490717E+01  0.90007704939E+02  0.89999965844E+02 0.  0.
        -12    1    1    2    0    0  0.50115791383E+00  0.15946760048E+00 -0.10566490717E+01  0.11802950609E+01  0.00000000000E+00 0.  1.
         11    1    3    3    0    0 -0.60031861757E+01 -0.53872666474E+01  0.54366873271E+01  0.97272018353E+01  0.51100000000E-03 0. -1.
        -11    1    3    3    0    0  0.32222040889E+01 -0.13706377936E+02 -0.38609582223E+02  0.41096803221E+02  0.51100000000E-03 0.  1.
         12    1    3    3    0    0  0.22798241730E+01  0.18934176983E+02  0.34229543968E+02  0.39183699883E+02  0.00000000000E+00 0. -1.
</event>
<event>
 7    1  0.2294706E-015  0.9000770E+02  0.7816164E-02  0.1186339E+00
        -11   -1    0    0    0    0  0.00000000000E+00  0.00000000000E+00  0.45593999997E+02  0.45594000000E+02  0.51100000000E-03 0.  1.
         11   -1    0    0    0    0 -0.00000000000E+00 -0.00000000000E+00 -0.45593999997E+02  0.45594000000E+02  0.51100000000E-03 0. -1.
    9900012    2    1    2    0    0 -0.65870393498E+00  0.97870904089E+00  0.36840839522E-01  0.90007695163E+02  0.89999955939E+02 0.  0.
        -12    1    1    2    0    0  0.65870393498E+00 -0.97870904089E+00 -0.36840839522E-01  0.11803048370E+01  0.00000000000E+00 0.  1.
         11    1    3    3    0    0  0.59095941511E+01 -0.92940591808E-01 -0.57144540024E+01  0.82211267958E+01  0.51100000000E-03 0. -1.
        -11    1    3    3    0    0  0.28259716653E+01 -0.15306687965E+02  0.39865113583E+02  0.42796122413E+02  0.51100000000E-03 0.  1.
         12    1    3    3    0    0 -0.93942697514E+01  0.16378337598E+02 -0.34113818741E+02  0.38990445955E+02  0.00000000000E+00 0. -1.
</event>
<event>
 7    1  0.2294706E-015  0.9000777E+02  0.7816164E-02  0.1186339E+00
        -11   -1    0    0    0    0  0.00000000000E+00  0.00000000000E+00  0.45593999997E+02  0.45594000000E+02  0.51100000000E-03 0. -1.
         11   -1    0    0    0    0 -0.00000000000E+00 -0.00000000000E+00 -0.45593999997E+02  0.45594000000E+02  0.51100000000E-03 0.  1.
    9900012    2    1    2    0    0 -0.78383935556E+00  0.33373255812E+00  0.81679752113E+00  0.90007771316E+02  0.90000033098E+02 0.  0.
        -12    1    1    2    0    0  0.78383935556E+00 -0.33373255812E+00 -0.81679752113E+00  0.11802286839E+01  0.00000000000E+00 0.  1.
         11    1    3    3    0    0  0.68878367515E+00 -0.83536272570E+01 -0.32311420837E+01  0.89831949064E+01  0.51100000000E-03 0. -1.
        -11    1    3    3    0    0 -0.34933256810E+02 -0.16747697984E+02 -0.54278038520E+00  0.38744192209E+02  0.51100000000E-03 0.  1.
         12    1    3    3    0    0  0.33460633779E+02  0.25435057799E+02  0.45907199900E+01  0.42280384201E+02  0.00000000000E+00 0. -1.
</event>
<event>
 7    1  0.2294706E-015  0.9000768E+02  0.7816164E-02  0.1186339E+00
        -11   -1    0    0    0    0  0.00000000000E+00  0.00000000000E+00  0.45593999997E+02  0.45594000000E+02  0.51100000000E-03 0.  1.
         11   -1    0    0    0    0 -0.00000000000E+00 -0.00000000000E+00 -0.45593999997E+02  0.45594000000E+02  0.51100000000E-03 0. -1.
    9900012    2    1    2    0    0 -0.39491154205E+00  0.63585071319E+00 -0.91263645037E+00  0.90007675237E+02  0.89999935750E+02 0.  0.
        -12    1    1    2    0    0  0.39491154205E+00 -0.63585071319E+00  0.91263645037E+00  0.11803247630E+01  0.00000000000E+00 0.  1.
         11    1    3    3    0    0  0.15051549581E+00 -0.17400875318E+02 -0.33973105307E+02  0.38170472897E+02  0.51100000000E-03 0. -1.
        -11    1    3    3    0    0  0.46515034271E+01  0.17355222213E+01 -0.68233469275E+01  0.84383994375E+01  0.51100000000E-03 0.  1.
        -12    1    3    3    0    0 -0.51969304649E+01  0.16301203809E+02  0.39883815784E+02  0.43398802903E+02  0.00000000000E+00 0.  1.
</event>
<event>
 7    1  0.2294706E-015  0.9000767E+02  0.7816164E-02  0.1186339E+00
        -11   -1    0    0    0    0  0.00000000000E+00  0.00000000000E+00  0.45593999997E+02  0.45594000000E+02  0.51100000000E-03 0.  1.
         11   -1    0    0    0    0 -0.00000000000E+00 -0.00000000000E+00 -0.45593999997E+02  0.45594000000E+02  0.51100000000E-03 0. -1.
    9900012    2    1    2    0    0 -0.64942031210E-01 -0.43161867127E+00 -0.10966619663E+01  0.90007669702E+02  0.89999930142E+02 0.  0.
        -12    1    1    2    0    0  0.64942031210E-01  0.43161867127E+00  0.10966619663E+01  0.11803302983E+01  0.00000000000E+00 0.  1.
         11    1    3    3    0    0 -0.81458292505E+01  0.60777173913E+01 -0.16972694518E+00  0.10164742513E+02  0.51100000000E-03 0. -1.
        -11    1    3    3    0    0 -0.18396944341E+01 -0.27451330621E+02  0.30319265652E+02  0.40941640153E+02  0.51100000000E-03 0.  1.
         12    1    3    3    0    0  0.99205816534E+01  0.20941994559E+02 -0.31246200673E+02  0.38901287035E+02  0.00000000000E+00 0. -1.
</event>
<event>
 7    1  0.2294706E-015  0.9000774E+02  0.7816164E-02  0.1186339E+00
        -11   -1    0    0    0    0  0.00000000000E+00  0.00000000000E+00  0.45593999997E+02  0.45594000000E+02  0.51100000000E-03 0. -1.
         11   -1    0    0    0    0 -0.00000000000E+00 -0.00000000000E+00 -0.45593999997E+02  0.45594000000E+02  0.51100000000E-03 0.  1.
    9900012    2    1    2    0    0  0.98723022759E+00 -0.54460955886E+00 -0.34899809093E+00  0.90007736148E+02  0.89999997465E+02 0.  0.
        -12    1    1    2    0    0 -0.98723022759E+00  0.54460955886E+00  0.34899809093E+00  0.11802638524E+01  0.00000000000E+00 0.  1.
         11    1    3    3    0    0 -0.12808842411E+02  0.58346603513E+01  0.35437319283E+02  0.38130215100E+02  0.51100000000E-03 0. -1.
        -11    1    3    3    0    0 -0.39446600351E+01  0.10003556210E+02 -0.30107674085E+01  0.11166745287E+02  0.51100000000E-03 0.  1.
        -12    1    3    3    0    0  0.17740732674E+02 -0.16382826121E+02 -0.32775549966E+02  0.40710775761E+02  0.00000000000E+00 0.  1.
</event>
<event>
 7    1  0.2294706E-015  0.9000804E+02  0.7816164E-02  0.1186338E+00
        -11   -1    0    0    0    0  0.00000000000E+00  0.00000000000E+00  0.45593999997E+02  0.45594000000E+02  0.51100000000E-03 0. -1.
         11   -1    0    0    0    0 -0.00000000000E+00 -0.00000000000E+00 -0.45593999997E+02  0.45594000000E+02  0.51100000000E-03 0.  1.
    9900012    2    1    2    0    0 -0.93122468098E+00 -0.72090962792E+00  0.73524977801E-01  0.90008044060E+02  0.90000309441E+02 0.  0.
        -12    1    1    2    0    0  0.93122468098E+00  0.72090962792E+00 -0.73524977801E-01  0.11799559400E+01  0.00000000000E+00 0.  1.
         11    1    3    3    0    0 -0.13461886650E+02 -0.29338106137E+01  0.33829014997E+02  0.36527139127E+02  0.51100000000E-03 0. -1.
        -11    1    3    3    0    0 -0.39051948306E+01 -0.82533522554E+01  0.47748372582E+01  0.10303758597E+02  0.51100000000E-03 0.  1.
        -12    1    3    3    0    0  0.16435856799E+02  0.10466253241E+02 -0.38530327277E+02  0.43177146336E+02  0.00000000000E+00 0.  1.
</event>
<event>
 7    1  0.2294706E-015  0.9000765E+02  0.7816164E-02  0.1186339E+00
        -11   -1    0    0    0    0  0.00000000000E+00  0.00000000000E+00  0.45593999997E+02  0.45594000000E+02  0.51100000000E-03 0.  1.
         11   -1    0    0    0    0 -0.00000000000E+00 -0.00000000000E+00 -0.45593999997E+02  0.45594000000E+02  0.51100000000E-03 0. -1.
    9900012    2    1    2    0    0 -0.59250277303E+00  0.41205093610E+00 -0.93400810501E+00  0.90007654012E+02  0.89999914245E+02 0.  0.
        -12    1    1    2    0    0  0.59250277303E+00 -0.41205093610E+00  0.93400810501E+00  0.11803459875E+01  0.00000000000E+00 0.  1.
         11    1    3    3    0    0  0.85976344811E+01  0.34251370187E+02 -0.87243660422E+01  0.36375682006E+02  0.51100000000E-03 0. -1.
        -11    1    3    3    0    0  0.74227211528E+01  0.55070127705E+01 -0.27459702776E+01  0.96418012836E+01  0.51100000000E-03 0.  1.
        -12    1    3    3    0    0 -0.16612858407E+02 -0.39346332021E+02  0.10536328215E+02  0.43990170723E+02  0.00000000000E+00 0.  1.
</event>
<event>
 7    1  0.2294706E-015  0.9000770E+02  0.7816164E-02  0.1186339E+00
        -11   -1    0    0    0    0  0.00000000000E+00  0.00000000000E+00  0.45593999997E+02  0.45594000000E+02  0.51100000000E-03 0. -1.
         11   -1    0    0    0    0 -0.00000000000E+00 -0.00000000000E+00 -0.45593999997E+02  0.45594000000E+02  0.51100000000E-03 0.  1.
    9900012    2    1    2    0    0  0.69001410553E+00 -0.68680418022E+00  0.66730606041E+00  0.90007696299E+02  0.89999957090E+02 0.  0.
        -12    1    1    2    0    0 -0.69001410553E+00  0.68680418022E+00 -0.66730606041E+00  0.11803037008E+01  0.00000000000E+00 0.  1.
         11    1    3    3    0    0 -0.59225223304E+00  0.15861202299E+01 -0.10525773331E+02  0.10661071455E+02  0.51100000000E-03 0. -1.
        -11    1    3    3    0    0 -0.20992147253E+02 -0.19668765793E+02 -0.21660120787E+02  0.36009601870E+02  0.51100000000E-03 0.  1.
         12    1    3    3    0    0  0.22274413592E+02  0.17395841382E+02  0.32853200178E+02  0.43337022974E+02  0.00000000000E+00 0. -1.
</event>
<event>
 7    1  0.2294706E-015  0.9000787E+02  0.7816164E-02  0.1186339E+00
        -11   -1    0    0    0    0  0.00000000000E+00  0.00000000000E+00  0.45593999997E+02  0.45594000000E+02  0.51100000000E-03 0.  1.
         11   -1    0    0    0    0 -0.00000000000E+00 -0.00000000000E+00 -0.45593999997E+02  0.45594000000E+02  0.51100000000E-03 0. -1.
    9900012    2    1    2    0    0 -0.12883787913E+00  0.11300544434E+01 -0.31476470047E+00  0.90007873286E+02  0.90000136413E+02 0.  0.
        -12    1    1    2    0    0  0.12883787913E+00 -0.11300544434E+01  0.31476470047E+00  0.11801267139E+01  0.00000000000E+00 0.  1.
         11    1    3    3    0    0 -0.93469984012E+01  0.19944837870E+01  0.96337518692E-01  0.95579090740E+01  0.51100000000E-03 0. -1.
        -11    1    3    3    0    0 -0.34438110587E+01  0.38688265004E+02 -0.19648910760E+01  0.38890904860E+02  0.51100000000E-03 0.  1.
         12    1    3    3    0    0  0.12661971581E+02 -0.39552694347E+02  0.15537888568E+01  0.41559059352E+02  0.00000000000E+00 0. -1.
</event>
<event>
 7    1  0.2294706E-015  0.9000772E+02  0.7816164E-02  0.1186339E+00
        -11   -1    0    0    0    0  0.00000000000E+00  0.00000000000E+00  0.45593999997E+02  0.45594000000E+02  0.51100000000E-03 0.  1.
         11   -1    0    0    0    0 -0.00000000000E+00 -0.00000000000E+00 -0.45593999997E+02  0.45594000000E+02  0.51100000000E-03 0. -1.
    9900012    2    1    2    0    0  0.41786756102E+00 -0.11016971116E+01 -0.68708659864E-01  0.90007715837E+02  0.89999976887E+02 0.  0.
        -12    1    1    2    0    0 -0.41786756102E+00  0.11016971116E+01  0.68708659864E-01  0.11802841625E+01  0.00000000000E+00 0.  1.
         11    1    3    3    0    0  0.21396422816E+01 -0.68912563326E+01 -0.53708073699E+01  0.89951684254E+01  0.51100000000E-03 0. -1.
        -11    1    3    3    0    0  0.92701928367E+01 -0.13232263679E+02  0.38187039102E+02  0.41464192177E+02  0.51100000000E-03 0.  1.
         12    1    3    3    0    0 -0.10991967557E+02  0.19021822900E+02 -0.32884940392E+02  0.39548355235E+02  0.00000000000E+00 0. -1.
</event>
<event>
 7    1  0.2294706E-015  0.9000793E+02  0.7816164E-02  0.1186339E+00
        -11   -1    0    0    0    0  0.00000000000E+00  0.00000000000E+00  0.45593999997E+02  0.45594000000E+02  0.51100000000E-03 0. -1.
         11   -1    0    0    0    0 -0.00000000000E+00 -0.00000000000E+00 -0.45593999997E+02  0.45594000000E+02  0.51100000000E-03 0.  1.
    9900012    2    1    2    0    0 -0.65913101455E+00 -0.62716422227E+00  0.75152116818E+00  0.90007926815E+02  0.90000190649E+02 0.  0.
        -12    1    1    2    0    0  0.65913101455E+00  0.62716422227E+00 -0.75152116818E+00  0.11800731851E+01  0.00000000000E+00 0.  1.
         11    1    3    3    0    0 -0.17957475824E+02  0.36509401114E+02  0.17100613463E+01  0.40722618012E+02  0.51100000000E-03 0. -1.
        -11    1    3    3    0    0 -0.13895147809E+01 -0.28284558581E+01  0.85201063960E+01  0.90842240796E+01  0.51100000000E-03 0.  1.
        -12    1    3    3    0    0  0.18687859590E+02 -0.34308109479E+02 -0.94786465742E+01  0.40201084723E+02  0.00000000000E+00 0.  1.
</event>
<event>
 7    1  0.2294706E-015  0.9000772E+02  0.7816164E-02  0.1186339E+00
        -11   -1    0    0    0    0  0.00000000000E+00  0.00000000000E+00  0.45593999997E+02  0.45594000000E+02  0.51100000000E-03 0. -1.
         11   -1    0    0    0    0 -0.00000000000E+00 -0.00000000000E+00 -0.45593999997E+02  0.45594000000E+02  0.51100000000E-03 0.  1.
    9900012    2    1    2    0    0  0.40393027833E+00  0.10855139292E+01  0.22706988318E+00  0.90007719994E+02  0.89999981098E+02 0.  0.
        -12    1    1    2    0    0 -0.40393027833E+00 -0.10855139292E+01 -0.22706988318E+00  0.11802800058E+01  0.00000000000E+00 0.  1.
         11    1    3    3    0    0 -0.57576238368E+01  0.71830177155E+01 -0.14796546282E+01  0.93239130105E+01  0.51100000000E-03 0. -1.
        -11    1    3    3    0    0  0.20659842493E+02 -0.27817902828E+02 -0.25461723890E+02  0.42999583641E+02  0.51100000000E-03 0.  1.
         12    1    3    3    0    0 -0.14498288377E+02  0.21720399041E+02  0.27168448402E+02  0.37684223343E+02  0.00000000000E+00 0. -1.
</event>
<event>
 7    1  0.2294706E-015  0.9000775E+02  0.7816164E-02  0.1186339E+00
        -11   -1    0    0    0    0  0.00000000000E+00  0.00000000000E+00  0.45593999997E+02  0.45594000000E+02  0.51100000000E-03 0.  1.
         11   -1    0    0    0    0 -0.00000000000E+00 -0.00000000000E+00 -0.45593999997E+02  0.45594000000E+02  0.51100000000E-03 0. -1.
    9900012    2    1    2    0    0  0.10586449765E+00  0.87142217514E+00 -0.78892333981E+00  0.90007752596E+02  0.90000014130E+02 0.  0.
        -12    1    1    2    0    0 -0.10586449765E+00 -0.87142217514E+00  0.78892333981E+00  0.11802474043E+01  0.00000000000E+00 0.  1.
         11    1    3    3    0    0  0.24310617310E+02 -0.31550142069E+02 -0.16897195162E+02  0.43265838524E+02  0.51100000000E-03 0. -1.
        -11    1    3    3    0    0 -0.24400623234E+01  0.30686354657E+01  0.85792974209E+01  0.94326439698E+01  0.51100000000E-03 0.  1.
        -12    1    3    3    0    0 -0.21764690489E+02  0.29352928779E+02  0.75289744011E+01  0.37309270102E+02  0.00000000000E+00 0.  1.
</event>
<event>
 7    1  0.2294706E-015  0.9000776E+02  0.7816164E-02  0.1186339E+00
        -11   -1    0    0    0    0  0.00000000000E+00  0.00000000000E+00  0.45593999997E+02  0.45594000000E+02  0.51100000000E-03 0. -1.
         11   -1    0    0    0    0 -0.00000000000E+00 -0.00000000000E+00 -0.45593999997E+02  0.45594000000E+02  0.51100000000E-03 0.  1.
    9900012    2    1    2    0    0  0.10914290607E+01  0.32574412156E+00  0.30924887009E+00  0.90007762104E+02  0.90000023764E+02 0.  0.
        -12    1    1    2    0    0 -0.10914290607E+01 -0.32574412156E+00 -0.30924887009E+00  0.11802378959E+01  0.00000000000E+00 0.  1.
         11    1    3    3    0    0  0.56885770754E+01  0.24310522629E+01 -0.73515918596E+01  0.96081125815E+01  0.51100000000E-03 0. -1.
        -11    1    3    3    0    0 -0.10364348505E+02  0.11010471332E+02 -0.33533304172E+02  0.36784951921E+02  0.51100000000E-03 0.  1.
         12    1    3    3    0    0  0.57672004907E+01 -0.13115779473E+02  0.41194144902E+02  0.43614697601E+02  0.00000000000E+00 0. -1.
</event>
<event>
 7    1  0.2294706E-015  0.9000794E+02  0.7816164E-02  0.1186339E+00
        -11   -1    0    0    0    0  0.00000000000E+00  0.00000000000E+00  0.45593999997E+02  0.45594000000E+02  0.51100000000E-03 0. -1.
         11   -1    0    0    0    0 -0.00000000000E+00 -0.00000000000E+00 -0.45593999997E+02  0.45594000000E+02  0.51100000000E-03 0.  1.
    9900012    2    1    2    0    0 -0.23983142207E+00  0.63096672915E+00  0.96794333740E+00  0.90007935413E+02  0.90000199361E+02 0.  0.
        -12    1    1    2    0    0  0.23983142207E+00 -0.63096672915E+00 -0.96794333740E+00  0.11800645867E+01  0.00000000000E+00 0.  1.
         11    1    3    3    0    0 -0.46297105050E+01  0.27215502768E+01  0.35890112182E+02  0.36289684594E+02  0.51100000000E-03 0. -1.
        -11    1    3    3    0    0  0.48079142401E+01 -0.66861988755E+01  0.74442453352E+01  0.11101264956E+02  0.51100000000E-03 0.  1.
        -12    1    3    3    0    0 -0.41803515710E+00  0.45956153278E+01 -0.42366414180E+02  0.42616985863E+02  0.00000000000E+00 0.  1.
</event>
<event>
 7    1  0.2294706E-015  0.9000773E+02  0.7816164E-02  0.1186339E+00
        -11   -1    0    0    0    0  0.00000000000E+00  0.00000000000E+00  0.45593999997E+02  0.45594000000E+02  0.51100000000E-03 0.  1.
         11   -1    0    0    0    0 -0.00000000000E+00 -0.00000000000E+00 -0.45593999997E+02  0.45594000000E+02  0.51100000000E-03 0. -1.
    9900012    2    1    2    0    0  0.94330470802E+00  0.58788479743E+00 -0.39699209973E+00  0.90007730948E+02  0.89999992197E+02 0.  0.
        -12    1    1    2    0    0 -0.94330470802E+00 -0.58788479743E+00  0.39699209973E+00  0.11802690517E+01  0.00000000000E+00 0.  1.
         11    1    3    3    0    0  0.39240128659E+02  0.86025352874E+01  0.14339552211E+02  0.42654590239E+02  0.51100000000E-03 0. -1.
        -11    1    3    3    0    0 -0.34625110237E+01 -0.14338993291E+01  0.54074499428E+01  0.65791766217E+01  0.51100000000E-03 0.  1.
        -12    1    3    3    0    0 -0.34834312927E+02 -0.65807511609E+01 -0.20143994253E+02  0.40773964088E+02  0.00000000000E+00 0.  1.
</event>
<event>
 7    1  0.2593756E-015  0.9000780E+02  0.7816164E-02  0.1186339E+00
        -11   -1    0    0    0    0  0.00000000000E+00  0.00000000000E+00  0.45593999997E+02  0.45594000000E+02  0.51100000000E-03 0. -1.
         11   -1    0    0    0    0 -0.00000000000E+00 -0.00000000000E+00 -0.45593999997E+02  0.45594000000E+02  0.51100000000E-03 0.  1.
    9900012    2    1    2    0    0  0.96562221356E+00  0.25798218323E+00  0.62760413019E+00  0.90007801707E+02  0.90000063890E+02 0.  0.
        -12    1    1    2    0    0 -0.96562221356E+00 -0.25798218323E+00 -0.62760413019E+00  0.11801982928E+01  0.00000000000E+00 0.  1.
         11    1    3    3    0    0 -0.16489403472E+02 -0.25561276419E+02  0.20165217770E+02  0.36495414603E+02  0.51100000000E-03 0. -1.
        -11    1    3    3    0    0 -0.47039759575E+00  0.10007711062E+00  0.10253833134E+02  0.10265105139E+02  0.51100000000E-03 0.  1.
        -12    1    3    3    0    0  0.17925423282E+02  0.25719181492E+02 -0.29791446774E+02  0.43247281965E+02  0.00000000000E+00 0.  1.
</event>
<event>
 7    1  0.2294706E-015  0.9000772E+02  0.7816164E-02  0.1186339E+00
        -11   -1    0    0    0    0  0.00000000000E+00  0.00000000000E+00  0.45593999997E+02  0.45594000000E+02  0.51100000000E-03 0.  1.
         11   -1    0    0    0    0 -0.00000000000E+00 -0.00000000000E+00 -0.45593999997E+02  0.45594000000E+02  0.51100000000E-03 0. -1.
    9900012    2    1    2    0    0 -0.83346636440E+00  0.64723829643E+00 -0.52866635392E+00  0.90007715413E+02  0.89999976456E+02 0.  0.
        -12    1    1    2    0    0  0.83346636440E+00 -0.64723829643E+00  0.52866635392E+00  0.11802845872E+01  0.00000000000E+00 0.  1.
         11    1    3    3    0    0  0.55613429407E+01  0.12671115767E+02 -0.30964992251E+02  0.33916315476E+02  0.51100000000E-03 0. -1.
        -11    1    3    3    0    0 -0.11323498011E+02  0.39443489400E+01 -0.78397034013E+01  0.14326215322E+02  0.51100000000E-03 0.  1.
        -12    1    3    3    0    0  0.49286887057E+01 -0.15968226410E+02  0.38276029299E+02  0.41765184615E+02  0.00000000000E+00 0.  1.
</event>
<event>
 7    1  0.2294706E-015  0.9000774E+02  0.7816164E-02  0.1186339E+00
        -11   -1    0    0    0    0  0.00000000000E+00  0.00000000000E+00  0.45593999997E+02  0.45594000000E+02  0.51100000000E-03 0. -1.
         11   -1    0    0    0    0 -0.00000000000E+00 -0.00000000000E+00 -0.45593999997E+02  0.45594000000E+02  0.51100000000E-03 0.  1.
    9900012    2    1    2    0    0  0.41951228762E+00  0.98180091217E+00 -0.50307660545E+00  0.90007741697E+02  0.90000003088E+02 0.  0.
        -12    1    1    2    0    0 -0.41951228762E+00 -0.98180091217E+00  0.50307660545E+00  0.11802583029E+01  0.00000000000E+00 0.  1.
         11    1    3    3    0    0 -0.28357720672E+01 -0.56430726943E+01 -0.82311772691E+01  0.10374880826E+02  0.51100000000E-03 0. -1.
        -11    1    3    3    0    0  0.39571217243E+02  0.30832193569E+01 -0.69646082177E+01  0.40297558780E+02  0.51100000000E-03 0.  1.
         12    1    3    3    0    0 -0.36315932888E+02  0.35416542497E+01  0.14692708881E+02  0.39335302092E+02  0.00000000000E+00 0. -1.
</event>
<event>
 7    1  0.2294706E-015  0.9000786E+02  0.7816164E-02  0.1186339E+00
        -11   -1    0    0    0    0  0.00000000000E+00  0.00000000000E+00  0.45593999997E+02  0.45594000000E+02  0.51100000000E-03 0. -1.
         11   -1    0    0    0    0 -0.00000000000E+00 -0.00000000000E+00 -0.45593999997E+02  0.45594000000E+02  0.51100000000E-03 0.  1.
    9900012    2    1    2    0    0  0.39070132090E+00  0.77034625851E+00  0.80415185103E+00  0.90007855484E+02  0.90000118376E+02 0.  0.
        -12    1    1    2    0    0 -0.39070132090E+00 -0.77034625851E+00 -0.80415185103E+00  0.11801445164E+01  0.00000000000E+00 0.  1.
         11    1    3    3    0    0 -0.31211972789E+01 -0.33556971662E+02  0.16355434809E+02  0.37460812426E+02  0.51100000000E-03 0. -1.
        -11    1    3    3    0    0  0.72341647377E+01 -0.46571312677E+01  0.31331822542E+01  0.91563553009E+01  0.51100000000E-03 0.  1.
        -12    1    3    3    0    0 -0.37222661379E+01  0.38984449188E+02 -0.18684465212E+02  0.43390687756E+02  0.00000000000E+00 0.  1.
</event>
<event>
 7    1  0.2294706E-015  0.9000787E+02  0.7816164E-02  0.1186339E+00
        -11   -1    0    0    0    0  0.00000000000E+00  0.00000000000E+00  0.45593999997E+02  0.45594000000E+02  0.51100000000E-03 0.  1.
         11   -1    0    0    0    0 -0.00000000000E+00 -0.00000000000E+00 -0.45593999997E+02  0.45594000000E+02  0.51100000000E-03 0. -1.
    9900012    2    1    2    0    0 -0.70588053477E+00  0.14749318283E+00 -0.93418018067E+00  0.90007866881E+02  0.90000129924E+02 0.  0.
        -12    1    1    2    0    0  0.70588053477E+00 -0.14749318283E+00  0.93418018067E+00  0.11801331189E+01  0.00000000000E+00 0.  1.
         11    1    3    3    0    0 -0.77326383802E+01 -0.99755804949E+00 -0.69207342321E+01  0.10425228101E+02  0.51100000000E-03 0. -1.
        -11    1    3    3    0    0 -0.78417018287E+01 -0.23938146877E+02  0.31849329289E+02  0.40606735154E+02  0.51100000000E-03 0.  1.
         12    1    3    3    0    0  0.14868459674E+02  0.25083198109E+02 -0.25862775237E+02  0.38975903626E+02  0.00000000000E+00 0. -1.
</event>
<event>
 7    1  0.2294706E-015  0.9000775E+02  0.7816164E-02  0.1186339E+00
        -11   -1    0    0    0    0  0.00000000000E+00  0.00000000000E+00  0.45593999997E+02  0.45594000000E+02  0.51100000000E-03 0. -1.
         11   -1    0    0    0    0 -0.00000000000E+00 -0.00000000000E+00 -0.45593999997E+02  0.45594000000E+02  0.51100000000E-03 0.  1.
    9900012    2    1    2    0    0 -0.65992073289E+00  0.69876892573E+00 -0.68500132460E+00  0.90007745705E+02  0.90000007149E+02 0.  0.
        -12    1    1    2    0    0  0.65992073289E+00 -0.69876892573E+00  0.68500132460E+00  0.11802542946E+01  0.00000000000E+00 0.  1.
         11    1    3    3    0    0  0.59872563009E+01  0.74008086158E+01 -0.25315130083E-01  0.95194457452E+01  0.51100000000E-03 0. -1.
        -11    1    3    3    0    0 -0.73061141774E+01  0.36523055846E+02 -0.89975389958E+00  0.37257515619E+02  0.51100000000E-03 0.  1.
         12    1    3    3    0    0  0.65893714360E+00 -0.43225095536E+02  0.24006770506E+00  0.43230784342E+02  0.00000000000E+00 0. -1.
</event>
<event>
 7    1  0.2294706E-015  0.9000789E+02  0.7816164E-02  0.1186339E+00
        -11   -1    0    0    0    0  0.00000000000E+00  0.00000000000E+00  0.45593999997E+02  0.45594000000E+02  0.51100000000E-03 0.  1.
         11   -1    0    0    0    0 -0.00000000000E+00 -0.00000000000E+00 -0.45593999997E+02  0.45594000000E+02  0.51100000000E-03 0. -1.
    9900012    2    1    2    0    0 -0.11397596940E+01  0.29692771237E+00 -0.73763572862E-01  0.90007890136E+02  0.90000153486E+02 0.  0.
        -12    1    1    2    0    0  0.11397596940E+01 -0.29692771237E+00  0.73763572862E-01  0.11801098640E+01  0.00000000000E+00 0.  1.
         11    1    3    3    0    0 -0.11194898268E+01 -0.93271913328E+01 -0.52979399286E+00  0.94090614604E+01  0.51100000000E-03 0. -1.
        -11    1    3    3    0    0  0.20607033223E+02 -0.24648594879E+00  0.34144861015E+02  0.39882102597E+02  0.51100000000E-03 0.  1.
         12    1    3    3    0    0 -0.20627303090E+02  0.98706049939E+01 -0.33688830595E+02  0.40716726079E+02  0.00000000000E+00 0. -1.
</event>
<event>
 7    1  0.2294706E-015  0.9000777E+02  0.7816164E-02  0.1186339E+00
        -11   -1    0    0    0    0  0.00000000000E+00  0.00000000000E+00  0.45593999997E+02  0.45594000000E+02  0.51100000000E-03 0.  1.
         11   -1    0    0    0    0 -0.00000000000E+00 -0.00000000000E+00 -0.45593999997E+02  0.45594000000E+02  0.51100000000E-03 0. -1.
    9900012    2    1    2    0    0  0.11275567287E+01 -0.28906017494E+00  0.19493327531E+00  0.90007771656E+02  0.90000033442E+02 0.  0.
        -12    1    1    2    0    0 -0.11275567287E+01  0.28906017494E+00 -0.19493327531E+00  0.11802283436E+01  0.00000000000E+00 0.  1.
         11    1    3    3    0    0  0.46744412386E+01  0.91647701964E+01 -0.97622727631E+00  0.10334235995E+02  0.51100000000E-03 0. -1.
        -11    1    3    3    0    0 -0.43118913047E+01  0.21990654642E+02  0.29702188928E+02  0.37207543934E+02  0.51100000000E-03 0.  1.
         12    1    3    3    0    0  0.76500679484E+00 -0.31444485013E+02 -0.28531028377E+02  0.42465991727E+02  0.00000000000E+00 0. -1.
</event>
<event>
 7    1  0.2294706E-015  0.9000768E+02  0.7816164E-02  0.1186339E+00
        -11   -1    0    0    0    0  0.00000000000E+00  0.00000000000E+00  0.45593999997E+02  0.45594000000E+02  0.51100000000E-03 0. -1.
         11   -1    0    0    0    0 -0.00000000000E+00 -0.00000000000E+00 -0.45593999997E+02  0.45594000000E+02  0.51100000000E-03 0.  1.
    9900012    2    1    2    0    0 -0.10756419168E+01  0.32444945170E+00 -0.36177220916E+00  0.90007681352E+02  0.89999941946E+02 0.  0.
        -12    1    1    2    0    0  0.10756419168E+01 -0.32444945170E+00  0.36177220916E+00  0.11803186482E+01  0.00000000000E+00 0.  1.
         11    1    3    3    0    0  0.25361086922E+02 -0.25855032372E+00 -0.23453998956E+02  0.34544777397E+02  0.51100000000E-03 0. -1.
        -11    1    3    3    0    0  0.76447130070E+01 -0.74062021265E+01 -0.38194858247E+01  0.11308489692E+02  0.51100000000E-03 0.  1.
        -12    1    3    3    0    0 -0.34081441846E+02  0.79892019019E+01  0.26911712571E+02  0.44154414262E+02  0.00000000000E+00 0.  1.
</event>
<event>
 7    1  0.2294706E-015  0.9000765E+02  0.7816164E-02  0.1186339E+00
        -11   -1    0    0    0    0  0.00000000000E+00  0.00000000000E+00  0.45593999997E+02  0.45594000000E+02  0.51100000000E-03 0.  1.
         11   -1    0    0    0    0 -0.00000000000E+00 -0.00000000000E+00 -0.45593999997E+02  0.45594000000E+02  0.51100000000E-03 0. -1.
    9900012    2    1    2    0    0 -0.78407866793E+00 -0.74376975922E+00 -0.47461037843E+00  0.90007649279E+02  0.89999909450E+02 0.  0.
        -12    1    1    2    0    0  0.78407866793E+00  0.74376975922E+00  0.47461037843E+00  0.11803507206E+01  0.00000000000E+00 0.  1.
         11    1    3    3    0    0 -0.17932296662E+02  0.15039628223E+02 -0.76169424383E+01  0.24612506841E+02  0.51100000000E-03 0. -1.
        -11    1    3    3    0    0 -0.94846430445E+01  0.61397004201E+01  0.24351810226E+02  0.26845205092E+02  0.51100000000E-03 0.  1.
         12    1    3    3    0    0  0.26632861038E+02 -0.21923098402E+02 -0.17209478166E+02  0.38549937346E+02  0.00000000000E+00 0. -1.
</event>
<event>
 7    1  0.2294706E-015  0.9000793E+02  0.7816164E-02  0.1186339E+00
        -11   -1    0    0    0    0  0.00000000000E+00  0.00000000000E+00  0.45593999997E+02  0.45594000000E+02  0.51100000000E-03 0. -1.
         11   -1    0    0    0    0 -0.00000000000E+00 -0.00000000000E+00 -0.45593999997E+02  0.45594000000E+02  0.51100000000E-03 0.  1.
    9900012    2    1    2    0    0 -0.51193604828E+00 -0.86911549531E+00 -0.61246748215E+00  0.90007933613E+02  0.90000197536E+02 0.  0.
        -12    1    1    2    0    0  0.51193604828E+00  0.86911549531E+00  0.61246748215E+00  0.11800663873E+01  0.00000000000E+00 0.  1.
         11    1    3    3    0    0 -0.57822006884E+00 -0.70634248221E+01  0.11244492914E+02  0.13291536022E+02  0.51100000000E-03 0. -1.
        -11    1    3    3    0    0 -0.94322701013E+01 -0.28510300010E+02 -0.24315026648E+02  0.38639687461E+02  0.51100000000E-03 0.  1.
         12    1    3    3    0    0  0.94985541219E+01  0.34704609336E+02  0.12458066252E+02  0.38076710130E+02  0.00000000000E+00 0. -1.
</event>
<event>
 7    1  0.2294706E-015  0.9000775E+02  0.7816164E-02  0.1186339E+00
        -11   -1    0    0    0    0  0.00000000000E+00  0.00000000000E+00  0.45593999997E+02  0.45594000000E+02  0.51100000000E-03 0. -1.
         11   -1    0    0    0    0 -0.00000000000E+00 -0.00000000000E+00 -0.45593999997E+02  0.45594000000E+02  0.51100000000E-03 0.  1.
    9900012    2    1    2    0    0 -0.28445726472E+00 -0.11399829840E+01  0.11188725758E+00  0.90007747528E+02  0.90000008995E+02 0.  0.
        -12    1    1    2    0    0  0.28445726472E+00  0.11399829840E+01 -0.11188725758E+00  0.11802524720E+01  0.00000000000E+00 0.  1.
         11    1    3    3    0    0 -0.48729735336E+01  0.42382825920E+01 -0.11910723628E+01  0.65671579868E+01  0.51100000000E-03 0. -1.
        -11    1    3    3    0    0 -0.19881977905E+02 -0.32712105125E+02  0.18968209340E+02  0.42721983017E+02  0.51100000000E-03 0.  1.
         12    1    3    3    0    0  0.24470494174E+02  0.27333839548E+02 -0.17665249720E+02  0.40718606524E+02  0.00000000000E+00 0. -1.
</event>
<event>
 7    1  0.2294706E-015  0.9000674E+02  0.7816164E-02  0.1186341E+00
        -11   -1    0    0    0    0  0.00000000000E+00  0.00000000000E+00  0.45593999997E+02  0.45594000000E+02  0.51100000000E-03 0.  1.
         11   -1    0    0    0    0 -0.00000000000E+00 -0.00000000000E+00 -0.45593999997E+02  0.45594000000E+02  0.51100000000E-03 0. -1.
    9900012    2    1    2    0    0  0.86418713671E+00 -0.79691058621E+00 -0.11615939134E+00  0.90006738431E+02  0.89998986573E+02 0.  0.
        -12    1    1    2    0    0 -0.86418713671E+00  0.79691058621E+00  0.11615939134E+00  0.11812615688E+01  0.00000000000E+00 0.  1.
         11    1    3    3    0    0 -0.28100830064E+01  0.35433183615E+02 -0.12590972769E+02  0.37708615237E+02  0.51100000000E-03 0. -1.
        -11    1    3    3    0    0 -0.56900598405E+01  0.36733008922E+01 -0.42872526803E+01  0.80156382303E+01  0.51100000000E-03 0.  1.
        -12    1    3    3    0    0  0.93643299837E+01 -0.39903395093E+02  0.16762066058E+02  0.44282484964E+02  0.00000000000E+00 0.  1.
</event>
<event>
 7    1  0.2294706E-015  0.9000774E+02  0.7816164E-02  0.1186339E+00
        -11   -1    0    0    0    0  0.00000000000E+00  0.00000000000E+00  0.45593999997E+02  0.45594000000E+02  0.51100000000E-03 0.  1.
         11   -1    0    0    0    0 -0.00000000000E+00 -0.00000000000E+00 -0.45593999997E+02  0.45594000000E+02  0.51100000000E-03 0. -1.
    9900012    2    1    2    0    0 -0.99137082028E+00  0.10760831093E+00 -0.63136857457E+00  0.90007736500E+02  0.89999997822E+02 0.  0.
        -12    1    1    2    0    0  0.99137082028E+00 -0.10760831093E+00  0.63136857457E+00  0.11802634997E+01  0.00000000000E+00 0.  1.
         11    1    3    3    0    0  0.22533778511E+02  0.13127856101E+02 -0.32636188404E+02  0.41775980821E+02  0.51100000000E-03 0. -1.
        -11    1    3    3    0    0  0.37871820466E+01 -0.60334870816E+01  0.28405641314E+01  0.76690624631E+01  0.51100000000E-03 0.  1.
        -12    1    3    3    0    0 -0.27312331378E+02 -0.69867607085E+01  0.29164255698E+02  0.40562693216E+02  0.00000000000E+00 0.  1.
</event>
<event>
 7    1  0.2294706E-015  0.9000788E+02  0.7816164E-02  0.1186339E+00
        -11   -1    0    0    0    0  0.00000000000E+00  0.00000000000E+00  0.45593999997E+02  0.45594000000E+02  0.51100000000E-03 0.  1.
         11   -1    0    0    0    0 -0.00000000000E+00 -0.00000000000E+00 -0.45593999997E+02  0.45594000000E+02  0.51100000000E-03 0. -1.
    9900012    2    1    2    0    0 -0.42967721941E+00  0.10037962914E+01 -0.44772880516E+00  0.90007876875E+02  0.90000140049E+02 0.  0.
        -12    1    1    2    0    0  0.42967721941E+00 -0.10037962914E+01  0.44772880516E+00  0.11801231252E+01  0.00000000000E+00 0.  1.
         11    1    3    3    0    0  0.14035635421E+01  0.69809500867E+01  0.74270146591E+01  0.10289033081E+02  0.51100000000E-03 0. -1.
        -11    1    3    3    0    0 -0.24926034288E+02 -0.34211756738E+02  0.33647467806E+00  0.42330422865E+02  0.51100000000E-03 0.  1.
         12    1    3    3    0    0  0.23092793527E+02  0.28234602943E+02 -0.82112181424E+01  0.37388420929E+02  0.00000000000E+00 0. -1.
</event>
<event>
 7    1  0.2294706E-015  0.9000878E+02  0.7816164E-02  0.1186337E+00
        -11   -1    0    0    0    0  0.00000000000E+00  0.00000000000E+00  0.45593999997E+02  0.45594000000E+02  0.51100000000E-03 0.  1.
         11   -1    0    0    0    0 -0.00000000000E+00 -0.00000000000E+00 -0.45593999997E+02  0.45594000000E+02  0.51100000000E-03 0. -1.
    9900012    2    1    2    0    0  0.81691779580E+00  0.70937854722E+00 -0.46903745414E+00  0.90008776212E+02  0.90001051252E+02 0.  0.
        -12    1    1    2    0    0 -0.81691779580E+00 -0.70937854722E+00  0.46903745414E+00  0.11792237878E+01  0.00000000000E+00 0.  1.
         11    1    3    3    0    0  0.37923426490E+01  0.69803206052E+01 -0.12629700074E+02  0.14920323815E+02  0.51100000000E-03 0. -1.
        -11    1    3    3    0    0  0.58096262363E+01 -0.15316187901E+02 -0.28305205983E+02  0.32703548046E+02  0.51100000000E-03 0.  1.
         12    1    3    3    0    0 -0.87850510895E+01  0.90452458430E+01  0.40465868603E+02  0.42384904351E+02  0.00000000000E+00 0. -1.
</event>
<event>
 7    1  0.2294706E-015  0.9000773E+02  0.7816164E-02  0.1186339E+00
        -11   -1    0    0    0    0  0.00000000000E+00  0.00000000000E+00  0.45593999997E+02  0.45594000000E+02  0.51100000000E-03 0. -1.
         11   -1    0    0    0    0 -0.00000000000E+00 -0.00000000000E+00 -0.45593999997E+02  0.45594000000E+02  0.51100000000E-03 0.  1.
    9900012    2    1    2    0    0 -0.96934730655E+00 -0.32314850924E+00  0.59073887249E+00  0.90007732414E+02  0.89999993682E+02 0.  0.
        -12    1    1    2    0    0  0.96934730655E+00  0.32314850924E+00 -0.59073887249E+00  0.11802675863E+01  0.00000000000E+00 0.  1.
         11    1    3    3    0    0  0.12516273956E+02  0.33508599483E+02  0.10157355803E+02  0.37184072265E+02  0.51100000000E-03 0. -1.
        -11    1    3    3    0    0  0.29575238886E+01 -0.27123014575E+00  0.10145597911E+02  0.10571360867E+02  0.51100000000E-03 0.  1.
        -12    1    3    3    0    0 -0.16443145151E+02 -0.33560517846E+02 -0.19712214842E+02  0.42252299281E+02  0.00000000000E+00 0.  1.
</event>
<event>
 7    1  0.2294706E-015  0.9000774E+02  0.7816164E-02  0.1186339E+00
        -11   -1    0    0    0    0  0.00000000000E+00  0.00000000000E+00  0.45593999997E+02  0.45594000000E+02  0.51100000000E-03 0. -1.
         11   -1    0    0    0    0 -0.00000000000E+00 -0.00000000000E+00 -0.45593999997E+02  0.45594000000E+02  0.51100000000E-03 0.  1.
    9900012    2    1    2    0    0 -0.40718786888E+00  0.23086466545E+00  0.10834757782E+01  0.90007737226E+02  0.89999998557E+02 0.  0.
        -12    1    1    2    0    0  0.40718786888E+00 -0.23086466545E+00 -0.10834757782E+01  0.11802627743E+01  0.00000000000E+00 0.  1.
         11    1    3    3    0    0  0.66770440210E+01  0.40208198089E+02 -0.87957928091E+01  0.41697099201E+02  0.51100000000E-03 0. -1.
        -11    1    3    3    0    0 -0.71948728133E+01 -0.83599153502E+01 -0.63959897648E+01  0.12750022149E+02  0.51100000000E-03 0.  1.
        -12    1    3    3    0    0  0.11064092336E+00 -0.31617418073E+02  0.16275258352E+02  0.35560615876E+02  0.00000000000E+00 0.  1.
</event>
<event>
 7    1  0.2294706E-015  0.9000775E+02  0.7816164E-02  0.1186339E+00
        -11   -1    0    0    0    0  0.00000000000E+00  0.00000000000E+00  0.45593999997E+02  0.45594000000E+02  0.51100000000E-03 0.  1.
         11   -1    0    0    0    0 -0.00000000000E+00 -0.00000000000E+00 -0.45593999997E+02  0.45594000000E+02  0.51100000000E-03 0. -1.
    9900012    2    1    2    0    0 -0.86403241496E+00  0.65694146150E+00 -0.46353512624E+00  0.90007750488E+02  0.90000011994E+02 0.  0.
        -12    1    1    2    0    0  0.86403241496E+00 -0.65694146150E+00  0.46353512624E+00  0.11802495123E+01  0.00000000000E+00 0.  1.
         11    1    3    3    0    0  0.68414214099E+01  0.47153763515E+01  0.35198910592E+01  0.90238270359E+01  0.51100000000E-03 0. -1.
        -11    1    3    3    0    0 -0.22294525003E+02  0.14728235903E+02  0.29570370713E+02  0.39854405055E+02  0.51100000000E-03 0.  1.
         12    1    3    3    0    0  0.14589071178E+02 -0.18786670793E+02 -0.33553796898E+02  0.41129518397E+02  0.00000000000E+00 0. -1.
</event>
<event>
 7    1  0.2294706E-015  0.9000819E+02  0.7816164E-02  0.1186338E+00
        -11   -1    0    0    0    0  0.00000000000E+00  0.00000000000E+00  0.45593999997E+02  0.45594000000E+02  0.51100000000E-03 0.  1.
         11   -1    0    0    0    0 -0.00000000000E+00 -0.00000000000E+00 -0.45593999997E+02  0.45594000000E+02  0.51100000000E-03 0. -1.
    9900012    2    1    2    0    0 -0.88215207716E+00 -0.77558778406E+00 -0.11060203864E+00  0.90008185816E+02  0.90000453068E+02 0.  0.
        -12    1    1    2    0    0  0.88215207716E+00  0.77558778406E+00  0.11060203864E+00  0.11798141841E+01  0.00000000000E+00 0.  1.
         11    1    3    3    0    0 -0.76137358607E+01  0.46757943939E+01 -0.50575617348E+00  0.89491796573E+01  0.51100000000E-03 0. -1.
        -11    1    3    3    0    0 -0.20249496223E+02 -0.32605407895E+02  0.13364846606E+02  0.40642020697E+02  0.51100000000E-03 0.  1.
         12    1    3    3    0    0  0.26981080007E+02  0.27154025717E+02 -0.12969692471E+02  0.40416985461E+02  0.00000000000E+00 0. -1.
</event>
<event>
 7    1  0.2294706E-015  0.9000772E+02  0.7816164E-02  0.1186339E+00
        -11   -1    0    0    0    0  0.00000000000E+00  0.00000000000E+00  0.45593999997E+02  0.45594000000E+02  0.51100000000E-03 0. -1.
         11   -1    0    0    0    0 -0.00000000000E+00 -0.00000000000E+00 -0.45593999997E+02  0.45594000000E+02  0.51100000000E-03 0.  1.
    9900012    2    1    2    0    0 -0.27586892841E+00  0.87100978614E+00  0.74718775326E+00  0.90007724078E+02  0.89999985236E+02 0.  0.
        -12    1    1    2    0    0  0.27586892841E+00 -0.87100978614E+00 -0.74718775326E+00  0.11802759219E+01  0.00000000000E+00 0.  1.
         11    1    3    3    0    0  0.34737055057E+02 -0.17545173921E+02  0.17763869489E+02  0.42779097483E+02  0.51100000000E-03 0. -1.
        -11    1    3    3    0    0 -0.97698386487E+01 -0.28154209428E+01 -0.12034581016E+00  0.10168127934E+02  0.51100000000E-03 0.  1.
        -12    1    3    3    0    0 -0.25243085337E+02  0.21231604650E+02 -0.16896335925E+02  0.37060498661E+02  0.00000000000E+00 0.  1.
</event>
<event>
 7    1  0.2294706E-015  0.9000773E+02  0.7816164E-02  0.1186339E+00
        -11   -1    0    0    0    0  0.00000000000E+00  0.00000000000E+00  0.45593999997E+02  0.45594000000E+02  0.51100000000E-03 0. -1.
         11   -1    0    0    0    0 -0.00000000000E+00 -0.00000000000E+00 -0.45593999997E+02  0.45594000000E+02  0.51100000000E-03 0.  1.
    9900012    2    1    2    0    0  0.47051541812E+00 -0.97382148607E+00  0.47257573878E+00  0.90007728474E+02  0.89999989690E+02 0.  0.
        -12    1    1    2    0    0 -0.47051541812E+00  0.97382148607E+00 -0.47257573878E+00  0.11802715257E+01  0.00000000000E+00 0.  1.
         11    1    3    3    0    0 -0.30691870272E+01  0.51015468045E+00 -0.87516825103E+01  0.92882783027E+01  0.51100000000E-03 0. -1.
        -11    1    3    3    0    0  0.84339493154E+01  0.10113282598E+02 -0.33597432564E+02  0.36085973191E+02  0.51100000000E-03 0.  1.
         12    1    3    3    0    0 -0.48942468701E+01 -0.11597258764E+02  0.42821690813E+02  0.44633476981E+02  0.00000000000E+00 0. -1.
</event>
<event>
 7    1  0.2294706E-015  0.9000775E+02  0.7816164E-02  0.1186339E+00
        -11   -1    0    0    0    0  0.00000000000E+00  0.00000000000E+00  0.45593999997E+02  0.45594000000E+02  0.51100000000E-03 0. -1.
         11   -1    0    0    0    0 -0.00000000000E+00 -0.00000000000E+00 -0.45593999997E+02  0.45594000000E+02  0.51100000000E-03 0.  1.
    9900012    2    1    2    0    0 -0.95523644494E+00  0.51904139869E+00 -0.45945560510E+00  0.90007754224E+02  0.90000015780E+02 0.  0.
        -12    1    1    2    0    0  0.95523644494E+00 -0.51904139869E+00  0.45945560510E+00  0.11802457762E+01  0.00000000000E+00 0.  1.
         11    1    3    3    0    0  0.23439597523E+01  0.69583239684E+01  0.35497549590E+02  0.36248978564E+02  0.51100000000E-03 0. -1.
        -11    1    3    3    0    0 -0.51204218259E+01  0.10832739046E+00  0.78799738719E+01  0.93981084789E+01  0.51100000000E-03 0.  1.
        -12    1    3    3    0    0  0.18212256287E+01 -0.65476099601E+01 -0.43836979067E+02  0.44360667181E+02  0.00000000000E+00 0.  1.
</event>
<event>
 7    1  0.2294706E-015  0.9000768E+02  0.7816164E-02  0.1186339E+00
        -11   -1    0    0    0    0  0.00000000000E+00  0.00000000000E+00  0.45593999997E+02  0.45594000000E+02  0.51100000000E-03 0.  1.
         11   -1    0    0    0    0 -0.00000000000E+00 -0.00000000000E+00 -0.45593999997E+02  0.45594000000E+02  0.51100000000E-03 0. -1.
    9900012    2    1    2    0    0 -0.36779346323E+00  0.10432754380E+01 -0.41165123657E+00  0.90007681225E+02  0.89999941817E+02 0.  0.
        -12    1    1    2    0    0  0.36779346323E+00 -0.10432754380E+01  0.41165123657E+00  0.11803187754E+01  0.00000000000E+00 0.  1.
         11    1    3    3    0    0 -0.13499872426E+02  0.26716576430E+02 -0.21795843139E+02  0.37028108108E+02  0.51100000000E-03 0. -1.
        -11    1    3    3    0    0  0.59740261070E+01  0.19365807380E+01 -0.92129692525E+01  0.11149804285E+02  0.51100000000E-03 0.  1.
        -12    1    3    3    0    0  0.71580528557E+01 -0.27609881730E+02  0.30597161155E+02  0.41829768832E+02  0.00000000000E+00 0.  1.
</event>
<event>
 7    1  0.2294706E-015  0.9000764E+02  0.7816164E-02  0.1186339E+00
        -11   -1    0    0    0    0  0.00000000000E+00  0.00000000000E+00  0.45593999997E+02  0.45594000000E+02  0.51100000000E-03 0. -1.
         11   -1    0    0    0    0 -0.00000000000E+00 -0.00000000000E+00 -0.45593999997E+02  0.45594000000E+02  0.51100000000E-03 0.  1.
    9900012    2    1    2    0    0  0.24112002505E+00  0.11348582391E+01 -0.21726768637E+00  0.90007641014E+02  0.89999901075E+02 0.  0.
        -12    1    1    2    0    0 -0.24112002505E+00 -0.11348582391E+01  0.21726768637E+00  0.11803589865E+01  0.00000000000E+00 0.  1.
         11    1    3    3    0    0 -0.64372204717E+01  0.38659177997E+01 -0.55425011125E+01  0.93328691558E+01  0.51100000000E-03 0. -1.
        -11    1    3    3    0    0  0.11945555976E+02  0.30109596935E+02 -0.20700579275E+02  0.38442139869E+02  0.51100000000E-03 0.  1.
         12    1    3    3    0    0 -0.52672154793E+01 -0.32840656495E+02  0.26025812701E+02  0.42232631989E+02  0.00000000000E+00 0. -1.
</event>
<event>
 7    1  0.2294706E-015  0.9000772E+02  0.7816164E-02  0.1186339E+00
        -11   -1    0    0    0    0  0.00000000000E+00  0.00000000000E+00  0.45593999997E+02  0.45594000000E+02  0.51100000000E-03 0.  1.
         11   -1    0    0    0    0 -0.00000000000E+00 -0.00000000000E+00 -0.45593999997E+02  0.45594000000E+02  0.51100000000E-03 0. -1.
    9900012    2    1    2    0    0  0.11452298410E+01  0.27672780878E+00 -0.70146230298E-01  0.90007724540E+02  0.89999985704E+02 0.  0.
        -12    1    1    2    0    0 -0.11452298410E+01 -0.27672780878E+00  0.70146230298E-01  0.11802754604E+01  0.00000000000E+00 0.  1.
         11    1    3    3    0    0  0.54228721244E+00 -0.96941771796E+01  0.16040554634E+01  0.98409420688E+01  0.51100000000E-03 0. -1.
        -11    1    3    3    0    0  0.27204925015E+02  0.28131085791E+02  0.17296262548E+02  0.42785822783E+02  0.51100000000E-03 0.  1.
         12    1    3    3    0    0 -0.26601982386E+02 -0.18160180803E+02 -0.18970464241E+02  0.37380959688E+02  0.00000000000E+00 0. -1.
</event>
<event>
 7    1  0.2294706E-015  0.9000779E+02  0.7816164E-02  0.1186339E+00
        -11   -1    0    0    0    0  0.00000000000E+00  0.00000000000E+00  0.45593999997E+02  0.45594000000E+02  0.51100000000E-03 0.  1.
         11   -1    0    0    0    0 -0.00000000000E+00 -0.00000000000E+00 -0.45593999997E+02  0.45594000000E+02  0.51100000000E-03 0. -1.
    9900012    2    1    2    0    0  0.79524730367E+00  0.42124745717E+00  0.76355752270E+00  0.90007793330E+02  0.90000055402E+02 0.  0.
        -12    1    1    2    0    0 -0.79524730367E+00 -0.42124745717E+00 -0.76355752270E+00  0.11802066703E+01  0.00000000000E+00 0.  1.
         11    1    3    3    0    0 -0.36420749422E+02 -0.99021803932E+01 -0.14939956972E+02  0.40592197275E+02  0.51100000000E-03 0. -1.
        -11    1    3    3    0    0  0.12853950992E+02 -0.72367185296E+01  0.12273188796E+02  0.19189197864E+02  0.51100000000E-03 0.  1.
        -12    1    3    3    0    0  0.24362045734E+02  0.17560146380E+02  0.34303256986E+01  0.30226398191E+02  0.00000000000E+00 0.  1.
</event>
<event>
 7    1  0.2294706E-015  0.9000762E+02  0.7816164E-02  0.1186339E+00
        -11   -1    0    0    0    0  0.00000000000E+00  0.00000000000E+00  0.45593999997E+02  0.45594000000E+02  0.51100000000E-03 0.  1.
         11   -1    0    0    0    0 -0.00000000000E+00 -0.00000000000E+00 -0.45593999997E+02  0.45594000000E+02  0.51100000000E-03 0. -1.
    9900012    2    1    2    0    0 -0.92899360306E+00  0.13743210341E-01 -0.72806865591E+00  0.90007617876E+02  0.89999877632E+02 0.  0.
        -12    1    1    2    0    0  0.92899360306E+00 -0.13743210341E-01  0.72806865591E+00  0.11803821238E+01  0.00000000000E+00 0.  1.
         11    1    3    3    0    0  0.41190049616E+02 -0.44045765086E+01  0.81060480601E+01  0.42210525903E+02  0.51100000000E-03 0. -1.
        -11    1    3    3    0    0 -0.45800748363E+01 -0.12375782787E+01 -0.86136422514E+01  0.98337947202E+01  0.51100000000E-03 0.  1.
        -12    1    3    3    0    0 -0.37538968382E+02  0.56558979976E+01 -0.22047446460E+00  0.37963297254E+02  0.00000000000E+00 0.  1.
</event>
<event>
 7    1  0.2294706E-015  0.9000781E+02  0.7816164E-02  0.1186339E+00
        -11   -1    0    0    0    0  0.00000000000E+00  0.00000000000E+00  0.45593999997E+02  0.45594000000E+02  0.51100000000E-03 0. -1.
         11   -1    0    0    0    0 -0.00000000000E+00 -0.00000000000E+00 -0.45593999997E+02  0.45594000000E+02  0.51100000000E-03 0.  1.
    9900012    2    1    2    0    0  0.96941977545E+00 -0.55445240497E+00 -0.38165776193E+00  0.90007807296E+02  0.90000069553E+02 0.  0.
        -12    1    1    2    0    0 -0.96941977545E+00  0.55445240497E+00  0.38165776193E+00  0.11801927036E+01  0.00000000000E+00 0.  1.
         11    1    3    3    0    0  0.83334188589E+01  0.51550075762E+01 -0.10743444757E+01  0.98576969573E+01  0.51100000000E-03 0. -1.
        -11    1    3    3    0    0  0.31344204102E+02 -0.14550738070E+01 -0.18824581169E+02  0.36591545841E+02  0.51100000000E-03 0.  1.
         12    1    3    3    0    0 -0.38708203185E+02 -0.42543861742E+01  0.19517267883E+02  0.43558564498E+02  0.00000000000E+00 0. -1.
</event>
<event>
 7    1  0.2294706E-015  0.9000762E+02  0.7816164E-02  0.1186339E+00
        -11   -1    0    0    0    0  0.00000000000E+00  0.00000000000E+00  0.45593999997E+02  0.45594000000E+02  0.51100000000E-03 0.  1.
         11   -1    0    0    0    0 -0.00000000000E+00 -0.00000000000E+00 -0.45593999997E+02  0.45594000000E+02  0.51100000000E-03 0. -1.
    9900012    2    1    2    0    0 -0.46978756452E+00  0.10694002002E+01 -0.17024967623E+00  0.90007617818E+02  0.89999877573E+02 0.  0.
        -12    1    1    2    0    0  0.46978756452E+00 -0.10694002002E+01  0.17024967623E+00  0.11803821822E+01  0.00000000000E+00 0.  1.
         11    1    3    3    0    0  0.17370597983E+01 -0.92733468725E+01 -0.44231214602E+00  0.94449975784E+01  0.51100000000E-03 0. -1.
        -11    1    3    3    0    0 -0.81242769180E+01 -0.18696370996E+02  0.31493545666E+02  0.37515351294E+02  0.51100000000E-03 0.  1.
         12    1    3    3    0    0  0.59174295552E+01  0.29039118068E+02 -0.31221483196E+02  0.43047268946E+02  0.00000000000E+00 0. -1.
</event>
<event>
 7    1  0.2294706E-015  0.9000779E+02  0.7816164E-02  0.1186339E+00
        -11   -1    0    0    0    0  0.00000000000E+00  0.00000000000E+00  0.45593999997E+02  0.45594000000E+02  0.51100000000E-03 0.  1.
         11   -1    0    0    0    0 -0.00000000000E+00 -0.00000000000E+00 -0.45593999997E+02  0.45594000000E+02  0.51100000000E-03 0. -1.
    9900012    2    1    2    0    0  0.73735917386E+00 -0.91309408603E+00  0.12428043320E+00  0.90007794515E+02  0.90000056602E+02 0.  0.
        -12    1    1    2    0    0 -0.73735917386E+00  0.91309408603E+00 -0.12428043320E+00  0.11802054852E+01  0.00000000000E+00 0.  1.
         11    1    3    3    0    0  0.29351896189E+02 -0.23053733825E+02 -0.38633143124E+01  0.37522441964E+02  0.51100000000E-03 0. -1.
        -11    1    3    3    0    0  0.19225605112E+01 -0.84904621099E+01  0.30449701363E+01  0.92225825641E+01  0.51100000000E-03 0.  1.
        -12    1    3    3    0    0 -0.30537097526E+02  0.30631101849E+02  0.94262460930E+00  0.43262769987E+02  0.00000000000E+00 0.  1.
</event>
<event>
 7    1  0.2294706E-015  0.9000771E+02  0.7816164E-02  0.1186339E+00
        -11   -1    0    0    0    0  0.00000000000E+00  0.00000000000E+00  0.45593999997E+02  0.45594000000E+02  0.51100000000E-03 0.  1.
         11   -1    0    0    0    0 -0.00000000000E+00 -0.00000000000E+00 -0.45593999997E+02  0.45594000000E+02  0.51100000000E-03 0. -1.
    9900012    2    1    2    0    0 -0.10482853584E+01 -0.45481737789E+00 -0.29550535950E+00  0.90007710011E+02  0.89999970983E+02 0.  0.
        -12    1    1    2    0    0  0.10482853584E+01  0.45481737789E+00  0.29550535950E+00  0.11802899887E+01  0.00000000000E+00 0.  1.
         11    1    3    3    0    0  0.68752114129E+01 -0.92195729913E+01  0.37377886058E+01  0.12092978212E+02  0.51100000000E-03 0. -1.
        -11    1    3    3    0    0 -0.23173462007E+01  0.22242372759E+02  0.31998524631E+02  0.39038427455E+02  0.51100000000E-03 0.  1.
         12    1    3    3    0    0 -0.56061505706E+01 -0.13477617145E+02 -0.36031818596E+02  0.38876304344E+02  0.00000000000E+00 0. -1.
</event>
<event>
 7    1  0.2294706E-015  0.9000782E+02  0.7816164E-02  0.1186339E+00
        -11   -1    0    0    0    0  0.00000000000E+00  0.00000000000E+00  0.45593999997E+02  0.45594000000E+02  0.51100000000E-03 0. -1.
         11   -1    0    0    0    0 -0.00000000000E+00 -0.00000000000E+00 -0.45593999997E+02  0.45594000000E+02  0.51100000000E-03 0.  1.
    9900012    2    1    2    0    0  0.10252496858E+01 -0.48911155470E+00  0.32010754279E+00  0.90007815324E+02  0.90000077686E+02 0.  0.
        -12    1    1    2    0    0 -0.10252496858E+01  0.48911155470E+00 -0.32010754279E+00  0.11801846763E+01  0.00000000000E+00 0.  1.
         11    1    3    3    0    0  0.17932001515E+01 -0.18462090078E+01  0.37325040228E+02  0.37413669731E+02  0.51100000000E-03 0. -1.
        -11    1    3    3    0    0  0.72281721441E+01 -0.14478512051E+01  0.55350246314E+01  0.92184187141E+01  0.51100000000E-03 0.  1.
        -12    1    3    3    0    0 -0.79961226097E+01  0.28049486582E+01 -0.42539957316E+02  0.43375726879E+02  0.00000000000E+00 0.  1.
</event>
<event>
 7    1  0.2294706E-015  0.9000766E+02  0.7816164E-02  0.1186339E+00
        -11   -1    0    0    0    0  0.00000000000E+00  0.00000000000E+00  0.45593999997E+02  0.45594000000E+02  0.51100000000E-03 0.  1.
         11   -1    0    0    0    0 -0.00000000000E+00 -0.00000000000E+00 -0.45593999997E+02  0.45594000000E+02  0.51100000000E-03 0. -1.
    9900012    2    1    2    0    0 -0.68413712396E+00 -0.16228727408E+00 -0.94806475780E+00  0.90007657868E+02  0.89999918152E+02 0.  0.
        -12    1    1    2    0    0  0.68413712396E+00  0.16228727408E+00  0.94806475780E+00  0.11803421320E+01  0.00000000000E+00 0.  1.
         11    1    3    3    0    0 -0.34993761936E+01  0.88178957904E+01 -0.19018293164E+00  0.94887875792E+01  0.51100000000E-03 0. -1.
        -11    1    3    3    0    0 -0.37133892824E-01  0.27942778093E+02  0.23278891657E+02  0.36369039354E+02  0.51100000000E-03 0.  1.
         12    1    3    3    0    0  0.28523729625E+01 -0.36922961157E+02 -0.24036773483E+02  0.44149830935E+02  0.00000000000E+00 0. -1.
</event>
<event>
 7    1  0.2294706E-015  0.9000769E+02  0.7816164E-02  0.1186339E+00
        -11   -1    0    0    0    0  0.00000000000E+00  0.00000000000E+00  0.45593999997E+02  0.45594000000E+02  0.51100000000E-03 0. -1.
         11   -1    0    0    0    0 -0.00000000000E+00 -0.00000000000E+00 -0.45593999997E+02  0.45594000000E+02  0.51100000000E-03 0.  1.
    9900012    2    1    2    0    0 -0.37893019322E+00  0.80109377521E+00  0.77961691957E+00  0.90007685690E+02  0.89999946342E+02 0.  0.
        -12    1    1    2    0    0  0.37893019322E+00 -0.80109377521E+00 -0.77961691957E+00  0.11803143095E+01  0.00000000000E+00 0.  1.
         11    1    3    3    0    0 -0.59087049657E+01  0.13567012561E+01  0.18044432486E+01  0.63253022353E+01  0.51100000000E-03 0. -1.
        -11    1    3    3    0    0  0.30874714430E+00 -0.38559298956E+02 -0.16983043588E+02  0.42134767479E+02  0.51100000000E-03 0.  1.
         12    1    3    3    0    0  0.52210276281E+01  0.38003691475E+02  0.15958217259E+02  0.41547615976E+02  0.00000000000E+00 0. -1.
</event>
<event>
 7    1  0.2294706E-015  0.9000777E+02  0.7816164E-02  0.1186339E+00
        -11   -1    0    0    0    0  0.00000000000E+00  0.00000000000E+00  0.45593999997E+02  0.45594000000E+02  0.51100000000E-03 0. -1.
         11   -1    0    0    0    0 -0.00000000000E+00 -0.00000000000E+00 -0.45593999997E+02  0.45594000000E+02  0.51100000000E-03 0.  1.
    9900012    2    1    2    0    0  0.74295882184E-01 -0.24482148252E+00  0.11521630607E+01  0.90007772414E+02  0.90000034210E+02 0.  0.
        -12    1    1    2    0    0 -0.74295882184E-01  0.24482148252E+00 -0.11521630607E+01  0.11802275860E+01  0.00000000000E+00 0.  1.
         11    1    3    3    0    0  0.86203087690E+01 -0.31404840622E+01 -0.58532595342E+01  0.10882693180E+02  0.51100000000E-03 0. -1.
        -11    1    3    3    0    0  0.34988798322E+02  0.43119165068E+01  0.27892388908E+01  0.35363660527E+02  0.51100000000E-03 0.  1.
         12    1    3    3    0    0 -0.43534811209E+02 -0.14162539271E+01  0.42161837040E+01  0.43761418707E+02  0.00000000000E+00 0. -1.
</event>
<event>
 7    1  0.2294706E-015  0.9000776E+02  0.7816164E-02  0.1186339E+00
        -11   -1    0    0    0    0  0.00000000000E+00  0.00000000000E+00  0.45593999997E+02  0.45594000000E+02  0.51100000000E-03 0. -1.
         11   -1    0    0    0    0 -0.00000000000E+00 -0.00000000000E+00 -0.45593999997E+02  0.45594000000E+02  0.51100000000E-03 0.  1.
    9900012    2    1    2    0    0  0.74223735139E+00 -0.72175128563E+00  0.56666949412E+00  0.90007764634E+02  0.90000026327E+02 0.  0.
        -12    1    1    2    0    0 -0.74223735139E+00  0.72175128563E+00 -0.56666949412E+00  0.11802353662E+01  0.00000000000E+00 0.  1.
         11    1    3    3    0    0  0.40547553274E+02  0.14722592703E+02 -0.24899176703E+01  0.43209472372E+02  0.51100000000E-03 0. -1.
        -11    1    3    3    0    0 -0.84932993598E+01  0.16210415000E+01 -0.53399574510E+01  0.10162630339E+02  0.51100000000E-03 0.  1.
        -12    1    3    3    0    0 -0.31312016563E+02 -0.17065385489E+02  0.83965446154E+01  0.36635661923E+02  0.00000000000E+00 0.  1.
</event>
<event>
 7    1  0.2294706E-015  0.9000770E+02  0.7816164E-02  0.1186339E+00
        -11   -1    0    0    0    0  0.00000000000E+00  0.00000000000E+00  0.45593999997E+02  0.45594000000E+02  0.51100000000E-03 0. -1.
         11   -1    0    0    0    0 -0.00000000000E+00 -0.00000000000E+00 -0.45593999997E+02  0.45594000000E+02  0.51100000000E-03 0.  1.
    9900012    2    1    2    0    0  0.43087561753E+00 -0.12199185876E+00  0.10920524098E+01  0.90007697379E+02  0.89999958184E+02 0.  0.
        -12    1    1    2    0    0 -0.43087561753E+00  0.12199185876E+00 -0.10920524098E+01  0.11803026210E+01  0.00000000000E+00 0.  1.
         11    1    3    3    0    0  0.36996312821E+02 -0.80214251945E+01 -0.72555601310E+01  0.38544955281E+02  0.51100000000E-03 0. -1.
        -11    1    3    3    0    0  0.42849355911E+01 -0.12712472909E+01  0.84908678664E+01  0.95953936907E+01  0.51100000000E-03 0.  1.
        -12    1    3    3    0    0 -0.40850372795E+02  0.91706806266E+01 -0.14325532562E+00  0.41867348408E+02  0.00000000000E+00 0.  1.
</event>
<event>
 7    1  0.2294706E-015  0.9000773E+02  0.7816164E-02  0.1186339E+00
        -11   -1    0    0    0    0  0.00000000000E+00  0.00000000000E+00  0.45593999997E+02  0.45594000000E+02  0.51100000000E-03 0.  1.
         11   -1    0    0    0    0 -0.00000000000E+00 -0.00000000000E+00 -0.45593999997E+02  0.45594000000E+02  0.51100000000E-03 0. -1.
    9900012    2    1    2    0    0  0.42517966357E+00 -0.20613629383E-01 -0.11008331930E+01  0.90007730375E+02  0.89999991616E+02 0.  0.
        -12    1    1    2    0    0 -0.42517966357E+00  0.20613629383E-01  0.11008331930E+01  0.11802696246E+01  0.00000000000E+00 0.  1.
         11    1    3    3    0    0 -0.47899953115E+01 -0.78050830407E+01 -0.62511379011E+01  0.11087835753E+02  0.51100000000E-03 0. -1.
        -11    1    3    3    0    0 -0.18187141000E+01 -0.11544760753E+02 -0.33312116778E+02  0.35302781000E+02  0.51100000000E-03 0.  1.
         12    1    3    3    0    0  0.70338890751E+01  0.19329230165E+02  0.38462421486E+02  0.43617113623E+02  0.00000000000E+00 0. -1.
</event>
<event>
 7    1  0.2294706E-015  0.9000769E+02  0.7816164E-02  0.1186339E+00
        -11   -1    0    0    0    0  0.00000000000E+00  0.00000000000E+00  0.45593999997E+02  0.45594000000E+02  0.51100000000E-03 0.  1.
         11   -1    0    0    0    0 -0.00000000000E+00 -0.00000000000E+00 -0.45593999997E+02  0.45594000000E+02  0.51100000000E-03 0. -1.
    9900012    2    1    2    0    0  0.44419088835E+00 -0.10044255280E+01 -0.43238873792E+00  0.90007688089E+02  0.89999948772E+02 0.  0.
        -12    1    1    2    0    0 -0.44419088835E+00  0.10044255280E+01  0.43238873792E+00  0.11803119110E+01  0.00000000000E+00 0.  1.
         11    1    3    3    0    0 -0.16842253820E+01 -0.62293274564E+01 -0.14895056406E+02  0.16232801400E+02  0.51100000000E-03 0. -1.
        -11    1    3    3    0    0  0.30254831815E+02 -0.15663461685E+02  0.18053493285E+02  0.38556808739E+02  0.51100000000E-03 0.  1.
         12    1    3    3    0    0 -0.28126415545E+02  0.20888363614E+02 -0.35908256169E+01  0.35218077950E+02  0.00000000000E+00 0. -1.
</event>
<event>
 7    1  0.2294706E-015  0.9000770E+02  0.7816164E-02  0.1186339E+00
        -11   -1    0    0    0    0  0.00000000000E+00  0.00000000000E+00  0.45593999997E+02  0.45594000000E+02  0.51100000000E-03 0.  1.
         11   -1    0    0    0    0 -0.00000000000E+00 -0.00000000000E+00 -0.45593999997E+02  0.45594000000E+02  0.51100000000E-03 0. -1.
    9900012    2    1    2    0    0  0.27090827443E+00 -0.54689972342E+00 -0.10102570411E+01  0.90007699238E+02  0.89999960067E+02 0.  0.
        -12    1    1    2    0    0 -0.27090827443E+00  0.54689972342E+00  0.10102570411E+01  0.11803007624E+01  0.00000000000E+00 0.  1.
         11    1    3    3    0    0  0.71920086026E+01  0.78285179523E+01 -0.77161230187E+01  0.13135799777E+02  0.51100000000E-03 0. -1.
        -11    1    3    3    0    0  0.20592363654E+02 -0.13629750857E+02  0.31111232822E+02  0.39720578511E+02  0.51100000000E-03 0.  1.
         12    1    3    3    0    0 -0.27513463982E+02  0.52543331810E+01 -0.24405366845E+02  0.37151320950E+02  0.00000000000E+00 0. -1.
</event>
<event>
 7    1  0.2294706E-015  0.9000771E+02  0.7816164E-02  0.1186339E+00
        -11   -1    0    0    0    0  0.00000000000E+00  0.00000000000E+00  0.45593999997E+02  0.45594000000E+02  0.51100000000E-03 0. -1.
         11   -1    0    0    0    0 -0.00000000000E+00 -0.00000000000E+00 -0.45593999997E+02  0.45594000000E+02  0.51100000000E-03 0.  1.
    9900012    2    1    2    0    0  0.49220828715E-01  0.34872881340E+00 -0.11265169834E+01  0.90007714022E+02  0.89999975047E+02 0.  0.
        -12    1    1    2    0    0 -0.49220828715E-01 -0.34872881340E+00  0.11265169834E+01  0.11802859777E+01  0.00000000000E+00 0.  1.
         11    1    3    3    0    0 -0.75343764966E+01  0.54376588375E+00  0.51709742806E+01  0.91543151464E+01  0.51100000000E-03 0. -1.
        -11    1    3    3    0    0 -0.18154438135E+02 -0.28701206110E+02  0.14786568163E+02  0.37040322008E+02  0.51100000000E-03 0.  1.
         12    1    3    3    0    0  0.25738035460E+02  0.28506169040E+02 -0.21084059427E+02  0.43813076868E+02  0.00000000000E+00 0. -1.
</event>
<event>
 7    1  0.2294706E-015  0.9000771E+02  0.7816164E-02  0.1186339E+00
        -11   -1    0    0    0    0  0.00000000000E+00  0.00000000000E+00  0.45593999997E+02  0.45594000000E+02  0.51100000000E-03 0.  1.
         11   -1    0    0    0    0 -0.00000000000E+00 -0.00000000000E+00 -0.45593999997E+02  0.45594000000E+02  0.51100000000E-03 0. -1.
    9900012    2    1    2    0    0 -0.28984827689E+00 -0.10791296806E+01  0.38020410193E+00  0.90007708489E+02  0.89999969441E+02 0.  0.
        -12    1    1    2    0    0  0.28984827689E+00  0.10791296806E+01 -0.38020410193E+00  0.11802915107E+01  0.00000000000E+00 0.  1.
         11    1    3    3    0    0 -0.23600160876E+02 -0.18965291866E+02 -0.27812473685E+02  0.41111842353E+02  0.51100000000E-03 0. -1.
        -11    1    3    3    0    0  0.72014352941E+01  0.38646137394E+01 -0.48860086045E+01  0.95220265697E+01  0.51100000000E-03 0.  1.
        -12    1    3    3    0    0  0.16108877305E+02  0.14021548446E+02  0.33078686391E+02  0.39373839567E+02  0.00000000000E+00 0.  1.
</event>
<event>
 7    1  0.2786704E-015  0.9000767E+02  0.7816164E-02  0.1186339E+00
        -11   -1    0    0    0    0  0.00000000000E+00  0.00000000000E+00  0.45593999997E+02  0.45594000000E+02  0.51100000000E-03 0.  1.
         11   -1    0    0    0    0 -0.00000000000E+00 -0.00000000000E+00 -0.45593999997E+02  0.45594000000E+02  0.51100000000E-03 0. -1.
    9900012    2    1    2    0    0 -0.10984386909E+00 -0.81609139795E+00 -0.84564113018E+00  0.90007669637E+02  0.89999930076E+02 0.  0.
        -12    1    1    2    0    0  0.10984386909E+00  0.81609139795E+00  0.84564113018E+00  0.11803303633E+01  0.00000000000E+00 0.  1.
         11    1    3    3    0    0  0.21686239326E+02 -0.13949824835E+02 -0.27989673350E+02  0.38056699850E+02  0.51100000000E-03 0. -1.
        -11    1    3    3    0    0  0.96626943053E+01  0.17297257470E+01  0.18129760328E+01  0.99823090893E+01  0.51100000000E-03 0.  1.
        -12    1    3    3    0    0 -0.31458777500E+02  0.11404007690E+02  0.25331056187E+02  0.41968660697E+02  0.00000000000E+00 0.  1.
</event>
<event>
 7    1  0.2294706E-015  0.9000785E+02  0.7816164E-02  0.1186339E+00
        -11   -1    0    0    0    0  0.00000000000E+00  0.00000000000E+00  0.45593999997E+02  0.45594000000E+02  0.51100000000E-03 0. -1.
         11   -1    0    0    0    0 -0.00000000000E+00 -0.00000000000E+00 -0.45593999997E+02  0.45594000000E+02  0.51100000000E-03 0.  1.
    9900012    2    1    2    0    0  0.12637037731E+00  0.62531408167E+00  0.99285540511E+00  0.90007852116E+02  0.90000114964E+02 0.  0.
        -12    1    1    2    0    0 -0.12637037731E+00 -0.62531408167E+00 -0.99285540511E+00  0.11801478841E+01  0.00000000000E+00 0.  1.
         11    1    3    3    0    0  0.13425925632E+02 -0.17197718033E+02 -0.31282641564E+01  0.22040939669E+02  0.51100000000E-03 0. -1.
        -11    1    3    3    0    0 -0.76222772979E+01 -0.49765574825E+01 -0.27274166561E+02  0.28753180649E+02  0.51100000000E-03 0.  1.
         12    1    3    3    0    0 -0.56772779568E+01  0.22799589597E+02  0.31395286122E+02  0.39213731798E+02  0.00000000000E+00 0. -1.
</event>
<event>
 7    1  0.2294706E-015  0.9000725E+02  0.7816164E-02  0.1186340E+00
        -11   -1    0    0    0    0  0.00000000000E+00  0.00000000000E+00  0.45593999997E+02  0.45594000000E+02  0.51100000000E-03 0. -1.
         11   -1    0    0    0    0 -0.00000000000E+00 -0.00000000000E+00 -0.45593999997E+02  0.45594000000E+02  0.51100000000E-03 0.  1.
    9900012    2    1    2    0    0 -0.66341304976E+00  0.35938787576E+00  0.90824060775E+00  0.90007247053E+02  0.89999501913E+02 0.  0.
        -12    1    1    2    0    0  0.66341304976E+00 -0.35938787576E+00 -0.90824060775E+00  0.11807529468E+01  0.00000000000E+00 0.  1.
         11    1    3    3    0    0 -0.20850242978E+02 -0.62393231991E+01  0.28230231253E+02  0.35645585183E+02  0.51100000000E-03 0. -1.
        -11    1    3    3    0    0 -0.11171667218E+01  0.10370614600E+01  0.10493261208E+02  0.10603399879E+02  0.51100000000E-03 0.  1.
        -12    1    3    3    0    0  0.21303996650E+02  0.55616496149E+01 -0.37815251853E+02  0.43758261990E+02  0.00000000000E+00 0.  1.
</event>
<event>
 7    1  0.2294706E-015  0.9000780E+02  0.7816164E-02  0.1186339E+00
        -11   -1    0    0    0    0  0.00000000000E+00  0.00000000000E+00  0.45593999997E+02  0.45594000000E+02  0.51100000000E-03 0.  1.
         11   -1    0    0    0    0 -0.00000000000E+00 -0.00000000000E+00 -0.45593999997E+02  0.45594000000E+02  0.51100000000E-03 0. -1.
    9900012    2    1    2    0    0  0.67189987494E+00 -0.67249899267E+00 -0.69940394057E+00  0.90007800776E+02  0.90000062946E+02 0.  0.
        -12    1    1    2    0    0 -0.67189987494E+00  0.67249899267E+00  0.69940394057E+00  0.11801992244E+01  0.00000000000E+00 0.  1.
         11    1    3    3    0    0 -0.20899077604E+01 -0.53568420103E+01  0.71875664981E+01  0.92045957649E+01  0.51100000000E-03 0. -1.
        -11    1    3    3    0    0 -0.29196225319E+02 -0.23450667651E+02 -0.76655841296E+01  0.38224528335E+02  0.51100000000E-03 0.  1.
         12    1    3    3    0    0  0.31958032954E+02  0.28135010668E+02 -0.22138630902E+00  0.42578676676E+02  0.00000000000E+00 0. -1.
</event>
<event>
 7    1  0.2294706E-015  0.9000781E+02  0.7816164E-02  0.1186339E+00
        -11   -1    0    0    0    0  0.00000000000E+00  0.00000000000E+00  0.45593999997E+02  0.45594000000E+02  0.51100000000E-03 0.  1.
         11   -1    0    0    0    0 -0.00000000000E+00 -0.00000000000E+00 -0.45593999997E+02  0.45594000000E+02  0.51100000000E-03 0. -1.
    9900012    2    1    2    0    0  0.13816357148E+00 -0.97594577944E+00 -0.64907432925E+00  0.90007806447E+02  0.90000068692E+02 0.  0.
        -12    1    1    2    0    0 -0.13816357148E+00  0.97594577944E+00  0.64907432925E+00  0.11801935527E+01  0.00000000000E+00 0.  1.
         11    1    3    3    0    0  0.48036378175E+01  0.21950209614E+01  0.27835031481E+01  0.59700036298E+01  0.51100000000E-03 0. -1.
        -11    1    3    3    0    0  0.32084483034E+02 -0.13573196150E+02  0.19062534383E+02  0.39711785690E+02  0.51100000000E-03 0.  1.
         12    1    3    3    0    0 -0.36749957280E+02  0.10402229410E+02 -0.22495111861E+02  0.44326017128E+02  0.00000000000E+00 0. -1.
</event>
<event>
 7    1  0.2294706E-015  0.9000793E+02  0.7816164E-02  0.1186339E+00
        -11   -1    0    0    0    0  0.00000000000E+00  0.00000000000E+00  0.45593999997E+02  0.45594000000E+02  0.51100000000E-03 0. -1.
         11   -1    0    0    0    0 -0.00000000000E+00 -0.00000000000E+00 -0.45593999997E+02  0.45594000000E+02  0.51100000000E-03 0.  1.
    9900012    2    1    2    0    0 -0.27125395573E+00  0.88790603804E+00  0.72842716038E+00  0.90007931371E+02  0.90000195265E+02 0.  0.
        -12    1    1    2    0    0  0.27125395573E+00 -0.88790603804E+00 -0.72842716038E+00  0.11800686289E+01  0.00000000000E+00 0.  1.
         11    1    3    3    0    0 -0.12517215178E+00 -0.97895136700E+00 -0.62906073388E+01  0.63675548524E+01  0.51100000000E-03 0. -1.
        -11    1    3    3    0    0  0.30588412645E+02 -0.17783278854E+02 -0.17712346053E+02  0.39567956707E+02  0.51100000000E-03 0.  1.
         12    1    3    3    0    0 -0.30734494449E+02  0.19650136259E+02  0.24731380552E+02  0.44072419812E+02  0.00000000000E+00 0. -1.
</event>
<event>
 7    1  0.2294706E-015  0.9000774E+02  0.7816164E-02  0.1186339E+00
        -11   -1    0    0    0    0  0.00000000000E+00  0.00000000000E+00  0.45593999997E+02  0.45594000000E+02  0.51100000000E-03 0. -1.
         11   -1    0    0    0    0 -0.00000000000E+00 -0.00000000000E+00 -0.45593999997E+02  0.45594000000E+02  0.51100000000E-03 0.  1.
    9900012    2    1    2    0    0  0.49687741624E+00 -0.42295159088E+00  0.98348709970E+00  0.90007736432E+02  0.89999997753E+02 0.  0.
        -12    1    1    2    0    0 -0.49687741624E+00  0.42295159088E+00 -0.98348709970E+00  0.11802635681E+01  0.00000000000E+00 0.  1.
         11    1    3    3    0    0  0.67613256466E+00  0.11702598234E+02  0.35149881583E+02  0.37052963933E+02  0.51100000000E-03 0. -1.
        -11    1    3    3    0    0  0.11790103615E+02 -0.68225103534E+00  0.30699756108E+01  0.12202326017E+02  0.51100000000E-03 0.  1.
        -12    1    3    3    0    0 -0.11969358763E+02 -0.11443298789E+02 -0.37236370095E+02  0.40752446481E+02  0.00000000000E+00 0.  1.
</event>
<event>
 7    1  0.2294706E-015  0.9000774E+02  0.7816164E-02  0.1186339E+00
        -11   -1    0    0    0    0  0.00000000000E+00  0.00000000000E+00  0.45593999997E+02  0.45594000000E+02  0.51100000000E-03 0. -1.
         11   -1    0    0    0    0 -0.00000000000E+00 -0.00000000000E+00 -0.45593999997E+02  0.45594000000E+02  0.51100000000E-03 0.  1.
    9900012    2    1    2    0    0  0.44765562988E+00  0.80485108026E+00  0.73812142877E+00  0.90007744067E+02  0.90000005488E+02 0.  0.
        -12    1    1    2    0    0 -0.44765562988E+00 -0.80485108026E+00 -0.73812142877E+00  0.11802559332E+01  0.00000000000E+00 0.  1.
         11    1    3    3    0    0  0.38466635116E+02 -0.10241855265E+02 -0.83476158761E+01  0.40672598977E+02  0.51100000000E-03 0. -1.
        -11    1    3    3    0    0 -0.24971693737E+01  0.50585227957E+01 -0.77389032541E+01  0.95768017414E+01  0.51100000000E-03 0.  1.
        -12    1    3    3    0    0 -0.35521810113E+02  0.59881835500E+01  0.16824640559E+02  0.39758343349E+02  0.00000000000E+00 0.  1.
</event>
<event>
 7    1  0.2294706E-015  0.9000767E+02  0.7816164E-02  0.1186339E+00
        -11   -1    0    0    0    0  0.00000000000E+00  0.00000000000E+00  0.45593999997E+02  0.45594000000E+02  0.51100000000E-03 0.  1.
         11   -1    0    0    0    0 -0.00000000000E+00 -0.00000000000E+00 -0.45593999997E+02  0.45594000000E+02  0.51100000000E-03 0. -1.
    9900012    2    1    2    0    0 -0.52978805261E+00  0.58639331556E+00 -0.87672336677E+00  0.90007671078E+02  0.89999931537E+02 0.  0.
        -12    1    1    2    0    0  0.52978805261E+00 -0.58639331556E+00  0.87672336677E+00  0.11803289216E+01  0.00000000000E+00 0.  1.
         11    1    3    3    0    0 -0.34825608508E+02 -0.12587249285E+02  0.16541096969E+02  0.40556993746E+02  0.51100000000E-03 0. -1.
        -11    1    3    3    0    0  0.61924507041E+01 -0.23085290240E-01  0.74386468688E+01  0.96788659539E+01  0.51100000000E-03 0.  1.
        -12    1    3    3    0    0  0.28103369751E+02  0.13196727891E+02 -0.24856467205E+02  0.39771811378E+02  0.00000000000E+00 0.  1.
</event>
<event>
 7    1  0.2294706E-015  0.9000775E+02  0.7816164E-02  0.1186339E+00
        -11   -1    0    0    0    0  0.00000000000E+00  0.00000000000E+00  0.45593999997E+02  0.45594000000E+02  0.51100000000E-03 0.  1.
         11   -1    0    0    0    0 -0.00000000000E+00 -0.00000000000E+00 -0.45593999997E+02  0.45594000000E+02  0.51100000000E-03 0. -1.
    9900012    2    1    2    0    0  0.80180746199E+00  0.23145772621E+00 -0.83457662474E+00  0.90007751709E+02  0.90000013232E+02 0.  0.
        -12    1    1    2    0    0 -0.80180746199E+00 -0.23145772621E+00  0.83457662474E+00  0.11802482907E+01  0.00000000000E+00 0.  1.
         11    1    3    3    0    0  0.21439387222E+01 -0.18447129863E+02 -0.85762029970E+01  0.20455911897E+02  0.51100000000E-03 0. -1.
        -11    1    3    3    0    0  0.98055012428E+01 -0.15189969447E+02 -0.18048299182E+02  0.25546509156E+02  0.51100000000E-03 0.  1.
        -12    1    3    3    0    0 -0.11147632503E+02  0.33868557036E+02  0.25789925555E+02  0.44005330657E+02  0.00000000000E+00 0.  1.
</event>
<event>
 7    1  0.2749019E-015  0.9000768E+02  0.7816164E-02  0.1186339E+00
        -11   -1    0    0    0    0  0.00000000000E+00  0.00000000000E+00  0.45593999997E+02  0.45594000000E+02  0.51100000000E-03 0.  1.
         11   -1    0    0    0    0 -0.00000000000E+00 -0.00000000000E+00 -0.45593999997E+02  0.45594000000E+02  0.51100000000E-03 0. -1.
    9900012    2    1    2    0    0 -0.62672048221E+00  0.97607466455E+00 -0.21830345310E+00  0.90007679403E+02  0.89999939971E+02 0.  0.
        -12    1    1    2    0    0  0.62672048221E+00 -0.97607466455E+00  0.21830345310E+00  0.11803205968E+01  0.00000000000E+00 0.  1.
         11    1    3    3    0    0  0.27833537703E+02  0.17438287840E+02 -0.22058974364E+02  0.39565111577E+02  0.51100000000E-03 0. -1.
        -11    1    3    3    0    0  0.64481966666E+01 -0.61943578580E+00  0.64251672049E+01  0.91239089658E+01  0.51100000000E-03 0.  1.
        -12    1    3    3    0    0 -0.34908454852E+02 -0.15842777390E+02  0.15415503706E+02  0.41318658861E+02  0.00000000000E+00 0.  1.
</event>
<event>
 7    1  0.2294706E-015  0.9000777E+02  0.7816164E-02  0.1186339E+00
        -11   -1    0    0    0    0  0.00000000000E+00  0.00000000000E+00  0.45593999997E+02  0.45594000000E+02  0.51100000000E-03 0.  1.
         11   -1    0    0    0    0 -0.00000000000E+00 -0.00000000000E+00 -0.45593999997E+02  0.45594000000E+02  0.51100000000E-03 0. -1.
    9900012    2    1    2    0    0  0.35324348639E+00 -0.10675361075E+01 -0.35849654660E+00  0.90007773719E+02  0.90000035532E+02 0.  0.
        -12    1    1    2    0    0 -0.35324348639E+00  0.10675361075E+01  0.35849654660E+00  0.11802262814E+01  0.00000000000E+00 0.  1.
         11    1    3    3    0    0  0.54784774622E+01 -0.35654776241E+01  0.26807651093E+01  0.70649025346E+01  0.51100000000E-03 0. -1.
        -11    1    3    3    0    0  0.14417668920E+02  0.38850750895E+02 -0.42127430082E+01  0.41653297902E+02  0.51100000000E-03 0.  1.
         12    1    3    3    0    0 -0.19542902896E+02 -0.36352809378E+02  0.11734813522E+01  0.41289573282E+02  0.00000000000E+00 0. -1.
</event>
<event>
 7    1  0.2294706E-015  0.9000737E+02  0.7816164E-02  0.1186340E+00
        -11   -1    0    0    0    0  0.00000000000E+00  0.00000000000E+00  0.45593999997E+02  0.45594000000E+02  0.51100000000E-03 0. -1.
         11   -1    0    0    0    0 -0.00000000000E+00 -0.00000000000E+00 -0.45593999997E+02  0.45594000000E+02  0.51100000000E-03 0.  1.
    9900012    2    1    2    0    0 -0.10608915934E+01  0.24452204251E+00  0.45673412665E+00  0.90007369633E+02  0.89999626111E+02 0.  0.
        -12    1    1    2    0    0  0.10608915934E+01 -0.24452204251E+00 -0.45673412665E+00  0.11806303675E+01  0.00000000000E+00 0.  1.
         11    1    3    3    0    0 -0.81322165065E+01 -0.50628977800E+01  0.47480393143E-01  0.95795685648E+01  0.51100000000E-03 0. -1.
        -11    1    3    3    0    0  0.13435034464E+02  0.48028178619E+01 -0.38468638864E+02  0.41029299126E+02  0.51100000000E-03 0.  1.
         12    1    3    3    0    0 -0.63637095511E+01  0.50460196062E+00  0.38877892598E+02  0.39398501941E+02  0.00000000000E+00 0. -1.
</event>
<event>
 7    1  0.2294706E-015  0.9000765E+02  0.7816164E-02  0.1186339E+00
        -11   -1    0    0    0    0  0.00000000000E+00  0.00000000000E+00  0.45593999997E+02  0.45594000000E+02  0.51100000000E-03 0. -1.
         11   -1    0    0    0    0 -0.00000000000E+00 -0.00000000000E+00 -0.45593999997E+02  0.45594000000E+02  0.51100000000E-03 0.  1.
    9900012    2    1    2    0    0 -0.88035043646E+00 -0.78349244394E+00 -0.66016473706E-01  0.90007646038E+02  0.89999906166E+02 0.  0.
        -12    1    1    2    0    0  0.88035043646E+00  0.78349244394E+00  0.66016473706E-01  0.11803539619E+01  0.00000000000E+00 0.  1.
         11    1    3    3    0    0  0.88171864975E+01 -0.24125125029E+01 -0.22341233152E+01  0.94103295137E+01  0.51100000000E-03 0. -1.
        -11    1    3    3    0    0 -0.29191986034E+02 -0.17776700171E+02 -0.24681571631E+02  0.42158784328E+02  0.51100000000E-03 0.  1.
         12    1    3    3    0    0  0.19494449100E+02  0.19405720230E+02  0.26849678472E+02  0.38438532196E+02  0.00000000000E+00 0. -1.
</event>
<event>
 7    1  0.2294706E-015  0.9000784E+02  0.7816164E-02  0.1186339E+00
        -11   -1    0    0    0    0  0.00000000000E+00  0.00000000000E+00  0.45593999997E+02  0.45594000000E+02  0.51100000000E-03 0. -1.
         11   -1    0    0    0    0 -0.00000000000E+00 -0.00000000000E+00 -0.45593999997E+02  0.45594000000E+02  0.51100000000E-03 0.  1.
    9900012    2    1    2    0    0  0.65822797882E+00  0.91074457363E+00 -0.36064542135E+00  0.90007836931E+02  0.90000099578E+02 0.  0.
        -12    1    1    2    0    0 -0.65822797882E+00 -0.91074457363E+00  0.36064542135E+00  0.11801630694E+01  0.00000000000E+00 0.  1.
         11    1    3    3    0    0  0.99448493828E+01  0.29433814975E-01 -0.94681543457E+00  0.99898626279E+01  0.51100000000E-03 0. -1.
        -11    1    3    3    0    0  0.15963554237E+02 -0.17612739753E+02 -0.28623401259E+02  0.37206756986E+02  0.51100000000E-03 0.  1.
         12    1    3    3    0    0 -0.25250175641E+02  0.18494050511E+02  0.29209571273E+02  0.42811217317E+02  0.00000000000E+00 0. -1.
</event>
<event>
 7    1  0.2294706E-015  0.9000773E+02  0.7816164E-02  0.1186339E+00
        -11   -1    0    0    0    0  0.00000000000E+00  0.00000000000E+00  0.45593999997E+02  0.45594000000E+02  0.51100000000E-03 0. -1.
         11   -1    0    0    0    0 -0.00000000000E+00 -0.00000000000E+00 -0.45593999997E+02  0.45594000000E+02  0.51100000000E-03 0.  1.
    9900012    2    1    2    0    0  0.37141609589E+00 -0.10035328057E+01  0.49800503199E+00  0.90007730107E+02  0.89999991344E+02 0.  0.
        -12    1    1    2    0    0 -0.37141609589E+00  0.10035328057E+01 -0.49800503199E+00  0.11802698930E+01  0.00000000000E+00 0.  1.
         11    1    3    3    0    0 -0.28391425120E+01  0.48631244474E+01 -0.42575936178E+01  0.70595901630E+01  0.51100000000E-03 0. -1.
        -11    1    3    3    0    0 -0.35858566761E+02 -0.91274940056E-01 -0.14902981037E+02  0.38832254446E+02  0.51100000000E-03 0.  1.
         12    1    3    3    0    0  0.39069125369E+02 -0.57753823130E+01  0.19658579687E+02  0.44115885498E+02  0.00000000000E+00 0. -1.
</event>
<event>
 7    1  0.2294706E-015  0.9000766E+02  0.7816164E-02  0.1186339E+00
        -11   -1    0    0    0    0  0.00000000000E+00  0.00000000000E+00  0.45593999997E+02  0.45594000000E+02  0.51100000000E-03 0.  1.
         11   -1    0    0    0    0 -0.00000000000E+00 -0.00000000000E+00 -0.45593999997E+02  0.45594000000E+02  0.51100000000E-03 0. -1.
    9900012    2    1    2    0    0  0.85835699474E+00 -0.77708117217E+00  0.22928062102E+00  0.90007660438E+02  0.89999920756E+02 0.  0.
        -12    1    1    2    0    0 -0.85835699474E+00  0.77708117217E+00 -0.22928062102E+00  0.11803395620E+01  0.00000000000E+00 0.  1.
         11    1    3    3    0    0  0.80298544338E+00  0.59773356839E+01  0.93123833195E+01  0.11094765020E+02  0.51100000000E-03 0. -1.
        -11    1    3    3    0    0  0.19171741399E+02 -0.10310647340E+01  0.29660621593E+02  0.35332297354E+02  0.51100000000E-03 0.  1.
         12    1    3    3    0    0 -0.19116369848E+02 -0.57233521221E+01 -0.38743724291E+02  0.43580598064E+02  0.00000000000E+00 0. -1.
</event>
<event>
 7    1  0.2294706E-015  0.9000762E+02  0.7816164E-02  0.1186339E+00
        -11   -1    0    0    0    0  0.00000000000E+00  0.00000000000E+00  0.45593999997E+02  0.45594000000E+02  0.51100000000E-03 0. -1.
         11   -1    0    0    0    0 -0.00000000000E+00 -0.00000000000E+00 -0.45593999997E+02  0.45594000000E+02  0.51100000000E-03 0.  1.
    9900012    2    1    2    0    0 -0.44983910707E+00 -0.10912995971E+01  0.41916044896E-02  0.90007615485E+02  0.89999875210E+02 0.  0.
        -12    1    1    2    0    0  0.44983910707E+00  0.10912995971E+01 -0.41916044896E-02  0.11803845146E+01  0.00000000000E+00 0.  1.
         11    1    3    3    0    0 -0.73871209525E+01  0.37655117968E+02 -0.51207110612E+01  0.38713035882E+02  0.51100000000E-03 0. -1.
        -11    1    3    3    0    0  0.11881068750E+02 -0.36491886571E+00 -0.16718265345E+01  0.12003664634E+02  0.51100000000E-03 0.  1.
        -12    1    3    3    0    0 -0.49437869046E+01 -0.38381498699E+02  0.67967292002E+01  0.39290914970E+02  0.00000000000E+00 0.  1.
</event>
<event>
 7    1  0.2294706E-015  0.9000773E+02  0.7816164E-02  0.1186339E+00
        -11   -1    0    0    0    0  0.00000000000E+00  0.00000000000E+00  0.45593999997E+02  0.45594000000E+02  0.51100000000E-03 0.  1.
         11   -1    0    0    0    0 -0.00000000000E+00 -0.00000000000E+00 -0.45593999997E+02  0.45594000000E+02  0.51100000000E-03 0. -1.
    9900012    2    1    2    0    0  0.86290712299E+00  0.78148586301E+00  0.19421490806E+00  0.90007725334E+02  0.89999986508E+02 0.  0.
        -12    1    1    2    0    0 -0.86290712299E+00 -0.78148586301E+00 -0.19421490806E+00  0.11802746661E+01  0.00000000000E+00 0.  1.
         11    1    3    3    0    0 -0.68633641098E+01 -0.93359356453E+00  0.67719202181E+01  0.96869121782E+01  0.51100000000E-03 0. -1.
        -11    1    3    3    0    0 -0.22805005038E+02 -0.11934306906E+02 -0.29971959700E+02  0.39507142450E+02  0.51100000000E-03 0.  1.
         12    1    3    3    0    0  0.30531276271E+02  0.13649386334E+02  0.23394254389E+02  0.40813670705E+02  0.00000000000E+00 0. -1.
</event>
<event>
 7    1  0.2294706E-015  0.9000776E+02  0.7816164E-02  0.1186339E+00
        -11   -1    0    0    0    0  0.00000000000E+00  0.00000000000E+00  0.45593999997E+02  0.45594000000E+02  0.51100000000E-03 0. -1.
         11   -1    0    0    0    0 -0.00000000000E+00 -0.00000000000E+00 -0.45593999997E+02  0.45594000000E+02  0.51100000000E-03 0.  1.
    9900012    2    1    2    0    0 -0.81937516429E+00  0.77737599256E+00  0.34245220678E+00  0.90007761631E+02  0.90000023285E+02 0.  0.
        -12    1    1    2    0    0  0.81937516429E+00 -0.77737599256E+00 -0.34245220678E+00  0.11802383690E+01  0.00000000000E+00 0.  1.
         11    1    3    3    0    0  0.81165948689E+01 -0.12411651916E+02 -0.28854113538E+01  0.15108071171E+02  0.51100000000E-03 0. -1.
        -11    1    3    3    0    0  0.28442740508E+02  0.22381481460E+02 -0.76332987953E+00  0.36200868397E+02  0.51100000000E-03 0.  1.
         12    1    3    3    0    0 -0.37378710541E+02 -0.91924535515E+01  0.39911934401E+01  0.38698822063E+02  0.00000000000E+00 0. -1.
</event>
<event>
 7    1  0.3040361E-015  0.9000775E+02  0.7816164E-02  0.1186339E+00
        -11   -1    0    0    0    0  0.00000000000E+00  0.00000000000E+00  0.45593999997E+02  0.45594000000E+02  0.51100000000E-03 0.  1.
         11   -1    0    0    0    0 -0.00000000000E+00 -0.00000000000E+00 -0.45593999997E+02  0.45594000000E+02  0.51100000000E-03 0. -1.
    9900012    2    1    2    0    0  0.64728269715E+00  0.58310211330E+00 -0.79624457490E+00  0.90007750710E+02  0.90000012219E+02 0.  0.
        -12    1    1    2    0    0 -0.64728269715E+00 -0.58310211330E+00  0.79624457490E+00  0.11802492905E+01  0.00000000000E+00 0.  1.
         11    1    3    3    0    0 -0.14580223042E+02  0.14333447628E+02 -0.35297220692E+02  0.40791229617E+02  0.51100000000E-03 0. -1.
        -11    1    3    3    0    0  0.53970915059E+01  0.74723157112E+01  0.24474833930E+01  0.95369950210E+01  0.51100000000E-03 0.  1.
        -12    1    3    3    0    0  0.98304142329E+01 -0.21222661226E+02  0.32053492724E+02  0.39679526072E+02  0.00000000000E+00 0.  1.
</event>
<event>
 7    1  0.2294706E-015  0.9000772E+02  0.7816164E-02  0.1186339E+00
        -11   -1    0    0    0    0  0.00000000000E+00  0.00000000000E+00  0.45593999997E+02  0.45594000000E+02  0.51100000000E-03 0.  1.
         11   -1    0    0    0    0 -0.00000000000E+00 -0.00000000000E+00 -0.45593999997E+02  0.45594000000E+02  0.51100000000E-03 0. -1.
    9900012    2    1    2    0    0  0.94464489894E+00  0.21633004677E+00 -0.67372181570E+00  0.90007723016E+02  0.89999984160E+02 0.  0.
        -12    1    1    2    0    0 -0.94464489894E+00 -0.21633004677E+00  0.67372181570E+00  0.11802769841E+01  0.00000000000E+00 0.  1.
         11    1    3    3    0    0 -0.12869719826E+02  0.24337150913E+02  0.30094597223E+02  0.40787392479E+02  0.51100000000E-03 0. -1.
        -11    1    3    3    0    0 -0.75022522296E+01 -0.30414366769E+01 -0.39993687521E+01  0.90293452837E+01  0.51100000000E-03 0.  1.
        -12    1    3    3    0    0  0.21316616954E+02 -0.21079384189E+02 -0.26768950287E+02  0.40190985253E+02  0.00000000000E+00 0.  1.
</event>
<event>
 7    1  0.2294706E-015  0.9000772E+02  0.7816164E-02  0.1186339E+00
        -11   -1    0    0    0    0  0.00000000000E+00  0.00000000000E+00  0.45593999997E+02  0.45594000000E+02  0.51100000000E-03 0.  1.
         11   -1    0    0    0    0 -0.00000000000E+00 -0.00000000000E+00 -0.45593999997E+02  0.45594000000E+02  0.51100000000E-03 0. -1.
    9900012    2    1    2    0    0 -0.59610995420E+00 -0.78927478634E+00 -0.64402100304E+00  0.90007718331E+02  0.89999979413E+02 0.  0.
        -12    1    1    2    0    0  0.59610995420E+00  0.78927478634E+00  0.64402100304E+00  0.11802816690E+01  0.00000000000E+00 0.  1.
         11    1    3    3    0    0  0.26782253297E+02 -0.58337275705E+01 -0.29232286310E+02  0.40073033729E+02  0.51100000000E-03 0. -1.
        -11    1    3    3    0    0  0.64036545936E+01  0.30063956256E+01  0.55936207322E+01  0.90185253766E+01  0.51100000000E-03 0.  1.
        -12    1    3    3    0    0 -0.33782017845E+02  0.20380571586E+01  0.22994644575E+02  0.40916159226E+02  0.00000000000E+00 0.  1.
</event>
<event>
 7    1  0.2294706E-015  0.9000779E+02  0.7816164E-02  0.1186339E+00
        -11   -1    0    0    0    0  0.00000000000E+00  0.00000000000E+00  0.45593999997E+02  0.45594000000E+02  0.51100000000E-03 0.  1.
         11   -1    0    0    0    0 -0.00000000000E+00 -0.00000000000E+00 -0.45593999997E+02  0.45594000000E+02  0.51100000000E-03 0. -1.
    9900012    2    1    2    0    0 -0.13364703487E+00  0.10041325009E+01 -0.60560087164E+00  0.90007789839E+02  0.90000051864E+02 0.  0.
        -12    1    1    2    0    0  0.13364703487E+00 -0.10041325009E+01  0.60560087164E+00  0.11802101614E+01  0.00000000000E+00 0.  1.
         11    1    3    3    0    0 -0.34195120934E+01  0.38999214622E+02 -0.17311610282E+02  0.42805649802E+02  0.51100000000E-03 0. -1.
        -11    1    3    3    0    0  0.46946921149E+01 -0.15982280003E+01  0.85374373019E+01  0.98733126528E+01  0.51100000000E-03 0.  1.
        -12    1    3    3    0    0 -0.14088270564E+01 -0.36396854121E+02  0.81685721083E+01  0.37328827384E+02  0.00000000000E+00 0.  1.
</event>
<event>
 7    1  0.2294706E-015  0.9000756E+02  0.7816164E-02  0.1186339E+00
        -11   -1    0    0    0    0  0.00000000000E+00  0.00000000000E+00  0.45593999997E+02  0.45594000000E+02  0.51100000000E-03 0. -1.
         11   -1    0    0    0    0 -0.00000000000E+00 -0.00000000000E+00 -0.45593999997E+02  0.45594000000E+02  0.51100000000E-03 0.  1.
    9900012    2    1    2    0    0 -0.60110780688E+00 -0.72942826368E+00  0.70714164707E+00  0.90007557076E+02  0.89999816029E+02 0.  0.
        -12    1    1    2    0    0  0.60110780688E+00  0.72942826368E+00 -0.70714164707E+00  0.11804429238E+01  0.00000000000E+00 0.  1.
         11    1    3    3    0    0 -0.10318374835E+02 -0.63574649961E+01 -0.42602240482E+01  0.12846623277E+02  0.51100000000E-03 0. -1.
        -11    1    3    3    0    0 -0.28593732864E+01 -0.14678860588E+02 -0.30749415580E+02  0.34193150228E+02  0.51100000000E-03 0.  1.
         12    1    3    3    0    0  0.12576640314E+02  0.20306897321E+02  0.35716781275E+02  0.42967783571E+02  0.00000000000E+00 0. -1.
</event>
<event>
 7    1  0.2294706E-015  0.9000782E+02  0.7816164E-02  0.1186339E+00
        -11   -1    0    0    0    0  0.00000000000E+00  0.00000000000E+00  0.45593999997E+02  0.45594000000E+02  0.51100000000E-03 0.  1.
         11   -1    0    0    0    0 -0.00000000000E+00 -0.00000000000E+00 -0.45593999997E+02  0.45594000000E+02  0.51100000000E-03 0. -1.
    9900012    2    1    2    0    0  0.11619403914E+01  0.12086710924E+00 -0.16768443066E+00  0.90007816794E+02  0.90000079176E+02 0.  0.
        -12    1    1    2    0    0 -0.11619403914E+01 -0.12086710924E+00  0.16768443066E+00  0.11801832059E+01  0.00000000000E+00 0.  1.
         11    1    3    3    0    0  0.16359255449E+01 -0.15273158454E+02  0.50880950653E+01  0.16181295782E+02  0.51100000000E-03 0. -1.
        -11    1    3    3    0    0  0.30399416699E+02 -0.11488258090E+02 -0.50592571970E+01  0.32889218495E+02  0.51100000000E-03 0.  1.
         12    1    3    3    0    0 -0.30873401853E+02  0.26882283652E+02 -0.19652229893E+00  0.40937302517E+02  0.00000000000E+00 0. -1.
</event>
<event>
 7    1  0.2294706E-015  0.9000776E+02  0.7816164E-02  0.1186339E+00
        -11   -1    0    0    0    0  0.00000000000E+00  0.00000000000E+00  0.45593999997E+02  0.45594000000E+02  0.51100000000E-03 0.  1.
         11   -1    0    0    0    0 -0.00000000000E+00 -0.00000000000E+00 -0.45593999997E+02  0.45594000000E+02  0.51100000000E-03 0. -1.
    9900012    2    1    2    0    0 -0.81806989842E+00 -0.16522162979E+00  0.83451858772E+00  0.90007763660E+02  0.90000025340E+02 0.  0.
        -12    1    1    2    0    0  0.81806989842E+00  0.16522162979E+00 -0.83451858772E+00  0.11802363403E+01  0.00000000000E+00 0.  1.
         11    1    3    3    0    0  0.58736382525E+01 -0.50587552777E+01  0.94634498384E+01  0.12233050085E+02  0.51100000000E-03 0. -1.
        -11    1    3    3    0    0  0.65692343037E+01 -0.28566570802E+02  0.16726017287E+02  0.33748532728E+02  0.51100000000E-03 0.  1.
         12    1    3    3    0    0 -0.13260942455E+02  0.33460104450E+02 -0.25354948538E+02  0.44026180847E+02  0.00000000000E+00 0. -1.
</event>
<event>
 7    1  0.2294706E-015  0.9000787E+02  0.7816164E-02  0.1186339E+00
        -11   -1    0    0    0    0  0.00000000000E+00  0.00000000000E+00  0.45593999997E+02  0.45594000000E+02  0.51100000000E-03 0.  1.
         11   -1    0    0    0    0 -0.00000000000E+00 -0.00000000000E+00 -0.45593999997E+02  0.45594000000E+02  0.51100000000E-03 0. -1.
    9900012    2    1    2    0    0  0.56467633343E+00  0.10361556449E+01 -0.14928853536E-01  0.90007872569E+02  0.90000135687E+02 0.  0.
        -12    1    1    2    0    0 -0.56467633343E+00 -0.10361556449E+01  0.14928853536E-01  0.11801274307E+01  0.00000000000E+00 0.  1.
         11    1    3    3    0    0  0.31214971353E+02  0.26776074841E+02  0.10663388963E+02  0.42485768028E+02  0.51100000000E-03 0. -1.
        -11    1    3    3    0    0  0.12016186507E+01 -0.95959475477E+01  0.15136213252E+01  0.97886233198E+01  0.51100000000E-03 0.  1.
        -12    1    3    3    0    0 -0.31851913671E+02 -0.16143971648E+02 -0.12191939142E+02  0.37733481222E+02  0.00000000000E+00 0.  1.
</event>
<event>
 7    1  0.2294706E-015  0.9000782E+02  0.7816164E-02  0.1186339E+00
        -11   -1    0    0    0    0  0.00000000000E+00  0.00000000000E+00  0.45593999997E+02  0.45594000000E+02  0.51100000000E-03 0.  1.
         11   -1    0    0    0    0 -0.00000000000E+00 -0.00000000000E+00 -0.45593999997E+02  0.45594000000E+02  0.51100000000E-03 0. -1.
    9900012    2    1    2    0    0  0.76141959999E+00 -0.89872231901E+00 -0.73184308511E-01  0.90007823082E+02  0.90000085547E+02 0.  0.
        -12    1    1    2    0    0 -0.76141959999E+00  0.89872231901E+00  0.73184308511E-01  0.11801769176E+01  0.00000000000E+00 0.  1.
         11    1    3    3    0    0 -0.24115106880E+02  0.30038158790E+01 -0.36326652084E+02  0.43705685461E+02  0.51100000000E-03 0. -1.
        -11    1    3    3    0    0  0.78727076340E+01 -0.32659463092E+01  0.31595925608E+01  0.90900470954E+01  0.51100000000E-03 0.  1.
        -12    1    3    3    0    0  0.17003818846E+02 -0.63659188880E+00  0.33093875215E+02  0.37212090526E+02  0.00000000000E+00 0.  1.
</event>
<event>
 7    1  0.2294706E-015  0.9000761E+02  0.7816164E-02  0.1186339E+00
        -11   -1    0    0    0    0  0.00000000000E+00  0.00000000000E+00  0.45593999997E+02  0.45594000000E+02  0.51100000000E-03 0. -1.
         11   -1    0    0    0    0 -0.00000000000E+00 -0.00000000000E+00 -0.45593999997E+02  0.45594000000E+02  0.51100000000E-03 0.  1.
    9900012    2    1    2    0    0  0.11164171703E+01 -0.38086324441E+00  0.43314802650E-01  0.90007610115E+02  0.89999869768E+02 0.  0.
        -12    1    1    2    0    0 -0.11164171703E+01  0.38086324441E+00 -0.43314802650E-01  0.11803898853E+01  0.00000000000E+00 0.  1.
         11    1    3    3    0    0 -0.85370523408E+01 -0.51363282615E+01 -0.26402178926E+00  0.99665860979E+01  0.51100000000E-03 0. -1.
        -11    1    3    3    0    0 -0.12882400045E+02 -0.22474058390E+02 -0.25443414773E+02  0.36309873134E+02  0.51100000000E-03 0.  1.
         12    1    3    3    0    0  0.22535869556E+02  0.27229523407E+02  0.25750751365E+02  0.43731150883E+02  0.00000000000E+00 0. -1.
</event>
<event>
 7    1  0.2294706E-015  0.9000775E+02  0.7816164E-02  0.1186339E+00
        -11   -1    0    0    0    0  0.00000000000E+00  0.00000000000E+00  0.45593999997E+02  0.45594000000E+02  0.51100000000E-03 0.  1.
         11   -1    0    0    0    0 -0.00000000000E+00 -0.00000000000E+00 -0.45593999997E+02  0.45594000000E+02  0.51100000000E-03 0. -1.
    9900012    2    1    2    0    0 -0.32737654257E+00 -0.86536819997E+00 -0.73277322580E+00  0.90007748280E+02  0.90000009757E+02 0.  0.
        -12    1    1    2    0    0  0.32737654257E+00  0.86536819997E+00  0.73277322580E+00  0.11802517200E+01  0.00000000000E+00 0.  1.
         11    1    3    3    0    0 -0.67958483293E+01 -0.42991160841E+01 -0.32676405109E+01  0.86800592388E+01  0.51100000000E-03 0. -1.
        -11    1    3    3    0    0 -0.30928420803E+01 -0.24185351502E+02 -0.29295229857E+02  0.38114398750E+02  0.51100000000E-03 0.  1.
         12    1    3    3    0    0  0.95613138670E+01  0.27619099387E+02  0.31830097142E+02  0.43213290292E+02  0.00000000000E+00 0. -1.
</event>
<event>
 7    1  0.2294706E-015  0.9000823E+02  0.7816164E-02  0.1186338E+00
        -11   -1    0    0    0    0  0.00000000000E+00  0.00000000000E+00  0.45593999997E+02  0.45594000000E+02  0.51100000000E-03 0. -1.
         11   -1    0    0    0    0 -0.00000000000E+00 -0.00000000000E+00 -0.45593999997E+02  0.45594000000E+02  0.51100000000E-03 0.  1.
    9900012    2    1    2    0    0  0.32230591701E+00 -0.94716065227E+00  0.62519299827E+00  0.90008228543E+02  0.90000496359E+02 0.  0.
        -12    1    1    2    0    0 -0.32230591701E+00  0.94716065227E+00 -0.62519299827E+00  0.11797714569E+01  0.00000000000E+00 0.  1.
         11    1    3    3    0    0  0.33608244217E+02  0.71903813439E+01  0.13341126446E+02  0.36867347590E+02  0.51100000000E-03 0. -1.
        -11    1    3    3    0    0  0.76429646875E+01  0.97934009631E+00 -0.77282488857E+01  0.10913287650E+02  0.51100000000E-03 0.  1.
        -12    1    3    3    0    0 -0.40928902988E+02 -0.91168820925E+01 -0.49876845618E+01  0.42227593303E+02  0.00000000000E+00 0.  1.
</event>
<event>
 7    1  0.2294706E-015  0.9000768E+02  0.7816164E-02  0.1186339E+00
        -11   -1    0    0    0    0  0.00000000000E+00  0.00000000000E+00  0.45593999997E+02  0.45594000000E+02  0.51100000000E-03 0.  1.
         11   -1    0    0    0    0 -0.00000000000E+00 -0.00000000000E+00 -0.45593999997E+02  0.45594000000E+02  0.51100000000E-03 0. -1.
    9900012    2    1    2    0    0 -0.91581266068E+00 -0.74459987810E+00 -0.31750884483E-02  0.90007681446E+02  0.89999942041E+02 0.  0.
        -12    1    1    2    0    0  0.91581266068E+00  0.74459987810E+00  0.31750884484E-02  0.11803185541E+01  0.00000000000E+00 0.  1.
         11    1    3    3    0    0 -0.11629294334E+02 -0.18827205383E+02 -0.39148717942E+02  0.44970282032E+02  0.51100000000E-03 0. -1.
        -11    1    3    3    0    0  0.34344617512E+01  0.92952152481E+01  0.11814806079E+02  0.15420317668E+02  0.51100000000E-03 0.  1.
        -12    1    3    3    0    0  0.72790199222E+01  0.87873902567E+01  0.27330736775E+02  0.29617081747E+02  0.00000000000E+00 0.  1.
</event>
<event>
 7    1  0.2294706E-015  0.9000771E+02  0.7816164E-02  0.1186339E+00
        -11   -1    0    0    0    0  0.00000000000E+00  0.00000000000E+00  0.45593999997E+02  0.45594000000E+02  0.51100000000E-03 0.  1.
         11   -1    0    0    0    0 -0.00000000000E+00 -0.00000000000E+00 -0.45593999997E+02  0.45594000000E+02  0.51100000000E-03 0. -1.
    9900012    2    1    2    0    0 -0.47893625325E+00  0.75726959294E+00 -0.76827875647E+00  0.90007707910E+02  0.89999968854E+02 0.  0.
        -12    1    1    2    0    0  0.47893625325E+00 -0.75726959294E+00  0.76827875647E+00  0.11802920904E+01  0.00000000000E+00 0.  1.
         11    1    3    3    0    0 -0.33612045672E+00 -0.59655557075E+01  0.58213715444E+00  0.60033087367E+01  0.51100000000E-03 0. -1.
        -11    1    3    3    0    0  0.59775561904E+01 -0.21173941693E+01  0.40398473760E+02  0.40893168359E+02  0.51100000000E-03 0.  1.
         12    1    3    3    0    0 -0.61203719869E+01  0.88402194697E+01 -0.41748889671E+02  0.43111230814E+02  0.00000000000E+00 0. -1.
</event>
<event>
 7    1  0.2294706E-015  0.9000760E+02  0.7816164E-02  0.1186339E+00
        -11   -1    0    0    0    0  0.00000000000E+00  0.00000000000E+00  0.45593999997E+02  0.45594000000E+02  0.51100000000E-03 0. -1.
         11   -1    0    0    0    0 -0.00000000000E+00 -0.00000000000E+00 -0.45593999997E+02  0.45594000000E+02  0.51100000000E-03 0.  1.
    9900012    2    1    2    0    0 -0.48130101625E+00  0.77704250027E+00  0.74692773335E+00  0.90007598901E+02  0.89999858406E+02 0.  0.
        -12    1    1    2    0    0  0.48130101625E+00 -0.77704250027E+00 -0.74692773335E+00  0.11804010989E+01  0.00000000000E+00 0.  1.
         11    1    3    3    0    0  0.56347840176E+01  0.51795338491E+01 -0.44447721666E+01  0.88506701268E+01  0.51100000000E-03 0. -1.
        -11    1    3    3    0    0 -0.43612023087E+01  0.10401087112E+02 -0.35802219316E+02  0.37536670163E+02  0.51100000000E-03 0.  1.
         12    1    3    3    0    0 -0.17548827252E+01 -0.14803578460E+02  0.40993919216E+02  0.43620258611E+02  0.00000000000E+00 0. -1.
</event>
<event>
 7    1  0.2294706E-015  0.9000775E+02  0.7816164E-02  0.1186339E+00
        -11   -1    0    0    0    0  0.00000000000E+00  0.00000000000E+00  0.45593999997E+02  0.45594000000E+02  0.51100000000E-03 0.  1.
         11   -1    0    0    0    0 -0.00000000000E+00 -0.00000000000E+00 -0.45593999997E+02  0.45594000000E+02  0.51100000000E-03 0. -1.
    9900012    2    1    2    0    0 -0.10951548392E+01  0.43906879598E+00  0.28894930624E-01  0.90007754074E+02  0.90000015628E+02 0.  0.
        -12    1    1    2    0    0  0.10951548392E+01 -0.43906879598E+00 -0.28894930624E-01  0.11802459263E+01  0.00000000000E+00 0.  1.
         11    1    3    3    0    0  0.15024477506E+01  0.40537766857E+01  0.86658176558E+01  0.96843611336E+01  0.51100000000E-03 0. -1.
        -11    1    3    3    0    0 -0.38274480125E+01  0.32882954960E+02 -0.23810199710E+02  0.40778225755E+02  0.51100000000E-03 0.  1.
         12    1    3    3    0    0  0.12298454227E+01 -0.36497662850E+02  0.15173276985E+02  0.39545167186E+02  0.00000000000E+00 0. -1.
</event>
<event>
 7    1  0.2294706E-015  0.9000773E+02  0.7816164E-02  0.1186339E+00
        -11   -1    0    0    0    0  0.00000000000E+00  0.00000000000E+00  0.45593999997E+02  0.45594000000E+02  0.51100000000E-03 0. -1.
         11   -1    0    0    0    0 -0.00000000000E+00 -0.00000000000E+00 -0.45593999997E+02  0.45594000000E+02  0.51100000000E-03 0.  1.
    9900012    2    1    2    0    0 -0.10536198896E+01  0.50489820219E+00 -0.16736316542E+00  0.90007725669E+02  0.89999986848E+02 0.  0.
        -12    1    1    2    0    0  0.10536198896E+01 -0.50489820219E+00  0.16736316542E+00  0.11802743306E+01  0.00000000000E+00 0.  1.
         11    1    3    3    0    0 -0.21854369939E+01  0.41695247849E+01  0.10736910079E+02  0.11723579236E+02  0.51100000000E-03 0. -1.
        -11    1    3    3    0    0 -0.51399522905E+01  0.35926574375E+02 -0.11880158848E+02  0.38187380513E+02  0.51100000000E-03 0.  1.
         12    1    3    3    0    0  0.62717693948E+01 -0.39591200958E+02  0.97588560387E+00  0.40096765921E+02  0.00000000000E+00 0. -1.
</event>
<event>
 7    1  0.2294706E-015  0.9000768E+02  0.7816164E-02  0.1186339E+00
        -11   -1    0    0    0    0  0.00000000000E+00  0.00000000000E+00  0.45593999997E+02  0.45594000000E+02  0.51100000000E-03 0.  1.
         11   -1    0    0    0    0 -0.00000000000E+00 -0.00000000000E+00 -0.45593999997E+02  0.45594000000E+02  0.51100000000E-03 0. -1.
    9900012    2    1    2    0    0  0.67967193732E+00  0.80795089142E+00  0.52765585412E+00  0.90007678313E+02  0.89999938866E+02 0.  0.
        -12    1    1    2    0    0 -0.67967193732E+00 -0.80795089142E+00 -0.52765585412E+00  0.11803216874E+01  0.00000000000E+00 0.  1.
         11    1    3    3    0    0  0.77989103671E+01  0.39754647575E+02 -0.51383214479E+01  0.40836960639E+02  0.51100000000E-03 0. -1.
        -11    1    3    3    0    0 -0.93969415324E+01  0.27613106608E+00  0.26441640356E+01  0.97657750454E+01  0.51100000000E-03 0.  1.
        -12    1    3    3    0    0  0.22777031026E+01 -0.39222827749E+02  0.30218132664E+01  0.39404942628E+02  0.00000000000E+00 0.  1.
</event>
<event>
 7    1  0.2294706E-015  0.9000771E+02  0.7816164E-02  0.1186339E+00
        -11   -1    0    0    0    0  0.00000000000E+00  0.00000000000E+00  0.45593999997E+02  0.45594000000E+02  0.51100000000E-03 0. -1.
         11   -1    0    0    0    0 -0.00000000000E+00 -0.00000000000E+00 -0.45593999997E+02  0.45594000000E+02  0.51100000000E-03 0.  1.
    9900012    2    1    2    0    0 -0.61798638258E+00 -0.10054918692E+01 -0.12721645825E-01  0.90007710668E+02  0.89999971648E+02 0.  0.
        -12    1    1    2    0    0  0.61798638258E+00  0.10054918692E+01  0.12721645825E-01  0.11802893325E+01  0.00000000000E+00 0.  1.
         11    1    3    3    0    0 -0.25299350059E+01 -0.24821337467E+01  0.95291371886E+01  0.10166907833E+02  0.51100000000E-03 0. -1.
        -11    1    3    3    0    0 -0.87362964542E+01  0.34789058174E+02  0.13090819630E+02  0.38183386481E+02  0.51100000000E-03 0.  1.
         12    1    3    3    0    0  0.10648245078E+02 -0.33312416296E+02 -0.22632678464E+02  0.41657416353E+02  0.00000000000E+00 0. -1.
</event>
<event>
 7    1  0.2294706E-015  0.9000771E+02  0.7816164E-02  0.1186339E+00
        -11   -1    0    0    0    0  0.00000000000E+00  0.00000000000E+00  0.45593999997E+02  0.45594000000E+02  0.51100000000E-03 0.  1.
         11   -1    0    0    0    0 -0.00000000000E+00 -0.00000000000E+00 -0.45593999997E+02  0.45594000000E+02  0.51100000000E-03 0. -1.
    9900012    2    1    2    0    0  0.13941172109E+00  0.99843105166E+00 -0.61383329633E+00  0.90007707024E+02  0.89999967957E+02 0.  0.
        -12    1    1    2    0    0 -0.13941172109E+00 -0.99843105166E+00  0.61383329633E+00  0.11802929757E+01  0.00000000000E+00 0.  1.
         11    1    3    3    0    0 -0.78906402331E+01 -0.23746368190E+01  0.86251258141E+00  0.82852297207E+01  0.51100000000E-03 0. -1.
        -11    1    3    3    0    0 -0.32503648605E+01  0.31221532554E+01  0.39226552379E+02  0.39484618834E+02  0.51100000000E-03 0.  1.
         12    1    3    3    0    0  0.11280416815E+02  0.25091461523E+00 -0.40702898256E+02  0.42237858470E+02  0.00000000000E+00 0. -1.
</event>
<event>
 7    1  0.2294706E-015  0.9000780E+02  0.7816164E-02  0.1186339E+00
        -11   -1    0    0    0    0  0.00000000000E+00  0.00000000000E+00  0.45593999997E+02  0.45594000000E+02  0.51100000000E-03 0. -1.
         11   -1    0    0    0    0 -0.00000000000E+00 -0.00000000000E+00 -0.45593999997E+02  0.45594000000E+02  0.51100000000E-03 0.  1.
    9900012    2    1    2    0    0 -0.78186328430E+00 -0.36628251566E+00  0.80460423405E+00  0.90007804656E+02  0.90000066877E+02 0.  0.
        -12    1    1    2    0    0  0.78186328430E+00  0.36628251566E+00 -0.80460423405E+00  0.11801953440E+01  0.00000000000E+00 0.  1.
         11    1    3    3    0    0 -0.41024261367E+02  0.95828848911E+01 -0.11879578600E+02  0.43771521467E+02  0.51100000000E-03 0. -1.
        -11    1    3    3    0    0  0.49325129492E+01  0.10489522775E+01  0.72866174523E+01  0.88614208247E+01  0.51100000000E-03 0.  1.
        -12    1    3    3    0    0  0.35309885133E+02 -0.10998119684E+02  0.53975653812E+01  0.37374862365E+02  0.00000000000E+00 0.  1.
</event>
<event>
 7    1  0.2294706E-015  0.9000764E+02  0.7816164E-02  0.1186339E+00
        -11   -1    0    0    0    0  0.00000000000E+00  0.00000000000E+00  0.45593999997E+02  0.45594000000E+02  0.51100000000E-03 0. -1.
         11   -1    0    0    0    0 -0.00000000000E+00 -0.00000000000E+00 -0.45593999997E+02  0.45594000000E+02  0.51100000000E-03 0.  1.
    9900012    2    1    2    0    0 -0.98523802986E-01  0.13930929398E-04  0.11762387662E+01  0.90007642183E+02  0.89999902260E+02 0.  0.
        -12    1    1    2    0    0  0.98523802986E-01 -0.13930929399E-04 -0.11762387662E+01  0.11803578165E+01  0.00000000000E+00 0.  1.
         11    1    3    3    0    0 -0.26754053523E+00 -0.54508406077E+01 -0.11760151455E+02  0.12964736935E+02  0.51100000000E-03 0. -1.
        -11    1    3    3    0    0 -0.36598956731E+02 -0.17647882772E+01 -0.20240601858E+01  0.36697342293E+02  0.51100000000E-03 0.  1.
         12    1    3    3    0    0  0.36767973463E+02  0.72156428159E+01  0.14960450407E+02  0.40345562956E+02  0.00000000000E+00 0. -1.
</event>
<event>
 7    1  0.2294706E-015  0.9000772E+02  0.7816164E-02  0.1186339E+00
        -11   -1    0    0    0    0  0.00000000000E+00  0.00000000000E+00  0.45593999997E+02  0.45594000000E+02  0.51100000000E-03 0.  1.
         11   -1    0    0    0    0 -0.00000000000E+00 -0.00000000000E+00 -0.45593999997E+02  0.45594000000E+02  0.51100000000E-03 0. -1.
    9900012    2    1    2    0    0  0.85504730458E+00 -0.21917639782E+00 -0.78352927107E+00  0.90007719396E+02  0.89999980492E+02 0.  0.
        -12    1    1    2    0    0 -0.85504730458E+00  0.21917639782E+00  0.78352927107E+00  0.11802806044E+01  0.00000000000E+00 0.  1.
         11    1    3    3    0    0 -0.12940923196E+02  0.26242656247E+02  0.25017970244E+02  0.38497315951E+02  0.51100000000E-03 0. -1.
        -11    1    3    3    0    0  0.49298773119E+01  0.73803351672E+01 -0.17240523735E+01  0.90413159628E+01  0.51100000000E-03 0.  1.
        -12    1    3    3    0    0  0.88660931890E+01 -0.33842167812E+02 -0.24077447142E+02  0.42469087481E+02  0.00000000000E+00 0.  1.
</event>
<event>
 7    1  0.2294706E-015  0.9000772E+02  0.7816164E-02  0.1186339E+00
        -11   -1    0    0    0    0  0.00000000000E+00  0.00000000000E+00  0.45593999997E+02  0.45594000000E+02  0.51100000000E-03 0.  1.
         11   -1    0    0    0    0 -0.00000000000E+00 -0.00000000000E+00 -0.45593999997E+02  0.45594000000E+02  0.51100000000E-03 0. -1.
    9900012    2    1    2    0    0 -0.18697145181E-01  0.97545604585E+00 -0.66423096070E+00  0.90007717470E+02  0.89999978541E+02 0.  0.
        -12    1    1    2    0    0  0.18697145181E-01 -0.97545604585E+00  0.66423096070E+00  0.11802825296E+01  0.00000000000E+00 0.  1.
         11    1    3    3    0    0 -0.32585812799E+02  0.10205210070E+01  0.11071981056E+01  0.32620584709E+02  0.51100000000E-03 0. -1.
        -11    1    3    3    0    0 -0.98762342425E+01 -0.33136536445E+01 -0.95276930006E+01  0.14117267351E+02  0.51100000000E-03 0.  1.
        -12    1    3    3    0    0  0.42443349896E+02  0.32685886834E+01  0.77562639342E+01  0.43269865410E+02  0.00000000000E+00 0.  1.
</event>
<event>
 7    1  0.2294706E-015  0.9000783E+02  0.7816164E-02  0.1186339E+00
        -11   -1    0    0    0    0  0.00000000000E+00  0.00000000000E+00  0.45593999997E+02  0.45594000000E+02  0.51100000000E-03 0.  1.
         11   -1    0    0    0    0 -0.00000000000E+00 -0.00000000000E+00 -0.45593999997E+02  0.45594000000E+02  0.51100000000E-03 0. -1.
    9900012    2    1    2    0    0 -0.13073607730E+00 -0.89895614683E+00 -0.75338565743E+00  0.90007828816E+02  0.90000091356E+02 0.  0.
        -12    1    1    2    0    0  0.13073607730E+00  0.89895614683E+00  0.75338565743E+00  0.11801711845E+01  0.00000000000E+00 0.  1.
         11    1    3    3    0    0 -0.14830625945E+01  0.44036054069E+01  0.76307111989E+01  0.89341462324E+01  0.51100000000E-03 0. -1.
        -11    1    3    3    0    0 -0.23081452279E+01  0.35713479553E+02  0.81415585431E+01  0.36702385917E+02  0.51100000000E-03 0.  1.
         12    1    3    3    0    0  0.36604717451E+01 -0.41016041107E+02 -0.16525655399E+02  0.44371296667E+02  0.00000000000E+00 0. -1.
</event>
<event>
 7    1  0.2294706E-015  0.9000750E+02  0.7816164E-02  0.1186340E+00
        -11   -1    0    0    0    0  0.00000000000E+00  0.00000000000E+00  0.45593999997E+02  0.45594000000E+02  0.51100000000E-03 0.  1.
         11   -1    0    0    0    0 -0.00000000000E+00 -0.00000000000E+00 -0.45593999997E+02  0.45594000000E+02  0.51100000000E-03 0. -1.
    9900012    2    1    2    0    0 -0.60968723684E+00  0.29017470007E+00 -0.96833374129E+00  0.90007495820E+02  0.89999753965E+02 0.  0.
        -12    1    1    2    0    0  0.60968723684E+00 -0.29017470007E+00  0.96833374129E+00  0.11805041795E+01  0.00000000000E+00 0.  1.
         11    1    3    3    0    0 -0.14199982726E+02 -0.34341540357E+02 -0.92570346131E+01  0.38297174747E+02  0.51100000000E-03 0. -1.
        -11    1    3    3    0    0 -0.73680851976E+01 -0.19265916538E+01 -0.28361732724E+01  0.81267652834E+01  0.51100000000E-03 0.  1.
        -12    1    3    3    0    0  0.20958380687E+02  0.36558306711E+02  0.11124874144E+02  0.43583555790E+02  0.00000000000E+00 0.  1.
</event>
<event>
 7    1  0.2294706E-015  0.9000768E+02  0.7816164E-02  0.1186339E+00
        -11   -1    0    0    0    0  0.00000000000E+00  0.00000000000E+00  0.45593999997E+02  0.45594000000E+02  0.51100000000E-03 0.  1.
         11   -1    0    0    0    0 -0.00000000000E+00 -0.00000000000E+00 -0.45593999997E+02  0.45594000000E+02  0.51100000000E-03 0. -1.
    9900012    2    1    2    0    0  0.18613960715E+00  0.32378470142E+00 -0.11196701930E+01  0.90007684014E+02  0.89999944643E+02 0.  0.
        -12    1    1    2    0    0 -0.18613960715E+00 -0.32378470142E+00  0.11196701930E+01  0.11803159862E+01  0.00000000000E+00 0.  1.
         11    1    3    3    0    0 -0.21972940001E+02 -0.13370284507E+02  0.24530264992E+02  0.35543051373E+02  0.51100000000E-03 0. -1.
        -11    1    3    3    0    0 -0.11277473411E+02  0.73961332878E+00 -0.19153044362E+01  0.11462845448E+02  0.51100000000E-03 0.  1.
        -12    1    3    3    0    0  0.33436553020E+02  0.12954455879E+02 -0.23734630749E+02  0.43001787193E+02  0.00000000000E+00 0.  1.
</event>
<event>
 7    1  0.2294706E-015  0.9000776E+02  0.7816164E-02  0.1186339E+00
        -11   -1    0    0    0    0  0.00000000000E+00  0.00000000000E+00  0.45593999997E+02  0.45594000000E+02  0.51100000000E-03 0. -1.
         11   -1    0    0    0    0 -0.00000000000E+00 -0.00000000000E+00 -0.45593999997E+02  0.45594000000E+02  0.51100000000E-03 0.  1.
    9900012    2    1    2    0    0 -0.63750089487E+00  0.83383334612E+00  0.53971049008E+00  0.90007757291E+02  0.90000018887E+02 0.  0.
        -12    1    1    2    0    0  0.63750089487E+00 -0.83383334612E+00 -0.53971049008E+00  0.11802427094E+01  0.00000000000E+00 0.  1.
         11    1    3    3    0    0 -0.96616036165E+01  0.40357487564E+01 -0.30616648650E+01  0.10909062493E+02  0.51100000000E-03 0. -1.
        -11    1    3    3    0    0 -0.34030688775E+02 -0.59573080438E+01 -0.55630419839E+01  0.34993209827E+02  0.51100000000E-03 0.  1.
         12    1    3    3    0    0  0.43054791496E+02  0.27553926335E+01  0.91644173390E+01  0.44105484971E+02  0.00000000000E+00 0. -1.
</event>
<event>
 7    1  0.2294706E-015  0.9000769E+02  0.7816164E-02  0.1186339E+00
        -11   -1    0    0    0    0  0.00000000000E+00  0.00000000000E+00  0.45593999997E+02  0.45594000000E+02  0.51100000000E-03 0. -1.
         11   -1    0    0    0    0 -0.00000000000E+00 -0.00000000000E+00 -0.45593999997E+02  0.45594000000E+02  0.51100000000E-03 0.  1.
    9900012    2    1    2    0    0 -0.92900657074E+00  0.13988632659E+00 -0.71449557640E+00  0.90007692700E+02  0.89999953444E+02 0.  0.
        -12    1    1    2    0    0  0.92900657074E+00 -0.13988632659E+00  0.71449557640E+00  0.11803072996E+01  0.00000000000E+00 0.  1.
         11    1    3    3    0    0  0.41078565225E+01 -0.79105399800E+01 -0.19560969088E+01  0.91256475585E+01  0.51100000000E-03 0. -1.
        -11    1    3    3    0    0  0.28434518065E+02 -0.10284411058E+02 -0.20902549251E+02  0.36758774379E+02  0.51100000000E-03 0.  1.
         12    1    3    3    0    0 -0.33471381158E+02  0.18334837364E+02  0.22144150583E+02  0.44123270763E+02  0.00000000000E+00 0. -1.
</event>
<event>
 7    1  0.2294706E-015  0.9000774E+02  0.7816164E-02  0.1186339E+00
        -11   -1    0    0    0    0  0.00000000000E+00  0.00000000000E+00  0.45593999997E+02  0.45594000000E+02  0.51100000000E-03 0.  1.
         11   -1    0    0    0    0 -0.00000000000E+00 -0.00000000000E+00 -0.45593999997E+02  0.45594000000E+02  0.51100000000E-03 0. -1.
    9900012    2    1    2    0    0 -0.86735803715E+00 -0.64471784361E+00 -0.47437892669E+00  0.90007743067E+02  0.90000004475E+02 0.  0.
        -12    1    1    2    0    0  0.86735803715E+00  0.64471784361E+00  0.47437892669E+00  0.11802569333E+01  0.00000000000E+00 0.  1.
         11    1    3    3    0    0  0.36466313491E+02 -0.10337362591E+02 -0.19678411057E+02  0.42707059685E+02  0.51100000000E-03 0. -1.
        -11    1    3    3    0    0 -0.90313935514E+01 -0.21929574656E+00 -0.34992960917E+01  0.96880975172E+01  0.51100000000E-03 0.  1.
        -12    1    3    3    0    0 -0.28302277977E+02  0.99119404938E+01  0.22703328222E+02  0.37612585864E+02  0.00000000000E+00 0.  1.
</event>
<event>
 7    1  0.2294706E-015  0.9000787E+02  0.7816164E-02  0.1186339E+00
        -11   -1    0    0    0    0  0.00000000000E+00  0.00000000000E+00  0.45593999997E+02  0.45594000000E+02  0.51100000000E-03 0.  1.
         11   -1    0    0    0    0 -0.00000000000E+00 -0.00000000000E+00 -0.45593999997E+02  0.45594000000E+02  0.51100000000E-03 0. -1.
    9900012    2    1    2    0    0 -0.61922262420E+00 -0.82418447239E+00 -0.57444070717E+00  0.90007873384E+02  0.90000136513E+02 0.  0.
        -12    1    1    2    0    0  0.61922262420E+00  0.82418447239E+00  0.57444070717E+00  0.11801266156E+01  0.00000000000E+00 0.  1.
         11    1    3    3    0    0  0.42409277658E+01  0.35953878262E+02 -0.15972790907E+02  0.39570151377E+02  0.51100000000E-03 0. -1.
        -11    1    3    3    0    0  0.73393112021E+01  0.17872226665E+01  0.18117641294E+01  0.77680205524E+01  0.51100000000E-03 0.  1.
        -12    1    3    3    0    0 -0.12199461592E+02 -0.38565285401E+02  0.13586586070E+02  0.42669701455E+02  0.00000000000E+00 0.  1.
</event>
<event>
 7    1  0.2294706E-015  0.9000781E+02  0.7816164E-02  0.1186339E+00
        -11   -1    0    0    0    0  0.00000000000E+00  0.00000000000E+00  0.45593999997E+02  0.45594000000E+02  0.51100000000E-03 0. -1.
         11   -1    0    0    0    0 -0.00000000000E+00 -0.00000000000E+00 -0.45593999997E+02  0.45594000000E+02  0.51100000000E-03 0.  1.
    9900012    2    1    2    0    0  0.49631265248E+00  0.35553386366E+00  0.10100089374E+01  0.90007809917E+02  0.90000072208E+02 0.  0.
        -12    1    1    2    0    0 -0.49631265248E+00 -0.35553386366E+00 -0.10100089374E+01  0.11801900825E+01  0.00000000000E+00 0.  1.
         11    1    3    3    0    0 -0.63947596848E+01 -0.32454212328E+01  0.69938502122E+01  0.10016968177E+02  0.51100000000E-03 0. -1.
        -11    1    3    3    0    0 -0.28296937984E+01 -0.36566199482E+02 -0.11172983112E+02  0.38339661755E+02  0.51100000000E-03 0.  1.
         12    1    3    3    0    0  0.97207661358E+01  0.40167154579E+02  0.51891418374E+01  0.41651179986E+02  0.00000000000E+00 0. -1.
</event>
<event>
 7    1  0.2294706E-015  0.9000774E+02  0.7816164E-02  0.1186339E+00
        -11   -1    0    0    0    0  0.00000000000E+00  0.00000000000E+00  0.45593999997E+02  0.45594000000E+02  0.51100000000E-03 0. -1.
         11   -1    0    0    0    0 -0.00000000000E+00 -0.00000000000E+00 -0.45593999997E+02  0.45594000000E+02  0.51100000000E-03 0.  1.
    9900012    2    1    2    0    0 -0.98865272186E+00 -0.64422292395E+00  0.23665495053E-01  0.90007738404E+02  0.89999999751E+02 0.  0.
        -12    1    1    2    0    0  0.98865272186E+00  0.64422292395E+00 -0.23665495053E-01  0.11802615964E+01  0.00000000000E+00 0.  1.
         11    1    3    3    0    0 -0.15726176336E+01 -0.12199191268E+01  0.92798201676E+01  0.94908583122E+01  0.51100000000E-03 0. -1.
        -11    1    3    3    0    0 -0.33832024827E+01  0.25488564407E+02  0.26391538672E+02  0.36845980626E+02  0.51100000000E-03 0.  1.
         12    1    3    3    0    0  0.39671673944E+01 -0.24912868204E+02 -0.35647693345E+02  0.43670899465E+02  0.00000000000E+00 0. -1.
</event>
<event>
 7    1  0.2294706E-015  0.9000783E+02  0.7816164E-02  0.1186339E+00
        -11   -1    0    0    0    0  0.00000000000E+00  0.00000000000E+00  0.45593999997E+02  0.45594000000E+02  0.51100000000E-03 0.  1.
         11   -1    0    0    0    0 -0.00000000000E+00 -0.00000000000E+00 -0.45593999997E+02  0.45594000000E+02  0.51100000000E-03 0. -1.
    9900012    2    1    2    0    0  0.10127599745E+01  0.27293055234E+00  0.54096119265E+00  0.90007825071E+02  0.90000087561E+02 0.  0.
        -12    1    1    2    0    0 -0.10127599745E+01 -0.27293055234E+00 -0.54096119265E+00  0.11801749295E+01  0.00000000000E+00 0.  1.
         11    1    3    3    0    0 -0.10928669297E+02 -0.70384498347E+00 -0.13841306591E+02  0.17649730274E+02  0.51100000000E-03 0. -1.
        -11    1    3    3    0    0 -0.13551178062E+02  0.29273646975E+02  0.20434009643E+01  0.32322690511E+02  0.51100000000E-03 0.  1.
         12    1    3    3    0    0  0.25492607333E+02 -0.28296871440E+02  0.12338866819E+02  0.40035404285E+02  0.00000000000E+00 0. -1.
</event>
<event>
 7    1  0.2294706E-015  0.9000771E+02  0.7816164E-02  0.1186339E+00
        -11   -1    0    0    0    0  0.00000000000E+00  0.00000000000E+00  0.45593999997E+02  0.45594000000E+02  0.51100000000E-03 0. -1.
         11   -1    0    0    0    0 -0.00000000000E+00 -0.00000000000E+00 -0.45593999997E+02  0.45594000000E+02  0.51100000000E-03 0.  1.
    9900012    2    1    2    0    0  0.43144988854E+00  0.96662016512E+00  0.52210054498E+00  0.90007706592E+02  0.89999967519E+02 0.  0.
        -12    1    1    2    0    0 -0.43144988854E+00 -0.96662016512E+00 -0.52210054498E+00  0.11802934080E+01  0.00000000000E+00 0.  1.
         11    1    3    3    0    0  0.31746133535E+02  0.18330412834E+02  0.86418084095E+01  0.37663004154E+02  0.51100000000E-03 0. -1.
        -11    1    3    3    0    0 -0.20347713531E+01  0.10847555195E+02 -0.22493786234E+01  0.11263634077E+02  0.51100000000E-03 0.  1.
        -12    1    3    3    0    0 -0.29279912293E+02 -0.28211347864E+02 -0.58703292411E+01  0.41081068360E+02  0.00000000000E+00 0.  1.
</event>
<event>
 7    1  0.2294706E-015  0.9000767E+02  0.7816164E-02  0.1186339E+00
        -11   -1    0    0    0    0  0.00000000000E+00  0.00000000000E+00  0.45593999997E+02  0.45594000000E+02  0.51100000000E-03 0.  1.
         11   -1    0    0    0    0 -0.00000000000E+00 -0.00000000000E+00 -0.45593999997E+02  0.45594000000E+02  0.51100000000E-03 0. -1.
    9900012    2    1    2    0    0  0.10415343093E+01 -0.82821809865E-01 -0.54911701248E+00  0.90007668410E+02  0.89999928833E+02 0.  0.
        -12    1    1    2    0    0 -0.10415343093E+01  0.82821809865E-01  0.54911701248E+00  0.11803315903E+01  0.00000000000E+00 0.  1.
         11    1    3    3    0    0 -0.51640064663E+01  0.64479366893E+01 -0.53203949812E+01  0.98259581390E+01  0.51100000000E-03 0. -1.
        -11    1    3    3    0    0 -0.33571004151E+02 -0.17469047651E+02 -0.38430505160E+01  0.38038782618E+02  0.51100000000E-03 0.  1.
         12    1    3    3    0    0  0.39776544927E+02  0.10938289151E+02  0.86143284847E+01  0.42142927652E+02  0.00000000000E+00 0. -1.
</event>
<event>
 7    1  0.2294706E-015  0.9000770E+02  0.7816164E-02  0.1186339E+00
        -11   -1    0    0    0    0  0.00000000000E+00  0.00000000000E+00  0.45593999997E+02  0.45594000000E+02  0.51100000000E-03 0. -1.
         11   -1    0    0    0    0 -0.00000000000E+00 -0.00000000000E+00 -0.45593999997E+02  0.45594000000E+02  0.51100000000E-03 0.  1.
    9900012    2    1    2    0    0 -0.24853761735E+00 -0.11531368421E+01 -0.40213957537E-01  0.90007698053E+02  0.89999958867E+02 0.  0.
        -12    1    1    2    0    0  0.24853761735E+00  0.11531368421E+01  0.40213957537E-01  0.11803019471E+01  0.00000000000E+00 0.  1.
         11    1    3    3    0    0 -0.20816302388E+02  0.14244395336E+02  0.22346157433E+02  0.33698249151E+02  0.51100000000E-03 0. -1.
        -11    1    3    3    0    0  0.19783533102E+01 -0.82465476469E+01  0.13105970850E+02  0.15610442085E+02  0.51100000000E-03 0.  1.
        -12    1    3    3    0    0  0.18589411460E+02 -0.71509845318E+01 -0.35492342240E+02  0.40699006817E+02  0.00000000000E+00 0.  1.
</event>
<event>
 7    1  0.2294706E-015  0.9000776E+02  0.7816164E-02  0.1186339E+00
        -11   -1    0    0    0    0  0.00000000000E+00  0.00000000000E+00  0.45593999997E+02  0.45594000000E+02  0.51100000000E-03 0. -1.
         11   -1    0    0    0    0 -0.00000000000E+00 -0.00000000000E+00 -0.45593999997E+02  0.45594000000E+02  0.51100000000E-03 0.  1.
    9900012    2    1    2    0    0 -0.92062464538E+00  0.66298560657E+00 -0.32538795333E+00  0.90007755545E+02  0.90000017119E+02 0.  0.
        -12    1    1    2    0    0  0.92062464538E+00 -0.66298560657E+00  0.32538795333E+00  0.11802444545E+01  0.00000000000E+00 0.  1.
         11    1    3    3    0    0 -0.55088741460E+01  0.29008014555E+01  0.72238687357E+01  0.95365938999E+01  0.51100000000E-03 0. -1.
        -11    1    3    3    0    0 -0.36673761217E+02 -0.66378232822E+01 -0.10925686984E+02  0.38838075339E+02  0.51100000000E-03 0.  1.
         12    1    3    3    0    0  0.41262010718E+02  0.44000074333E+01  0.33764302946E+01  0.41633086306E+02  0.00000000000E+00 0. -1.
</event>
<event>
 7    1  0.2294706E-015  0.9000775E+02  0.7816164E-02  0.1186339E+00
        -11   -1    0    0    0    0  0.00000000000E+00  0.00000000000E+00  0.45593999997E+02  0.45594000000E+02  0.51100000000E-03 0. -1.
         11   -1    0    0    0    0 -0.00000000000E+00 -0.00000000000E+00 -0.45593999997E+02  0.45594000000E+02  0.51100000000E-03 0.  1.
    9900012    2    1    2    0    0 -0.89031082802E+00  0.24953411510E+00  0.73352509438E+00  0.90007754386E+02  0.90000015944E+02 0.  0.
        -12    1    1    2    0    0  0.89031082802E+00 -0.24953411510E+00 -0.73352509438E+00  0.11802456139E+01  0.00000000000E+00 0.  1.
         11    1    3    3    0    0  0.22929998827E+01 -0.14235463919E+02  0.38388488756E+02  0.41007101222E+02  0.51100000000E-03 0. -1.
        -11    1    3    3    0    0 -0.49867521628E+01  0.22693232904E+01  0.31832449831E+01  0.63364480755E+01  0.51100000000E-03 0.  1.
        -12    1    3    3    0    0  0.18034414521E+01  0.12215674744E+02 -0.40838208644E+02  0.42664205088E+02  0.00000000000E+00 0.  1.
</event>
<event>
 7    1  0.2294706E-015  0.9000771E+02  0.7816164E-02  0.1186339E+00
        -11   -1    0    0    0    0  0.00000000000E+00  0.00000000000E+00  0.45593999997E+02  0.45594000000E+02  0.51100000000E-03 0.  1.
         11   -1    0    0    0    0 -0.00000000000E+00 -0.00000000000E+00 -0.45593999997E+02  0.45594000000E+02  0.51100000000E-03 0. -1.
    9900012    2    1    2    0    0  0.24464072587E+00 -0.68188813672E+00 -0.93180672837E+00  0.90007710080E+02  0.89999971053E+02 0.  0.
        -12    1    1    2    0    0 -0.24464072587E+00  0.68188813672E+00  0.93180672837E+00  0.11802899198E+01  0.00000000000E+00 0.  1.
         11    1    3    3    0    0 -0.18661754399E+01  0.41925424808E+01 -0.76949776325E+01  0.89595035717E+01  0.51100000000E-03 0. -1.
        -11    1    3    3    0    0  0.31828884999E+02 -0.22420039732E+02 -0.13284816591E+02  0.41136631534E+02  0.51100000000E-03 0.  1.
         12    1    3    3    0    0 -0.29718068833E+02  0.17545609114E+02  0.20047987495E+02  0.39911574975E+02  0.00000000000E+00 0. -1.
</event>
<event>
 7    1  0.2294706E-015  0.9000744E+02  0.7816164E-02  0.1186340E+00
        -11   -1    0    0    0    0  0.00000000000E+00  0.00000000000E+00  0.45593999997E+02  0.45594000000E+02  0.51100000000E-03 0.  1.
         11   -1    0    0    0    0 -0.00000000000E+00 -0.00000000000E+00 -0.45593999997E+02  0.45594000000E+02  0.51100000000E-03 0. -1.
    9900012    2    1    2    0    0 -0.11673929662E+01 -0.16806404786E+00 -0.51589452580E-01  0.90007443634E+02  0.89999701089E+02 0.  0.
        -12    1    1    2    0    0  0.11673929662E+01  0.16806404786E+00  0.51589452580E-01  0.11805563660E+01  0.00000000000E+00 0.  1.
         11    1    3    3    0    0  0.67228189665E+01 -0.78229403407E+01 -0.50367523410E+00  0.10327070225E+02  0.51100000000E-03 0. -1.
        -11    1    3    3    0    0  0.47802778784E+00 -0.35606390356E+02 -0.29620656385E+00  0.35610830984E+02  0.51100000000E-03 0.  1.
         12    1    3    3    0    0 -0.83682397205E+01  0.43261266649E+02  0.74829234536E+00  0.44069542425E+02  0.00000000000E+00 0. -1.
</event>
<event>
 7    1  0.2294706E-015  0.9000774E+02  0.7816164E-02  0.1186339E+00
        -11   -1    0    0    0    0  0.00000000000E+00  0.00000000000E+00  0.45593999997E+02  0.45594000000E+02  0.51100000000E-03 0.  1.
         11   -1    0    0    0    0 -0.00000000000E+00 -0.00000000000E+00 -0.45593999997E+02  0.45594000000E+02  0.51100000000E-03 0. -1.
    9900012    2    1    2    0    0 -0.66855769541E+00 -0.96512537719E+00 -0.12070057746E+00  0.90007743665E+02  0.90000005082E+02 0.  0.
        -12    1    1    2    0    0  0.66855769541E+00  0.96512537719E+00  0.12070057746E+00  0.11802563345E+01  0.00000000000E+00 0.  1.
         11    1    3    3    0    0  0.30539650658E+02 -0.41782838802E+01 -0.19610715612E+02  0.36533662362E+02  0.51100000000E-03 0. -1.
        -11    1    3    3    0    0  0.48918386215E+01 -0.77249412503E+01 -0.29200341341E+01  0.95985104065E+01  0.51100000000E-03 0.  1.
        -12    1    3    3    0    0 -0.36100046975E+02  0.10938099753E+02  0.22410049169E+02  0.43875570897E+02  0.00000000000E+00 0.  1.
</event>
<event>
 7    1  0.2294706E-015  0.9000774E+02  0.7816164E-02  0.1186339E+00
        -11   -1    0    0    0    0  0.00000000000E+00  0.00000000000E+00  0.45593999997E+02  0.45594000000E+02  0.51100000000E-03 0. -1.
         11   -1    0    0    0    0 -0.00000000000E+00 -0.00000000000E+00 -0.45593999997E+02  0.45594000000E+02  0.51100000000E-03 0.  1.
    9900012    2    1    2    0    0 -0.62958671481E+00  0.88133161532E+00  0.46892065927E+00  0.90007740947E+02  0.90000002327E+02 0.  0.
        -12    1    1    2    0    0  0.62958671481E+00 -0.88133161532E+00 -0.46892065927E+00  0.11802590531E+01  0.00000000000E+00 0.  1.
         11    1    3    3    0    0  0.34677200795E+02  0.80019816092E+01  0.23302510031E+01  0.35664688905E+02  0.51100000000E-03 0. -1.
        -11    1    3    3    0    0  0.20596109905E+01  0.10762173759E+02  0.55137226178E+01  0.12266520240E+02  0.51100000000E-03 0.  1.
        -12    1    3    3    0    0 -0.37366398501E+02 -0.17882823752E+02 -0.73750529617E+01  0.42076531802E+02  0.00000000000E+00 0.  1.
</event>
<event>
 7    1  0.2294706E-015  0.9000753E+02  0.7816164E-02  0.1186339E+00
        -11   -1    0    0    0    0  0.00000000000E+00  0.00000000000E+00  0.45593999997E+02  0.45594000000E+02  0.51100000000E-03 0.  1.
         11   -1    0    0    0    0 -0.00000000000E+00 -0.00000000000E+00 -0.45593999997E+02  0.45594000000E+02  0.51100000000E-03 0. -1.
    9900012    2    1    2    0    0 -0.65048024522E+00 -0.97205158184E+00 -0.15966178710E+00  0.90007533688E+02  0.89999792333E+02 0.  0.
        -12    1    1    2    0    0  0.65048024522E+00  0.97205158184E+00  0.15966178710E+00  0.11804663119E+01  0.00000000000E+00 0.  1.
         11    1    3    3    0    0 -0.75528448302E+00 -0.13034185935E+01  0.98014719173E+01  0.99165622414E+01  0.51100000000E-03 0. -1.
        -11    1    3    3    0    0 -0.17985468658E+02  0.19796749627E+02  0.24705642212E+02  0.36410948024E+02  0.51100000000E-03 0.  1.
         12    1    3    3    0    0  0.18090272896E+02 -0.19465382616E+02 -0.34666775916E+02  0.43680023423E+02  0.00000000000E+00 0. -1.
</event>
<event>
 7    1  0.2294706E-015  0.9000775E+02  0.7816164E-02  0.1186339E+00
        -11   -1    0    0    0    0  0.00000000000E+00  0.00000000000E+00  0.45593999997E+02  0.45594000000E+02  0.51100000000E-03 0. -1.
         11   -1    0    0    0    0 -0.00000000000E+00 -0.00000000000E+00 -0.45593999997E+02  0.45594000000E+02  0.51100000000E-03 0.  1.
    9900012    2    1    2    0    0  0.91227210737E+00 -0.44966220877E+00  0.59879925750E+00  0.90007747040E+02  0.90000008500E+02 0.  0.
        -12    1    1    2    0    0 -0.91227210737E+00  0.44966220877E+00 -0.59879925750E+00  0.11802529605E+01  0.00000000000E+00 0.  1.
         11    1    3    3    0    0  0.93698086124E+01 -0.22797130420E+02  0.31606818578E+02  0.40081085935E+02  0.51100000000E-03 0. -1.
        -11    1    3    3    0    0 -0.60024975336E+01 -0.69534439224E+01 -0.40631599889E+01  0.10044382927E+02  0.51100000000E-03 0.  1.
        -12    1    3    3    0    0 -0.24550389714E+01  0.29300912134E+02 -0.26944859332E+02  0.39882278178E+02  0.00000000000E+00 0.  1.
</event>
<event>
 7    1  0.2294706E-015  0.9000768E+02  0.7816164E-02  0.1186339E+00
        -11   -1    0    0    0    0  0.00000000000E+00  0.00000000000E+00  0.45593999997E+02  0.45594000000E+02  0.51100000000E-03 0.  1.
         11   -1    0    0    0    0 -0.00000000000E+00 -0.00000000000E+00 -0.45593999997E+02  0.45594000000E+02  0.51100000000E-03 0. -1.
    9900012    2    1    2    0    0 -0.10038110728E+01  0.81065787516E-01 -0.61559012979E+00  0.90007678205E+02  0.89999938757E+02 0.  0.
        -12    1    1    2    0    0  0.10038110728E+01 -0.81065787516E-01  0.61559012979E+00  0.11803217949E+01  0.00000000000E+00 0.  1.
         11    1    3    3    0    0  0.26566492616E+01  0.10398097810E+02 -0.39146055907E+02  0.40590539744E+02  0.51100000000E-03 0. -1.
        -11    1    3    3    0    0 -0.67672500457E+01 -0.60049828901E+01 -0.13820300804E+01  0.91523494304E+01  0.51100000000E-03 0.  1.
        -12    1    3    3    0    0  0.31067897114E+01 -0.43120491323E+01  0.39912495858E+02  0.40264789030E+02  0.00000000000E+00 0.  1.
</event>
<event>
 7    1  0.2294706E-015  0.9000776E+02  0.7816164E-02  0.1186339E+00
        -11   -1    0    0    0    0  0.00000000000E+00  0.00000000000E+00  0.45593999997E+02  0.45594000000E+02  0.51100000000E-03 0.  1.
         11   -1    0    0    0    0 -0.00000000000E+00 -0.00000000000E+00 -0.45593999997E+02  0.45594000000E+02  0.51100000000E-03 0. -1.
    9900012    2    1    2    0    0 -0.91038492158E-02  0.11801734121E+01  0.91646425307E-02  0.90007755893E+02  0.90000017470E+02 0.  0.
        -12    1    1    2    0    0  0.91038492158E-02 -0.11801734121E+01 -0.91646425307E-02  0.11802441075E+01  0.00000000000E+00 0.  1.
         11    1    3    3    0    0 -0.93095650794E+01 -0.13054505074E+01  0.39646346300E+01  0.10202476709E+02  0.51100000000E-03 0. -1.
        -11    1    3    3    0    0  0.13374317438E+01  0.37709454910E+02  0.13000561093E+02  0.39909977477E+02  0.51100000000E-03 0.  1.
         12    1    3    3    0    0  0.79630294864E+01 -0.35223830990E+02 -0.16956031080E+02  0.39895301706E+02  0.00000000000E+00 0. -1.
</event>
<event>
 7    1  0.2294706E-015  0.9000720E+02  0.7816164E-02  0.1186340E+00
        -11   -1    0    0    0    0  0.00000000000E+00  0.00000000000E+00  0.45593999997E+02  0.45594000000E+02  0.51100000000E-03 0.  1.
         11   -1    0    0    0    0 -0.00000000000E+00 -0.00000000000E+00 -0.45593999997E+02  0.45594000000E+02  0.51100000000E-03 0. -1.
    9900012    2    1    2    0    0 -0.44124552219E+00  0.84746741765E+00 -0.69381458522E+00  0.90007204796E+02  0.89999459098E+02 0.  0.
        -12    1    1    2    0    0  0.44124552219E+00 -0.84746741765E+00  0.69381458522E+00  0.11807952039E+01  0.00000000000E+00 0.  1.
         11    1    3    3    0    0 -0.24637968277E+02  0.11269658715E+01  0.29707343666E+02  0.38611213408E+02  0.51100000000E-03 0. -1.
        -11    1    3    3    0    0  0.53784879640E+01 -0.81642597451E+01  0.46598293210E+01  0.10830386860E+02  0.51100000000E-03 0.  1.
        -12    1    3    3    0    0  0.18818234791E+02  0.78847612913E+01 -0.35060987572E+02  0.40565604529E+02  0.00000000000E+00 0.  1.
</event>
<event>
 7    1  0.2294706E-015  0.9000781E+02  0.7816164E-02  0.1186339E+00
        -11   -1    0    0    0    0  0.00000000000E+00  0.00000000000E+00  0.45593999997E+02  0.45594000000E+02  0.51100000000E-03 0.  1.
         11   -1    0    0    0    0 -0.00000000000E+00 -0.00000000000E+00 -0.45593999997E+02  0.45594000000E+02  0.51100000000E-03 0. -1.
    9900012    2    1    2    0    0  0.39683463018E+00  0.73634151277E+00 -0.83256375773E+00  0.90007814016E+02  0.90000076361E+02 0.  0.
        -12    1    1    2    0    0 -0.39683463018E+00 -0.73634151277E+00  0.83256375773E+00  0.11801859844E+01  0.00000000000E+00 0.  1.
         11    1    3    3    0    0 -0.18689852191E+01  0.12036773483E+02 -0.42971260102E+01  0.12916745482E+02  0.51100000000E-03 0. -1.
        -11    1    3    3    0    0  0.13042588915E+01  0.32509169650E+02  0.64531648629E+01  0.33169120271E+02  0.51100000000E-03 0.  1.
         12    1    3    3    0    0  0.96156095773E+00 -0.43809601620E+02 -0.29886026104E+01  0.43921948262E+02  0.00000000000E+00 0. -1.
</event>
<event>
 7    1  0.2294706E-015  0.9000771E+02  0.7816164E-02  0.1186339E+00
        -11   -1    0    0    0    0  0.00000000000E+00  0.00000000000E+00  0.45593999997E+02  0.45594000000E+02  0.51100000000E-03 0. -1.
         11   -1    0    0    0    0 -0.00000000000E+00 -0.00000000000E+00 -0.45593999997E+02  0.45594000000E+02  0.51100000000E-03 0.  1.
    9900012    2    1    2    0    0  0.34566872960E+00  0.50485058065E+00  0.10093170872E+01  0.90007711068E+02  0.89999972055E+02 0.  0.
        -12    1    1    2    0    0 -0.34566872960E+00 -0.50485058065E+00 -0.10093170872E+01  0.11802889315E+01  0.00000000000E+00 0.  1.
         11    1    3    3    0    0  0.36366427543E+02  0.15707462508E+02  0.90903283675E+01  0.40643271285E+02  0.51100000000E-03 0. -1.
        -11    1    3    3    0    0 -0.84141352479E+00 -0.50743981730E+01  0.78943661226E+01  0.94222348876E+01  0.51100000000E-03 0.  1.
        -12    1    3    3    0    0 -0.35179345288E+02 -0.10128213754E+02 -0.15975377403E+02  0.39942204896E+02  0.00000000000E+00 0.  1.
</event>
<event>
 7    1  0.2294706E-015  0.9000771E+02  0.7816164E-02  0.1186339E+00
        -11   -1    0    0    0    0  0.00000000000E+00  0.00000000000E+00  0.45593999997E+02  0.45594000000E+02  0.51100000000E-03 0. -1.
         11   -1    0    0    0    0 -0.00000000000E+00 -0.00000000000E+00 -0.45593999997E+02  0.45594000000E+02  0.51100000000E-03 0.  1.
    9900012    2    1    2    0    0  0.83248708962E+00 -0.72131156309E+00  0.42396997083E+00  0.90007713737E+02  0.89999974759E+02 0.  0.
        -12    1    1    2    0    0 -0.83248708962E+00  0.72131156309E+00 -0.42396997083E+00  0.11802862626E+01  0.00000000000E+00 0.  1.
         11    1    3    3    0    0  0.28275255779E+01  0.40160629525E+01  0.62810023914E+01  0.79733715474E+01  0.51100000000E-03 0. -1.
        -11    1    3    3    0    0  0.22860935205E+02  0.30580888375E+02 -0.70651733393E+01  0.38829496093E+02  0.51100000000E-03 0.  1.
         12    1    3    3    0    0 -0.24855973693E+02 -0.35318262891E+02  0.12081409187E+01  0.43204846097E+02  0.00000000000E+00 0. -1.
</event>
<event>
 7    1  0.2294706E-015  0.9000766E+02  0.7816164E-02  0.1186339E+00
        -11   -1    0    0    0    0  0.00000000000E+00  0.00000000000E+00  0.45593999997E+02  0.45594000000E+02  0.51100000000E-03 0. -1.
         11   -1    0    0    0    0 -0.00000000000E+00 -0.00000000000E+00 -0.45593999997E+02  0.45594000000E+02  0.51100000000E-03 0.  1.
    9900012    2    1    2    0    0 -0.36291034275E+00 -0.10703290748E+01  0.34042819842E+00  0.90007661234E+02  0.89999921562E+02 0.  0.
        -12    1    1    2    0    0  0.36291034275E+00  0.10703290748E+01 -0.34042819842E+00  0.11803387664E+01  0.00000000000E+00 0.  1.
         11    1    3    3    0    0  0.93819204402E+00 -0.66065375441E+01 -0.76802197368E+01  0.10174100358E+02  0.51100000000E-03 0. -1.
        -11    1    3    3    0    0 -0.15194239269E+02 -0.18056953210E+02 -0.26688120510E+02  0.35625471826E+02  0.51100000000E-03 0.  1.
         12    1    3    3    0    0  0.13893136882E+02  0.23593161679E+02  0.34708768445E+02  0.44208089050E+02  0.00000000000E+00 0. -1.
</event>
<event>
 7    1  0.2294706E-015  0.9000791E+02  0.7816164E-02  0.1186339E+00
        -11   -1    0    0    0    0  0.00000000000E+00  0.00000000000E+00  0.45593999997E+02  0.45594000000E+02  0.51100000000E-03 0.  1.
         11   -1    0    0    0    0 -0.00000000000E+00 -0.00000000000E+00 -0.45593999997E+02  0.45594000000E+02  0.51100000000E-03 0. -1.
    9900012    2    1    2    0    0  0.67926678970E-01 -0.11180075496E+01 -0.37155877571E+00  0.90007910665E+02  0.90000174286E+02 0.  0.
        -12    1    1    2    0    0 -0.67926678970E-01  0.11180075496E+01  0.37155877571E+00  0.11800893350E+01  0.00000000000E+00 0.  1.
         11    1    3    3    0    0  0.67223050992E+01 -0.44567131985E+01  0.58628258850E+01  0.99711787668E+01  0.51100000000E-03 0. -1.
        -11    1    3    3    0    0  0.58793830405E+01  0.39772883466E+02  0.33139939156E+01  0.40341442216E+02  0.51100000000E-03 0.  1.
         12    1    3    3    0    0 -0.12533761461E+02 -0.36434177817E+02 -0.95483785763E+01  0.39695289683E+02  0.00000000000E+00 0. -1.
</event>
<event>
 7    1  0.2294706E-015  0.9000771E+02  0.7816164E-02  0.1186339E+00
        -11   -1    0    0    0    0  0.00000000000E+00  0.00000000000E+00  0.45593999997E+02  0.45594000000E+02  0.51100000000E-03 0.  1.
         11   -1    0    0    0    0 -0.00000000000E+00 -0.00000000000E+00 -0.45593999997E+02  0.45594000000E+02  0.51100000000E-03 0. -1.
    9900012    2    1    2    0    0 -0.68919407457E+00 -0.96211994491E-01 -0.95333255114E+00  0.90007708437E+02  0.89999969388E+02 0.  0.
        -12    1    1    2    0    0  0.68919407457E+00  0.96211994491E-01  0.95333255114E+00  0.11802915629E+01  0.00000000000E+00 0.  1.
         11    1    3    3    0    0  0.25294270073E+02 -0.77720686494E+01  0.17306410962E+02  0.31618301824E+02  0.51100000000E-03 0. -1.
        -11    1    3    3    0    0 -0.23085380125E+00 -0.14727133362E+02  0.66226341084E+01  0.16149335384E+02  0.51100000000E-03 0.  1.
         12    1    3    3    0    0 -0.25752610346E+02  0.22402990017E+02 -0.24882377622E+02  0.42240071229E+02  0.00000000000E+00 0. -1.
</event>
<event>
 7    1  0.2294706E-015  0.9000773E+02  0.7816164E-02  0.1186339E+00
        -11   -1    0    0    0    0  0.00000000000E+00  0.00000000000E+00  0.45593999997E+02  0.45594000000E+02  0.51100000000E-03 0. -1.
         11   -1    0    0    0    0 -0.00000000000E+00 -0.00000000000E+00 -0.45593999997E+02  0.45594000000E+02  0.51100000000E-03 0.  1.
    9900012    2    1    2    0    0 -0.14214469849E+00 -0.71261960115E+00  0.93006253878E+00  0.90007725398E+02  0.89999986573E+02 0.  0.
        -12    1    1    2    0    0  0.14214469849E+00  0.71261960115E+00 -0.93006253878E+00  0.11802746025E+01  0.00000000000E+00 0.  1.
         11    1    3    3    0    0 -0.38254422747E+01  0.69408770533E+01 -0.82014590153E+01  0.11404986327E+02  0.51100000000E-03 0. -1.
        -11    1    3    3    0    0 -0.70180684204E+01 -0.32612723993E+02 -0.19904546105E+02  0.38846286907E+02  0.51100000000E-03 0.  1.
         12    1    3    3    0    0  0.10701365997E+02  0.24959227338E+02  0.29036067659E+02  0.39756452164E+02  0.00000000000E+00 0. -1.
</event>
<event>
 7    1  0.2294706E-015  0.9000791E+02  0.7816164E-02  0.1186339E+00
        -11   -1    0    0    0    0  0.00000000000E+00  0.00000000000E+00  0.45593999997E+02  0.45594000000E+02  0.51100000000E-03 0. -1.
         11   -1    0    0    0    0 -0.00000000000E+00 -0.00000000000E+00 -0.45593999997E+02  0.45594000000E+02  0.51100000000E-03 0.  1.
    9900012    2    1    2    0    0  0.13969607669E+00  0.10758186490E+01  0.46445162528E+00  0.90007908448E+02  0.90000172039E+02 0.  0.
        -12    1    1    2    0    0 -0.13969607669E+00 -0.10758186490E+01 -0.46445162528E+00  0.11800915522E+01  0.00000000000E+00 0.  1.
         11    1    3    3    0    0  0.55876599511E+01  0.74076363418E+01 -0.76567670619E+00  0.93102782440E+01  0.51100000000E-03 0. -1.
        -11    1    3    3    0    0  0.21911964773E+01  0.90892296066E+01 -0.37323854142E+02  0.38477077918E+02  0.51100000000E-03 0.  1.
         12    1    3    3    0    0 -0.76391603518E+01 -0.15421047299E+02  0.38553982474E+02  0.42220552285E+02  0.00000000000E+00 0. -1.
</event>
<event>
 7    1  0.2294706E-015  0.9000773E+02  0.7816164E-02  0.1186339E+00
        -11   -1    0    0    0    0  0.00000000000E+00  0.00000000000E+00  0.45593999997E+02  0.45594000000E+02  0.51100000000E-03 0. -1.
         11   -1    0    0    0    0 -0.00000000000E+00 -0.00000000000E+00 -0.45593999997E+02  0.45594000000E+02  0.51100000000E-03 0.  1.
    9900012    2    1    2    0    0 -0.30515588672E+00  0.79546609820E+00  0.81679342605E+00  0.90007729722E+02  0.89999990954E+02 0.  0.
        -12    1    1    2    0    0  0.30515588672E+00 -0.79546609820E+00 -0.81679342605E+00  0.11802702781E+01  0.00000000000E+00 0.  1.
         11    1    3    3    0    0  0.72817181627E+01  0.61955354394E+01 -0.32785756526E+01  0.10107281403E+02  0.51100000000E-03 0. -1.
        -11    1    3    3    0    0 -0.16615617189E+02  0.90586053991E+01 -0.33581554165E+02  0.38546826676E+02  0.51100000000E-03 0.  1.
         12    1    3    3    0    0  0.90287431398E+01 -0.14458674740E+02  0.37676923244E+02  0.41353621644E+02  0.00000000000E+00 0. -1.
</event>
<event>
 7    1  0.2959652E-015  0.9000794E+02  0.7816164E-02  0.1186339E+00
        -11   -1    0    0    0    0  0.00000000000E+00  0.00000000000E+00  0.45593999997E+02  0.45594000000E+02  0.51100000000E-03 0. -1.
         11   -1    0    0    0    0 -0.00000000000E+00 -0.00000000000E+00 -0.45593999997E+02  0.45594000000E+02  0.51100000000E-03 0.  1.
    9900012    2    1    2    0    0 -0.65369447803E+00  0.72808690202E+00  0.65962870418E+00  0.90007941936E+02  0.90000205969E+02 0.  0.
        -12    1    1    2    0    0  0.65369447803E+00 -0.72808690202E+00 -0.65962870418E+00  0.11800580642E+01  0.00000000000E+00 0.  1.
         11    1    3    3    0    0  0.21580197422E+02  0.44406798618E+01  0.31688404921E+02  0.38595071772E+02  0.51100000000E-03 0. -1.
        -11    1    3    3    0    0  0.81428761927E+01 -0.47651137218E+01 -0.25794596102E+01  0.97809178308E+01  0.51100000000E-03 0.  1.
        -12    1    3    3    0    0 -0.30376768092E+02  0.10525207620E+01 -0.28449316606E+02  0.41631952333E+02  0.00000000000E+00 0.  1.
</event>
<event>
 7    1  0.2294706E-015  0.9000767E+02  0.7816164E-02  0.1186339E+00
        -11   -1    0    0    0    0  0.00000000000E+00  0.00000000000E+00  0.45593999997E+02  0.45594000000E+02  0.51100000000E-03 0. -1.
         11   -1    0    0    0    0 -0.00000000000E+00 -0.00000000000E+00 -0.45593999997E+02  0.45594000000E+02  0.51100000000E-03 0.  1.
    9900012    2    1    2    0    0 -0.79265577091E+00 -0.42596516516E+00  0.76382906129E+00  0.90007667704E+02  0.89999928118E+02 0.  0.
        -12    1    1    2    0    0  0.79265577091E+00  0.42596516516E+00 -0.76382906129E+00  0.11803322956E+01  0.00000000000E+00 0.  1.
         11    1    3    3    0    0 -0.77458259111E+01 -0.35105171839E+01  0.66571592392E+01  0.10799968488E+02  0.51100000000E-03 0. -1.
        -11    1    3    3    0    0 -0.61382909137E+01 -0.33996270872E+02  0.11218565976E+02  0.36321911725E+02  0.51100000000E-03 0.  1.
         12    1    3    3    0    0  0.13091461054E+02  0.37080822891E+02 -0.17111896154E+02  0.42885787491E+02  0.00000000000E+00 0. -1.
</event>
<event>
 7    1  0.2294706E-015  0.9000771E+02  0.7816164E-02  0.1186339E+00
        -11   -1    0    0    0    0  0.00000000000E+00  0.00000000000E+00  0.45593999997E+02  0.45594000000E+02  0.51100000000E-03 0. -1.
         11   -1    0    0    0    0 -0.00000000000E+00 -0.00000000000E+00 -0.45593999997E+02  0.45594000000E+02  0.51100000000E-03 0.  1.
    9900012    2    1    2    0    0 -0.49579205967E+00  0.48024518244E+00  0.95741498090E+00  0.90007708236E+02  0.89999969185E+02 0.  0.
        -12    1    1    2    0    0  0.49579205967E+00 -0.48024518244E+00 -0.95741498090E+00  0.11802917636E+01  0.00000000000E+00 0.  1.
         11    1    3    3    0    0 -0.25123253836E+02 -0.16431989581E+02  0.20224166311E+02  0.36196754939E+02  0.51100000000E-03 0. -1.
        -11    1    3    3    0    0  0.84678835961E+01 -0.12438005648E+02  0.22561990687E+00  0.15048586037E+02  0.51100000000E-03 0.  1.
        -12    1    3    3    0    0  0.16159578180E+02  0.29350240412E+02 -0.19492371237E+02  0.38762367260E+02  0.00000000000E+00 0.  1.
</event>
<event>
 7    1  0.2294706E-015  0.9000773E+02  0.7816164E-02  0.1186339E+00
        -11   -1    0    0    0    0  0.00000000000E+00  0.00000000000E+00  0.45593999997E+02  0.45594000000E+02  0.51100000000E-03 0.  1.
         11   -1    0    0    0    0 -0.00000000000E+00 -0.00000000000E+00 -0.45593999997E+02  0.45594000000E+02  0.51100000000E-03 0. -1.
    9900012    2    1    2    0    0  0.62221538966E+00  0.85735957630E+00 -0.52040398845E+00  0.90007729800E+02  0.89999991033E+02 0.  0.
        -12    1    1    2    0    0 -0.62221538966E+00 -0.85735957630E+00  0.52040398845E+00  0.11802702002E+01  0.00000000000E+00 0.  1.
         11    1    3    3    0    0  0.40090855472E+02  0.52887457239E+01 -0.11146092589E+02  0.41946190578E+02  0.51100000000E-03 0. -1.
        -11    1    3    3    0    0 -0.38050920141E+01  0.70981448077E+01 -0.23640495977E+01  0.83935162899E+01  0.51100000000E-03 0.  1.
        -12    1    3    3    0    0 -0.35663548068E+02 -0.11529530955E+02  0.12989738198E+02  0.39668022932E+02  0.00000000000E+00 0.  1.
</event>
<event>
 7    1  0.2294706E-015  0.9000777E+02  0.7816164E-02  0.1186339E+00
        -11   -1    0    0    0    0  0.00000000000E+00  0.00000000000E+00  0.45593999997E+02  0.45594000000E+02  0.51100000000E-03 0. -1.
         11   -1    0    0    0    0 -0.00000000000E+00 -0.00000000000E+00 -0.45593999997E+02  0.45594000000E+02  0.51100000000E-03 0.  1.
    9900012    2    1    2    0    0 -0.45528214472E+00  0.24301354084E+00  0.10614173022E+01  0.90007769471E+02  0.90000031228E+02 0.  0.
        -12    1    1    2    0    0  0.45528214472E+00 -0.24301354084E+00 -0.10614173022E+01  0.11802305290E+01  0.00000000000E+00 0.  1.
         11    1    3    3    0    0 -0.13791296680E+01  0.14321062440E+02  0.32552779167E+02  0.35590423709E+02  0.51100000000E-03 0. -1.
        -11    1    3    3    0    0  0.29070283557E+01  0.49270407738E+01  0.84130755464E+01  0.10173808778E+02  0.51100000000E-03 0.  1.
        -12    1    3    3    0    0 -0.19831808324E+01 -0.19005089673E+02 -0.39904437411E+02  0.44243536983E+02  0.00000000000E+00 0.  1.
</event>
<event>
 7    1  0.2294706E-015  0.9000789E+02  0.7816164E-02  0.1186339E+00
        -11   -1    0    0    0    0  0.00000000000E+00  0.00000000000E+00  0.45593999997E+02  0.45594000000E+02  0.51100000000E-03 0. -1.
         11   -1    0    0    0    0 -0.00000000000E+00 -0.00000000000E+00 -0.45593999997E+02  0.45594000000E+02  0.51100000000E-03 0.  1.
    9900012    2    1    2    0    0  0.57350105774E+00  0.37880964549E+00  0.95930398964E+00  0.90007887990E+02  0.90000151312E+02 0.  0.
        -12    1    1    2    0    0 -0.57350105774E+00 -0.37880964549E+00 -0.95930398964E+00  0.11801120096E+01  0.00000000000E+00 0.  1.
         11    1    3    3    0    0  0.35714023260E+02 -0.18262554655E+02  0.12261300616E+02  0.41944628416E+02  0.51100000000E-03 0. -1.
        -11    1    3    3    0    0 -0.83165366679E+01  0.53615569738E+01  0.77622320672E+01  0.12576300023E+02  0.51100000000E-03 0.  1.
        -12    1    3    3    0    0 -0.26823985534E+02  0.13279807326E+02 -0.19064228694E+02  0.35486959552E+02  0.00000000000E+00 0.  1.
</event>
<event>
 7    1  0.2294706E-015  0.9000768E+02  0.7816164E-02  0.1186339E+00
        -11   -1    0    0    0    0  0.00000000000E+00  0.00000000000E+00  0.45593999997E+02  0.45594000000E+02  0.51100000000E-03 0. -1.
         11   -1    0    0    0    0 -0.00000000000E+00 -0.00000000000E+00 -0.45593999997E+02  0.45594000000E+02  0.51100000000E-03 0.  1.
    9900012    2    1    2    0    0 -0.11478526334E+01  0.31185436864E-01  0.27314562135E+00  0.90007683631E+02  0.89999944255E+02 0.  0.
        -12    1    1    2    0    0  0.11478526334E+01 -0.31185436864E-01 -0.27314562135E+00  0.11803163685E+01  0.00000000000E+00 0.  1.
         11    1    3    3    0    0  0.24935645343E+02  0.25224576016E+02  0.12039550004E+01  0.35489648516E+02  0.51100000000E-03 0. -1.
        -11    1    3    3    0    0  0.94343352675E+01  0.56595706600E+00  0.42020277887E+01  0.10343308327E+02  0.51100000000E-03 0.  1.
        -12    1    3    3    0    0 -0.35517833244E+02 -0.25759347645E+02 -0.51328371677E+01  0.44174726789E+02  0.00000000000E+00 0.  1.
</event>
<event>
 7    1  0.2894908E-015  0.9000776E+02  0.7816164E-02  0.1186339E+00
        -11   -1    0    0    0    0  0.00000000000E+00  0.00000000000E+00  0.45593999997E+02  0.45594000000E+02  0.51100000000E-03 0.  1.
         11   -1    0    0    0    0 -0.00000000000E+00 -0.00000000000E+00 -0.45593999997E+02  0.45594000000E+02  0.51100000000E-03 0. -1.
    9900012    2    1    2    0    0 -0.66559361068E+00  0.34233048249E+00 -0.91256033772E+00  0.90007757913E+02  0.90000019518E+02 0.  0.
        -12    1    1    2    0    0  0.66559361068E+00 -0.34233048249E+00  0.91256033772E+00  0.11802420869E+01  0.00000000000E+00 0.  1.
         11    1    3    3    0    0 -0.21468954900E+01  0.11373576079E+02 -0.38767152157E+02  0.40458120071E+02  0.51100000000E-03 0. -1.
        -11    1    3    3    0    0 -0.74371280102E+01 -0.61968363876E+01 -0.67786728930E+00  0.97041825301E+01  0.51100000000E-03 0.  1.
        -12    1    3    3    0    0  0.89184298895E+01 -0.48344092090E+01  0.38532459108E+02  0.39845455312E+02  0.00000000000E+00 0.  1.
</event>
<event>
 7    1  0.2294706E-015  0.9000779E+02  0.7816164E-02  0.1186339E+00
        -11   -1    0    0    0    0  0.00000000000E+00  0.00000000000E+00  0.45593999997E+02  0.45594000000E+02  0.51100000000E-03 0.  1.
         11   -1    0    0    0    0 -0.00000000000E+00 -0.00000000000E+00 -0.45593999997E+02  0.45594000000E+02  0.51100000000E-03 0. -1.
    9900012    2    1    2    0    0 -0.24294554402E-01  0.56516538075E+00 -0.10358114221E+01  0.90007785005E+02  0.90000046967E+02 0.  0.
        -12    1    1    2    0    0  0.24294554402E-01 -0.56516538075E+00  0.10358114221E+01  0.11802149953E+01  0.00000000000E+00 0.  1.
         11    1    3    3    0    0 -0.27770103420E+02  0.53082080474E+01 -0.26204228042E+02  0.38548894721E+02  0.51100000000E-03 0. -1.
        -11    1    3    3    0    0 -0.74893328897E+01 -0.17134096814E+00 -0.67808726185E+00  0.75219191338E+01  0.51100000000E-03 0.  1.
        -12    1    3    3    0    0  0.35235141755E+02 -0.45717016985E+01  0.25846503882E+02  0.43936971150E+02  0.00000000000E+00 0.  1.
</event>
<event>
 7    1  0.2294706E-015  0.9000776E+02  0.7816164E-02  0.1186339E+00
        -11   -1    0    0    0    0  0.00000000000E+00  0.00000000000E+00  0.45593999997E+02  0.45594000000E+02  0.51100000000E-03 0. -1.
         11   -1    0    0    0    0 -0.00000000000E+00 -0.00000000000E+00 -0.45593999997E+02  0.45594000000E+02  0.51100000000E-03 0.  1.
    9900012    2    1    2    0    0  0.81407396711E+00 -0.77761992823E+00  0.35435327002E+00  0.90007756205E+02  0.90000017786E+02 0.  0.
        -12    1    1    2    0    0 -0.81407396711E+00  0.77761992823E+00 -0.35435327002E+00  0.11802437954E+01  0.00000000000E+00 0.  1.
         11    1    3    3    0    0 -0.35666369031E+02 -0.15495405209E+02  0.79766794602E+01  0.39696660791E+02  0.51100000000E-03 0. -1.
        -11    1    3    3    0    0  0.37862877999E+01 -0.82872486699E+01  0.16837059311E+01  0.92654914465E+01  0.51100000000E-03 0.  1.
        -12    1    3    3    0    0  0.32694155198E+02  0.23005033951E+02 -0.93060321213E+01  0.41045603967E+02  0.00000000000E+00 0.  1.
</event>
<event>
 7    1  0.2902311E-015  0.9000785E+02  0.7816164E-02  0.1186339E+00
        -11   -1    0    0    0    0  0.00000000000E+00  0.00000000000E+00  0.45593999997E+02  0.45594000000E+02  0.51100000000E-03 0.  1.
         11   -1    0    0    0    0 -0.00000000000E+00 -0.00000000000E+00 -0.45593999997E+02  0.45594000000E+02  0.51100000000E-03 0. -1.
    9900012    2    1    2    0    0 -0.27979989328E-01 -0.67516357383E+00 -0.96753498142E+00  0.90007850572E+02  0.90000113400E+02 0.  0.
        -12    1    1    2    0    0  0.27979989328E-01  0.67516357383E+00  0.96753498142E+00  0.11801494276E+01  0.00000000000E+00 0.  1.
         11    1    3    3    0    0  0.10826835882E+02  0.19319285714E+02 -0.32956241746E+02  0.39706032867E+02  0.51100000000E-03 0. -1.
        -11    1    3    3    0    0  0.41420379439E-01 -0.85579916716E+01 -0.51187778849E+01  0.99721023057E+01  0.51100000000E-03 0.  1.
        -12    1    3    3    0    0 -0.10896236251E+02 -0.11436457616E+02  0.37107484650E+02  0.40329715400E+02  0.00000000000E+00 0.  1.
</event>
<event>
 7    1  0.2294706E-015  0.9000773E+02  0.7816164E-02  0.1186339E+00
        -11   -1    0    0    0    0  0.00000000000E+00  0.00000000000E+00  0.45593999997E+02  0.45594000000E+02  0.51100000000E-03 0.  1.
         11   -1    0    0    0    0 -0.00000000000E+00 -0.00000000000E+00 -0.45593999997E+02  0.45594000000E+02  0.51100000000E-03 0. -1.
    9900012    2    1    2    0    0 -0.75249715890E+00  0.20439481844E+00 -0.88601262348E+00  0.90007725632E+02  0.89999986810E+02 0.  0.
        -12    1    1    2    0    0  0.75249715890E+00 -0.20439481844E+00  0.88601262348E+00  0.11802743685E+01  0.00000000000E+00 0.  1.
         11    1    3    3    0    0 -0.18181377151E+02 -0.30315748991E+02 -0.18498812905E+02  0.39897533648E+02  0.51100000000E-03 0. -1.
        -11    1    3    3    0    0  0.38546259540E+01 -0.12798729298E-02 -0.74239882825E+01  0.83650310916E+01  0.51100000000E-03 0.  1.
        -12    1    3    3    0    0  0.13574254038E+02  0.30521423682E+02  0.25036788565E+02  0.41745160892E+02  0.00000000000E+00 0.  1.
</event>
<event>
 7    1  0.2294706E-015  0.9000771E+02  0.7816164E-02  0.1186339E+00
        -11   -1    0    0    0    0  0.00000000000E+00  0.00000000000E+00  0.45593999997E+02  0.45594000000E+02  0.51100000000E-03 0.  1.
         11   -1    0    0    0    0 -0.00000000000E+00 -0.00000000000E+00 -0.45593999997E+02  0.45594000000E+02  0.51100000000E-03 0. -1.
    9900012    2    1    2    0    0  0.31163831508E+00 -0.10393267906E+01 -0.46449757009E+00  0.90007713336E+02  0.89999974352E+02 0.  0.
        -12    1    1    2    0    0 -0.31163831508E+00  0.10393267906E+01  0.46449757009E+00  0.11802866642E+01  0.00000000000E+00 0.  1.
         11    1    3    3    0    0 -0.12705864893E+02 -0.35300359769E+02  0.17619948571E+02  0.41448968509E+02  0.51100000000E-03 0. -1.
        -11    1    3    3    0    0  0.21728046300E+00  0.78571813353E+01  0.65612568502E+01  0.10238779275E+02  0.51100000000E-03 0.  1.
        -12    1    3    3    0    0  0.12800222745E+02  0.26403851643E+02 -0.24645702991E+02  0.38319965552E+02  0.00000000000E+00 0.  1.
</event>
<event>
 7    1  0.2294706E-015  0.9000778E+02  0.7816164E-02  0.1186339E+00
        -11   -1    0    0    0    0  0.00000000000E+00  0.00000000000E+00  0.45593999997E+02  0.45594000000E+02  0.51100000000E-03 0.  1.
         11   -1    0    0    0    0 -0.00000000000E+00 -0.00000000000E+00 -0.45593999997E+02  0.45594000000E+02  0.51100000000E-03 0. -1.
    9900012    2    1    2    0    0  0.32715615373E+00  0.98289589636E+00 -0.56550585896E+00  0.90007782915E+02  0.90000044849E+02 0.  0.
        -12    1    1    2    0    0 -0.32715615373E+00 -0.98289589636E+00  0.56550585896E+00  0.11802170853E+01  0.00000000000E+00 0.  1.
         11    1    3    3    0    0 -0.68843884746E+00 -0.90784711991E+01 -0.64663309300E+01  0.11167185112E+02  0.51100000000E-03 0. -1.
        -11    1    3    3    0    0  0.20182178475E+02 -0.18882289209E+02  0.26653299937E+02  0.38396087973E+02  0.51100000000E-03 0.  1.
         12    1    3    3    0    0 -0.19166583474E+02  0.28943656305E+02 -0.20752474866E+02  0.40444509830E+02  0.00000000000E+00 0. -1.
</event>
<event>
 7    1  0.2294706E-015  0.9000770E+02  0.7816164E-02  0.1186339E+00
        -11   -1    0    0    0    0  0.00000000000E+00  0.00000000000E+00  0.45593999997E+02  0.45594000000E+02  0.51100000000E-03 0.  1.
         11   -1    0    0    0    0 -0.00000000000E+00 -0.00000000000E+00 -0.45593999997E+02  0.45594000000E+02  0.51100000000E-03 0. -1.
    9900012    2    1    2    0    0 -0.66639818551E+00  0.56711807090E+00 -0.79209215099E+00  0.90007695199E+02  0.89999955975E+02 0.  0.
        -12    1    1    2    0    0  0.66639818551E+00 -0.56711807090E+00  0.79209215099E+00  0.11803048012E+01  0.00000000000E+00 0.  1.
         11    1    3    3    0    0 -0.10809718146E+02 -0.31073386785E+01  0.20886812141E+01  0.11439761778E+02  0.51100000000E-03 0. -1.
        -11    1    3    3    0    0  0.26953054583E+02  0.33932131519E+02  0.30857100973E+01  0.43443967451E+02  0.51100000000E-03 0.  1.
         12    1    3    3    0    0 -0.16809734622E+02 -0.30257674770E+02 -0.59664834623E+01  0.35123965970E+02  0.00000000000E+00 0. -1.
</event>
<event>
 7    1  0.2294706E-015  0.9000776E+02  0.7816164E-02  0.1186339E+00
        -11   -1    0    0    0    0  0.00000000000E+00  0.00000000000E+00  0.45593999997E+02  0.45594000000E+02  0.51100000000E-03 0.  1.
         11   -1    0    0    0    0 -0.00000000000E+00 -0.00000000000E+00 -0.45593999997E+02  0.45594000000E+02  0.51100000000E-03 0. -1.
    9900012    2    1    2    0    0 -0.16491564404E-01 -0.48615437285E+00 -0.10753363536E+01  0.90007760059E+02  0.90000021691E+02 0.  0.
        -12    1    1    2    0    0  0.16491564404E-01  0.48615437285E+00  0.10753363536E+01  0.11802399414E+01  0.00000000000E+00 0.  1.
         11    1    3    3    0    0 -0.92040173392E+01 -0.33138019069E+00  0.18880384959E+00  0.92119159335E+01  0.51100000000E-03 0. -1.
        -11    1    3    3    0    0  0.70249751623E+01  0.39928726716E+02  0.13958029041E+01  0.40566017295E+02  0.51100000000E-03 0.  1.
         12    1    3    3    0    0  0.21625506125E+01 -0.40083500898E+02 -0.26599431073E+01  0.40229826830E+02  0.00000000000E+00 0. -1.
</event>
<event>
 7    1  0.2294706E-015  0.9000773E+02  0.7816164E-02  0.1186339E+00
        -11   -1    0    0    0    0  0.00000000000E+00  0.00000000000E+00  0.45593999997E+02  0.45594000000E+02  0.51100000000E-03 0.  1.
         11   -1    0    0    0    0 -0.00000000000E+00 -0.00000000000E+00 -0.45593999997E+02  0.45594000000E+02  0.51100000000E-03 0. -1.
    9900012    2    1    2    0    0  0.11505163525E+01 -0.12443763303E+00 -0.23210110107E+00  0.90007727352E+02  0.89999988553E+02 0.  0.
        -12    1    1    2    0    0 -0.11505163525E+01  0.12443763303E+00  0.23210110107E+00  0.11802726478E+01  0.00000000000E+00 0.  1.
         11    1    3    3    0    0 -0.14464767058E+02  0.31186793330E+02 -0.25209448557E+02  0.42630527337E+02  0.51100000000E-03 0. -1.
        -11    1    3    3    0    0  0.88025233845E+01 -0.84974965953E+00  0.36188588517E+01  0.95552410785E+01  0.51100000000E-03 0.  1.
        -12    1    3    3    0    0  0.68127600258E+01 -0.30461481303E+02  0.21358488604E+02  0.37821958937E+02  0.00000000000E+00 0.  1.
</event>
<event>
 7    1  0.2294706E-015  0.9000771E+02  0.7816164E-02  0.1186339E+00
        -11   -1    0    0    0    0  0.00000000000E+00  0.00000000000E+00  0.45593999997E+02  0.45594000000E+02  0.51100000000E-03 0. -1.
         11   -1    0    0    0    0 -0.00000000000E+00 -0.00000000000E+00 -0.45593999997E+02  0.45594000000E+02  0.51100000000E-03 0.  1.
    9900012    2    1    2    0    0  0.91748447774E+00 -0.71948799498E+00 -0.18339566140E+00  0.90007714140E+02  0.89999975167E+02 0.  0.
        -12    1    1    2    0    0 -0.91748447774E+00  0.71948799498E+00  0.18339566140E+00  0.11802858596E+01  0.00000000000E+00 0.  1.
         11    1    3    3    0    0  0.43314617969E-01 -0.92409416762E+01  0.44188023235E+01  0.10243177898E+02  0.51100000000E-03 0. -1.
        -11    1    3    3    0    0  0.13626512844E+02 -0.29688497752E+02 -0.18019791575E+02  0.37306857810E+02  0.51100000000E-03 0.  1.
         12    1    3    3    0    0 -0.12752342984E+02  0.38209951433E+02  0.13417593590E+02  0.42457678432E+02  0.00000000000E+00 0. -1.
</event>
<event>
 7    1  0.2294706E-015  0.9000778E+02  0.7816164E-02  0.1186339E+00
        -11   -1    0    0    0    0  0.00000000000E+00  0.00000000000E+00  0.45593999997E+02  0.45594000000E+02  0.51100000000E-03 0. -1.
         11   -1    0    0    0    0 -0.00000000000E+00 -0.00000000000E+00 -0.45593999997E+02  0.45594000000E+02  0.51100000000E-03 0.  1.
    9900012    2    1    2    0    0  0.77725877394E+00 -0.25922991699E+00  0.84946048972E+00  0.90007782022E+02  0.90000043945E+02 0.  0.
        -12    1    1    2    0    0 -0.77725877394E+00  0.25922991699E+00 -0.84946048972E+00  0.11802179778E+01  0.00000000000E+00 0.  1.
         11    1    3    3    0    0  0.99802794066E+01 -0.23637478872E+02  0.34926936911E+02  0.43338519895E+02  0.51100000000E-03 0. -1.
        -11    1    3    3    0    0 -0.49892445322E+01  0.96653729998E+01 -0.13814400384E+01  0.10964505145E+02  0.51100000000E-03 0.  1.
        -12    1    3    3    0    0 -0.42137761004E+01  0.13712875955E+02 -0.32696036383E+02  0.35704756982E+02  0.00000000000E+00 0.  1.
</event>
<event>
 7    1  0.2294706E-015  0.9000765E+02  0.7816164E-02  0.1186339E+00
        -11   -1    0    0    0    0  0.00000000000E+00  0.00000000000E+00  0.45593999997E+02  0.45594000000E+02  0.51100000000E-03 0.  1.
         11   -1    0    0    0    0 -0.00000000000E+00 -0.00000000000E+00 -0.45593999997E+02  0.45594000000E+02  0.51100000000E-03 0. -1.
    9900012    2    1    2    0    0  0.30485132766E+00  0.83588560200E+00  0.77562166325E+00  0.90007649189E+02  0.89999909359E+02 0.  0.
        -12    1    1    2    0    0 -0.30485132766E+00 -0.83588560200E+00 -0.77562166325E+00  0.11803508106E+01  0.00000000000E+00 0.  1.
         11    1    3    3    0    0  0.17089281000E+02  0.32600047345E+02  0.11075082613E+02  0.38437794775E+02  0.51100000000E-03 0. -1.
        -11    1    3    3    0    0  0.53685468177E+01 -0.19614357061E+01  0.82687973626E+01  0.10051941855E+02  0.51100000000E-03 0.  1.
        -12    1    3    3    0    0 -0.22152976490E+02 -0.29802726037E+02 -0.18568258313E+02  0.41517912560E+02  0.00000000000E+00 0.  1.
</event>
<event>
 7    1  0.2294706E-015  0.9000771E+02  0.7816164E-02  0.1186339E+00
        -11   -1    0    0    0    0  0.00000000000E+00  0.00000000000E+00  0.45593999997E+02  0.45594000000E+02  0.51100000000E-03 0. -1.
         11   -1    0    0    0    0 -0.00000000000E+00 -0.00000000000E+00 -0.45593999997E+02  0.45594000000E+02  0.51100000000E-03 0.  1.
    9900012    2    1    2    0    0  0.22724889999E-01 -0.11716122859E+01 -0.14104695953E+00  0.90007709352E+02  0.89999970315E+02 0.  0.
        -12    1    1    2    0    0 -0.22724889999E-01  0.11716122859E+01  0.14104695953E+00  0.11802906480E+01  0.00000000000E+00 0.  1.
         11    1    3    3    0    0 -0.16203257673E+01  0.43903189971E+01  0.41939650600E+02  0.42199936602E+02  0.51100000000E-03 0. -1.
        -11    1    3    3    0    0  0.65209182882E+01  0.49991582165E+01 -0.68221734176E+01  0.10679700773E+02  0.51100000000E-03 0.  1.
        -12    1    3    3    0    0 -0.48778676309E+01 -0.10561089500E+02 -0.35258524142E+02  0.37128071977E+02  0.00000000000E+00 0.  1.
</event>
<event>
 7    1  0.2294706E-015  0.9000776E+02  0.7816164E-02  0.1186339E+00
        -11   -1    0    0    0    0  0.00000000000E+00  0.00000000000E+00  0.45593999997E+02  0.45594000000E+02  0.51100000000E-03 0.  1.
         11   -1    0    0    0    0 -0.00000000000E+00 -0.00000000000E+00 -0.45593999997E+02  0.45594000000E+02  0.51100000000E-03 0. -1.
    9900012    2    1    2    0    0  0.11306358027E+01 -0.33431992475E+00 -0.53578256383E-01  0.90007755212E+02  0.90000016781E+02 0.  0.
        -12    1    1    2    0    0 -0.11306358027E+01  0.33431992475E+00  0.53578256383E-01  0.11802447882E+01  0.00000000000E+00 0.  1.
         11    1    3    3    0    0 -0.29995421394E+02 -0.24420218078E+02  0.12689113205E+02  0.40707320592E+02  0.51100000000E-03 0. -1.
        -11    1    3    3    0    0 -0.37009391193E+01  0.41308898037E+01  0.28545206082E+01  0.62377471173E+01  0.51100000000E-03 0.  1.
        -12    1    3    3    0    0  0.34826996316E+02  0.19955008350E+02 -0.15597212070E+02  0.43062687503E+02  0.00000000000E+00 0.  1.
</event>
<event>
 7    1  0.2294706E-015  0.9000778E+02  0.7816164E-02  0.1186339E+00
        -11   -1    0    0    0    0  0.00000000000E+00  0.00000000000E+00  0.45593999997E+02  0.45594000000E+02  0.51100000000E-03 0.  1.
         11   -1    0    0    0    0 -0.00000000000E+00 -0.00000000000E+00 -0.45593999997E+02  0.45594000000E+02  0.51100000000E-03 0. -1.
    9900012    2    1    2    0    0  0.20078046441E-01  0.72176893802E+00 -0.93358015566E+00  0.90007777379E+02  0.90000039240E+02 0.  0.
        -12    1    1    2    0    0 -0.20078046441E-01 -0.72176893802E+00  0.93358015566E+00  0.11802226209E+01  0.00000000000E+00 0.  1.
         11    1    3    3    0    0 -0.82480693665E+00  0.23736331691E+01 -0.44762971682E+01  0.51333885011E+01  0.51100000000E-03 0. -1.
        -11    1    3    3    0    0  0.28972457856E+02  0.29296336274E+02  0.10400732170E+02  0.42495339312E+02  0.51100000000E-03 0.  1.
         12    1    3    3    0    0 -0.28127572873E+02 -0.30948200505E+02 -0.68580151573E+01  0.42379049566E+02  0.00000000000E+00 0. -1.
</event>
<event>
 7    1  0.2294706E-015  0.9000773E+02  0.7816164E-02  0.1186339E+00
        -11   -1    0    0    0    0  0.00000000000E+00  0.00000000000E+00  0.45593999997E+02  0.45594000000E+02  0.51100000000E-03 0.  1.
         11   -1    0    0    0    0 -0.00000000000E+00 -0.00000000000E+00 -0.45593999997E+02  0.45594000000E+02  0.51100000000E-03 0. -1.
    9900012    2    1    2    0    0  0.38081393913E+00 -0.24275021801E+00 -0.10904542950E+01  0.90007729906E+02  0.89999991141E+02 0.  0.
        -12    1    1    2    0    0 -0.38081393913E+00  0.24275021801E+00  0.10904542950E+01  0.11802700937E+01  0.00000000000E+00 0.  1.
         11    1    3    3    0    0  0.28104782731E+02 -0.23469686677E+02  0.77337289546E+01  0.37423462812E+02  0.51100000000E-03 0. -1.
        -11    1    3    3    0    0  0.16782336662E+01 -0.71958344243E+01  0.39639227199E+01  0.83850572384E+01  0.51100000000E-03 0.  1.
        -12    1    3    3    0    0 -0.29402202458E+02  0.30422770883E+02 -0.12788105969E+02  0.44199209856E+02  0.00000000000E+00 0.  1.
</event>
<event>
 7    1  0.2294706E-015  0.9000767E+02  0.7816164E-02  0.1186339E+00
        -11   -1    0    0    0    0  0.00000000000E+00  0.00000000000E+00  0.45593999997E+02  0.45594000000E+02  0.51100000000E-03 0.  1.
         11   -1    0    0    0    0 -0.00000000000E+00 -0.00000000000E+00 -0.45593999997E+02  0.45594000000E+02  0.51100000000E-03 0. -1.
    9900012    2    1    2    0    0  0.42598625120E+00 -0.12619756218E+00 -0.10935213678E+01  0.90007669922E+02  0.89999930365E+02 0.  0.
        -12    1    1    2    0    0 -0.42598625120E+00  0.12619756218E+00  0.10935213678E+01  0.11803300779E+01  0.00000000000E+00 0.  1.
         11    1    3    3    0    0  0.22214671646E+01  0.66952513496E+01 -0.36554753753E+01  0.79450492433E+01  0.51100000000E-03 0. -1.
        -11    1    3    3    0    0  0.23809882005E+02  0.24985238700E+02  0.17357261647E+02  0.38632203744E+02  0.51100000000E-03 0.  1.
         12    1    3    3    0    0 -0.25605362919E+02 -0.31806687611E+02 -0.14795307639E+02  0.43430416935E+02  0.00000000000E+00 0. -1.
</event>
<event>
 7    1  0.2294706E-015  0.9000820E+02  0.7816164E-02  0.1186338E+00
        -11   -1    0    0    0    0  0.00000000000E+00  0.00000000000E+00  0.45593999997E+02  0.45594000000E+02  0.51100000000E-03 0.  1.
         11   -1    0    0    0    0 -0.00000000000E+00 -0.00000000000E+00 -0.45593999997E+02  0.45594000000E+02  0.51100000000E-03 0. -1.
    9900012    2    1    2    0    0 -0.63600213362E+00 -0.96569622587E+00 -0.23422091288E+00  0.90008200292E+02  0.90000467735E+02 0.  0.
        -12    1    1    2    0    0  0.63600213362E+00  0.96569622587E+00  0.23422091288E+00  0.11797997079E+01  0.00000000000E+00 0.  1.
         11    1    3    3    0    0  0.19743754699E+02 -0.18574679947E+02 -0.24121497344E+02  0.36286102286E+02  0.51100000000E-03 0. -1.
        -11    1    3    3    0    0  0.10120452759E+02  0.34040818081E+01 -0.24961472734E+01  0.10965495360E+02  0.51100000000E-03 0.  1.
        -12    1    3    3    0    0 -0.30500209592E+02  0.14204901913E+02  0.26383423704E+02  0.42756602647E+02  0.00000000000E+00 0.  1.
</event>
<event>
 7    1  0.2294706E-015  0.9000765E+02  0.7816164E-02  0.1186339E+00
        -11   -1    0    0    0    0  0.00000000000E+00  0.00000000000E+00  0.45593999997E+02  0.45594000000E+02  0.51100000000E-03 0.  1.
         11   -1    0    0    0    0 -0.00000000000E+00 -0.00000000000E+00 -0.45593999997E+02  0.45594000000E+02  0.51100000000E-03 0. -1.
    9900012    2    1    2    0    0 -0.54661458599E+00 -0.91884658200E+00 -0.50015125354E+00  0.90007653516E+02  0.89999913742E+02 0.  0.
        -12    1    1    2    0    0  0.54661458599E+00  0.91884658200E+00  0.50015125354E+00  0.11803464844E+01  0.00000000000E+00 0.  1.
         11    1    3    3    0    0 -0.37616216779E+02  0.85784749425E+01  0.14236258462E+02  0.41124701244E+02  0.51100000000E-03 0. -1.
        -11    1    3    3    0    0  0.45209780630E+01 -0.11979989830E+01  0.73286764143E+01  0.86939026022E+01  0.51100000000E-03 0.  1.
        -12    1    3    3    0    0  0.32548624130E+02 -0.82993225416E+01 -0.22065086130E+02  0.40189049670E+02  0.00000000000E+00 0.  1.
</event>
<event>
 7    1  0.2294706E-015  0.9000775E+02  0.7816164E-02  0.1186339E+00
        -11   -1    0    0    0    0  0.00000000000E+00  0.00000000000E+00  0.45593999997E+02  0.45594000000E+02  0.51100000000E-03 0.  1.
         11   -1    0    0    0    0 -0.00000000000E+00 -0.00000000000E+00 -0.45593999997E+02  0.45594000000E+02  0.51100000000E-03 0. -1.
    9900012    2    1    2    0    0 -0.28410554799E+00 -0.26482620125E-01 -0.11452369542E+01  0.90007752156E+02  0.90000013685E+02 0.  0.
        -12    1    1    2    0    0  0.28410554799E+00  0.26482620125E-01  0.11452369542E+01  0.11802478438E+01  0.00000000000E+00 0.  1.
         11    1    3    3    0    0  0.68883779776E+01  0.32762490481E+02 -0.16671255085E+02  0.37400017113E+02  0.51100000000E-03 0. -1.
        -11    1    3    3    0    0 -0.60134637549E+01  0.75855258802E+01  0.48628308936E+01  0.10832777750E+02  0.51100000000E-03 0.  1.
        -12    1    3    3    0    0 -0.11590197706E+01 -0.40374498981E+02  0.10663187237E+02  0.41774957294E+02  0.00000000000E+00 0.  1.
</event>
<event>
 7    1  0.2294706E-015  0.9000771E+02  0.7816164E-02  0.1186339E+00
        -11   -1    0    0    0    0  0.00000000000E+00  0.00000000000E+00  0.45593999997E+02  0.45594000000E+02  0.51100000000E-03 0. -1.
         11   -1    0    0    0    0 -0.00000000000E+00 -0.00000000000E+00 -0.45593999997E+02  0.45594000000E+02  0.51100000000E-03 0.  1.
    9900012    2    1    2    0    0 -0.22315710698E+00 -0.11177153787E+01  0.30660167817E+00  0.90007707091E+02  0.89999968025E+02 0.  0.
        -12    1    1    2    0    0  0.22315710698E+00  0.11177153787E+01 -0.30660167817E+00  0.11802929091E+01  0.00000000000E+00 0.  1.
         11    1    3    3    0    0  0.10322549666E+02  0.78932171084E+00  0.42173002107E+02  0.43425109871E+02  0.51100000000E-03 0. -1.
        -11    1    3    3    0    0 -0.65043453975E+01  0.77444085760E-01 -0.25143718715E+01  0.69738492102E+01  0.51100000000E-03 0.  1.
        -12    1    3    3    0    0 -0.40413613759E+01 -0.19844811753E+01 -0.39352028557E+02  0.39608748009E+02  0.00000000000E+00 0.  1.
</event>
<event>
 7    1  0.2294706E-015  0.9000771E+02  0.7816164E-02  0.1186339E+00
        -11   -1    0    0    0    0  0.00000000000E+00  0.00000000000E+00  0.45593999997E+02  0.45594000000E+02  0.51100000000E-03 0. -1.
         11   -1    0    0    0    0 -0.00000000000E+00 -0.00000000000E+00 -0.45593999997E+02  0.45594000000E+02  0.51100000000E-03 0.  1.
    9900012    2    1    2    0    0 -0.25657741619E+00 -0.15087119506E+00  0.11421432371E+01  0.90007709670E+02  0.89999970638E+02 0.  0.
        -12    1    1    2    0    0  0.25657741619E+00  0.15087119506E+00 -0.11421432371E+01  0.11802903295E+01  0.00000000000E+00 0.  1.
         11    1    3    3    0    0 -0.10809252687E+02 -0.31936479100E+02 -0.19838388224E+02  0.39119564013E+02  0.51100000000E-03 0. -1.
        -11    1    3    3    0    0  0.73797105826E+01 -0.11883634859E+01 -0.48249751079E+01  0.88967815029E+01  0.51100000000E-03 0.  1.
        -12    1    3    3    0    0  0.31729646887E+01  0.32973971391E+02  0.25805506569E+02  0.41991364154E+02  0.00000000000E+00 0.  1.
</event>
<event>
 7    1  0.2294706E-015  0.9000783E+02  0.7816164E-02  0.1186339E+00
        -11   -1    0    0    0    0  0.00000000000E+00  0.00000000000E+00  0.45593999997E+02  0.45594000000E+02  0.51100000000E-03 0.  1.
         11   -1    0    0    0    0 -0.00000000000E+00 -0.00000000000E+00 -0.45593999997E+02  0.45594000000E+02  0.51100000000E-03 0. -1.
    9900012    2    1    2    0    0  0.61202932499E+00  0.48928277088E+00 -0.88250495375E+00  0.90007833691E+02  0.90000096295E+02 0.  0.
        -12    1    1    2    0    0 -0.61202932499E+00 -0.48928277088E+00  0.88250495375E+00  0.11801663094E+01  0.00000000000E+00 0.  1.
         11    1    3    3    0    0 -0.82395012264E+01  0.38739728639E+01 -0.36224174795E+01  0.97989262099E+01  0.51100000000E-03 0. -1.
        -11    1    3    3    0    0 -0.17141442858E+02  0.31616068181E+02 -0.36400531417E+01  0.36147680667E+02  0.51100000000E-03 0.  1.
         12    1    3    3    0    0  0.25992973410E+02 -0.35000758274E+02  0.63799656674E+01  0.44061226814E+02  0.00000000000E+00 0. -1.
</event>
<event>
 7    1  0.2294706E-015  0.9000773E+02  0.7816164E-02  0.1186339E+00
        -11   -1    0    0    0    0  0.00000000000E+00  0.00000000000E+00  0.45593999997E+02  0.45594000000E+02  0.51100000000E-03 0. -1.
         11   -1    0    0    0    0 -0.00000000000E+00 -0.00000000000E+00 -0.45593999997E+02  0.45594000000E+02  0.51100000000E-03 0.  1.
    9900012    2    1    2    0    0 -0.73205873330E+00 -0.33610226884E+00  0.86264664742E+00  0.90007731402E+02  0.89999992657E+02 0.  0.
        -12    1    1    2    0    0  0.73205873330E+00  0.33610226884E+00 -0.86264664742E+00  0.11802685976E+01  0.00000000000E+00 0.  1.
         11    1    3    3    0    0  0.35800448667E+02 -0.48996093128E+01  0.78801762469E+01  0.36983448651E+02  0.51100000000E-03 0. -1.
        -11    1    3    3    0    0 -0.35022558756E+01  0.90419560701E+00  0.13494830441E+02  0.13971178004E+02  0.51100000000E-03 0.  1.
        -12    1    3    3    0    0 -0.33030251525E+02  0.36593114370E+01 -0.20512360040E+02  0.39053104748E+02  0.00000000000E+00 0.  1.
</event>
<event>
 7    1  0.2294706E-015  0.9000772E+02  0.7816164E-02  0.1186339E+00
        -11   -1    0    0    0    0  0.00000000000E+00  0.00000000000E+00  0.45593999997E+02  0.45594000000E+02  0.51100000000E-03 0.  1.
         11   -1    0    0    0    0 -0.00000000000E+00 -0.00000000000E+00 -0.45593999997E+02  0.45594000000E+02  0.51100000000E-03 0. -1.
    9900012    2    1    2    0    0  0.19305916068E+00  0.75583954139E+00  0.88572187808E+00  0.90007716772E+02  0.89999977834E+02 0.  0.
        -12    1    1    2    0    0 -0.19305916068E+00 -0.75583954139E+00 -0.88572187808E+00  0.11802832275E+01  0.00000000000E+00 0.  1.
         11    1    3    3    0    0  0.11023535581E+02  0.47448758371E+01 -0.30247166829E+01  0.12376635031E+02  0.51100000000E-03 0. -1.
        -11    1    3    3    0    0 -0.11551337825E+01 -0.33637033310E+02  0.23275550022E+02  0.40921089587E+02  0.51100000000E-03 0.  1.
         12    1    3    3    0    0 -0.96753426375E+01  0.29647997014E+02 -0.19365111461E+02  0.36709992155E+02  0.00000000000E+00 0. -1.
</event>
<event>
 7    1  0.2294706E-015  0.9000774E+02  0.7816164E-02  0.1186339E+00
        -11   -1    0    0    0    0  0.00000000000E+00  0.00000000000E+00  0.45593999997E+02  0.45594000000E+02  0.51100000000E-03 0.  1.
         11   -1    0    0    0    0 -0.00000000000E+00 -0.00000000000E+00 -0.45593999997E+02  0.45594000000E+02  0.51100000000E-03 0. -1.
    9900012    2    1    2    0    0  0.31694609636E+00 -0.98999847862E+00 -0.55897860729E+00  0.90007742020E+02  0.90000003415E+02 0.  0.
        -12    1    1    2    0    0 -0.31694609636E+00  0.98999847862E+00  0.55897860729E+00  0.11802579799E+01  0.00000000000E+00 0.  1.
         11    1    3    3    0    0  0.56228061238E+01  0.39460413270E+00 -0.70134980148E+01  0.89978228362E+01  0.51100000000E-03 0. -1.
        -11    1    3    3    0    0  0.54900977004E+01  0.20231731041E+00  0.42754131902E+02  0.43105659722E+02  0.51100000000E-03 0.  1.
         12    1    3    3    0    0 -0.10795957728E+02 -0.15869199217E+01 -0.36299612495E+02  0.37904259462E+02  0.00000000000E+00 0. -1.
</event>
<event>
 7    1  0.2294706E-015  0.9000779E+02  0.7816164E-02  0.1186339E+00
        -11   -1    0    0    0    0  0.00000000000E+00  0.00000000000E+00  0.45593999997E+02  0.45594000000E+02  0.51100000000E-03 0. -1.
         11   -1    0    0    0    0 -0.00000000000E+00 -0.00000000000E+00 -0.45593999997E+02  0.45594000000E+02  0.51100000000E-03 0.  1.
    9900012    2    1    2    0    0 -0.52419042498E+00 -0.12697169449E+00  0.10497646571E+01  0.90007786779E+02  0.90000048764E+02 0.  0.
        -12    1    1    2    0    0  0.52419042498E+00  0.12697169449E+00 -0.10497646571E+01  0.11802132215E+01  0.00000000000E+00 0.  1.
         11    1    3    3    0    0  0.54962302474E+01 -0.72226745223E+01  0.12410817565E+01  0.91605599378E+01  0.51100000000E-03 0. -1.
        -11    1    3    3    0    0 -0.31934659370E+02 -0.86880611651E+01 -0.25142961518E+02  0.41562884766E+02  0.51100000000E-03 0.  1.
         12    1    3    3    0    0  0.25914238698E+02  0.15783763993E+02  0.24951644419E+02  0.39284342075E+02  0.00000000000E+00 0. -1.
</event>
<event>
 7    1  0.2294706E-015  0.9000777E+02  0.7816164E-02  0.1186339E+00
        -11   -1    0    0    0    0  0.00000000000E+00  0.00000000000E+00  0.45593999997E+02  0.45594000000E+02  0.51100000000E-03 0.  1.
         11   -1    0    0    0    0 -0.00000000000E+00 -0.00000000000E+00 -0.45593999997E+02  0.45594000000E+02  0.51100000000E-03 0. -1.
    9900012    2    1    2    0    0 -0.12014669743E+00 -0.20838481458E-01 -0.11739156607E+01  0.90007768053E+02  0.90000029791E+02 0.  0.
        -12    1    1    2    0    0  0.12014669743E+00  0.20838481458E-01  0.11739156607E+01  0.11802319474E+01  0.00000000000E+00 0.  1.
         11    1    3    3    0    0 -0.83246306318E+00  0.88250917980E-01  0.66057724875E+01  0.66586044630E+01  0.51100000000E-03 0. -1.
        -11    1    3    3    0    0 -0.23345358154E+01  0.31852211269E+02  0.22618183844E+02  0.39135606050E+02  0.51100000000E-03 0.  1.
         12    1    3    3    0    0  0.30468521811E+01 -0.31961300669E+02 -0.30397871993E+02  0.44213557540E+02  0.00000000000E+00 0. -1.
</event>
<event>
 7    1  0.2294706E-015  0.9000774E+02  0.7816164E-02  0.1186339E+00
        -11   -1    0    0    0    0  0.00000000000E+00  0.00000000000E+00  0.45593999997E+02  0.45594000000E+02  0.51100000000E-03 0.  1.
         11   -1    0    0    0    0 -0.00000000000E+00 -0.00000000000E+00 -0.45593999997E+02  0.45594000000E+02  0.51100000000E-03 0. -1.
    9900012    2    1    2    0    0 -0.11411903290E+01  0.19259851211E+00 -0.23153192487E+00  0.90007738764E+02  0.90000000115E+02 0.  0.
        -12    1    1    2    0    0  0.11411903290E+01 -0.19259851211E+00  0.23153192487E+00  0.11802612364E+01  0.00000000000E+00 0.  1.
         11    1    3    3    0    0 -0.76270342938E+01 -0.23618266193E+01  0.71254550014E+01  0.10701494584E+02  0.51100000000E-03 0. -1.
        -11    1    3    3    0    0 -0.21375238276E+02 -0.15759424621E+01  0.27260981344E+02  0.34677737961E+02  0.51100000000E-03 0.  1.
         12    1    3    3    0    0  0.27861082240E+02  0.41303675936E+01 -0.34617968271E+02  0.44628506218E+02  0.00000000000E+00 0. -1.
</event>
<event>
 7    1  0.2294706E-015  0.9000787E+02  0.7816164E-02  0.1186339E+00
        -11   -1    0    0    0    0  0.00000000000E+00  0.00000000000E+00  0.45593999997E+02  0.45594000000E+02  0.51100000000E-03 0.  1.
         11   -1    0    0    0    0 -0.00000000000E+00 -0.00000000000E+00 -0.45593999997E+02  0.45594000000E+02  0.51100000000E-03 0. -1.
    9900012    2    1    2    0    0  0.67627896033E+00 -0.67117731535E+00 -0.69632148680E+00  0.90007874653E+02  0.90000137799E+02 0.  0.
        -12    1    1    2    0    0 -0.67627896033E+00  0.67117731535E+00  0.69632148680E+00  0.11801253466E+01  0.00000000000E+00 0.  1.
         11    1    3    3    0    0  0.12791506007E+02 -0.14852818620E+02 -0.25708815623E+02  0.32329120741E+02  0.51100000000E-03 0. -1.
        -11    1    3    3    0    0  0.22585917850E+00 -0.16774999623E+02  0.13985183299E+01  0.16834710526E+02  0.51100000000E-03 0.  1.
        -12    1    3    3    0    0 -0.12341086225E+02  0.30956640928E+02  0.23613975806E+02  0.40844043386E+02  0.00000000000E+00 0.  1.
</event>
<event>
 7    1  0.2294706E-015  0.9000765E+02  0.7816164E-02  0.1186339E+00
        -11   -1    0    0    0    0  0.00000000000E+00  0.00000000000E+00  0.45593999997E+02  0.45594000000E+02  0.51100000000E-03 0.  1.
         11   -1    0    0    0    0 -0.00000000000E+00 -0.00000000000E+00 -0.45593999997E+02  0.45594000000E+02  0.51100000000E-03 0. -1.
    9900012    2    1    2    0    0  0.10134747031E+00  0.79146258380E+00 -0.86978779630E+00  0.90007654651E+02  0.89999914893E+02 0.  0.
        -12    1    1    2    0    0 -0.10134747031E+00 -0.79146258380E+00  0.86978779630E+00  0.11803453486E+01  0.00000000000E+00 0.  1.
         11    1    3    3    0    0  0.64022202151E+01  0.13372959205E+01 -0.13289878785E+02  0.14812078262E+02  0.51100000000E-03 0. -1.
        -11    1    3    3    0    0 -0.11940093383E+02 -0.56259560473E+01 -0.29645310082E+02  0.32450910951E+02  0.51100000000E-03 0.  1.
        -12    1    3    3    0    0  0.56392206384E+01  0.50801227106E+01  0.42065401071E+02  0.42744665438E+02  0.00000000000E+00 0.  1.
</event>
<event>
 7    1  0.2294706E-015  0.9000768E+02  0.7816164E-02  0.1186339E+00
        -11   -1    0    0    0    0  0.00000000000E+00  0.00000000000E+00  0.45593999997E+02  0.45594000000E+02  0.51100000000E-03 0.  1.
         11   -1    0    0    0    0 -0.00000000000E+00 -0.00000000000E+00 -0.45593999997E+02  0.45594000000E+02  0.51100000000E-03 0. -1.
    9900012    2    1    2    0    0 -0.69112665154E+00  0.85645811661E+00  0.42659851242E+00  0.90007676805E+02  0.89999937339E+02 0.  0.
        -12    1    1    2    0    0  0.69112665154E+00 -0.85645811661E+00 -0.42659851242E+00  0.11803231951E+01  0.00000000000E+00 0.  1.
         11    1    3    3    0    0  0.83801993880E+01  0.67603796352E+00  0.29915505932E+01  0.89237965196E+01  0.51100000000E-03 0. -1.
        -11    1    3    3    0    0  0.21135222218E+02  0.19800927867E+02  0.22942237855E+02  0.36947539034E+02  0.51100000000E-03 0.  1.
         12    1    3    3    0    0 -0.30206548258E+02 -0.19620507714E+02 -0.25507189936E+02  0.44136341251E+02  0.00000000000E+00 0. -1.
</event>
<event>
 7    1  0.2294706E-015  0.9000778E+02  0.7816164E-02  0.1186339E+00
        -11   -1    0    0    0    0  0.00000000000E+00  0.00000000000E+00  0.45593999997E+02  0.45594000000E+02  0.51100000000E-03 0.  1.
         11   -1    0    0    0    0 -0.00000000000E+00 -0.00000000000E+00 -0.45593999997E+02  0.45594000000E+02  0.51100000000E-03 0. -1.
    9900012    2    1    2    0    0  0.90649247233E+00  0.58623949776E+00 -0.47698111826E+00  0.90007781233E+02  0.90000043145E+02 0.  0.
        -12    1    1    2    0    0 -0.90649247233E+00 -0.58623949776E+00  0.47698111826E+00  0.11802187671E+01  0.00000000000E+00 0.  1.
         11    1    3    3    0    0  0.35806956949E+02 -0.13589616311E+02  0.17812923142E+02  0.42238798143E+02  0.51100000000E-03 0. -1.
        -11    1    3    3    0    0 -0.99305055538E+01 -0.46498431762E+01  0.10256489868E+01  0.11013080324E+02  0.51100000000E-03 0.  1.
        -12    1    3    3    0    0 -0.24969958923E+02  0.18825698985E+02 -0.19315553247E+02  0.36755902766E+02  0.00000000000E+00 0.  1.
</event>
<event>
 7    1  0.2294706E-015  0.9000773E+02  0.7816164E-02  0.1186339E+00
        -11   -1    0    0    0    0  0.00000000000E+00  0.00000000000E+00  0.45593999997E+02  0.45594000000E+02  0.51100000000E-03 0.  1.
         11   -1    0    0    0    0 -0.00000000000E+00 -0.00000000000E+00 -0.45593999997E+02  0.45594000000E+02  0.51100000000E-03 0. -1.
    9900012    2    1    2    0    0  0.84196071716E+00 -0.61598661630E+00 -0.55199961916E+00  0.90007728446E+02  0.89999989662E+02 0.  0.
        -12    1    1    2    0    0 -0.84196071716E+00  0.61598661630E+00  0.55199961916E+00  0.11802715536E+01  0.00000000000E+00 0.  1.
         11    1    3    3    0    0  0.27140438841E+02 -0.21844029663E+02 -0.17045459366E+02  0.38785470703E+02  0.51100000000E-03 0. -1.
        -11    1    3    3    0    0  0.74879596570E+01  0.92737872911E+01  0.37443444857E+00  0.11925303852E+02  0.51100000000E-03 0.  1.
        -12    1    3    3    0    0 -0.33786437780E+02  0.11954255756E+02  0.16119025299E+02  0.39296953891E+02  0.00000000000E+00 0.  1.
</event>
<event>
 7    1  0.2294706E-015  0.9000774E+02  0.7816164E-02  0.1186339E+00
        -11   -1    0    0    0    0  0.00000000000E+00  0.00000000000E+00  0.45593999997E+02  0.45594000000E+02  0.51100000000E-03 0. -1.
         11   -1    0    0    0    0 -0.00000000000E+00 -0.00000000000E+00 -0.45593999997E+02  0.45594000000E+02  0.51100000000E-03 0.  1.
    9900012    2    1    2    0    0  0.84340011186E+00  0.43613907813E+00  0.70105819621E+00  0.90007735776E+02  0.89999997088E+02 0.  0.
        -12    1    1    2    0    0 -0.84340011186E+00 -0.43613907813E+00 -0.70105819621E+00  0.11802642241E+01  0.00000000000E+00 0.  1.
         11    1    3    3    0    0  0.71947238724E+01  0.65149452807E+01 -0.78400411048E+00  0.97377218237E+01  0.51100000000E-03 0. -1.
        -11    1    3    3    0    0  0.39620391559E+01  0.35495106411E+02  0.88785378449E+01  0.36802564692E+02  0.51100000000E-03 0.  1.
         12    1    3    3    0    0 -0.10313362916E+02 -0.41573912613E+02 -0.73934755382E+01  0.43467449260E+02  0.00000000000E+00 0. -1.
</event>
<event>
 7    1  0.2294706E-015  0.9000771E+02  0.7816164E-02  0.1186339E+00
        -11   -1    0    0    0    0  0.00000000000E+00  0.00000000000E+00  0.45593999997E+02  0.45594000000E+02  0.51100000000E-03 0.  1.
         11   -1    0    0    0    0 -0.00000000000E+00 -0.00000000000E+00 -0.45593999997E+02  0.45594000000E+02  0.51100000000E-03 0. -1.
    9900012    2    1    2    0    0  0.52795112347E-01  0.11762178929E+01 -0.82536903318E-01  0.90007708428E+02  0.89999969379E+02 0.  0.
        -12    1    1    2    0    0 -0.52795112347E-01 -0.11762178929E+01  0.82536903318E-01  0.11802915724E+01  0.00000000000E+00 0.  1.
         11    1    3    3    0    0  0.39868622480E+01 -0.14235050969E+02  0.16371826388E+01  0.14873201199E+02  0.51100000000E-03 0. -1.
        -11    1    3    3    0    0  0.30314812775E+02 -0.90876133650E+01  0.62996655020E+01  0.32268535386E+02  0.51100000000E-03 0.  1.
         12    1    3    3    0    0 -0.34248879911E+02  0.24498882227E+02 -0.80193850442E+01  0.42865971842E+02  0.00000000000E+00 0. -1.
</event>
<event>
 7    1  0.2294706E-015  0.9000801E+02  0.7816164E-02  0.1186339E+00
        -11   -1    0    0    0    0  0.00000000000E+00  0.00000000000E+00  0.45593999997E+02  0.45594000000E+02  0.51100000000E-03 0. -1.
         11   -1    0    0    0    0 -0.00000000000E+00 -0.00000000000E+00 -0.45593999997E+02  0.45594000000E+02  0.51100000000E-03 0.  1.
    9900012    2    1    2    0    0 -0.78896046587E+00 -0.58436858578E+00  0.65454394266E+00  0.90008011426E+02  0.90000276377E+02 0.  0.
        -12    1    1    2    0    0  0.78896046587E+00  0.58436858578E+00 -0.65454394266E+00  0.11799885735E+01  0.00000000000E+00 0.  1.
         11    1    3    3    0    0 -0.64167785705E+00 -0.64157577610E+01 -0.77979155379E+01  0.10118358815E+02  0.51100000000E-03 0. -1.
        -11    1    3    3    0    0 -0.37994635322E+02  0.83640165157E+01 -0.58681208087E+01  0.39344426894E+02  0.51100000000E-03 0.  1.
         12    1    3    3    0    0  0.37847352713E+02 -0.25326273405E+01  0.14320580289E+02  0.40545225717E+02  0.00000000000E+00 0. -1.
</event>
<event>
 7    1  0.2294706E-015  0.9000864E+02  0.7816164E-02  0.1186337E+00
        -11   -1    0    0    0    0  0.00000000000E+00  0.00000000000E+00  0.45593999997E+02  0.45594000000E+02  0.51100000000E-03 0.  1.
         11   -1    0    0    0    0 -0.00000000000E+00 -0.00000000000E+00 -0.45593999997E+02  0.45594000000E+02  0.51100000000E-03 0. -1.
    9900012    2    1    2    0    0 -0.74347614140E+00 -0.32945675176E+00 -0.85416794358E+00  0.90008635171E+02  0.90000908351E+02 0.  0.
        -12    1    1    2    0    0  0.74347614140E+00  0.32945675176E+00  0.85416794358E+00  0.11793648290E+01  0.00000000000E+00 0.  1.
         11    1    3    3    0    0 -0.32184515621E+02  0.16449646947E+02 -0.16833656365E+02  0.39872370350E+02  0.51100000000E-03 0. -1.
        -11    1    3    3    0    0  0.55170675240E+01  0.71806481742E+01 -0.36288983486E+01  0.97554418532E+01  0.51100000000E-03 0.  1.
        -12    1    3    3    0    0  0.25923971956E+02 -0.23959751873E+02  0.19608386770E+02  0.40380822967E+02  0.00000000000E+00 0.  1.
</event>
<event>
 7    1  0.2294706E-015  0.9000736E+02  0.7816164E-02  0.1186340E+00
        -11   -1    0    0    0    0  0.00000000000E+00  0.00000000000E+00  0.45593999997E+02  0.45594000000E+02  0.51100000000E-03 0.  1.
         11   -1    0    0    0    0 -0.00000000000E+00 -0.00000000000E+00 -0.45593999997E+02  0.45594000000E+02  0.51100000000E-03 0. -1.
    9900012    2    1    2    0    0 -0.39801639166E+00 -0.10873396759E+01  0.23063217807E+00  0.90007357878E+02  0.89999614201E+02 0.  0.
        -12    1    1    2    0    0  0.39801639166E+00  0.10873396759E+01 -0.23063217807E+00  0.11806421221E+01  0.00000000000E+00 0.  1.
         11    1    3    3    0    0 -0.37093719495E+02 -0.66865189100E+01 -0.13561098177E+02  0.40056921314E+02  0.51100000000E-03 0. -1.
        -11    1    3    3    0    0  0.24918625211E+01 -0.99497993818E+01  0.12133281481E+01  0.10328603585E+02  0.51100000000E-03 0.  1.
        -12    1    3    3    0    0  0.34203840582E+02  0.15548978616E+02  0.12578402207E+02  0.39621832979E+02  0.00000000000E+00 0.  1.
</event>
<event>
 7    1  0.2294706E-015  0.9000776E+02  0.7816164E-02  0.1186339E+00
        -11   -1    0    0    0    0  0.00000000000E+00  0.00000000000E+00  0.45593999997E+02  0.45594000000E+02  0.51100000000E-03 0. -1.
         11   -1    0    0    0    0 -0.00000000000E+00 -0.00000000000E+00 -0.45593999997E+02  0.45594000000E+02  0.51100000000E-03 0.  1.
    9900012    2    1    2    0    0  0.51995737177E+00 -0.56272599181E+00  0.89775247514E+00  0.90007756077E+02  0.90000017658E+02 0.  0.
        -12    1    1    2    0    0 -0.51995737177E+00  0.56272599181E+00 -0.89775247514E+00  0.11802439226E+01  0.00000000000E+00 0.  1.
         11    1    3    3    0    0 -0.21742612534E+02  0.28000156402E+01 -0.33713985943E+02  0.40214601027E+02  0.51100000000E-03 0. -1.
        -11    1    3    3    0    0  0.98638668726E+01  0.70270262937E+01  0.59445961443E+00  0.12125524760E+02  0.51100000000E-03 0.  1.
        -12    1    3    3    0    0  0.12398703033E+02 -0.10389767926E+02  0.34017278804E+02  0.37667630290E+02  0.00000000000E+00 0.  1.
</event>
<event>
 7    1  0.2294706E-015  0.9000782E+02  0.7816164E-02  0.1186339E+00
        -11   -1    0    0    0    0  0.00000000000E+00  0.00000000000E+00  0.45593999997E+02  0.45594000000E+02  0.51100000000E-03 0.  1.
         11   -1    0    0    0    0 -0.00000000000E+00 -0.00000000000E+00 -0.45593999997E+02  0.45594000000E+02  0.51100000000E-03 0. -1.
    9900012    2    1    2    0    0 -0.23836332878E+00  0.23905445945E+00 -0.11308693633E+01  0.90007817968E+02  0.90000080365E+02 0.  0.
        -12    1    1    2    0    0  0.23836332878E+00 -0.23905445945E+00  0.11308693633E+01  0.11801820317E+01  0.00000000000E+00 0.  1.
         11    1    3    3    0    0  0.15443972528E+01 -0.86837001211E+01  0.58799787480E+00  0.88395448090E+01  0.51100000000E-03 0. -1.
        -11    1    3    3    0    0 -0.28394345856E+02 -0.66720449041E+01  0.26466474203E+02  0.39385648614E+02  0.51100000000E-03 0.  1.
         12    1    3    3    0    0  0.26611585274E+02  0.15594799485E+02 -0.28185341441E+02  0.41782624545E+02  0.00000000000E+00 0. -1.
</event>
<event>
 7    1  0.2294706E-015  0.9000766E+02  0.7816164E-02  0.1186339E+00
        -11   -1    0    0    0    0  0.00000000000E+00  0.00000000000E+00  0.45593999997E+02  0.45594000000E+02  0.51100000000E-03 0. -1.
         11   -1    0    0    0    0 -0.00000000000E+00 -0.00000000000E+00 -0.45593999997E+02  0.45594000000E+02  0.51100000000E-03 0.  1.
    9900012    2    1    2    0    0  0.57099638115E+00  0.17302914834E+00  0.10184415990E+01  0.90007661386E+02  0.89999921716E+02 0.  0.
        -12    1    1    2    0    0 -0.57099638115E+00 -0.17302914834E+00 -0.10184415990E+01  0.11803386141E+01  0.00000000000E+00 0.  1.
         11    1    3    3    0    0 -0.63438541941E+01  0.60837469639E+01 -0.36573170017E+01  0.95201066732E+01  0.51100000000E-03 0. -1.
        -11    1    3    3    0    0  0.15278661858E+02 -0.39918797997E+02  0.12638657485E+02  0.44572229078E+02  0.51100000000E-03 0.  1.
         12    1    3    3    0    0 -0.83638112830E+01  0.34008080181E+02 -0.79628988848E+01  0.35915325635E+02  0.00000000000E+00 0. -1.
</event>
<event>
 7    1  0.2294706E-015  0.9000778E+02  0.7816164E-02  0.1186339E+00
        -11   -1    0    0    0    0  0.00000000000E+00  0.00000000000E+00  0.45593999997E+02  0.45594000000E+02  0.51100000000E-03 0.  1.
         11   -1    0    0    0    0 -0.00000000000E+00 -0.00000000000E+00 -0.45593999997E+02  0.45594000000E+02  0.51100000000E-03 0. -1.
    9900012    2    1    2    0    0  0.70404692722E+00 -0.94707048784E+00  0.17236308919E-01  0.90007778972E+02  0.90000040854E+02 0.  0.
        -12    1    1    2    0    0 -0.70404692722E+00  0.94707048784E+00 -0.17236308919E-01  0.11802210280E+01  0.00000000000E+00 0.  1.
         11    1    3    3    0    0 -0.61832081812E+01 -0.21078182303E+01 -0.70783018115E+01  0.96320983123E+01  0.51100000000E-03 0. -1.
        -11    1    3    3    0    0 -0.15737809678E+02  0.16597403658E+02 -0.27809598688E+02  0.36007308162E+02  0.51100000000E-03 0.  1.
         12    1    3    3    0    0  0.22625064786E+02 -0.15436655915E+02  0.34905136809E+02  0.44368372497E+02  0.00000000000E+00 0. -1.
</event>
<event>
 7    1  0.2294706E-015  0.9000774E+02  0.7816164E-02  0.1186339E+00
        -11   -1    0    0    0    0  0.00000000000E+00  0.00000000000E+00  0.45593999997E+02  0.45594000000E+02  0.51100000000E-03 0.  1.
         11   -1    0    0    0    0 -0.00000000000E+00 -0.00000000000E+00 -0.45593999997E+02  0.45594000000E+02  0.51100000000E-03 0. -1.
    9900012    2    1    2    0    0 -0.63347951549E-01  0.66025890518E+00 -0.97624901694E+00  0.90007738619E+02  0.89999999969E+02 0.  0.
        -12    1    1    2    0    0  0.63347951549E-01 -0.66025890518E+00  0.97624901694E+00  0.11802613812E+01  0.00000000000E+00 0.  1.
         11    1    3    3    0    0  0.97165182565E+01  0.35463172152E+01  0.44679896730E+01  0.11267210160E+02  0.51100000000E-03 0. -1.
        -11    1    3    3    0    0  0.17535924748E+02 -0.24594730091E+02  0.19407335859E+02  0.35903399427E+02  0.51100000000E-03 0.  1.
         12    1    3    3    0    0 -0.27315790956E+02  0.21708671781E+02 -0.24851574549E+02  0.42837129031E+02  0.00000000000E+00 0. -1.
</event>
<event>
 7    1  0.2294706E-015  0.9000768E+02  0.7816164E-02  0.1186339E+00
        -11   -1    0    0    0    0  0.00000000000E+00  0.00000000000E+00  0.45593999997E+02  0.45594000000E+02  0.51100000000E-03 0.  1.
         11   -1    0    0    0    0 -0.00000000000E+00 -0.00000000000E+00 -0.45593999997E+02  0.45594000000E+02  0.51100000000E-03 0. -1.
    9900012    2    1    2    0    0 -0.63972684150E+00  0.33755807493E+00 -0.93271546189E+00  0.90007680544E+02  0.89999941127E+02 0.  0.
        -12    1    1    2    0    0  0.63972684150E+00 -0.33755807493E+00  0.93271546189E+00  0.11803194561E+01  0.00000000000E+00 0.  1.
         11    1    3    3    0    0 -0.29521498875E+02 -0.72700368104E+01 -0.20519245018E+02  0.36679854790E+02  0.51100000000E-03 0. -1.
        -11    1    3    3    0    0 -0.76003007493E+01 -0.43874228547E+01 -0.23708968707E+01  0.90903906966E+01  0.51100000000E-03 0.  1.
        -12    1    3    3    0    0  0.36482072783E+02  0.11995017740E+02  0.21957426427E+02  0.44237435057E+02  0.00000000000E+00 0.  1.
</event>
<event>
 7    1  0.2294706E-015  0.9000782E+02  0.7816164E-02  0.1186339E+00
        -11   -1    0    0    0    0  0.00000000000E+00  0.00000000000E+00  0.45593999997E+02  0.45594000000E+02  0.51100000000E-03 0.  1.
         11   -1    0    0    0    0 -0.00000000000E+00 -0.00000000000E+00 -0.45593999997E+02  0.45594000000E+02  0.51100000000E-03 0. -1.
    9900012    2    1    2    0    0  0.96514620698E+00 -0.67910600248E+00 -0.11608636567E-01  0.90007819114E+02  0.90000081526E+02 0.  0.
        -12    1    1    2    0    0 -0.96514620698E+00  0.67910600248E+00  0.11608636567E-01  0.11801808861E+01  0.00000000000E+00 0.  1.
         11    1    3    3    0    0  0.49399828773E+01 -0.97330071283E+01  0.11784048367E+01  0.10978319398E+02  0.51100000000E-03 0. -1.
        -11    1    3    3    0    0  0.14944575298E+02  0.36494730456E+02 -0.15997759463E+02  0.42557419917E+02  0.51100000000E-03 0.  1.
         12    1    3    3    0    0 -0.18919411968E+02 -0.27440829330E+02  0.14807745989E+02  0.36472079799E+02  0.00000000000E+00 0. -1.
</event>
<event>
 7    1  0.2294706E-015  0.9000862E+02  0.7816164E-02  0.1186337E+00
        -11   -1    0    0    0    0  0.00000000000E+00  0.00000000000E+00  0.45593999997E+02  0.45594000000E+02  0.51100000000E-03 0.  1.
         11   -1    0    0    0    0 -0.00000000000E+00 -0.00000000000E+00 -0.45593999997E+02  0.45594000000E+02  0.51100000000E-03 0. -1.
    9900012    2    1    2    0    0 -0.71302813793E+00 -0.93052175187E-01 -0.93481248720E+00  0.90008617866E+02  0.90000890817E+02 0.  0.
        -12    1    1    2    0    0  0.71302813793E+00  0.93052175187E-01  0.93481248720E+00  0.11793821344E+01  0.00000000000E+00 0.  1.
         11    1    3    3    0    0 -0.87973795583E+01 -0.40601619601E+02  0.11701002254E+02  0.43160153560E+02  0.51100000000E-03 0. -1.
        -11    1    3    3    0    0  0.62306014839E+01  0.37333174321E+01 -0.60265225919E+01  0.94380627626E+01  0.51100000000E-03 0.  1.
        -12    1    3    3    0    0  0.18537499364E+01  0.36775249994E+02 -0.66092921490E+01  0.37410401543E+02  0.00000000000E+00 0.  1.
</event>
<event>
 7    1  0.2294706E-015  0.9000772E+02  0.7816164E-02  0.1186339E+00
        -11   -1    0    0    0    0  0.00000000000E+00  0.00000000000E+00  0.45593999997E+02  0.45594000000E+02  0.51100000000E-03 0. -1.
         11   -1    0    0    0    0 -0.00000000000E+00 -0.00000000000E+00 -0.45593999997E+02  0.45594000000E+02  0.51100000000E-03 0.  1.
    9900012    2    1    2    0    0 -0.98389422133E+00 -0.45653453911E+00  0.46539361504E+00  0.90007719169E+02  0.89999980262E+02 0.  0.
        -12    1    1    2    0    0  0.98389422133E+00  0.45653453911E+00 -0.46539361504E+00  0.11802808314E+01  0.00000000000E+00 0.  1.
         11    1    3    3    0    0  0.28606219515E+02  0.24424368598E+02 -0.83382568602E+01  0.38527809490E+02  0.51100000000E-03 0. -1.
        -11    1    3    3    0    0 -0.44882040157E+01  0.76251340952E+01  0.51741513309E+01  0.10249804267E+02  0.51100000000E-03 0.  1.
        -12    1    3    3    0    0 -0.25101909721E+02 -0.32506037233E+02  0.36294991443E+01  0.41230105411E+02  0.00000000000E+00 0.  1.
</event>
<event>
 7    1  0.2294706E-015  0.9000792E+02  0.7816164E-02  0.1186339E+00
        -11   -1    0    0    0    0  0.00000000000E+00  0.00000000000E+00  0.45593999997E+02  0.45594000000E+02  0.51100000000E-03 0.  1.
         11   -1    0    0    0    0 -0.00000000000E+00 -0.00000000000E+00 -0.45593999997E+02  0.45594000000E+02  0.51100000000E-03 0. -1.
    9900012    2    1    2    0    0 -0.70702136638E+00 -0.72124445189E+00 -0.61034643074E+00  0.90007917148E+02  0.90000180854E+02 0.  0.
        -12    1    1    2    0    0  0.70702136638E+00  0.72124445189E+00  0.61034643074E+00  0.11800828519E+01  0.00000000000E+00 0.  1.
         11    1    3    3    0    0  0.24687535796E+02  0.17846523298E+02  0.24373772161E+02  0.39013505189E+02  0.51100000000E-03 0. -1.
        -11    1    3    3    0    0 -0.22150532118E+01 -0.22388191155E+01  0.73459360746E+01  0.79925933736E+01  0.51100000000E-03 0.  1.
        -12    1    3    3    0    0 -0.23179503951E+02 -0.16328948634E+02 -0.32330054666E+02  0.43001818585E+02  0.00000000000E+00 0.  1.
</event>
<event>
 7    1  0.2294706E-015  0.9000782E+02  0.7816164E-02  0.1186339E+00
        -11   -1    0    0    0    0  0.00000000000E+00  0.00000000000E+00  0.45593999997E+02  0.45594000000E+02  0.51100000000E-03 0.  1.
         11   -1    0    0    0    0 -0.00000000000E+00 -0.00000000000E+00 -0.45593999997E+02  0.45594000000E+02  0.51100000000E-03 0. -1.
    9900012    2    1    2    0    0 -0.83736083884E+00 -0.79643884772E+00  0.23947517125E+00  0.90007815112E+02  0.90000077471E+02 0.  0.
        -12    1    1    2    0    0  0.83736083884E+00  0.79643884772E+00 -0.23947517125E+00  0.11801848882E+01  0.00000000000E+00 0.  1.
         11    1    3    3    0    0 -0.94436122983E+01 -0.45848403213E+01  0.10815624635E+01  0.10553309985E+02  0.51100000000E-03 0. -1.
        -11    1    3    3    0    0  0.80892773453E+01  0.40358832713E+02 -0.86395648845E+01  0.42058457741E+02  0.51100000000E-03 0.  1.
         12    1    3    3    0    0  0.51697411423E+00 -0.36570431239E+02  0.77974775922E+01  0.37396047386E+02  0.00000000000E+00 0. -1.
</event>
<event>
 7    1  0.2294706E-015  0.9000822E+02  0.7816164E-02  0.1186338E+00
        -11   -1    0    0    0    0  0.00000000000E+00  0.00000000000E+00  0.45593999997E+02  0.45594000000E+02  0.51100000000E-03 0.  1.
         11   -1    0    0    0    0 -0.00000000000E+00 -0.00000000000E+00 -0.45593999997E+02  0.45594000000E+02  0.51100000000E-03 0. -1.
    9900012    2    1    2    0    0 -0.39174236866E+00  0.82258046497E+00  0.74951477889E+00  0.90008223280E+02  0.90000491026E+02 0.  0.
        -12    1    1    2    0    0  0.39174236866E+00 -0.82258046497E+00 -0.74951477889E+00  0.11797767198E+01  0.00000000000E+00 0.  1.
         11    1    3    3    0    0  0.28517375049E+02  0.18266992523E+02 -0.19404541659E+02  0.39031524858E+02  0.51100000000E-03 0. -1.
        -11    1    3    3    0    0 -0.46398233591E+01 -0.77769963154E+01 -0.83459718652E+01  0.12315229561E+02  0.51100000000E-03 0.  1.
        -12    1    3    3    0    0 -0.24269294059E+02 -0.96674157421E+01  0.28500028303E+02  0.38661468861E+02  0.00000000000E+00 0.  1.
</event>
<event>
 7    1  0.2294706E-015  0.9000775E+02  0.7816164E-02  0.1186339E+00
        -11   -1    0    0    0    0  0.00000000000E+00  0.00000000000E+00  0.45593999997E+02  0.45594000000E+02  0.51100000000E-03 0.  1.
         11   -1    0    0    0    0 -0.00000000000E+00 -0.00000000000E+00 -0.45593999997E+02  0.45594000000E+02  0.51100000000E-03 0. -1.
    9900012    2    1    2    0    0 -0.10810706546E+01  0.24721446917E+00  0.40391929640E+00  0.90007754453E+02  0.90000016011E+02 0.  0.
        -12    1    1    2    0    0  0.10810706546E+01 -0.24721446917E+00 -0.40391929640E+00  0.11802455473E+01  0.00000000000E+00 0.  1.
         11    1    3    3    0    0  0.58685274025E+00 -0.10040788995E+02  0.67238782088E+01  0.12098445281E+02  0.51100000000E-03 0. -1.
        -11    1    3    3    0    0 -0.89516996984E+01  0.41963071870E+01  0.34557304138E+02  0.35943694733E+02  0.51100000000E-03 0.  1.
         12    1    3    3    0    0  0.72837763036E+01  0.60916962774E+01 -0.40877263050E+02  0.41965614439E+02  0.00000000000E+00 0. -1.
</event>
<event>
 7    1  0.2294706E-015  0.9000800E+02  0.7816164E-02  0.1186339E+00
        -11   -1    0    0    0    0  0.00000000000E+00  0.00000000000E+00  0.45593999997E+02  0.45594000000E+02  0.51100000000E-03 0.  1.
         11   -1    0    0    0    0 -0.00000000000E+00 -0.00000000000E+00 -0.45593999997E+02  0.45594000000E+02  0.51100000000E-03 0. -1.
    9900012    2    1    2    0    0  0.76534852767E+00  0.78048796699E+00 -0.44439964246E+00  0.90007995391E+02  0.90000260130E+02 0.  0.
        -12    1    1    2    0    0 -0.76534852767E+00 -0.78048796699E+00  0.44439964246E+00  0.11800046092E+01  0.00000000000E+00 0.  1.
         11    1    3    3    0    0 -0.42092310890E+01  0.29539918838E+01  0.78579659046E+01  0.93910235240E+01  0.51100000000E-03 0. -1.
        -11    1    3    3    0    0 -0.52214801363E+01 -0.10815071107E+02  0.34102653580E+02  0.36155505796E+02  0.51100000000E-03 0.  1.
         12    1    3    3    0    0  0.10196059753E+02  0.86415671904E+01 -0.42405019127E+02  0.44461466071E+02  0.00000000000E+00 0. -1.
</event>
<event>
 7    1  0.2294706E-015  0.9000771E+02  0.7816164E-02  0.1186339E+00
        -11   -1    0    0    0    0  0.00000000000E+00  0.00000000000E+00  0.45593999997E+02  0.45594000000E+02  0.51100000000E-03 0. -1.
         11   -1    0    0    0    0 -0.00000000000E+00 -0.00000000000E+00 -0.45593999997E+02  0.45594000000E+02  0.51100000000E-03 0.  1.
    9900012    2    1    2    0    0 -0.30329365824E+00  0.10260292362E+01  0.49835364092E+00  0.90007712159E+02  0.89999973159E+02 0.  0.
        -12    1    1    2    0    0  0.30329365824E+00 -0.10260292362E+01 -0.49835364092E+00  0.11802878412E+01  0.00000000000E+00 0.  1.
         11    1    3    3    0    0 -0.36594544688E+02  0.21749418307E+02 -0.10353241216E+01  0.42582505726E+02  0.51100000000E-03 0. -1.
        -11    1    3    3    0    0  0.57416434277E+01 -0.40438910239E+01 -0.86667668511E+01  0.11154925897E+02  0.51100000000E-03 0.  1.
        -12    1    3    3    0    0  0.30549607602E+02 -0.16679498047E+02  0.10200444614E+02  0.36270280535E+02  0.00000000000E+00 0.  1.
</event>
<event>
 7    1  0.2294706E-015  0.9000774E+02  0.7816164E-02  0.1186339E+00
        -11   -1    0    0    0    0  0.00000000000E+00  0.00000000000E+00  0.45593999997E+02  0.45594000000E+02  0.51100000000E-03 0.  1.
         11   -1    0    0    0    0 -0.00000000000E+00 -0.00000000000E+00 -0.45593999997E+02  0.45594000000E+02  0.51100000000E-03 0. -1.
    9900012    2    1    2    0    0  0.46224563920E+00  0.92238400384E+00 -0.57318764460E+00  0.90007742673E+02  0.90000004077E+02 0.  0.
        -12    1    1    2    0    0 -0.46224563920E+00 -0.92238400384E+00  0.57318764460E+00  0.11802573268E+01  0.00000000000E+00 0.  1.
         11    1    3    3    0    0 -0.12203288051E+02  0.29410723468E+02  0.18506791315E+02  0.36829502022E+02  0.51100000000E-03 0. -1.
        -11    1    3    3    0    0 -0.91789214928E+00  0.81788941274E+01 -0.10152973569E+02  0.13069801365E+02  0.51100000000E-03 0.  1.
        -12    1    3    3    0    0  0.13583425839E+02 -0.36667233591E+02 -0.89270053901E+01  0.40108439287E+02  0.00000000000E+00 0.  1.
</event>
<event>
 7    1  0.2294706E-015  0.9000770E+02  0.7816164E-02  0.1186339E+00
        -11   -1    0    0    0    0  0.00000000000E+00  0.00000000000E+00  0.45593999997E+02  0.45594000000E+02  0.51100000000E-03 0. -1.
         11   -1    0    0    0    0 -0.00000000000E+00 -0.00000000000E+00 -0.45593999997E+02  0.45594000000E+02  0.51100000000E-03 0.  1.
    9900012    2    1    2    0    0  0.97564497135E+00  0.55387760797E+00  0.36667016126E+00  0.90007698970E+02  0.89999959796E+02 0.  0.
        -12    1    1    2    0    0 -0.97564497135E+00 -0.55387760797E+00 -0.36667016126E+00  0.11803010302E+01  0.00000000000E+00 0.  1.
         11    1    3    3    0    0 -0.79087741107E+01 -0.63910881776E+01 -0.60238402476E+00  0.10186146612E+02  0.51100000000E-03 0. -1.
        -11    1    3    3    0    0  0.23024920917E+02  0.19480244678E+01 -0.34379354307E+02  0.41423203466E+02  0.51100000000E-03 0.  1.
         12    1    3    3    0    0 -0.14140501835E+02  0.49969413177E+01  0.35348408493E+02  0.38398348892E+02  0.00000000000E+00 0. -1.
</event>
<event>
 7    1  0.2294706E-015  0.9000755E+02  0.7816164E-02  0.1186339E+00
        -11   -1    0    0    0    0  0.00000000000E+00  0.00000000000E+00  0.45593999997E+02  0.45594000000E+02  0.51100000000E-03 0.  1.
         11   -1    0    0    0    0 -0.00000000000E+00 -0.00000000000E+00 -0.45593999997E+02  0.45594000000E+02  0.51100000000E-03 0. -1.
    9900012    2    1    2    0    0 -0.29909226708E-01 -0.76757739609E+00 -0.89632686327E+00  0.90007546076E+02  0.89999804884E+02 0.  0.
        -12    1    1    2    0    0  0.29909226708E-01  0.76757739609E+00  0.89632686327E+00  0.11804539240E+01  0.00000000000E+00 0.  1.
         11    1    3    3    0    0 -0.28266397514E+02 -0.19582819992E+02  0.20345382918E+02  0.39955108229E+02  0.51100000000E-03 0. -1.
        -11    1    3    3    0    0  0.11800861988E+02 -0.73510543591E+01 -0.10182155619E+02  0.17232952073E+02  0.51100000000E-03 0.  1.
        -12    1    3    3    0    0  0.16435626299E+02  0.26166296955E+02 -0.11059554163E+02  0.32819485774E+02  0.00000000000E+00 0.  1.
</event>
<event>
 7    1  0.2294706E-015  0.9000776E+02  0.7816164E-02  0.1186339E+00
        -11   -1    0    0    0    0  0.00000000000E+00  0.00000000000E+00  0.45593999997E+02  0.45594000000E+02  0.51100000000E-03 0.  1.
         11   -1    0    0    0    0 -0.00000000000E+00 -0.00000000000E+00 -0.45593999997E+02  0.45594000000E+02  0.51100000000E-03 0. -1.
    9900012    2    1    2    0    0 -0.44698245534E+00 -0.40250996922E+00 -0.10154637700E+01  0.90007756695E+02  0.90000018283E+02 0.  0.
        -12    1    1    2    0    0  0.44698245534E+00  0.40250996922E+00  0.10154637700E+01  0.11802433050E+01  0.00000000000E+00 0.  1.
         11    1    3    3    0    0 -0.34701423741E+02  0.63382486204E+01  0.10851661859E+02  0.36906920362E+02  0.51100000000E-03 0. -1.
        -11    1    3    3    0    0 -0.35317919991E+01 -0.59342474903E+01  0.78638622673E+01  0.10465618855E+02  0.51100000000E-03 0.  1.
        -12    1    3    3    0    0  0.37786233285E+02 -0.80651109929E+00 -0.19730987896E+02  0.42635217478E+02  0.00000000000E+00 0.  1.
</event>
<event>
 7    1  0.2294706E-015  0.9000787E+02  0.7816164E-02  0.1186339E+00
        -11   -1    0    0    0    0  0.00000000000E+00  0.00000000000E+00  0.45593999997E+02  0.45594000000E+02  0.51100000000E-03 0. -1.
         11   -1    0    0    0    0 -0.00000000000E+00 -0.00000000000E+00 -0.45593999997E+02  0.45594000000E+02  0.51100000000E-03 0.  1.
    9900012    2    1    2    0    0  0.10108726243E+00 -0.11660407293E+01  0.15112083684E+00  0.90007869870E+02  0.90000132952E+02 0.  0.
        -12    1    1    2    0    0 -0.10108726243E+00  0.11660407293E+01 -0.15112083684E+00  0.11801301302E+01  0.00000000000E+00 0.  1.
         11    1    3    3    0    0  0.23720404558E+02 -0.54697835553E+01  0.34466609841E+02  0.42196247686E+02  0.51100000000E-03 0. -1.
        -11    1    3    3    0    0 -0.10147357308E+02 -0.71885710758E+01 -0.46767395143E+01  0.13285943971E+02  0.51100000000E-03 0.  1.
        -12    1    3    3    0    0 -0.13471959988E+02  0.11492313902E+02 -0.29638749490E+02  0.34525678213E+02  0.00000000000E+00 0.  1.
</event>
<event>
 7    1  0.2294706E-015  0.9000759E+02  0.7816164E-02  0.1186339E+00
        -11   -1    0    0    0    0  0.00000000000E+00  0.00000000000E+00  0.45593999997E+02  0.45594000000E+02  0.51100000000E-03 0. -1.
         11   -1    0    0    0    0 -0.00000000000E+00 -0.00000000000E+00 -0.45593999997E+02  0.45594000000E+02  0.51100000000E-03 0.  1.
    9900012    2    1    2    0    0  0.75694127132E-01 -0.25999933392E-01  0.11776922838E+01  0.90007591294E+02  0.89999850699E+02 0.  0.
        -12    1    1    2    0    0 -0.75694127132E-01  0.25999933392E-01 -0.11776922838E+01  0.11804087058E+01  0.00000000000E+00 0.  1.
         11    1    3    3    0    0 -0.36976701000E+01  0.84497099708E+01  0.47012699302E+01  0.10352405613E+02  0.51100000000E-03 0. -1.
        -11    1    3    3    0    0 -0.36994560577E+02  0.10181721282E+00  0.43751105189E+01  0.37252509598E+02  0.51100000000E-03 0.  1.
         12    1    3    3    0    0  0.40767924804E+02 -0.85775271170E+01 -0.78986881653E+01  0.42402676083E+02  0.00000000000E+00 0. -1.
</event>
<event>
 7    1  0.2294706E-015  0.9000764E+02  0.7816164E-02  0.1186339E+00
        -11   -1    0    0    0    0  0.00000000000E+00  0.00000000000E+00  0.45593999997E+02  0.45594000000E+02  0.51100000000E-03 0.  1.
         11   -1    0    0    0    0 -0.00000000000E+00 -0.00000000000E+00 -0.45593999997E+02  0.45594000000E+02  0.51100000000E-03 0. -1.
    9900012    2    1    2    0    0  0.42586804371E+00 -0.95667429415E+00 -0.54465853378E+00  0.90007643184E+02  0.89999903274E+02 0.  0.
        -12    1    1    2    0    0 -0.42586804371E+00  0.95667429415E+00  0.54465853378E+00  0.11803568165E+01  0.00000000000E+00 0.  1.
         11    1    3    3    0    0  0.84141957907E+01 -0.86776150796E+01 -0.35327178669E+02  0.37337772393E+02  0.51100000000E-03 0. -1.
        -11    1    3    3    0    0 -0.51291629879E+01 -0.12232312767E+01 -0.76052793879E+01  0.92544520389E+01  0.51100000000E-03 0.  1.
        -12    1    3    3    0    0 -0.28591647592E+01  0.89441720621E+01  0.42387799523E+02  0.43415418752E+02  0.00000000000E+00 0.  1.
</event>
<event>
 7    1  0.2294706E-015  0.9000773E+02  0.7816164E-02  0.1186339E+00
        -11   -1    0    0    0    0  0.00000000000E+00  0.00000000000E+00  0.45593999997E+02  0.45594000000E+02  0.51100000000E-03 0.  1.
         11   -1    0    0    0    0 -0.00000000000E+00 -0.00000000000E+00 -0.45593999997E+02  0.45594000000E+02  0.51100000000E-03 0. -1.
    9900012    2    1    2    0    0 -0.29398672517E+00  0.68926480836E+00 -0.91187476496E+00  0.90007733184E+02  0.89999994462E+02 0.  0.
        -12    1    1    2    0    0  0.29398672517E+00 -0.68926480836E+00  0.91187476496E+00  0.11802668163E+01  0.00000000000E+00 0.  1.
         11    1    3    3    0    0 -0.12937327711E+02  0.34927065078E+02 -0.66190475648E+01  0.37829698838E+02  0.51100000000E-03 0. -1.
        -11    1    3    3    0    0 -0.46608616565E+01  0.28273255691E+01  0.96496346887E+01  0.11082998292E+02  0.51100000000E-03 0.  1.
        -12    1    3    3    0    0  0.17304202643E+02 -0.37065125838E+02 -0.39424618889E+01  0.41095036054E+02  0.00000000000E+00 0.  1.
</event>
<event>
 7    1  0.2294706E-015  0.9000772E+02  0.7816164E-02  0.1186339E+00
        -11   -1    0    0    0    0  0.00000000000E+00  0.00000000000E+00  0.45593999997E+02  0.45594000000E+02  0.51100000000E-03 0. -1.
         11   -1    0    0    0    0 -0.00000000000E+00 -0.00000000000E+00 -0.45593999997E+02  0.45594000000E+02  0.51100000000E-03 0.  1.
    9900012    2    1    2    0    0 -0.69998753615E+00 -0.76967752541E+00  0.55738488786E+00  0.90007718696E+02  0.89999979783E+02 0.  0.
        -12    1    1    2    0    0  0.69998753615E+00  0.76967752541E+00 -0.55738488786E+00  0.11802813042E+01  0.00000000000E+00 0.  1.
         11    1    3    3    0    0 -0.35673932277E+01 -0.14697289670E+01 -0.83777913146E+01  0.92235451563E+01  0.51100000000E-03 0. -1.
        -11    1    3    3    0    0  0.26260164432E+02 -0.21850532818E+01 -0.27052323344E+02  0.37765048556E+02  0.51100000000E-03 0.  1.
         12    1    3    3    0    0 -0.23392758741E+02  0.28851047234E+01  0.35987499546E+02  0.43019124984E+02  0.00000000000E+00 0. -1.
</event>
<event>
 7    1  0.2294706E-015  0.9000714E+02  0.7816164E-02  0.1186340E+00
        -11   -1    0    0    0    0  0.00000000000E+00  0.00000000000E+00  0.45593999997E+02  0.45594000000E+02  0.51100000000E-03 0.  1.
         11   -1    0    0    0    0 -0.00000000000E+00 -0.00000000000E+00 -0.45593999997E+02  0.45594000000E+02  0.51100000000E-03 0. -1.
    9900012    2    1    2    0    0 -0.13640718227E+00 -0.39727437408E+00 -0.11036303024E+01  0.90007138580E+02  0.89999392008E+02 0.  0.
        -12    1    1    2    0    0  0.13640718227E+00  0.39727437408E+00  0.11036303024E+01  0.11808614195E+01  0.00000000000E+00 0.  1.
         11    1    3    3    0    0 -0.16122281182E+02  0.36632924207E+02 -0.51304574516E+00  0.40027019658E+02  0.51100000000E-03 0. -1.
        -11    1    3    3    0    0 -0.28882966091E+01  0.15879045610E+01 -0.58109637809E+01  0.66806435709E+01  0.51100000000E-03 0.  1.
        -12    1    3    3    0    0  0.18874170609E+02 -0.38618103142E+02  0.52203792236E+01  0.43299475352E+02  0.00000000000E+00 0.  1.
</event>
<event>
 7    1  0.2294706E-015  0.9000776E+02  0.7816164E-02  0.1186339E+00
        -11   -1    0    0    0    0  0.00000000000E+00  0.00000000000E+00  0.45593999997E+02  0.45594000000E+02  0.51100000000E-03 0.  1.
         11   -1    0    0    0    0 -0.00000000000E+00 -0.00000000000E+00 -0.45593999997E+02  0.45594000000E+02  0.51100000000E-03 0. -1.
    9900012    2    1    2    0    0 -0.87910325636E+00  0.58293369565E+00  0.52946603436E+00  0.90007759130E+02  0.90000020751E+02 0.  0.
        -12    1    1    2    0    0  0.87910325636E+00 -0.58293369565E+00 -0.52946603436E+00  0.11802408697E+01  0.00000000000E+00 0.  1.
         11    1    3    3    0    0 -0.36296217651E+02 -0.64576014710E+01 -0.13240560516E+02  0.39171781624E+02  0.51100000000E-03 0. -1.
        -11    1    3    3    0    0  0.25422815879E+01  0.12349343687E+02 -0.38209764645E+01  0.13174571969E+02  0.51100000000E-03 0.  1.
        -12    1    3    3    0    0  0.32874832807E+02 -0.53088085200E+01  0.17591003015E+02  0.37661405538E+02  0.00000000000E+00 0.  1.
</event>
<event>
 7    1  0.2294706E-015  0.9000774E+02  0.7816164E-02  0.1186339E+00
        -11   -1    0    0    0    0  0.00000000000E+00  0.00000000000E+00  0.45593999997E+02  0.45594000000E+02  0.51100000000E-03 0. -1.
         11   -1    0    0    0    0 -0.00000000000E+00 -0.00000000000E+00 -0.45593999997E+02  0.45594000000E+02  0.51100000000E-03 0.  1.
    9900012    2    1    2    0    0  0.37505882756E+00 -0.60544198016E+00  0.94115539870E+00  0.90007744689E+02  0.90000006119E+02 0.  0.
        -12    1    1    2    0    0 -0.37505882756E+00  0.60544198016E+00 -0.94115539870E+00  0.11802553114E+01  0.00000000000E+00 0.  1.
         11    1    3    3    0    0 -0.32195208269E+02 -0.80865775326E+01 -0.18428812127E+02  0.37967687424E+02  0.51100000000E-03 0. -1.
        -11    1    3    3    0    0 -0.30815001239E+01  0.58918260281E+01 -0.54278008183E+01  0.85831392243E+01  0.51100000000E-03 0.  1.
        -12    1    3    3    0    0  0.35651767220E+02  0.15893095243E+01  0.24797768344E+02  0.43456918040E+02  0.00000000000E+00 0.  1.
</event>
<event>
 7    1  0.2294706E-015  0.9000770E+02  0.7816164E-02  0.1186339E+00
        -11   -1    0    0    0    0  0.00000000000E+00  0.00000000000E+00  0.45593999997E+02  0.45594000000E+02  0.51100000000E-03 0.  1.
         11   -1    0    0    0    0 -0.00000000000E+00 -0.00000000000E+00 -0.45593999997E+02  0.45594000000E+02  0.51100000000E-03 0. -1.
    9900012    2    1    2    0    0 -0.23473475370E+00  0.36825268128E+00 -0.10965372338E+01  0.90007701586E+02  0.89999962447E+02 0.  0.
        -12    1    1    2    0    0  0.23473475370E+00 -0.36825268128E+00  0.10965372338E+01  0.11802984144E+01  0.00000000000E+00 0.  1.
         11    1    3    3    0    0 -0.37229048332E+01 -0.53383367847E+01 -0.67531529755E+01  0.93788557615E+01  0.51100000000E-03 0. -1.
        -11    1    3    3    0    0 -0.37209350428E+02 -0.54731878556E+01 -0.23009925929E+01  0.37680049254E+02  0.51100000000E-03 0.  1.
         12    1    3    3    0    0  0.40697520508E+02  0.11179777322E+02  0.79576083346E+01  0.42948796570E+02  0.00000000000E+00 0. -1.
</event>
<event>
 7    1  0.2294706E-015  0.9000764E+02  0.7816164E-02  0.1186339E+00
        -11   -1    0    0    0    0  0.00000000000E+00  0.00000000000E+00  0.45593999997E+02  0.45594000000E+02  0.51100000000E-03 0.  1.
         11   -1    0    0    0    0 -0.00000000000E+00 -0.00000000000E+00 -0.45593999997E+02  0.45594000000E+02  0.51100000000E-03 0. -1.
    9900012    2    1    2    0    0  0.15281941510E+00  0.64599075270E+00 -0.97600377418E+00  0.90007643616E+02  0.89999903712E+02 0.  0.
        -12    1    1    2    0    0 -0.15281941510E+00 -0.64599075270E+00  0.97600377418E+00  0.11803563841E+01  0.00000000000E+00 0.  1.
         11    1    3    3    0    0  0.28565799468E+01  0.74408193952E+01 -0.25927266373E+01  0.83814124073E+01  0.51100000000E-03 0. -1.
        -11    1    3    3    0    0  0.15012067203E+02 -0.35608857731E+02  0.19587010292E+02  0.43324402859E+02  0.51100000000E-03 0.  1.
         12    1    3    3    0    0 -0.17715827735E+02  0.28814029089E+02 -0.17970287429E+02  0.38301828350E+02  0.00000000000E+00 0. -1.
</event>
<event>
 7    1  0.2294706E-015  0.9000779E+02  0.7816164E-02  0.1186339E+00
        -11   -1    0    0    0    0  0.00000000000E+00  0.00000000000E+00  0.45593999997E+02  0.45594000000E+02  0.51100000000E-03 0. -1.
         11   -1    0    0    0    0 -0.00000000000E+00 -0.00000000000E+00 -0.45593999997E+02  0.45594000000E+02  0.51100000000E-03 0.  1.
    9900012    2    1    2    0    0 -0.99175954833E-01  0.11403291478E+01 -0.28760141550E+00  0.90007787727E+02  0.90000049725E+02 0.  0.
        -12    1    1    2    0    0  0.99175954833E-01 -0.11403291478E+01  0.28760141550E+00  0.11802122731E+01  0.00000000000E+00 0.  1.
         11    1    3    3    0    0  0.17444127488E+01 -0.71299151722E+01 -0.58555744924E+01  0.93896974977E+01  0.51100000000E-03 0. -1.
        -11    1    3    3    0    0  0.17224757078E+02 -0.31243499353E+02  0.84004530503E+01  0.36652641378E+02  0.51100000000E-03 0.  1.
         12    1    3    3    0    0 -0.19068345782E+02  0.39513743673E+02 -0.28324799734E+01  0.43965448852E+02  0.00000000000E+00 0. -1.
</event>
<event>
 7    1  0.2294706E-015  0.9000785E+02  0.7816164E-02  0.1186339E+00
        -11   -1    0    0    0    0  0.00000000000E+00  0.00000000000E+00  0.45593999997E+02  0.45594000000E+02  0.51100000000E-03 0. -1.
         11   -1    0    0    0    0 -0.00000000000E+00 -0.00000000000E+00 -0.45593999997E+02  0.45594000000E+02  0.51100000000E-03 0.  1.
    9900012    2    1    2    0    0  0.80603251051E+00 -0.86191125232E+00 -0.12963948035E-01  0.90007852772E+02  0.90000115629E+02 0.  0.
        -12    1    1    2    0    0 -0.80603251051E+00  0.86191125232E+00  0.12963948035E-01  0.11801472276E+01  0.00000000000E+00 0.  1.
         11    1    3    3    0    0 -0.64537545330E+01  0.27378931961E+02  0.22995793437E+02  0.36332676463E+02  0.51100000000E-03 0. -1.
        -11    1    3    3    0    0 -0.11199455345E+02 -0.61472039572E+01  0.48001251943E+01  0.13647604869E+02  0.51100000000E-03 0.  1.
        -12    1    3    3    0    0  0.18459242388E+02 -0.22093639256E+02 -0.27808882579E+02  0.40027571441E+02  0.00000000000E+00 0.  1.
</event>
<event>
 7    1  0.2294706E-015  0.9000763E+02  0.7816164E-02  0.1186339E+00
        -11   -1    0    0    0    0  0.00000000000E+00  0.00000000000E+00  0.45593999997E+02  0.45594000000E+02  0.51100000000E-03 0.  1.
         11   -1    0    0    0    0 -0.00000000000E+00 -0.00000000000E+00 -0.45593999997E+02  0.45594000000E+02  0.51100000000E-03 0. -1.
    9900012    2    1    2    0    0  0.11314245842E+01 -0.18720395811E+00  0.27948276347E+00  0.90007628225E+02  0.89999888118E+02 0.  0.
        -12    1    1    2    0    0 -0.11314245842E+01  0.18720395811E+00 -0.27948276347E+00  0.11803717748E+01  0.00000000000E+00 0.  1.
         11    1    3    3    0    0  0.85653763496E+01  0.21133340060E+01 -0.37183061011E+02  0.38215335652E+02  0.51100000000E-03 0. -1.
        -11    1    3    3    0    0 -0.10751322190E+01 -0.88353666827E+01 -0.36948508768E+01  0.96369879614E+01  0.51100000000E-03 0.  1.
        -12    1    3    3    0    0 -0.63588195464E+01  0.65348287186E+01  0.41157394651E+02  0.42155304611E+02  0.00000000000E+00 0.  1.
</event>
<event>
 7    1  0.2294706E-015  0.9000775E+02  0.7816164E-02  0.1186339E+00
        -11   -1    0    0    0    0  0.00000000000E+00  0.00000000000E+00  0.45593999997E+02  0.45594000000E+02  0.51100000000E-03 0. -1.
         11   -1    0    0    0    0 -0.00000000000E+00 -0.00000000000E+00 -0.45593999997E+02  0.45594000000E+02  0.51100000000E-03 0.  1.
    9900012    2    1    2    0    0 -0.26664413536E+00  0.14746057175E+00  0.11402361316E+01  0.90007753352E+02  0.90000014896E+02 0.  0.
        -12    1    1    2    0    0  0.26664413536E+00 -0.14746057175E+00 -0.11402361316E+01  0.11802466484E+01  0.00000000000E+00 0.  1.
         11    1    3    3    0    0 -0.31418126762E+01  0.10003242270E+02  0.13411425876E+02  0.17023577388E+02  0.51100000000E-03 0. -1.
        -11    1    3    3    0    0  0.32684744006E+02 -0.20109357468E+02  0.18981107439E+01  0.38422409779E+02  0.51100000000E-03 0.  1.
         12    1    3    3    0    0 -0.29809575466E+02  0.10253575770E+02 -0.14169300488E+02  0.34561766185E+02  0.00000000000E+00 0. -1.
</event>
<event>
 7    1  0.2294706E-015  0.9000774E+02  0.7816164E-02  0.1186339E+00
        -11   -1    0    0    0    0  0.00000000000E+00  0.00000000000E+00  0.45593999997E+02  0.45594000000E+02  0.51100000000E-03 0. -1.
         11   -1    0    0    0    0 -0.00000000000E+00 -0.00000000000E+00 -0.45593999997E+02  0.45594000000E+02  0.51100000000E-03 0.  1.
    9900012    2    1    2    0    0 -0.80890817554E+00 -0.26381730037E+00  0.81797272075E+00  0.90007740971E+02  0.90000002351E+02 0.  0.
        -12    1    1    2    0    0  0.80890817554E+00  0.26381730037E+00 -0.81797272075E+00  0.11802590293E+01  0.00000000000E+00 0.  1.
         11    1    3    3    0    0  0.56920443197E+01 -0.37063076399E+01 -0.63424857294E+01  0.92931808520E+01  0.51100000000E-03 0. -1.
        -11    1    3    3    0    0  0.12823050569E+02  0.68897559626E+01 -0.32970086210E+02  0.36040615257E+02  0.51100000000E-03 0.  1.
         12    1    3    3    0    0 -0.19324003065E+02 -0.34472656231E+01  0.40130544661E+02  0.44673944861E+02  0.00000000000E+00 0. -1.
</event>
<event>
 7    1  0.2294706E-015  0.9000760E+02  0.7816164E-02  0.1186339E+00
        -11   -1    0    0    0    0  0.00000000000E+00  0.00000000000E+00  0.45593999997E+02  0.45594000000E+02  0.51100000000E-03 0.  1.
         11   -1    0    0    0    0 -0.00000000000E+00 -0.00000000000E+00 -0.45593999997E+02  0.45594000000E+02  0.51100000000E-03 0. -1.
    9900012    2    1    2    0    0 -0.21313270859E+00  0.10174350320E+01 -0.55923891147E+00  0.90007598477E+02  0.89999857977E+02 0.  0.
        -12    1    1    2    0    0  0.21313270859E+00 -0.10174350320E+01  0.55923891147E+00  0.11804015232E+01  0.00000000000E+00 0.  1.
         11    1    3    3    0    0 -0.10807431451E+02  0.62356065465E+01 -0.96927574532E+01  0.15799775659E+02  0.51100000000E-03 0. -1.
        -11    1    3    3    0    0 -0.29146264023E+02  0.62647511041E+01 -0.55279814594E+01  0.30320131797E+02  0.51100000000E-03 0.  1.
        -12    1    3    3    0    0  0.39740562766E+02 -0.11482922619E+02  0.14661500001E+02  0.43887691020E+02  0.00000000000E+00 0.  1.
</event>
<event>
 7    1  0.2294706E-015  0.9000771E+02  0.7816164E-02  0.1186339E+00
        -11   -1    0    0    0    0  0.00000000000E+00  0.00000000000E+00  0.45593999997E+02  0.45594000000E+02  0.51100000000E-03 0.  1.
         11   -1    0    0    0    0 -0.00000000000E+00 -0.00000000000E+00 -0.45593999997E+02  0.45594000000E+02  0.51100000000E-03 0. -1.
    9900012    2    1    2    0    0 -0.63879920204E+00 -0.61906448682E+00 -0.77575178159E+00  0.90007705085E+02  0.89999965992E+02 0.  0.
        -12    1    1    2    0    0  0.63879920204E+00  0.61906448682E+00  0.77575178159E+00  0.11802949148E+01  0.00000000000E+00 0.  1.
         11    1    3    3    0    0 -0.71116911063E+00  0.52070933589E+01  0.85192650396E+01  0.10009868122E+02  0.51100000000E-03 0. -1.
        -11    1    3    3    0    0  0.10375401035E+00  0.34254430382E+02 -0.18417894605E+02  0.38892102124E+02  0.51100000000E-03 0.  1.
         12    1    3    3    0    0 -0.31384101765E-01 -0.40080588227E+02  0.91228777837E+01  0.41105734839E+02  0.00000000000E+00 0. -1.
</event>
<event>
 7    1  0.2294706E-015  0.9000776E+02  0.7816164E-02  0.1186339E+00
        -11   -1    0    0    0    0  0.00000000000E+00  0.00000000000E+00  0.45593999997E+02  0.45594000000E+02  0.51100000000E-03 0. -1.
         11   -1    0    0    0    0 -0.00000000000E+00 -0.00000000000E+00 -0.45593999997E+02  0.45594000000E+02  0.51100000000E-03 0.  1.
    9900012    2    1    2    0    0 -0.11682269806E+01  0.11758068658E+00 -0.11992970426E+00  0.90007761622E+02  0.90000023275E+02 0.  0.
        -12    1    1    2    0    0  0.11682269806E+01 -0.11758068658E+00  0.11992970426E+00  0.11802383784E+01  0.00000000000E+00 0.  1.
         11    1    3    3    0    0  0.10608314700E+01 -0.44254928640E+01  0.86991104645E+01  0.98175798256E+01  0.51100000000E-03 0. -1.
        -11    1    3    3    0    0 -0.37018698940E+02 -0.36987230580E+00  0.12523044162E+02  0.39081293634E+02  0.51100000000E-03 0.  1.
         12    1    3    3    0    0  0.34789640489E+02  0.49129458563E+01 -0.21342084331E+02  0.41108888162E+02  0.00000000000E+00 0. -1.
</event>
<event>
 7    1  0.2294706E-015  0.9000772E+02  0.7816164E-02  0.1186339E+00
        -11   -1    0    0    0    0  0.00000000000E+00  0.00000000000E+00  0.45593999997E+02  0.45594000000E+02  0.51100000000E-03 0. -1.
         11   -1    0    0    0    0 -0.00000000000E+00 -0.00000000000E+00 -0.45593999997E+02  0.45594000000E+02  0.51100000000E-03 0.  1.
    9900012    2    1    2    0    0 -0.33561954822E+00  0.58743472501E+00  0.96712651897E+00  0.90007723024E+02  0.89999984168E+02 0.  0.
        -12    1    1    2    0    0  0.33561954822E+00 -0.58743472501E+00 -0.96712651897E+00  0.11802769764E+01  0.00000000000E+00 0.  1.
         11    1    3    3    0    0  0.25705697842E+01  0.39997891568E+01 -0.91021133185E+01  0.10269109476E+02  0.51100000000E-03 0. -1.
        -11    1    3    3    0    0  0.15600793489E+02 -0.21633640341E+02 -0.24691821487E+02  0.36346735761E+02  0.51100000000E-03 0.  1.
         12    1    3    3    0    0 -0.18506982822E+02  0.18221285909E+02  0.34761061325E+02  0.43391877786E+02  0.00000000000E+00 0. -1.
</event>
<event>
 7    1  0.2294706E-015  0.9000774E+02  0.7816164E-02  0.1186339E+00
        -11   -1    0    0    0    0  0.00000000000E+00  0.00000000000E+00  0.45593999997E+02  0.45594000000E+02  0.51100000000E-03 0.  1.
         11   -1    0    0    0    0 -0.00000000000E+00 -0.00000000000E+00 -0.45593999997E+02  0.45594000000E+02  0.51100000000E-03 0. -1.
    9900012    2    1    2    0    0 -0.25518815369E+00  0.11413571830E+01  0.15870273173E+00  0.90007744193E+02  0.90000005616E+02 0.  0.
        -12    1    1    2    0    0  0.25518815369E+00 -0.11413571830E+01 -0.15870273173E+00  0.11802558070E+01  0.00000000000E+00 0.  1.
         11    1    3    3    0    0 -0.36126494285E+02  0.39673273371E+01 -0.76572890411E+01  0.37141585201E+02  0.51100000000E-03 0. -1.
        -11    1    3    3    0    0 -0.69623323748E+01 -0.38994075180E+01 -0.32448488448E+01  0.86144352905E+01  0.51100000000E-03 0.  1.
        -12    1    3    3    0    0  0.42833638506E+02  0.10734373639E+01  0.11060840618E+02  0.44251723702E+02  0.00000000000E+00 0.  1.
</event>
<event>
 7    1  0.2294706E-015  0.9000768E+02  0.7816164E-02  0.1186339E+00
        -11   -1    0    0    0    0  0.00000000000E+00  0.00000000000E+00  0.45593999997E+02  0.45594000000E+02  0.51100000000E-03 0.  1.
         11   -1    0    0    0    0 -0.00000000000E+00 -0.00000000000E+00 -0.45593999997E+02  0.45594000000E+02  0.51100000000E-03 0. -1.
    9900012    2    1    2    0    0  0.91884632720E+00 -0.72400895194E+00  0.15712601527E+00  0.90007679654E+02  0.89999940225E+02 0.  0.
        -12    1    1    2    0    0 -0.91884632720E+00  0.72400895194E+00 -0.15712601527E+00  0.11803203464E+01  0.00000000000E+00 0.  1.
         11    1    3    3    0    0  0.19626257549E+02  0.61030917296E+01 -0.29260398514E+02  0.35757637443E+02  0.51100000000E-03 0. -1.
        -11    1    3    3    0    0 -0.25855210363E+02 -0.17306045992E+02  0.13548862463E+02  0.33934684396E+02  0.51100000000E-03 0.  1.
         12    1    3    3    0    0  0.71477991411E+01  0.10478945310E+02  0.15868662066E+02  0.20315357815E+02  0.00000000000E+00 0. -1.
</event>
<event>
 7    1  0.2294706E-015  0.9000769E+02  0.7816164E-02  0.1186339E+00
        -11   -1    0    0    0    0  0.00000000000E+00  0.00000000000E+00  0.45593999997E+02  0.45594000000E+02  0.51100000000E-03 0.  1.
         11   -1    0    0    0    0 -0.00000000000E+00 -0.00000000000E+00 -0.45593999997E+02  0.45594000000E+02  0.51100000000E-03 0. -1.
    9900012    2    1    2    0    0 -0.40329695676E+00 -0.46841407593E+00 -0.10055210547E+01  0.90007689544E+02  0.89999950246E+02 0.  0.
        -12    1    1    2    0    0  0.40329695676E+00  0.46841407593E+00  0.10055210547E+01  0.11803104563E+01  0.00000000000E+00 0.  1.
         11    1    3    3    0    0 -0.11414780455E+02  0.39154878620E+02 -0.76252048845E+01  0.41491510967E+02  0.51100000000E-03 0. -1.
        -11    1    3    3    0    0 -0.74006188613E+01 -0.55451579318E+01  0.23932310129E+01  0.95522505704E+01  0.51100000000E-03 0.  1.
        -12    1    3    3    0    0  0.18412102359E+02 -0.34078134764E+02  0.42264528169E+01  0.38963928006E+02  0.00000000000E+00 0.  1.
</event>
<event>
 7    1  0.2294706E-015  0.9000779E+02  0.7816164E-02  0.1186339E+00
        -11   -1    0    0    0    0  0.00000000000E+00  0.00000000000E+00  0.45593999997E+02  0.45594000000E+02  0.51100000000E-03 0. -1.
         11   -1    0    0    0    0 -0.00000000000E+00 -0.00000000000E+00 -0.45593999997E+02  0.45594000000E+02  0.51100000000E-03 0.  1.
    9900012    2    1    2    0    0 -0.81413716479E+00 -0.84852615999E+00 -0.10034837767E+00  0.90007794186E+02  0.90000056269E+02 0.  0.
        -12    1    1    2    0    0  0.81413716479E+00  0.84852615999E+00  0.10034837767E+00  0.11802058143E+01  0.00000000000E+00 0.  1.
         11    1    3    3    0    0  0.54538176716E+01 -0.35408515824E+02  0.21173641688E+02  0.41615264299E+02  0.51100000000E-03 0. -1.
        -11    1    3    3    0    0  0.32989581189E+01  0.74560030550E+01  0.49047334885E+01  0.95148051521E+01  0.51100000000E-03 0.  1.
        -12    1    3    3    0    0 -0.95669129553E+01  0.27103986609E+02 -0.26178723554E+02  0.38877724735E+02  0.00000000000E+00 0.  1.
</event>
<event>
 7    1  0.2294706E-015  0.9000772E+02  0.7816164E-02  0.1186339E+00
        -11   -1    0    0    0    0  0.00000000000E+00  0.00000000000E+00  0.45593999997E+02  0.45594000000E+02  0.51100000000E-03 0. -1.
         11   -1    0    0    0    0 -0.00000000000E+00 -0.00000000000E+00 -0.45593999997E+02  0.45594000000E+02  0.51100000000E-03 0.  1.
    9900012    2    1    2    0    0 -0.60210677111E+00  0.92742189719E+00  0.41281481049E+00  0.90007720369E+02  0.89999981478E+02 0.  0.
        -12    1    1    2    0    0  0.60210677111E+00 -0.92742189719E+00 -0.41281481049E+00  0.11802796308E+01  0.00000000000E+00 0.  1.
         11    1    3    3    0    0 -0.28448126736E+01  0.15909721264E+02  0.37348995916E+02  0.40695941887E+02  0.51100000000E-03 0. -1.
        -11    1    3    3    0    0  0.16629512530E+01 -0.81551683838E+01  0.29583717748E+01  0.88331275354E+01  0.51100000000E-03 0.  1.
        -12    1    3    3    0    0  0.57975464952E+00 -0.68271309828E+01 -0.39894552881E+02  0.40478650947E+02  0.00000000000E+00 0.  1.
</event>
<event>
 7    1  0.2294706E-015  0.9000771E+02  0.7816164E-02  0.1186339E+00
        -11   -1    0    0    0    0  0.00000000000E+00  0.00000000000E+00  0.45593999997E+02  0.45594000000E+02  0.51100000000E-03 0. -1.
         11   -1    0    0    0    0 -0.00000000000E+00 -0.00000000000E+00 -0.45593999997E+02  0.45594000000E+02  0.51100000000E-03 0.  1.
    9900012    2    1    2    0    0  0.89337966067E-01 -0.11513816422E+01 -0.24377475268E+00  0.90007708897E+02  0.89999969854E+02 0.  0.
        -12    1    1    2    0    0 -0.89337966067E-01  0.11513816422E+01  0.24377475268E+00  0.11802911031E+01  0.00000000000E+00 0.  1.
         11    1    3    3    0    0 -0.10015082822E+02 -0.68285814616E+01  0.15831766817E+01  0.12224477795E+02  0.51100000000E-03 0. -1.
        -11    1    3    3    0    0 -0.33312889861E+02 -0.11602839653E+01 -0.50470791355E+01  0.33713022674E+02  0.51100000000E-03 0.  1.
         12    1    3    3    0    0  0.43417310648E+02  0.68374837847E+01  0.32201277011E+01  0.44070208428E+02  0.00000000000E+00 0. -1.
</event>
<event>
 7    1  0.2414282E-015  0.9000798E+02  0.7816164E-02  0.1186339E+00
        -11   -1    0    0    0    0  0.00000000000E+00  0.00000000000E+00  0.45593999997E+02  0.45594000000E+02  0.51100000000E-03 0. -1.
         11   -1    0    0    0    0 -0.00000000000E+00 -0.00000000000E+00 -0.45593999997E+02  0.45594000000E+02  0.51100000000E-03 0.  1.
    9900012    2    1    2    0    0 -0.71671450120E-01  0.11240336407E+01 -0.35194424249E+00  0.90007977470E+02  0.90000241972E+02 0.  0.
        -12    1    1    2    0    0  0.71671450120E-01 -0.11240336407E+01  0.35194424249E+00  0.11800225303E+01  0.00000000000E+00 0.  1.
         11    1    3    3    0    0 -0.34939593465E+02 -0.14232864672E+02 -0.57357241721E+01  0.38160819702E+02  0.51100000000E-03 0. -1.
        -11    1    3    3    0    0  0.53194717099E+00 -0.88093269046E+01  0.43680591728E+01  0.98471899293E+01  0.51100000000E-03 0.  1.
        -12    1    3    3    0    0  0.34335974844E+02  0.24166225217E+02  0.10157207568E+01  0.41999967838E+02  0.00000000000E+00 0.  1.
</event>
<event>
 7    1  0.2663731E-015  0.9000779E+02  0.7816164E-02  0.1186339E+00
        -11   -1    0    0    0    0  0.00000000000E+00  0.00000000000E+00  0.45593999997E+02  0.45594000000E+02  0.51100000000E-03 0. -1.
         11   -1    0    0    0    0 -0.00000000000E+00 -0.00000000000E+00 -0.45593999997E+02  0.45594000000E+02  0.51100000000E-03 0.  1.
    9900012    2    1    2    0    0  0.16202158324E+00  0.96073263652E+00  0.66605988473E+00  0.90007790712E+02  0.90000052750E+02 0.  0.
        -12    1    1    2    0    0 -0.16202158324E+00 -0.96073263652E+00 -0.66605988473E+00  0.11802092875E+01  0.00000000000E+00 0.  1.
         11    1    3    3    0    0 -0.30067867988E+02 -0.19402321476E+02 -0.12313731582E+02  0.37843820496E+02  0.51100000000E-03 0. -1.
        -11    1    3    3    0    0 -0.40405849721E+01  0.50319155044E+01 -0.70946033912E+01  0.95906151053E+01  0.51100000000E-03 0.  1.
        -12    1    3    3    0    0  0.34270474544E+02  0.15331138608E+02  0.20074394858E+02  0.42573355111E+02  0.00000000000E+00 0.  1.
</event>
<event>
 7    1  0.2294706E-015  0.9000791E+02  0.7816164E-02  0.1186339E+00
        -11   -1    0    0    0    0  0.00000000000E+00  0.00000000000E+00  0.45593999997E+02  0.45594000000E+02  0.51100000000E-03 0. -1.
         11   -1    0    0    0    0 -0.00000000000E+00 -0.00000000000E+00 -0.45593999997E+02  0.45594000000E+02  0.51100000000E-03 0.  1.
    9900012    2    1    2    0    0  0.98825416688E+00  0.15275488531E+00  0.62660011646E+00  0.90007911843E+02  0.90000175479E+02 0.  0.
        -12    1    1    2    0    0 -0.98825416688E+00 -0.15275488531E+00 -0.62660011646E+00  0.11800881574E+01  0.00000000000E+00 0.  1.
         11    1    3    3    0    0 -0.25458355686E+02  0.34491152972E+01  0.24569963276E+02  0.35548661947E+02  0.51100000000E-03 0. -1.
        -11    1    3    3    0    0  0.68600933292E+01 -0.59889113391E+01  0.11018398581E+02  0.14294511081E+02  0.51100000000E-03 0.  1.
        -12    1    3    3    0    0  0.19586516524E+02  0.26925509272E+01 -0.34961761740E+02  0.40164738814E+02  0.00000000000E+00 0.  1.
</event>
<event>
 7    1  0.2294706E-015  0.9000778E+02  0.7816164E-02  0.1186339E+00
        -11   -1    0    0    0    0  0.00000000000E+00  0.00000000000E+00  0.45593999997E+02  0.45594000000E+02  0.51100000000E-03 0.  1.
         11   -1    0    0    0    0 -0.00000000000E+00 -0.00000000000E+00 -0.45593999997E+02  0.45594000000E+02  0.51100000000E-03 0. -1.
    9900012    2    1    2    0    0 -0.11324846523E+01  0.21083008277E+00 -0.25682449921E+00  0.90007775600E+02  0.90000037438E+02 0.  0.
        -12    1    1    2    0    0  0.11324846523E+01 -0.21083008277E+00  0.25682449921E+00  0.11802244002E+01  0.00000000000E+00 0.  1.
         11    1    3    3    0    0  0.94398276858E+01  0.19986153882E+01  0.27639523971E+01  0.10037143185E+02  0.51100000000E-03 0. -1.
        -11    1    3    3    0    0  0.74242369114E+01 -0.16164363487E+02  0.32840909974E+02  0.37348779214E+02  0.51100000000E-03 0.  1.
         12    1    3    3    0    0 -0.17996549249E+02  0.14376578181E+02 -0.35861686870E+02  0.42621853200E+02  0.00000000000E+00 0. -1.
</event>
<event>
 7    1  0.2294706E-015  0.9000765E+02  0.7816164E-02  0.1186339E+00
        -11   -1    0    0    0    0  0.00000000000E+00  0.00000000000E+00  0.45593999997E+02  0.45594000000E+02  0.51100000000E-03 0.  1.
         11   -1    0    0    0    0 -0.00000000000E+00 -0.00000000000E+00 -0.45593999997E+02  0.45594000000E+02  0.51100000000E-03 0. -1.
    9900012    2    1    2    0    0 -0.42290040052E+00  0.10842436665E+01  0.19699482385E+00  0.90007645800E+02  0.89999905924E+02 0.  0.
        -12    1    1    2    0    0  0.42290040052E+00 -0.10842436665E+01 -0.19699482385E+00  0.11803542001E+01  0.00000000000E+00 0.  1.
         11    1    3    3    0    0  0.96394722238E+01 -0.25787422634E+01  0.32209326572E+01  0.10485406232E+02  0.51100000000E-03 0. -1.
        -11    1    3    3    0    0  0.84576967778E-01  0.39447782183E+02  0.89431836965E+01  0.40448920965E+02  0.51100000000E-03 0.  1.
         12    1    3    3    0    0 -0.10146949592E+02 -0.35784796253E+02 -0.11967121530E+02  0.39073318602E+02  0.00000000000E+00 0. -1.
</event>
<event>
 7    1  0.2294706E-015  0.9000793E+02  0.7816164E-02  0.1186339E+00
        -11   -1    0    0    0    0  0.00000000000E+00  0.00000000000E+00  0.45593999997E+02  0.45594000000E+02  0.51100000000E-03 0. -1.
         11   -1    0    0    0    0 -0.00000000000E+00 -0.00000000000E+00 -0.45593999997E+02  0.45594000000E+02  0.51100000000E-03 0.  1.
    9900012    2    1    2    0    0  0.68040652796E+00 -0.60229679182E+00  0.75288845296E+00  0.90007934116E+02  0.90000198046E+02 0.  0.
        -12    1    1    2    0    0 -0.68040652796E+00  0.60229679182E+00 -0.75288845296E+00  0.11800658843E+01  0.00000000000E+00 0.  1.
         11    1    3    3    0    0 -0.90351729422E+01  0.73411943312E+01  0.15858267634E+02  0.19672624048E+02  0.51100000000E-03 0. -1.
        -11    1    3    3    0    0 -0.20452955035E+02  0.92084445872E+01  0.12780774744E+02  0.25816022635E+02  0.51100000000E-03 0.  1.
         12    1    3    3    0    0  0.30168534505E+02 -0.17151935710E+02 -0.27886153925E+02  0.44519287433E+02  0.00000000000E+00 0. -1.
</event>
<event>
 7    1  0.2294706E-015  0.9000772E+02  0.7816164E-02  0.1186339E+00
        -11   -1    0    0    0    0  0.00000000000E+00  0.00000000000E+00  0.45593999997E+02  0.45594000000E+02  0.51100000000E-03 0.  1.
         11   -1    0    0    0    0 -0.00000000000E+00 -0.00000000000E+00 -0.45593999997E+02  0.45594000000E+02  0.51100000000E-03 0. -1.
    9900012    2    1    2    0    0 -0.82342612008E+00  0.41730052066E+00 -0.73544926922E+00  0.90007722097E+02  0.89999983229E+02 0.  0.
        -12    1    1    2    0    0  0.82342612008E+00 -0.41730052066E+00  0.73544926922E+00  0.11802779026E+01  0.00000000000E+00 0.  1.
         11    1    3    3    0    0 -0.34213412221E+02  0.64097633762E+01 -0.19055511570E+02  0.39683184900E+02  0.51100000000E-03 0. -1.
        -11    1    3    3    0    0  0.35524348992E+01 -0.90412571356E+01 -0.62513301553E+01  0.11551764076E+02  0.51100000000E-03 0.  1.
        -12    1    3    3    0    0  0.29837551202E+02  0.30487942801E+01  0.24571392456E+02  0.38772773121E+02  0.00000000000E+00 0.  1.
</event>
<event>
 7    1  0.2294706E-015  0.9000759E+02  0.7816164E-02  0.1186339E+00
        -11   -1    0    0    0    0  0.00000000000E+00  0.00000000000E+00  0.45593999997E+02  0.45594000000E+02  0.51100000000E-03 0. -1.
         11   -1    0    0    0    0 -0.00000000000E+00 -0.00000000000E+00 -0.45593999997E+02  0.45594000000E+02  0.51100000000E-03 0.  1.
    9900012    2    1    2    0    0 -0.99480885221E+00  0.39000377216E+00 -0.50162204717E+00  0.90007588092E+02  0.89999847455E+02 0.  0.
        -12    1    1    2    0    0  0.99480885221E+00 -0.39000377216E+00  0.50162204717E+00  0.11804119082E+01  0.00000000000E+00 0.  1.
         11    1    3    3    0    0 -0.30318290083E+02  0.38414305240E+01  0.29606512200E+02  0.42549980810E+02  0.51100000000E-03 0. -1.
        -11    1    3    3    0    0 -0.17311132557E+01 -0.44108546835E+01 -0.80963762659E+01  0.93810287838E+01  0.51100000000E-03 0.  1.
        -12    1    3    3    0    0  0.31054594487E+02  0.95942793160E+00 -0.22011757981E+02  0.38076578498E+02  0.00000000000E+00 0.  1.
</event>
<event>
 7    1  0.2294706E-015  0.9000773E+02  0.7816164E-02  0.1186339E+00
        -11   -1    0    0    0    0  0.00000000000E+00  0.00000000000E+00  0.45593999997E+02  0.45594000000E+02  0.51100000000E-03 0. -1.
         11   -1    0    0    0    0 -0.00000000000E+00 -0.00000000000E+00 -0.45593999997E+02  0.45594000000E+02  0.51100000000E-03 0.  1.
    9900012    2    1    2    0    0 -0.59025086986E+00 -0.42757360971E+00  0.92833881557E+00  0.90007733828E+02  0.89999995114E+02 0.  0.
        -12    1    1    2    0    0  0.59025086986E+00  0.42757360971E+00 -0.92833881557E+00  0.11802661723E+01  0.00000000000E+00 0.  1.
         11    1    3    3    0    0  0.99540700566E+01 -0.17812447793E+01  0.56668978403E+00  0.10128054168E+02  0.51100000000E-03 0. -1.
        -11    1    3    3    0    0 -0.18021807429E+02 -0.36702360240E+02  0.30575584760E+01  0.41002407909E+02  0.51100000000E-03 0.  1.
         12    1    3    3    0    0  0.74774865030E+01  0.38056031410E+02 -0.26959094445E+01  0.38877271751E+02  0.00000000000E+00 0. -1.
</event>
<event>
 7    1  0.2294706E-015  0.9000770E+02  0.7816164E-02  0.1186339E+00
        -11   -1    0    0    0    0  0.00000000000E+00  0.00000000000E+00  0.45593999997E+02  0.45594000000E+02  0.51100000000E-03 0.  1.
         11   -1    0    0    0    0 -0.00000000000E+00 -0.00000000000E+00 -0.45593999997E+02  0.45594000000E+02  0.51100000000E-03 0. -1.
    9900012    2    1    2    0    0 -0.10741072602E+01 -0.40956496910E+00  0.26768909753E+00  0.90007700325E+02  0.89999961169E+02 0.  0.
        -12    1    1    2    0    0  0.10741072602E+01  0.40956496910E+00 -0.26768909753E+00  0.11802996752E+01  0.00000000000E+00 0.  1.
         11    1    3    3    0    0 -0.17499759972E+02 -0.29895661759E+02 -0.15828309697E+02  0.38085792354E+02  0.51100000000E-03 0. -1.
        -11    1    3    3    0    0  0.22947955913E+01 -0.60162081811E+01 -0.51104487536E+01  0.82205556021E+01  0.51100000000E-03 0.  1.
        -12    1    3    3    0    0  0.14130857121E+02  0.35502304971E+02  0.21206447548E+02  0.43701352369E+02  0.00000000000E+00 0.  1.
</event>
<event>
 7    1  0.2294706E-015  0.9000774E+02  0.7816164E-02  0.1186339E+00
        -11   -1    0    0    0    0  0.00000000000E+00  0.00000000000E+00  0.45593999997E+02  0.45594000000E+02  0.51100000000E-03 0. -1.
         11   -1    0    0    0    0 -0.00000000000E+00 -0.00000000000E+00 -0.45593999997E+02  0.45594000000E+02  0.51100000000E-03 0.  1.
    9900012    2    1    2    0    0 -0.34795758591E-01 -0.11243761875E+00  0.11743814776E+01  0.90007735276E+02  0.89999996582E+02 0.  0.
        -12    1    1    2    0    0  0.34795758591E-01  0.11243761875E+00 -0.11743814776E+01  0.11802647236E+01  0.00000000000E+00 0.  1.
         11    1    3    3    0    0  0.20538973486E+02 -0.23985453611E+02 -0.11336712672E+02  0.33551042774E+02  0.51100000000E-03 0. -1.
        -11    1    3    3    0    0 -0.13330992257E+02  0.38527152720E+01 -0.15803339555E+02  0.21031032093E+02  0.51100000000E-03 0.  1.
        -12    1    3    3    0    0 -0.72427769877E+01  0.20020300721E+02  0.28314433705E+02  0.35425660409E+02  0.00000000000E+00 0.  1.
</event>
<event>
 7    1  0.2294706E-015  0.9000712E+02  0.7816164E-02  0.1186340E+00
        -11   -1    0    0    0    0  0.00000000000E+00  0.00000000000E+00  0.45593999997E+02  0.45594000000E+02  0.51100000000E-03 0. -1.
         11   -1    0    0    0    0 -0.00000000000E+00 -0.00000000000E+00 -0.45593999997E+02  0.45594000000E+02  0.51100000000E-03 0.  1.
    9900012    2    1    2    0    0 -0.11699774483E+01  0.12147601570E+00 -0.10430448710E+00  0.90007117670E+02  0.89999370821E+02 0.  0.
        -12    1    1    2    0    0  0.11699774483E+01 -0.12147601570E+00  0.10430448710E+00  0.11808823303E+01  0.00000000000E+00 0.  1.
         11    1    3    3    0    0  0.33715480079E+01 -0.21753312827E+02  0.29077671706E+02  0.36470329680E+02  0.51100000000E-03 0. -1.
        -11    1    3    3    0    0 -0.91324658401E+01 -0.42437139395E+01  0.41934122304E+01  0.10908517164E+02  0.51100000000E-03 0.  1.
        -12    1    3    3    0    0  0.45909403838E+01  0.26118502782E+02 -0.33375388423E+02  0.42628270826E+02  0.00000000000E+00 0.  1.
</event>
<event>
 7    1  0.2294706E-015  0.9000801E+02  0.7816164E-02  0.1186339E+00
        -11   -1    0    0    0    0  0.00000000000E+00  0.00000000000E+00  0.45593999997E+02  0.45594000000E+02  0.51100000000E-03 0.  1.
         11   -1    0    0    0    0 -0.00000000000E+00 -0.00000000000E+00 -0.45593999997E+02  0.45594000000E+02  0.51100000000E-03 0. -1.
    9900012    2    1    2    0    0  0.41683510609E+00 -0.50875480018E+00 -0.97969298219E+00  0.90008007927E+02  0.90000272831E+02 0.  0.
        -12    1    1    2    0    0 -0.41683510609E+00  0.50875480018E+00  0.97969298219E+00  0.11799920727E+01  0.00000000000E+00 0.  1.
         11    1    3    3    0    0 -0.25142132618E+01 -0.47583981933E+01 -0.68242165665E+01  0.86910041825E+01  0.51100000000E-03 0. -1.
        -11    1    3    3    0    0 -0.15614614700E+02 -0.33501533778E+02  0.11883544280E+02  0.38825089603E+02  0.51100000000E-03 0.  1.
         12    1    3    3    0    0  0.18545663068E+02  0.37751177172E+02 -0.60390206958E+01  0.42491914142E+02  0.00000000000E+00 0. -1.
</event>
<event>
 7    1  0.2415538E-015  0.9000767E+02  0.7816164E-02  0.1186339E+00
        -11   -1    0    0    0    0  0.00000000000E+00  0.00000000000E+00  0.45593999997E+02  0.45594000000E+02  0.51100000000E-03 0.  1.
         11   -1    0    0    0    0 -0.00000000000E+00 -0.00000000000E+00 -0.45593999997E+02  0.45594000000E+02  0.51100000000E-03 0. -1.
    9900012    2    1    2    0    0 -0.11347300713E+01  0.18830341834E+00  0.26476108268E+00  0.90007674222E+02  0.89999934721E+02 0.  0.
        -12    1    1    2    0    0  0.11347300713E+01 -0.18830341834E+00 -0.26476108268E+00  0.11803257784E+01  0.00000000000E+00 0.  1.
         11    1    3    3    0    0  0.13280417123E+02  0.33306360821E+02  0.54457376360E+01  0.36267605501E+02  0.51100000000E-03 0. -1.
        -11    1    3    3    0    0  0.35206258790E+01  0.75167690453E+01 -0.42223054969E+01  0.93125983179E+01  0.51100000000E-03 0.  1.
        -12    1    3    3    0    0 -0.17935773073E+02 -0.40634826448E+02 -0.95867105645E+00  0.44427470403E+02  0.00000000000E+00 0.  1.
</event>
<event>
 7    1  0.2294706E-015  0.9000775E+02  0.7816164E-02  0.1186339E+00
        -11   -1    0    0    0    0  0.00000000000E+00  0.00000000000E+00  0.45593999997E+02  0.45594000000E+02  0.51100000000E-03 0. -1.
         11   -1    0    0    0    0 -0.00000000000E+00 -0.00000000000E+00 -0.45593999997E+02  0.45594000000E+02  0.51100000000E-03 0.  1.
    9900012    2    1    2    0    0 -0.88329456096E+00 -0.30863197597E+00  0.71939216038E+00  0.90007750849E+02  0.90000012360E+02 0.  0.
        -12    1    1    2    0    0  0.88329456096E+00  0.30863197597E+00 -0.71939216038E+00  0.11802491510E+01  0.00000000000E+00 0.  1.
         11    1    3    3    0    0 -0.28081419232E+01 -0.32906675978E+01  0.72615856642E+01  0.84525014593E+01  0.51100000000E-03 0. -1.
        -11    1    3    3    0    0 -0.20593848012E+02 -0.32181022985E+02  0.42096733517E+01  0.38437561919E+02  0.51100000000E-03 0.  1.
         12    1    3    3    0    0  0.22518695374E+02  0.35163058607E+02 -0.10751866856E+02  0.43117687471E+02  0.00000000000E+00 0. -1.
</event>
<event>
 7    1  0.2294706E-015  0.9000766E+02  0.7816164E-02  0.1186339E+00
        -11   -1    0    0    0    0  0.00000000000E+00  0.00000000000E+00  0.45593999997E+02  0.45594000000E+02  0.51100000000E-03 0.  1.
         11   -1    0    0    0    0 -0.00000000000E+00 -0.00000000000E+00 -0.45593999997E+02  0.45594000000E+02  0.51100000000E-03 0. -1.
    9900012    2    1    2    0    0 -0.50229032593E+00  0.58214573438E+00 -0.89554603889E+00  0.90007664482E+02  0.89999924853E+02 0.  0.
        -12    1    1    2    0    0  0.50229032593E+00 -0.58214573438E+00  0.89554603889E+00  0.11803355181E+01  0.00000000000E+00 0.  1.
         11    1    3    3    0    0  0.20351806445E+02  0.31335421014E+02 -0.59630201287E+01  0.37837312867E+02  0.51100000000E-03 0. -1.
        -11    1    3    3    0    0  0.37932955478E+01  0.39313259775E+01  0.78109933495E+01  0.95318430757E+01  0.51100000000E-03 0.  1.
        -12    1    3    3    0    0 -0.24647392319E+02 -0.34684601257E+02 -0.27435192596E+01  0.42638508539E+02  0.00000000000E+00 0.  1.
</event>
<event>
 7    1  0.2294706E-015  0.9000774E+02  0.7816164E-02  0.1186339E+00
        -11   -1    0    0    0    0  0.00000000000E+00  0.00000000000E+00  0.45593999997E+02  0.45594000000E+02  0.51100000000E-03 0.  1.
         11   -1    0    0    0    0 -0.00000000000E+00 -0.00000000000E+00 -0.45593999997E+02  0.45594000000E+02  0.51100000000E-03 0. -1.
    9900012    2    1    2    0    0  0.50806242073E+00  0.53438692443E+00 -0.92158203203E+00  0.90007741448E+02  0.90000002835E+02 0.  0.
        -12    1    1    2    0    0 -0.50806242073E+00 -0.53438692443E+00  0.92158203203E+00  0.11802585522E+01  0.00000000000E+00 0.  1.
         11    1    3    3    0    0  0.30886450925E+01  0.28850492795E+01  0.25769069452E+01  0.49501199499E+01  0.51100000000E-03 0. -1.
        -11    1    3    3    0    0 -0.53638289858E+00  0.31172280283E+01  0.40525271143E+02  0.40648522958E+02  0.51100000000E-03 0.  1.
         12    1    3    3    0    0 -0.20441997732E+01 -0.54678903834E+01 -0.44023760120E+02  0.44409098540E+02  0.00000000000E+00 0. -1.
</event>
<event>
 7    1  0.2294706E-015  0.9000774E+02  0.7816164E-02  0.1186339E+00
        -11   -1    0    0    0    0  0.00000000000E+00  0.00000000000E+00  0.45593999997E+02  0.45594000000E+02  0.51100000000E-03 0. -1.
         11   -1    0    0    0    0 -0.00000000000E+00 -0.00000000000E+00 -0.45593999997E+02  0.45594000000E+02  0.51100000000E-03 0.  1.
    9900012    2    1    2    0    0 -0.50905629503E+00  0.70226035455E+00  0.80044686009E+00  0.90007736007E+02  0.89999997322E+02 0.  0.
        -12    1    1    2    0    0  0.50905629503E+00 -0.70226035455E+00 -0.80044686009E+00  0.11802639929E+01  0.00000000000E+00 0.  1.
         11    1    3    3    0    0 -0.35166869843E+01 -0.47644067515E+01  0.27890069977E+01  0.65456259696E+01  0.51100000000E-03 0. -1.
        -11    1    3    3    0    0  0.27707661028E+02 -0.68951721708E+01 -0.31857048023E+02  0.42780011547E+02  0.51100000000E-03 0.  1.
         12    1    3    3    0    0 -0.24700030339E+02  0.12361839277E+02  0.29868487885E+02  0.40682098491E+02  0.00000000000E+00 0. -1.
</event>
<event>
 7    1  0.2294706E-015  0.9000763E+02  0.7816164E-02  0.1186339E+00
        -11   -1    0    0    0    0  0.00000000000E+00  0.00000000000E+00  0.45593999997E+02  0.45594000000E+02  0.51100000000E-03 0.  1.
         11   -1    0    0    0    0 -0.00000000000E+00 -0.00000000000E+00 -0.45593999997E+02  0.45594000000E+02  0.51100000000E-03 0. -1.
    9900012    2    1    2    0    0  0.29108763315E+00  0.90071164043E+00 -0.70517322947E+00  0.90007626011E+02  0.89999885875E+02 0.  0.
        -12    1    1    2    0    0 -0.29108763315E+00 -0.90071164043E+00  0.70517322947E+00  0.11803739886E+01  0.00000000000E+00 0.  1.
         11    1    3    3    0    0  0.38543454437E+02  0.10750275577E+02 -0.12099706788E+01  0.40032865676E+02  0.51100000000E-03 0. -1.
        -11    1    3    3    0    0  0.21240450990E+00  0.41180616300E+01 -0.72344199943E+01  0.83270871365E+01  0.51100000000E-03 0.  1.
        -12    1    3    3    0    0 -0.38464771314E+02 -0.13967625566E+02  0.77392174436E+01  0.41647673199E+02  0.00000000000E+00 0.  1.
</event>
<event>
 7    1  0.2294706E-015  0.9000787E+02  0.7816164E-02  0.1186339E+00
        -11   -1    0    0    0    0  0.00000000000E+00  0.00000000000E+00  0.45593999997E+02  0.45594000000E+02  0.51100000000E-03 0.  1.
         11   -1    0    0    0    0 -0.00000000000E+00 -0.00000000000E+00 -0.45593999997E+02  0.45594000000E+02  0.51100000000E-03 0. -1.
    9900012    2    1    2    0    0 -0.60769706978E+00  0.97773906303E+00  0.25968608606E+00  0.90007870233E+02  0.90000133320E+02 0.  0.
        -12    1    1    2    0    0  0.60769706978E+00 -0.97773906303E+00 -0.25968608606E+00  0.11801297671E+01  0.00000000000E+00 0.  1.
         11    1    3    3    0    0 -0.76456582935E+01  0.64498331602E+00  0.43207856470E+01  0.88057528404E+01  0.51100000000E-03 0. -1.
        -11    1    3    3    0    0 -0.68013281613E+01  0.23345696941E+02  0.29493538074E+02  0.38224971142E+02  0.51100000000E-03 0.  1.
         12    1    3    3    0    0  0.13839289385E+02 -0.23012941194E+02 -0.33554637635E+02  0.42977146251E+02  0.00000000000E+00 0. -1.
</event>
<event>
 7    1  0.2475710E-015  0.9000772E+02  0.7816164E-02  0.1186339E+00
        -11   -1    0    0    0    0  0.00000000000E+00  0.00000000000E+00  0.45593999997E+02  0.45594000000E+02  0.51100000000E-03 0.  1.
         11   -1    0    0    0    0 -0.00000000000E+00 -0.00000000000E+00 -0.45593999997E+02  0.45594000000E+02  0.51100000000E-03 0. -1.
    9900012    2    1    2    0    0 -0.62732235247E+00 -0.87499181536E+00 -0.48364764718E+00  0.90007720771E+02  0.89999981886E+02 0.  0.
        -12    1    1    2    0    0  0.62732235247E+00  0.87499181536E+00  0.48364764718E+00  0.11802792286E+01  0.00000000000E+00 0.  1.
         11    1    3    3    0    0 -0.92988975509E+01  0.35763490282E+02  0.89902049410E+00  0.36963562747E+02  0.51100000000E-03 0. -1.
        -11    1    3    3    0    0  0.47748092571E+01  0.66265455637E+01 -0.47934109192E+01  0.94703061223E+01  0.51100000000E-03 0.  1.
        -12    1    3    3    0    0  0.38967659414E+01 -0.43265027661E+02  0.34107427779E+01  0.43573851902E+02  0.00000000000E+00 0.  1.
</event>
<event>
 7    1  0.2294706E-015  0.9000779E+02  0.7816164E-02  0.1186339E+00
        -11   -1    0    0    0    0  0.00000000000E+00  0.00000000000E+00  0.45593999997E+02  0.45594000000E+02  0.51100000000E-03 0. -1.
         11   -1    0    0    0    0 -0.00000000000E+00 -0.00000000000E+00 -0.45593999997E+02  0.45594000000E+02  0.51100000000E-03 0.  1.
    9900012    2    1    2    0    0  0.32974049010E+00 -0.11023961066E+01  0.26247422274E+00  0.90007788712E+02  0.90000050723E+02 0.  0.
        -12    1    1    2    0    0 -0.32974049010E+00  0.11023961066E+01 -0.26247422274E+00  0.11802112879E+01  0.00000000000E+00 0.  1.
         11    1    3    3    0    0  0.13366536624E+02 -0.19537601452E+02  0.35643851067E+02  0.42788623382E+02  0.51100000000E-03 0. -1.
        -11    1    3    3    0    0 -0.69360922043E+01  0.45956587733E+01  0.44376228719E+00  0.83322493875E+01  0.51100000000E-03 0.  1.
        -12    1    3    3    0    0 -0.61007039295E+01  0.13839546572E+02 -0.35825139131E+02  0.38886915942E+02  0.00000000000E+00 0.  1.
</event>
<event>
 7    1  0.2294706E-015  0.9000776E+02  0.7816164E-02  0.1186339E+00
        -11   -1    0    0    0    0  0.00000000000E+00  0.00000000000E+00  0.45593999997E+02  0.45594000000E+02  0.51100000000E-03 0. -1.
         11   -1    0    0    0    0 -0.00000000000E+00 -0.00000000000E+00 -0.45593999997E+02  0.45594000000E+02  0.51100000000E-03 0.  1.
    9900012    2    1    2    0    0 -0.19890769138E+00  0.29934945037E-01  0.11629709442E+01  0.90007761978E+02  0.90000023636E+02 0.  0.
        -12    1    1    2    0    0  0.19890769138E+00 -0.29934945037E-01 -0.11629709442E+01  0.11802380216E+01  0.00000000000E+00 0.  1.
         11    1    3    3    0    0  0.54148444866E+01  0.16199463408E+01  0.82370975761E+01  0.99897219031E+01  0.51100000000E-03 0. -1.
        -11    1    3    3    0    0  0.36244925975E+02  0.15878350552E+01 -0.10855466455E+02  0.37868945474E+02  0.51100000000E-03 0.  1.
         12    1    3    3    0    0 -0.41858678153E+02 -0.31778464510E+01  0.37813398233E+01  0.42149094601E+02  0.00000000000E+00 0. -1.
</event>
<event>
 7    1  0.2294706E-015  0.9000780E+02  0.7816164E-02  0.1186339E+00
        -11   -1    0    0    0    0  0.00000000000E+00  0.00000000000E+00  0.45593999997E+02  0.45594000000E+02  0.51100000000E-03 0.  1.
         11   -1    0    0    0    0 -0.00000000000E+00 -0.00000000000E+00 -0.45593999997E+02  0.45594000000E+02  0.51100000000E-03 0. -1.
    9900012    2    1    2    0    0  0.82591597699E+00 -0.10841686319E+00 -0.83604603187E+00  0.90007803243E+02  0.90000065446E+02 0.  0.
        -12    1    1    2    0    0 -0.82591597699E+00  0.10841686319E+00  0.83604603187E+00  0.11801967568E+01  0.00000000000E+00 0.  1.
         11    1    3    3    0    0 -0.19241373603E+02  0.22277411417E+02  0.24685512024E+02  0.38417288058E+02  0.51100000000E-03 0. -1.
        -11    1    3    3    0    0 -0.69351448388E+01 -0.72844449724E+01  0.19156020140E+01  0.10238598724E+02  0.51100000000E-03 0.  1.
        -12    1    3    3    0    0  0.27002434419E+02 -0.15101383308E+02 -0.27437160070E+02  0.41351916462E+02  0.00000000000E+00 0.  1.
</event>
<event>
 7    1  0.2294706E-015  0.9000771E+02  0.7816164E-02  0.1186339E+00
        -11   -1    0    0    0    0  0.00000000000E+00  0.00000000000E+00  0.45593999997E+02  0.45594000000E+02  0.51100000000E-03 0. -1.
         11   -1    0    0    0    0 -0.00000000000E+00 -0.00000000000E+00 -0.45593999997E+02  0.45594000000E+02  0.51100000000E-03 0.  1.
    9900012    2    1    2    0    0  0.50899323471E+00  0.98923276620E+00  0.39423597338E+00  0.90007712924E+02  0.89999973935E+02 0.  0.
        -12    1    1    2    0    0 -0.50899323471E+00 -0.98923276620E+00 -0.39423597338E+00  0.11802870758E+01  0.00000000000E+00 0.  1.
         11    1    3    3    0    0 -0.10636257288E+02 -0.37041494355E+01 -0.88412118063E+01  0.14318439810E+02  0.51100000000E-03 0. -1.
        -11    1    3    3    0    0 -0.23553959999E+02 -0.21267361213E+02  0.53119671009E+01  0.32176181864E+02  0.51100000000E-03 0.  1.
         12    1    3    3    0    0  0.34699210522E+02  0.25960743415E+02  0.39234806787E+01  0.43513091250E+02  0.00000000000E+00 0. -1.
</event>
<event>
 7    1  0.2294706E-015  0.9000805E+02  0.7816164E-02  0.1186338E+00
        -11   -1    0    0    0    0  0.00000000000E+00  0.00000000000E+00  0.45593999997E+02  0.45594000000E+02  0.51100000000E-03 0. -1.
         11   -1    0    0    0    0 -0.00000000000E+00 -0.00000000000E+00 -0.45593999997E+02  0.45594000000E+02  0.51100000000E-03 0.  1.
    9900012    2    1    2    0    0  0.68125920771E+00  0.28088460859E+00  0.92156267876E+00  0.90008047441E+02  0.90000312866E+02 0.  0.
        -12    1    1    2    0    0 -0.68125920771E+00 -0.28088460859E+00 -0.92156267876E+00  0.11799525593E+01  0.00000000000E+00 0.  1.
         11    1    3    3    0    0 -0.69369850086E+01 -0.22619417464E+02  0.29774881369E+02  0.38030295400E+02  0.51100000000E-03 0. -1.
        -11    1    3    3    0    0 -0.59258286446E+00 -0.95609910994E+01 -0.45576964802E+01  0.10608312906E+02  0.51100000000E-03 0.  1.
        -12    1    3    3    0    0  0.82108270808E+01  0.32461293172E+02 -0.24295622210E+02  0.41369439134E+02  0.00000000000E+00 0.  1.
</event>
<event>
 7    1  0.2294706E-015  0.9000764E+02  0.7816164E-02  0.1186339E+00
        -11   -1    0    0    0    0  0.00000000000E+00  0.00000000000E+00  0.45593999997E+02  0.45594000000E+02  0.51100000000E-03 0.  1.
         11   -1    0    0    0    0 -0.00000000000E+00 -0.00000000000E+00 -0.45593999997E+02  0.45594000000E+02  0.51100000000E-03 0. -1.
    9900012    2    1    2    0    0 -0.11757137046E+01 -0.91945272945E-01  0.49953687617E-01  0.90007639030E+02  0.89999899065E+02 0.  0.
        -12    1    1    2    0    0  0.11757137046E+01  0.91945272945E-01 -0.49953687617E-01  0.11803609699E+01  0.00000000000E+00 0.  1.
         11    1    3    3    0    0  0.15671369708E+02 -0.12454962772E+02 -0.32643941220E+02  0.38292882169E+02  0.51100000000E-03 0. -1.
        -11    1    3    3    0    0 -0.18868297965E+01 -0.38257899860E+01 -0.58934376526E+01  0.72752596740E+01  0.51100000000E-03 0.  1.
        -12    1    3    3    0    0 -0.14960253616E+02  0.16188807485E+02  0.38587332561E+02  0.44439497187E+02  0.00000000000E+00 0.  1.
</event>
<event>
 7    1  0.2294706E-015  0.9000797E+02  0.7816164E-02  0.1186339E+00
        -11   -1    0    0    0    0  0.00000000000E+00  0.00000000000E+00  0.45593999997E+02  0.45594000000E+02  0.51100000000E-03 0. -1.
         11   -1    0    0    0    0 -0.00000000000E+00 -0.00000000000E+00 -0.45593999997E+02  0.45594000000E+02  0.51100000000E-03 0.  1.
    9900012    2    1    2    0    0  0.10318744283E+01 -0.50680428356E+00  0.26619659192E+00  0.90007967779E+02  0.90000232153E+02 0.  0.
        -12    1    1    2    0    0 -0.10318744283E+01  0.50680428356E+00 -0.26619659192E+00  0.11800322212E+01  0.00000000000E+00 0.  1.
         11    1    3    3    0    0  0.58414540797E+01  0.37908951062E+02 -0.57852626495E+01  0.38790210370E+02  0.51100000000E-03 0. -1.
        -11    1    3    3    0    0 -0.24064356697E+01  0.24170700564E+01  0.95734963035E+01  0.10162922416E+02  0.51100000000E-03 0.  1.
        -12    1    3    3    0    0 -0.24031439817E+01 -0.40832825402E+02 -0.35220370621E+01  0.41054834993E+02  0.00000000000E+00 0.  1.
</event>
<event>
 7    1  0.2294706E-015  0.9000769E+02  0.7816164E-02  0.1186339E+00
        -11   -1    0    0    0    0  0.00000000000E+00  0.00000000000E+00  0.45593999997E+02  0.45594000000E+02  0.51100000000E-03 0.  1.
         11   -1    0    0    0    0 -0.00000000000E+00 -0.00000000000E+00 -0.45593999997E+02  0.45594000000E+02  0.51100000000E-03 0. -1.
    9900012    2    1    2    0    0 -0.73417013684E+00 -0.35811915605E-02 -0.92417870365E+00  0.90007692883E+02  0.89999953629E+02 0.  0.
        -12    1    1    2    0    0  0.73417013684E+00  0.35811915605E-02  0.92417870365E+00  0.11803071173E+01  0.00000000000E+00 0.  1.
         11    1    3    3    0    0  0.16734669934E+02 -0.22223097512E+02 -0.33754017329E+02  0.43740701034E+02  0.51100000000E-03 0. -1.
        -11    1    3    3    0    0  0.21738546616E+01  0.79772374387E+01  0.97025162385E+01  0.12747579490E+02  0.51100000000E-03 0.  1.
        -12    1    3    3    0    0 -0.19642694732E+02  0.14242278882E+02  0.23127322387E+02  0.33519412359E+02  0.00000000000E+00 0.  1.
</event>
<event>
 7    1  0.2294706E-015  0.9000773E+02  0.7816164E-02  0.1186339E+00
        -11   -1    0    0    0    0  0.00000000000E+00  0.00000000000E+00  0.45593999997E+02  0.45594000000E+02  0.51100000000E-03 0. -1.
         11   -1    0    0    0    0 -0.00000000000E+00 -0.00000000000E+00 -0.45593999997E+02  0.45594000000E+02  0.51100000000E-03 0.  1.
    9900012    2    1    2    0    0  0.43088628191E+00  0.25063763192E+00  0.10698415243E+01  0.90007727532E+02  0.89999988736E+02 0.  0.
        -12    1    1    2    0    0 -0.43088628191E+00 -0.25063763192E+00 -0.10698415243E+01  0.11802724675E+01  0.00000000000E+00 0.  1.
         11    1    3    3    0    0 -0.52222802227E+01 -0.81275307039E+01 -0.11563009293E+00  0.96613837854E+01  0.51100000000E-03 0. -1.
        -11    1    3    3    0    0 -0.28732317539E+02  0.14234259434E+02  0.22770202138E+02  0.39327373654E+02  0.51100000000E-03 0.  1.
         12    1    3    3    0    0  0.34385484044E+02 -0.58560910984E+01 -0.21584730521E+02  0.41018970094E+02  0.00000000000E+00 0. -1.
</event>
<event>
 7    1  0.2294706E-015  0.9000773E+02  0.7816164E-02  0.1186339E+00
        -11   -1    0    0    0    0  0.00000000000E+00  0.00000000000E+00  0.45593999997E+02  0.45594000000E+02  0.51100000000E-03 0.  1.
         11   -1    0    0    0    0 -0.00000000000E+00 -0.00000000000E+00 -0.45593999997E+02  0.45594000000E+02  0.51100000000E-03 0. -1.
    9900012    2    1    2    0    0 -0.10596837993E+01 -0.47483500972E+00 -0.21129616945E+00  0.90007727103E+02  0.89999988300E+02 0.  0.
        -12    1    1    2    0    0  0.10596837993E+01  0.47483500972E+00  0.21129616945E+00  0.11802728974E+01  0.00000000000E+00 0.  1.
         11    1    3    3    0    0  0.16051014690E+02 -0.24706262367E+02 -0.20217599509E+02  0.35732139635E+02  0.51100000000E-03 0. -1.
        -11    1    3    3    0    0  0.12298786403E+02  0.28068819602E+01 -0.27719276856E+00  0.12618065201E+02  0.51100000000E-03 0.  1.
        -12    1    3    3    0    0 -0.29409484892E+02  0.21424545397E+02  0.20283496108E+02  0.41657522267E+02  0.00000000000E+00 0.  1.
</event>
<event>
 7    1  0.2312346E-015  0.9000757E+02  0.7816164E-02  0.1186339E+00
        -11   -1    0    0    0    0  0.00000000000E+00  0.00000000000E+00  0.45593999997E+02  0.45594000000E+02  0.51100000000E-03 0.  1.
         11   -1    0    0    0    0 -0.00000000000E+00 -0.00000000000E+00 -0.45593999997E+02  0.45594000000E+02  0.51100000000E-03 0. -1.
    9900012    2    1    2    0    0 -0.72774123567E+00  0.43003145114E+00 -0.82394928089E+00  0.90007565007E+02  0.89999824065E+02 0.  0.
        -12    1    1    2    0    0  0.72774123567E+00 -0.43003145114E+00  0.82394928089E+00  0.11804349929E+01  0.00000000000E+00 0.  1.
         11    1    3    3    0    0  0.14194699518E+02 -0.72857943679E+01 -0.33718118327E+02  0.37302597735E+02  0.51100000000E-03 0. -1.
        -11    1    3    3    0    0  0.73640753006E+01 -0.31397076246E+01 -0.34452751339E+01  0.87153479570E+01  0.51100000000E-03 0.  1.
        -12    1    3    3    0    0 -0.22286516054E+02  0.10855533444E+02  0.36339444180E+02  0.43989619315E+02  0.00000000000E+00 0.  1.
</event>
<event>
 7    1  0.2294706E-015  0.9000773E+02  0.7816164E-02  0.1186339E+00
        -11   -1    0    0    0    0  0.00000000000E+00  0.00000000000E+00  0.45593999997E+02  0.45594000000E+02  0.51100000000E-03 0. -1.
         11   -1    0    0    0    0 -0.00000000000E+00 -0.00000000000E+00 -0.45593999997E+02  0.45594000000E+02  0.51100000000E-03 0.  1.
    9900012    2    1    2    0    0  0.16474788204E-01 -0.61270544821E+00  0.10086452741E+01  0.90007726865E+02  0.89999988059E+02 0.  0.
        -12    1    1    2    0    0 -0.16474788204E-01  0.61270544821E+00 -0.10086452741E+01  0.11802731353E+01  0.00000000000E+00 0.  1.
         11    1    3    3    0    0 -0.40131939639E+02  0.92969083072E+01  0.16023069341E+01  0.41225871380E+02  0.51100000000E-03 0. -1.
        -11    1    3    3    0    0 -0.30842243467E+00 -0.47924175806E+01 -0.59567915379E+01  0.76515198720E+01  0.51100000000E-03 0.  1.
        -12    1    3    3    0    0  0.40456836862E+02 -0.51171961748E+01  0.53631298780E+01  0.41130335613E+02  0.00000000000E+00 0.  1.
</event>
<event>
 7    1  0.2294706E-015  0.9000774E+02  0.7816164E-02  0.1186339E+00
        -11   -1    0    0    0    0  0.00000000000E+00  0.00000000000E+00  0.45593999997E+02  0.45594000000E+02  0.51100000000E-03 0. -1.
         11   -1    0    0    0    0 -0.00000000000E+00 -0.00000000000E+00 -0.45593999997E+02  0.45594000000E+02  0.51100000000E-03 0.  1.
    9900012    2    1    2    0    0 -0.53417094724E+00  0.10524440400E+01 -0.57507083973E-02  0.90007741499E+02  0.90000002887E+02 0.  0.
        -12    1    1    2    0    0  0.53417094724E+00 -0.10524440400E+01  0.57507083973E-02  0.11802585009E+01  0.00000000000E+00 0.  1.
         11    1    3    3    0    0 -0.17231230489E+01  0.31632675736E+01 -0.89791002803E+01  0.96746915656E+01  0.51100000000E-03 0. -1.
        -11    1    3    3    0    0  0.16474456208E+02  0.34501364238E+02  0.13168105988E+02  0.40436998618E+02  0.51100000000E-03 0.  1.
         12    1    3    3    0    0 -0.15285504106E+02 -0.36612187772E+02 -0.41947564160E+01  0.39896051316E+02  0.00000000000E+00 0. -1.
</event>
<event>
 7    1  0.2925187E-015  0.9000757E+02  0.7816164E-02  0.1186339E+00
        -11   -1    0    0    0    0  0.00000000000E+00  0.00000000000E+00  0.45593999997E+02  0.45594000000E+02  0.51100000000E-03 0. -1.
         11   -1    0    0    0    0 -0.00000000000E+00 -0.00000000000E+00 -0.45593999997E+02  0.45594000000E+02  0.51100000000E-03 0.  1.
    9900012    2    1    2    0    0  0.60884518757E+00 -0.98151377735E+00  0.24364502088E+00  0.90007565905E+02  0.89999824974E+02 0.  0.
        -12    1    1    2    0    0 -0.60884518757E+00  0.98151377735E+00 -0.24364502088E+00  0.11804340955E+01  0.00000000000E+00 0.  1.
         11    1    3    3    0    0  0.77302754210E+00 -0.23552112738E+02  0.31806539451E+02  0.39584789227E+02  0.51100000000E-03 0. -1.
        -11    1    3    3    0    0 -0.92998106458E+01 -0.31610356594E+00  0.12479521334E+01  0.93884921207E+01  0.51100000000E-03 0.  1.
        -12    1    3    3    0    0  0.91356282912E+01  0.22886702527E+02 -0.32810846564E+02  0.41034284557E+02  0.00000000000E+00 0.  1.
</event>
<event>
 7    1  0.2294706E-015  0.9000780E+02  0.7816164E-02  0.1186339E+00
        -11   -1    0    0    0    0  0.00000000000E+00  0.00000000000E+00  0.45593999997E+02  0.45594000000E+02  0.51100000000E-03 0.  1.
         11   -1    0    0    0    0 -0.00000000000E+00 -0.00000000000E+00 -0.45593999997E+02  0.45594000000E+02  0.51100000000E-03 0. -1.
    9900012    2    1    2    0    0  0.10126752695E+01 -0.44787454461E+00 -0.40836294808E+00  0.90007803785E+02  0.90000065995E+02 0.  0.
        -12    1    1    2    0    0 -0.10126752695E+01  0.44787454461E+00  0.40836294808E+00  0.11801962153E+01  0.00000000000E+00 0.  1.
         11    1    3    3    0    0 -0.32477680362E+01 -0.12007265565E+02  0.42710761000E+00  0.12446077484E+02  0.51100000000E-03 0. -1.
        -11    1    3    3    0    0 -0.18048750882E+02 -0.67633496018E+01  0.29785406334E+02  0.35477749886E+02  0.51100000000E-03 0.  1.
         12    1    3    3    0    0  0.22309194187E+02  0.18322740622E+02 -0.30620876892E+02  0.42083976415E+02  0.00000000000E+00 0. -1.
</event>
<event>
 7    1  0.2307657E-015  0.9000772E+02  0.7816164E-02  0.1186339E+00
        -11   -1    0    0    0    0  0.00000000000E+00  0.00000000000E+00  0.45593999997E+02  0.45594000000E+02  0.51100000000E-03 0.  1.
         11   -1    0    0    0    0 -0.00000000000E+00 -0.00000000000E+00 -0.45593999997E+02  0.45594000000E+02  0.51100000000E-03 0. -1.
    9900012    2    1    2    0    0 -0.11176392946E+01 -0.27588707030E+00  0.26042900138E+00  0.90007722688E+02  0.89999983828E+02 0.  0.
        -12    1    1    2    0    0  0.11176392946E+01  0.27588707030E+00 -0.26042900138E+00  0.11802773120E+01  0.00000000000E+00 0.  1.
         11    1    3    3    0    0 -0.28624347978E+02 -0.15055140337E+02 -0.23746842060E+02  0.40123846473E+02  0.51100000000E-03 0. -1.
        -11    1    3    3    0    0 -0.65655859771E+01  0.50615715977E+01  0.42330656338E+01  0.93083441698E+01  0.51100000000E-03 0.  1.
        -12    1    3    3    0    0  0.34072294660E+02  0.97176816690E+01  0.19774205428E+02  0.40575532045E+02  0.00000000000E+00 0.  1.
</event>
<event>
 7    1  0.2294706E-015  0.9000774E+02  0.7816164E-02  0.1186339E+00
        -11   -1    0    0    0    0  0.00000000000E+00  0.00000000000E+00  0.45593999997E+02  0.45594000000E+02  0.51100000000E-03 0. -1.
         11   -1    0    0    0    0 -0.00000000000E+00 -0.00000000000E+00 -0.45593999997E+02  0.45594000000E+02  0.51100000000E-03 0.  1.
    9900012    2    1    2    0    0  0.97687561933E+00 -0.59619341984E+00  0.28858233483E+00  0.90007740565E+02  0.90000001941E+02 0.  0.
        -12    1    1    2    0    0 -0.97687561933E+00  0.59619341984E+00 -0.28858233483E+00  0.11802594348E+01  0.00000000000E+00 0.  1.
         11    1    3    3    0    0  0.25351707465E+01 -0.19364863442E+02 -0.33824467092E+02  0.39057900624E+02  0.51100000000E-03 0. -1.
        -11    1    3    3    0    0  0.68460301033E+01 -0.63378757475E+01  0.23910595881E+01  0.96308859084E+01  0.51100000000E-03 0.  1.
        -12    1    3    3    0    0 -0.84043252305E+01  0.25106545769E+02  0.31721989839E+02  0.41318954033E+02  0.00000000000E+00 0.  1.
</event>
<event>
 7    1  0.2294706E-015  0.9000780E+02  0.7816164E-02  0.1186339E+00
        -11   -1    0    0    0    0  0.00000000000E+00  0.00000000000E+00  0.45593999997E+02  0.45594000000E+02  0.51100000000E-03 0.  1.
         11   -1    0    0    0    0 -0.00000000000E+00 -0.00000000000E+00 -0.45593999997E+02  0.45594000000E+02  0.51100000000E-03 0. -1.
    9900012    2    1    2    0    0 -0.14220684103E+00  0.10162979583E+01  0.58292221325E+00  0.90007795513E+02  0.90000057613E+02 0.  0.
        -12    1    1    2    0    0  0.14220684103E+00 -0.10162979583E+01 -0.58292221325E+00  0.11802044875E+01  0.00000000000E+00 0.  1.
         11    1    3    3    0    0  0.12321465680E+02 -0.86980377294E+01 -0.61281429914E+00  0.15094698356E+02  0.51100000000E-03 0. -1.
        -11    1    3    3    0    0  0.16273097627E+02 -0.18236020937E+02  0.19090070346E+02  0.31012851402E+02  0.51100000000E-03 0.  1.
         12    1    3    3    0    0 -0.28736770148E+02  0.27950356625E+02 -0.17894333834E+02  0.43900245755E+02  0.00000000000E+00 0. -1.
</event>
<event>
 7    1  0.2294706E-015  0.9000762E+02  0.7816164E-02  0.1186339E+00
        -11   -1    0    0    0    0  0.00000000000E+00  0.00000000000E+00  0.45593999997E+02  0.45594000000E+02  0.51100000000E-03 0.  1.
         11   -1    0    0    0    0 -0.00000000000E+00 -0.00000000000E+00 -0.45593999997E+02  0.45594000000E+02  0.51100000000E-03 0. -1.
    9900012    2    1    2    0    0 -0.93137370180E+00  0.50715444467E+00 -0.51828853007E+00  0.90007624804E+02  0.89999884651E+02 0.  0.
        -12    1    1    2    0    0  0.93137370180E+00 -0.50715444467E+00  0.51828853007E+00  0.11803751961E+01  0.00000000000E+00 0.  1.
         11    1    3    3    0    0 -0.35249816179E+01 -0.61982863832E+01  0.93897411717E+01  0.11790313356E+02  0.51100000000E-03 0. -1.
        -11    1    3    3    0    0  0.26227827702E+02 -0.36708737136E+01  0.23906145209E+02  0.35677416370E+02  0.51100000000E-03 0.  1.
         12    1    3    3    0    0 -0.23634219786E+02  0.10376314541E+02 -0.33814174911E+02  0.42539895078E+02  0.00000000000E+00 0. -1.
</event>
<event>
 7    1  0.2294706E-015  0.9000766E+02  0.7816164E-02  0.1186339E+00
        -11   -1    0    0    0    0  0.00000000000E+00  0.00000000000E+00  0.45593999997E+02  0.45594000000E+02  0.51100000000E-03 0. -1.
         11   -1    0    0    0    0 -0.00000000000E+00 -0.00000000000E+00 -0.45593999997E+02  0.45594000000E+02  0.51100000000E-03 0.  1.
    9900012    2    1    2    0    0 -0.10033635868E+01  0.11071715539E-01  0.62155537682E+00  0.90007664388E+02  0.89999924758E+02 0.  0.
        -12    1    1    2    0    0  0.10033635868E+01 -0.11071715539E-01 -0.62155537682E+00  0.11803356119E+01  0.00000000000E+00 0.  1.
         11    1    3    3    0    0  0.27080598939E+01 -0.43658963154E+01 -0.70898590277E+01  0.87556119329E+01  0.51100000000E-03 0. -1.
        -11    1    3    3    0    0  0.14158802192E+02 -0.31718411500E+02  0.18773378023E+02  0.39483781864E+02  0.51100000000E-03 0.  1.
         12    1    3    3    0    0 -0.17870225673E+02  0.36095379531E+02 -0.11061963619E+02  0.41768270591E+02  0.00000000000E+00 0. -1.
</event>
<event>
 7    1  0.2294706E-015  0.9000779E+02  0.7816164E-02  0.1186339E+00
        -11   -1    0    0    0    0  0.00000000000E+00  0.00000000000E+00  0.45593999997E+02  0.45594000000E+02  0.51100000000E-03 0.  1.
         11   -1    0    0    0    0 -0.00000000000E+00 -0.00000000000E+00 -0.45593999997E+02  0.45594000000E+02  0.51100000000E-03 0. -1.
    9900012    2    1    2    0    0 -0.33538683915E+00 -0.25458650777E-01 -0.11312713186E+01  0.90007785074E+02  0.90000047037E+02 0.  0.
        -12    1    1    2    0    0  0.33538683915E+00  0.25458650777E-01  0.11312713186E+01  0.11802149258E+01  0.00000000000E+00 0.  1.
         11    1    3    3    0    0 -0.12548408215E+02 -0.30959658166E+02  0.18462287419E+02  0.38168298882E+02  0.51100000000E-03 0. -1.
        -11    1    3    3    0    0 -0.72835438104E+01  0.36260955104E+01  0.56027718994E+01  0.98787464947E+01  0.51100000000E-03 0.  1.
        -12    1    3    3    0    0  0.19496565186E+02  0.27308104005E+02 -0.25196330637E+02  0.41960739698E+02  0.00000000000E+00 0.  1.
</event>
<event>
 7    1  0.2294706E-015  0.9000739E+02  0.7816164E-02  0.1186340E+00
        -11   -1    0    0    0    0  0.00000000000E+00  0.00000000000E+00  0.45593999997E+02  0.45594000000E+02  0.51100000000E-03 0.  1.
         11   -1    0    0    0    0 -0.00000000000E+00 -0.00000000000E+00 -0.45593999997E+02  0.45594000000E+02  0.51100000000E-03 0. -1.
    9900012    2    1    2    0    0 -0.25615352748E+00 -0.11100890190E+01 -0.30972878350E+00  0.90007388218E+02  0.89999644942E+02 0.  0.
        -12    1    1    2    0    0  0.25615352748E+00  0.11100890190E+01  0.30972878350E+00  0.11806117817E+01  0.00000000000E+00 0.  1.
         11    1    3    3    0    0  0.44293408957E+01  0.81422569479E+01 -0.74613891136E+00  0.92990393328E+01  0.51100000000E-03 0. -1.
        -11    1    3    3    0    0  0.30255496731E+02 -0.11676332587E+02 -0.21931766886E+02  0.39150149732E+02  0.51100000000E-03 0.  1.
         12    1    3    3    0    0 -0.34940991154E+02  0.24239866197E+01  0.22368177014E+02  0.41558199153E+02  0.00000000000E+00 0. -1.
</event>
<event>
 7    1  0.2294706E-015  0.9000774E+02  0.7816164E-02  0.1186339E+00
        -11   -1    0    0    0    0  0.00000000000E+00  0.00000000000E+00  0.45593999997E+02  0.45594000000E+02  0.51100000000E-03 0. -1.
         11   -1    0    0    0    0 -0.00000000000E+00 -0.00000000000E+00 -0.45593999997E+02  0.45594000000E+02  0.51100000000E-03 0.  1.
    9900012    2    1    2    0    0  0.39655227244E+00  0.12107752947E-01  0.11115863928E+01  0.90007735364E+02  0.89999996671E+02 0.  0.
        -12    1    1    2    0    0 -0.39655227244E+00 -0.12107752947E-01 -0.11115863928E+01  0.11802646361E+01  0.00000000000E+00 0.  1.
         11    1    3    3    0    0  0.20206072442E+02 -0.26021348355E+02  0.16531140423E+02  0.36860202627E+02  0.51100000000E-03 0. -1.
        -11    1    3    3    0    0 -0.21147096973E+01 -0.37838126031E+01  0.95045997834E+01  0.10446370289E+02  0.51100000000E-03 0.  1.
        -12    1    3    3    0    0 -0.17694810473E+02  0.29817268711E+02 -0.24924153813E+02  0.42701162448E+02  0.00000000000E+00 0.  1.
</event>
<event>
 7    1  0.2398268E-015  0.9000773E+02  0.7816164E-02  0.1186339E+00
        -11   -1    0    0    0    0  0.00000000000E+00  0.00000000000E+00  0.45593999997E+02  0.45594000000E+02  0.51100000000E-03 0.  1.
         11   -1    0    0    0    0 -0.00000000000E+00 -0.00000000000E+00 -0.45593999997E+02  0.45594000000E+02  0.51100000000E-03 0. -1.
    9900012    2    1    2    0    0  0.17061121191E+00  0.56042235863E+00 -0.10246220117E+01  0.90007732372E+02  0.89999993640E+02 0.  0.
        -12    1    1    2    0    0 -0.17061121191E+00 -0.56042235863E+00  0.10246220117E+01  0.11802676275E+01  0.00000000000E+00 0.  1.
         11    1    3    3    0    0  0.32706769944E+02  0.19435552676E+02 -0.19381827139E+02  0.42698111568E+02  0.51100000000E-03 0. -1.
        -11    1    3    3    0    0  0.10625051767E+01 -0.52548992884E+01  0.79540325869E+01  0.95921592166E+01  0.51100000000E-03 0.  1.
        -12    1    3    3    0    0 -0.33598663909E+02 -0.13620231028E+02  0.10403172541E+02  0.37717461588E+02  0.00000000000E+00 0.  1.
</event>
<event>
 7    1  0.2649948E-015  0.9000814E+02  0.7816164E-02  0.1186338E+00
        -11   -1    0    0    0    0  0.00000000000E+00  0.00000000000E+00  0.45593999997E+02  0.45594000000E+02  0.51100000000E-03 0. -1.
         11   -1    0    0    0    0 -0.00000000000E+00 -0.00000000000E+00 -0.45593999997E+02  0.45594000000E+02  0.51100000000E-03 0.  1.
    9900012    2    1    2    0    0  0.20502687822E+00 -0.43530782471E+00  0.10772891314E+01  0.90008135264E+02  0.90000401848E+02 0.  0.
        -12    1    1    2    0    0 -0.20502687822E+00  0.43530782471E+00 -0.10772891314E+01  0.11798647361E+01  0.00000000000E+00 0.  1.
         11    1    3    3    0    0  0.10305546091E+02  0.34292276161E+02  0.18806024287E+02  0.40445408074E+02  0.51100000000E-03 0. -1.
        -11    1    3    3    0    0  0.80877390017E+01 -0.58377402244E+01  0.19430982177E+01  0.10162005906E+02  0.51100000000E-03 0.  1.
        -12    1    3    3    0    0 -0.18188258215E+02 -0.28889843761E+02 -0.19671833373E+02  0.39400721284E+02  0.00000000000E+00 0.  1.
</event>
<event>
 7    1  0.2294706E-015  0.9000773E+02  0.7816164E-02  0.1186339E+00
        -11   -1    0    0    0    0  0.00000000000E+00  0.00000000000E+00  0.45593999997E+02  0.45594000000E+02  0.51100000000E-03 0.  1.
         11   -1    0    0    0    0 -0.00000000000E+00 -0.00000000000E+00 -0.45593999997E+02  0.45594000000E+02  0.51100000000E-03 0. -1.
    9900012    2    1    2    0    0 -0.10058503392E+00  0.10807746115E+01  0.46352302425E+00  0.90007726852E+02  0.89999988046E+02 0.  0.
        -12    1    1    2    0    0  0.10058503392E+00 -0.10807746115E+01 -0.46352302425E+00  0.11802731480E+01  0.00000000000E+00 0.  1.
         11    1    3    3    0    0  0.23036380337E+02  0.18545352420E+02  0.29283424065E+02  0.41618791917E+02  0.51100000000E-03 0. -1.
        -11    1    3    3    0    0  0.49409539059E+01  0.12235931065E+01 -0.46493846013E+01  0.68939816523E+01  0.51100000000E-03 0.  1.
        -12    1    3    3    0    0 -0.28077919276E+02 -0.18688170915E+02 -0.24170516439E+02  0.41494953283E+02  0.00000000000E+00 0.  1.
</event>
<event>
 7    1  0.2486997E-015  0.9000765E+02  0.7816164E-02  0.1186339E+00
        -11   -1    0    0    0    0  0.00000000000E+00  0.00000000000E+00  0.45593999997E+02  0.45594000000E+02  0.51100000000E-03 0.  1.
         11   -1    0    0    0    0 -0.00000000000E+00 -0.00000000000E+00 -0.45593999997E+02  0.45594000000E+02  0.51100000000E-03 0. -1.
    9900012    2    1    2    0    0  0.48757271578E+00 -0.41548460202E+00 -0.99139752734E+00  0.90007651041E+02  0.89999911235E+02 0.  0.
        -12    1    1    2    0    0 -0.48757271578E+00  0.41548460202E+00  0.99139752734E+00  0.11803489590E+01  0.00000000000E+00 0.  1.
         11    1    3    3    0    0 -0.22110223595E+02 -0.46957833817E+01 -0.31033202102E+02  0.38392343013E+02  0.51100000000E-03 0. -1.
        -11    1    3    3    0    0  0.52022730597E+01  0.38858126246E+00 -0.80307501824E+01  0.95764079455E+01  0.51100000000E-03 0.  1.
        -12    1    3    3    0    0  0.17395523252E+02  0.38917175172E+01  0.38072554757E+02  0.42038900083E+02  0.00000000000E+00 0.  1.
</event>
<event>
 7    1  0.2294706E-015  0.9000766E+02  0.7816164E-02  0.1186339E+00
        -11   -1    0    0    0    0  0.00000000000E+00  0.00000000000E+00  0.45593999997E+02  0.45594000000E+02  0.51100000000E-03 0.  1.
         11   -1    0    0    0    0 -0.00000000000E+00 -0.00000000000E+00 -0.45593999997E+02  0.45594000000E+02  0.51100000000E-03 0. -1.
    9900012    2    1    2    0    0  0.44483395906E+00  0.75635138550E+00 -0.78947067696E+00  0.90007657414E+02  0.89999917692E+02 0.  0.
        -12    1    1    2    0    0 -0.44483395906E+00 -0.75635138550E+00  0.78947067696E+00  0.11803425856E+01  0.00000000000E+00 0.  1.
         11    1    3    3    0    0 -0.17178434244E+02 -0.10132820420E+02 -0.30187191931E+02  0.36180646894E+02  0.51100000000E-03 0. -1.
        -11    1    3    3    0    0 -0.96859406018E+01 -0.21327973350E+01 -0.21156524358E+01  0.10141117064E+02  0.51100000000E-03 0.  1.
        -12    1    3    3    0    0  0.27309208805E+02  0.13021969140E+02  0.31513373689E+02  0.43685893457E+02  0.00000000000E+00 0.  1.
</event>
<event>
 7    1  0.2294706E-015  0.9000784E+02  0.7816164E-02  0.1186339E+00
        -11   -1    0    0    0    0  0.00000000000E+00  0.00000000000E+00  0.45593999997E+02  0.45594000000E+02  0.51100000000E-03 0.  1.
         11   -1    0    0    0    0 -0.00000000000E+00 -0.00000000000E+00 -0.45593999997E+02  0.45594000000E+02  0.51100000000E-03 0. -1.
    9900012    2    1    2    0    0 -0.72947921285E+00 -0.39212653685E+00  0.84076273065E+00  0.90007836828E+02  0.90000099474E+02 0.  0.
        -12    1    1    2    0    0  0.72947921285E+00  0.39212653685E+00 -0.84076273065E+00  0.11801631718E+01  0.00000000000E+00 0.  1.
         11    1    3    3    0    0 -0.83136601149E+01  0.24217081917E+02 -0.14887713501E+02  0.29618035293E+02  0.51100000000E-03 0. -1.
        -11    1    3    3    0    0 -0.10981839035E+02  0.73130729923E+01 -0.89776619301E+01  0.15958704182E+02  0.51100000000E-03 0.  1.
        -12    1    3    3    0    0  0.18566019937E+02 -0.31922281446E+02  0.24706138162E+02  0.44431097352E+02  0.00000000000E+00 0.  1.
</event>
<event>
 7    1  0.2294706E-015  0.9000700E+02  0.7816164E-02  0.1186341E+00
        -11   -1    0    0    0    0  0.00000000000E+00  0.00000000000E+00  0.45593999997E+02  0.45594000000E+02  0.51100000000E-03 0. -1.
         11   -1    0    0    0    0 -0.00000000000E+00 -0.00000000000E+00 -0.45593999997E+02  0.45594000000E+02  0.51100000000E-03 0.  1.
    9900012    2    1    2    0    0 -0.47230019980E+00  0.51251934621E-01  0.10812374292E+01  0.90006996775E+02  0.89999248329E+02 0.  0.
        -12    1    1    2    0    0  0.47230019980E+00 -0.51251934621E-01 -0.10812374292E+01  0.11810032252E+01  0.00000000000E+00 0.  1.
         11    1    3    3    0    0 -0.27565324853E+02  0.13594722113E+02 -0.16717355313E+02  0.34987620275E+02  0.51100000000E-03 0. -1.
        -11    1    3    3    0    0 -0.10597658324E+02 -0.15785751862E+01 -0.18330072006E+01  0.10870242740E+02  0.51100000000E-03 0.  1.
        -12    1    3    3    0    0  0.37690682977E+02 -0.11964894993E+02  0.19631599943E+02  0.44149133760E+02  0.00000000000E+00 0.  1.
</event>
<event>
 7    1  0.2294706E-015  0.9000773E+02  0.7816164E-02  0.1186339E+00
        -11   -1    0    0    0    0  0.00000000000E+00  0.00000000000E+00  0.45593999997E+02  0.45594000000E+02  0.51100000000E-03 0.  1.
         11   -1    0    0    0    0 -0.00000000000E+00 -0.00000000000E+00 -0.45593999997E+02  0.45594000000E+02  0.51100000000E-03 0. -1.
    9900012    2    1    2    0    0 -0.98336135513E-01 -0.38398276752E+00 -0.11117169240E+01  0.90007734233E+02  0.89999995525E+02 0.  0.
        -12    1    1    2    0    0  0.98336135513E-01  0.38398276752E+00  0.11117169240E+01  0.11802657669E+01  0.00000000000E+00 0.  1.
         11    1    3    3    0    0 -0.28897474064E+02  0.21039611490E+02  0.15192002720E+01  0.35777607922E+02  0.51100000000E-03 0. -1.
        -11    1    3    3    0    0 -0.66492092125E+01  0.57086648687E+01  0.29401555677E+01  0.92436655477E+01  0.51100000000E-03 0.  1.
        -12    1    3    3    0    0  0.35448347140E+02 -0.27132259126E+02 -0.55710727638E+01  0.44986460763E+02  0.00000000000E+00 0.  1.
</event>
<event>
 7    1  0.2294706E-015  0.9000779E+02  0.7816164E-02  0.1186339E+00
        -11   -1    0    0    0    0  0.00000000000E+00  0.00000000000E+00  0.45593999997E+02  0.45594000000E+02  0.51100000000E-03 0.  1.
         11   -1    0    0    0    0 -0.00000000000E+00 -0.00000000000E+00 -0.45593999997E+02  0.45594000000E+02  0.51100000000E-03 0. -1.
    9900012    2    1    2    0    0 -0.60420086643E-01 -0.10275717309E+01  0.57734726402E+00  0.90007794885E+02  0.90000056978E+02 0.  0.
        -12    1    1    2    0    0  0.60420086643E-01  0.10275717309E+01 -0.57734726402E+00  0.11802051145E+01  0.00000000000E+00 0.  1.
         11    1    3    3    0    0 -0.18281471995E+01 -0.17049109069E+02 -0.34380984949E+02  0.38419609167E+02  0.51100000000E-03 0. -1.
        -11    1    3    3    0    0  0.94937598266E+01 -0.65846941089E+01  0.34713891116E+01  0.12064004923E+02  0.51100000000E-03 0.  1.
        -12    1    3    3    0    0 -0.77260327138E+01  0.22606231447E+02  0.31486943101E+02  0.39524180796E+02  0.00000000000E+00 0.  1.
</event>
<event>
 7    1  0.2294706E-015  0.9000773E+02  0.7816164E-02  0.1186339E+00
        -11   -1    0    0    0    0  0.00000000000E+00  0.00000000000E+00  0.45593999997E+02  0.45594000000E+02  0.51100000000E-03 0.  1.
         11   -1    0    0    0    0 -0.00000000000E+00 -0.00000000000E+00 -0.45593999997E+02  0.45594000000E+02  0.51100000000E-03 0. -1.
    9900012    2    1    2    0    0 -0.11058702240E+01 -0.40542759741E+00 -0.75681206294E-01  0.90007725399E+02  0.89999986574E+02 0.  0.
        -12    1    1    2    0    0  0.11058702240E+01  0.40542759741E+00  0.75681206294E-01  0.11802746012E+01  0.00000000000E+00 0.  1.
         11    1    3    3    0    0 -0.25521440995E+02 -0.22844250221E+02 -0.19367529905E+02  0.39348506116E+02  0.51100000000E-03 0. -1.
        -11    1    3    3    0    0  0.23005916563E-01  0.94717869041E+01 -0.75716833652E+01  0.12126238727E+02  0.51100000000E-03 0.  1.
        -12    1    3    3    0    0  0.24392564855E+02  0.12967035720E+02  0.26863532064E+02  0.38532980556E+02  0.00000000000E+00 0.  1.
</event>
<event>
 7    1  0.2294706E-015  0.9000770E+02  0.7816164E-02  0.1186339E+00
        -11   -1    0    0    0    0  0.00000000000E+00  0.00000000000E+00  0.45593999997E+02  0.45594000000E+02  0.51100000000E-03 0.  1.
         11   -1    0    0    0    0 -0.00000000000E+00 -0.00000000000E+00 -0.45593999997E+02  0.45594000000E+02  0.51100000000E-03 0. -1.
    9900012    2    1    2    0    0  0.43868370737E+00  0.10944562926E+01 -0.53117050919E-01  0.90007703684E+02  0.89999964573E+02 0.  0.
        -12    1    1    2    0    0 -0.43868370737E+00 -0.10944562926E+01  0.53117050919E-01  0.11802963156E+01  0.00000000000E+00 0.  1.
         11    1    3    3    0    0  0.13124645842E+01  0.64538920534E+01  0.48609689371E+01  0.81856157490E+01  0.51100000000E-03 0. -1.
        -11    1    3    3    0    0 -0.12921981639E+02 -0.11083997508E+02  0.35441911807E+02  0.39318719753E+02  0.51100000000E-03 0.  1.
         12    1    3    3    0    0  0.12048200763E+02  0.57245617475E+01 -0.40355997795E+02  0.42503368182E+02  0.00000000000E+00 0. -1.
</event>
<event>
 7    1  0.2294706E-015  0.9000767E+02  0.7816164E-02  0.1186339E+00
        -11   -1    0    0    0    0  0.00000000000E+00  0.00000000000E+00  0.45593999997E+02  0.45594000000E+02  0.51100000000E-03 0. -1.
         11   -1    0    0    0    0 -0.00000000000E+00 -0.00000000000E+00 -0.45593999997E+02  0.45594000000E+02  0.51100000000E-03 0.  1.
    9900012    2    1    2    0    0 -0.37639514596E+00 -0.74655994813E+00  0.83315425373E+00  0.90007673320E+02  0.89999933807E+02 0.  0.
        -12    1    1    2    0    0  0.37639514596E+00  0.74655994813E+00 -0.83315425373E+00  0.11803266804E+01  0.00000000000E+00 0.  1.
         11    1    3    3    0    0 -0.92643562873E+01  0.13189479121E+02  0.27183259166E+01  0.16345640181E+02  0.51100000000E-03 0. -1.
        -11    1    3    3    0    0  0.18797271056E+01  0.29196668368E+02  0.41460794944E+01  0.29549429660E+02  0.51100000000E-03 0.  1.
         12    1    3    3    0    0  0.70082340357E+01 -0.43132707437E+02 -0.60312511573E+01  0.44112603478E+02  0.00000000000E+00 0. -1.
</event>
<event>
 7    1  0.2294706E-015  0.9000779E+02  0.7816164E-02  0.1186339E+00
        -11   -1    0    0    0    0  0.00000000000E+00  0.00000000000E+00  0.45593999997E+02  0.45594000000E+02  0.51100000000E-03 0.  1.
         11   -1    0    0    0    0 -0.00000000000E+00 -0.00000000000E+00 -0.45593999997E+02  0.45594000000E+02  0.51100000000E-03 0. -1.
    9900012    2    1    2    0    0 -0.39678177401E+00  0.11030144573E+01 -0.13717333008E+00  0.90007791039E+02  0.90000053081E+02 0.  0.
        -12    1    1    2    0    0  0.39678177401E+00 -0.11030144573E+01  0.13717333008E+00  0.11802089610E+01  0.00000000000E+00 0.  1.
         11    1    3    3    0    0  0.25337637065E+01  0.36873933022E+01 -0.54989931922E+01  0.70891293030E+01  0.51100000000E-03 0. -1.
        -11    1    3    3    0    0  0.33327584484E+02 -0.22374725209E+02 -0.46643727555E+01  0.40411787750E+02  0.51100000000E-03 0.  1.
         12    1    3    3    0    0 -0.36258129964E+02  0.19790346364E+02  0.10026192618E+02  0.42506873986E+02  0.00000000000E+00 0. -1.
</event>
<event>
 7    1  0.2294706E-015  0.9000760E+02  0.7816164E-02  0.1186339E+00
        -11   -1    0    0    0    0  0.00000000000E+00  0.00000000000E+00  0.45593999997E+02  0.45594000000E+02  0.51100000000E-03 0.  1.
         11   -1    0    0    0    0 -0.00000000000E+00 -0.00000000000E+00 -0.45593999997E+02  0.45594000000E+02  0.51100000000E-03 0. -1.
    9900012    2    1    2    0    0  0.58732127866E+00 -0.43262101945E+00 -0.92803073596E+00  0.90007598256E+02  0.89999857753E+02 0.  0.
        -12    1    1    2    0    0 -0.58732127866E+00  0.43262101945E+00  0.92803073596E+00  0.11804017442E+01  0.00000000000E+00 0.  1.
         11    1    3    3    0    0 -0.36078889121E+02  0.53157750715E+01 -0.97283410484E+01  0.37743666020E+02  0.51100000000E-03 0. -1.
        -11    1    3    3    0    0 -0.32815446796E-01  0.25244854151E+01 -0.99251998244E+01  0.10241274104E+02  0.51100000000E-03 0.  1.
        -12    1    3    3    0    0  0.36699025847E+02 -0.82728815061E+01  0.18725510137E+02  0.42022658131E+02  0.00000000000E+00 0.  1.
</event>
<event>
 7    1  0.2294706E-015  0.9000760E+02  0.7816164E-02  0.1186339E+00
        -11   -1    0    0    0    0  0.00000000000E+00  0.00000000000E+00  0.45593999997E+02  0.45594000000E+02  0.51100000000E-03 0.  1.
         11   -1    0    0    0    0 -0.00000000000E+00 -0.00000000000E+00 -0.45593999997E+02  0.45594000000E+02  0.51100000000E-03 0. -1.
    9900012    2    1    2    0    0  0.24866780670E+00 -0.89679207882E+00 -0.72612992688E+00  0.90007603295E+02  0.89999862858E+02 0.  0.
        -12    1    1    2    0    0 -0.24866780670E+00  0.89679207882E+00  0.72612992688E+00  0.11803967051E+01  0.00000000000E+00 0.  1.
         11    1    3    3    0    0  0.23532226544E+02 -0.26177469607E+02  0.19601968196E+02  0.40289735152E+02  0.51100000000E-03 0. -1.
        -11    1    3    3    0    0  0.71555123031E+01  0.46046886805E+01 -0.27891221163E+01  0.89545360910E+01  0.51100000000E-03 0.  1.
        -12    1    3    3    0    0 -0.30439071040E+02  0.20675988848E+02 -0.17538976007E+02  0.40763332052E+02  0.00000000000E+00 0.  1.
</event>
<event>
 7    1  0.2294706E-015  0.9000750E+02  0.7816164E-02  0.1186340E+00
        -11   -1    0    0    0    0  0.00000000000E+00  0.00000000000E+00  0.45593999997E+02  0.45594000000E+02  0.51100000000E-03 0.  1.
         11   -1    0    0    0    0 -0.00000000000E+00 -0.00000000000E+00 -0.45593999997E+02  0.45594000000E+02  0.51100000000E-03 0. -1.
    9900012    2    1    2    0    0  0.97067242942E+00 -0.31975334094E-01  0.67107561775E+00  0.90007504396E+02  0.89999762653E+02 0.  0.
        -12    1    1    2    0    0 -0.97067242942E+00  0.31975334094E-01 -0.67107561775E+00  0.11804956044E+01  0.00000000000E+00 0.  1.
         11    1    3    3    0    0  0.62356336791E+01 -0.81810137160E+01 -0.94218426241E+00  0.10329560700E+02  0.51100000000E-03 0. -1.
        -11    1    3    3    0    0 -0.22105140965E+02  0.12353364468E+02  0.34319983167E+02  0.42650956796E+02  0.51100000000E-03 0.  1.
         12    1    3    3    0    0  0.16840179716E+02 -0.42043260865E+01 -0.32706723287E+02  0.37026986900E+02  0.00000000000E+00 0. -1.
</event>
<event>
 7    1  0.2294706E-015  0.9000802E+02  0.7816164E-02  0.1186338E+00
        -11   -1    0    0    0    0  0.00000000000E+00  0.00000000000E+00  0.45593999997E+02  0.45594000000E+02  0.51100000000E-03 0. -1.
         11   -1    0    0    0    0 -0.00000000000E+00 -0.00000000000E+00 -0.45593999997E+02  0.45594000000E+02  0.51100000000E-03 0.  1.
    9900012    2    1    2    0    0 -0.10382293009E+00 -0.25010840745E+00  0.11484813340E+01  0.90008024241E+02  0.90000289361E+02 0.  0.
        -12    1    1    2    0    0  0.10382293009E+00  0.25010840745E+00 -0.11484813340E+01  0.11799757586E+01  0.00000000000E+00 0.  1.
         11    1    3    3    0    0  0.55654448303E+01  0.59030376557E+01  0.70455500046E+01  0.10745222420E+02  0.51100000000E-03 0. -1.
        -11    1    3    3    0    0  0.31317759295E+02  0.16013902277E+02 -0.80653419188E+01  0.36087350331E+02  0.51100000000E-03 0.  1.
         12    1    3    3    0    0 -0.36987027055E+02 -0.22167048341E+02  0.21682732481E+01  0.43175451490E+02  0.00000000000E+00 0. -1.
</event>
<event>
 7    1  0.2294706E-015  0.9000774E+02  0.7816164E-02  0.1186339E+00
        -11   -1    0    0    0    0  0.00000000000E+00  0.00000000000E+00  0.45593999997E+02  0.45594000000E+02  0.51100000000E-03 0.  1.
         11   -1    0    0    0    0 -0.00000000000E+00 -0.00000000000E+00 -0.45593999997E+02  0.45594000000E+02  0.51100000000E-03 0. -1.
    9900012    2    1    2    0    0 -0.27299564313E+00 -0.90155809322E+00 -0.71110777788E+00  0.90007742448E+02  0.90000003849E+02 0.  0.
        -12    1    1    2    0    0  0.27299564313E+00  0.90155809322E+00  0.71110777788E+00  0.11802575517E+01  0.00000000000E+00 0.  1.
         11    1    3    3    0    0 -0.65235613475E+01 -0.63557394376E+01  0.57167576366E+01  0.10753306217E+02  0.51100000000E-03 0. -1.
        -11    1    3    3    0    0  0.12354696810E+01  0.22153761866E+02  0.30908064731E+02  0.38047654538E+02  0.51100000000E-03 0.  1.
         12    1    3    3    0    0  0.50150960233E+01 -0.16699580522E+02 -0.37335930145E+02  0.41206781694E+02  0.00000000000E+00 0. -1.
</event>
<event>
 7    1  0.2294706E-015  0.9000772E+02  0.7816164E-02  0.1186339E+00
        -11   -1    0    0    0    0  0.00000000000E+00  0.00000000000E+00  0.45593999997E+02  0.45594000000E+02  0.51100000000E-03 0.  1.
         11   -1    0    0    0    0 -0.00000000000E+00 -0.00000000000E+00 -0.45593999997E+02  0.45594000000E+02  0.51100000000E-03 0. -1.
    9900012    2    1    2    0    0 -0.82363508248E+00  0.47144016214E+00 -0.70173441248E+00  0.90007719626E+02  0.89999980725E+02 0.  0.
        -12    1    1    2    0    0  0.82363508248E+00 -0.47144016214E+00  0.70173441248E+00  0.11802803740E+01  0.00000000000E+00 0.  1.
         11    1    3    3    0    0 -0.15008970179E+02  0.33171473119E+02  0.63411228971E+01  0.36957078545E+02  0.51100000000E-03 0. -1.
        -11    1    3    3    0    0 -0.48654395797E+01  0.63179810301E+01 -0.53393347225E+01  0.95967641494E+01  0.51100000000E-03 0.  1.
        -12    1    3    3    0    0  0.19050774676E+02 -0.39018013987E+02 -0.17035225871E+01  0.43453876932E+02  0.00000000000E+00 0.  1.
</event>
<event>
 7    1  0.2294706E-015  0.9000769E+02  0.7816164E-02  0.1186339E+00
        -11   -1    0    0    0    0  0.00000000000E+00  0.00000000000E+00  0.45593999997E+02  0.45594000000E+02  0.51100000000E-03 0. -1.
         11   -1    0    0    0    0 -0.00000000000E+00 -0.00000000000E+00 -0.45593999997E+02  0.45594000000E+02  0.51100000000E-03 0.  1.
    9900012    2    1    2    0    0  0.78508501634E+00  0.54190113238E+00 -0.69506761443E+00  0.90007688893E+02  0.89999949587E+02 0.  0.
        -12    1    1    2    0    0 -0.78508501634E+00 -0.54190113238E+00  0.69506761443E+00  0.11803111068E+01  0.00000000000E+00 0.  1.
         11    1    3    3    0    0 -0.15433110157E+00 -0.58052393969E+01  0.11828963331E+02  0.13177594480E+02  0.51100000000E-03 0. -1.
        -11    1    3    3    0    0  0.74371379935E+01 -0.32391742681E+02  0.53711177715E+01  0.33665782656E+02  0.51100000000E-03 0.  1.
         12    1    3    3    0    0 -0.64977218756E+01  0.38738883210E+02 -0.17895148716E+02  0.43164311758E+02  0.00000000000E+00 0. -1.
</event>
<event>
 7    1  0.2294706E-015  0.9000771E+02  0.7816164E-02  0.1186339E+00
        -11   -1    0    0    0    0  0.00000000000E+00  0.00000000000E+00  0.45593999997E+02  0.45594000000E+02  0.51100000000E-03 0. -1.
         11   -1    0    0    0    0 -0.00000000000E+00 -0.00000000000E+00 -0.45593999997E+02  0.45594000000E+02  0.51100000000E-03 0.  1.
    9900012    2    1    2    0    0  0.76324129210E+00 -0.73952029868E+00 -0.51347368501E+00  0.90007710727E+02  0.89999971709E+02 0.  0.
        -12    1    1    2    0    0 -0.76324129210E+00  0.73952029868E+00  0.51347368501E+00  0.11802892727E+01  0.00000000000E+00 0.  1.
         11    1    3    3    0    0 -0.16016505761E+02 -0.13018114105E+02  0.22390053816E+02  0.30451835114E+02  0.51100000000E-03 0. -1.
        -11    1    3    3    0    0 -0.14145341215E+02  0.17984216774E+02 -0.51851846121E+01  0.23460794334E+02  0.51100000000E-03 0.  1.
        -12    1    3    3    0    0  0.30925088268E+02 -0.57056229678E+01 -0.17718342889E+02  0.36095081279E+02  0.00000000000E+00 0.  1.
</event>
<event>
 7    1  0.3556361E-015  0.9000771E+02  0.7816164E-02  0.1186339E+00
        -11   -1    0    0    0    0  0.00000000000E+00  0.00000000000E+00  0.45593999997E+02  0.45594000000E+02  0.51100000000E-03 0. -1.
         11   -1    0    0    0    0 -0.00000000000E+00 -0.00000000000E+00 -0.45593999997E+02  0.45594000000E+02  0.51100000000E-03 0.  1.
    9900012    2    1    2    0    0  0.54661903478E-01  0.59340352699E+00  0.10188110611E+01  0.90007706965E+02  0.89999967897E+02 0.  0.
        -12    1    1    2    0    0 -0.54661903478E-01 -0.59340352699E+00 -0.10188110611E+01  0.11802930347E+01  0.00000000000E+00 0.  1.
         11    1    3    3    0    0 -0.19932508740E+02  0.20152802013E+02  0.28784103071E+02  0.40397585615E+02  0.51100000000E-03 0. -1.
        -11    1    3    3    0    0 -0.79682955211E+01 -0.34235971605E+01 -0.41420548891E+01  0.96110025488E+01  0.51100000000E-03 0.  1.
        -12    1    3    3    0    0  0.27955466164E+02 -0.16135801326E+02 -0.23623237120E+02  0.39999118802E+02  0.00000000000E+00 0.  1.
</event>
<event>
 7    1  0.2294706E-015  0.9000760E+02  0.7816164E-02  0.1186339E+00
        -11   -1    0    0    0    0  0.00000000000E+00  0.00000000000E+00  0.45593999997E+02  0.45594000000E+02  0.51100000000E-03 0. -1.
         11   -1    0    0    0    0 -0.00000000000E+00 -0.00000000000E+00 -0.45593999997E+02  0.45594000000E+02  0.51100000000E-03 0.  1.
    9900012    2    1    2    0    0  0.11451786214E+01  0.26585935131E+00  0.10591377052E+00  0.90007604729E+02  0.89999864311E+02 0.  0.
        -12    1    1    2    0    0 -0.11451786214E+01 -0.26585935131E+00 -0.10591377052E+00  0.11803952713E+01  0.00000000000E+00 0.  1.
         11    1    3    3    0    0  0.29530111776E+02  0.25864484833E+02 -0.86808249732E+01  0.40203927665E+02  0.51100000000E-03 0. -1.
        -11    1    3    3    0    0 -0.52645774369E+01  0.71253416756E+01  0.28009188376E+01  0.92914700763E+01  0.51100000000E-03 0.  1.
        -12    1    3    3    0    0 -0.23120355718E+02 -0.32723967157E+02  0.59858199061E+01  0.40512206987E+02  0.00000000000E+00 0.  1.
</event>
<event>
 7    1  0.2584554E-015  0.9000778E+02  0.7816164E-02  0.1186339E+00
        -11   -1    0    0    0    0  0.00000000000E+00  0.00000000000E+00  0.45593999997E+02  0.45594000000E+02  0.51100000000E-03 0.  1.
         11   -1    0    0    0    0 -0.00000000000E+00 -0.00000000000E+00 -0.45593999997E+02  0.45594000000E+02  0.51100000000E-03 0. -1.
    9900012    2    1    2    0    0  0.81534744647E+00 -0.38195375756E+00 -0.76304430929E+00  0.90007781059E+02  0.90000042969E+02 0.  0.
        -12    1    1    2    0    0 -0.81534744647E+00  0.38195375756E+00  0.76304430929E+00  0.11802189413E+01  0.00000000000E+00 0.  1.
         11    1    3    3    0    0 -0.88366123334E+00  0.27888607641E+02 -0.24574734964E+02  0.37181620353E+02  0.51100000000E-03 0. -1.
        -11    1    3    3    0    0 -0.54600146334E+01  0.73369037422E+01 -0.43582504464E+00  0.91559740088E+01  0.51100000000E-03 0.  1.
        -12    1    3    3    0    0  0.71590233132E+01 -0.35607465140E+02  0.24247515699E+02  0.43670186696E+02  0.00000000000E+00 0.  1.
</event>
<event>
 7    1  0.2341378E-015  0.9000763E+02  0.7816164E-02  0.1186339E+00
        -11   -1    0    0    0    0  0.00000000000E+00  0.00000000000E+00  0.45593999997E+02  0.45594000000E+02  0.51100000000E-03 0. -1.
         11   -1    0    0    0    0 -0.00000000000E+00 -0.00000000000E+00 -0.45593999997E+02  0.45594000000E+02  0.51100000000E-03 0.  1.
    9900012    2    1    2    0    0 -0.94338302365E+00 -0.70062281154E+00 -0.11150666271E+00  0.90007628199E+02  0.89999888091E+02 0.  0.
        -12    1    1    2    0    0  0.94338302365E+00  0.70062281154E+00  0.11150666271E+00  0.11803718013E+01  0.00000000000E+00 0.  1.
         11    1    3    3    0    0  0.28447210874E+02 -0.24034734879E+02  0.48856724387E+01  0.37560379160E+02  0.51100000000E-03 0. -1.
        -11    1    3    3    0    0  0.84377865850E+01  0.35371459381E+01 -0.32727940386E+01  0.97169349551E+01  0.51100000000E-03 0.  1.
        -12    1    3    3    0    0 -0.37828380483E+02  0.19796966129E+02 -0.17243850628E+01  0.42730314084E+02  0.00000000000E+00 0.  1.
</event>
<event>
 7    1  0.2294706E-015  0.9000772E+02  0.7816164E-02  0.1186339E+00
        -11   -1    0    0    0    0  0.00000000000E+00  0.00000000000E+00  0.45593999997E+02  0.45594000000E+02  0.51100000000E-03 0. -1.
         11   -1    0    0    0    0 -0.00000000000E+00 -0.00000000000E+00 -0.45593999997E+02  0.45594000000E+02  0.51100000000E-03 0.  1.
    9900012    2    1    2    0    0 -0.71084151058E+00  0.63182912705E+00  0.69896716756E+00  0.90007720880E+02  0.89999981996E+02 0.  0.
        -12    1    1    2    0    0  0.71084151058E+00 -0.63182912705E+00 -0.69896716756E+00  0.11802791196E+01  0.00000000000E+00 0.  1.
         11    1    3    3    0    0 -0.15908176664E+02 -0.21599688729E+02 -0.92061137766E+01  0.28361402805E+02  0.51100000000E-03 0. -1.
        -11    1    3    3    0    0 -0.98000367246E+01 -0.61553082978E+01  0.19453370078E+02  0.22635417992E+02  0.51100000000E-03 0.  1.
        -12    1    3    3    0    0  0.24997371878E+02  0.28386826154E+02 -0.95482891335E+01  0.39010900083E+02  0.00000000000E+00 0.  1.
</event>
<event>
 7    1  0.2294706E-015  0.9000774E+02  0.7816164E-02  0.1186339E+00
        -11   -1    0    0    0    0  0.00000000000E+00  0.00000000000E+00  0.45593999997E+02  0.45594000000E+02  0.51100000000E-03 0.  1.
         11   -1    0    0    0    0 -0.00000000000E+00 -0.00000000000E+00 -0.45593999997E+02  0.45594000000E+02  0.51100000000E-03 0. -1.
    9900012    2    1    2    0    0  0.11348913581E+01  0.21040891952E+00 -0.24649013635E+00  0.90007742530E+02  0.90000003931E+02 0.  0.
        -12    1    1    2    0    0 -0.11348913581E+01 -0.21040891952E+00  0.24649013635E+00  0.11802574700E+01  0.00000000000E+00 0.  1.
         11    1    3    3    0    0 -0.30277336038E+02  0.14270641270E+02 -0.27273646814E+02  0.43176615090E+02  0.51100000000E-03 0. -1.
        -11    1    3    3    0    0  0.91731373045E+01  0.54119944269E+00  0.41034161961E+00  0.91982457757E+01  0.51100000000E-03 0.  1.
        -12    1    3    3    0    0  0.22239090091E+02 -0.14601431793E+02  0.26616815059E+02  0.37632881664E+02  0.00000000000E+00 0.  1.
</event>
<event>
 7    1  0.2294706E-015  0.9000773E+02  0.7816164E-02  0.1186339E+00
        -11   -1    0    0    0    0  0.00000000000E+00  0.00000000000E+00  0.45593999997E+02  0.45594000000E+02  0.51100000000E-03 0.  1.
         11   -1    0    0    0    0 -0.00000000000E+00 -0.00000000000E+00 -0.45593999997E+02  0.45594000000E+02  0.51100000000E-03 0. -1.
    9900012    2    1    2    0    0  0.45760657795E+00 -0.49598219037E+00 -0.96831484616E+00  0.90007730643E+02  0.89999991888E+02 0.  0.
        -12    1    1    2    0    0 -0.45760657795E+00  0.49598219037E+00  0.96831484616E+00  0.11802693568E+01  0.00000000000E+00 0.  1.
         11    1    3    3    0    0  0.64566000303E+01  0.99053279067E+01 -0.32086940828E+02  0.34196125173E+02  0.51100000000E-03 0. -1.
        -11    1    3    3    0    0  0.10788025954E+02 -0.15241551151E+01 -0.71906030821E+01  0.13054092299E+02  0.51100000000E-03 0.  1.
        -12    1    3    3    0    0 -0.16787019407E+02 -0.88771549819E+01  0.38309229064E+02  0.42757513171E+02  0.00000000000E+00 0.  1.
</event>
<event>
 7    1  0.2294706E-015  0.9000785E+02  0.7816164E-02  0.1186339E+00
        -11   -1    0    0    0    0  0.00000000000E+00  0.00000000000E+00  0.45593999997E+02  0.45594000000E+02  0.51100000000E-03 0.  1.
         11   -1    0    0    0    0 -0.00000000000E+00 -0.00000000000E+00 -0.45593999997E+02  0.45594000000E+02  0.51100000000E-03 0. -1.
    9900012    2    1    2    0    0  0.11478524689E+01 -0.32066839406E-01  0.27231213017E+00  0.90007852777E+02  0.90000115633E+02 0.  0.
        -12    1    1    2    0    0 -0.11478524689E+01  0.32066839406E-01 -0.27231213017E+00  0.11801472233E+01  0.00000000000E+00 0.  1.
         11    1    3    3    0    0  0.83208621121E+01  0.46921388718E+01 -0.23694439272E+00  0.95555772399E+01  0.51100000000E-03 0. -1.
        -11    1    3    3    0    0  0.18997965138E+02 -0.35236669129E+02  0.32284353635E+01  0.40161776925E+02  0.51100000000E-03 0.  1.
         12    1    3    3    0    0 -0.26170974781E+02  0.30512463417E+02 -0.27191788406E+01  0.40290498611E+02  0.00000000000E+00 0. -1.
</event>
<event>
 7    1  0.2294706E-015  0.9000767E+02  0.7816164E-02  0.1186339E+00
        -11   -1    0    0    0    0  0.00000000000E+00  0.00000000000E+00  0.45593999997E+02  0.45594000000E+02  0.51100000000E-03 0. -1.
         11   -1    0    0    0    0 -0.00000000000E+00 -0.00000000000E+00 -0.45593999997E+02  0.45594000000E+02  0.51100000000E-03 0.  1.
    9900012    2    1    2    0    0 -0.18323600317E+00  0.49708735830E+00  0.10547561642E+01  0.90007668758E+02  0.89999929186E+02 0.  0.
        -12    1    1    2    0    0  0.18323600317E+00 -0.49708735830E+00 -0.10547561642E+01  0.11803312419E+01  0.00000000000E+00 0.  1.
         11    1    3    3    0    0 -0.42171075827E+00  0.22256249907E+02  0.31130175661E+02  0.38270175553E+02  0.51100000000E-03 0. -1.
        -11    1    3    3    0    0  0.12826372436E+02  0.17103067748E+01 -0.20942608477E+01  0.13108276313E+02  0.51100000000E-03 0.  1.
        -12    1    3    3    0    0 -0.12587897681E+02 -0.23469469324E+02 -0.27981158649E+02  0.38629216892E+02  0.00000000000E+00 0.  1.
</event>
<event>
 7    1  0.2294706E-015  0.9000812E+02  0.7816164E-02  0.1186338E+00
        -11   -1    0    0    0    0  0.00000000000E+00  0.00000000000E+00  0.45593999997E+02  0.45594000000E+02  0.51100000000E-03 0.  1.
         11   -1    0    0    0    0 -0.00000000000E+00 -0.00000000000E+00 -0.45593999997E+02  0.45594000000E+02  0.51100000000E-03 0. -1.
    9900012    2    1    2    0    0 -0.98162802193E-01 -0.11667189973E+01  0.14576982108E+00  0.90008119500E+02  0.90000385876E+02 0.  0.
        -12    1    1    2    0    0  0.98162802193E-01  0.11667189973E+01 -0.14576982108E+00  0.11798805004E+01  0.00000000000E+00 0.  1.
         11    1    3    3    0    0  0.15379207359E+01  0.61796624244E+01 -0.80070811522E+01  0.10230678214E+02  0.51100000000E-03 0. -1.
        -11    1    3    3    0    0 -0.29714690572E+02  0.17324421443E+02  0.20945387873E+02  0.40271673513E+02  0.51100000000E-03 0.  1.
         12    1    3    3    0    0  0.28078607034E+02 -0.24670802865E+02 -0.12792536900E+02  0.39505767773E+02  0.00000000000E+00 0. -1.
</event>
<event>
 7    1  0.2294706E-015  0.9000775E+02  0.7816164E-02  0.1186339E+00
        -11   -1    0    0    0    0  0.00000000000E+00  0.00000000000E+00  0.45593999997E+02  0.45594000000E+02  0.51100000000E-03 0.  1.
         11   -1    0    0    0    0 -0.00000000000E+00 -0.00000000000E+00 -0.45593999997E+02  0.45594000000E+02  0.51100000000E-03 0. -1.
    9900012    2    1    2    0    0  0.61937103141E+00  0.91453251756E+00 -0.41592623433E+00  0.90007752216E+02  0.90000013745E+02 0.  0.
        -12    1    1    2    0    0 -0.61937103141E+00 -0.91453251756E+00  0.41592623433E+00  0.11802477844E+01  0.00000000000E+00 0.  1.
         11    1    3    3    0    0  0.41420401868E+01  0.11996653095E+02  0.89598689719E+00  0.12723166869E+02  0.51100000000E-03 0. -1.
        -11    1    3    3    0    0  0.23787940326E+02 -0.17934515166E+02  0.24891248736E+02  0.38821221041E+02  0.51100000000E-03 0.  1.
         12    1    3    3    0    0 -0.27310609482E+02  0.68523945889E+01 -0.26203161867E+02  0.38463364306E+02  0.00000000000E+00 0. -1.
</event>
<event>
 7    1  0.2294706E-015  0.9000767E+02  0.7816164E-02  0.1186339E+00
        -11   -1    0    0    0    0  0.00000000000E+00  0.00000000000E+00  0.45593999997E+02  0.45594000000E+02  0.51100000000E-03 0. -1.
         11   -1    0    0    0    0 -0.00000000000E+00 -0.00000000000E+00 -0.45593999997E+02  0.45594000000E+02  0.51100000000E-03 0.  1.
    9900012    2    1    2    0    0  0.35776310177E+00  0.21271825622E+00  0.11045056017E+01  0.90007671182E+02  0.89999931642E+02 0.  0.
        -12    1    1    2    0    0 -0.35776310177E+00 -0.21271825622E+00 -0.11045056017E+01  0.11803288176E+01  0.00000000000E+00 0.  1.
         11    1    3    3    0    0  0.23663143686E+01  0.36093998432E+01 -0.82144575674E+01  0.92792523571E+01  0.51100000000E-03 0. -1.
        -11    1    3    3    0    0 -0.36775782782E+02 -0.62575750766E+01 -0.12780293396E+02  0.39432871371E+02  0.51100000000E-03 0.  1.
         12    1    3    3    0    0  0.34767231515E+02  0.28608934897E+01  0.22099256565E+02  0.41295547454E+02  0.00000000000E+00 0. -1.
</event>
<event>
 7    1  0.2294706E-015  0.9000777E+02  0.7816164E-02  0.1186339E+00
        -11   -1    0    0    0    0  0.00000000000E+00  0.00000000000E+00  0.45593999997E+02  0.45594000000E+02  0.51100000000E-03 0.  1.
         11   -1    0    0    0    0 -0.00000000000E+00 -0.00000000000E+00 -0.45593999997E+02  0.45594000000E+02  0.51100000000E-03 0. -1.
    9900012    2    1    2    0    0  0.56597734203E+00 -0.99557002952E+00  0.28539756600E+00  0.90007770443E+02  0.90000032213E+02 0.  0.
        -12    1    1    2    0    0 -0.56597734203E+00  0.99557002952E+00 -0.28539756600E+00  0.11802295565E+01  0.00000000000E+00 0.  1.
         11    1    3    3    0    0 -0.99006268767E+01 -0.19484351320E+01  0.16150310094E+01  0.10218959704E+02  0.51100000000E-03 0. -1.
        -11    1    3    3    0    0  0.28105307978E+02 -0.19393905017E+01  0.31591444312E+02  0.42328346602E+02  0.51100000000E-03 0.  1.
         12    1    3    3    0    0 -0.17638703759E+02  0.28922556043E+01 -0.32921077756E+02  0.37460464137E+02  0.00000000000E+00 0. -1.
</event>
<event>
 7    1  0.2294706E-015  0.9000715E+02  0.7816164E-02  0.1186340E+00
        -11   -1    0    0    0    0  0.00000000000E+00  0.00000000000E+00  0.45593999997E+02  0.45594000000E+02  0.51100000000E-03 0.  1.
         11   -1    0    0    0    0 -0.00000000000E+00 -0.00000000000E+00 -0.45593999997E+02  0.45594000000E+02  0.51100000000E-03 0. -1.
    9900012    2    1    2    0    0  0.78725876678E+00 -0.38765111789E+00  0.79016523663E+00  0.90007148250E+02  0.89999401805E+02 0.  0.
        -12    1    1    2    0    0 -0.78725876678E+00  0.38765111789E+00 -0.79016523663E+00  0.11808517503E+01  0.00000000000E+00 0.  1.
         11    1    3    3    0    0  0.14999136341E+02  0.12080552359E+01 -0.30749302698E+02  0.34233800623E+02  0.51100000000E-03 0. -1.
        -11    1    3    3    0    0  0.46767884879E+01  0.64172444582E+01 -0.79720740461E+01  0.11251992795E+02  0.51100000000E-03 0.  1.
        -12    1    3    3    0    0 -0.18888666062E+02 -0.80129508120E+01  0.39511541981E+02  0.44521354832E+02  0.00000000000E+00 0.  1.
</event>
<event>
 7    1  0.2294706E-015  0.9000769E+02  0.7816164E-02  0.1186339E+00
        -11   -1    0    0    0    0  0.00000000000E+00  0.00000000000E+00  0.45593999997E+02  0.45594000000E+02  0.51100000000E-03 0.  1.
         11   -1    0    0    0    0 -0.00000000000E+00 -0.00000000000E+00 -0.45593999997E+02  0.45594000000E+02  0.51100000000E-03 0. -1.
    9900012    2    1    2    0    0  0.59378567704E+00 -0.90507039819E+00 -0.47052952101E+00  0.90007689920E+02  0.89999950626E+02 0.  0.
        -12    1    1    2    0    0 -0.59378567704E+00  0.90507039819E+00  0.47052952101E+00  0.11803100805E+01  0.00000000000E+00 0.  1.
         11    1    3    3    0    0  0.20408388556E+02  0.11316958493E+02 -0.31407613083E+02  0.39128174412E+02  0.51100000000E-03 0. -1.
        -11    1    3    3    0    0  0.22396416300E+01 -0.70379549864E+01 -0.46248043236E+01  0.87142194323E+01  0.51100000000E-03 0.  1.
        -12    1    3    3    0    0 -0.22054244509E+02 -0.51840739049E+01  0.35561887886E+02  0.42165296075E+02  0.00000000000E+00 0.  1.
</event>
<event>
 7    1  0.2294706E-015  0.9000890E+02  0.7816164E-02  0.1186337E+00
        -11   -1    0    0    0    0  0.00000000000E+00  0.00000000000E+00  0.45593999997E+02  0.45594000000E+02  0.51100000000E-03 0.  1.
         11   -1    0    0    0    0 -0.00000000000E+00 -0.00000000000E+00 -0.45593999997E+02  0.45594000000E+02  0.51100000000E-03 0. -1.
    9900012    2    1    2    0    0  0.10365425370E+01 -0.40758945873E+00 -0.38695786701E+00  0.90008896108E+02  0.90001172729E+02 0.  0.
        -12    1    1    2    0    0 -0.10365425370E+01  0.40758945873E+00  0.38695786701E+00  0.11791038923E+01  0.00000000000E+00 0.  1.
         11    1    3    3    0    0  0.57767888237E+01  0.38056058402E+01 -0.51847928476E+01  0.86449986732E+01  0.51100000000E-03 0. -1.
        -11    1    3    3    0    0 -0.50873369040E+01 -0.41985653304E+02 -0.42967517443E+01  0.42510447609E+02  0.51100000000E-03 0.  1.
         12    1    3    3    0    0  0.34709061733E+00  0.37772458005E+02  0.90945867250E+01  0.38853449825E+02  0.00000000000E+00 0. -1.
</event>
<event>
 7    1  0.2294706E-015  0.9000801E+02  0.7816164E-02  0.1186339E+00
        -11   -1    0    0    0    0  0.00000000000E+00  0.00000000000E+00  0.45593999997E+02  0.45594000000E+02  0.51100000000E-03 0. -1.
         11   -1    0    0    0    0 -0.00000000000E+00 -0.00000000000E+00 -0.45593999997E+02  0.45594000000E+02  0.51100000000E-03 0.  1.
    9900012    2    1    2    0    0  0.55507311878E+00 -0.37999382970E+00  0.96947478022E+00  0.90008007277E+02  0.90000272172E+02 0.  0.
        -12    1    1    2    0    0 -0.55507311878E+00  0.37999382970E+00 -0.96947478022E+00  0.11799927234E+01  0.00000000000E+00 0.  1.
         11    1    3    3    0    0 -0.32587313372E+02  0.57701409303E+01 -0.15362332686E+02  0.36486008072E+02  0.51100000000E-03 0. -1.
        -11    1    3    3    0    0 -0.79645016741E+01 -0.57823185810E+01  0.37302414587E+01  0.10525359694E+02  0.51100000000E-03 0.  1.
        -12    1    3    3    0    0  0.41106888165E+02 -0.36781617903E+00  0.12601566008E+02  0.42996639511E+02  0.00000000000E+00 0.  1.
</event>
<event>
 7    1  0.2294706E-015  0.9000770E+02  0.7816164E-02  0.1186339E+00
        -11   -1    0    0    0    0  0.00000000000E+00  0.00000000000E+00  0.45593999997E+02  0.45594000000E+02  0.51100000000E-03 0.  1.
         11   -1    0    0    0    0 -0.00000000000E+00 -0.00000000000E+00 -0.45593999997E+02  0.45594000000E+02  0.51100000000E-03 0. -1.
    9900012    2    1    2    0    0 -0.38026110446E+00 -0.10568370825E+01 -0.36276330399E+00  0.90007703283E+02  0.89999964166E+02 0.  0.
        -12    1    1    2    0    0  0.38026110446E+00  0.10568370825E+01  0.36276330399E+00  0.11802967174E+01  0.00000000000E+00 0.  1.
         11    1    3    3    0    0 -0.14584915695E+02  0.94481763941E+01 -0.33768203119E+02  0.37977353056E+02  0.51100000000E-03 0. -1.
        -11    1    3    3    0    0  0.27613017920E+01 -0.43013387405E+01 -0.75155293633E+01  0.90889759830E+01  0.51100000000E-03 0.  1.
        -12    1    3    3    0    0  0.11443352798E+02 -0.62036747361E+01  0.40920969178E+02  0.42941374244E+02  0.00000000000E+00 0.  1.
</event>
<event>
 7    1  0.2294706E-015  0.9000756E+02  0.7816164E-02  0.1186339E+00
        -11   -1    0    0    0    0  0.00000000000E+00  0.00000000000E+00  0.45593999997E+02  0.45594000000E+02  0.51100000000E-03 0.  1.
         11   -1    0    0    0    0 -0.00000000000E+00 -0.00000000000E+00 -0.45593999997E+02  0.45594000000E+02  0.51100000000E-03 0. -1.
    9900012    2    1    2    0    0  0.41652567503E+00 -0.80333191137E-01 -0.11015848698E+01  0.90007560978E+02  0.89999819983E+02 0.  0.
        -12    1    1    2    0    0 -0.41652567503E+00  0.80333191137E-01  0.11015848698E+01  0.11804390221E+01  0.00000000000E+00 0.  1.
         11    1    3    3    0    0  0.49810789598E+01  0.82214025328E+01  0.39505959570E+01  0.10392777102E+02  0.51100000000E-03 0. -1.
        -11    1    3    3    0    0  0.36779883351E+02 -0.86540663834E+01  0.11748647823E+01  0.37802552715E+02  0.51100000000E-03 0.  1.
         12    1    3    3    0    0 -0.41344436636E+02  0.35233065942E+00 -0.62270456092E+01  0.41812231161E+02  0.00000000000E+00 0. -1.
</event>
<event>
 7    1  0.2407117E-015  0.9000783E+02  0.7816164E-02  0.1186339E+00
        -11   -1    0    0    0    0  0.00000000000E+00  0.00000000000E+00  0.45593999997E+02  0.45594000000E+02  0.51100000000E-03 0.  1.
         11   -1    0    0    0    0 -0.00000000000E+00 -0.00000000000E+00 -0.45593999997E+02  0.45594000000E+02  0.51100000000E-03 0. -1.
    9900012    2    1    2    0    0  0.11618734702E+01  0.10101143528E+00  0.18071347304E+00  0.90007826017E+02  0.90000088520E+02 0.  0.
        -12    1    1    2    0    0 -0.11618734702E+01 -0.10101143528E+00 -0.18071347304E+00  0.11801739830E+01  0.00000000000E+00 0.  1.
         11    1    3    3    0    0 -0.20173700319E+02 -0.68999236054E+01 -0.33189480542E+02  0.39447797774E+02  0.51100000000E-03 0. -1.
        -11    1    3    3    0    0  0.79234952621E+01  0.28939770166E+01 -0.49311336928E+01  0.97710265529E+01  0.51100000000E-03 0.  1.
        -12    1    3    3    0    0  0.13412078528E+02  0.41069580241E+01  0.38301327708E+02  0.40789001690E+02  0.00000000000E+00 0.  1.
</event>
<event>
 7    1  0.2294706E-015  0.9000781E+02  0.7816164E-02  0.1186339E+00
        -11   -1    0    0    0    0  0.00000000000E+00  0.00000000000E+00  0.45593999997E+02  0.45594000000E+02  0.51100000000E-03 0.  1.
         11   -1    0    0    0    0 -0.00000000000E+00 -0.00000000000E+00 -0.45593999997E+02  0.45594000000E+02  0.51100000000E-03 0. -1.
    9900012    2    1    2    0    0  0.48234367405E+00  0.80208026013E-01 -0.10741330895E+01  0.90007809066E+02  0.90000071345E+02 0.  0.
        -12    1    1    2    0    0 -0.48234367405E+00 -0.80208026013E-01  0.10741330895E+01  0.11801909343E+01  0.00000000000E+00 0.  1.
         11    1    3    3    0    0 -0.20168923870E+01 -0.33221508030E+02  0.19122540323E+02  0.38384997060E+02  0.51100000000E-03 0. -1.
        -11    1    3    3    0    0 -0.73519026012E+01 -0.43173983228E+01 -0.24055448627E+01  0.88587271367E+01  0.51100000000E-03 0.  1.
        -12    1    3    3    0    0  0.98511386623E+01  0.37619114378E+02 -0.17791128550E+02  0.42764084869E+02  0.00000000000E+00 0.  1.
</event>
<event>
 7    1  0.2294706E-015  0.9000772E+02  0.7816164E-02  0.1186339E+00
        -11   -1    0    0    0    0  0.00000000000E+00  0.00000000000E+00  0.45593999997E+02  0.45594000000E+02  0.51100000000E-03 0.  1.
         11   -1    0    0    0    0 -0.00000000000E+00 -0.00000000000E+00 -0.45593999997E+02  0.45594000000E+02  0.51100000000E-03 0. -1.
    9900012    2    1    2    0    0  0.78528682952E+00  0.81485184169E+00  0.33525798475E+00  0.90007721709E+02  0.89999982835E+02 0.  0.
        -12    1    1    2    0    0 -0.78528682952E+00 -0.81485184169E+00 -0.33525798475E+00  0.11802782913E+01  0.00000000000E+00 0.  1.
         11    1    3    3    0    0 -0.21265660362E+02  0.17505441097E+02 -0.29469388042E+02  0.40337496334E+02  0.51100000000E-03 0. -1.
        -11    1    3    3    0    0 -0.57469983548E+01 -0.85750646603E+00 -0.19479320978E+00  0.58138844231E+01  0.51100000000E-03 0.  1.
        -12    1    3    3    0    0  0.27797945546E+02 -0.15833082789E+02  0.29999439237E+02  0.43856340952E+02  0.00000000000E+00 0.  1.
</event>
<event>
 7    1  0.2294706E-015  0.9000778E+02  0.7816164E-02  0.1186339E+00
        -11   -1    0    0    0    0  0.00000000000E+00  0.00000000000E+00  0.45593999997E+02  0.45594000000E+02  0.51100000000E-03 0. -1.
         11   -1    0    0    0    0 -0.00000000000E+00 -0.00000000000E+00 -0.45593999997E+02  0.45594000000E+02  0.51100000000E-03 0.  1.
    9900012    2    1    2    0    0  0.49772792694E+00 -0.73904245347E+00  0.77395348459E+00  0.90007779328E+02  0.90000041216E+02 0.  0.
        -12    1    1    2    0    0 -0.49772792694E+00  0.73904245347E+00 -0.77395348459E+00  0.11802206716E+01  0.00000000000E+00 0.  1.
         11    1    3    3    0    0  0.14461714423E+02 -0.13092695835E+02 -0.34773822078E+02  0.39872027418E+02  0.51100000000E-03 0. -1.
        -11    1    3    3    0    0 -0.70870829180E+01 -0.54404611561E+01 -0.91792549351E+00  0.89815337972E+01  0.51100000000E-03 0.  1.
        -12    1    3    3    0    0 -0.68769035779E+01  0.17794114538E+02  0.36465701056E+02  0.41154218113E+02  0.00000000000E+00 0.  1.
</event>
<event>
 7    1  0.2294706E-015  0.9000769E+02  0.7816164E-02  0.1186339E+00
        -11   -1    0    0    0    0  0.00000000000E+00  0.00000000000E+00  0.45593999997E+02  0.45594000000E+02  0.51100000000E-03 0.  1.
         11   -1    0    0    0    0 -0.00000000000E+00 -0.00000000000E+00 -0.45593999997E+02  0.45594000000E+02  0.51100000000E-03 0. -1.
    9900012    2    1    2    0    0  0.67116650334E+00  0.96388829391E+00  0.11659756252E+00  0.90007686436E+02  0.89999947097E+02 0.  0.
        -12    1    1    2    0    0 -0.67116650334E+00 -0.96388829391E+00 -0.11659756252E+00  0.11803135642E+01  0.00000000000E+00 0.  1.
         11    1    3    3    0    0  0.18483038537E+01  0.99348257331E+01  0.97193070433E+01  0.14020767424E+02  0.51100000000E-03 0. -1.
        -11    1    3    3    0    0 -0.13807077700E+02 -0.31783515868E+01  0.30454136578E+02  0.33588565739E+02  0.51100000000E-03 0.  1.
         12    1    3    3    0    0  0.12629940350E+02 -0.57925858524E+01 -0.40056846059E+02  0.42398353273E+02  0.00000000000E+00 0. -1.
</event>
<event>
 7    1  0.2294706E-015  0.9000743E+02  0.7816164E-02  0.1186340E+00
        -11   -1    0    0    0    0  0.00000000000E+00  0.00000000000E+00  0.45593999997E+02  0.45594000000E+02  0.51100000000E-03 0. -1.
         11   -1    0    0    0    0 -0.00000000000E+00 -0.00000000000E+00 -0.45593999997E+02  0.45594000000E+02  0.51100000000E-03 0.  1.
    9900012    2    1    2    0    0  0.10850608052E+01  0.30377176823E+00 -0.35228962687E+00  0.90007431400E+02  0.89999688694E+02 0.  0.
        -12    1    1    2    0    0 -0.10850608052E+01 -0.30377176823E+00  0.35228962687E+00  0.11805686000E+01  0.00000000000E+00 0.  1.
         11    1    3    3    0    0  0.48888735158E+01 -0.88213035140E+01 -0.73669218260E+00  0.10112328890E+02  0.51100000000E-03 0. -1.
        -11    1    3    3    0    0 -0.82588114941E+00  0.39317807968E+02 -0.19221169059E+02  0.43772427889E+02  0.51100000000E-03 0.  1.
         12    1    3    3    0    0 -0.29779315612E+01 -0.30192732686E+02  0.19605571615E+02  0.36122674621E+02  0.00000000000E+00 0. -1.
</event>
<event>
 7    1  0.2294706E-015  0.9000783E+02  0.7816164E-02  0.1186339E+00
        -11   -1    0    0    0    0  0.00000000000E+00  0.00000000000E+00  0.45593999997E+02  0.45594000000E+02  0.51100000000E-03 0. -1.
         11   -1    0    0    0    0 -0.00000000000E+00 -0.00000000000E+00 -0.45593999997E+02  0.45594000000E+02  0.51100000000E-03 0.  1.
    9900012    2    1    2    0    0  0.27998787860E-01  0.27497972915E+00  0.11473485065E+01  0.90007827818E+02  0.90000090345E+02 0.  0.
        -12    1    1    2    0    0 -0.27998787860E-01 -0.27497972915E+00 -0.11473485065E+01  0.11801721819E+01  0.00000000000E+00 0.  1.
         11    1    3    3    0    0 -0.27021502714E+01  0.54619144213E+01 -0.68427014558E+01  0.91627882607E+01  0.51100000000E-03 0. -1.
        -11    1    3    3    0    0 -0.22156810669E+02 -0.30345620988E+02 -0.12929528331E+02  0.39736050071E+02  0.51100000000E-03 0.  1.
         12    1    3    3    0    0  0.24886959728E+02  0.25158686296E+02  0.20919578293E+02  0.41108989486E+02  0.00000000000E+00 0. -1.
</event>
<event>
 7    1  0.2294706E-015  0.9000781E+02  0.7816164E-02  0.1186339E+00
        -11   -1    0    0    0    0  0.00000000000E+00  0.00000000000E+00  0.45593999997E+02  0.45594000000E+02  0.51100000000E-03 0. -1.
         11   -1    0    0    0    0 -0.00000000000E+00 -0.00000000000E+00 -0.45593999997E+02  0.45594000000E+02  0.51100000000E-03 0.  1.
    9900012    2    1    2    0    0  0.53129159448E+00 -0.10535538225E+01 -0.24690457836E-01  0.90007806781E+02  0.90000069031E+02 0.  0.
        -12    1    1    2    0    0 -0.53129159448E+00  0.10535538225E+01  0.24690457836E-01  0.11801932189E+01  0.00000000000E+00 0.  1.
         11    1    3    3    0    0 -0.30240300153E+00 -0.42411485354E+00 -0.10364621402E+02  0.10377701964E+02  0.51100000000E-03 0. -1.
        -11    1    3    3    0    0 -0.14970480716E+02 -0.19191073825E+02  0.36500534559E+02  0.43871421573E+02  0.51100000000E-03 0.  1.
         12    1    3    3    0    0  0.15804175312E+02  0.18561634857E+02 -0.26160603615E+02  0.35758683244E+02  0.00000000000E+00 0. -1.
</event>
<event>
 7    1  0.2294706E-015  0.9000778E+02  0.7816164E-02  0.1186339E+00
        -11   -1    0    0    0    0  0.00000000000E+00  0.00000000000E+00  0.45593999997E+02  0.45594000000E+02  0.51100000000E-03 0.  1.
         11   -1    0    0    0    0 -0.00000000000E+00 -0.00000000000E+00 -0.45593999997E+02  0.45594000000E+02  0.51100000000E-03 0. -1.
    9900012    2    1    2    0    0 -0.81616703850E+00  0.45706349499E+00 -0.71963458635E+00  0.90007784083E+02  0.90000046033E+02 0.  0.
        -12    1    1    2    0    0  0.81616703850E+00 -0.45706349499E+00  0.71963458635E+00  0.11802159171E+01  0.00000000000E+00 0.  1.
         11    1    3    3    0    0 -0.21774875172E+02 -0.13092914063E+02 -0.22225435470E+01  0.25505083562E+02  0.51100000000E-03 0. -1.
        -11    1    3    3    0    0 -0.10992620781E+02  0.24984703130E+02  0.10738838588E+02  0.29332503416E+02  0.51100000000E-03 0.  1.
        -12    1    3    3    0    0  0.31951328915E+02 -0.11434725572E+02 -0.92359296273E+01  0.35170197105E+02  0.00000000000E+00 0.  1.
</event>
<event>
 7    1  0.2294706E-015  0.9000780E+02  0.7816164E-02  0.1186339E+00
        -11   -1    0    0    0    0  0.00000000000E+00  0.00000000000E+00  0.45593999997E+02  0.45594000000E+02  0.51100000000E-03 0.  1.
         11   -1    0    0    0    0 -0.00000000000E+00 -0.00000000000E+00 -0.45593999997E+02  0.45594000000E+02  0.51100000000E-03 0. -1.
    9900012    2    1    2    0    0 -0.28925740786E+00  0.76799704874E-01 -0.11416187578E+01  0.90007804495E+02  0.90000066714E+02 0.  0.
        -12    1    1    2    0    0  0.28925740786E+00 -0.76799704874E-01  0.11416187578E+01  0.11801955054E+01  0.00000000000E+00 0.  1.
         11    1    3    3    0    0 -0.33477622246E+02 -0.21667672856E+02 -0.10979126305E+01  0.39892914792E+02  0.51100000000E-03 0. -1.
        -11    1    3    3    0    0  0.78674546454E+00  0.92082490829E+01 -0.10350560550E+02  0.13876055764E+02  0.51100000000E-03 0.  1.
        -12    1    3    3    0    0  0.32401619374E+02  0.12536223478E+02  0.10306854423E+02  0.36238833938E+02  0.00000000000E+00 0.  1.
</event>
<event>
 7    1  0.2294706E-015  0.9000775E+02  0.7816164E-02  0.1186339E+00
        -11   -1    0    0    0    0  0.00000000000E+00  0.00000000000E+00  0.45593999997E+02  0.45594000000E+02  0.51100000000E-03 0.  1.
         11   -1    0    0    0    0 -0.00000000000E+00 -0.00000000000E+00 -0.45593999997E+02  0.45594000000E+02  0.51100000000E-03 0. -1.
    9900012    2    1    2    0    0  0.10287451341E+01 -0.10486396683E+00  0.56893221632E+00  0.90007747116E+02  0.90000008578E+02 0.  0.
        -12    1    1    2    0    0 -0.10287451341E+01  0.10486396683E+00 -0.56893221632E+00  0.11802528836E+01  0.00000000000E+00 0.  1.
         11    1    3    3    0    0 -0.51212512435E+00 -0.16896385213E+00 -0.10027312823E+02  0.10041803804E+02  0.51100000000E-03 0. -1.
        -11    1    3    3    0    0 -0.20598535936E+02 -0.11190537327E+02  0.36946649511E+02  0.43755944953E+02  0.51100000000E-03 0.  1.
         12    1    3    3    0    0  0.22139406194E+02  0.11254637213E+02 -0.26350404471E+02  0.36209998360E+02  0.00000000000E+00 0. -1.
</event>
<event>
 7    1  0.2294706E-015  0.9000798E+02  0.7816164E-02  0.1186339E+00
        -11   -1    0    0    0    0  0.00000000000E+00  0.00000000000E+00  0.45593999997E+02  0.45594000000E+02  0.51100000000E-03 0.  1.
         11   -1    0    0    0    0 -0.00000000000E+00 -0.00000000000E+00 -0.45593999997E+02  0.45594000000E+02  0.51100000000E-03 0. -1.
    9900012    2    1    2    0    0  0.10524869230E+01 -0.50538763927E+00  0.17115065370E+00  0.90007983926E+02  0.90000248513E+02 0.  0.
        -12    1    1    2    0    0 -0.10524869230E+01  0.50538763927E+00 -0.17115065370E+00  0.11800160741E+01  0.00000000000E+00 0.  1.
         11    1    3    3    0    0 -0.70783010632E+01  0.22252256332E+00  0.75464540076E+01  0.10348953115E+02  0.51100000000E-03 0. -1.
        -11    1    3    3    0    0 -0.19002928063E+02  0.30038289372E+02  0.69311927289E+01  0.36213968800E+02  0.51100000000E-03 0.  1.
         12    1    3    3    0    0  0.27133716049E+02 -0.30766199575E+02 -0.14306496083E+02  0.43445062010E+02  0.00000000000E+00 0. -1.
</event>
<event>
 7    1  0.2294706E-015  0.9000773E+02  0.7816164E-02  0.1186339E+00
        -11   -1    0    0    0    0  0.00000000000E+00  0.00000000000E+00  0.45593999997E+02  0.45594000000E+02  0.51100000000E-03 0. -1.
         11   -1    0    0    0    0 -0.00000000000E+00 -0.00000000000E+00 -0.45593999997E+02  0.45594000000E+02  0.51100000000E-03 0.  1.
    9900012    2    1    2    0    0  0.49224733573E+00 -0.60202984681E+00  0.88785533441E+00  0.90007731187E+02  0.89999992439E+02 0.  0.
        -12    1    1    2    0    0 -0.49224733573E+00  0.60202984681E+00 -0.88785533441E+00  0.11802688130E+01  0.00000000000E+00 0.  1.
         11    1    3    3    0    0 -0.20993122798E+02 -0.11109192588E+02  0.31307927642E+02  0.39297731465E+02  0.51100000000E-03 0. -1.
        -11    1    3    3    0    0 -0.26516568107E+01 -0.76831695704E+01 -0.44117758705E+00  0.81398413015E+01  0.51100000000E-03 0.  1.
        -12    1    3    3    0    0  0.24137026944E+02  0.18190332311E+02 -0.29978894721E+02  0.42570158421E+02  0.00000000000E+00 0.  1.
</event>
<event>
 7    1  0.2294706E-015  0.9000771E+02  0.7816164E-02  0.1186339E+00
        -11   -1    0    0    0    0  0.00000000000E+00  0.00000000000E+00  0.45593999997E+02  0.45594000000E+02  0.51100000000E-03 0.  1.
         11   -1    0    0    0    0 -0.00000000000E+00 -0.00000000000E+00 -0.45593999997E+02  0.45594000000E+02  0.51100000000E-03 0. -1.
    9900012    2    1    2    0    0  0.94515026771E+00 -0.14109553531E+00 -0.69272323369E+00  0.90007710859E+02  0.89999971842E+02 0.  0.
        -12    1    1    2    0    0 -0.94515026771E+00  0.14109553531E+00  0.69272323369E+00  0.11802891413E+01  0.00000000000E+00 0.  1.
         11    1    3    3    0    0  0.21308763208E+02 -0.22452178253E+02 -0.21721646419E+02  0.37815256461E+02  0.51100000000E-03 0. -1.
        -11    1    3    3    0    0 -0.74791041863E+01 -0.16945979094E+01 -0.88811669927E+01  0.11733873568E+02  0.51100000000E-03 0.  1.
        -12    1    3    3    0    0 -0.12884508754E+02  0.24005680628E+02  0.29910090178E+02  0.40458580829E+02  0.00000000000E+00 0.  1.
</event>
<event>
 7    1  0.2294706E-015  0.9000773E+02  0.7816164E-02  0.1186339E+00
        -11   -1    0    0    0    0  0.00000000000E+00  0.00000000000E+00  0.45593999997E+02  0.45594000000E+02  0.51100000000E-03 0. -1.
         11   -1    0    0    0    0 -0.00000000000E+00 -0.00000000000E+00 -0.45593999997E+02  0.45594000000E+02  0.51100000000E-03 0.  1.
    9900012    2    1    2    0    0  0.67739961907E+00 -0.96461832197E+00 -0.60680322664E-01  0.90007728484E+02  0.89999989700E+02 0.  0.
        -12    1    1    2    0    0 -0.67739961907E+00  0.96461832197E+00  0.60680322664E-01  0.11802715164E+01  0.00000000000E+00 0.  1.
         11    1    3    3    0    0  0.90617255791E+01 -0.15485337799E+01 -0.45602235718E+01  0.10261991358E+02  0.51100000000E-03 0. -1.
        -11    1    3    3    0    0  0.81687534561E+01 -0.37071853785E+02  0.67244034098E+01  0.38552152697E+02  0.51100000000E-03 0.  1.
         12    1    3    3    0    0 -0.16553079416E+02  0.37655769243E+02 -0.22248601606E+01  0.41193584429E+02  0.00000000000E+00 0. -1.
</event>
<event>
 7    1  0.2294706E-015  0.9000826E+02  0.7816164E-02  0.1186338E+00
        -11   -1    0    0    0    0  0.00000000000E+00  0.00000000000E+00  0.45593999997E+02  0.45594000000E+02  0.51100000000E-03 0. -1.
         11   -1    0    0    0    0 -0.00000000000E+00 -0.00000000000E+00 -0.45593999997E+02  0.45594000000E+02  0.51100000000E-03 0.  1.
    9900012    2    1    2    0    0  0.76511954181E+00  0.60323569825E+00  0.66518943548E+00  0.90008263501E+02  0.90000531778E+02 0.  0.
        -12    1    1    2    0    0 -0.76511954181E+00 -0.60323569825E+00 -0.66518943548E+00  0.11797364985E+01  0.00000000000E+00 0.  1.
         11    1    3    3    0    0  0.85310549248E+01  0.10033915161E+01 -0.33803350044E+01  0.92310539847E+01  0.51100000000E-03 0. -1.
        -11    1    3    3    0    0 -0.34430963503E+02 -0.23776065445E+02 -0.93436565651E+01  0.42873027115E+02  0.51100000000E-03 0.  1.
         12    1    3    3    0    0  0.26665028120E+02  0.23375909627E+02  0.13389181005E+02  0.37904182401E+02  0.00000000000E+00 0. -1.
</event>
<event>
 7    1  0.2294706E-015  0.9000800E+02  0.7816164E-02  0.1186339E+00
        -11   -1    0    0    0    0  0.00000000000E+00  0.00000000000E+00  0.45593999997E+02  0.45594000000E+02  0.51100000000E-03 0. -1.
         11   -1    0    0    0    0 -0.00000000000E+00 -0.00000000000E+00 -0.45593999997E+02  0.45594000000E+02  0.51100000000E-03 0.  1.
    9900012    2    1    2    0    0 -0.10836864440E+01  0.13731401357E+00 -0.44627390055E+00  0.90008003457E+02  0.90000268302E+02 0.  0.
        -12    1    1    2    0    0  0.10836864440E+01 -0.13731401357E+00  0.44627390055E+00  0.11799965430E+01  0.00000000000E+00 0.  1.
         11    1    3    3    0    0  0.30621061728E+01 -0.83791333129E+01  0.61098866279E+01  0.10812820361E+02  0.51100000000E-03 0. -1.
        -11    1    3    3    0    0 -0.36761085942E+02 -0.99590755215E+01  0.81158936478E+01  0.38941345057E+02  0.51100000000E-03 0.  1.
         12    1    3    3    0    0  0.32615293325E+02  0.18475522848E+02 -0.14672054176E+02  0.40253838040E+02  0.00000000000E+00 0. -1.
</event>
<event>
 7    1  0.2294706E-015  0.9000775E+02  0.7816164E-02  0.1186339E+00
        -11   -1    0    0    0    0  0.00000000000E+00  0.00000000000E+00  0.45593999997E+02  0.45594000000E+02  0.51100000000E-03 0.  1.
         11   -1    0    0    0    0 -0.00000000000E+00 -0.00000000000E+00 -0.45593999997E+02  0.45594000000E+02  0.51100000000E-03 0. -1.
    9900012    2    1    2    0    0 -0.11247531400E+01 -0.20443630518E+00  0.29346940729E+00  0.90007750822E+02  0.90000012333E+02 0.  0.
        -12    1    1    2    0    0  0.11247531400E+01  0.20443630518E+00 -0.29346940729E+00  0.11802491779E+01  0.00000000000E+00 0.  1.
         11    1    3    3    0    0 -0.44283042604E+00 -0.64136200968E+01  0.76245811923E+01  0.99732071146E+01  0.51100000000E-03 0. -1.
        -11    1    3    3    0    0  0.79080824286E+01 -0.33177500468E+02  0.10878863731E+02  0.35799915941E+02  0.51100000000E-03 0.  1.
         12    1    3    3    0    0 -0.85900051426E+01  0.39386684260E+02 -0.18209975516E+02  0.44234627767E+02  0.00000000000E+00 0. -1.
</event>
<event>
 7    1  0.2294706E-015  0.9000775E+02  0.7816164E-02  0.1186339E+00
        -11   -1    0    0    0    0  0.00000000000E+00  0.00000000000E+00  0.45593999997E+02  0.45594000000E+02  0.51100000000E-03 0.  1.
         11   -1    0    0    0    0 -0.00000000000E+00 -0.00000000000E+00 -0.45593999997E+02  0.45594000000E+02  0.51100000000E-03 0. -1.
    9900012    2    1    2    0    0  0.25880906892E+00 -0.71628954272E+00  0.90163203729E+00  0.90007748682E+02  0.90000010165E+02 0.  0.
        -12    1    1    2    0    0 -0.25880906892E+00  0.71628954272E+00 -0.90163203729E+00  0.11802513181E+01  0.00000000000E+00 0.  1.
         11    1    3    3    0    0  0.10228440833E+01  0.33072080151E+01 -0.38653885540E+01  0.51889366741E+01  0.51100000000E-03 0. -1.
        -11    1    3    3    0    0  0.38004624965E+02 -0.96145953597E+01 -0.13683059570E+02  0.41521296730E+02  0.51100000000E-03 0.  1.
         12    1    3    3    0    0 -0.38768659980E+02  0.55910978019E+01  0.18450080161E+02  0.43297515278E+02  0.00000000000E+00 0. -1.
</event>
<event>
 7    1  0.2294706E-015  0.9000775E+02  0.7816164E-02  0.1186339E+00
        -11   -1    0    0    0    0  0.00000000000E+00  0.00000000000E+00  0.45593999997E+02  0.45594000000E+02  0.51100000000E-03 0.  1.
         11   -1    0    0    0    0 -0.00000000000E+00 -0.00000000000E+00 -0.45593999997E+02  0.45594000000E+02  0.51100000000E-03 0. -1.
    9900012    2    1    2    0    0  0.80285176942E+00  0.44327207398E-01 -0.86397620264E+00  0.90007749711E+02  0.90000011208E+02 0.  0.
        -12    1    1    2    0    0 -0.80285176942E+00 -0.44327207398E-01  0.86397620264E+00  0.11802502886E+01  0.00000000000E+00 0.  1.
         11    1    3    3    0    0  0.11342514562E+02 -0.10480424303E+01 -0.95082361759E+01  0.14837708212E+02  0.51100000000E-03 0. -1.
        -11    1    3    3    0    0 -0.58666019786E+01 -0.14257883451E+02  0.38391228013E+02  0.41371374739E+02  0.51100000000E-03 0.  1.
         12    1    3    3    0    0 -0.46730608144E+01  0.15350253088E+02 -0.29746968039E+02  0.33798666760E+02  0.00000000000E+00 0. -1.
</event>
<event>
 7    1  0.3519804E-015  0.9000775E+02  0.7816164E-02  0.1186339E+00
        -11   -1    0    0    0    0  0.00000000000E+00  0.00000000000E+00  0.45593999997E+02  0.45594000000E+02  0.51100000000E-03 0.  1.
         11   -1    0    0    0    0 -0.00000000000E+00 -0.00000000000E+00 -0.45593999997E+02  0.45594000000E+02  0.51100000000E-03 0. -1.
    9900012    2    1    2    0    0  0.10903123510E+01  0.23339811358E+00 -0.38694171250E+00  0.90007754436E+02  0.90000015995E+02 0.  0.
        -12    1    1    2    0    0 -0.10903123510E+01 -0.23339811358E+00  0.38694171250E+00  0.11802455639E+01  0.00000000000E+00 0.  1.
         11    1    3    3    0    0 -0.76358121847E+01  0.10986914933E+02 -0.33350941664E+02  0.35934707980E+02  0.51100000000E-03 0. -1.
        -11    1    3    3    0    0  0.33145520598E+01  0.10614606442E+01 -0.92610778777E+01  0.98934583323E+01  0.51100000000E-03 0.  1.
        -12    1    3    3    0    0  0.54115724760E+01 -0.11814977464E+02  0.42225077829E+02  0.44179588124E+02  0.00000000000E+00 0.  1.
</event>
<event>
 7    1  0.2333526E-015  0.9000794E+02  0.7816164E-02  0.1186339E+00
        -11   -1    0    0    0    0  0.00000000000E+00  0.00000000000E+00  0.45593999997E+02  0.45594000000E+02  0.51100000000E-03 0. -1.
         11   -1    0    0    0    0 -0.00000000000E+00 -0.00000000000E+00 -0.45593999997E+02  0.45594000000E+02  0.51100000000E-03 0.  1.
    9900012    2    1    2    0    0 -0.78790335298E-01 -0.71396364409E+00  0.93625933355E+00  0.90007943416E+02  0.90000207469E+02 0.  0.
        -12    1    1    2    0    0  0.78790335298E-01  0.71396364409E+00 -0.93625933355E+00  0.11800565841E+01  0.00000000000E+00 0.  1.
         11    1    3    3    0    0  0.14522532369E+02 -0.33574711864E+02  0.37163489284E+00  0.36582828430E+02  0.51100000000E-03 0. -1.
        -11    1    3    3    0    0 -0.15371935073E+01 -0.90487043267E+01  0.24046674413E+01  0.94881209750E+01  0.51100000000E-03 0.  1.
        -12    1    3    3    0    0 -0.13064129198E+02  0.41909452547E+02 -0.18400430006E+01  0.43936994011E+02  0.00000000000E+00 0.  1.
</event>
<event>
 7    1  0.2294706E-015  0.9000765E+02  0.7816164E-02  0.1186339E+00
        -11   -1    0    0    0    0  0.00000000000E+00  0.00000000000E+00  0.45593999997E+02  0.45594000000E+02  0.51100000000E-03 0.  1.
         11   -1    0    0    0    0 -0.00000000000E+00 -0.00000000000E+00 -0.45593999997E+02  0.45594000000E+02  0.51100000000E-03 0. -1.
    9900012    2    1    2    0    0 -0.42856604911E+00 -0.10320918710E+01 -0.37991130524E+00  0.90007654674E+02  0.89999914916E+02 0.  0.
        -12    1    1    2    0    0  0.42856604911E+00  0.10320918710E+01  0.37991130524E+00  0.11803453259E+01  0.00000000000E+00 0.  1.
         11    1    3    3    0    0  0.97965577579E+01 -0.19272619532E+00  0.89224596268E+00  0.98389933636E+01  0.51100000000E-03 0. -1.
        -11    1    3    3    0    0 -0.50662600271E+00 -0.37018756728E+02 -0.15445826591E+02  0.40115066733E+02  0.51100000000E-03 0.  1.
         12    1    3    3    0    0 -0.97184978043E+01  0.36179391053E+02  0.14173669323E+02  0.40053594578E+02  0.00000000000E+00 0. -1.
</event>
<event>
 7    1  0.2294706E-015  0.9000774E+02  0.7816164E-02  0.1186339E+00
        -11   -1    0    0    0    0  0.00000000000E+00  0.00000000000E+00  0.45593999997E+02  0.45594000000E+02  0.51100000000E-03 0.  1.
         11   -1    0    0    0    0 -0.00000000000E+00 -0.00000000000E+00 -0.45593999997E+02  0.45594000000E+02  0.51100000000E-03 0. -1.
    9900012    2    1    2    0    0 -0.23884225995E+00  0.38798827039E+00 -0.10887795855E+01  0.90007736678E+02  0.89999998002E+02 0.  0.
        -12    1    1    2    0    0  0.23884225995E+00 -0.38798827039E+00  0.10887795855E+01  0.11802633218E+01  0.00000000000E+00 0.  1.
         11    1    3    3    0    0 -0.12006600222E+02 -0.19182905923E+02 -0.29942367369E+02  0.37532488493E+02  0.51100000000E-03 0. -1.
        -11    1    3    3    0    0 -0.73162015865E+01 -0.71802972888E+01  0.30525673740E+01  0.10695870355E+02  0.51100000000E-03 0.  1.
        -12    1    3    3    0    0  0.19083959549E+02  0.26751191482E+02  0.25801020409E+02  0.41779377831E+02  0.00000000000E+00 0.  1.
</event>
<event>
 7    1  0.2294706E-015  0.9000767E+02  0.7816164E-02  0.1186339E+00
        -11   -1    0    0    0    0  0.00000000000E+00  0.00000000000E+00  0.45593999997E+02  0.45594000000E+02  0.51100000000E-03 0. -1.
         11   -1    0    0    0    0 -0.00000000000E+00 -0.00000000000E+00 -0.45593999997E+02  0.45594000000E+02  0.51100000000E-03 0.  1.
    9900012    2    1    2    0    0  0.83985358805E+00 -0.69045619261E+00 -0.45946289080E+00  0.90007665322E+02  0.89999925705E+02 0.  0.
        -12    1    1    2    0    0 -0.83985358805E+00  0.69045619261E+00  0.45946289080E+00  0.11803346777E+01  0.00000000000E+00 0.  1.
         11    1    3    3    0    0 -0.18410875738E+02 -0.32296138669E+02  0.23152988045E+02  0.43795682139E+02  0.51100000000E-03 0. -1.
        -11    1    3    3    0    0  0.42073141806E+00  0.20488127660E+01 -0.72301900960E+01  0.75266392076E+01  0.51100000000E-03 0.  1.
        -12    1    3    3    0    0  0.18829997908E+02  0.29556869710E+02 -0.16382260840E+02  0.38685343976E+02  0.00000000000E+00 0.  1.
</event>
<event>
 7    1  0.2294706E-015  0.9000773E+02  0.7816164E-02  0.1186339E+00
        -11   -1    0    0    0    0  0.00000000000E+00  0.00000000000E+00  0.45593999997E+02  0.45594000000E+02  0.51100000000E-03 0.  1.
         11   -1    0    0    0    0 -0.00000000000E+00 -0.00000000000E+00 -0.45593999997E+02  0.45594000000E+02  0.51100000000E-03 0. -1.
    9900012    2    1    2    0    0 -0.94666788879E+00  0.23563874968E+00  0.66433021894E+00  0.90007728696E+02  0.89999989914E+02 0.  0.
        -12    1    1    2    0    0  0.94666788879E+00 -0.23563874968E+00 -0.66433021894E+00  0.11802713043E+01  0.00000000000E+00 0.  1.
         11    1    3    3    0    0 -0.13937533314E+02  0.29553034203E+02 -0.27540936408E+02  0.42733357508E+02  0.51100000000E-03 0. -1.
        -11    1    3    3    0    0  0.82359787829E+00  0.86020077959E+00  0.98386300890E+01  0.99104440433E+01  0.51100000000E-03 0.  1.
        -12    1    3    3    0    0  0.12167267547E+02 -0.30177596233E+02  0.18366636538E+02  0.37363927144E+02  0.00000000000E+00 0.  1.
</event>
<event>
 7    1  0.2294706E-015  0.9000780E+02  0.7816164E-02  0.1186339E+00
        -11   -1    0    0    0    0  0.00000000000E+00  0.00000000000E+00  0.45593999997E+02  0.45594000000E+02  0.51100000000E-03 0.  1.
         11   -1    0    0    0    0 -0.00000000000E+00 -0.00000000000E+00 -0.45593999997E+02  0.45594000000E+02  0.51100000000E-03 0. -1.
    9900012    2    1    2    0    0  0.59857596345E+00 -0.31594902246E+00 -0.96683130033E+00  0.90007796741E+02  0.90000058858E+02 0.  0.
        -12    1    1    2    0    0 -0.59857596345E+00  0.31594902246E+00  0.96683130033E+00  0.11802032588E+01  0.00000000000E+00 0.  1.
         11    1    3    3    0    0  0.78394869426E+00  0.47744810984E+01 -0.62406259182E+01  0.78965598476E+01  0.51100000000E-03 0. -1.
        -11    1    3    3    0    0  0.38759165039E+02 -0.51111105654E+00 -0.99952383474E+01  0.40030474628E+02  0.51100000000E-03 0.  1.
         12    1    3    3    0    0 -0.38944537770E+02 -0.45793190643E+01  0.15269032965E+02  0.42080762266E+02  0.00000000000E+00 0. -1.
</event>
<event>
 7    1  0.2294706E-015  0.9000776E+02  0.7816164E-02  0.1186339E+00
        -11   -1    0    0    0    0  0.00000000000E+00  0.00000000000E+00  0.45593999997E+02  0.45594000000E+02  0.51100000000E-03 0. -1.
         11   -1    0    0    0    0 -0.00000000000E+00 -0.00000000000E+00 -0.45593999997E+02  0.45594000000E+02  0.51100000000E-03 0.  1.
    9900012    2    1    2    0    0 -0.71189700199E-01 -0.11220106854E+01  0.35915423952E+00  0.90007759466E+02  0.90000021090E+02 0.  0.
        -12    1    1    2    0    0  0.71189700199E-01  0.11220106854E+01 -0.35915423952E+00  0.11802405345E+01  0.00000000000E+00 0.  1.
         11    1    3    3    0    0 -0.36013501209E+02  0.18327057462E+02  0.20110997758E+01  0.40458593983E+02  0.51100000000E-03 0. -1.
        -11    1    3    3    0    0  0.27673726583E+00 -0.40033583163E+01  0.84818975189E+01  0.93832855176E+01  0.51100000000E-03 0.  1.
        -12    1    3    3    0    0  0.35665574243E+02 -0.15445709831E+02 -0.10133843055E+02  0.40165879965E+02  0.00000000000E+00 0.  1.
</event>
<event>
 7    1  0.2294706E-015  0.9000773E+02  0.7816164E-02  0.1186339E+00
        -11   -1    0    0    0    0  0.00000000000E+00  0.00000000000E+00  0.45593999997E+02  0.45594000000E+02  0.51100000000E-03 0.  1.
         11   -1    0    0    0    0 -0.00000000000E+00 -0.00000000000E+00 -0.45593999997E+02  0.45594000000E+02  0.51100000000E-03 0. -1.
    9900012    2    1    2    0    0 -0.11096513249E+01 -0.10489617319E+00  0.38821032933E+00  0.90007730315E+02  0.89999991555E+02 0.  0.
        -12    1    1    2    0    0  0.11096513249E+01  0.10489617319E+00 -0.38821032933E+00  0.11802696852E+01  0.00000000000E+00 0.  1.
         11    1    3    3    0    0  0.17727816182E+02 -0.25586364021E+00  0.27935998489E+02  0.33087171904E+02  0.51100000000E-03 0. -1.
        -11    1    3    3    0    0 -0.52074646479E+01  0.22727847147E+02 -0.14912735006E+02  0.27677832098E+02  0.51100000000E-03 0.  1.
         12    1    3    3    0    0 -0.13630002859E+02 -0.22576879680E+02 -0.12635053153E+02  0.29242726313E+02  0.00000000000E+00 0. -1.
</event>
<event>
 7    1  0.2294706E-015  0.9000772E+02  0.7816164E-02  0.1186339E+00
        -11   -1    0    0    0    0  0.00000000000E+00  0.00000000000E+00  0.45593999997E+02  0.45594000000E+02  0.51100000000E-03 0. -1.
         11   -1    0    0    0    0 -0.00000000000E+00 -0.00000000000E+00 -0.45593999997E+02  0.45594000000E+02  0.51100000000E-03 0.  1.
    9900012    2    1    2    0    0 -0.18129320379E+00  0.42203447938E-01  0.11655112761E+01  0.90007718300E+02  0.89999979381E+02 0.  0.
        -12    1    1    2    0    0  0.18129320379E+00 -0.42203447938E-01 -0.11655112761E+01  0.11802817001E+01  0.00000000000E+00 0.  1.
         11    1    3    3    0    0 -0.43503171673E+01 -0.89322182901E+01  0.18232833696E+01  0.10101195253E+02  0.51100000000E-03 0. -1.
        -11    1    3    3    0    0  0.33422038443E+02  0.55039607142E+01  0.23981604788E+02  0.41502332533E+02  0.51100000000E-03 0.  1.
         12    1    3    3    0    0 -0.29253014480E+02  0.34704610238E+01 -0.24639376881E+02  0.38404190513E+02  0.00000000000E+00 0. -1.
</event>
<event>
 7    1  0.2294706E-015  0.9000776E+02  0.7816164E-02  0.1186339E+00
        -11   -1    0    0    0    0  0.00000000000E+00  0.00000000000E+00  0.45593999997E+02  0.45594000000E+02  0.51100000000E-03 0. -1.
         11   -1    0    0    0    0 -0.00000000000E+00 -0.00000000000E+00 -0.45593999997E+02  0.45594000000E+02  0.51100000000E-03 0.  1.
    9900012    2    1    2    0    0  0.61246309930E+00 -0.71641680049E+00 -0.71034729907E+00  0.90007763852E+02  0.90000025535E+02 0.  0.
        -12    1    1    2    0    0 -0.61246309930E+00  0.71641680049E+00  0.71034729907E+00  0.11802361481E+01  0.00000000000E+00 0.  1.
         11    1    3    3    0    0 -0.32689308425E+02  0.11938032315E+02  0.58018487332E+01  0.35281283279E+02  0.51100000000E-03 0. -1.
        -11    1    3    3    0    0 -0.58391481825E+01  0.57412895089E+01 -0.80061976401E+01  0.11452390914E+02  0.51100000000E-03 0.  1.
        -12    1    3    3    0    0  0.39140919707E+02 -0.18395738624E+02  0.14940016078E+01  0.43274089659E+02  0.00000000000E+00 0.  1.
</event>
<event>
 7    1  0.2294706E-015  0.9000776E+02  0.7816164E-02  0.1186339E+00
        -11   -1    0    0    0    0  0.00000000000E+00  0.00000000000E+00  0.45593999997E+02  0.45594000000E+02  0.51100000000E-03 0. -1.
         11   -1    0    0    0    0 -0.00000000000E+00 -0.00000000000E+00 -0.45593999997E+02  0.45594000000E+02  0.51100000000E-03 0.  1.
    9900012    2    1    2    0    0  0.90636429012E+00  0.58818233639E+00  0.47487803189E+00  0.90007761112E+02  0.90000022759E+02 0.  0.
        -12    1    1    2    0    0 -0.90636429012E+00 -0.58818233639E+00 -0.47487803189E+00  0.11802388879E+01  0.00000000000E+00 0.  1.
         11    1    3    3    0    0  0.74924348941E+01 -0.24333720118E+01  0.42045051565E+01  0.89294873236E+01  0.51100000000E-03 0. -1.
        -11    1    3    3    0    0 -0.64033837453E+00 -0.38222479071E+02 -0.84217963875E+01  0.39144534666E+02  0.51100000000E-03 0.  1.
         12    1    3    3    0    0 -0.59457322294E+01  0.41244033419E+02  0.46921692629E+01  0.41933739123E+02  0.00000000000E+00 0. -1.
</event>
<event>
 7    1  0.2606465E-015  0.9000771E+02  0.7816164E-02  0.1186339E+00
        -11   -1    0    0    0    0  0.00000000000E+00  0.00000000000E+00  0.45593999997E+02  0.45594000000E+02  0.51100000000E-03 0.  1.
         11   -1    0    0    0    0 -0.00000000000E+00 -0.00000000000E+00 -0.45593999997E+02  0.45594000000E+02  0.51100000000E-03 0. -1.
    9900012    2    1    2    0    0  0.74833748471E-01  0.75733335123E+00  0.90218388645E+00  0.90007707807E+02  0.89999968751E+02 0.  0.
        -12    1    1    2    0    0 -0.74833748471E-01 -0.75733335123E+00 -0.90218388645E+00  0.11802921925E+01  0.00000000000E+00 0.  1.
         11    1    3    3    0    0  0.36287717400E+02 -0.15206644831E+02  0.11907751243E+02  0.41107602959E+02  0.51100000000E-03 0. -1.
        -11    1    3    3    0    0 -0.28217109112E+01 -0.50192112438E+01 -0.72884217105E+01  0.92884673260E+01  0.51100000000E-03 0.  1.
        -12    1    3    3    0    0 -0.33391172740E+02  0.20983189426E+02 -0.37171456462E+01  0.39611637522E+02  0.00000000000E+00 0.  1.
</event>
<event>
 7    1  0.2294706E-015  0.9000763E+02  0.7816164E-02  0.1186339E+00
        -11   -1    0    0    0    0  0.00000000000E+00  0.00000000000E+00  0.45593999997E+02  0.45594000000E+02  0.51100000000E-03 0.  1.
         11   -1    0    0    0    0 -0.00000000000E+00 -0.00000000000E+00 -0.45593999997E+02  0.45594000000E+02  0.51100000000E-03 0. -1.
    9900012    2    1    2    0    0  0.22700108435E+00 -0.86461935236E+00 -0.77083423708E+00  0.90007626526E+02  0.89999886396E+02 0.  0.
        -12    1    1    2    0    0 -0.22700108435E+00  0.86461935236E+00  0.77083423708E+00  0.11803734739E+01  0.00000000000E+00 0.  1.
         11    1    3    3    0    0  0.90328249750E+01 -0.20122276100E+02 -0.33930023333E+02  0.40469054920E+02  0.51100000000E-03 0. -1.
        -11    1    3    3    0    0 -0.40720777296E+01  0.10245150765E+02 -0.34407946308E+01  0.11549199071E+02  0.51100000000E-03 0.  1.
        -12    1    3    3    0    0 -0.47337461610E+01  0.90125059829E+01  0.36599983727E+02  0.37989372535E+02  0.00000000000E+00 0.  1.
</event>
<event>
 7    1  0.2294706E-015  0.9000773E+02  0.7816164E-02  0.1186339E+00
        -11   -1    0    0    0    0  0.00000000000E+00  0.00000000000E+00  0.45593999997E+02  0.45594000000E+02  0.51100000000E-03 0.  1.
         11   -1    0    0    0    0 -0.00000000000E+00 -0.00000000000E+00 -0.45593999997E+02  0.45594000000E+02  0.51100000000E-03 0. -1.
    9900012    2    1    2    0    0  0.16584218872E+00 -0.11678180260E+01 -0.41695311126E-01  0.90007728390E+02  0.89999989605E+02 0.  0.
        -12    1    1    2    0    0 -0.16584218872E+00  0.11678180260E+01  0.41695311126E-01  0.11802716095E+01  0.00000000000E+00 0.  1.
         11    1    3    3    0    0  0.35093151263E+02 -0.46091403500E+01  0.37744555084E+01  0.35595223767E+02  0.51100000000E-03 0. -1.
        -11    1    3    3    0    0  0.94638783347E+01  0.12249982484E+01  0.14603302401E+01  0.96539203702E+01  0.51100000000E-03 0.  1.
        -12    1    3    3    0    0 -0.44391187409E+02  0.22163240756E+01 -0.52764810596E+01  0.44758584254E+02  0.00000000000E+00 0.  1.
</event>
<event>
 7    1  0.2294706E-015  0.9000772E+02  0.7816164E-02  0.1186339E+00
        -11   -1    0    0    0    0  0.00000000000E+00  0.00000000000E+00  0.45593999997E+02  0.45594000000E+02  0.51100000000E-03 0.  1.
         11   -1    0    0    0    0 -0.00000000000E+00 -0.00000000000E+00 -0.45593999997E+02  0.45594000000E+02  0.51100000000E-03 0. -1.
    9900012    2    1    2    0    0 -0.95045279994E+00  0.32515254876E+00 -0.61966669784E+00  0.90007715491E+02  0.89999976536E+02 0.  0.
        -12    1    1    2    0    0  0.95045279994E+00 -0.32515254876E+00  0.61966669784E+00  0.11802845086E+01  0.00000000000E+00 0.  1.
         11    1    3    3    0    0 -0.22262892851E+02  0.23688065664E+00 -0.10796466406E+01  0.22290315109E+02  0.51100000000E-03 0. -1.
        -11    1    3    3    0    0  0.40696588593E+02 -0.14593604750E+02 -0.19743568876E+01  0.43279137100E+02  0.51100000000E-03 0.  1.
         12    1    3    3    0    0 -0.19384148542E+02  0.14681876642E+02  0.24343368303E+01  0.24438263282E+02  0.00000000000E+00 0. -1.
</event>
<event>
 7    1  0.2294706E-015  0.9000667E+02  0.7816164E-02  0.1186341E+00
        -11   -1    0    0    0    0  0.00000000000E+00  0.00000000000E+00  0.45593999997E+02  0.45594000000E+02  0.51100000000E-03 0. -1.
         11   -1    0    0    0    0 -0.00000000000E+00 -0.00000000000E+00 -0.45593999997E+02  0.45594000000E+02  0.51100000000E-03 0.  1.
    9900012    2    1    2    0    0 -0.28608987786E+00 -0.10480077191E+01 -0.46409075669E+00  0.90006666928E+02  0.89998914124E+02 0.  0.
        -12    1    1    2    0    0  0.28608987786E+00  0.10480077191E+01  0.46409075669E+00  0.11813330724E+01  0.00000000000E+00 0.  1.
         11    1    3    3    0    0  0.73733259513E+01  0.71833265818E+01 -0.31248738888E+00  0.10298726377E+02  0.51100000000E-03 0. -1.
        -11    1    3    3    0    0  0.15093942024E+02 -0.37945240413E+02 -0.76281220540E+01  0.41543430313E+02  0.51100000000E-03 0.  1.
         12    1    3    3    0    0 -0.22753357853E+02  0.29713906112E+02  0.74765186861E+01  0.38164510238E+02  0.00000000000E+00 0. -1.
</event>
<event>
 7    1  0.2294706E-015  0.9000774E+02  0.7816164E-02  0.1186339E+00
        -11   -1    0    0    0    0  0.00000000000E+00  0.00000000000E+00  0.45593999997E+02  0.45594000000E+02  0.51100000000E-03 0.  1.
         11   -1    0    0    0    0 -0.00000000000E+00 -0.00000000000E+00 -0.45593999997E+02  0.45594000000E+02  0.51100000000E-03 0. -1.
    9900012    2    1    2    0    0  0.73874970033E+00 -0.10179749067E+00 -0.91481703207E+00  0.90007744074E+02  0.90000005496E+02 0.  0.
        -12    1    1    2    0    0 -0.73874970033E+00  0.10179749067E+00  0.91481703207E+00  0.11802559261E+01  0.00000000000E+00 0.  1.
         11    1    3    3    0    0 -0.17288495913E+01  0.76241061624E+01 -0.83194705564E+01  0.11416194913E+02  0.51100000000E-03 0. -1.
        -11    1    3    3    0    0 -0.25922272696E+02  0.17122958834E+02 -0.15224499471E+02  0.34596897626E+02  0.51100000000E-03 0.  1.
         12    1    3    3    0    0  0.28389871988E+02 -0.24848862487E+02  0.22629152995E+02  0.43994651535E+02  0.00000000000E+00 0. -1.
</event>
<event>
 7    1  0.2294706E-015  0.9000767E+02  0.7816164E-02  0.1186339E+00
        -11   -1    0    0    0    0  0.00000000000E+00  0.00000000000E+00  0.45593999997E+02  0.45594000000E+02  0.51100000000E-03 0.  1.
         11   -1    0    0    0    0 -0.00000000000E+00 -0.00000000000E+00 -0.45593999997E+02  0.45594000000E+02  0.51100000000E-03 0. -1.
    9900012    2    1    2    0    0 -0.58690819299E+00  0.82662652384E+00 -0.60448064140E+00  0.90007673993E+02  0.89999934490E+02 0.  0.
        -12    1    1    2    0    0  0.58690819299E+00 -0.82662652384E+00  0.60448064140E+00  0.11803260070E+01  0.00000000000E+00 0.  1.
         11    1    3    3    0    0 -0.25486659582E+02  0.33120377310E+01 -0.23672582140E+02  0.34941816725E+02  0.51100000000E-03 0. -1.
        -11    1    3    3    0    0 -0.27702992865E+01 -0.14166508542E+02 -0.36257767345E+01  0.14883238209E+02  0.51100000000E-03 0.  1.
        -12    1    3    3    0    0  0.27670050676E+02  0.11681097335E+02  0.26693878233E+02  0.40182619059E+02  0.00000000000E+00 0.  1.
</event>
<event>
 7    1  0.2294706E-015  0.9000767E+02  0.7816164E-02  0.1186339E+00
        -11   -1    0    0    0    0  0.00000000000E+00  0.00000000000E+00  0.45593999997E+02  0.45594000000E+02  0.51100000000E-03 0.  1.
         11   -1    0    0    0    0 -0.00000000000E+00 -0.00000000000E+00 -0.45593999997E+02  0.45594000000E+02  0.51100000000E-03 0. -1.
    9900012    2    1    2    0    0  0.88835339053E+00 -0.57407181869E+00 -0.52388705075E+00  0.90007666216E+02  0.89999926610E+02 0.  0.
        -12    1    1    2    0    0 -0.88835339053E+00  0.57407181869E+00  0.52388705075E+00  0.11803337839E+01  0.00000000000E+00 0.  1.
         11    1    3    3    0    0  0.13923517832E+02  0.28867206011E+02  0.96288125291E+01  0.33464816789E+02  0.51100000000E-03 0. -1.
        -11    1    3    3    0    0 -0.50036654112E+01  0.91538117334E+01  0.79959798366E+01  0.13143995991E+02  0.51100000000E-03 0.  1.
        -12    1    3    3    0    0 -0.80314990303E+01 -0.38595089563E+02 -0.18148679416E+02  0.43398853437E+02  0.00000000000E+00 0.  1.
</event>
<event>
 7    1  0.2294706E-015  0.9000846E+02  0.7816164E-02  0.1186338E+00
        -11   -1    0    0    0    0  0.00000000000E+00  0.00000000000E+00  0.45593999997E+02  0.45594000000E+02  0.51100000000E-03 0. -1.
         11   -1    0    0    0    0 -0.00000000000E+00 -0.00000000000E+00 -0.45593999997E+02  0.45594000000E+02  0.51100000000E-03 0.  1.
    9900012    2    1    2    0    0  0.10651124462E+01  0.30772166101E+00  0.40267705036E+00  0.90008463671E+02  0.90000734589E+02 0.  0.
        -12    1    1    2    0    0 -0.10651124462E+01 -0.30772166101E+00 -0.40267705036E+00  0.11795363286E+01  0.00000000000E+00 0.  1.
         11    1    3    3    0    0  0.38777551975E+02 -0.14174062812E+01  0.11664564351E+02  0.40518756638E+02  0.51100000000E-03 0. -1.
        -11    1    3    3    0    0 -0.37394144671E+01  0.19694247087E+01  0.89926625052E+01  0.99362887153E+01  0.51100000000E-03 0.  1.
        -12    1    3    3    0    0 -0.33973025062E+02 -0.24429676647E+00 -0.20254549806E+02  0.39553418318E+02  0.00000000000E+00 0.  1.
</event>
<event>
 7    1  0.2294706E-015  0.9000788E+02  0.7816164E-02  0.1186339E+00
        -11   -1    0    0    0    0  0.00000000000E+00  0.00000000000E+00  0.45593999997E+02  0.45594000000E+02  0.51100000000E-03 0.  1.
         11   -1    0    0    0    0 -0.00000000000E+00 -0.00000000000E+00 -0.45593999997E+02  0.45594000000E+02  0.51100000000E-03 0. -1.
    9900012    2    1    2    0    0  0.33494460625E+00 -0.43205853757E+00 -0.10458637815E+01  0.90007875634E+02  0.90000138793E+02 0.  0.
        -12    1    1    2    0    0 -0.33494460625E+00  0.43205853757E+00  0.10458637815E+01  0.11801243657E+01  0.00000000000E+00 0.  1.
         11    1    3    3    0    0 -0.75343323797E+01  0.22234823550E+02 -0.27911667452E+02  0.36472108836E+02  0.51100000000E-03 0. -1.
        -11    1    3    3    0    0 -0.82643131196E+01  0.40121681561E+00 -0.60309884158E+01  0.10238782535E+02  0.51100000000E-03 0.  1.
        -12    1    3    3    0    0  0.16133590106E+02 -0.23068098903E+02  0.32896792087E+02  0.43296984263E+02  0.00000000000E+00 0.  1.
</event>
<event>
 7    1  0.2294706E-015  0.9000776E+02  0.7816164E-02  0.1186339E+00
        -11   -1    0    0    0    0  0.00000000000E+00  0.00000000000E+00  0.45593999997E+02  0.45594000000E+02  0.51100000000E-03 0.  1.
         11   -1    0    0    0    0 -0.00000000000E+00 -0.00000000000E+00 -0.45593999997E+02  0.45594000000E+02  0.51100000000E-03 0. -1.
    9900012    2    1    2    0    0 -0.86170373428E-01 -0.41995522043E+00 -0.10996222400E+01  0.90007764095E+02  0.90000025781E+02 0.  0.
        -12    1    1    2    0    0  0.86170373428E-01  0.41995522043E+00  0.10996222400E+01  0.11802359049E+01  0.00000000000E+00 0.  1.
         11    1    3    3    0    0  0.65559033550E+01  0.35090052997E+01 -0.22281023755E+01  0.77625657775E+01  0.51100000000E-03 0. -1.
        -11    1    3    3    0    0  0.24811374077E+02 -0.13864905251E+02  0.27851142732E+02  0.39793542604E+02  0.51100000000E-03 0.  1.
         12    1    3    3    0    0 -0.31453447806E+02  0.99359447312E+01 -0.26722662597E+02  0.42451655714E+02  0.00000000000E+00 0. -1.
</event>
<event>
 7    1  0.2294706E-015  0.9000764E+02  0.7816164E-02  0.1186339E+00
        -11   -1    0    0    0    0  0.00000000000E+00  0.00000000000E+00  0.45593999997E+02  0.45594000000E+02  0.51100000000E-03 0.  1.
         11   -1    0    0    0    0 -0.00000000000E+00 -0.00000000000E+00 -0.45593999997E+02  0.45594000000E+02  0.51100000000E-03 0. -1.
    9900012    2    1    2    0    0  0.34022625008E+00 -0.11277336950E+01  0.75529675420E-01  0.90007643308E+02  0.89999903400E+02 0.  0.
        -12    1    1    2    0    0 -0.34022625008E+00  0.11277336950E+01 -0.75529675420E-01  0.11803566918E+01  0.00000000000E+00 0.  1.
         11    1    3    3    0    0  0.34967502080E+01  0.81985986266E+01  0.31740294185E+01  0.94614345883E+01  0.51100000000E-03 0. -1.
        -11    1    3    3    0    0 -0.86473873141E+01  0.30194342031E+02  0.17167870091E+02  0.35794012931E+02  0.51100000000E-03 0.  1.
         12    1    3    3    0    0  0.54908633562E+01 -0.39520674352E+02 -0.20266369834E+02  0.44752195788E+02  0.00000000000E+00 0. -1.
</event>
<event>
 7    1  0.2294706E-015  0.9000792E+02  0.7816164E-02  0.1186339E+00
        -11   -1    0    0    0    0  0.00000000000E+00  0.00000000000E+00  0.45593999997E+02  0.45594000000E+02  0.51100000000E-03 0. -1.
         11   -1    0    0    0    0 -0.00000000000E+00 -0.00000000000E+00 -0.45593999997E+02  0.45594000000E+02  0.51100000000E-03 0.  1.
    9900012    2    1    2    0    0 -0.69572223536E+00  0.76762754636E+00  0.56506326946E+00  0.90007924588E+02  0.90000188393E+02 0.  0.
        -12    1    1    2    0    0  0.69572223536E+00 -0.76762754636E+00 -0.56506326946E+00  0.11800754117E+01  0.00000000000E+00 0.  1.
         11    1    3    3    0    0 -0.94475489826E+00  0.17327858932E+02  0.63757960775E+01  0.18487780636E+02  0.51100000000E-03 0. -1.
        -11    1    3    3    0    0 -0.27648506149E+01  0.23137977959E+02 -0.18479534178E+02  0.29740605351E+02  0.51100000000E-03 0.  1.
         12    1    3    3    0    0  0.30138832778E+01 -0.39698209344E+02  0.12668801370E+02  0.41779538601E+02  0.00000000000E+00 0. -1.
</event>
<event>
 7    1  0.2294706E-015  0.9000773E+02  0.7816164E-02  0.1186339E+00
        -11   -1    0    0    0    0  0.00000000000E+00  0.00000000000E+00  0.45593999997E+02  0.45594000000E+02  0.51100000000E-03 0.  1.
         11   -1    0    0    0    0 -0.00000000000E+00 -0.00000000000E+00 -0.45593999997E+02  0.45594000000E+02  0.51100000000E-03 0. -1.
    9900012    2    1    2    0    0 -0.86000706234E+00 -0.51287381150E+00  0.62481207567E+00  0.90007728072E+02  0.89999989283E+02 0.  0.
        -12    1    1    2    0    0  0.86000706234E+00  0.51287381150E+00 -0.62481207567E+00  0.11802719279E+01  0.00000000000E+00 0.  1.
         11    1    3    3    0    0  0.31331288374E+02  0.12633743993E+02 -0.12104631820E+02  0.35885696736E+02  0.51100000000E-03 0. -1.
        -11    1    3    3    0    0  0.61538156872E+01  0.69677001508E+01  0.19113842873E+01  0.94906102574E+01  0.51100000000E-03 0.  1.
        -12    1    3    3    0    0 -0.38345111123E+02 -0.20114317955E+02  0.10818059608E+02  0.44631421079E+02  0.00000000000E+00 0.  1.
</event>
<event>
 7    1  0.2294706E-015  0.9000787E+02  0.7816164E-02  0.1186339E+00
        -11   -1    0    0    0    0  0.00000000000E+00  0.00000000000E+00  0.45593999997E+02  0.45594000000E+02  0.51100000000E-03 0. -1.
         11   -1    0    0    0    0 -0.00000000000E+00 -0.00000000000E+00 -0.45593999997E+02  0.45594000000E+02  0.51100000000E-03 0.  1.
    9900012    2    1    2    0    0 -0.88443477925E+00 -0.77374762622E+00 -0.10857300509E+00  0.90007873581E+02  0.90000136712E+02 0.  0.
        -12    1    1    2    0    0  0.88443477925E+00  0.77374762622E+00  0.10857300509E+00  0.11801264192E+01  0.00000000000E+00 0.  1.
         11    1    3    3    0    0  0.11303386533E+02  0.74020821058E+01  0.34687780375E+02  0.37226327703E+02  0.51100000000E-03 0. -1.
        -11    1    3    3    0    0  0.67315685198E+01  0.33938317081E+01  0.36668110519E+01  0.83831743362E+01  0.51100000000E-03 0.  1.
        -12    1    3    3    0    0 -0.18919389832E+02 -0.11569661440E+02 -0.38463164432E+02  0.44398371542E+02  0.00000000000E+00 0.  1.
</event>
<event>
 7    1  0.2294706E-015  0.9000769E+02  0.7816164E-02  0.1186339E+00
        -11   -1    0    0    0    0  0.00000000000E+00  0.00000000000E+00  0.45593999997E+02  0.45594000000E+02  0.51100000000E-03 0. -1.
         11   -1    0    0    0    0 -0.00000000000E+00 -0.00000000000E+00 -0.45593999997E+02  0.45594000000E+02  0.51100000000E-03 0.  1.
    9900012    2    1    2    0    0  0.76220412558E+00  0.66785978860E+00  0.60509532428E+00  0.90007689796E+02  0.89999950501E+02 0.  0.
        -12    1    1    2    0    0 -0.76220412558E+00 -0.66785978860E+00 -0.60509532428E+00  0.11803102040E+01  0.00000000000E+00 0.  1.
         11    1    3    3    0    0 -0.12256636112E+00  0.75211618525E+01 -0.63613722308E+01  0.98513935584E+01  0.51100000000E-03 0. -1.
        -11    1    3    3    0    0  0.11727302736E+02 -0.47694751098E+01 -0.34760044251E+02  0.36993758918E+02  0.51100000000E-03 0.  1.
         12    1    3    3    0    0 -0.10842532249E+02 -0.20838269540E+01  0.41726511806E+02  0.43162537320E+02  0.00000000000E+00 0. -1.
</event>
<event>
 7    1  0.2294706E-015  0.9000755E+02  0.7816164E-02  0.1186339E+00
        -11   -1    0    0    0    0  0.00000000000E+00  0.00000000000E+00  0.45593999997E+02  0.45594000000E+02  0.51100000000E-03 0.  1.
         11   -1    0    0    0    0 -0.00000000000E+00 -0.00000000000E+00 -0.45593999997E+02  0.45594000000E+02  0.51100000000E-03 0. -1.
    9900012    2    1    2    0    0 -0.93383182459E+00 -0.31044684079E+00 -0.65194533180E+00  0.90007554392E+02  0.89999813310E+02 0.  0.
        -12    1    1    2    0    0  0.93383182459E+00  0.31044684079E+00  0.65194533180E+00  0.11804456079E+01  0.00000000000E+00 0.  1.
         11    1    3    3    0    0  0.75292351181E+01  0.19408251098E+01  0.40931534950E+01  0.87869271856E+01  0.51100000000E-03 0. -1.
        -11    1    3    3    0    0  0.60161136229E+01  0.36775947247E+02  0.71139669656E+01  0.37937744336E+02  0.51100000000E-03 0.  1.
         12    1    3    3    0    0 -0.14479180566E+02 -0.39027219197E+02 -0.11859065792E+02  0.43282882871E+02  0.00000000000E+00 0. -1.
</event>
<event>
 7    1  0.2294706E-015  0.9000723E+02  0.7816164E-02  0.1186340E+00
        -11   -1    0    0    0    0  0.00000000000E+00  0.00000000000E+00  0.45593999997E+02  0.45594000000E+02  0.51100000000E-03 0.  1.
         11   -1    0    0    0    0 -0.00000000000E+00 -0.00000000000E+00 -0.45593999997E+02  0.45594000000E+02  0.51100000000E-03 0. -1.
    9900012    2    1    2    0    0 -0.43901080982E+00 -0.19610257048E+00 -0.10784419059E+01  0.90007227518E+02  0.89999482120E+02 0.  0.
        -12    1    1    2    0    0  0.43901080982E+00  0.19610257048E+00  0.10784419059E+01  0.11807724817E+01  0.00000000000E+00 0.  1.
         11    1    3    3    0    0 -0.60701835832E+01 -0.39502265947E+02  0.39676763368E+01  0.40162402810E+02  0.51100000000E-03 0. -1.
        -11    1    3    3    0    0 -0.21255279675E+01 -0.36451442535E+00 -0.89768602520E+01  0.92322673354E+01  0.51100000000E-03 0.  1.
        -12    1    3    3    0    0  0.77567007408E+01  0.39670677802E+02  0.39307420094E+01  0.40612557373E+02  0.00000000000E+00 0.  1.
</event>
<event>
 7    1  0.2294706E-015  0.9000773E+02  0.7816164E-02  0.1186339E+00
        -11   -1    0    0    0    0  0.00000000000E+00  0.00000000000E+00  0.45593999997E+02  0.45594000000E+02  0.51100000000E-03 0. -1.
         11   -1    0    0    0    0 -0.00000000000E+00 -0.00000000000E+00 -0.45593999997E+02  0.45594000000E+02  0.51100000000E-03 0.  1.
    9900012    2    1    2    0    0 -0.60507497833E+00 -0.50222025887E-01  0.10121276624E+01  0.90007728681E+02  0.89999989900E+02 0.  0.
        -12    1    1    2    0    0  0.60507497833E+00  0.50222025887E-01 -0.10121276624E+01  0.11802713190E+01  0.00000000000E+00 0.  1.
         11    1    3    3    0    0  0.87105706674E+01 -0.31952846812E+01  0.38078695638E+01  0.10029145349E+02  0.51100000000E-03 0. -1.
        -11    1    3    3    0    0  0.14164441033E+02 -0.19437486497E+02  0.26768561159E+02  0.35986152029E+02  0.51100000000E-03 0.  1.
         12    1    3    3    0    0 -0.23480086678E+02  0.22582549152E+02 -0.29564303060E+02  0.43992431304E+02  0.00000000000E+00 0. -1.
</event>
<event>
 7    1  0.2294706E-015  0.9000777E+02  0.7816164E-02  0.1186339E+00
        -11   -1    0    0    0    0  0.00000000000E+00  0.00000000000E+00  0.45593999997E+02  0.45594000000E+02  0.51100000000E-03 0. -1.
         11   -1    0    0    0    0 -0.00000000000E+00 -0.00000000000E+00 -0.45593999997E+02  0.45594000000E+02  0.51100000000E-03 0.  1.
    9900012    2    1    2    0    0  0.60570526815E+00 -0.10040307593E+01 -0.13409921382E+00  0.90007771532E+02  0.90000033316E+02 0.  0.
        -12    1    1    2    0    0 -0.60570526815E+00  0.10040307593E+01  0.13409921382E+00  0.11802284679E+01  0.00000000000E+00 0.  1.
         11    1    3    3    0    0  0.36080288579E-01  0.17960032969E+02  0.36255080546E+02  0.40459794262E+02  0.51100000000E-03 0. -1.
        -11    1    3    3    0    0  0.55704108425E+01  0.55339375917E+01 -0.45863925707E+01  0.90933458802E+01  0.51100000000E-03 0.  1.
        -12    1    3    3    0    0 -0.50007858630E+01 -0.24498001320E+02 -0.31802787189E+02  0.40454631390E+02  0.00000000000E+00 0.  1.
</event>
<event>
 7    1  0.2294706E-015  0.9000772E+02  0.7816164E-02  0.1186339E+00
        -11   -1    0    0    0    0  0.00000000000E+00  0.00000000000E+00  0.45593999997E+02  0.45594000000E+02  0.51100000000E-03 0. -1.
         11   -1    0    0    0    0 -0.00000000000E+00 -0.00000000000E+00 -0.45593999997E+02  0.45594000000E+02  0.51100000000E-03 0.  1.
    9900012    2    1    2    0    0  0.10139986932E+01  0.18303940864E+00  0.57563359018E+00  0.90007724267E+02  0.89999985428E+02 0.  0.
        -12    1    1    2    0    0 -0.10139986932E+01 -0.18303940864E+00 -0.57563359018E+00  0.11802757326E+01  0.00000000000E+00 0.  1.
         11    1    3    3    0    0 -0.20555101545E+01  0.74565988982E+01  0.19545644776E+01  0.79778638546E+01  0.51100000000E-03 0. -1.
        -11    1    3    3    0    0  0.41946925907E+02 -0.41405154792E+00 -0.56242842264E+01  0.42324326398E+02  0.51100000000E-03 0.  1.
         12    1    3    3    0    0 -0.38877417059E+02 -0.68595079417E+01  0.42453533390E+01  0.39705534015E+02  0.00000000000E+00 0. -1.
</event>
<event>
 7    1  0.2294706E-015  0.9000777E+02  0.7816164E-02  0.1186339E+00
        -11   -1    0    0    0    0  0.00000000000E+00  0.00000000000E+00  0.45593999997E+02  0.45594000000E+02  0.51100000000E-03 0. -1.
         11   -1    0    0    0    0 -0.00000000000E+00 -0.00000000000E+00 -0.45593999997E+02  0.45594000000E+02  0.51100000000E-03 0.  1.
    9900012    2    1    2    0    0  0.34690966710E-01  0.11031701121E+01  0.41804703054E+00  0.90007766515E+02  0.90000028233E+02 0.  0.
        -12    1    1    2    0    0 -0.34690966710E-01 -0.11031701121E+01 -0.41804703054E+00  0.11802334850E+01  0.00000000000E+00 0.  1.
         11    1    3    3    0    0  0.68456340202E+01  0.17622392885E+01  0.60872845533E+01  0.93286240112E+01  0.51100000000E-03 0. -1.
        -11    1    3    3    0    0  0.11476964400E+02 -0.18945841259E+02 -0.35096643741E+02  0.41502289274E+02  0.51100000000E-03 0.  1.
         12    1    3    3    0    0 -0.18287907453E+02  0.18286772083E+02  0.29427406219E+02  0.39176853230E+02  0.00000000000E+00 0. -1.
</event>
<event>
 7    1  0.2294706E-015  0.9000790E+02  0.7816164E-02  0.1186339E+00
        -11   -1    0    0    0    0  0.00000000000E+00  0.00000000000E+00  0.45593999997E+02  0.45594000000E+02  0.51100000000E-03 0.  1.
         11   -1    0    0    0    0 -0.00000000000E+00 -0.00000000000E+00 -0.45593999997E+02  0.45594000000E+02  0.51100000000E-03 0. -1.
    9900012    2    1    2    0    0  0.62558550760E+00  0.99300557976E+00  0.12338756659E+00  0.90007897547E+02  0.90000160994E+02 0.  0.
        -12    1    1    2    0    0 -0.62558550760E+00 -0.99300557976E+00 -0.12338756659E+00  0.11801024533E+01  0.00000000000E+00 0.  1.
         11    1    3    3    0    0 -0.16980722289E+02  0.21885804652E+02  0.26000326233E+02  0.37991450870E+02  0.51100000000E-03 0. -1.
        -11    1    3    3    0    0 -0.47502591908E+01  0.41116172414E+01  0.37050018710E+01  0.72936546288E+01  0.51100000000E-03 0.  1.
        -12    1    3    3    0    0  0.22356566988E+02 -0.25004416314E+02 -0.29581940537E+02  0.44722792048E+02  0.00000000000E+00 0.  1.
</event>
<event>
 7    1  0.2294706E-015  0.9000778E+02  0.7816164E-02  0.1186339E+00
        -11   -1    0    0    0    0  0.00000000000E+00  0.00000000000E+00  0.45593999997E+02  0.45594000000E+02  0.51100000000E-03 0.  1.
         11   -1    0    0    0    0 -0.00000000000E+00 -0.00000000000E+00 -0.45593999997E+02  0.45594000000E+02  0.51100000000E-03 0. -1.
    9900012    2    1    2    0    0  0.11064542686E+01  0.23971565006E+00  0.33348792543E+00  0.90007780174E+02  0.90000042072E+02 0.  0.
        -12    1    1    2    0    0 -0.11064542686E+01 -0.23971565006E+00 -0.33348792543E+00  0.11802198261E+01  0.00000000000E+00 0.  1.
         11    1    3    3    0    0 -0.10053547522E+02 -0.17154693701E+01  0.22118893949E+01  0.10435952659E+02  0.51100000000E-03 0. -1.
        -11    1    3    3    0    0  0.76219328286E+01 -0.36915854974E+02 -0.11428222620E+02  0.39388811622E+02  0.51100000000E-03 0.  1.
         12    1    3    3    0    0  0.35380689624E+01  0.38871039994E+02  0.95498211506E+01  0.40183015893E+02  0.00000000000E+00 0. -1.
</event>
<event>
 7    1  0.2294706E-015  0.9000773E+02  0.7816164E-02  0.1186339E+00
        -11   -1    0    0    0    0  0.00000000000E+00  0.00000000000E+00  0.45593999997E+02  0.45594000000E+02  0.51100000000E-03 0. -1.
         11   -1    0    0    0    0 -0.00000000000E+00 -0.00000000000E+00 -0.45593999997E+02  0.45594000000E+02  0.51100000000E-03 0.  1.
    9900012    2    1    2    0    0 -0.29505831694E+00 -0.14550805441E+00  0.11334929119E+01  0.90007729613E+02  0.89999990844E+02 0.  0.
        -12    1    1    2    0    0  0.29505831694E+00  0.14550805441E+00 -0.11334929119E+01  0.11802703866E+01  0.00000000000E+00 0.  1.
         11    1    3    3    0    0  0.20024138875E+00  0.28387335855E+01 -0.95602490097E+01  0.99748115959E+01  0.51100000000E-03 0. -1.
        -11    1    3    3    0    0  0.17227447980E+02  0.25560421319E+02 -0.18133323666E+02  0.35762236078E+02  0.51100000000E-03 0.  1.
         12    1    3    3    0    0 -0.17722747686E+02 -0.28544662959E+02  0.28827065587E+02  0.44270681939E+02  0.00000000000E+00 0. -1.
</event>
<event>
 7    1  0.2294706E-015  0.9000748E+02  0.7816164E-02  0.1186340E+00
        -11   -1    0    0    0    0  0.00000000000E+00  0.00000000000E+00  0.45593999997E+02  0.45594000000E+02  0.51100000000E-03 0. -1.
         11   -1    0    0    0    0 -0.00000000000E+00 -0.00000000000E+00 -0.45593999997E+02  0.45594000000E+02  0.51100000000E-03 0.  1.
    9900012    2    1    2    0    0  0.23780163905E-01  0.45896959754E+00  0.10873833767E+01  0.90007482658E+02  0.89999740628E+02 0.  0.
        -12    1    1    2    0    0 -0.23780163905E-01 -0.45896959754E+00 -0.10873833767E+01  0.11805173423E+01  0.00000000000E+00 0.  1.
         11    1    3    3    0    0  0.32704607796E+02 -0.15287523747E+02 -0.20020942278E+02  0.41281204966E+02  0.51100000000E-03 0. -1.
        -11    1    3    3    0    0 -0.80159731431E+01  0.24136326097E+01 -0.55450473990E+01  0.10041364386E+02  0.51100000000E-03 0.  1.
        -12    1    3    3    0    0 -0.24664854489E+02  0.13332860735E+02  0.26653373054E+02  0.38684913306E+02  0.00000000000E+00 0.  1.
</event>
<event>
 7    1  0.2294706E-015  0.9000788E+02  0.7816164E-02  0.1186339E+00
        -11   -1    0    0    0    0  0.00000000000E+00  0.00000000000E+00  0.45593999997E+02  0.45594000000E+02  0.51100000000E-03 0. -1.
         11   -1    0    0    0    0 -0.00000000000E+00 -0.00000000000E+00 -0.45593999997E+02  0.45594000000E+02  0.51100000000E-03 0.  1.
    9900012    2    1    2    0    0 -0.67204937018E+00  0.86391774478E+00  0.44121294385E+00  0.90007884291E+02  0.90000147563E+02 0.  0.
        -12    1    1    2    0    0  0.67204937018E+00 -0.86391774478E+00 -0.44121294385E+00  0.11801157094E+01  0.00000000000E+00 0.  1.
         11    1    3    3    0    0  0.51474327056E+01  0.55686098368E+01 -0.64375957174E+01  0.99472668535E+01  0.51100000000E-03 0. -1.
        -11    1    3    3    0    0  0.20769872816E+02 -0.64806520670E+01 -0.28445102860E+02  0.35812153593E+02  0.51100000000E-03 0.  1.
         12    1    3    3    0    0 -0.26589354892E+02  0.17759599750E+01  0.35323911521E+02  0.44248463844E+02  0.00000000000E+00 0. -1.
</event>
<event>
 7    1  0.2294706E-015  0.9000768E+02  0.7816164E-02  0.1186339E+00
        -11   -1    0    0    0    0  0.00000000000E+00  0.00000000000E+00  0.45593999997E+02  0.45594000000E+02  0.51100000000E-03 0.  1.
         11   -1    0    0    0    0 -0.00000000000E+00 -0.00000000000E+00 -0.45593999997E+02  0.45594000000E+02  0.51100000000E-03 0. -1.
    9900012    2    1    2    0    0 -0.61852250495E+00  0.97497946817E+00 -0.24492701264E+00  0.90007684663E+02  0.89999945301E+02 0.  0.
        -12    1    1    2    0    0  0.61852250495E+00 -0.97497946817E+00  0.24492701264E+00  0.11803153367E+01  0.00000000000E+00 0.  1.
         11    1    3    3    0    0  0.79067007394E+01  0.32479023750E+02 -0.23185464004E+02  0.40681305802E+02  0.51100000000E-03 0. -1.
        -11    1    3    3    0    0 -0.28025819846E+01 -0.58217663249E+01 -0.69602197894E+01  0.94969515477E+01  0.51100000000E-03 0.  1.
        -12    1    3    3    0    0 -0.57226412598E+01 -0.25682277957E+02  0.29900756781E+02  0.39829427314E+02  0.00000000000E+00 0.  1.
</event>
<event>
 7    1  0.2294706E-015  0.9000768E+02  0.7816164E-02  0.1186339E+00
        -11   -1    0    0    0    0  0.00000000000E+00  0.00000000000E+00  0.45593999997E+02  0.45594000000E+02  0.51100000000E-03 0.  1.
         11   -1    0    0    0    0 -0.00000000000E+00 -0.00000000000E+00 -0.45593999997E+02  0.45594000000E+02  0.51100000000E-03 0. -1.
    9900012    2    1    2    0    0  0.10502077695E+01  0.52097623958E+00 -0.13711389531E+00  0.90007681051E+02  0.89999941641E+02 0.  0.
        -12    1    1    2    0    0 -0.10502077695E+01 -0.52097623958E+00  0.13711389531E+00  0.11803189491E+01  0.00000000000E+00 0.  1.
         11    1    3    3    0    0  0.45252312894E+01 -0.59493156765E+01  0.13910910053E+02  0.15791943959E+02  0.51100000000E-03 0. -1.
        -11    1    3    3    0    0 -0.12700900472E+01 -0.31994278374E+02  0.28482841935E+01  0.32145912656E+02  0.51100000000E-03 0.  1.
         12    1    3    3    0    0 -0.22049334727E+01  0.38464570290E+02 -0.16896308142E+02  0.42069824435E+02  0.00000000000E+00 0. -1.
</event>
<event>
 7    1  0.2294706E-015  0.9000773E+02  0.7816164E-02  0.1186339E+00
        -11   -1    0    0    0    0  0.00000000000E+00  0.00000000000E+00  0.45593999997E+02  0.45594000000E+02  0.51100000000E-03 0.  1.
         11   -1    0    0    0    0 -0.00000000000E+00 -0.00000000000E+00 -0.45593999997E+02  0.45594000000E+02  0.51100000000E-03 0. -1.
    9900012    2    1    2    0    0 -0.92067728981E+00  0.57794990583E+00 -0.45973685923E+00  0.90007732765E+02  0.89999994038E+02 0.  0.
        -12    1    1    2    0    0  0.92067728981E+00 -0.57794990583E+00  0.45973685923E+00  0.11802672347E+01  0.00000000000E+00 0.  1.
         11    1    3    3    0    0 -0.16470599282E+02 -0.28089890313E+02 -0.12771400746E+02  0.34977582189E+02  0.51100000000E-03 0. -1.
        -11    1    3    3    0    0 -0.60923865093E+01 -0.80688465617E+01 -0.14779630278E+01  0.10218015130E+02  0.51100000000E-03 0.  1.
        -12    1    3    3    0    0  0.21642308501E+02  0.36736686780E+02  0.13789626915E+02  0.44812135447E+02  0.00000000000E+00 0.  1.
</event>
<event>
 7    1  0.2294706E-015  0.9000795E+02  0.7816164E-02  0.1186339E+00
        -11   -1    0    0    0    0  0.00000000000E+00  0.00000000000E+00  0.45593999997E+02  0.45594000000E+02  0.51100000000E-03 0.  1.
         11   -1    0    0    0    0 -0.00000000000E+00 -0.00000000000E+00 -0.45593999997E+02  0.45594000000E+02  0.51100000000E-03 0. -1.
    9900012    2    1    2    0    0 -0.82035715014E+00  0.60427581744E+00 -0.59530584774E+00  0.90007947387E+02  0.90000211492E+02 0.  0.
        -12    1    1    2    0    0  0.82035715014E+00 -0.60427581744E+00  0.59530584774E+00  0.11800526131E+01  0.00000000000E+00 0.  1.
         11    1    3    3    0    0  0.42464533716E+01  0.38331575520E+02 -0.14706940124E+02  0.41275127330E+02  0.51100000000E-03 0. -1.
        -11    1    3    3    0    0  0.21023040856E+01 -0.93592072537E+00 -0.58351536883E+01  0.62725312992E+01  0.51100000000E-03 0.  1.
        -12    1    3    3    0    0 -0.71691146073E+01 -0.36791378977E+02  0.19946787964E+02  0.42460288757E+02  0.00000000000E+00 0.  1.
</event>
<event>
 7    1  0.2294706E-015  0.9000765E+02  0.7816164E-02  0.1186339E+00
        -11   -1    0    0    0    0  0.00000000000E+00  0.00000000000E+00  0.45593999997E+02  0.45594000000E+02  0.51100000000E-03 0. -1.
         11   -1    0    0    0    0 -0.00000000000E+00 -0.00000000000E+00 -0.45593999997E+02  0.45594000000E+02  0.51100000000E-03 0.  1.
    9900012    2    1    2    0    0 -0.92232971368E+00 -0.71701935955E+00 -0.16857165005E+00  0.90007650364E+02  0.89999910548E+02 0.  0.
        -12    1    1    2    0    0  0.92232971368E+00  0.71701935955E+00  0.16857165005E+00  0.11803496363E+01  0.00000000000E+00 0.  1.
         11    1    3    3    0    0 -0.94959866761E+00 -0.77921024215E+00  0.75258218455E+01  0.76254115261E+01  0.51100000000E-03 0. -1.
        -11    1    3    3    0    0  0.34519265435E+02  0.10420199693E+02  0.15815879157E+02  0.39373878163E+02  0.51100000000E-03 0.  1.
         12    1    3    3    0    0 -0.34491996481E+02 -0.10358008810E+02 -0.23510272653E+02  0.43008360675E+02  0.00000000000E+00 0. -1.
</event>
<event>
 7    1  0.2294706E-015  0.9000779E+02  0.7816164E-02  0.1186339E+00
        -11   -1    0    0    0    0  0.00000000000E+00  0.00000000000E+00  0.45593999997E+02  0.45594000000E+02  0.51100000000E-03 0.  1.
         11   -1    0    0    0    0 -0.00000000000E+00 -0.00000000000E+00 -0.45593999997E+02  0.45594000000E+02  0.51100000000E-03 0. -1.
    9900012    2    1    2    0    0 -0.19742633243E+00 -0.18018444195E+00 -0.11495450466E+01  0.90007789254E+02  0.90000051273E+02 0.  0.
        -12    1    1    2    0    0  0.19742633243E+00  0.18018444195E+00  0.11495450466E+01  0.11802107456E+01  0.00000000000E+00 0.  1.
         11    1    3    3    0    0 -0.24074167314E+01  0.58526987407E+01 -0.12386910661E+02  0.13909899132E+02  0.51100000000E-03 0. -1.
        -11    1    3    3    0    0  0.61094490504E+01 -0.40275874630E+02  0.45392646507E+01  0.40988734656E+02  0.51100000000E-03 0.  1.
         12    1    3    3    0    0 -0.38994586514E+01  0.34242991447E+02  0.66981009641E+01  0.35109155466E+02  0.00000000000E+00 0. -1.
</event>
<event>
 7    1  0.2294706E-015  0.9000762E+02  0.7816164E-02  0.1186339E+00
        -11   -1    0    0    0    0  0.00000000000E+00  0.00000000000E+00  0.45593999997E+02  0.45594000000E+02  0.51100000000E-03 0. -1.
         11   -1    0    0    0    0 -0.00000000000E+00 -0.00000000000E+00 -0.45593999997E+02  0.45594000000E+02  0.51100000000E-03 0.  1.
    9900012    2    1    2    0    0  0.21039356166E+00 -0.31983331954E+00 -0.11165789580E+01  0.90007615583E+02  0.89999875308E+02 0.  0.
        -12    1    1    2    0    0 -0.21039356166E+00  0.31983331954E+00  0.11165789580E+01  0.11803844173E+01  0.00000000000E+00 0.  1.
         11    1    3    3    0    0 -0.85081653194E+01 -0.14268453345E+01  0.29828202256E+01  0.91280875034E+01  0.51100000000E-03 0. -1.
        -11    1    3    3    0    0 -0.15570068740E+02 -0.31496737461E+02 -0.15870889711E+02  0.38553296250E+02  0.51100000000E-03 0.  1.
         12    1    3    3    0    0  0.24288627621E+02  0.32603749476E+02  0.11771490527E+02  0.42326231829E+02  0.00000000000E+00 0. -1.
</event>
<event>
 7    1  0.2294706E-015  0.9000770E+02  0.7816164E-02  0.1186339E+00
        -11   -1    0    0    0    0  0.00000000000E+00  0.00000000000E+00  0.45593999997E+02  0.45594000000E+02  0.51100000000E-03 0. -1.
         11   -1    0    0    0    0 -0.00000000000E+00 -0.00000000000E+00 -0.45593999997E+02  0.45594000000E+02  0.51100000000E-03 0.  1.
    9900012    2    1    2    0    0  0.29127103700E+00 -0.94078202797E+00  0.65053393508E+00  0.90007701715E+02  0.89999962578E+02 0.  0.
        -12    1    1    2    0    0 -0.29127103700E+00  0.94078202797E+00 -0.65053393508E+00  0.11802982851E+01  0.00000000000E+00 0.  1.
         11    1    3    3    0    0 -0.19410851846E+01 -0.73880367177E+01  0.39200037809E+01  0.85858795787E+01  0.51100000000E-03 0. -1.
        -11    1    3    3    0    0 -0.20929241866E+02 -0.21158873821E+02 -0.25405718699E+02  0.39130316244E+02  0.51100000000E-03 0.  1.
         12    1    3    3    0    0  0.23161598088E+02  0.27606128511E+02  0.22136248854E+02  0.42291505892E+02  0.00000000000E+00 0. -1.
</event>
<event>
 7    1  0.2294706E-015  0.9000798E+02  0.7816164E-02  0.1186339E+00
        -11   -1    0    0    0    0  0.00000000000E+00  0.00000000000E+00  0.45593999997E+02  0.45594000000E+02  0.51100000000E-03 0. -1.
         11   -1    0    0    0    0 -0.00000000000E+00 -0.00000000000E+00 -0.45593999997E+02  0.45594000000E+02  0.51100000000E-03 0.  1.
    9900012    2    1    2    0    0  0.86260157845E+00  0.61210305441E+00 -0.52315536443E+00  0.90007981709E+02  0.90000246267E+02 0.  0.
        -12    1    1    2    0    0 -0.86260157845E+00 -0.61210305441E+00  0.52315536443E+00  0.11800182913E+01  0.00000000000E+00 0.  1.
         11    1    3    3    0    0  0.19029423131E+01 -0.74306752944E+01  0.74284005257E+01  0.10677886467E+02  0.51100000000E-03 0. -1.
        -11    1    3    3    0    0  0.24795482598E+01  0.12319109319E+02  0.34397189848E+02  0.36620694746E+02  0.51100000000E-03 0.  1.
         12    1    3    3    0    0 -0.35198889945E+01 -0.42763309704E+01 -0.42348745738E+02  0.42709400495E+02  0.00000000000E+00 0. -1.
</event>
<event>
 7    1  0.2294706E-015  0.9000772E+02  0.7816164E-02  0.1186339E+00
        -11   -1    0    0    0    0  0.00000000000E+00  0.00000000000E+00  0.45593999997E+02  0.45594000000E+02  0.51100000000E-03 0. -1.
         11   -1    0    0    0    0 -0.00000000000E+00 -0.00000000000E+00 -0.45593999997E+02  0.45594000000E+02  0.51100000000E-03 0.  1.
    9900012    2    1    2    0    0 -0.86142367038E+00  0.78682726658E+00  0.17866100063E+00  0.90007717135E+02  0.89999978202E+02 0.  0.
        -12    1    1    2    0    0  0.86142367038E+00 -0.78682726658E+00 -0.17866100063E+00  0.11802828646E+01  0.00000000000E+00 0.  1.
         11    1    3    3    0    0  0.19711359564E+01  0.44711480808E+01  0.68696676757E+01  0.84302358421E+01  0.51100000000E-03 0. -1.
        -11    1    3    3    0    0  0.29613736247E+02 -0.24021289612E+02  0.10577019279E+02  0.39571063496E+02  0.51100000000E-03 0.  1.
         12    1    3    3    0    0 -0.32446295873E+02  0.20336968798E+02 -0.17268025954E+02  0.42006417797E+02  0.00000000000E+00 0. -1.
</event>
<event>
 7    1  0.2294706E-015  0.9000766E+02  0.7816164E-02  0.1186339E+00
        -11   -1    0    0    0    0  0.00000000000E+00  0.00000000000E+00  0.45593999997E+02  0.45594000000E+02  0.51100000000E-03 0. -1.
         11   -1    0    0    0    0 -0.00000000000E+00 -0.00000000000E+00 -0.45593999997E+02  0.45594000000E+02  0.51100000000E-03 0.  1.
    9900012    2    1    2    0    0  0.13692801846E+00 -0.10532641584E+01 -0.51486170114E+00  0.90007662234E+02  0.89999922576E+02 0.  0.
        -12    1    1    2    0    0 -0.13692801846E+00  0.10532641584E+01  0.51486170114E+00  0.11803377656E+01  0.00000000000E+00 0.  1.
         11    1    3    3    0    0 -0.20131055084E+01 -0.19236915023E+01 -0.57283275721E+01  0.63692165781E+01  0.51100000000E-03 0. -1.
        -11    1    3    3    0    0 -0.18160077316E+02 -0.22428679628E+02 -0.26624865355E+02  0.39264711045E+02  0.51100000000E-03 0.  1.
         12    1    3    3    0    0  0.20310110843E+02  0.23299106972E+02  0.31838331226E+02  0.44373734612E+02  0.00000000000E+00 0. -1.
</event>
<event>
 7    1  0.2294706E-015  0.9000771E+02  0.7816164E-02  0.1186339E+00
        -11   -1    0    0    0    0  0.00000000000E+00  0.00000000000E+00  0.45593999997E+02  0.45594000000E+02  0.51100000000E-03 0.  1.
         11   -1    0    0    0    0 -0.00000000000E+00 -0.00000000000E+00 -0.45593999997E+02  0.45594000000E+02  0.51100000000E-03 0. -1.
    9900012    2    1    2    0    0 -0.96909698655E+00  0.63964313526E+00 -0.21165426818E+00  0.90007707732E+02  0.89999968674E+02 0.  0.
        -12    1    1    2    0    0  0.96909698655E+00 -0.63964313526E+00  0.21165426818E+00  0.11802922685E+01  0.00000000000E+00 0.  1.
         11    1    3    3    0    0 -0.18425527763E+02  0.10991228162E+01 -0.36707680909E+02  0.41087248415E+02  0.51100000000E-03 0. -1.
        -11    1    3    3    0    0  0.10313199752E+02  0.42453749010E+01 -0.28651764299E+00  0.11156495408E+02  0.51100000000E-03 0.  1.
        -12    1    3    3    0    0  0.71432310248E+01 -0.47048545819E+01  0.36782544284E+02  0.37763963909E+02  0.00000000000E+00 0.  1.
</event>
<event>
 7    1  0.2294706E-015  0.9000761E+02  0.7816164E-02  0.1186339E+00
        -11   -1    0    0    0    0  0.00000000000E+00  0.00000000000E+00  0.45593999997E+02  0.45594000000E+02  0.51100000000E-03 0.  1.
         11   -1    0    0    0    0 -0.00000000000E+00 -0.00000000000E+00 -0.45593999997E+02  0.45594000000E+02  0.51100000000E-03 0. -1.
    9900012    2    1    2    0    0 -0.24332532481E+00 -0.66734331535E+00 -0.94273818995E+00  0.90007614635E+02  0.89999874348E+02 0.  0.
        -12    1    1    2    0    0  0.24332532481E+00  0.66734331535E+00  0.94273818995E+00  0.11803853646E+01  0.00000000000E+00 0.  1.
         11    1    3    3    0    0 -0.13195485584E+02  0.30481528097E+02  0.15566984515E+02  0.36682085574E+02  0.51100000000E-03 0. -1.
        -11    1    3    3    0    0  0.10557577158E+01  0.14596121993E+01  0.96779226727E+01  0.98441495137E+01  0.51100000000E-03 0.  1.
         12    1    3    3    0    0  0.11896402544E+02 -0.32608483611E+02 -0.26187645378E+02  0.43481379547E+02  0.00000000000E+00 0. -1.
</event>
<event>
 7    1  0.2294706E-015  0.9000775E+02  0.7816164E-02  0.1186339E+00
        -11   -1    0    0    0    0  0.00000000000E+00  0.00000000000E+00  0.45593999997E+02  0.45594000000E+02  0.51100000000E-03 0.  1.
         11   -1    0    0    0    0 -0.00000000000E+00 -0.00000000000E+00 -0.45593999997E+02  0.45594000000E+02  0.51100000000E-03 0. -1.
    9900012    2    1    2    0    0 -0.37322038321E+00  0.91973066915E+00 -0.63857892295E+00  0.90007753840E+02  0.90000015390E+02 0.  0.
        -12    1    1    2    0    0  0.37322038321E+00 -0.91973066915E+00  0.63857892295E+00  0.11802461604E+01  0.00000000000E+00 0.  1.
         11    1    3    3    0    0  0.34123474130E+01 -0.35728552726E+02 -0.68875066788E+01  0.36546016791E+02  0.51100000000E-03 0. -1.
        -11    1    3    3    0    0 -0.37974949292E+01 -0.70699083995E+01  0.55147048659E+01  0.97373786274E+01  0.51100000000E-03 0.  1.
        -12    1    3    3    0    0  0.11927132956E-01  0.43718191795E+02  0.73422289000E+00  0.43724358421E+02  0.00000000000E+00 0.  1.
</event>
<event>
 7    1  0.2294706E-015  0.9000759E+02  0.7816164E-02  0.1186339E+00
        -11   -1    0    0    0    0  0.00000000000E+00  0.00000000000E+00  0.45593999997E+02  0.45594000000E+02  0.51100000000E-03 0.  1.
         11   -1    0    0    0    0 -0.00000000000E+00 -0.00000000000E+00 -0.45593999997E+02  0.45594000000E+02  0.51100000000E-03 0. -1.
    9900012    2    1    2    0    0 -0.80544182337E+00 -0.59815834378E+00 -0.62196583700E+00  0.90007588446E+02  0.89999847813E+02 0.  0.
        -12    1    1    2    0    0  0.80544182337E+00  0.59815834378E+00  0.62196583700E+00  0.11804115543E+01  0.00000000000E+00 0.  1.
         11    1    3    3    0    0  0.69581893863E+01 -0.53398567648E+01  0.44238207580E+01  0.98234749537E+01  0.51100000000E-03 0. -1.
        -11    1    3    3    0    0  0.10109430540E+02 -0.34916974632E+02  0.33468573990E+00  0.36352547615E+02  0.51100000000E-03 0.  1.
         12    1    3    3    0    0 -0.17873061750E+02  0.39658673053E+02 -0.53804723349E+01  0.43831565877E+02  0.00000000000E+00 0. -1.
</event>
<event>
 7    1  0.2294706E-015  0.9000780E+02  0.7816164E-02  0.1186339E+00
        -11   -1    0    0    0    0  0.00000000000E+00  0.00000000000E+00  0.45593999997E+02  0.45594000000E+02  0.51100000000E-03 0.  1.
         11   -1    0    0    0    0 -0.00000000000E+00 -0.00000000000E+00 -0.45593999997E+02  0.45594000000E+02  0.51100000000E-03 0. -1.
    9900012    2    1    2    0    0 -0.11599370284E+01  0.17639472580E+00 -0.12769456563E+00  0.90007798784E+02  0.90000060928E+02 0.  0.
        -12    1    1    2    0    0  0.11599370284E+01 -0.17639472580E+00  0.12769456563E+00  0.11802012164E+01  0.00000000000E+00 0.  1.
         11    1    3    3    0    0 -0.65157707370E+01 -0.63627820903E+01 -0.32028566441E+02  0.33298188130E+02  0.51100000000E-03 0. -1.
        -11    1    3    3    0    0  0.22580797953E+01 -0.10558249550E+02 -0.78353235337E+01  0.13340459252E+02  0.51100000000E-03 0.  1.
        -12    1    3    3    0    0  0.30977539132E+01  0.17097426366E+02  0.39736195409E+02  0.43369151401E+02  0.00000000000E+00 0.  1.
</event>
<event>
 7    1  0.2294706E-015  0.9000788E+02  0.7816164E-02  0.1186339E+00
        -11   -1    0    0    0    0  0.00000000000E+00  0.00000000000E+00  0.45593999997E+02  0.45594000000E+02  0.51100000000E-03 0.  1.
         11   -1    0    0    0    0 -0.00000000000E+00 -0.00000000000E+00 -0.45593999997E+02  0.45594000000E+02  0.51100000000E-03 0. -1.
    9900012    2    1    2    0    0  0.45973632633E+00  0.48592879235E+00 -0.97221656639E+00  0.90007877408E+02  0.90000140589E+02 0.  0.
        -12    1    1    2    0    0 -0.45973632633E+00 -0.48592879235E+00  0.97221656639E+00  0.11801225923E+01  0.00000000000E+00 0.  1.
         11    1    3    3    0    0 -0.42745198910E+01 -0.68025923060E+00  0.59080309564E+01  0.73238721290E+01  0.51100000000E-03 0. -1.
        -11    1    3    3    0    0 -0.25993889968E+02 -0.28903405599E+02  0.14130810203E+01  0.38898405740E+02  0.51100000000E-03 0.  1.
         12    1    3    3    0    0  0.30728146186E+02  0.30069593622E+02 -0.82933285431E+01  0.43785599538E+02  0.00000000000E+00 0. -1.
</event>
<event>
 7    1  0.2294706E-015  0.9000735E+02  0.7816164E-02  0.1186340E+00
        -11   -1    0    0    0    0  0.00000000000E+00  0.00000000000E+00  0.45593999997E+02  0.45594000000E+02  0.51100000000E-03 0. -1.
         11   -1    0    0    0    0 -0.00000000000E+00 -0.00000000000E+00 -0.45593999997E+02  0.45594000000E+02  0.51100000000E-03 0.  1.
    9900012    2    1    2    0    0  0.95138103473E+00 -0.14240038945E+00  0.68449272201E+00  0.90007350166E+02  0.89999606387E+02 0.  0.
        -12    1    1    2    0    0 -0.95138103473E+00  0.14240038945E+00 -0.68449272201E+00  0.11806498340E+01  0.00000000000E+00 0.  1.
         11    1    3    3    0    0  0.57820410527E+01  0.52531484767E+01  0.60212453519E+01  0.98632126360E+01  0.51100000000E-03 0. -1.
        -11    1    3    3    0    0  0.14962712002E+02  0.32657674380E+02  0.43090643890E+01  0.36179752384E+02  0.51100000000E-03 0.  1.
         12    1    3    3    0    0 -0.19793372020E+02 -0.38053223246E+02 -0.96458170189E+01  0.43964385146E+02  0.00000000000E+00 0. -1.
</event>
<event>
 7    1  0.2294706E-015  0.9000767E+02  0.7816164E-02  0.1186339E+00
        -11   -1    0    0    0    0  0.00000000000E+00  0.00000000000E+00  0.45593999997E+02  0.45594000000E+02  0.51100000000E-03 0.  1.
         11   -1    0    0    0    0 -0.00000000000E+00 -0.00000000000E+00 -0.45593999997E+02  0.45594000000E+02  0.51100000000E-03 0. -1.
    9900012    2    1    2    0    0  0.18197242048E+00 -0.67110901906E+00 -0.95377072585E+00  0.90007669591E+02  0.89999930029E+02 0.  0.
        -12    1    1    2    0    0 -0.18197242048E+00  0.67110901906E+00  0.95377072585E+00  0.11803304091E+01  0.00000000000E+00 0.  1.
         11    1    3    3    0    0  0.13269179927E+02 -0.24466592368E+01  0.49303024964E+00  0.13501864925E+02  0.51100000000E-03 0. -1.
        -11    1    3    3    0    0 -0.23261306139E+02  0.31779885515E+02  0.13287947051E+02  0.41564636697E+02  0.51100000000E-03 0.  1.
         12    1    3    3    0    0  0.10174098632E+02 -0.30004335298E+02 -0.14734748027E+02  0.34941167969E+02  0.00000000000E+00 0. -1.
</event>
<event>
 7    1  0.2294706E-015  0.9000777E+02  0.7816164E-02  0.1186339E+00
        -11   -1    0    0    0    0  0.00000000000E+00  0.00000000000E+00  0.45593999997E+02  0.45594000000E+02  0.51100000000E-03 0.  1.
         11   -1    0    0    0    0 -0.00000000000E+00 -0.00000000000E+00 -0.45593999997E+02  0.45594000000E+02  0.51100000000E-03 0. -1.
    9900012    2    1    2    0    0 -0.24697961428E+00  0.43615409264E+00 -0.10685081982E+01  0.90007771593E+02  0.90000033378E+02 0.  0.
        -12    1    1    2    0    0  0.24697961428E+00 -0.43615409264E+00  0.10685081982E+01  0.11802284067E+01  0.00000000000E+00 0.  1.
         11    1    3    3    0    0 -0.77385328391E+01  0.15178620475E+01  0.59828222685E+01  0.98986341611E+01  0.51100000000E-03 0. -1.
        -11    1    3    3    0    0  0.34335078814E+02  0.27306714297E+00  0.21804777261E+02  0.40674568399E+02  0.51100000000E-03 0.  1.
         12    1    3    3    0    0 -0.26843525589E+02 -0.13547750979E+01 -0.28856107728E+02  0.39434569033E+02  0.00000000000E+00 0. -1.
</event>
<event>
 7    1  0.2294706E-015  0.9000776E+02  0.7816164E-02  0.1186339E+00
        -11   -1    0    0    0    0  0.00000000000E+00  0.00000000000E+00  0.45593999997E+02  0.45594000000E+02  0.51100000000E-03 0. -1.
         11   -1    0    0    0    0 -0.00000000000E+00 -0.00000000000E+00 -0.45593999997E+02  0.45594000000E+02  0.51100000000E-03 0.  1.
    9900012    2    1    2    0    0  0.11521496398E+01  0.14292761807E+00 -0.21236351991E+00  0.90007756228E+02  0.90000017810E+02 0.  0.
        -12    1    1    2    0    0 -0.11521496398E+01 -0.14292761807E+00  0.21236351991E+00  0.11802437719E+01  0.00000000000E+00 0.  1.
         11    1    3    3    0    0  0.13095223079E+02  0.25273837376E+02  0.27784502519E+02  0.39777258625E+02  0.51100000000E-03 0. -1.
        -11    1    3    3    0    0 -0.46147683094E+01  0.72002823508E+01 -0.58914095167E+01  0.10385030517E+02  0.51100000000E-03 0.  1.
        -12    1    3    3    0    0 -0.73283051294E+01 -0.32331192109E+02 -0.22105456523E+02  0.39845467086E+02  0.00000000000E+00 0.  1.
</event>
<event>
 7    1  0.2294706E-015  0.9000781E+02  0.7816164E-02  0.1186339E+00
        -11   -1    0    0    0    0  0.00000000000E+00  0.00000000000E+00  0.45593999997E+02  0.45594000000E+02  0.51100000000E-03 0.  1.
         11   -1    0    0    0    0 -0.00000000000E+00 -0.00000000000E+00 -0.45593999997E+02  0.45594000000E+02  0.51100000000E-03 0. -1.
    9900012    2    1    2    0    0 -0.85479797815E+00  0.80706809563E+00  0.10397808038E+00  0.90007809365E+02  0.90000071648E+02 0.  0.
        -12    1    1    2    0    0  0.85479797815E+00 -0.80706809563E+00 -0.10397808038E+00  0.11801906353E+01  0.00000000000E+00 0.  1.
         11    1    3    3    0    0  0.89164241178E+01 -0.33585888767E+02  0.56628504142E+01  0.35207703963E+02  0.51100000000E-03 0. -1.
        -11    1    3    3    0    0  0.18001213451E+01 -0.64608405680E+01  0.78002763710E+01  0.10287235266E+02  0.51100000000E-03 0.  1.
        -12    1    3    3    0    0 -0.11571343441E+02  0.40853797430E+02 -0.13359148705E+02  0.44512870135E+02  0.00000000000E+00 0.  1.
</event>
<event>
 7    1  0.2294706E-015  0.9000785E+02  0.7816164E-02  0.1186339E+00
        -11   -1    0    0    0    0  0.00000000000E+00  0.00000000000E+00  0.45593999997E+02  0.45594000000E+02  0.51100000000E-03 0.  1.
         11   -1    0    0    0    0 -0.00000000000E+00 -0.00000000000E+00 -0.45593999997E+02  0.45594000000E+02  0.51100000000E-03 0. -1.
    9900012    2    1    2    0    0 -0.65871325134E+00 -0.90288598588E+00 -0.37901865703E+00  0.90007846877E+02  0.90000109656E+02 0.  0.
        -12    1    1    2    0    0  0.65871325134E+00  0.90288598588E+00  0.37901865703E+00  0.11801531228E+01  0.00000000000E+00 0.  1.
         11    1    3    3    0    0  0.57655321336E+01  0.16018972095E+02  0.46433047604E+01  0.17646787445E+02  0.51100000000E-03 0. -1.
        -11    1    3    3    0    0 -0.10915198669E+01  0.11027683175E+02  0.27201897571E+02  0.29372511700E+02  0.51100000000E-03 0.  1.
         12    1    3    3    0    0 -0.53327255180E+01 -0.27949541256E+02 -0.32224220988E+02  0.42988547733E+02  0.00000000000E+00 0. -1.
</event>
<event>
 7    1  0.2294706E-015  0.9000782E+02  0.7816164E-02  0.1186339E+00
        -11   -1    0    0    0    0  0.00000000000E+00  0.00000000000E+00  0.45593999997E+02  0.45594000000E+02  0.51100000000E-03 0.  1.
         11   -1    0    0    0    0 -0.00000000000E+00 -0.00000000000E+00 -0.45593999997E+02  0.45594000000E+02  0.51100000000E-03 0. -1.
    9900012    2    1    2    0    0 -0.11506402601E+01 -0.24660771847E+00 -0.89628921927E-01  0.90007821319E+02  0.90000083761E+02 0.  0.
        -12    1    1    2    0    0  0.11506402601E+01  0.24660771847E+00  0.89628921927E-01  0.11801786808E+01  0.00000000000E+00 0.  1.
         11    1    3    3    0    0  0.75960189998E+01 -0.64346897219E+01 -0.98048147868E+00  0.10003303487E+02  0.51100000000E-03 0. -1.
        -11    1    3    3    0    0  0.62934181554E+01 -0.34256366118E+02 -0.84826601455E+01  0.35847751047E+02  0.51100000000E-03 0.  1.
         12    1    3    3    0    0 -0.15040077415E+02  0.40444448122E+02  0.93735127022E+01  0.44156766785E+02  0.00000000000E+00 0. -1.
</event>
<event>
 7    1  0.2294706E-015  0.9000768E+02  0.7816164E-02  0.1186339E+00
        -11   -1    0    0    0    0  0.00000000000E+00  0.00000000000E+00  0.45593999997E+02  0.45594000000E+02  0.51100000000E-03 0.  1.
         11   -1    0    0    0    0 -0.00000000000E+00 -0.00000000000E+00 -0.45593999997E+02  0.45594000000E+02  0.51100000000E-03 0. -1.
    9900012    2    1    2    0    0  0.92012356580E+00  0.66284250124E-01 -0.73630399140E+00  0.90007676084E+02  0.89999936609E+02 0.  0.
        -12    1    1    2    0    0 -0.92012356580E+00 -0.66284250124E-01  0.73630399140E+00  0.11803239157E+01  0.00000000000E+00 0.  1.
         11    1    3    3    0    0 -0.61780066480E+01  0.57370284275E+01 -0.61225145057E+00  0.84531717965E+01  0.51100000000E-03 0. -1.
        -11    1    3    3    0    0 -0.27367197464E+02  0.16456257062E+02  0.18121636838E+02  0.36717374845E+02  0.51100000000E-03 0.  1.
         12    1    3    3    0    0  0.34465327678E+02 -0.22127001239E+02 -0.18245689379E+02  0.44837129443E+02  0.00000000000E+00 0. -1.
</event>
<event>
 7    1  0.2294706E-015  0.9000771E+02  0.7816164E-02  0.1186339E+00
        -11   -1    0    0    0    0  0.00000000000E+00  0.00000000000E+00  0.45593999997E+02  0.45594000000E+02  0.51100000000E-03 0.  1.
         11   -1    0    0    0    0 -0.00000000000E+00 -0.00000000000E+00 -0.45593999997E+02  0.45594000000E+02  0.51100000000E-03 0. -1.
    9900012    2    1    2    0    0  0.97748195969E+00  0.64554917771E-01 -0.65836799631E+00  0.90007709045E+02  0.89999970005E+02 0.  0.
        -12    1    1    2    0    0 -0.97748195969E+00 -0.64554917771E-01  0.65836799631E+00  0.11802909546E+01  0.00000000000E+00 0.  1.
         11    1    3    3    0    0 -0.84412229088E+01 -0.52092246886E+01 -0.37018215978E+02  0.38324125306E+02  0.51100000000E-03 0. -1.
        -11    1    3    3    0    0  0.29089752729E+01  0.14580431514E+02  0.14097918692E+01  0.14934478017E+02  0.51100000000E-03 0.  1.
        -12    1    3    3    0    0  0.65097295956E+01 -0.93066519075E+01  0.34950056112E+02  0.36749105722E+02  0.00000000000E+00 0.  1.
</event>
<event>
 7    1  0.2294706E-015  0.9000773E+02  0.7816164E-02  0.1186339E+00
        -11   -1    0    0    0    0  0.00000000000E+00  0.00000000000E+00  0.45593999997E+02  0.45594000000E+02  0.51100000000E-03 0.  1.
         11   -1    0    0    0    0 -0.00000000000E+00 -0.00000000000E+00 -0.45593999997E+02  0.45594000000E+02  0.51100000000E-03 0. -1.
    9900012    2    1    2    0    0  0.39051125794E+00  0.75710024835E+00 -0.81690837128E+00  0.90007729219E+02  0.89999990445E+02 0.  0.
        -12    1    1    2    0    0 -0.39051125794E+00 -0.75710024835E+00  0.81690837128E+00  0.11802707807E+01  0.00000000000E+00 0.  1.
         11    1    3    3    0    0 -0.49659257600E+01  0.12745585267E+01 -0.61808746234E+01  0.80304501407E+01  0.51100000000E-03 0. -1.
        -11    1    3    3    0    0  0.38084477704E+02 -0.18348388686E+02  0.12386440788E+02  0.44051273819E+02  0.51100000000E-03 0.  1.
         12    1    3    3    0    0 -0.32728040686E+02  0.17830930408E+02 -0.70224745361E+01  0.37926005260E+02  0.00000000000E+00 0. -1.
</event>
<event>
 7    1  0.2541580E-015  0.9000771E+02  0.7816164E-02  0.1186339E+00
        -11   -1    0    0    0    0  0.00000000000E+00  0.00000000000E+00  0.45593999997E+02  0.45594000000E+02  0.51100000000E-03 0. -1.
         11   -1    0    0    0    0 -0.00000000000E+00 -0.00000000000E+00 -0.45593999997E+02  0.45594000000E+02  0.51100000000E-03 0.  1.
    9900012    2    1    2    0    0 -0.84645514858E+00  0.54120174284E+00  0.61944265891E+00  0.90007705608E+02  0.89999966522E+02 0.  0.
        -12    1    1    2    0    0  0.84645514858E+00 -0.54120174284E+00 -0.61944265891E+00  0.11802943924E+01  0.00000000000E+00 0.  1.
         11    1    3    3    0    0 -0.12577701377E+02  0.19471837053E+02  0.33040963103E+02  0.40361569014E+02  0.51100000000E-03 0. -1.
        -11    1    3    3    0    0 -0.89999030620E+01 -0.20302928404E+01 -0.25964268164E+01  0.95844549463E+01  0.51100000000E-03 0.  1.
        -12    1    3    3    0    0  0.20731149291E+02 -0.16900342470E+02 -0.29825093628E+02  0.40061681648E+02  0.00000000000E+00 0.  1.
</event>
<event>
 7    1  0.2294706E-015  0.9000774E+02  0.7816164E-02  0.1186339E+00
        -11   -1    0    0    0    0  0.00000000000E+00  0.00000000000E+00  0.45593999997E+02  0.45594000000E+02  0.51100000000E-03 0. -1.
         11   -1    0    0    0    0 -0.00000000000E+00 -0.00000000000E+00 -0.45593999997E+02  0.45594000000E+02  0.51100000000E-03 0.  1.
    9900012    2    1    2    0    0 -0.49208635583E+00 -0.10498143162E+01  0.22080222512E+00  0.90007740409E+02  0.90000001782E+02 0.  0.
        -12    1    1    2    0    0  0.49208635583E+00  0.10498143162E+01 -0.22080222512E+00  0.11802595912E+01  0.00000000000E+00 0.  1.
         11    1    3    3    0    0  0.77875649975E+01  0.17718424649E+02 -0.13921484313E+02  0.23841066805E+02  0.51100000000E-03 0. -1.
        -11    1    3    3    0    0 -0.13087307834E+01  0.20156332620E+02  0.17165468327E+02  0.26507429602E+02  0.51100000000E-03 0.  1.
        -12    1    3    3    0    0 -0.69709205698E+01 -0.38924571586E+02 -0.30231817882E+01  0.39659244002E+02  0.00000000000E+00 0.  1.
</event>
<event>
 7    1  0.2294706E-015  0.9000770E+02  0.7816164E-02  0.1186339E+00
        -11   -1    0    0    0    0  0.00000000000E+00  0.00000000000E+00  0.45593999997E+02  0.45594000000E+02  0.51100000000E-03 0. -1.
         11   -1    0    0    0    0 -0.00000000000E+00 -0.00000000000E+00 -0.45593999997E+02  0.45594000000E+02  0.51100000000E-03 0.  1.
    9900012    2    1    2    0    0 -0.10783121936E+01 -0.47990985683E+00 -0.65518493064E-02  0.90007697673E+02  0.89999958482E+02 0.  0.
        -12    1    1    2    0    0  0.10783121936E+01  0.47990985683E+00  0.65518493064E-02  0.11803023275E+01  0.00000000000E+00 0.  1.
         11    1    3    3    0    0 -0.26001205856E+02 -0.21074538247E+01  0.25855955872E+02  0.36729205299E+02  0.51100000000E-03 0. -1.
        -11    1    3    3    0    0 -0.41530300086E+01 -0.57853494815E+01  0.61443916256E+01  0.94059276834E+01  0.51100000000E-03 0.  1.
        -12    1    3    3    0    0  0.29075923671E+02  0.74128934493E+01 -0.32006899347E+02  0.43872564690E+02  0.00000000000E+00 0.  1.
</event>
<event>
 7    1  0.2294706E-015  0.9000773E+02  0.7816164E-02  0.1186339E+00
        -11   -1    0    0    0    0  0.00000000000E+00  0.00000000000E+00  0.45593999997E+02  0.45594000000E+02  0.51100000000E-03 0.  1.
         11   -1    0    0    0    0 -0.00000000000E+00 -0.00000000000E+00 -0.45593999997E+02  0.45594000000E+02  0.51100000000E-03 0. -1.
    9900012    2    1    2    0    0 -0.10185215965E+01  0.55371929532E+00 -0.22144314693E+00  0.90007733772E+02  0.89999995058E+02 0.  0.
        -12    1    1    2    0    0  0.10185215965E+01 -0.55371929532E+00  0.22144314693E+00  0.11802662275E+01  0.00000000000E+00 0.  1.
         11    1    3    3    0    0 -0.18376197862E+02  0.27775923445E+02 -0.23306590188E+02  0.40649522968E+02  0.51100000000E-03 0. -1.
        -11    1    3    3    0    0 -0.25670722930E+01 -0.86860085887E+01 -0.49209590911E+01  0.10307882615E+02  0.51100000000E-03 0.  1.
        -12    1    3    3    0    0  0.19924748558E+02 -0.18536195561E+02  0.28006106133E+02  0.39050328189E+02  0.00000000000E+00 0.  1.
</event>
<event>
 7    1  0.2294706E-015  0.9000769E+02  0.7816164E-02  0.1186339E+00
        -11   -1    0    0    0    0  0.00000000000E+00  0.00000000000E+00  0.45593999997E+02  0.45594000000E+02  0.51100000000E-03 0. -1.
         11   -1    0    0    0    0 -0.00000000000E+00 -0.00000000000E+00 -0.45593999997E+02  0.45594000000E+02  0.51100000000E-03 0.  1.
    9900012    2    1    2    0    0 -0.11486845826E+01  0.22843828840E+00  0.14656534789E+00  0.90007685752E+02  0.89999946404E+02 0.  0.
        -12    1    1    2    0    0  0.11486845826E+01 -0.22843828840E+00 -0.14656534789E+00  0.11803142477E+01  0.00000000000E+00 0.  1.
         11    1    3    3    0    0 -0.71303201211E+01 -0.20897353646E+01  0.39804015738E+01  0.84292381549E+01  0.51100000000E-03 0. -1.
        -11    1    3    3    0    0 -0.73032240556E+01 -0.30508799369E+02  0.21504602717E+02  0.38033825193E+02  0.51100000000E-03 0.  1.
         12    1    3    3    0    0  0.13284859594E+02  0.32826973022E+02 -0.25338438943E+02  0.43544622404E+02  0.00000000000E+00 0. -1.
</event>
<event>
 7    1  0.2294706E-015  0.9000785E+02  0.7816164E-02  0.1186339E+00
        -11   -1    0    0    0    0  0.00000000000E+00  0.00000000000E+00  0.45593999997E+02  0.45594000000E+02  0.51100000000E-03 0.  1.
         11   -1    0    0    0    0 -0.00000000000E+00 -0.00000000000E+00 -0.45593999997E+02  0.45594000000E+02  0.51100000000E-03 0. -1.
    9900012    2    1    2    0    0  0.61596913726E+00 -0.68309661335E+00 -0.73939748541E+00  0.90007852720E+02  0.90000115576E+02 0.  0.
        -12    1    1    2    0    0 -0.61596913726E+00  0.68309661335E+00  0.73939748541E+00  0.11801472801E+01  0.00000000000E+00 0.  1.
         11    1    3    3    0    0  0.10696441530E+02 -0.59378891518E-01  0.44582226405E+01  0.11588491560E+02  0.51100000000E-03 0. -1.
        -11    1    3    3    0    0  0.58678858621E+01  0.29997516761E+02  0.19242718528E+02  0.36118766770E+02  0.51100000000E-03 0.  1.
         12    1    3    3    0    0 -0.15948358255E+02 -0.30621234483E+02 -0.24440338654E+02  0.42300594391E+02  0.00000000000E+00 0. -1.
</event>
<event>
 7    1  0.2294706E-015  0.9000773E+02  0.7816164E-02  0.1186339E+00
        -11   -1    0    0    0    0  0.00000000000E+00  0.00000000000E+00  0.45593999997E+02  0.45594000000E+02  0.51100000000E-03 0.  1.
         11   -1    0    0    0    0 -0.00000000000E+00 -0.00000000000E+00 -0.45593999997E+02  0.45594000000E+02  0.51100000000E-03 0. -1.
    9900012    2    1    2    0    0 -0.18052499338E+00  0.10334099520E+01 -0.54083704851E+00  0.90007733032E+02  0.89999994308E+02 0.  0.
        -12    1    1    2    0    0  0.18052499338E+00 -0.10334099520E+01  0.54083704851E+00  0.11802669678E+01  0.00000000000E+00 0.  1.
         11    1    3    3    0    0 -0.27660901285E+02  0.24338883947E+02 -0.40526173858E+01  0.37066567680E+02  0.51100000000E-03 0. -1.
        -11    1    3    3    0    0 -0.68056859544E+01 -0.14319881122E+01 -0.80716309016E+01  0.10654537857E+02  0.51100000000E-03 0.  1.
        -12    1    3    3    0    0  0.34286062246E+02 -0.21873485883E+02  0.11583411239E+02  0.42286627495E+02  0.00000000000E+00 0.  1.
</event>
<event>
 7    1  0.2294706E-015  0.9000782E+02  0.7816164E-02  0.1186339E+00
        -11   -1    0    0    0    0  0.00000000000E+00  0.00000000000E+00  0.45593999997E+02  0.45594000000E+02  0.51100000000E-03 0. -1.
         11   -1    0    0    0    0 -0.00000000000E+00 -0.00000000000E+00 -0.45593999997E+02  0.45594000000E+02  0.51100000000E-03 0.  1.
    9900012    2    1    2    0    0 -0.11608220597E+01 -0.91984339956E-01  0.19197770121E+00  0.90007820179E+02  0.90000082605E+02 0.  0.
        -12    1    1    2    0    0  0.11608220597E+01  0.91984339956E-01 -0.19197770121E+00  0.11801798214E+01  0.00000000000E+00 0.  1.
         11    1    3    3    0    0  0.61054980785E+01  0.38570597494E+02  0.10206871904E+02  0.40362709673E+02  0.51100000000E-03 0. -1.
        -11    1    3    3    0    0 -0.38942579279E+01 -0.21988096701E+01 -0.12166699442E+02  0.12962584015E+02  0.51100000000E-03 0.  1.
        -12    1    3    3    0    0 -0.33720622103E+01 -0.36463772164E+02  0.21518052393E+01  0.36682526491E+02  0.00000000000E+00 0.  1.
</event>
<event>
 7    1  0.2294706E-015  0.9000748E+02  0.7816164E-02  0.1186340E+00
        -11   -1    0    0    0    0  0.00000000000E+00  0.00000000000E+00  0.45593999997E+02  0.45594000000E+02  0.51100000000E-03 0.  1.
         11   -1    0    0    0    0 -0.00000000000E+00 -0.00000000000E+00 -0.45593999997E+02  0.45594000000E+02  0.51100000000E-03 0. -1.
    9900012    2    1    2    0    0  0.56472227281E+00 -0.10247080660E+01 -0.15716291918E+00  0.90007475520E+02  0.89999733396E+02 0.  0.
        -12    1    1    2    0    0 -0.56472227281E+00  0.10247080660E+01  0.15716291918E+00  0.11805244805E+01  0.00000000000E+00 0.  1.
         11    1    3    3    0    0 -0.13137871033E+02 -0.12211360335E+02 -0.93554643514E+01  0.20229821798E+02  0.51100000000E-03 0. -1.
        -11    1    3    3    0    0 -0.17896637577E+02 -0.67193198658E+01  0.23891648681E+02  0.30598198852E+02  0.51100000000E-03 0.  1.
         12    1    3    3    0    0  0.31599230882E+02  0.17905972135E+02 -0.14693347249E+02  0.39179454869E+02  0.00000000000E+00 0. -1.
</event>
<event>
 7    1  0.2294706E-015  0.9000777E+02  0.7816164E-02  0.1186339E+00
        -11   -1    0    0    0    0  0.00000000000E+00  0.00000000000E+00  0.45593999997E+02  0.45594000000E+02  0.51100000000E-03 0. -1.
         11   -1    0    0    0    0 -0.00000000000E+00 -0.00000000000E+00 -0.45593999997E+02  0.45594000000E+02  0.51100000000E-03 0.  1.
    9900012    2    1    2    0    0  0.89561355651E-01  0.23347590177E+00  0.11534306988E+01  0.90007773492E+02  0.90000035302E+02 0.  0.
        -12    1    1    2    0    0 -0.89561355651E-01 -0.23347590177E+00 -0.11534306988E+01  0.11802265079E+01  0.00000000000E+00 0.  1.
         11    1    3    3    0    0  0.19273484913E+01 -0.29823431961E+02 -0.16897301533E+02  0.34331771954E+02  0.51100000000E-03 0. -1.
        -11    1    3    3    0    0  0.13005252081E+02 -0.31798889285E+01  0.13464067466E+02  0.18987611442E+02  0.51100000000E-03 0.  1.
        -12    1    3    3    0    0 -0.14843039217E+02  0.33236796792E+02  0.45866647656E+01  0.36688390096E+02  0.00000000000E+00 0.  1.
</event>
<event>
 7    1  0.2294706E-015  0.9000752E+02  0.7816164E-02  0.1186339E+00
        -11   -1    0    0    0    0  0.00000000000E+00  0.00000000000E+00  0.45593999997E+02  0.45594000000E+02  0.51100000000E-03 0.  1.
         11   -1    0    0    0    0 -0.00000000000E+00 -0.00000000000E+00 -0.45593999997E+02  0.45594000000E+02  0.51100000000E-03 0. -1.
    9900012    2    1    2    0    0  0.95760000992E+00 -0.45181032921E+00 -0.52191529509E+00  0.90007523008E+02  0.89999781512E+02 0.  0.
        -12    1    1    2    0    0 -0.95760000992E+00  0.45181032921E+00  0.52191529509E+00  0.11804769917E+01  0.00000000000E+00 0.  1.
         11    1    3    3    0    0 -0.22215427379E+01 -0.11913360582E+02 -0.22418493577E+02  0.25484353376E+02  0.51100000000E-03 0. -1.
        -11    1    3    3    0    0  0.15058892384E+02  0.22131895850E+02 -0.10221707263E+02  0.28654395010E+02  0.51100000000E-03 0.  1.
        -12    1    3    3    0    0 -0.11879749637E+02 -0.10670345597E+02  0.32118285545E+02  0.35868774623E+02  0.00000000000E+00 0.  1.
</event>
<event>
 7    1  0.2294706E-015  0.9000784E+02  0.7816164E-02  0.1186339E+00
        -11   -1    0    0    0    0  0.00000000000E+00  0.00000000000E+00  0.45593999997E+02  0.45594000000E+02  0.51100000000E-03 0.  1.
         11   -1    0    0    0    0 -0.00000000000E+00 -0.00000000000E+00 -0.45593999997E+02  0.45594000000E+02  0.51100000000E-03 0. -1.
    9900012    2    1    2    0    0 -0.21755617175E-01 -0.10558776993E+01 -0.52671584831E+00  0.90007838737E+02  0.90000101408E+02 0.  0.
        -12    1    1    2    0    0  0.21755617175E-01  0.10558776993E+01  0.52671584831E+00  0.11801612634E+01  0.00000000000E+00 0.  1.
         11    1    3    3    0    0  0.91842065819E+01  0.49160140322E+01  0.27697917392E+01  0.10779081178E+02  0.51100000000E-03 0. -1.
        -11    1    3    3    0    0  0.19362600910E+02  0.12644009963E+02  0.25624797414E+02  0.34516829877E+02  0.51100000000E-03 0.  1.
         12    1    3    3    0    0 -0.28568563109E+02 -0.18615901694E+02 -0.28921305002E+02  0.44711927682E+02  0.00000000000E+00 0. -1.
</event>
<event>
 7    1  0.2294706E-015  0.9000774E+02  0.7816164E-02  0.1186339E+00
        -11   -1    0    0    0    0  0.00000000000E+00  0.00000000000E+00  0.45593999997E+02  0.45594000000E+02  0.51100000000E-03 0.  1.
         11   -1    0    0    0    0 -0.00000000000E+00 -0.00000000000E+00 -0.45593999997E+02  0.45594000000E+02  0.51100000000E-03 0. -1.
    9900012    2    1    2    0    0  0.10934710070E+00  0.23375560944E-02 -0.11751790013E+01  0.90007742427E+02  0.90000003827E+02 0.  0.
        -12    1    1    2    0    0 -0.10934710070E+00 -0.23375560944E-02  0.11751790013E+01  0.11802575726E+01  0.00000000000E+00 0.  1.
         11    1    3    3    0    0  0.78405497194E+01 -0.36645790886E+02 -0.17734530742E+02  0.41459640501E+02  0.51100000000E-03 0. -1.
        -11    1    3    3    0    0 -0.64332713438E+01  0.62830456829E+01 -0.59018576534E+01  0.10756187394E+02  0.51100000000E-03 0.  1.
        -12    1    3    3    0    0 -0.12979312750E+01  0.30365082759E+02  0.22461209394E+02  0.37791914532E+02  0.00000000000E+00 0.  1.
</event>
<event>
 7    1  0.2294706E-015  0.9000772E+02  0.7816164E-02  0.1186339E+00
        -11   -1    0    0    0    0  0.00000000000E+00  0.00000000000E+00  0.45593999997E+02  0.45594000000E+02  0.51100000000E-03 0.  1.
         11   -1    0    0    0    0 -0.00000000000E+00 -0.00000000000E+00 -0.45593999997E+02  0.45594000000E+02  0.51100000000E-03 0. -1.
    9900012    2    1    2    0    0  0.23604146559E+00  0.11471613222E+01 -0.14619369975E+00  0.90007717292E+02  0.89999978360E+02 0.  0.
        -12    1    1    2    0    0 -0.23604146559E+00 -0.11471613222E+01  0.14619369975E+00  0.11802827079E+01  0.00000000000E+00 0.  1.
         11    1    3    3    0    0  0.25335728768E+02 -0.26942439032E+02 -0.15657910009E+02  0.40161727046E+02  0.51100000000E-03 0. -1.
        -11    1    3    3    0    0  0.63541087205E+01  0.48171746709E+01  0.68270900257E+00  0.80028720648E+01  0.51100000000E-03 0.  1.
        -12    1    3    3    0    0 -0.31453796023E+02  0.23272425684E+02  0.14829007306E+02  0.41843118181E+02  0.00000000000E+00 0.  1.
</event>
<event>
 7    1  0.2294706E-015  0.9000770E+02  0.7816164E-02  0.1186339E+00
        -11   -1    0    0    0    0  0.00000000000E+00  0.00000000000E+00  0.45593999997E+02  0.45594000000E+02  0.51100000000E-03 0.  1.
         11   -1    0    0    0    0 -0.00000000000E+00 -0.00000000000E+00 -0.45593999997E+02  0.45594000000E+02  0.51100000000E-03 0. -1.
    9900012    2    1    2    0    0 -0.65864663826E+00 -0.35216383309E+00 -0.91393828018E+00  0.90007695828E+02  0.89999956613E+02 0.  0.
        -12    1    1    2    0    0  0.65864663826E+00  0.35216383309E+00  0.91393828018E+00  0.11803041724E+01  0.00000000000E+00 0.  1.
         11    1    3    3    0    0 -0.23869924485E+01 -0.39838954082E+01 -0.73379470645E+01  0.86841593120E+01  0.51100000000E-03 0. -1.
        -11    1    3    3    0    0 -0.10245998368E+02 -0.37072710033E+02  0.36772205769E+00  0.38464289042E+02  0.51100000000E-03 0.  1.
         12    1    3    3    0    0  0.11974344179E+02  0.40704441608E+02  0.60562867267E+01  0.42859247474E+02  0.00000000000E+00 0. -1.
</event>
<event>
 7    1  0.2294706E-015  0.9000774E+02  0.7816164E-02  0.1186339E+00
        -11   -1    0    0    0    0  0.00000000000E+00  0.00000000000E+00  0.45593999997E+02  0.45594000000E+02  0.51100000000E-03 0. -1.
         11   -1    0    0    0    0 -0.00000000000E+00 -0.00000000000E+00 -0.45593999997E+02  0.45594000000E+02  0.51100000000E-03 0.  1.
    9900012    2    1    2    0    0 -0.70734941152E+00 -0.73080693270E+00 -0.59883267905E+00  0.90007736241E+02  0.89999997560E+02 0.  0.
        -12    1    1    2    0    0  0.70734941152E+00  0.73080693270E+00  0.59883267905E+00  0.11802637588E+01  0.00000000000E+00 0.  1.
         11    1    3    3    0    0 -0.30732808779E+02 -0.26378792890E+02  0.40345493392E+01  0.40701644173E+02  0.51100000000E-03 0. -1.
        -11    1    3    3    0    0 -0.25800988043E+01  0.64736684487E+01 -0.88296100316E+01  0.11248435740E+02  0.51100000000E-03 0.  1.
        -12    1    3    3    0    0  0.32605558172E+02  0.19174317508E+02  0.41962280134E+01  0.38057656328E+02  0.00000000000E+00 0.  1.
</event>
<event>
 7    1  0.2294706E-015  0.9000777E+02  0.7816164E-02  0.1186339E+00
        -11   -1    0    0    0    0  0.00000000000E+00  0.00000000000E+00  0.45593999997E+02  0.45594000000E+02  0.51100000000E-03 0.  1.
         11   -1    0    0    0    0 -0.00000000000E+00 -0.00000000000E+00 -0.45593999997E+02  0.45594000000E+02  0.51100000000E-03 0. -1.
    9900012    2    1    2    0    0 -0.56383125351E+00 -0.10354277665E+01 -0.54107421997E-01  0.90007769533E+02  0.90000031291E+02 0.  0.
        -12    1    1    2    0    0  0.56383125351E+00  0.10354277665E+01  0.54107421997E-01  0.11802304670E+01  0.00000000000E+00 0.  1.
         11    1    3    3    0    0  0.29142366473E+02 -0.28754357408E+02  0.94069797382E+01  0.42006926353E+02  0.51100000000E-03 0. -1.
        -11    1    3    3    0    0 -0.91792371468E+01 -0.25896857799E+01  0.17923913302E+01  0.97045110118E+01  0.51100000000E-03 0.  1.
        -12    1    3    3    0    0 -0.20526960579E+02  0.30308615421E+02 -0.11253478490E+02  0.38296332168E+02  0.00000000000E+00 0.  1.
</event>
<event>
 7    1  0.2294706E-015  0.9000772E+02  0.7816164E-02  0.1186339E+00
        -11   -1    0    0    0    0  0.00000000000E+00  0.00000000000E+00  0.45593999997E+02  0.45594000000E+02  0.51100000000E-03 0. -1.
         11   -1    0    0    0    0 -0.00000000000E+00 -0.00000000000E+00 -0.45593999997E+02  0.45594000000E+02  0.51100000000E-03 0.  1.
    9900012    2    1    2    0    0 -0.67884695959E+00  0.92254027341E+00  0.28487689078E+00  0.90007716732E+02  0.89999977793E+02 0.  0.
        -12    1    1    2    0    0  0.67884695959E+00 -0.92254027341E+00 -0.28487689078E+00  0.11802832683E+01  0.00000000000E+00 0.  1.
         11    1    3    3    0    0  0.65763201490E+01 -0.32793869743E+01 -0.38745771486E+01  0.83075094927E+01  0.51100000000E-03 0. -1.
        -11    1    3    3    0    0  0.27775586430E+02 -0.39450561113E+01 -0.23285599382E+02  0.36459097741E+02  0.51100000000E-03 0.  1.
         12    1    3    3    0    0 -0.35030753539E+02  0.81469833590E+01  0.27445053421E+02  0.45241109498E+02  0.00000000000E+00 0. -1.
</event>
<event>
 7    1  0.2294706E-015  0.9000786E+02  0.7816164E-02  0.1186339E+00
        -11   -1    0    0    0    0  0.00000000000E+00  0.00000000000E+00  0.45593999997E+02  0.45594000000E+02  0.51100000000E-03 0.  1.
         11   -1    0    0    0    0 -0.00000000000E+00 -0.00000000000E+00 -0.45593999997E+02  0.45594000000E+02  0.51100000000E-03 0. -1.
    9900012    2    1    2    0    0 -0.73895116246E+00  0.37693180335E-01 -0.91938685954E+00  0.90007855181E+02  0.90000118069E+02 0.  0.
        -12    1    1    2    0    0  0.73895116246E+00 -0.37693180335E-01  0.91938685954E+00  0.11801448190E+01  0.00000000000E+00 0.  1.
         11    1    3    3    0    0 -0.69264608490E+01 -0.27396236575E+02 -0.27963481364E+02  0.39755325789E+02  0.51100000000E-03 0. -1.
        -11    1    3    3    0    0 -0.25447388841E+01  0.71915412501E+01 -0.65608532526E+01  0.10061747224E+02  0.51100000000E-03 0.  1.
        -12    1    3    3    0    0  0.87322485706E+01  0.20242388505E+02  0.33604947757E+02  0.40190782168E+02  0.00000000000E+00 0.  1.
</event>
<event>
 7    1  0.2294706E-015  0.9000769E+02  0.7816164E-02  0.1186339E+00
        -11   -1    0    0    0    0  0.00000000000E+00  0.00000000000E+00  0.45593999997E+02  0.45594000000E+02  0.51100000000E-03 0. -1.
         11   -1    0    0    0    0 -0.00000000000E+00 -0.00000000000E+00 -0.45593999997E+02  0.45594000000E+02  0.51100000000E-03 0.  1.
    9900012    2    1    2    0    0 -0.43033072036E+00 -0.60753962012E+00  0.91588873189E+00  0.90007686021E+02  0.89999946677E+02 0.  0.
        -12    1    1    2    0    0  0.43033072036E+00  0.60753962012E+00 -0.91588873189E+00  0.11803139786E+01  0.00000000000E+00 0.  1.
         11    1    3    3    0    0  0.59554153844E-01  0.11811240048E+02  0.35507491129E+02  0.37420460509E+02  0.51100000000E-03 0. -1.
        -11    1    3    3    0    0 -0.39984101316E+01 -0.61624269098E+00  0.76140782636E+01  0.86221358548E+01  0.51100000000E-03 0.  1.
        -12    1    3    3    0    0  0.35085252574E+01 -0.11802536977E+02 -0.42205680661E+02  0.43965089658E+02  0.00000000000E+00 0.  1.
</event>
<event>
 7    1  0.2294706E-015  0.9000778E+02  0.7816164E-02  0.1186339E+00
        -11   -1    0    0    0    0  0.00000000000E+00  0.00000000000E+00  0.45593999997E+02  0.45594000000E+02  0.51100000000E-03 0. -1.
         11   -1    0    0    0    0 -0.00000000000E+00 -0.00000000000E+00 -0.45593999997E+02  0.45594000000E+02  0.51100000000E-03 0.  1.
    9900012    2    1    2    0    0  0.24777140115E+00  0.11412113393E+01  0.17079365587E+00  0.90007777792E+02  0.90000039658E+02 0.  0.
        -12    1    1    2    0    0 -0.24777140115E+00 -0.11412113393E+01 -0.17079365587E+00  0.11802222084E+01  0.00000000000E+00 0.  1.
         11    1    3    3    0    0 -0.15552920014E+02  0.11773158539E+02 -0.43765174415E+01  0.19991360337E+02  0.51100000000E-03 0. -1.
        -11    1    3    3    0    0  0.21215877348E+02  0.11288772951E+02 -0.23768001781E+02  0.33800410579E+02  0.51100000000E-03 0.  1.
         12    1    3    3    0    0 -0.54151859333E+01 -0.21920720151E+02  0.28315312878E+02  0.36216006876E+02  0.00000000000E+00 0. -1.
</event>
<event>
 7    1  0.2294706E-015  0.9000745E+02  0.7816164E-02  0.1186340E+00
        -11   -1    0    0    0    0  0.00000000000E+00  0.00000000000E+00  0.45593999997E+02  0.45594000000E+02  0.51100000000E-03 0. -1.
         11   -1    0    0    0    0 -0.00000000000E+00 -0.00000000000E+00 -0.45593999997E+02  0.45594000000E+02  0.51100000000E-03 0.  1.
    9900012    2    1    2    0    0 -0.49739958919E+00  0.26367518869E+00  0.10376760973E+01  0.90007448163E+02  0.89999705678E+02 0.  0.
        -12    1    1    2    0    0  0.49739958919E+00 -0.26367518869E+00 -0.10376760973E+01  0.11805518368E+01  0.00000000000E+00 0.  1.
         11    1    3    3    0    0  0.29702798123E+01  0.56402667500E+01 -0.50193164489E+01  0.81134893264E+01  0.51100000000E-03 0. -1.
        -11    1    3    3    0    0 -0.13844161662E+02 -0.10428499575E+02 -0.35101763198E+02  0.39147773824E+02  0.51100000000E-03 0.  1.
         12    1    3    3    0    0  0.10376482261E+02  0.50519080132E+01  0.41158755744E+02  0.42746185012E+02  0.00000000000E+00 0. -1.
</event>
<event>
 7    1  0.2294706E-015  0.9000773E+02  0.7816164E-02  0.1186339E+00
        -11   -1    0    0    0    0  0.00000000000E+00  0.00000000000E+00  0.45593999997E+02  0.45594000000E+02  0.51100000000E-03 0.  1.
         11   -1    0    0    0    0 -0.00000000000E+00 -0.00000000000E+00 -0.45593999997E+02  0.45594000000E+02  0.51100000000E-03 0. -1.
    9900012    2    1    2    0    0  0.10969809876E+01 -0.30545336001E+00 -0.31041829947E+00  0.90007733690E+02  0.89999994975E+02 0.  0.
        -12    1    1    2    0    0 -0.10969809876E+01  0.30545336001E+00  0.31041829947E+00  0.11802663102E+01  0.00000000000E+00 0.  1.
         11    1    3    3    0    0 -0.14792105453E+02  0.27048790421E+02 -0.30849251874E+02  0.43613298298E+02  0.51100000000E-03 0. -1.
        -11    1    3    3    0    0 -0.18636692251E+01 -0.92825075877E+01  0.66080614816E+01  0.11545764890E+02  0.51100000000E-03 0.  1.
        -12    1    3    3    0    0  0.17752755666E+02 -0.18071736193E+02  0.23930772093E+02  0.34848670502E+02  0.00000000000E+00 0.  1.
</event>
<event>
 7    1  0.2294706E-015  0.9000782E+02  0.7816164E-02  0.1186339E+00
        -11   -1    0    0    0    0  0.00000000000E+00  0.00000000000E+00  0.45593999997E+02  0.45594000000E+02  0.51100000000E-03 0.  1.
         11   -1    0    0    0    0 -0.00000000000E+00 -0.00000000000E+00 -0.45593999997E+02  0.45594000000E+02  0.51100000000E-03 0. -1.
    9900012    2    1    2    0    0 -0.72160319658E+00 -0.13403530553E+00 -0.92419509344E+00  0.90007824925E+02  0.90000087414E+02 0.  0.
        -12    1    1    2    0    0  0.72160319658E+00  0.13403530553E+00  0.92419509344E+00  0.11801750748E+01  0.00000000000E+00 0.  1.
         11    1    3    3    0    0  0.33230109120E+02  0.16829862996E+02  0.27452901647E+01  0.37349980709E+02  0.51100000000E-03 0. -1.
        -11    1    3    3    0    0 -0.23801957789E+01  0.90673636614E+01  0.52971643617E+01  0.10767653702E+02  0.51100000000E-03 0.  1.
        -12    1    3    3    0    0 -0.31571516538E+02 -0.26031261963E+02 -0.89666496199E+01  0.41890190514E+02  0.00000000000E+00 0.  1.
</event>
<event>
 7    1  0.2294706E-015  0.9000772E+02  0.7816164E-02  0.1186339E+00
        -11   -1    0    0    0    0  0.00000000000E+00  0.00000000000E+00  0.45593999997E+02  0.45594000000E+02  0.51100000000E-03 0.  1.
         11   -1    0    0    0    0 -0.00000000000E+00 -0.00000000000E+00 -0.45593999997E+02  0.45594000000E+02  0.51100000000E-03 0. -1.
    9900012    2    1    2    0    0  0.10086219850E+01  0.61283683950E+00  0.12731462443E-01  0.90007724867E+02  0.89999986035E+02 0.  0.
        -12    1    1    2    0    0 -0.10086219850E+01 -0.61283683950E+00 -0.12731462443E-01  0.11802751334E+01  0.00000000000E+00 0.  1.
         11    1    3    3    0    0  0.27422945490E+02  0.18087983352E+02 -0.29957138167E+02  0.44459230858E+02  0.51100000000E-03 0. -1.
        -11    1    3    3    0    0 -0.10979692080E+02 -0.27686825748E+01  0.41391436960E+01  0.12056191445E+02  0.51100000000E-03 0.  1.
        -12    1    3    3    0    0 -0.15434631425E+02 -0.14706463937E+02  0.25830725933E+02  0.33492302564E+02  0.00000000000E+00 0.  1.
</event>
<event>
 7    1  0.2294706E-015  0.9000768E+02  0.7816164E-02  0.1186339E+00
        -11   -1    0    0    0    0  0.00000000000E+00  0.00000000000E+00  0.45593999997E+02  0.45594000000E+02  0.51100000000E-03 0.  1.
         11   -1    0    0    0    0 -0.00000000000E+00 -0.00000000000E+00 -0.45593999997E+02  0.45594000000E+02  0.51100000000E-03 0. -1.
    9900012    2    1    2    0    0 -0.20671298411E+00 -0.67559439745E+00 -0.94550902481E+00  0.90007684210E+02  0.89999944842E+02 0.  0.
        -12    1    1    2    0    0  0.20671298411E+00  0.67559439745E+00  0.94550902481E+00  0.11803157898E+01  0.00000000000E+00 0.  1.
         11    1    3    3    0    0  0.66186452345E+01  0.64365270504E+01  0.32043130783E+01  0.97725619862E+01  0.51100000000E-03 0. -1.
        -11    1    3    3    0    0 -0.20800683463E+01  0.27976034026E+02  0.22465368680E+02  0.35939921457E+02  0.51100000000E-03 0.  1.
         12    1    3    3    0    0 -0.47452898723E+01 -0.35088155474E+02 -0.26615190783E+02  0.44295200767E+02  0.00000000000E+00 0. -1.
</event>
<event>
 7    1  0.2294706E-015  0.9000768E+02  0.7816164E-02  0.1186339E+00
        -11   -1    0    0    0    0  0.00000000000E+00  0.00000000000E+00  0.45593999997E+02  0.45594000000E+02  0.51100000000E-03 0.  1.
         11   -1    0    0    0    0 -0.00000000000E+00 -0.00000000000E+00 -0.45593999997E+02  0.45594000000E+02  0.51100000000E-03 0. -1.
    9900012    2    1    2    0    0  0.41571480177E+00 -0.46819823925E+00 -0.10005580729E+01  0.90007684430E+02  0.89999945064E+02 0.  0.
        -12    1    1    2    0    0 -0.41571480177E+00  0.46819823925E+00  0.10005580729E+01  0.11803155701E+01  0.00000000000E+00 0.  1.
         11    1    3    3    0    0 -0.54584159992E+01 -0.75845847460E+01 -0.57156660972E+01  0.10953952263E+02  0.51100000000E-03 0. -1.
        -11    1    3    3    0    0 -0.21270679539E+02 -0.17896459325E+02  0.24605834111E+02  0.37123740881E+02  0.51100000000E-03 0.  1.
         12    1    3    3    0    0  0.27144810339E+02  0.25012845832E+02 -0.19890726087E+02  0.41929991286E+02  0.00000000000E+00 0. -1.
</event>
<event>
 7    1  0.2294706E-015  0.9000763E+02  0.7816164E-02  0.1186339E+00
        -11   -1    0    0    0    0  0.00000000000E+00  0.00000000000E+00  0.45593999997E+02  0.45594000000E+02  0.51100000000E-03 0. -1.
         11   -1    0    0    0    0 -0.00000000000E+00 -0.00000000000E+00 -0.45593999997E+02  0.45594000000E+02  0.51100000000E-03 0.  1.
    9900012    2    1    2    0    0  0.49053901360E+00  0.95242203964E+00 -0.49551183560E+00  0.90007632157E+02  0.89999892101E+02 0.  0.
        -12    1    1    2    0    0 -0.49053901360E+00 -0.95242203964E+00  0.49551183560E+00  0.11803678430E+01  0.00000000000E+00 0.  1.
         11    1    3    3    0    0  0.45127744989E+01  0.13011199331E+02  0.40688412348E+02  0.42955830121E+02  0.51100000000E-03 0. -1.
        -11    1    3    3    0    0  0.37564032566E+01  0.59348670279E+00 -0.61851587815E+00  0.38529669147E+01  0.51100000000E-03 0.  1.
        -12    1    3    3    0    0 -0.77786387420E+01 -0.12652263994E+02 -0.40565408306E+02  0.43198835121E+02  0.00000000000E+00 0.  1.
</event>
<event>
 7    1  0.2294706E-015  0.9000775E+02  0.7816164E-02  0.1186339E+00
        -11   -1    0    0    0    0  0.00000000000E+00  0.00000000000E+00  0.45593999997E+02  0.45594000000E+02  0.51100000000E-03 0. -1.
         11   -1    0    0    0    0 -0.00000000000E+00 -0.00000000000E+00 -0.45593999997E+02  0.45594000000E+02  0.51100000000E-03 0.  1.
    9900012    2    1    2    0    0 -0.11508774892E+01 -0.25814073901E+00  0.42902587918E-01  0.90007747371E+02  0.90000008836E+02 0.  0.
        -12    1    1    2    0    0  0.11508774892E+01  0.25814073901E+00 -0.42902587918E-01  0.11802526291E+01  0.00000000000E+00 0.  1.
         11    1    3    3    0    0  0.75482132604E+01 -0.15376932251E+02  0.76621165282E+01  0.18765223122E+02  0.51100000000E-03 0. -1.
        -11    1    3    3    0    0 -0.33410582438E+02  0.85675672761E+01 -0.22953597928E+02  0.41431122190E+02  0.51100000000E-03 0.  1.
         12    1    3    3    0    0  0.24711491688E+02  0.65512242357E+01  0.15334383987E+02  0.29811402059E+02  0.00000000000E+00 0. -1.
</event>
<event>
 7    1  0.2581669E-015  0.9000777E+02  0.7816164E-02  0.1186339E+00
        -11   -1    0    0    0    0  0.00000000000E+00  0.00000000000E+00  0.45593999997E+02  0.45594000000E+02  0.51100000000E-03 0. -1.
         11   -1    0    0    0    0 -0.00000000000E+00 -0.00000000000E+00 -0.45593999997E+02  0.45594000000E+02  0.51100000000E-03 0.  1.
    9900012    2    1    2    0    0 -0.20205248202E+00  0.81417562925E+00  0.83019785302E+00  0.90007773057E+02  0.90000034862E+02 0.  0.
        -12    1    1    2    0    0  0.20205248202E+00 -0.81417562925E+00 -0.83019785302E+00  0.11802269425E+01  0.00000000000E+00 0.  1.
         11    1    3    3    0    0  0.30610458233E+01 -0.58872452436E+01  0.41899053801E+02  0.42421225439E+02  0.51100000000E-03 0. -1.
        -11    1    3    3    0    0 -0.53490267876E+01  0.68887754594E+01 -0.26566595794E+01  0.91172997805E+01  0.51100000000E-03 0.  1.
        -12    1    3    3    0    0  0.20859284823E+01 -0.18735458657E+00 -0.38412196368E+02  0.38469247838E+02  0.00000000000E+00 0.  1.
</event>
<event>
 7    1  0.2294706E-015  0.9000788E+02  0.7816164E-02  0.1186339E+00
        -11   -1    0    0    0    0  0.00000000000E+00  0.00000000000E+00  0.45593999997E+02  0.45594000000E+02  0.51100000000E-03 0.  1.
         11   -1    0    0    0    0 -0.00000000000E+00 -0.00000000000E+00 -0.45593999997E+02  0.45594000000E+02  0.51100000000E-03 0. -1.
    9900012    2    1    2    0    0  0.11610399386E+01  0.13546097750E-01  0.21090488993E+00  0.90007882163E+02  0.90000145408E+02 0.  0.
        -12    1    1    2    0    0 -0.11610399386E+01 -0.13546097750E-01 -0.21090488993E+00  0.11801178366E+01  0.00000000000E+00 0.  1.
         11    1    3    3    0    0  0.18222862870E+02  0.19474108450E+02 -0.97064541935E+01  0.28381840750E+02  0.51100000000E-03 0. -1.
        -11    1    3    3    0    0 -0.13301527966E+02  0.14470207684E+02 -0.10051667119E+02  0.22076085902E+02  0.51100000000E-03 0.  1.
        -12    1    3    3    0    0 -0.37602949652E+01 -0.33930770036E+02  0.19969026202E+02  0.39549955511E+02  0.00000000000E+00 0.  1.
</event>
<event>
 7    1  0.2294706E-015  0.9000771E+02  0.7816164E-02  0.1186339E+00
        -11   -1    0    0    0    0  0.00000000000E+00  0.00000000000E+00  0.45593999997E+02  0.45594000000E+02  0.51100000000E-03 0. -1.
         11   -1    0    0    0    0 -0.00000000000E+00 -0.00000000000E+00 -0.45593999997E+02  0.45594000000E+02  0.51100000000E-03 0.  1.
    9900012    2    1    2    0    0  0.11284863643E+01 -0.25193330949E+00 -0.23692762455E+00  0.90007709118E+02  0.89999970078E+02 0.  0.
        -12    1    1    2    0    0 -0.11284863643E+01  0.25193330949E+00  0.23692762455E+00  0.11802908820E+01  0.00000000000E+00 0.  1.
         11    1    3    3    0    0 -0.96704806389E+00 -0.19576614215E+02  0.14580405910E+02  0.24428819923E+02  0.51100000000E-03 0. -1.
        -11    1    3    3    0    0  0.16391333574E+02 -0.17575947855E+02 -0.85720279816E+01  0.25516062065E+02  0.51100000000E-03 0.  1.
         12    1    3    3    0    0 -0.14295799146E+02  0.36900628761E+02 -0.62453055527E+01  0.40062827130E+02  0.00000000000E+00 0. -1.
</event>
<event>
 7    1  0.2294706E-015  0.9000771E+02  0.7816164E-02  0.1186339E+00
        -11   -1    0    0    0    0  0.00000000000E+00  0.00000000000E+00  0.45593999997E+02  0.45594000000E+02  0.51100000000E-03 0.  1.
         11   -1    0    0    0    0 -0.00000000000E+00 -0.00000000000E+00 -0.45593999997E+02  0.45594000000E+02  0.51100000000E-03 0. -1.
    9900012    2    1    2    0    0 -0.53550331723E+00  0.67856177299E-01 -0.10496301419E+01  0.90007706944E+02  0.89999967876E+02 0.  0.
        -12    1    1    2    0    0  0.53550331723E+00 -0.67856177299E-01  0.10496301419E+01  0.11802930561E+01  0.00000000000E+00 0.  1.
         11    1    3    3    0    0 -0.60802014519E+01 -0.50887173588E+01 -0.65562996701E+01  0.10288292360E+02  0.51100000000E-03 0. -1.
        -11    1    3    3    0    0 -0.21266167450E+02  0.27478794968E+02  0.22004450374E+02  0.41128212791E+02  0.51100000000E-03 0.  1.
         12    1    3    3    0    0  0.26810865584E+02 -0.22322221432E+02 -0.16497780845E+02  0.38591201793E+02  0.00000000000E+00 0. -1.
</event>
<event>
 7    1  0.2294706E-015  0.9000773E+02  0.7816164E-02  0.1186339E+00
        -11   -1    0    0    0    0  0.00000000000E+00  0.00000000000E+00  0.45593999997E+02  0.45594000000E+02  0.51100000000E-03 0. -1.
         11   -1    0    0    0    0 -0.00000000000E+00 -0.00000000000E+00 -0.45593999997E+02  0.45594000000E+02  0.51100000000E-03 0.  1.
    9900012    2    1    2    0    0 -0.10394073439E+01 -0.55229118795E+00 -0.87455108380E-01  0.90007728176E+02  0.89999989388E+02 0.  0.
        -12    1    1    2    0    0  0.10394073439E+01  0.55229118795E+00  0.87455108380E-01  0.11802718241E+01  0.00000000000E+00 0.  1.
         11    1    3    3    0    0 -0.92684166964E+01  0.31685593731E+02  0.13017491272E+02  0.35487117063E+02  0.51100000000E-03 0. -1.
        -11    1    3    3    0    0  0.42373886243E+01  0.82236188337E+01  0.44124797815E+01  0.10249553510E+02  0.51100000000E-03 0.  1.
        -12    1    3    3    0    0  0.39916207283E+01 -0.40461503753E+02 -0.17517426162E+02  0.44271057603E+02  0.00000000000E+00 0.  1.
</event>
<event>
 7    1  0.2294706E-015  0.9000761E+02  0.7816164E-02  0.1186339E+00
        -11   -1    0    0    0    0  0.00000000000E+00  0.00000000000E+00  0.45593999997E+02  0.45594000000E+02  0.51100000000E-03 0. -1.
         11   -1    0    0    0    0 -0.00000000000E+00 -0.00000000000E+00 -0.45593999997E+02  0.45594000000E+02  0.51100000000E-03 0.  1.
    9900012    2    1    2    0    0 -0.71553168760E+00 -0.17383435052E+00  0.92255387387E+00  0.90007614628E+02  0.89999874341E+02 0.  0.
        -12    1    1    2    0    0  0.71553168760E+00  0.17383435052E+00 -0.92255387387E+00  0.11803853725E+01  0.00000000000E+00 0.  1.
         11    1    3    3    0    0 -0.59449710988E+01  0.44382631794E+01 -0.57030974200E+01  0.93576803674E+01  0.51100000000E-03 0. -1.
        -11    1    3    3    0    0 -0.31958469922E+02 -0.19378263083E+02  0.14099459613E+02  0.39945658606E+02  0.51100000000E-03 0.  1.
         12    1    3    3    0    0  0.37187909333E+02  0.14766165553E+02 -0.74738083193E+01  0.40704275654E+02  0.00000000000E+00 0. -1.
</event>
<event>
 7    1  0.2294706E-015  0.9000768E+02  0.7816164E-02  0.1186339E+00
        -11   -1    0    0    0    0  0.00000000000E+00  0.00000000000E+00  0.45593999997E+02  0.45594000000E+02  0.51100000000E-03 0.  1.
         11   -1    0    0    0    0 -0.00000000000E+00 -0.00000000000E+00 -0.45593999997E+02  0.45594000000E+02  0.51100000000E-03 0. -1.
    9900012    2    1    2    0    0 -0.72879787106E+00 -0.71354742337E+00 -0.59401532271E+00  0.90007682049E+02  0.89999942652E+02 0.  0.
        -12    1    1    2    0    0  0.72879787106E+00  0.71354742337E+00  0.59401532271E+00  0.11803179512E+01  0.00000000000E+00 0.  1.
         11    1    3    3    0    0 -0.24604961012E+02 -0.12873264755E+02 -0.27812876253E+02  0.39302431700E+02  0.51100000000E-03 0. -1.
        -11    1    3    3    0    0 -0.79473675476E+01 -0.14162636030E+01  0.37708212249E+01  0.89098567049E+01  0.51100000000E-03 0.  1.
        -12    1    3    3    0    0  0.31823530688E+02  0.13575980935E+02  0.23448039705E+02  0.41795393644E+02  0.00000000000E+00 0.  1.
</event>
<event>
 7    1  0.2294706E-015  0.9000767E+02  0.7816164E-02  0.1186339E+00
        -11   -1    0    0    0    0  0.00000000000E+00  0.00000000000E+00  0.45593999997E+02  0.45594000000E+02  0.51100000000E-03 0.  1.
         11   -1    0    0    0    0 -0.00000000000E+00 -0.00000000000E+00 -0.45593999997E+02  0.45594000000E+02  0.51100000000E-03 0. -1.
    9900012    2    1    2    0    0  0.10862294293E+01 -0.39918099194E+00 -0.23226459960E+00  0.90007666707E+02  0.89999927108E+02 0.  0.
        -12    1    1    2    0    0 -0.10862294293E+01  0.39918099194E+00  0.23226459960E+00  0.11803332926E+01  0.00000000000E+00 0.  1.
         11    1    3    3    0    0  0.72303054774E+01  0.39888962700E+01 -0.99297730061E+01  0.12914681683E+02  0.51100000000E-03 0. -1.
        -11    1    3    3    0    0  0.26656614067E+01 -0.39737759283E+02  0.79996613560E+01  0.40622528795E+02  0.51100000000E-03 0.  1.
         12    1    3    3    0    0 -0.88097374549E+01  0.35349682021E+02  0.16978470505E+01  0.36470456230E+02  0.00000000000E+00 0. -1.
</event>
<event>
 7    1  0.2294706E-015  0.9000772E+02  0.7816164E-02  0.1186339E+00
        -11   -1    0    0    0    0  0.00000000000E+00  0.00000000000E+00  0.45593999997E+02  0.45594000000E+02  0.51100000000E-03 0. -1.
         11   -1    0    0    0    0 -0.00000000000E+00 -0.00000000000E+00 -0.45593999997E+02  0.45594000000E+02  0.51100000000E-03 0.  1.
    9900012    2    1    2    0    0 -0.25994508791E+00  0.11508526431E+01  0.32080010953E-01  0.90007719363E+02  0.89999980459E+02 0.  0.
        -12    1    1    2    0    0  0.25994508791E+00 -0.11508526431E+01 -0.32080010953E-01  0.11802806369E+01  0.00000000000E+00 0.  1.
         11    1    3    3    0    0 -0.31003587360E+02  0.64309017080E+01  0.11829115324E+02  0.33800989565E+02  0.51100000000E-03 0. -1.
        -11    1    3    3    0    0 -0.93584356841E+01 -0.68606929802E+01  0.50827452326E+01  0.12668217159E+02  0.51100000000E-03 0.  1.
        -12    1    3    3    0    0  0.40102077956E+02  0.15806439152E+01 -0.16879780545E+02  0.43538512639E+02  0.00000000000E+00 0.  1.
</event>
<event>
 7    1  0.2294706E-015  0.9000779E+02  0.7816164E-02  0.1186339E+00
        -11   -1    0    0    0    0  0.00000000000E+00  0.00000000000E+00  0.45593999997E+02  0.45594000000E+02  0.51100000000E-03 0. -1.
         11   -1    0    0    0    0 -0.00000000000E+00 -0.00000000000E+00 -0.45593999997E+02  0.45594000000E+02  0.51100000000E-03 0.  1.
    9900012    2    1    2    0    0 -0.35414516450E+00  0.83578148149E+00 -0.75429275295E+00  0.90007785172E+02  0.90000047137E+02 0.  0.
        -12    1    1    2    0    0  0.35414516450E+00 -0.83578148149E+00  0.75429275295E+00  0.11802148277E+01  0.00000000000E+00 0.  1.
         11    1    3    3    0    0 -0.35594890395E+02  0.32615047629E+01  0.20330958480E+02  0.41121545551E+02  0.51100000000E-03 0. -1.
        -11    1    3    3    0    0  0.68995194137E+01 -0.43020716376E+00  0.63528623205E+01  0.93886796871E+01  0.51100000000E-03 0.  1.
        -12    1    3    3    0    0  0.28341225817E+02 -0.19955161176E+01 -0.27438113553E+02  0.39497559934E+02  0.00000000000E+00 0.  1.
</event>
<event>
 7    1  0.2294706E-015  0.9000771E+02  0.7816164E-02  0.1186339E+00
        -11   -1    0    0    0    0  0.00000000000E+00  0.00000000000E+00  0.45593999997E+02  0.45594000000E+02  0.51100000000E-03 0.  1.
         11   -1    0    0    0    0 -0.00000000000E+00 -0.00000000000E+00 -0.45593999997E+02  0.45594000000E+02  0.51100000000E-03 0. -1.
    9900012    2    1    2    0    0 -0.11575244596E+00 -0.75712964064E+00 -0.89802360287E+00  0.90007707531E+02  0.89999968470E+02 0.  0.
        -12    1    1    2    0    0  0.11575244596E+00  0.75712964064E+00  0.89802360287E+00  0.11802924692E+01  0.00000000000E+00 0.  1.
         11    1    3    3    0    0 -0.42143672122E+01 -0.85050081342E+01  0.63001380135E+01  0.11392444585E+02  0.51100000000E-03 0. -1.
        -11    1    3    3    0    0  0.26974111132E+02 -0.95472622946E+01 -0.30384454546E+02  0.41736889762E+02  0.51100000000E-03 0.  1.
         12    1    3    3    0    0 -0.22875496366E+02  0.17295140788E+02  0.23186292930E+02  0.36878373184E+02  0.00000000000E+00 0. -1.
</event>
<event>
 7    1  0.2294706E-015  0.9000772E+02  0.7816164E-02  0.1186339E+00
        -11   -1    0    0    0    0  0.00000000000E+00  0.00000000000E+00  0.45593999997E+02  0.45594000000E+02  0.51100000000E-03 0. -1.
         11   -1    0    0    0    0 -0.00000000000E+00 -0.00000000000E+00 -0.45593999997E+02  0.45594000000E+02  0.51100000000E-03 0.  1.
    9900012    2    1    2    0    0 -0.10417261448E+01  0.17350183953E+00  0.52702761213E+00  0.90007722764E+02  0.89999983905E+02 0.  0.
        -12    1    1    2    0    0  0.10417261448E+01 -0.17350183953E+00 -0.52702761213E+00  0.11802772356E+01  0.00000000000E+00 0.  1.
         11    1    3    3    0    0  0.10818595015E+02  0.11701669325E+02 -0.19253897468E-01  0.15936481233E+02  0.51100000000E-03 0. -1.
        -11    1    3    3    0    0  0.24439481968E+02 -0.13392756196E+02  0.18581452715E+02  0.33495142673E+02  0.51100000000E-03 0.  1.
         12    1    3    3    0    0 -0.36299803128E+02  0.18645887105E+01 -0.18035171205E+02  0.40576098859E+02  0.00000000000E+00 0. -1.
</event>
<event>
 7    1  0.2294706E-015  0.9000777E+02  0.7816164E-02  0.1186339E+00
        -11   -1    0    0    0    0  0.00000000000E+00  0.00000000000E+00  0.45593999997E+02  0.45594000000E+02  0.51100000000E-03 0.  1.
         11   -1    0    0    0    0 -0.00000000000E+00 -0.00000000000E+00 -0.45593999997E+02  0.45594000000E+02  0.51100000000E-03 0. -1.
    9900012    2    1    2    0    0  0.54448531304E+00 -0.39966781079E+00 -0.96785396745E+00  0.90007771244E+02  0.90000033024E+02 0.  0.
        -12    1    1    2    0    0 -0.54448531304E+00  0.39966781079E+00  0.96785396745E+00  0.11802287564E+01  0.00000000000E+00 0.  1.
         11    1    3    3    0    0  0.14817294441E+02 -0.40772723196E+01 -0.25589098853E+00  0.15370160850E+02  0.51100000000E-03 0. -1.
        -11    1    3    3    0    0 -0.78973393293E+01  0.32009227416E+02  0.20367941623E+02  0.38753214763E+02  0.51100000000E-03 0.  1.
         12    1    3    3    0    0 -0.63754697981E+01 -0.28331622907E+02 -0.21079904602E+02  0.35884395630E+02  0.00000000000E+00 0. -1.
</event>
<event>
 7    1  0.2294706E-015  0.9000760E+02  0.7816164E-02  0.1186339E+00
        -11   -1    0    0    0    0  0.00000000000E+00  0.00000000000E+00  0.45593999997E+02  0.45594000000E+02  0.51100000000E-03 0.  1.
         11   -1    0    0    0    0 -0.00000000000E+00 -0.00000000000E+00 -0.45593999997E+02  0.45594000000E+02  0.51100000000E-03 0. -1.
    9900012    2    1    2    0    0  0.10913754445E+01  0.14345554015E+00 -0.42623160193E+00  0.90007596157E+02  0.89999855627E+02 0.  0.
        -12    1    1    2    0    0 -0.10913754445E+01 -0.14345554015E+00  0.42623160193E+00  0.11804038425E+01  0.00000000000E+00 0.  1.
         11    1    3    3    0    0 -0.10593032489E+02 -0.30331043108E+02 -0.20458603368E+02  0.38088567384E+02  0.51100000000E-03 0. -1.
        -11    1    3    3    0    0  0.54301894627E+01  0.45015166036E+01 -0.96704385281E+01  0.11969460761E+02  0.51100000000E-03 0.  1.
        -12    1    3    3    0    0  0.62542184708E+01  0.25972982045E+02  0.29702810294E+02  0.39949568012E+02  0.00000000000E+00 0.  1.
</event>
<event>
 7    1  0.2294706E-015  0.9000777E+02  0.7816164E-02  0.1186339E+00
        -11   -1    0    0    0    0  0.00000000000E+00  0.00000000000E+00  0.45593999997E+02  0.45594000000E+02  0.51100000000E-03 0.  1.
         11   -1    0    0    0    0 -0.00000000000E+00 -0.00000000000E+00 -0.45593999997E+02  0.45594000000E+02  0.51100000000E-03 0. -1.
    9900012    2    1    2    0    0 -0.64815724436E+00 -0.86689512134E+00 -0.47045413325E+00  0.90007770337E+02  0.90000032106E+02 0.  0.
        -12    1    1    2    0    0  0.64815724436E+00  0.86689512134E+00  0.47045413325E+00  0.11802296625E+01  0.00000000000E+00 0.  1.
         11    1    3    3    0    0  0.14373738222E+02  0.16919879529E+02 -0.14518258230E+02  0.26526712877E+02  0.51100000000E-03 0. -1.
        -11    1    3    3    0    0  0.10680011831E+02  0.15634080042E+02 -0.32812118199E+00  0.18936598829E+02  0.51100000000E-03 0.  1.
        -12    1    3    3    0    0 -0.25701907298E+02 -0.33420854692E+02  0.14375925279E+02  0.44544458631E+02  0.00000000000E+00 0.  1.
</event>
<event>
 7    1  0.2294706E-015  0.9000779E+02  0.7816164E-02  0.1186339E+00
        -11   -1    0    0    0    0  0.00000000000E+00  0.00000000000E+00  0.45593999997E+02  0.45594000000E+02  0.51100000000E-03 0. -1.
         11   -1    0    0    0    0 -0.00000000000E+00 -0.00000000000E+00 -0.45593999997E+02  0.45594000000E+02  0.51100000000E-03 0.  1.
    9900012    2    1    2    0    0 -0.68521804737E+00 -0.46379295084E+00  0.84159290227E+00  0.90007785491E+02  0.90000047460E+02 0.  0.
        -12    1    1    2    0    0  0.68521804737E+00  0.46379295084E+00 -0.84159290227E+00  0.11802145088E+01  0.00000000000E+00 0.  1.
         11    1    3    3    0    0 -0.10761293566E+02 -0.14371907612E+01  0.18058040231E+02  0.21070447878E+02  0.51100000000E-03 0. -1.
        -11    1    3    3    0    0 -0.27647571806E+02  0.69509982346E+01 -0.60321365569E+01  0.29139170800E+02  0.51100000000E-03 0.  1.
        -12    1    3    3    0    0  0.37723647324E+02 -0.59776004243E+01 -0.11184310772E+02  0.39798166814E+02  0.00000000000E+00 0.  1.
</event>
<event>
 7    1  0.2294706E-015  0.9000774E+02  0.7816164E-02  0.1186339E+00
        -11   -1    0    0    0    0  0.00000000000E+00  0.00000000000E+00  0.45593999997E+02  0.45594000000E+02  0.51100000000E-03 0. -1.
         11   -1    0    0    0    0 -0.00000000000E+00 -0.00000000000E+00 -0.45593999997E+02  0.45594000000E+02  0.51100000000E-03 0.  1.
    9900012    2    1    2    0    0  0.73621646197E+00  0.92037905670E+00  0.62547621074E-01  0.90007735414E+02  0.89999996722E+02 0.  0.
        -12    1    1    2    0    0 -0.73621646197E+00 -0.92037905670E+00 -0.62547621074E-01  0.11802645855E+01  0.00000000000E+00 0.  1.
         11    1    3    3    0    0 -0.45078962517E+01  0.59217084569E+01 -0.54845908129E+01  0.92449173231E+01  0.51100000000E-03 0. -1.
        -11    1    3    3    0    0 -0.17232136545E+02 -0.35255695078E+02  0.14823927953E+02  0.41948294430E+02  0.51100000000E-03 0.  1.
         12    1    3    3    0    0  0.22476249259E+02  0.30254365678E+02 -0.92767895189E+01  0.38814523662E+02  0.00000000000E+00 0. -1.
</event>
<event>
 7    1  0.2294706E-015  0.9000764E+02  0.7816164E-02  0.1186339E+00
        -11   -1    0    0    0    0  0.00000000000E+00  0.00000000000E+00  0.45593999997E+02  0.45594000000E+02  0.51100000000E-03 0. -1.
         11   -1    0    0    0    0 -0.00000000000E+00 -0.00000000000E+00 -0.45593999997E+02  0.45594000000E+02  0.51100000000E-03 0.  1.
    9900012    2    1    2    0    0  0.25391944143E+00  0.10582195436E+01  0.45709948845E+00  0.90007642585E+02  0.89999902667E+02 0.  0.
        -12    1    1    2    0    0 -0.25391944143E+00 -0.10582195436E+01 -0.45709948845E+00  0.11803574152E+01  0.00000000000E+00 0.  1.
         11    1    3    3    0    0  0.85479594893E+01  0.42403568280E+01  0.20675194268E+01  0.97633433977E+01  0.51100000000E-03 0. -1.
        -11    1    3    3    0    0  0.30338813478E+02 -0.10908079764E+02 -0.18731956651E+02  0.37286941516E+02  0.51100000000E-03 0.  1.
         12    1    3    3    0    0 -0.38632853525E+02  0.77259424798E+01  0.17121536712E+02  0.42957357671E+02  0.00000000000E+00 0. -1.
</event>
<event>
 7    1  0.2294706E-015  0.9000778E+02  0.7816164E-02  0.1186339E+00
        -11   -1    0    0    0    0  0.00000000000E+00  0.00000000000E+00  0.45593999997E+02  0.45594000000E+02  0.51100000000E-03 0.  1.
         11   -1    0    0    0    0 -0.00000000000E+00 -0.00000000000E+00 -0.45593999997E+02  0.45594000000E+02  0.51100000000E-03 0. -1.
    9900012    2    1    2    0    0 -0.10557877874E+01 -0.37579514653E+00  0.37015861659E+00  0.90007776612E+02  0.90000038463E+02 0.  0.
        -12    1    1    2    0    0  0.10557877874E+01  0.37579514653E+00 -0.37015861659E+00  0.11802233880E+01  0.00000000000E+00 0.  1.
         11    1    3    3    0    0  0.22408018824E+00 -0.98279569948E+01  0.39600338825E+01  0.10598151690E+02  0.51100000000E-03 0. -1.
        -11    1    3    3    0    0 -0.57156034395E+01  0.24803162379E+02  0.31709824495E+02  0.40661750534E+02  0.51100000000E-03 0.  1.
         12    1    3    3    0    0  0.44357354639E+01 -0.15351000531E+02 -0.35299699761E+02  0.38747874389E+02  0.00000000000E+00 0. -1.
</event>
<event>
 7    1  0.2294706E-015  0.9000772E+02  0.7816164E-02  0.1186339E+00
        -11   -1    0    0    0    0  0.00000000000E+00  0.00000000000E+00  0.45593999997E+02  0.45594000000E+02  0.51100000000E-03 0.  1.
         11   -1    0    0    0    0 -0.00000000000E+00 -0.00000000000E+00 -0.45593999997E+02  0.45594000000E+02  0.51100000000E-03 0. -1.
    9900012    2    1    2    0    0  0.49245184917E+00 -0.43340283087E+00 -0.98118219978E+00  0.90007718107E+02  0.89999979186E+02 0.  0.
        -12    1    1    2    0    0 -0.49245184917E+00  0.43340283087E+00  0.98118219978E+00  0.11802818929E+01  0.00000000000E+00 0.  1.
         11    1    3    3    0    0 -0.84005986516E+01 -0.10080624355E+01 -0.32413538910E+01  0.90604979381E+01  0.51100000000E-03 0. -1.
        -11    1    3    3    0    0 -0.11521512973E+02  0.32519897192E+02 -0.16958259066E+02  0.38443094638E+02  0.51100000000E-03 0.  1.
         12    1    3    3    0    0  0.20414563474E+02 -0.31945237588E+02  0.19218430757E+02  0.42504125531E+02  0.00000000000E+00 0. -1.
</event>
<event>
 7    1  0.2294706E-015  0.9000787E+02  0.7816164E-02  0.1186339E+00
        -11   -1    0    0    0    0  0.00000000000E+00  0.00000000000E+00  0.45593999997E+02  0.45594000000E+02  0.51100000000E-03 0.  1.
         11   -1    0    0    0    0 -0.00000000000E+00 -0.00000000000E+00 -0.45593999997E+02  0.45594000000E+02  0.51100000000E-03 0. -1.
    9900012    2    1    2    0    0 -0.86967997830E-01  0.98029441555E+00 -0.65128837236E+00  0.90007865636E+02  0.90000128662E+02 0.  0.
        -12    1    1    2    0    0  0.86967997830E-01 -0.98029441555E+00  0.65128837236E+00  0.11801343643E+01  0.00000000000E+00 0.  1.
         11    1    3    3    0    0 -0.51442944011E+01  0.28343843954E+01  0.79805858447E+01  0.99089480003E+01  0.51100000000E-03 0. -1.
        -11    1    3    3    0    0 -0.10176206665E+02 -0.11585624731E+02  0.32058336788E+02  0.35574131617E+02  0.51100000000E-03 0.  1.
         12    1    3    3    0    0  0.15233533068E+02  0.97315347508E+01 -0.40690211005E+02  0.44524786018E+02  0.00000000000E+00 0. -1.
</event>
<event>
 7    1  0.2352677E-015  0.9000755E+02  0.7816164E-02  0.1186339E+00
        -11   -1    0    0    0    0  0.00000000000E+00  0.00000000000E+00  0.45593999997E+02  0.45594000000E+02  0.51100000000E-03 0.  1.
         11   -1    0    0    0    0 -0.00000000000E+00 -0.00000000000E+00 -0.45593999997E+02  0.45594000000E+02  0.51100000000E-03 0. -1.
    9900012    2    1    2    0    0  0.34000588573E+00 -0.38570402629E+00 -0.10625860713E+01  0.90007550612E+02  0.89999809480E+02 0.  0.
        -12    1    1    2    0    0 -0.34000588573E+00  0.38570402629E+00  0.10625860713E+01  0.11804493878E+01  0.00000000000E+00 0.  1.
         11    1    3    3    0    0  0.69057512753E+01 -0.14866341875E+02 -0.35520747787E+02  0.39120596174E+02  0.51100000000E-03 0. -1.
        -11    1    3    3    0    0  0.77535370339E+01  0.59891411061E+01 -0.27062704488E+01  0.10164204235E+02  0.51100000000E-03 0.  1.
        -12    1    3    3    0    0 -0.14319282424E+02  0.84914967422E+01  0.37164432164E+02  0.40722750203E+02  0.00000000000E+00 0.  1.
</event>
<event>
 7    1  0.2294706E-015  0.9000761E+02  0.7816164E-02  0.1186339E+00
        -11   -1    0    0    0    0  0.00000000000E+00  0.00000000000E+00  0.45593999997E+02  0.45594000000E+02  0.51100000000E-03 0.  1.
         11   -1    0    0    0    0 -0.00000000000E+00 -0.00000000000E+00 -0.45593999997E+02  0.45594000000E+02  0.51100000000E-03 0. -1.
    9900012    2    1    2    0    0 -0.10092951828E+01 -0.26314387411E+00 -0.55263705055E+00  0.90007606348E+02  0.89999865951E+02 0.  0.
        -12    1    1    2    0    0  0.10092951828E+01  0.26314387411E+00  0.55263705055E+00  0.11803936522E+01  0.00000000000E+00 0.  1.
         11    1    3    3    0    0 -0.80120551092E+01 -0.25712573146E+02 -0.27630903864E+02  0.38584923137E+02  0.51100000000E-03 0. -1.
        -11    1    3    3    0    0 -0.10815593050E+02  0.31340966819E+01 -0.10877266243E+01  0.11312946765E+02  0.51100000000E-03 0.  1.
        -12    1    3    3    0    0  0.17818352977E+02  0.22315332590E+02  0.28165993438E+02  0.40109736446E+02  0.00000000000E+00 0.  1.
</event>
<event>
 7    1  0.3899680E-015  0.9000776E+02  0.7816164E-02  0.1186339E+00
        -11   -1    0    0    0    0  0.00000000000E+00  0.00000000000E+00  0.45593999997E+02  0.45594000000E+02  0.51100000000E-03 0. -1.
         11   -1    0    0    0    0 -0.00000000000E+00 -0.00000000000E+00 -0.45593999997E+02  0.45594000000E+02  0.51100000000E-03 0.  1.
    9900012    2    1    2    0    0  0.29354638979E+00 -0.35303042255E+00  0.10872735899E+01  0.90007761117E+02  0.90000022763E+02 0.  0.
        -12    1    1    2    0    0 -0.29354638979E+00  0.35303042255E+00 -0.10872735899E+01  0.11802388832E+01  0.00000000000E+00 0.  1.
         11    1    3    3    0    0  0.21482829527E+00  0.19026347743E+01  0.38361908906E+02  0.38409663179E+02  0.51100000000E-03 0. -1.
        -11    1    3    3    0    0 -0.78181212441E+01  0.25241607389E+01  0.41172308478E+01  0.91894503285E+01  0.51100000000E-03 0.  1.
        -12    1    3    3    0    0  0.78968393387E+01 -0.47798259358E+01 -0.41391866164E+02  0.42408647610E+02  0.00000000000E+00 0.  1.
</event>
<event>
 7    1  0.2294706E-015  0.9000772E+02  0.7816164E-02  0.1186339E+00
        -11   -1    0    0    0    0  0.00000000000E+00  0.00000000000E+00  0.45593999997E+02  0.45594000000E+02  0.51100000000E-03 0. -1.
         11   -1    0    0    0    0 -0.00000000000E+00 -0.00000000000E+00 -0.45593999997E+02  0.45594000000E+02  0.51100000000E-03 0.  1.
    9900012    2    1    2    0    0 -0.93703333993E+00 -0.47804870086E+00  0.53524889769E+00  0.90007723158E+02  0.89999984304E+02 0.  0.
        -12    1    1    2    0    0  0.93703333993E+00  0.47804870086E+00 -0.53524889769E+00  0.11802768417E+01  0.00000000000E+00 0.  1.
         11    1    3    3    0    0  0.80786210072E+00  0.68257587980E+01 -0.70997310540E+01  0.98817916211E+01  0.51100000000E-03 0. -1.
        -11    1    3    3    0    0  0.24250524535E+02  0.50543635413E+01 -0.25962815612E+02  0.35884569466E+02  0.51100000000E-03 0.  1.
         12    1    3    3    0    0 -0.25995419975E+02 -0.12358171040E+02  0.33597795564E+02  0.44241362071E+02  0.00000000000E+00 0. -1.
</event>
<event>
 7    1  0.2294706E-015  0.9000772E+02  0.7816164E-02  0.1186339E+00
        -11   -1    0    0    0    0  0.00000000000E+00  0.00000000000E+00  0.45593999997E+02  0.45594000000E+02  0.51100000000E-03 0.  1.
         11   -1    0    0    0    0 -0.00000000000E+00 -0.00000000000E+00 -0.45593999997E+02  0.45594000000E+02  0.51100000000E-03 0. -1.
    9900012    2    1    2    0    0 -0.38815496223E+00  0.10691830107E+01 -0.31502239641E+00  0.90007722196E+02  0.89999983329E+02 0.  0.
        -12    1    1    2    0    0  0.38815496223E+00 -0.10691830107E+01  0.31502239641E+00  0.11802778043E+01  0.00000000000E+00 0.  1.
         11    1    3    3    0    0 -0.14969225231E+02  0.12163107594E+02 -0.33605158483E+02  0.38746942683E+02  0.51100000000E-03 0. -1.
        -11    1    3    3    0    0  0.35883039839E+01 -0.52542096130E+01 -0.67822909845E+01  0.92995760870E+01  0.51100000000E-03 0.  1.
        -12    1    3    3    0    0  0.10992766285E+02 -0.58397149700E+01  0.40072427072E+02  0.41961203426E+02  0.00000000000E+00 0.  1.
</event>
<event>
 7    1  0.2313381E-015  0.9000779E+02  0.7816164E-02  0.1186339E+00
        -11   -1    0    0    0    0  0.00000000000E+00  0.00000000000E+00  0.45593999997E+02  0.45594000000E+02  0.51100000000E-03 0.  1.
         11   -1    0    0    0    0 -0.00000000000E+00 -0.00000000000E+00 -0.45593999997E+02  0.45594000000E+02  0.51100000000E-03 0. -1.
    9900012    2    1    2    0    0 -0.18579129639E+00  0.71274025587E+00 -0.92215841547E+00  0.90007791026E+02  0.90000053068E+02 0.  0.
        -12    1    1    2    0    0  0.18579129639E+00 -0.71274025587E+00  0.92215841547E+00  0.11802089736E+01  0.00000000000E+00 0.  1.
         11    1    3    3    0    0  0.25563847777E+02 -0.11590674087E+01 -0.27407713155E+02  0.37497153106E+02  0.51100000000E-03 0. -1.
        -11    1    3    3    0    0 -0.17523373699E+01 -0.35406064968E+01 -0.87134941519E+01  0.95672128240E+01  0.51100000000E-03 0.  1.
        -12    1    3    3    0    0 -0.23997301703E+02  0.54124141614E+01  0.35199048892E+02  0.42943425096E+02  0.00000000000E+00 0.  1.
</event>
<event>
 7    1  0.2294706E-015  0.9000767E+02  0.7816164E-02  0.1186339E+00
        -11   -1    0    0    0    0  0.00000000000E+00  0.00000000000E+00  0.45593999997E+02  0.45594000000E+02  0.51100000000E-03 0.  1.
         11   -1    0    0    0    0 -0.00000000000E+00 -0.00000000000E+00 -0.45593999997E+02  0.45594000000E+02  0.51100000000E-03 0. -1.
    9900012    2    1    2    0    0  0.20267649282E+00 -0.88143238338E+00 -0.75840542011E+00  0.90007669712E+02  0.89999930152E+02 0.  0.
        -12    1    1    2    0    0 -0.20267649282E+00  0.88143238338E+00  0.75840542011E+00  0.11803302879E+01  0.00000000000E+00 0.  1.
         11    1    3    3    0    0 -0.25876511668E+02  0.16514703440E+02 -0.30886764742E+02  0.43546773960E+02  0.51100000000E-03 0. -1.
        -11    1    3    3    0    0 -0.42526637061E+00 -0.54131463114E+01  0.89949662885E+01  0.10506779871E+02  0.51100000000E-03 0.  1.
        -12    1    3    3    0    0  0.26504454532E+02 -0.11982989512E+02  0.21133393033E+02  0.35954115881E+02  0.00000000000E+00 0.  1.
</event>
<event>
 7    1  0.2294706E-015  0.9000779E+02  0.7816164E-02  0.1186339E+00
        -11   -1    0    0    0    0  0.00000000000E+00  0.00000000000E+00  0.45593999997E+02  0.45594000000E+02  0.51100000000E-03 0.  1.
         11   -1    0    0    0    0 -0.00000000000E+00 -0.00000000000E+00 -0.45593999997E+02  0.45594000000E+02  0.51100000000E-03 0. -1.
    9900012    2    1    2    0    0 -0.41303928632E+00  0.84702681292E+00 -0.71052266982E+00  0.90007788859E+02  0.90000050872E+02 0.  0.
        -12    1    1    2    0    0  0.41303928632E+00 -0.84702681292E+00  0.71052266982E+00  0.11802111414E+01  0.00000000000E+00 0.  1.
         11    1    3    3    0    0  0.35583282349E+02  0.14220847040E+02 -0.20269497110E+01  0.38373311020E+02  0.51100000000E-03 0. -1.
        -11    1    3    3    0    0  0.22263212931E+01  0.14181650567E+01 -0.89932583519E+01  0.93726407524E+01  0.51100000000E-03 0.  1.
        -12    1    3    3    0    0 -0.38222642928E+02 -0.14791985284E+02  0.10309685393E+02  0.42261837087E+02  0.00000000000E+00 0.  1.
</event>
<event>
 7    1  0.2294706E-015  0.9000794E+02  0.7816164E-02  0.1186339E+00
        -11   -1    0    0    0    0  0.00000000000E+00  0.00000000000E+00  0.45593999997E+02  0.45594000000E+02  0.51100000000E-03 0.  1.
         11   -1    0    0    0    0 -0.00000000000E+00 -0.00000000000E+00 -0.45593999997E+02  0.45594000000E+02  0.51100000000E-03 0. -1.
    9900012    2    1    2    0    0  0.61542922896E-01 -0.69502118743E+00 -0.95168597414E+00  0.90007937215E+02  0.90000201186E+02 0.  0.
        -12    1    1    2    0    0 -0.61542922896E-01  0.69502118743E+00  0.95168597414E+00  0.11800627846E+01  0.00000000000E+00 0.  1.
         11    1    3    3    0    0  0.35545542612E+02 -0.18175090927E+02 -0.10249039975E+02  0.41217257920E+02  0.51100000000E-03 0. -1.
        -11    1    3    3    0    0  0.25764342742E+01  0.70731319449E+01 -0.19215908784E+01  0.77691518742E+01  0.51100000000E-03 0.  1.
        -12    1    3    3    0    0 -0.38060433963E+02  0.10406937795E+02  0.11218944879E+02  0.41021527421E+02  0.00000000000E+00 0.  1.
</event>
<event>
 7    1  0.2294706E-015  0.9000767E+02  0.7816164E-02  0.1186339E+00
        -11   -1    0    0    0    0  0.00000000000E+00  0.00000000000E+00  0.45593999997E+02  0.45594000000E+02  0.51100000000E-03 0. -1.
         11   -1    0    0    0    0 -0.00000000000E+00 -0.00000000000E+00 -0.45593999997E+02  0.45594000000E+02  0.51100000000E-03 0.  1.
    9900012    2    1    2    0    0  0.32115836612E+00  0.75678690320E+00  0.84693601936E+00  0.90007673887E+02  0.89999934382E+02 0.  0.
        -12    1    1    2    0    0 -0.32115836612E+00 -0.75678690320E+00 -0.84693601936E+00  0.11803261134E+01  0.00000000000E+00 0.  1.
         11    1    3    3    0    0 -0.14053860748E+02  0.23144759212E+02  0.17900035666E+02  0.32459238408E+02  0.51100000000E-03 0. -1.
        -11    1    3    3    0    0 -0.60681690604E+00  0.13336689199E+02  0.33508156360E+01  0.13764573050E+02  0.51100000000E-03 0.  1.
        -12    1    3    3    0    0  0.14981836020E+02 -0.35724661508E+02 -0.20403915283E+02  0.43783862429E+02  0.00000000000E+00 0.  1.
</event>
<event>
 7    1  0.2294706E-015  0.9000775E+02  0.7816164E-02  0.1186339E+00
        -11   -1    0    0    0    0  0.00000000000E+00  0.00000000000E+00  0.45593999997E+02  0.45594000000E+02  0.51100000000E-03 0.  1.
         11   -1    0    0    0    0 -0.00000000000E+00 -0.00000000000E+00 -0.45593999997E+02  0.45594000000E+02  0.51100000000E-03 0. -1.
    9900012    2    1    2    0    0 -0.15783542751E+00  0.11377770458E+01  0.27117769863E+00  0.90007751733E+02  0.90000013256E+02 0.  0.
        -12    1    1    2    0    0  0.15783542751E+00 -0.11377770458E+01 -0.27117769863E+00  0.11802482673E+01  0.00000000000E+00 0.  1.
         11    1    3    3    0    0 -0.68098067283E+01 -0.26926857953E+01 -0.53138771885E+01  0.90477243274E+01  0.51100000000E-03 0. -1.
        -11    1    3    3    0    0  0.43468262592E+01  0.19884703034E+02  0.38901947252E+02  0.43905100086E+02  0.51100000000E-03 0.  1.
         12    1    3    3    0    0  0.23051450416E+01 -0.16054240192E+02 -0.33316892365E+02  0.37054927320E+02  0.00000000000E+00 0. -1.
</event>
<event>
 7    1  0.2294706E-015  0.9000775E+02  0.7816164E-02  0.1186339E+00
        -11   -1    0    0    0    0  0.00000000000E+00  0.00000000000E+00  0.45593999997E+02  0.45594000000E+02  0.51100000000E-03 0. -1.
         11   -1    0    0    0    0 -0.00000000000E+00 -0.00000000000E+00 -0.45593999997E+02  0.45594000000E+02  0.51100000000E-03 0.  1.
    9900012    2    1    2    0    0  0.28891591663E+00 -0.62871072991E+00  0.95616362158E+00  0.90007746442E+02  0.90000007896E+02 0.  0.
        -12    1    1    2    0    0 -0.28891591663E+00  0.62871072991E+00 -0.95616362158E+00  0.11802535575E+01  0.00000000000E+00 0.  1.
         11    1    3    3    0    0  0.44587593000E+01  0.31303123233E+01  0.12131849771E+02  0.13298916079E+02  0.51100000000E-03 0. -1.
        -11    1    3    3    0    0 -0.12738018211E+02 -0.37922421748E+02 -0.88324796687E+00  0.40014338760E+02  0.51100000000E-03 0.  1.
         12    1    3    3    0    0  0.85681748275E+01  0.34163398695E+02 -0.10292438183E+02  0.36694491603E+02  0.00000000000E+00 0. -1.
</event>
<event>
 7    1  0.2294706E-015  0.9000723E+02  0.7816164E-02  0.1186340E+00
        -11   -1    0    0    0    0  0.00000000000E+00  0.00000000000E+00  0.45593999997E+02  0.45594000000E+02  0.51100000000E-03 0. -1.
         11   -1    0    0    0    0 -0.00000000000E+00 -0.00000000000E+00 -0.45593999997E+02  0.45594000000E+02  0.51100000000E-03 0.  1.
    9900012    2    1    2    0    0 -0.15102512325E-01  0.11686151746E+01 -0.16831239441E+00  0.90007229669E+02  0.89999484299E+02 0.  0.
        -12    1    1    2    0    0  0.15102512325E-01 -0.11686151746E+01  0.16831239441E+00  0.11807703309E+01  0.00000000000E+00 0.  1.
         11    1    3    3    0    0 -0.16340653999E+02 -0.27966749802E+02 -0.18133024505E+02  0.37120919245E+02  0.51100000000E-03 0. -1.
        -11    1    3    3    0    0 -0.98746763434E+01  0.55655893521E+01  0.13079094108E+02  0.17307446972E+02  0.51100000000E-03 0.  1.
        -12    1    3    3    0    0  0.26200227830E+02  0.23569775624E+02  0.48856180025E+01  0.35578863453E+02  0.00000000000E+00 0.  1.
</event>
<event>
 7    1  0.2294706E-015  0.9000765E+02  0.7816164E-02  0.1186339E+00
        -11   -1    0    0    0    0  0.00000000000E+00  0.00000000000E+00  0.45593999997E+02  0.45594000000E+02  0.51100000000E-03 0.  1.
         11   -1    0    0    0    0 -0.00000000000E+00 -0.00000000000E+00 -0.45593999997E+02  0.45594000000E+02  0.51100000000E-03 0. -1.
    9900012    2    1    2    0    0  0.65766369794E-01  0.77793988080E+00 -0.88527170092E+00  0.90007651891E+02  0.89999912096E+02 0.  0.
        -12    1    1    2    0    0 -0.65766369794E-01 -0.77793988080E+00  0.88527170092E+00  0.11803481088E+01  0.00000000000E+00 0.  1.
         11    1    3    3    0    0 -0.72368213458E+01 -0.47028140795E+01 -0.52242691196E+00  0.86464428291E+01  0.51100000000E-03 0. -1.
        -11    1    3    3    0    0 -0.35753079070E+02 -0.71115864405E+01 -0.15465482820E+01  0.36486286966E+02  0.51100000000E-03 0.  1.
         12    1    3    3    0    0  0.43055666786E+02  0.12592340401E+02  0.11837034930E+01  0.44874922096E+02  0.00000000000E+00 0. -1.
</event>
<event>
 7    1  0.2294706E-015  0.9000775E+02  0.7816164E-02  0.1186339E+00
        -11   -1    0    0    0    0  0.00000000000E+00  0.00000000000E+00  0.45593999997E+02  0.45594000000E+02  0.51100000000E-03 0.  1.
         11   -1    0    0    0    0 -0.00000000000E+00 -0.00000000000E+00 -0.45593999997E+02  0.45594000000E+02  0.51100000000E-03 0. -1.
    9900012    2    1    2    0    0  0.34104669380E+00 -0.11296184968E+01 -0.25132596103E-01  0.90007753228E+02  0.90000014771E+02 0.  0.
        -12    1    1    2    0    0 -0.34104669380E+00  0.11296184968E+01  0.25132596103E-01  0.11802467721E+01  0.00000000000E+00 0.  1.
         11    1    3    3    0    0  0.11497159298E+02 -0.10105992203E+02  0.51400765803E+01  0.16147326027E+02  0.51100000000E-03 0. -1.
        -11    1    3    3    0    0 -0.20142419841E+02  0.14632174743E+02  0.28919825792E+02  0.38159847207E+02  0.51100000000E-03 0.  1.
         12    1    3    3    0    0  0.89863072372E+01 -0.56558010372E+01 -0.34085034968E+02  0.35700579994E+02  0.00000000000E+00 0. -1.
</event>
<event>
 7    1  0.2294706E-015  0.9000789E+02  0.7816164E-02  0.1186339E+00
        -11   -1    0    0    0    0  0.00000000000E+00  0.00000000000E+00  0.45593999997E+02  0.45594000000E+02  0.51100000000E-03 0. -1.
         11   -1    0    0    0    0 -0.00000000000E+00 -0.00000000000E+00 -0.45593999997E+02  0.45594000000E+02  0.51100000000E-03 0.  1.
    9900012    2    1    2    0    0  0.27335278262E+00 -0.67093524269E+00  0.93154386339E+00  0.90007894152E+02  0.90000157554E+02 0.  0.
        -12    1    1    2    0    0 -0.27335278262E+00  0.67093524269E+00 -0.93154386339E+00  0.11801058482E+01  0.00000000000E+00 0.  1.
         11    1    3    3    0    0  0.26780536530E+01  0.58740191895E+01 -0.56561294697E+01  0.85829991056E+01  0.51100000000E-03 0. -1.
        -11    1    3    3    0    0 -0.25788284181E+02 -0.12579640605E+02 -0.27437779959E+02  0.39700311436E+02  0.51100000000E-03 0.  1.
         12    1    3    3    0    0  0.23383583311E+02  0.60346861730E+01  0.34025453292E+02  0.41724583610E+02  0.00000000000E+00 0. -1.
</event>
<event>
 7    1  0.2294706E-015  0.9000770E+02  0.7816164E-02  0.1186339E+00
        -11   -1    0    0    0    0  0.00000000000E+00  0.00000000000E+00  0.45593999997E+02  0.45594000000E+02  0.51100000000E-03 0.  1.
         11   -1    0    0    0    0 -0.00000000000E+00 -0.00000000000E+00 -0.45593999997E+02  0.45594000000E+02  0.51100000000E-03 0. -1.
    9900012    2    1    2    0    0  0.71899201412E+00  0.12653787469E+00 -0.92744495333E+00  0.90007696865E+02  0.89999957663E+02 0.  0.
        -12    1    1    2    0    0 -0.71899201412E+00 -0.12653787469E+00  0.92744495333E+00  0.11803031354E+01  0.00000000000E+00 0.  1.
         11    1    3    3    0    0  0.30309687640E+02  0.23366364556E+02 -0.64635610507E+01  0.38812907378E+02  0.51100000000E-03 0. -1.
        -11    1    3    3    0    0 -0.34259075048E+01  0.45160681231E+01 -0.87813613939E+01  0.10451986496E+02  0.51100000000E-03 0.  1.
        -12    1    3    3    0    0 -0.26164788121E+02 -0.27755894804E+02  0.14317477491E+02  0.40742802991E+02  0.00000000000E+00 0.  1.
</event>
<event>
 7    1  0.2294706E-015  0.9000782E+02  0.7816164E-02  0.1186339E+00
        -11   -1    0    0    0    0  0.00000000000E+00  0.00000000000E+00  0.45593999997E+02  0.45594000000E+02  0.51100000000E-03 0.  1.
         11   -1    0    0    0    0 -0.00000000000E+00 -0.00000000000E+00 -0.45593999997E+02  0.45594000000E+02  0.51100000000E-03 0. -1.
    9900012    2    1    2    0    0 -0.79683477731E-01 -0.40303621752E+00 -0.11063582103E+01  0.90007823683E+02  0.90000086156E+02 0.  0.
        -12    1    1    2    0    0  0.79683477731E-01  0.40303621752E+00  0.11063582103E+01  0.11801763168E+01  0.00000000000E+00 0.  1.
         11    1    3    3    0    0 -0.30106524098E+01 -0.38614045219E+02 -0.69509656261E+01  0.39350024644E+02  0.51100000000E-03 0. -1.
        -11    1    3    3    0    0  0.31200986470E+01 -0.20933197815E+01 -0.73446353765E+01  0.82498892325E+01  0.51100000000E-03 0.  1.
        -12    1    3    3    0    0 -0.18912971498E+00  0.40304328783E+02  0.13189242792E+02  0.42407909806E+02  0.00000000000E+00 0.  1.
</event>
<event>
 7    1  0.2294706E-015  0.9000774E+02  0.7816164E-02  0.1186339E+00
        -11   -1    0    0    0    0  0.00000000000E+00  0.00000000000E+00  0.45593999997E+02  0.45594000000E+02  0.51100000000E-03 0.  1.
         11   -1    0    0    0    0 -0.00000000000E+00 -0.00000000000E+00 -0.45593999997E+02  0.45594000000E+02  0.51100000000E-03 0. -1.
    9900012    2    1    2    0    0 -0.98855020496E+00  0.55278491665E+00 -0.33197700104E+00  0.90007740960E+02  0.90000002341E+02 0.  0.
        -12    1    1    2    0    0  0.98855020496E+00 -0.55278491665E+00  0.33197700104E+00  0.11802590398E+01  0.00000000000E+00 0.  1.
         11    1    3    3    0    0  0.35517743359E+02  0.19084077276E+02 -0.67865819583E+01  0.40887281565E+02  0.51100000000E-03 0. -1.
        -11    1    3    3    0    0  0.99267561719E+00 -0.89164057382E+01 -0.26451854223E+01  0.93533257373E+01  0.51100000000E-03 0.  1.
        -12    1    3    3    0    0 -0.37498969182E+02 -0.96148866213E+01  0.90997903796E+01  0.39767133658E+02  0.00000000000E+00 0.  1.
</event>
<event>
 7    1  0.2294706E-015  0.9000766E+02  0.7816164E-02  0.1186339E+00
        -11   -1    0    0    0    0  0.00000000000E+00  0.00000000000E+00  0.45593999997E+02  0.45594000000E+02  0.51100000000E-03 0.  1.
         11   -1    0    0    0    0 -0.00000000000E+00 -0.00000000000E+00 -0.45593999997E+02  0.45594000000E+02  0.51100000000E-03 0. -1.
    9900012    2    1    2    0    0  0.11212625063E+01 -0.36590093170E+00 -0.45690789685E-01  0.90007660749E+02  0.89999921071E+02 0.  0.
        -12    1    1    2    0    0 -0.11212625063E+01  0.36590093170E+00  0.45690789685E-01  0.11803392512E+01  0.00000000000E+00 0.  1.
         11    1    3    3    0    0 -0.67193181237E+01 -0.87137110642E+01  0.42179985122E+01  0.11784290741E+02  0.51100000000E-03 0. -1.
        -11    1    3    3    0    0 -0.33239423034E+02  0.85317643316E+01  0.82207231685E+01  0.35287824188E+02  0.51100000000E-03 0.  1.
         12    1    3    3    0    0  0.41080003664E+02 -0.18395419914E+00 -0.12484412470E+02  0.42935545820E+02  0.00000000000E+00 0. -1.
</event>
<event>
 7    1  0.2294706E-015  0.9000778E+02  0.7816164E-02  0.1186339E+00
        -11   -1    0    0    0    0  0.00000000000E+00  0.00000000000E+00  0.45593999997E+02  0.45594000000E+02  0.51100000000E-03 0.  1.
         11   -1    0    0    0    0 -0.00000000000E+00 -0.00000000000E+00 -0.45593999997E+02  0.45594000000E+02  0.51100000000E-03 0. -1.
    9900012    2    1    2    0    0  0.24003371919E+00  0.76493837926E+00 -0.86612755590E+00  0.90007778049E+02  0.90000039919E+02 0.  0.
        -12    1    1    2    0    0 -0.24003371919E+00 -0.76493837926E+00  0.86612755590E+00  0.11802219510E+01  0.00000000000E+00 0.  1.
         11    1    3    3    0    0  0.10042216793E+02 -0.23259556805E+02 -0.22470602694E+02  0.33864156369E+02  0.51100000000E-03 0. -1.
        -11    1    3    3    0    0  0.11262937954E+02 -0.36514318817E+01 -0.44895525381E+01  0.12662654082E+02  0.51100000000E-03 0.  1.
        -12    1    3    3    0    0 -0.21065121028E+02  0.27675927066E+02  0.26094027676E+02  0.43480967598E+02  0.00000000000E+00 0.  1.
</event>
<event>
 7    1  0.2294706E-015  0.9000790E+02  0.7816164E-02  0.1186339E+00
        -11   -1    0    0    0    0  0.00000000000E+00  0.00000000000E+00  0.45593999997E+02  0.45594000000E+02  0.51100000000E-03 0.  1.
         11   -1    0    0    0    0 -0.00000000000E+00 -0.00000000000E+00 -0.45593999997E+02  0.45594000000E+02  0.51100000000E-03 0. -1.
    9900012    2    1    2    0    0 -0.11955819129E+00 -0.27711961349E+00 -0.11408546882E+01  0.90007898792E+02  0.90000162256E+02 0.  0.
        -12    1    1    2    0    0  0.11955819129E+00  0.27711961349E+00  0.11408546882E+01  0.11801012079E+01  0.00000000000E+00 0.  1.
         11    1    3    3    0    0  0.64204948986E+01 -0.18899839369E+01  0.68112611940E+01  0.95492446475E+01  0.51100000000E-03 0. -1.
        -11    1    3    3    0    0  0.34963600383E+02 -0.69001644592E+00  0.81054096393E+01  0.35897453114E+02  0.51100000000E-03 0.  1.
         12    1    3    3    0    0 -0.41503653472E+02  0.23028807694E+01 -0.16057525521E+02  0.44561201030E+02  0.00000000000E+00 0. -1.
</event>
<event>
 7    1  0.2294706E-015  0.9000755E+02  0.7816164E-02  0.1186339E+00
        -11   -1    0    0    0    0  0.00000000000E+00  0.00000000000E+00  0.45593999997E+02  0.45594000000E+02  0.51100000000E-03 0. -1.
         11   -1    0    0    0    0 -0.00000000000E+00 -0.00000000000E+00 -0.45593999997E+02  0.45594000000E+02  0.51100000000E-03 0.  1.
    9900012    2    1    2    0    0  0.98757065159E+00 -0.57714990256E+00 -0.29164230430E+00  0.90007553883E+02  0.89999812794E+02 0.  0.
        -12    1    1    2    0    0 -0.98757065159E+00  0.57714990256E+00  0.29164230430E+00  0.11804461172E+01  0.00000000000E+00 0.  1.
         11    1    3    3    0    0  0.56887066525E+01 -0.15544191291E+01 -0.10117186601E+02  0.11710468273E+02  0.51100000000E-03 0. -1.
        -11    1    3    3    0    0 -0.18550027972E+02 -0.34729420197E+02  0.44628654633E+01  0.39625160358E+02  0.51100000000E-03 0.  1.
         12    1    3    3    0    0  0.13848891971E+02  0.35706689424E+02  0.53626788331E+01  0.38671925252E+02  0.00000000000E+00 0. -1.
</event>
<event>
 7    1  0.2386065E-015  0.9000781E+02  0.7816164E-02  0.1186339E+00
        -11   -1    0    0    0    0  0.00000000000E+00  0.00000000000E+00  0.45593999997E+02  0.45594000000E+02  0.51100000000E-03 0. -1.
         11   -1    0    0    0    0 -0.00000000000E+00 -0.00000000000E+00 -0.45593999997E+02  0.45594000000E+02  0.51100000000E-03 0.  1.
    9900012    2    1    2    0    0  0.10767173281E+01 -0.46861432260E+00 -0.11800611717E+00  0.90007811442E+02  0.90000073753E+02 0.  0.
        -12    1    1    2    0    0 -0.10767173281E+01  0.46861432260E+00  0.11800611717E+00  0.11801885577E+01  0.00000000000E+00 0.  1.
         11    1    3    3    0    0  0.69474163353E+00  0.37993880597E+02  0.41501901664E+00  0.38002498204E+02  0.51100000000E-03 0. -1.
        -11    1    3    3    0    0  0.79055259674E+01  0.32218501056E+01 -0.41522847116E+01  0.94931094753E+01  0.51100000000E-03 0.  1.
        -12    1    3    3    0    0 -0.75235502728E+01 -0.41684345025E+02  0.36192595778E+01  0.42512203763E+02  0.00000000000E+00 0.  1.
</event>
<event>
 7    1  0.2294706E-015  0.9000764E+02  0.7816164E-02  0.1186339E+00
        -11   -1    0    0    0    0  0.00000000000E+00  0.00000000000E+00  0.45593999997E+02  0.45594000000E+02  0.51100000000E-03 0. -1.
         11   -1    0    0    0    0 -0.00000000000E+00 -0.00000000000E+00 -0.45593999997E+02  0.45594000000E+02  0.51100000000E-03 0.  1.
    9900012    2    1    2    0    0  0.22032168788E+00 -0.85435376827E+00  0.78407952911E+00  0.90007642971E+02  0.89999903058E+02 0.  0.
        -12    1    1    2    0    0 -0.22032168788E+00  0.85435376827E+00 -0.78407952911E+00  0.11803570288E+01  0.00000000000E+00 0.  1.
         11    1    3    3    0    0 -0.29087874382E+02  0.15127306549E+02  0.13152401793E+02  0.35325989196E+02  0.51100000000E-03 0. -1.
        -11    1    3    3    0    0 -0.98022012900E+01 -0.12870956491E+01  0.27317655308E+01  0.10256817660E+02  0.51100000000E-03 0.  1.
        -12    1    3    3    0    0  0.39110397360E+02 -0.14694564669E+02 -0.15100087794E+02  0.44424836115E+02  0.00000000000E+00 0.  1.
</event>
<event>
 7    1  0.2294706E-015  0.9000798E+02  0.7816164E-02  0.1186339E+00
        -11   -1    0    0    0    0  0.00000000000E+00  0.00000000000E+00  0.45593999997E+02  0.45594000000E+02  0.51100000000E-03 0. -1.
         11   -1    0    0    0    0 -0.00000000000E+00 -0.00000000000E+00 -0.45593999997E+02  0.45594000000E+02  0.51100000000E-03 0.  1.
    9900012    2    1    2    0    0 -0.28407519298E+00 -0.11173290743E+01 -0.25166219419E+00  0.90007975917E+02  0.90000240399E+02 0.  0.
        -12    1    1    2    0    0  0.28407519298E+00  0.11173290743E+01  0.25166219419E+00  0.11800240826E+01  0.00000000000E+00 0.  1.
         11    1    3    3    0    0  0.69572419966E+01  0.30767411642E+02  0.14398137508E+02  0.34674820826E+02  0.51100000000E-03 0. -1.
        -11    1    3    3    0    0 -0.24940711289E+01  0.10113569537E+02  0.51477958847E+00  0.10429270246E+02  0.51100000000E-03 0.  1.
        -12    1    3    3    0    0 -0.47472460607E+01 -0.41998310253E+02 -0.15164579291E+02  0.44903884846E+02  0.00000000000E+00 0.  1.
</event>
<event>
 7    1  0.2294706E-015  0.9000763E+02  0.7816164E-02  0.1186339E+00
        -11   -1    0    0    0    0  0.00000000000E+00  0.00000000000E+00  0.45593999997E+02  0.45594000000E+02  0.51100000000E-03 0. -1.
         11   -1    0    0    0    0 -0.00000000000E+00 -0.00000000000E+00 -0.45593999997E+02  0.45594000000E+02  0.51100000000E-03 0.  1.
    9900012    2    1    2    0    0  0.50970556540E+00  0.41102550851E+00  0.98210361587E+00  0.90007631734E+02  0.89999891672E+02 0.  0.
        -12    1    1    2    0    0 -0.50970556540E+00 -0.41102550851E+00 -0.98210361587E+00  0.11803682664E+01  0.00000000000E+00 0.  1.
         11    1    3    3    0    0  0.27957158157E+02 -0.21432706887E+02  0.18292426444E+02  0.39693531994E+02  0.51100000000E-03 0. -1.
        -11    1    3    3    0    0 -0.86009625904E+01 -0.37377460769E+01  0.57978686647E+01  0.11025542369E+02  0.51100000000E-03 0.  1.
        -12    1    3    3    0    0 -0.18846490001E+02  0.25581478473E+02 -0.23108191493E+02  0.39288557370E+02  0.00000000000E+00 0.  1.
</event>
<event>
 7    1  0.2294706E-015  0.9000785E+02  0.7816164E-02  0.1186339E+00
        -11   -1    0    0    0    0  0.00000000000E+00  0.00000000000E+00  0.45593999997E+02  0.45594000000E+02  0.51100000000E-03 0. -1.
         11   -1    0    0    0    0 -0.00000000000E+00 -0.00000000000E+00 -0.45593999997E+02  0.45594000000E+02  0.51100000000E-03 0.  1.
    9900012    2    1    2    0    0  0.48212629014E+00  0.42880403824E-01  0.10763255993E+01  0.90007846923E+02  0.90000109703E+02 0.  0.
        -12    1    1    2    0    0 -0.48212629014E+00 -0.42880403824E-01 -0.10763255993E+01  0.11801530767E+01  0.00000000000E+00 0.  1.
         11    1    3    3    0    0  0.92926084745E+00  0.78378912244E+01  0.49109937547E+01  0.92959090189E+01  0.51100000000E-03 0. -1.
        -11    1    3    3    0    0 -0.27165830519E+02 -0.32652944156E+02  0.60462878350E+01  0.42904017373E+02  0.51100000000E-03 0.  1.
         12    1    3    3    0    0  0.26718695962E+02  0.24857933336E+02 -0.98809559903E+01  0.37807920532E+02  0.00000000000E+00 0. -1.
</event>
<event>
 7    1  0.2294706E-015  0.9000780E+02  0.7816164E-02  0.1186339E+00
        -11   -1    0    0    0    0  0.00000000000E+00  0.00000000000E+00  0.45593999997E+02  0.45594000000E+02  0.51100000000E-03 0. -1.
         11   -1    0    0    0    0 -0.00000000000E+00 -0.00000000000E+00 -0.45593999997E+02  0.45594000000E+02  0.51100000000E-03 0.  1.
    9900012    2    1    2    0    0  0.20106953995E+00  0.18070905304E+00  0.11488184284E+01  0.90007801498E+02  0.90000063678E+02 0.  0.
        -12    1    1    2    0    0 -0.20106953995E+00 -0.18070905304E+00 -0.11488184284E+01  0.11801985016E+01  0.00000000000E+00 0.  1.
         11    1    3    3    0    0 -0.10552322556E+02  0.16235710492E+00  0.92773690942E+00  0.10594270489E+02  0.51100000000E-03 0. -1.
        -11    1    3    3    0    0  0.18204688329E+02  0.34102282988E+02 -0.14846393773E+02  0.41410044560E+02  0.51100000000E-03 0.  1.
         12    1    3    3    0    0 -0.74512962328E+01 -0.34083931040E+02  0.15067475292E+02  0.38003486450E+02  0.00000000000E+00 0. -1.
</event>
<event>
 7    1  0.2294706E-015  0.9000780E+02  0.7816164E-02  0.1186339E+00
        -11   -1    0    0    0    0  0.00000000000E+00  0.00000000000E+00  0.45593999997E+02  0.45594000000E+02  0.51100000000E-03 0. -1.
         11   -1    0    0    0    0 -0.00000000000E+00 -0.00000000000E+00 -0.45593999997E+02  0.45594000000E+02  0.51100000000E-03 0.  1.
    9900012    2    1    2    0    0  0.10548626787E+01 -0.44593007195E+00  0.28509925852E+00  0.90007800658E+02  0.90000062827E+02 0.  0.
        -12    1    1    2    0    0 -0.10548626787E+01  0.44593007195E+00 -0.28509925852E+00  0.11801993421E+01  0.00000000000E+00 0.  1.
         11    1    3    3    0    0  0.19129946550E+02  0.24128335327E+02 -0.20019190176E+02  0.36727365768E+02  0.51100000000E-03 0. -1.
        -11    1    3    3    0    0  0.36012501521E+01  0.82633994408E+01  0.22865252365E-01  0.90140610191E+01  0.51100000000E-03 0.  1.
        -12    1    3    3    0    0 -0.21676334024E+02 -0.32837664840E+02  0.20281424183E+02  0.44266373871E+02  0.00000000000E+00 0.  1.
</event>
<event>
 7    1  0.2294706E-015  0.9000759E+02  0.7816164E-02  0.1186339E+00
        -11   -1    0    0    0    0  0.00000000000E+00  0.00000000000E+00  0.45593999997E+02  0.45594000000E+02  0.51100000000E-03 0. -1.
         11   -1    0    0    0    0 -0.00000000000E+00 -0.00000000000E+00 -0.45593999997E+02  0.45594000000E+02  0.51100000000E-03 0.  1.
    9900012    2    1    2    0    0 -0.96346441705E+00  0.62649994969E+00  0.26943873643E+00  0.90007591976E+02  0.89999851390E+02 0.  0.
        -12    1    1    2    0    0  0.96346441705E+00 -0.62649994969E+00 -0.26943873643E+00  0.11804080238E+01  0.00000000000E+00 0.  1.
         11    1    3    3    0    0  0.43039376953E+01 -0.12546032977E+02  0.76537096083E+00  0.13285805061E+02  0.51100000000E-03 0. -1.
        -11    1    3    3    0    0 -0.39854359345E+02  0.11338836430E+02 -0.52280724291E+01  0.41764481465E+02  0.51100000000E-03 0.  1.
         12    1    3    3    0    0  0.34586957233E+02  0.18336964965E+01  0.47321402047E+01  0.34957305451E+02  0.00000000000E+00 0. -1.
</event>
<event>
 7    1  0.2294706E-015  0.9000816E+02  0.7816164E-02  0.1186338E+00
        -11   -1    0    0    0    0  0.00000000000E+00  0.00000000000E+00  0.45593999997E+02  0.45594000000E+02  0.51100000000E-03 0.  1.
         11   -1    0    0    0    0 -0.00000000000E+00 -0.00000000000E+00 -0.45593999997E+02  0.45594000000E+02  0.51100000000E-03 0. -1.
    9900012    2    1    2    0    0 -0.11397018901E+01 -0.29675842294E+00 -0.71033510469E-01  0.90008156061E+02  0.90000422920E+02 0.  0.
        -12    1    1    2    0    0  0.11397018901E+01  0.29675842294E+00  0.71033510469E-01  0.11798439386E+01  0.00000000000E+00 0.  1.
         11    1    3    3    0    0  0.59853424699E+01  0.29998891458E+01  0.13117350419E+01  0.68223389281E+01  0.51100000000E-03 0. -1.
        -11    1    3    3    0    0  0.55392978232E+01  0.29546898045E+02  0.25078223483E+02  0.39148694714E+02  0.51100000000E-03 0.  1.
         12    1    3    3    0    0 -0.12664342183E+02 -0.32843545614E+02 -0.26460992036E+02  0.44037122419E+02  0.00000000000E+00 0. -1.
</event>
<event>
 7    1  0.2294706E-015  0.9000787E+02  0.7816164E-02  0.1186339E+00
        -11   -1    0    0    0    0  0.00000000000E+00  0.00000000000E+00  0.45593999997E+02  0.45594000000E+02  0.51100000000E-03 0.  1.
         11   -1    0    0    0    0 -0.00000000000E+00 -0.00000000000E+00 -0.45593999997E+02  0.45594000000E+02  0.51100000000E-03 0. -1.
    9900012    2    1    2    0    0 -0.97656526514E+00 -0.23333566914E+00 -0.62014568113E+00  0.90007870381E+02  0.90000133470E+02 0.  0.
        -12    1    1    2    0    0  0.97656526514E+00  0.23333566914E+00  0.62014568113E+00  0.11801296189E+01  0.00000000000E+00 0.  1.
         11    1    3    3    0    0 -0.53370445090E+01 -0.22737912868E+01  0.43685599904E+01  0.72621269307E+01  0.51100000000E-03 0. -1.
        -11    1    3    3    0    0 -0.15545405590E+02  0.12273091100E+02  0.33096745789E+02  0.38570493673E+02  0.51100000000E-03 0.  1.
         12    1    3    3    0    0  0.19905884833E+02 -0.10232635482E+02 -0.38085451461E+02  0.44175249777E+02  0.00000000000E+00 0. -1.
</event>
<event>
 7    1  0.2294706E-015  0.9000787E+02  0.7816164E-02  0.1186339E+00
        -11   -1    0    0    0    0  0.00000000000E+00  0.00000000000E+00  0.45593999997E+02  0.45594000000E+02  0.51100000000E-03 0. -1.
         11   -1    0    0    0    0 -0.00000000000E+00 -0.00000000000E+00 -0.45593999997E+02  0.45594000000E+02  0.51100000000E-03 0.  1.
    9900012    2    1    2    0    0 -0.89990471923E+00 -0.76310725064E+00 -0.23270312940E-01  0.90007871750E+02  0.90000134857E+02 0.  0.
        -12    1    1    2    0    0  0.89990471923E+00  0.76310725064E+00  0.23270312940E-01  0.11801282503E+01  0.00000000000E+00 0.  1.
         11    1    3    3    0    0  0.31862463121E+01 -0.66869575622E+01  0.59129990363E+01  0.94779283002E+01  0.51100000000E-03 0. -1.
        -11    1    3    3    0    0  0.98881384096E+01 -0.60013575279E+01 -0.40102826456E+02  0.41737612095E+02  0.51100000000E-03 0.  1.
         12    1    3    3    0    0 -0.13974289441E+02  0.11925207840E+02  0.34166557107E+02  0.38792331354E+02  0.00000000000E+00 0. -1.
</event>
<event>
 7    1  0.2294706E-015  0.9000777E+02  0.7816164E-02  0.1186339E+00
        -11   -1    0    0    0    0  0.00000000000E+00  0.00000000000E+00  0.45593999997E+02  0.45594000000E+02  0.51100000000E-03 0.  1.
         11   -1    0    0    0    0 -0.00000000000E+00 -0.00000000000E+00 -0.45593999997E+02  0.45594000000E+02  0.51100000000E-03 0. -1.
    9900012    2    1    2    0    0 -0.52788607962E+00  0.72426477498E-01  0.10531117330E+01  0.90007765434E+02  0.90000027138E+02 0.  0.
        -12    1    1    2    0    0  0.52788607962E+00 -0.72426477498E-01 -0.10531117330E+01  0.11802345656E+01  0.00000000000E+00 0.  1.
         11    1    3    3    0    0 -0.57463123580E+01 -0.26296254494E+01 -0.35255379718E+02  0.35817270067E+02  0.51100000000E-03 0. -1.
        -11    1    3    3    0    0 -0.64684082239E+01  0.37045637740E+01 -0.64469025180E+01  0.98552853863E+01  0.51100000000E-03 0.  1.
        -12    1    3    3    0    0  0.11686834502E+02 -0.10025118472E+01  0.42755393969E+02  0.44335209982E+02  0.00000000000E+00 0.  1.
</event>
<event>
 7    1  0.2294706E-015  0.9000794E+02  0.7816164E-02  0.1186339E+00
        -11   -1    0    0    0    0  0.00000000000E+00  0.00000000000E+00  0.45593999997E+02  0.45594000000E+02  0.51100000000E-03 0. -1.
         11   -1    0    0    0    0 -0.00000000000E+00 -0.00000000000E+00 -0.45593999997E+02  0.45594000000E+02  0.51100000000E-03 0.  1.
    9900012    2    1    2    0    0  0.23265490796E-01 -0.92314667731E+00 -0.73470346809E+00  0.90007944808E+02  0.90000208879E+02 0.  0.
        -12    1    1    2    0    0 -0.23265490796E-01  0.92314667731E+00  0.73470346809E+00  0.11800551923E+01  0.00000000000E+00 0.  1.
         11    1    3    3    0    0  0.62519369734E+01  0.70531232564E+01  0.23512759609E+01  0.97139982754E+01  0.51100000000E-03 0. -1.
        -11    1    3    3    0    0  0.89512097682E+01 -0.24065927090E+02 -0.33797926407E+02  0.42445174434E+02  0.51100000000E-03 0.  1.
         12    1    3    3    0    0 -0.15179881251E+02  0.16089657157E+02  0.30711946978E+02  0.37848772099E+02  0.00000000000E+00 0. -1.
</event>
<event>
 7    1  0.2294706E-015  0.9000776E+02  0.7816164E-02  0.1186339E+00
        -11   -1    0    0    0    0  0.00000000000E+00  0.00000000000E+00  0.45593999997E+02  0.45594000000E+02  0.51100000000E-03 0.  1.
         11   -1    0    0    0    0 -0.00000000000E+00 -0.00000000000E+00 -0.45593999997E+02  0.45594000000E+02  0.51100000000E-03 0. -1.
    9900012    2    1    2    0    0  0.73602954073E+00  0.43079183259E+00 -0.81587165905E+00  0.90007759494E+02  0.90000021119E+02 0.  0.
        -12    1    1    2    0    0 -0.73602954073E+00 -0.43079183259E+00  0.81587165905E+00  0.11802405060E+01  0.00000000000E+00 0.  1.
         11    1    3    3    0    0  0.22815827019E+01  0.88238916135E+01 -0.32588675122E+01  0.96791993758E+01  0.51100000000E-03 0. -1.
        -11    1    3    3    0    0  0.30942439535E+01  0.21881777042E+02  0.31254685989E+02  0.38278478401E+02  0.51100000000E-03 0.  1.
         12    1    3    3    0    0 -0.46397971147E+01 -0.30274876823E+02 -0.28811690136E+02  0.42050081717E+02  0.00000000000E+00 0. -1.
</event>
<event>
 7    1  0.2294706E-015  0.9000781E+02  0.7816164E-02  0.1186339E+00
        -11   -1    0    0    0    0  0.00000000000E+00  0.00000000000E+00  0.45593999997E+02  0.45594000000E+02  0.51100000000E-03 0.  1.
         11   -1    0    0    0    0 -0.00000000000E+00 -0.00000000000E+00 -0.45593999997E+02  0.45594000000E+02  0.51100000000E-03 0. -1.
    9900012    2    1    2    0    0 -0.41992218877E+00 -0.14618275903E+00 -0.10932316973E+01  0.90007805276E+02  0.90000067505E+02 0.  0.
        -12    1    1    2    0    0  0.41992218877E+00  0.14618275903E+00  0.10932316973E+01  0.11801947245E+01  0.00000000000E+00 0.  1.
         11    1    3    3    0    0  0.22055522055E+01 -0.79988097332E+01  0.52890175538E+01  0.98396709612E+01  0.51100000000E-03 0. -1.
        -11    1    3    3    0    0 -0.34581597424E+02 -0.93902760365E+01  0.14065326920E+02  0.38495422924E+02  0.51100000000E-03 0.  1.
         12    1    3    3    0    0  0.31956123030E+02  0.17242903011E+02 -0.20447576172E+02  0.41672711390E+02  0.00000000000E+00 0. -1.
</event>
<event>
 7    1  0.2294706E-015  0.9000784E+02  0.7816164E-02  0.1186339E+00
        -11   -1    0    0    0    0  0.00000000000E+00  0.00000000000E+00  0.45593999997E+02  0.45594000000E+02  0.51100000000E-03 0.  1.
         11   -1    0    0    0    0 -0.00000000000E+00 -0.00000000000E+00 -0.45593999997E+02  0.45594000000E+02  0.51100000000E-03 0. -1.
    9900012    2    1    2    0    0 -0.85632017778E+00  0.65813559179E+00  0.47575718318E+00  0.90007842552E+02  0.90000105274E+02 0.  0.
        -12    1    1    2    0    0  0.85632017778E+00 -0.65813559179E+00 -0.47575718318E+00  0.11801574477E+01  0.00000000000E+00 0.  1.
         11    1    3    3    0    0 -0.86307646493E+01 -0.39808178713E+01 -0.39326735073E+01  0.10286055149E+02  0.51100000000E-03 0. -1.
        -11    1    3    3    0    0 -0.17852862447E+02 -0.16532921562E+02  0.29378410045E+02  0.38146469954E+02  0.51100000000E-03 0.  1.
         12    1    3    3    0    0  0.25627306919E+02  0.21171875025E+02 -0.24969979355E+02  0.41575317449E+02  0.00000000000E+00 0. -1.
</event>
<event>
 7    1  0.2294706E-015  0.9000765E+02  0.7816164E-02  0.1186339E+00
        -11   -1    0    0    0    0  0.00000000000E+00  0.00000000000E+00  0.45593999997E+02  0.45594000000E+02  0.51100000000E-03 0. -1.
         11   -1    0    0    0    0 -0.00000000000E+00 -0.00000000000E+00 -0.45593999997E+02  0.45594000000E+02  0.51100000000E-03 0.  1.
    9900012    2    1    2    0    0 -0.11661949142E+01  0.95425863305E-01 -0.15526861227E+00  0.90007650469E+02  0.89999910655E+02 0.  0.
        -12    1    1    2    0    0  0.11661949142E+01 -0.95425863305E-01  0.15526861227E+00  0.11803495310E+01  0.00000000000E+00 0.  1.
         11    1    3    3    0    0 -0.81674905656E+01  0.48282103661E+01 -0.17090838226E+01  0.96405645713E+01  0.51100000000E-03 0. -1.
        -11    1    3    3    0    0 -0.15835531233E+02 -0.31358728602E+02 -0.18766424514E+02  0.39828539997E+02  0.51100000000E-03 0.  1.
         12    1    3    3    0    0  0.22836826884E+02  0.26625944099E+02  0.20320239724E+02  0.40538545901E+02  0.00000000000E+00 0. -1.
</event>
<event>
 7    1  0.2294706E-015  0.9000755E+02  0.7816164E-02  0.1186339E+00
        -11   -1    0    0    0    0  0.00000000000E+00  0.00000000000E+00  0.45593999997E+02  0.45594000000E+02  0.51100000000E-03 0.  1.
         11   -1    0    0    0    0 -0.00000000000E+00 -0.00000000000E+00 -0.45593999997E+02  0.45594000000E+02  0.51100000000E-03 0. -1.
    9900012    2    1    2    0    0  0.65956623713E+00 -0.87686640790E+00 -0.43536746113E+00  0.90007547907E+02  0.89999806739E+02 0.  0.
        -12    1    1    2    0    0 -0.65956623713E+00  0.87686640790E+00  0.43536746113E+00  0.11804520933E+01  0.00000000000E+00 0.  1.
         11    1    3    3    0    0 -0.44028995853E+00 -0.30303885468E+02 -0.32396700479E+01  0.30479743962E+02  0.51100000000E-03 0. -1.
        -11    1    3    3    0    0  0.11312601426E+02  0.47461177470E+01  0.22982868517E+02  0.26052117577E+02  0.51100000000E-03 0.  1.
        -12    1    3    3    0    0 -0.10212745231E+02  0.24680901313E+02 -0.20178565930E+02  0.33475686368E+02  0.00000000000E+00 0.  1.
</event>
<event>
 7    1  0.2294706E-015  0.9000756E+02  0.7816164E-02  0.1186339E+00
        -11   -1    0    0    0    0  0.00000000000E+00  0.00000000000E+00  0.45593999997E+02  0.45594000000E+02  0.51100000000E-03 0.  1.
         11   -1    0    0    0    0 -0.00000000000E+00 -0.00000000000E+00 -0.45593999997E+02  0.45594000000E+02  0.51100000000E-03 0. -1.
    9900012    2    1    2    0    0  0.71000094833E+00 -0.31026608939E+00 -0.89055089717E+00  0.90007556315E+02  0.89999815258E+02 0.  0.
        -12    1    1    2    0    0 -0.71000094833E+00  0.31026608939E+00  0.89055089717E+00  0.11804436849E+01  0.00000000000E+00 0.  1.
         11    1    3    3    0    0  0.86841692881E+01 -0.23180870011E+01  0.34183582721E+01  0.96163141123E+01  0.51100000000E-03 0. -1.
        -11    1    3    3    0    0  0.11789363150E+02 -0.34798107687E+02 -0.10372455723E+02  0.38177024767E+02  0.51100000000E-03 0.  1.
         12    1    3    3    0    0 -0.19763531490E+02  0.36805928598E+02  0.60635465537E+01  0.42214217436E+02  0.00000000000E+00 0. -1.
</event>
<event>
 7    1  0.2294706E-015  0.9000703E+02  0.7816164E-02  0.1186340E+00
        -11   -1    0    0    0    0  0.00000000000E+00  0.00000000000E+00  0.45593999997E+02  0.45594000000E+02  0.51100000000E-03 0.  1.
         11   -1    0    0    0    0 -0.00000000000E+00 -0.00000000000E+00 -0.45593999997E+02  0.45594000000E+02  0.51100000000E-03 0. -1.
    9900012    2    1    2    0    0  0.40985466333E-01 -0.72496465349E+00 -0.93136760088E+00  0.90007026179E+02  0.89999278122E+02 0.  0.
        -12    1    1    2    0    0 -0.40985466333E-01  0.72496465349E+00  0.93136760088E+00  0.11809738207E+01  0.00000000000E+00 0.  1.
         11    1    3    3    0    0 -0.88291488948E+01 -0.32195391192E+01 -0.34451690112E+01  0.10009420169E+02  0.51100000000E-03 0. -1.
        -11    1    3    3    0    0 -0.32061732181E+02  0.17297039387E+02  0.86854587064E+00  0.36440315781E+02  0.51100000000E-03 0.  1.
         12    1    3    3    0    0  0.40931866542E+02 -0.14802464921E+02  0.16452555396E+01  0.43557290230E+02  0.00000000000E+00 0. -1.
</event>
<event>
 7    1  0.2294706E-015  0.9000774E+02  0.7816164E-02  0.1186339E+00
        -11   -1    0    0    0    0  0.00000000000E+00  0.00000000000E+00  0.45593999997E+02  0.45594000000E+02  0.51100000000E-03 0.  1.
         11   -1    0    0    0    0 -0.00000000000E+00 -0.00000000000E+00 -0.45593999997E+02  0.45594000000E+02  0.51100000000E-03 0. -1.
    9900012    2    1    2    0    0 -0.51632367112E+00  0.82783705467E+00 -0.66415936296E+00  0.90007740714E+02  0.90000002092E+02 0.  0.
        -12    1    1    2    0    0  0.51632367112E+00 -0.82783705467E+00  0.66415936296E+00  0.11802592859E+01  0.00000000000E+00 0.  1.
         11    1    3    3    0    0  0.52564628405E+01 -0.35335098718E+01  0.64046683417E+01  0.90075451948E+01  0.51100000000E-03 0. -1.
        -11    1    3    3    0    0 -0.40427071777E+01  0.31801730776E+02  0.23602507205E+02  0.39809193766E+02  0.51100000000E-03 0.  1.
         12    1    3    3    0    0 -0.17300793339E+01 -0.27440383850E+02 -0.30671334909E+02  0.41191001753E+02  0.00000000000E+00 0. -1.
</event>
<event>
 7    1  0.2294706E-015  0.9000780E+02  0.7816164E-02  0.1186339E+00
        -11   -1    0    0    0    0  0.00000000000E+00  0.00000000000E+00  0.45593999997E+02  0.45594000000E+02  0.51100000000E-03 0.  1.
         11   -1    0    0    0    0 -0.00000000000E+00 -0.00000000000E+00 -0.45593999997E+02  0.45594000000E+02  0.51100000000E-03 0. -1.
    9900012    2    1    2    0    0 -0.64514189667E+00 -0.46142226483E+00 -0.87392860591E+00  0.90007800957E+02  0.90000063129E+02 0.  0.
        -12    1    1    2    0    0  0.64514189667E+00  0.46142226483E+00  0.87392860591E+00  0.11801990432E+01  0.00000000000E+00 0.  1.
         11    1    3    3    0    0 -0.55858732984E+01 -0.10650993373E+02  0.37616610410E+01  0.12601417951E+02  0.51100000000E-03 0. -1.
        -11    1    3    3    0    0  0.32887193124E+02 -0.13795140512E+02  0.11110283162E+02  0.37353872163E+02  0.51100000000E-03 0.  1.
         12    1    3    3    0    0 -0.27946461723E+02  0.23984711620E+02 -0.15745872809E+02  0.40052510843E+02  0.00000000000E+00 0. -1.
</event>
<event>
 7    1  0.2294706E-015  0.9000792E+02  0.7816164E-02  0.1186339E+00
        -11   -1    0    0    0    0  0.00000000000E+00  0.00000000000E+00  0.45593999997E+02  0.45594000000E+02  0.51100000000E-03 0. -1.
         11   -1    0    0    0    0 -0.00000000000E+00 -0.00000000000E+00 -0.45593999997E+02  0.45594000000E+02  0.51100000000E-03 0.  1.
    9900012    2    1    2    0    0 -0.12649568255E+00  0.11710035564E+01 -0.73112753271E-01  0.90007916968E+02  0.90000180672E+02 0.  0.
        -12    1    1    2    0    0  0.12649568255E+00 -0.11710035564E+01  0.73112753271E-01  0.11800830316E+01  0.00000000000E+00 0.  1.
         11    1    3    3    0    0 -0.61789017135E+01 -0.11407956459E+02  0.31034518887E+02  0.33637206479E+02  0.51100000000E-03 0. -1.
        -11    1    3    3    0    0 -0.27977410123E+01 -0.64774364168E+01  0.87942540966E+01  0.11274903223E+02  0.51100000000E-03 0.  1.
        -12    1    3    3    0    0  0.88501470432E+01  0.19056396432E+02 -0.39901885737E+02  0.45095807266E+02  0.00000000000E+00 0.  1.
</event>
<event>
 7    1  0.2294706E-015  0.9000774E+02  0.7816164E-02  0.1186339E+00
        -11   -1    0    0    0    0  0.00000000000E+00  0.00000000000E+00  0.45593999997E+02  0.45594000000E+02  0.51100000000E-03 0.  1.
         11   -1    0    0    0    0 -0.00000000000E+00 -0.00000000000E+00 -0.45593999997E+02  0.45594000000E+02  0.51100000000E-03 0. -1.
    9900012    2    1    2    0    0 -0.48426224290E-01 -0.10009174388E+01 -0.62356029222E+00  0.90007742292E+02  0.90000003691E+02 0.  0.
        -12    1    1    2    0    0  0.48426224290E-01  0.10009174388E+01  0.62356029222E+00  0.11802577077E+01  0.00000000000E+00 0.  1.
         11    1    3    3    0    0  0.80757660579E+01  0.26221517379E+01 -0.79986478122E+00  0.85283914713E+01  0.51100000000E-03 0. -1.
        -11    1    3    3    0    0 -0.14483913223E+02 -0.88401610339E+01  0.38610542660E+02  0.42174710362E+02  0.51100000000E-03 0.  1.
         12    1    3    3    0    0  0.63597209405E+01  0.52170918572E+01 -0.38434238171E+02  0.39304640459E+02  0.00000000000E+00 0. -1.
</event>
<event>
 7    1  0.2294706E-015  0.9000788E+02  0.7816164E-02  0.1186339E+00
        -11   -1    0    0    0    0  0.00000000000E+00  0.00000000000E+00  0.45593999997E+02  0.45594000000E+02  0.51100000000E-03 0. -1.
         11   -1    0    0    0    0 -0.00000000000E+00 -0.00000000000E+00 -0.45593999997E+02  0.45594000000E+02  0.51100000000E-03 0.  1.
    9900012    2    1    2    0    0  0.62624920297E+00 -0.41530869471E+00  0.90995768714E+00  0.90007876122E+02  0.90000139286E+02 0.  0.
        -12    1    1    2    0    0 -0.62624920297E+00  0.41530869471E+00 -0.90995768714E+00  0.11801238785E+01  0.00000000000E+00 0.  1.
         11    1    3    3    0    0  0.27074591764E+02  0.26561950990E+02  0.14461292378E+02  0.40591867869E+02  0.51100000000E-03 0. -1.
        -11    1    3    3    0    0 -0.66807358262E+01  0.35894974482E+01  0.44640566277E+01  0.88002570955E+01  0.51100000000E-03 0.  1.
        -12    1    3    3    0    0 -0.19767606735E+02 -0.30566757133E+02 -0.18015391319E+02  0.40615751157E+02  0.00000000000E+00 0.  1.
</event>
<event>
 7    1  0.2294706E-015  0.9000799E+02  0.7816164E-02  0.1186339E+00
        -11   -1    0    0    0    0  0.00000000000E+00  0.00000000000E+00  0.45593999997E+02  0.45594000000E+02  0.51100000000E-03 0.  1.
         11   -1    0    0    0    0 -0.00000000000E+00 -0.00000000000E+00 -0.45593999997E+02  0.45594000000E+02  0.51100000000E-03 0. -1.
    9900012    2    1    2    0    0 -0.85823605129E+00 -0.80983456183E+00  0.50938907477E-02  0.90007988523E+02  0.90000253172E+02 0.  0.
        -12    1    1    2    0    0  0.85823605129E+00  0.80983456183E+00 -0.50938907477E-02  0.11800114766E+01  0.00000000000E+00 0.  1.
         11    1    3    3    0    0  0.40887866313E+01 -0.52477610864E+01  0.40504356705E+01  0.77886585442E+01  0.51100000000E-03 0. -1.
        -11    1    3    3    0    0  0.20702668801E+02 -0.31132405115E+02 -0.78433523937E+01  0.38201378519E+02  0.51100000000E-03 0.  1.
         12    1    3    3    0    0 -0.25649691484E+02  0.35570331639E+02  0.37980106140E+01  0.44017951460E+02  0.00000000000E+00 0. -1.
</event>
<event>
 7    1  0.2294706E-015  0.9000777E+02  0.7816164E-02  0.1186339E+00
        -11   -1    0    0    0    0  0.00000000000E+00  0.00000000000E+00  0.45593999997E+02  0.45594000000E+02  0.51100000000E-03 0. -1.
         11   -1    0    0    0    0 -0.00000000000E+00 -0.00000000000E+00 -0.45593999997E+02  0.45594000000E+02  0.51100000000E-03 0.  1.
    9900012    2    1    2    0    0 -0.98260213544E+00  0.32208124374E+00 -0.56893717358E+00  0.90007774262E+02  0.90000036083E+02 0.  0.
        -12    1    1    2    0    0  0.98260213544E+00 -0.32208124374E+00  0.56893717358E+00  0.11802257376E+01  0.00000000000E+00 0.  1.
         11    1    3    3    0    0  0.16707863946E+01 -0.33103759039E+01  0.35465843967E+02  0.35659167186E+02  0.51100000000E-03 0. -1.
        -11    1    3    3    0    0 -0.16982242671E+01 -0.72064820444E+01  0.68611317139E+01  0.10094180391E+02  0.51100000000E-03 0.  1.
        -12    1    3    3    0    0 -0.95516426287E+00  0.10838939192E+02 -0.42895912855E+02  0.44254426685E+02  0.00000000000E+00 0.  1.
</event>
<event>
 7    1  0.2294706E-015  0.9000781E+02  0.7816164E-02  0.1186339E+00
        -11   -1    0    0    0    0  0.00000000000E+00  0.00000000000E+00  0.45593999997E+02  0.45594000000E+02  0.51100000000E-03 0. -1.
         11   -1    0    0    0    0 -0.00000000000E+00 -0.00000000000E+00 -0.45593999997E+02  0.45594000000E+02  0.51100000000E-03 0.  1.
    9900012    2    1    2    0    0 -0.41251132898E-01 -0.76741633199E+00  0.89567148597E+00  0.90007806417E+02  0.90000068662E+02 0.  0.
        -12    1    1    2    0    0  0.41251132898E-01  0.76741633199E+00 -0.89567148597E+00  0.11801935830E+01  0.00000000000E+00 0.  1.
         11    1    3    3    0    0 -0.70792536125E+00 -0.65889218434E+01 -0.59842593389E+01  0.89289646361E+01  0.51100000000E-03 0. -1.
        -11    1    3    3    0    0  0.32171919902E+01 -0.80082804001E+01 -0.35444061849E+02  0.36479643637E+02  0.51100000000E-03 0.  1.
         12    1    3    3    0    0 -0.25505177618E+01  0.13829785912E+02  0.42323992674E+02  0.44599198144E+02  0.00000000000E+00 0. -1.
</event>
<event>
 7    1  0.2294706E-015  0.9000776E+02  0.7816164E-02  0.1186339E+00
        -11   -1    0    0    0    0  0.00000000000E+00  0.00000000000E+00  0.45593999997E+02  0.45594000000E+02  0.51100000000E-03 0. -1.
         11   -1    0    0    0    0 -0.00000000000E+00 -0.00000000000E+00 -0.45593999997E+02  0.45594000000E+02  0.51100000000E-03 0.  1.
    9900012    2    1    2    0    0  0.24465231542E+00 -0.55348752679E+00  0.10132959693E+01  0.90007757686E+02  0.90000019288E+02 0.  0.
        -12    1    1    2    0    0 -0.24465231542E+00  0.55348752679E+00 -0.10132959693E+01  0.11802423137E+01  0.00000000000E+00 0.  1.
         11    1    3    3    0    0 -0.34804397498E+02 -0.28684959252E+01 -0.15647689105E+02  0.38267800154E+02  0.51100000000E-03 0. -1.
        -11    1    3    3    0    0 -0.33068238480E+01  0.93390284995E+01  0.21802144567E+01  0.10144253182E+02  0.51100000000E-03 0.  1.
        -12    1    3    3    0    0  0.38355873661E+02 -0.70240201011E+01  0.14480770617E+02  0.41595704350E+02  0.00000000000E+00 0.  1.
</event>
<event>
 7    1  0.2294706E-015  0.9000764E+02  0.7816164E-02  0.1186339E+00
        -11   -1    0    0    0    0  0.00000000000E+00  0.00000000000E+00  0.45593999997E+02  0.45594000000E+02  0.51100000000E-03 0.  1.
         11   -1    0    0    0    0 -0.00000000000E+00 -0.00000000000E+00 -0.45593999997E+02  0.45594000000E+02  0.51100000000E-03 0. -1.
    9900012    2    1    2    0    0 -0.73155569424E+00 -0.84922337326E+00 -0.36998788712E+00  0.90007641958E+02  0.89999902031E+02 0.  0.
        -12    1    1    2    0    0  0.73155569424E+00  0.84922337326E+00  0.36998788712E+00  0.11803580423E+01  0.00000000000E+00 0.  1.
         11    1    3    3    0    0 -0.70085034881E+01 -0.25218438476E+01 -0.51759114672E+01  0.90702192539E+01  0.51100000000E-03 0. -1.
        -11    1    3    3    0    0  0.37186507307E+02  0.22192969359E+02 -0.13635929093E+01  0.43326938509E+02  0.51100000000E-03 0.  1.
         12    1    3    3    0    0 -0.30909559513E+02 -0.20520348885E+02  0.61695164894E+01  0.37610484195E+02  0.00000000000E+00 0. -1.
</event>
<event>
 7    1  0.2294706E-015  0.9000775E+02  0.7816164E-02  0.1186339E+00
        -11   -1    0    0    0    0  0.00000000000E+00  0.00000000000E+00  0.45593999997E+02  0.45594000000E+02  0.51100000000E-03 0. -1.
         11   -1    0    0    0    0 -0.00000000000E+00 -0.00000000000E+00 -0.45593999997E+02  0.45594000000E+02  0.51100000000E-03 0.  1.
    9900012    2    1    2    0    0 -0.33512258611E-01  0.68165329599E+00  0.96291972341E+00  0.90007750585E+02  0.90000012093E+02 0.  0.
        -12    1    1    2    0    0  0.33512258611E-01 -0.68165329599E+00 -0.96291972341E+00  0.11802494148E+01  0.00000000000E+00 0.  1.
         11    1    3    3    0    0 -0.68648707701E+01 -0.73136280096E+01 -0.14297995024E+01  0.10132123777E+02  0.51100000000E-03 0. -1.
        -11    1    3    3    0    0  0.12566111831E+02  0.15815086288E+02 -0.35454969148E+02  0.40805379038E+02  0.51100000000E-03 0.  1.
         12    1    3    3    0    0 -0.57347533194E+01 -0.78198049828E+01  0.37847688374E+02  0.39070247771E+02  0.00000000000E+00 0. -1.
</event>
<event>
 7    1  0.2294706E-015  0.9000779E+02  0.7816164E-02  0.1186339E+00
        -11   -1    0    0    0    0  0.00000000000E+00  0.00000000000E+00  0.45593999997E+02  0.45594000000E+02  0.51100000000E-03 0.  1.
         11   -1    0    0    0    0 -0.00000000000E+00 -0.00000000000E+00 -0.45593999997E+02  0.45594000000E+02  0.51100000000E-03 0. -1.
    9900012    2    1    2    0    0  0.84146220986E+00  0.79519133972E+00 -0.22914418442E+00  0.90007790284E+02  0.90000052315E+02 0.  0.
        -12    1    1    2    0    0 -0.84146220986E+00 -0.79519133972E+00  0.22914418442E+00  0.11802097164E+01  0.00000000000E+00 0.  1.
         11    1    3    3    0    0 -0.14533189092E+01  0.19047855103E+02 -0.34578933408E+02  0.39504880151E+02  0.51100000000E-03 0. -1.
        -11    1    3    3    0    0 -0.10401526558E+02 -0.63849184364E+01  0.22440277514E+00  0.12206936349E+02  0.51100000000E-03 0.  1.
        -12    1    3    3    0    0  0.12696307677E+02 -0.11867745327E+02  0.34125386448E+02  0.38295973783E+02  0.00000000000E+00 0.  1.
</event>
<event>
 7    1  0.2294706E-015  0.9000770E+02  0.7816164E-02  0.1186339E+00
        -11   -1    0    0    0    0  0.00000000000E+00  0.00000000000E+00  0.45593999997E+02  0.45594000000E+02  0.51100000000E-03 0. -1.
         11   -1    0    0    0    0 -0.00000000000E+00 -0.00000000000E+00 -0.45593999997E+02  0.45594000000E+02  0.51100000000E-03 0.  1.
    9900012    2    1    2    0    0 -0.18451253597E+00  0.11631193110E+01 -0.78868758633E-01  0.90007698476E+02  0.89999959295E+02 0.  0.
        -12    1    1    2    0    0  0.18451253597E+00 -0.11631193110E+01  0.78868758633E-01  0.11803015244E+01  0.00000000000E+00 0.  1.
         11    1    3    3    0    0  0.38951446080E+01 -0.10122515014E+02 -0.11830175009E+01  0.10910407526E+02  0.51100000000E-03 0. -1.
        -11    1    3    3    0    0  0.36685674543E+02  0.83063423223E+01 -0.43336578563E+01  0.37863103810E+02  0.51100000000E-03 0.  1.
         12    1    3    3    0    0 -0.40765331687E+02  0.29792920026E+01  0.54378065985E+01  0.41234187139E+02  0.00000000000E+00 0. -1.
</event>
<event>
 7    1  0.2294706E-015  0.9000774E+02  0.7816164E-02  0.1186339E+00
        -11   -1    0    0    0    0  0.00000000000E+00  0.00000000000E+00  0.45593999997E+02  0.45594000000E+02  0.51100000000E-03 0.  1.
         11   -1    0    0    0    0 -0.00000000000E+00 -0.00000000000E+00 -0.45593999997E+02  0.45594000000E+02  0.51100000000E-03 0. -1.
    9900012    2    1    2    0    0 -0.13532686005E+00  0.11381241431E+01  0.28171983818E+00  0.90007743252E+02  0.90000004663E+02 0.  0.
        -12    1    1    2    0    0  0.13532686005E+00 -0.11381241431E+01 -0.28171983818E+00  0.11802567480E+01  0.00000000000E+00 0.  1.
         11    1    3    3    0    0  0.76738974661E+01  0.59908028622E+01 -0.35567781064E+02  0.36876082646E+02  0.51100000000E-03 0. -1.
        -11    1    3    3    0    0  0.31613849942E+01  0.93973271703E+01 -0.29689187287E+01  0.10349811192E+02  0.51100000000E-03 0.  1.
        -12    1    3    3    0    0 -0.10970609320E+02 -0.14250005889E+02  0.38818419630E+02  0.42781849414E+02  0.00000000000E+00 0.  1.
</event>
<event>
 7    1  0.2294706E-015  0.9000786E+02  0.7816164E-02  0.1186339E+00
        -11   -1    0    0    0    0  0.00000000000E+00  0.00000000000E+00  0.45593999997E+02  0.45594000000E+02  0.51100000000E-03 0.  1.
         11   -1    0    0    0    0 -0.00000000000E+00 -0.00000000000E+00 -0.45593999997E+02  0.45594000000E+02  0.51100000000E-03 0. -1.
    9900012    2    1    2    0    0  0.23990347016E+00 -0.12898815255E+00 -0.11482730201E+01  0.90007863335E+02  0.90000126331E+02 0.  0.
        -12    1    1    2    0    0 -0.23990347016E+00  0.12898815255E+00  0.11482730201E+01  0.11801366646E+01  0.00000000000E+00 0.  1.
         11    1    3    3    0    0 -0.74098954806E+01 -0.16907541344E+02 -0.29017428220E+01  0.18686669500E+02  0.51100000000E-03 0. -1.
        -11    1    3    3    0    0  0.35324825747E+02  0.63686037898E-01  0.12155908211E+02  0.37357910470E+02  0.51100000000E-03 0.  1.
         12    1    3    3    0    0 -0.27675026796E+02  0.16714867154E+02 -0.10402438409E+02  0.33963283366E+02  0.00000000000E+00 0. -1.
</event>
<event>
 7    1  0.2294706E-015  0.9000773E+02  0.7816164E-02  0.1186339E+00
        -11   -1    0    0    0    0  0.00000000000E+00  0.00000000000E+00  0.45593999997E+02  0.45594000000E+02  0.51100000000E-03 0. -1.
         11   -1    0    0    0    0 -0.00000000000E+00 -0.00000000000E+00 -0.45593999997E+02  0.45594000000E+02  0.51100000000E-03 0.  1.
    9900012    2    1    2    0    0 -0.10672564955E+01  0.72220698913E-01  0.49878421186E+00  0.90007729715E+02  0.89999990947E+02 0.  0.
        -12    1    1    2    0    0  0.10672564955E+01 -0.72220698913E-01 -0.49878421186E+00  0.11802702854E+01  0.00000000000E+00 0.  1.
         11    1    3    3    0    0 -0.27409729902E+01 -0.13420462052E+02  0.18855297501E+02  0.23305449550E+02  0.51100000000E-03 0. -1.
        -11    1    3    3    0    0 -0.15222147185E+02 -0.16637392476E+02  0.72670110711E+01  0.23692320349E+02  0.51100000000E-03 0.  1.
        -12    1    3    3    0    0  0.16895863680E+02  0.30130075228E+02 -0.25623524360E+02  0.43009959816E+02  0.00000000000E+00 0.  1.
</event>
<event>
 7    1  0.2294706E-015  0.9000775E+02  0.7816164E-02  0.1186339E+00
        -11   -1    0    0    0    0  0.00000000000E+00  0.00000000000E+00  0.45593999997E+02  0.45594000000E+02  0.51100000000E-03 0.  1.
         11   -1    0    0    0    0 -0.00000000000E+00 -0.00000000000E+00 -0.45593999997E+02  0.45594000000E+02  0.51100000000E-03 0. -1.
    9900012    2    1    2    0    0 -0.99264143225E+00  0.52241482584E+00 -0.36705003673E+00  0.90007754266E+02  0.90000015822E+02 0.  0.
        -12    1    1    2    0    0  0.99264143225E+00 -0.52241482584E+00  0.36705003673E+00  0.11802457340E+01  0.00000000000E+00 0.  1.
         11    1    3    3    0    0  0.94833154261E+01 -0.31841854064E+01 -0.23109809787E+01  0.10267080477E+02  0.51100000000E-03 0. -1.
        -11    1    3    3    0    0  0.22810149253E+02  0.27649772244E+02  0.11490628115E+02  0.37641032781E+02  0.51100000000E-03 0.  1.
         12    1    3    3    0    0 -0.33286106111E+02 -0.23943172012E+02 -0.95466971733E+01  0.42099641008E+02  0.00000000000E+00 0. -1.
</event>
<event>
 7    1  0.2294706E-015  0.9000768E+02  0.7816164E-02  0.1186339E+00
        -11   -1    0    0    0    0  0.00000000000E+00  0.00000000000E+00  0.45593999997E+02  0.45594000000E+02  0.51100000000E-03 0.  1.
         11   -1    0    0    0    0 -0.00000000000E+00 -0.00000000000E+00 -0.45593999997E+02  0.45594000000E+02  0.51100000000E-03 0. -1.
    9900012    2    1    2    0    0 -0.11309412289E+01  0.29154534497E+00 -0.17068277177E+00  0.90007678281E+02  0.89999938834E+02 0.  0.
        -12    1    1    2    0    0  0.11309412289E+01 -0.29154534497E+00  0.17068277177E+00  0.11803217188E+01  0.00000000000E+00 0.  1.
         11    1    3    3    0    0 -0.48031697968E+01 -0.53525727876E+01  0.63498599185E+01  0.95938103374E+01  0.51100000000E-03 0. -1.
        -11    1    3    3    0    0 -0.60926249286E+01 -0.35015143664E+02  0.74743704045E+01  0.36318680834E+02  0.51100000000E-03 0.  1.
         12    1    3    3    0    0  0.97648534966E+01  0.40659261797E+02 -0.13994913095E+02  0.44095187109E+02  0.00000000000E+00 0. -1.
</event>
<event>
 7    1  0.2294706E-015  0.9000776E+02  0.7816164E-02  0.1186339E+00
        -11   -1    0    0    0    0  0.00000000000E+00  0.00000000000E+00  0.45593999997E+02  0.45594000000E+02  0.51100000000E-03 0.  1.
         11   -1    0    0    0    0 -0.00000000000E+00 -0.00000000000E+00 -0.45593999997E+02  0.45594000000E+02  0.51100000000E-03 0. -1.
    9900012    2    1    2    0    0 -0.10340882808E+01  0.47487617533E+00 -0.31322483231E+00  0.90007764536E+02  0.90000026228E+02 0.  0.
        -12    1    1    2    0    0  0.10340882808E+01 -0.47487617533E+00  0.31322483231E+00  0.11802354638E+01  0.00000000000E+00 0.  1.
         11    1    3    3    0    0 -0.50632412274E+01  0.36711373292E+00  0.10420409414E+02  0.11591208601E+02  0.51100000000E-03 0. -1.
        -11    1    3    3    0    0 -0.36791010275E+02 -0.55148539083E+00 -0.35777671844E+01  0.36968675814E+02  0.51100000000E-03 0.  1.
         12    1    3    3    0    0  0.40820163221E+02  0.65924783323E+00 -0.71558670615E+01  0.41447880121E+02  0.00000000000E+00 0. -1.
</event>
<event>
 7    1  0.2294706E-015  0.9000782E+02  0.7816164E-02  0.1186339E+00
        -11   -1    0    0    0    0  0.00000000000E+00  0.00000000000E+00  0.45593999997E+02  0.45594000000E+02  0.51100000000E-03 0.  1.
         11   -1    0    0    0    0 -0.00000000000E+00 -0.00000000000E+00 -0.45593999997E+02  0.45594000000E+02  0.51100000000E-03 0. -1.
    9900012    2    1    2    0    0 -0.65345634087E+00 -0.78962691873E+00 -0.58506614792E+00  0.90007822785E+02  0.90000085246E+02 0.  0.
        -12    1    1    2    0    0  0.65345634087E+00  0.78962691873E+00  0.58506614792E+00  0.11801772145E+01  0.00000000000E+00 0.  1.
         11    1    3    3    0    0  0.26457825166E+02 -0.34155984985E+02 -0.15061716972E+01  0.43230965480E+02  0.51100000000E-03 0. -1.
        -11    1    3    3    0    0 -0.82730350652E+01  0.19517192272E+01 -0.47079299501E+01  0.97168370269E+01  0.51100000000E-03 0.  1.
        -12    1    3    3    0    0 -0.18838246442E+02  0.31414638839E+02  0.56290354993E+01  0.37060020279E+02  0.00000000000E+00 0.  1.
</event>
<event>
 7    1  0.2294706E-015  0.9000772E+02  0.7816164E-02  0.1186339E+00
        -11   -1    0    0    0    0  0.00000000000E+00  0.00000000000E+00  0.45593999997E+02  0.45594000000E+02  0.51100000000E-03 0. -1.
         11   -1    0    0    0    0 -0.00000000000E+00 -0.00000000000E+00 -0.45593999997E+02  0.45594000000E+02  0.51100000000E-03 0.  1.
    9900012    2    1    2    0    0 -0.43451604117E+00 -0.73866193139E+00  0.81155756818E+00  0.90007724047E+02  0.89999985204E+02 0.  0.
        -12    1    1    2    0    0  0.43451604117E+00  0.73866193139E+00 -0.81155756818E+00  0.11802759531E+01  0.00000000000E+00 0.  1.
         11    1    3    3    0    0  0.67030833491E+01  0.74910009035E+01 -0.61604343545E+01  0.11789714696E+02  0.51100000000E-03 0. -1.
        -11    1    3    3    0    0  0.82615317172E+01 -0.36369751620E+02 -0.14061648277E+02  0.39859022715E+02  0.51100000000E-03 0.  1.
         12    1    3    3    0    0 -0.15399131107E+02  0.28140088785E+02  0.21033640199E+02  0.38358986636E+02  0.00000000000E+00 0. -1.
</event>
<event>
 7    1  0.2294706E-015  0.9000783E+02  0.7816164E-02  0.1186339E+00
        -11   -1    0    0    0    0  0.00000000000E+00  0.00000000000E+00  0.45593999997E+02  0.45594000000E+02  0.51100000000E-03 0.  1.
         11   -1    0    0    0    0 -0.00000000000E+00 -0.00000000000E+00 -0.45593999997E+02  0.45594000000E+02  0.51100000000E-03 0. -1.
    9900012    2    1    2    0    0 -0.40197715772E+00 -0.28106647152E+00 -0.10734129889E+01  0.90007830757E+02  0.90000093323E+02 0.  0.
        -12    1    1    2    0    0  0.40197715772E+00  0.28106647152E+00  0.10734129889E+01  0.11801692428E+01  0.00000000000E+00 0.  1.
         11    1    3    3    0    0 -0.62176816426E+01 -0.32806780625E+02  0.17760584762E+01  0.33437984448E+02  0.51100000000E-03 0. -1.
        -11    1    3    3    0    0 -0.71122252399E+01 -0.18223379502E+01  0.14289051790E+02  0.16064920316E+02  0.51100000000E-03 0.  1.
        -12    1    3    3    0    0  0.12927929725E+02  0.34348052104E+02 -0.17138523255E+02  0.40504925992E+02  0.00000000000E+00 0.  1.
</event>
<event>
 7    1  0.2294706E-015  0.9000771E+02  0.7816164E-02  0.1186339E+00
        -11   -1    0    0    0    0  0.00000000000E+00  0.00000000000E+00  0.45593999997E+02  0.45594000000E+02  0.51100000000E-03 0.  1.
         11   -1    0    0    0    0 -0.00000000000E+00 -0.00000000000E+00 -0.45593999997E+02  0.45594000000E+02  0.51100000000E-03 0. -1.
    9900012    2    1    2    0    0  0.11093247436E+01 -0.19757391238E+00 -0.35136013980E+00  0.90007707331E+02  0.89999968267E+02 0.  0.
        -12    1    1    2    0    0 -0.11093247436E+01  0.19757391238E+00  0.35136013980E+00  0.11802926694E+01  0.00000000000E+00 0.  1.
         11    1    3    3    0    0 -0.23840148659E+02  0.31503875895E+01  0.27094074243E+02  0.36226599197E+02  0.51100000000E-03 0. -1.
        -11    1    3    3    0    0  0.37623518264E+01  0.27227263252E+01  0.96062123932E+01  0.10669950642E+02  0.51100000000E-03 0.  1.
        -12    1    3    3    0    0  0.21187121576E+02 -0.60706878271E+01 -0.37051646776E+02  0.43111157491E+02  0.00000000000E+00 0.  1.
</event>
<event>
 7    1  0.2294706E-015  0.9000786E+02  0.7816164E-02  0.1186339E+00
        -11   -1    0    0    0    0  0.00000000000E+00  0.00000000000E+00  0.45593999997E+02  0.45594000000E+02  0.51100000000E-03 0.  1.
         11   -1    0    0    0    0 -0.00000000000E+00 -0.00000000000E+00 -0.45593999997E+02  0.45594000000E+02  0.51100000000E-03 0. -1.
    9900012    2    1    2    0    0  0.99403570253E+00 -0.47246655307E+00 -0.42592284491E+00  0.90007855140E+02  0.90000118027E+02 0.  0.
        -12    1    1    2    0    0 -0.99403570253E+00  0.47246655307E+00  0.42592284491E+00  0.11801448604E+01  0.00000000000E+00 0.  1.
         11    1    3    3    0    0 -0.14827446500E+01  0.93670423859E+01 -0.11751965297E+01  0.95562075062E+01  0.51100000000E-03 0. -1.
        -11    1    3    3    0    0 -0.11652041735E+02 -0.11158168680E+02  0.37626031133E+02  0.40938893781E+02  0.51100000000E-03 0.  1.
         12    1    3    3    0    0  0.14128822088E+02  0.13186597410E+01 -0.36876757449E+02  0.39512753853E+02  0.00000000000E+00 0. -1.
</event>
<event>
 7    1  0.2294706E-015  0.9000818E+02  0.7816164E-02  0.1186338E+00
        -11   -1    0    0    0    0  0.00000000000E+00  0.00000000000E+00  0.45593999997E+02  0.45594000000E+02  0.51100000000E-03 0. -1.
         11   -1    0    0    0    0 -0.00000000000E+00 -0.00000000000E+00 -0.45593999997E+02  0.45594000000E+02  0.51100000000E-03 0.  1.
    9900012    2    1    2    0    0 -0.11728442450E+01 -0.56968352264E-01 -0.11475707855E+00  0.90008178741E+02  0.90000445899E+02 0.  0.
        -12    1    1    2    0    0  0.11728442450E+01  0.56968352264E-01  0.11475707855E+00  0.11798212591E+01  0.00000000000E+00 0.  1.
         11    1    3    3    0    0 -0.21589240257E+01 -0.52772557413E+01  0.49402539455E+01  0.75443018507E+01  0.51100000000E-03 0. -1.
        -11    1    3    3    0    0 -0.40338628563E+02  0.32468803390E+01  0.18900196154E+01  0.40513199832E+02  0.51100000000E-03 0.  1.
         12    1    3    3    0    0  0.41324708343E+02  0.19734070501E+01 -0.69450306394E+01  0.41950677058E+02  0.00000000000E+00 0. -1.
</event>
<event>
 7    1  0.2294706E-015  0.9000774E+02  0.7816164E-02  0.1186339E+00
        -11   -1    0    0    0    0  0.00000000000E+00  0.00000000000E+00  0.45593999997E+02  0.45594000000E+02  0.51100000000E-03 0.  1.
         11   -1    0    0    0    0 -0.00000000000E+00 -0.00000000000E+00 -0.45593999997E+02  0.45594000000E+02  0.51100000000E-03 0. -1.
    9900012    2    1    2    0    0 -0.47190317663E+00 -0.59869562796E+00 -0.90104365676E+00  0.90007742090E+02  0.90000003485E+02 0.  0.
        -12    1    1    2    0    0  0.47190317663E+00  0.59869562796E+00  0.90104365676E+00  0.11802579101E+01  0.00000000000E+00 0.  1.
         11    1    3    3    0    0  0.58536380403E+01  0.30243339598E+01  0.75237340408E+01  0.10000912378E+02  0.51100000000E-03 0. -1.
        -11    1    3    3    0    0  0.14181331782E+02  0.30850629132E+02 -0.18475244986E+02  0.38654963026E+02  0.51100000000E-03 0.  1.
         12    1    3    3    0    0 -0.20506872999E+02 -0.34473658720E+02  0.10050467289E+02  0.41351866686E+02  0.00000000000E+00 0. -1.
</event>
<event>
 7    1  0.2294706E-015  0.9000777E+02  0.7816164E-02  0.1186339E+00
        -11   -1    0    0    0    0  0.00000000000E+00  0.00000000000E+00  0.45593999997E+02  0.45594000000E+02  0.51100000000E-03 0. -1.
         11   -1    0    0    0    0 -0.00000000000E+00 -0.00000000000E+00 -0.45593999997E+02  0.45594000000E+02  0.51100000000E-03 0.  1.
    9900012    2    1    2    0    0 -0.10343914993E+01  0.56810630813E+00 -0.15189589310E-01  0.90007770669E+02  0.90000032441E+02 0.  0.
        -12    1    1    2    0    0  0.10343914993E+01 -0.56810630813E+00  0.15189589310E-01  0.11802293314E+01  0.00000000000E+00 0.  1.
         11    1    3    3    0    0  0.33005570363E+02  0.11751146834E+01  0.14305463595E+02  0.35991594275E+02  0.51100000000E-03 0. -1.
        -11    1    3    3    0    0  0.88052720275E+01 -0.14625835860E+01 -0.47323803299E+01  0.10102840693E+02  0.51100000000E-03 0.  1.
        -12    1    3    3    0    0 -0.42845233890E+02  0.85557521071E+00 -0.95882728545E+01  0.43913335701E+02  0.00000000000E+00 0.  1.
</event>
<event>
 7    1  0.2294706E-015  0.9000776E+02  0.7816164E-02  0.1186339E+00
        -11   -1    0    0    0    0  0.00000000000E+00  0.00000000000E+00  0.45593999997E+02  0.45594000000E+02  0.51100000000E-03 0.  1.
         11   -1    0    0    0    0 -0.00000000000E+00 -0.00000000000E+00 -0.45593999997E+02  0.45594000000E+02  0.51100000000E-03 0. -1.
    9900012    2    1    2    0    0 -0.54797886816E+00  0.28755622788E+00 -0.10049887323E+01  0.90007757747E+02  0.90000019349E+02 0.  0.
        -12    1    1    2    0    0  0.54797886816E+00 -0.28755622788E+00  0.10049887323E+01  0.11802422532E+01  0.00000000000E+00 0.  1.
         11    1    3    3    0    0 -0.18832678009E+02 -0.89031381006E+01  0.31937297032E+01  0.21074523451E+02  0.51100000000E-03 0. -1.
        -11    1    3    3    0    0 -0.67321853957E+01 -0.94858250960E+01  0.24123253844E+02  0.26781235488E+02  0.51100000000E-03 0.  1.
         12    1    3    3    0    0  0.25016884536E+02  0.18676519424E+02 -0.28321972280E+02  0.42151998808E+02  0.00000000000E+00 0. -1.
</event>
<event>
 7    1  0.2294706E-015  0.9000774E+02  0.7816164E-02  0.1186339E+00
        -11   -1    0    0    0    0  0.00000000000E+00  0.00000000000E+00  0.45593999997E+02  0.45594000000E+02  0.51100000000E-03 0.  1.
         11   -1    0    0    0    0 -0.00000000000E+00 -0.00000000000E+00 -0.45593999997E+02  0.45594000000E+02  0.51100000000E-03 0. -1.
    9900012    2    1    2    0    0 -0.94422780421E+00 -0.70742177750E+00 -0.31512214630E-01  0.90007743783E+02  0.90000005201E+02 0.  0.
        -12    1    1    2    0    0  0.94422780421E+00  0.70742177750E+00  0.31512214630E-01  0.11802562168E+01  0.00000000000E+00 0.  1.
         11    1    3    3    0    0  0.14679738348E+01 -0.33136339786E+01 -0.79119927056E+01  0.87025712384E+01  0.51100000000E-03 0. -1.
        -11    1    3    3    0    0  0.33565748401E+02 -0.15620349722E+02 -0.81430619586E+01  0.37907311293E+02  0.51100000000E-03 0.  1.
         12    1    3    3    0    0 -0.35977950040E+02  0.18226561923E+02  0.16023542450E+02  0.43397861252E+02  0.00000000000E+00 0. -1.
</event>
<event>
 7    1  0.2294706E-015  0.9000753E+02  0.7816164E-02  0.1186339E+00
        -11   -1    0    0    0    0  0.00000000000E+00  0.00000000000E+00  0.45593999997E+02  0.45594000000E+02  0.51100000000E-03 0.  1.
         11   -1    0    0    0    0 -0.00000000000E+00 -0.00000000000E+00 -0.45593999997E+02  0.45594000000E+02  0.51100000000E-03 0. -1.
    9900012    2    1    2    0    0  0.63481461051E-01 -0.10224690952E+01 -0.58653762247E+00  0.90007534274E+02  0.89999792927E+02 0.  0.
        -12    1    1    2    0    0 -0.63481461051E-01  0.10224690952E+01  0.58653762247E+00  0.11804657255E+01  0.00000000000E+00 0.  1.
         11    1    3    3    0    0  0.43621074022E+01 -0.62278643140E+01 -0.43812172964E+01  0.87754965763E+01  0.51100000000E-03 0. -1.
        -11    1    3    3    0    0  0.21910998517E+02  0.57107904493E+01 -0.30549781544E+02  0.38026229582E+02  0.51100000000E-03 0.  1.
         12    1    3    3    0    0 -0.26209624459E+02 -0.50539523052E+00  0.34344461218E+02  0.43205808116E+02  0.00000000000E+00 0. -1.
</event>
<event>
 7    1  0.2485807E-015  0.9000764E+02  0.7816164E-02  0.1186339E+00
        -11   -1    0    0    0    0  0.00000000000E+00  0.00000000000E+00  0.45593999997E+02  0.45594000000E+02  0.51100000000E-03 0. -1.
         11   -1    0    0    0    0 -0.00000000000E+00 -0.00000000000E+00 -0.45593999997E+02  0.45594000000E+02  0.51100000000E-03 0.  1.
    9900012    2    1    2    0    0 -0.10466578845E+01  0.67747546011E-01  0.54145800912E+00  0.90007635974E+02  0.89999895969E+02 0.  0.
        -12    1    1    2    0    0  0.10466578845E+01 -0.67747546011E-01 -0.54145800912E+00  0.11803640255E+01  0.00000000000E+00 0.  1.
         11    1    3    3    0    0 -0.15884873526E+02  0.27565871812E+02  0.19245542886E+02  0.37183294864E+02  0.51100000000E-03 0. -1.
        -11    1    3    3    0    0 -0.85419518173E+01  0.39212043532E+01  0.56012074328E-01  0.93991447506E+01  0.51100000000E-03 0.  1.
        -12    1    3    3    0    0  0.23380167459E+02 -0.31419328619E+02 -0.18760096951E+02  0.43425196360E+02  0.00000000000E+00 0.  1.
</event>
<event>
 7    1  0.2294706E-015  0.9000788E+02  0.7816164E-02  0.1186339E+00
        -11   -1    0    0    0    0  0.00000000000E+00  0.00000000000E+00  0.45593999997E+02  0.45594000000E+02  0.51100000000E-03 0. -1.
         11   -1    0    0    0    0 -0.00000000000E+00 -0.00000000000E+00 -0.45593999997E+02  0.45594000000E+02  0.51100000000E-03 0.  1.
    9900012    2    1    2    0    0  0.11142593441E+01 -0.26124444470E+00 -0.28786842610E+00  0.90007876796E+02  0.90000139970E+02 0.  0.
        -12    1    1    2    0    0 -0.11142593441E+01  0.26124444470E+00  0.28786842610E+00  0.11801232039E+01  0.00000000000E+00 0.  1.
         11    1    3    3    0    0 -0.18118879307E+02 -0.31855949549E+02 -0.21295979297E+02  0.42386484207E+02  0.51100000000E-03 0. -1.
        -11    1    3    3    0    0  0.12222963895E+01  0.49661475929E+00  0.99274129308E+01  0.10014697322E+02  0.51100000000E-03 0.  1.
        -12    1    3    3    0    0  0.18010842262E+02  0.31098090345E+02  0.11080697940E+02  0.37606695267E+02  0.00000000000E+00 0.  1.
</event>
<event>
 7    1  0.2294706E-015  0.9000792E+02  0.7816164E-02  0.1186339E+00
        -11   -1    0    0    0    0  0.00000000000E+00  0.00000000000E+00  0.45593999997E+02  0.45594000000E+02  0.51100000000E-03 0. -1.
         11   -1    0    0    0    0 -0.00000000000E+00 -0.00000000000E+00 -0.45593999997E+02  0.45594000000E+02  0.51100000000E-03 0.  1.
    9900012    2    1    2    0    0  0.81841526043E+00 -0.44661726292E+00  0.72340095578E+00  0.90007923960E+02  0.90000187756E+02 0.  0.
        -12    1    1    2    0    0 -0.81841526043E+00  0.44661726292E+00 -0.72340095578E+00  0.11800760403E+01  0.00000000000E+00 0.  1.
         11    1    3    3    0    0 -0.39564678680E+02 -0.60670642389E+01  0.11242543879E+02  0.41576049123E+02  0.51100000000E-03 0. -1.
        -11    1    3    3    0    0 -0.13559594316E+01  0.53660497323E+01 -0.13416117756E+01  0.56950011525E+01  0.51100000000E-03 0.  1.
        -12    1    3    3    0    0  0.41739053372E+02  0.25439724372E+00 -0.91775311472E+01  0.42736873684E+02  0.00000000000E+00 0.  1.
</event>
<event>
 7    1  0.2294706E-015  0.9000783E+02  0.7816164E-02  0.1186339E+00
        -11   -1    0    0    0    0  0.00000000000E+00  0.00000000000E+00  0.45593999997E+02  0.45594000000E+02  0.51100000000E-03 0.  1.
         11   -1    0    0    0    0 -0.00000000000E+00 -0.00000000000E+00 -0.45593999997E+02  0.45594000000E+02  0.51100000000E-03 0. -1.
    9900012    2    1    2    0    0  0.17702505850E+00 -0.10410733114E+01 -0.52689648748E+00  0.90007834156E+02  0.90000096767E+02 0.  0.
        -12    1    1    2    0    0 -0.17702505850E+00  0.10410733114E+01  0.52689648748E+00  0.11801658441E+01  0.00000000000E+00 0.  1.
         11    1    3    3    0    0  0.13347112963E+02  0.21735815187E+02 -0.29111623795E+02  0.38705009062E+02  0.51100000000E-03 0. -1.
        -11    1    3    3    0    0 -0.11338848031E+02 -0.53153869318E+00 -0.38006132924E+01  0.11970658700E+02  0.51100000000E-03 0.  1.
        -12    1    3    3    0    0 -0.18312398727E+01 -0.22245349805E+02  0.32385340600E+02  0.39332166393E+02  0.00000000000E+00 0.  1.
</event>
<event>
 7    1  0.2294706E-015  0.9000773E+02  0.7816164E-02  0.1186339E+00
        -11   -1    0    0    0    0  0.00000000000E+00  0.00000000000E+00  0.45593999997E+02  0.45594000000E+02  0.51100000000E-03 0.  1.
         11   -1    0    0    0    0 -0.00000000000E+00 -0.00000000000E+00 -0.45593999997E+02  0.45594000000E+02  0.51100000000E-03 0. -1.
    9900012    2    1    2    0    0  0.61084923686E+00 -0.10096026173E+01 -0.24646477789E-01  0.90007728131E+02  0.89999989343E+02 0.  0.
        -12    1    1    2    0    0 -0.61084923686E+00  0.10096026173E+01  0.24646477789E-01  0.11802718686E+01  0.00000000000E+00 0.  1.
         11    1    3    3    0    0  0.26638848772E+02 -0.21100983362E+02 -0.98555225987E+01  0.35383768718E+02  0.51100000000E-03 0. -1.
        -11    1    3    3    0    0  0.10816297805E+02  0.16205044151E+00 -0.22055487138E+01  0.11040063584E+02  0.51100000000E-03 0.  1.
        -12    1    3    3    0    0 -0.36844297340E+02  0.19929330304E+02  0.12036424835E+02  0.43583895829E+02  0.00000000000E+00 0.  1.
</event>
<event>
 7    1  0.2294706E-015  0.9000774E+02  0.7816164E-02  0.1186339E+00
        -11   -1    0    0    0    0  0.00000000000E+00  0.00000000000E+00  0.45593999997E+02  0.45594000000E+02  0.51100000000E-03 0.  1.
         11   -1    0    0    0    0 -0.00000000000E+00 -0.00000000000E+00 -0.45593999997E+02  0.45594000000E+02  0.51100000000E-03 0. -1.
    9900012    2    1    2    0    0  0.48079697236E+00  0.34480132633E+00 -0.10212563629E+01  0.90007738062E+02  0.89999999404E+02 0.  0.
        -12    1    1    2    0    0 -0.48079697236E+00 -0.34480132633E+00  0.10212563629E+01  0.11802619379E+01  0.00000000000E+00 0.  1.
         11    1    3    3    0    0 -0.12640949030E+02 -0.25768227231E+02 -0.14911945193E+02  0.32344415850E+02  0.51100000000E-03 0. -1.
        -11    1    3    3    0    0  0.29024527436E+02  0.90846532218E+01  0.15824706112E+02  0.34283748932E+02  0.51100000000E-03 0.  1.
         12    1    3    3    0    0 -0.15902781434E+02  0.17028375335E+02 -0.19340172820E+01  0.23379573280E+02  0.00000000000E+00 0. -1.
</event>
<event>
 7    1  0.2294706E-015  0.9000746E+02  0.7816164E-02  0.1186340E+00
        -11   -1    0    0    0    0  0.00000000000E+00  0.00000000000E+00  0.45593999997E+02  0.45594000000E+02  0.51100000000E-03 0.  1.
         11   -1    0    0    0    0 -0.00000000000E+00 -0.00000000000E+00 -0.45593999997E+02  0.45594000000E+02  0.51100000000E-03 0. -1.
    9900012    2    1    2    0    0 -0.75883760646E+00 -0.77047137971E+00 -0.47351465605E+00  0.90007459111E+02  0.89999716771E+02 0.  0.
        -12    1    1    2    0    0  0.75883760646E+00  0.77047137971E+00  0.47351465605E+00  0.11805408885E+01  0.00000000000E+00 0.  1.
         11    1    3    3    0    0 -0.58967866245E+01  0.55756868717E+01  0.47677765984E+01  0.94123360830E+01  0.51100000000E-03 0. -1.
        -11    1    3    3    0    0 -0.34939700947E+01  0.19703865239E+02  0.29918064363E+02  0.35993620377E+02  0.51100000000E-03 0.  1.
         12    1    3    3    0    0  0.86319191128E+01 -0.26050023490E+02 -0.35159355617E+02  0.44601502652E+02  0.00000000000E+00 0. -1.
</event>
<event>
 7    1  0.2294706E-015  0.9000773E+02  0.7816164E-02  0.1186339E+00
        -11   -1    0    0    0    0  0.00000000000E+00  0.00000000000E+00  0.45593999997E+02  0.45594000000E+02  0.51100000000E-03 0. -1.
         11   -1    0    0    0    0 -0.00000000000E+00 -0.00000000000E+00 -0.45593999997E+02  0.45594000000E+02  0.51100000000E-03 0.  1.
    9900012    2    1    2    0    0 -0.11436204274E+01  0.29127042488E+00  0.18514233874E-01  0.90007725066E+02  0.89999986237E+02 0.  0.
        -12    1    1    2    0    0  0.11436204274E+01 -0.29127042488E+00 -0.18514233874E-01  0.11802749338E+01  0.00000000000E+00 0.  1.
         11    1    3    3    0    0  0.81290433495E+01 -0.30715589675E+01  0.91636231229E+00  0.87381657353E+01  0.51100000000E-03 0. -1.
        -11    1    3    3    0    0  0.66828251934E+01 -0.31664927744E+02  0.19423576639E+02  0.37743915156E+02  0.51100000000E-03 0.  1.
         12    1    3    3    0    0 -0.15955488970E+02  0.35027757136E+02 -0.20321424718E+02  0.43525644175E+02  0.00000000000E+00 0. -1.
</event>
<event>
 7    1  0.2294706E-015  0.9000774E+02  0.7816164E-02  0.1186339E+00
        -11   -1    0    0    0    0  0.00000000000E+00  0.00000000000E+00  0.45593999997E+02  0.45594000000E+02  0.51100000000E-03 0.  1.
         11   -1    0    0    0    0 -0.00000000000E+00 -0.00000000000E+00 -0.45593999997E+02  0.45594000000E+02  0.51100000000E-03 0. -1.
    9900012    2    1    2    0    0 -0.66767577098E+00 -0.97122444744E+00  0.62788623370E-01  0.90007741438E+02  0.90000002825E+02 0.  0.
        -12    1    1    2    0    0  0.66767577098E+00  0.97122444744E+00 -0.62788623370E-01  0.11802585622E+01  0.00000000000E+00 0.  1.
         11    1    3    3    0    0  0.77970053595E+00 -0.35060229529E+02  0.10400831731E+02  0.36578749685E+02  0.51100000000E-03 0. -1.
        -11    1    3    3    0    0 -0.47471741173E+01 -0.35210718058E+01 -0.14293972828E+02  0.15467749294E+02  0.51100000000E-03 0.  1.
        -12    1    3    3    0    0  0.32997978104E+01  0.37610076888E+02  0.39559297201E+01  0.37961242459E+02  0.00000000000E+00 0.  1.
</event>
<event>
 7    1  0.2294706E-015  0.9000781E+02  0.7816164E-02  0.1186339E+00
        -11   -1    0    0    0    0  0.00000000000E+00  0.00000000000E+00  0.45593999997E+02  0.45594000000E+02  0.51100000000E-03 0. -1.
         11   -1    0    0    0    0 -0.00000000000E+00 -0.00000000000E+00 -0.45593999997E+02  0.45594000000E+02  0.51100000000E-03 0.  1.
    9900012    2    1    2    0    0  0.37552387744E-01  0.11389209261E+01  0.30709161880E+00  0.90007806660E+02  0.90000068908E+02 0.  0.
        -12    1    1    2    0    0 -0.37552387744E-01 -0.11389209261E+01 -0.30709161880E+00  0.11801933402E+01  0.00000000000E+00 0.  1.
         11    1    3    3    0    0 -0.61416049035E+01 -0.24961562895E+02  0.25606420085E+02  0.36283435377E+02  0.51100000000E-03 0. -1.
        -11    1    3    3    0    0  0.58584698377E+00  0.10382239604E+01  0.10001202953E+02  0.10072000122E+02  0.51100000000E-03 0.  1.
        -12    1    3    3    0    0  0.55933103074E+01  0.25062259861E+02 -0.35300531419E+02  0.43652371161E+02  0.00000000000E+00 0.  1.
</event>
<event>
 7    1  0.2294706E-015  0.9000739E+02  0.7816164E-02  0.1186340E+00
        -11   -1    0    0    0    0  0.00000000000E+00  0.00000000000E+00  0.45593999997E+02  0.45594000000E+02  0.51100000000E-03 0.  1.
         11   -1    0    0    0    0 -0.00000000000E+00 -0.00000000000E+00 -0.45593999997E+02  0.45594000000E+02  0.51100000000E-03 0. -1.
    9900012    2    1    2    0    0  0.10087106311E+01 -0.18174070011E+00 -0.58593218386E+00  0.90007388572E+02  0.89999645301E+02 0.  0.
        -12    1    1    2    0    0 -0.10087106311E+01  0.18174070011E+00  0.58593218386E+00  0.11806114278E+01  0.00000000000E+00 0.  1.
         11    1    3    3    0    0  0.16954874854E+01 -0.33202241968E+02 -0.11892489873E+02  0.35308566456E+02  0.51100000000E-03 0. -1.
        -11    1    3    3    0    0 -0.32318197102E+01 -0.84290064055E+01 -0.47190349167E+01  0.10186368265E+02  0.51100000000E-03 0.  1.
        -12    1    3    3    0    0  0.25450428559E+01  0.41449507673E+02  0.16025592606E+02  0.44512453851E+02  0.00000000000E+00 0.  1.
</event>
<event>
 7    1  0.2294706E-015  0.9000775E+02  0.7816164E-02  0.1186339E+00
        -11   -1    0    0    0    0  0.00000000000E+00  0.00000000000E+00  0.45593999997E+02  0.45594000000E+02  0.51100000000E-03 0.  1.
         11   -1    0    0    0    0 -0.00000000000E+00 -0.00000000000E+00 -0.45593999997E+02  0.45594000000E+02  0.51100000000E-03 0. -1.
    9900012    2    1    2    0    0 -0.58551945718E+00 -0.24044236418E+00 -0.99615916218E+00  0.90007754838E+02  0.90000016402E+02 0.  0.
        -12    1    1    2    0    0  0.58551945718E+00  0.24044236418E+00  0.99615916218E+00  0.11802451617E+01  0.00000000000E+00 0.  1.
         11    1    3    3    0    0  0.28407301073E+01 -0.78848060772E+01 -0.70717859836E-01  0.83812239974E+01  0.51100000000E-03 0. -1.
        -11    1    3    3    0    0  0.36935937992E+02 -0.21970138044E+01  0.10642625858E+02  0.38501374916E+02  0.51100000000E-03 0.  1.
         12    1    3    3    0    0 -0.40362187556E+02  0.98413775174E+01 -0.11568067160E+02  0.43125155925E+02  0.00000000000E+00 0. -1.
</event>
<event>
 7    1  0.2294706E-015  0.9000773E+02  0.7816164E-02  0.1186339E+00
        -11   -1    0    0    0    0  0.00000000000E+00  0.00000000000E+00  0.45593999997E+02  0.45594000000E+02  0.51100000000E-03 0. -1.
         11   -1    0    0    0    0 -0.00000000000E+00 -0.00000000000E+00 -0.45593999997E+02  0.45594000000E+02  0.51100000000E-03 0.  1.
    9900012    2    1    2    0    0 -0.90017604618E+00 -0.54191668428E+00  0.53762017189E+00  0.90007734752E+02  0.89999996051E+02 0.  0.
        -12    1    1    2    0    0  0.90017604618E+00  0.54191668428E+00 -0.53762017189E+00  0.11802652482E+01  0.00000000000E+00 0.  1.
         11    1    3    3    0    0  0.12972906706E+01  0.12088187850E+02 -0.20006210369E-01  0.12157616916E+02  0.51100000000E-03 0. -1.
        -11    1    3    3    0    0 -0.29860538405E+02 -0.77593126368E+01 -0.25126203870E+02  0.39789254927E+02  0.51100000000E-03 0.  1.
         12    1    3    3    0    0  0.27663071689E+02 -0.48707918970E+01  0.25683830252E+02  0.38060862909E+02  0.00000000000E+00 0. -1.
</event>
<event>
 7    1  0.2294706E-015  0.9000770E+02  0.7816164E-02  0.1186339E+00
        -11   -1    0    0    0    0  0.00000000000E+00  0.00000000000E+00  0.45593999997E+02  0.45594000000E+02  0.51100000000E-03 0.  1.
         11   -1    0    0    0    0 -0.00000000000E+00 -0.00000000000E+00 -0.45593999997E+02  0.45594000000E+02  0.51100000000E-03 0. -1.
    9900012    2    1    2    0    0  0.18253335335E+00  0.85264863720E+00  0.79547785261E+00  0.90007697862E+02  0.89999958673E+02 0.  0.
        -12    1    1    2    0    0 -0.18253335335E+00 -0.85264863720E+00 -0.79547785261E+00  0.11803021383E+01  0.00000000000E+00 0.  1.
         11    1    3    3    0    0  0.17057393084E+00  0.87272799947E+01  0.31758875264E+01  0.92887444476E+01  0.51100000000E-03 0. -1.
        -11    1    3    3    0    0  0.44967498273E+01 -0.17259801808E+02  0.36417629768E+02  0.40550774045E+02  0.51100000000E-03 0.  1.
         12    1    3    3    0    0 -0.44847904048E+01  0.93851704509E+01 -0.38798039441E+02  0.40168179369E+02  0.00000000000E+00 0. -1.
</event>
<event>
 7    1  0.2294706E-015  0.9000831E+02  0.7816164E-02  0.1186338E+00
        -11   -1    0    0    0    0  0.00000000000E+00  0.00000000000E+00  0.45593999997E+02  0.45594000000E+02  0.51100000000E-03 0. -1.
         11   -1    0    0    0    0 -0.00000000000E+00 -0.00000000000E+00 -0.45593999997E+02  0.45594000000E+02  0.51100000000E-03 0.  1.
    9900012    2    1    2    0    0  0.50114666944E+00 -0.36388637311E+00  0.10040468009E+01  0.90008308831E+02  0.90000577705E+02 0.  0.
        -12    1    1    2    0    0 -0.50114666944E+00  0.36388637311E+00 -0.10040468009E+01  0.11796911694E+01  0.00000000000E+00 0.  1.
         11    1    3    3    0    0 -0.83341866086E+01 -0.30956062443E+00  0.39384932722E+02  0.40258259029E+02  0.51100000000E-03 0. -1.
        -11    1    3    3    0    0 -0.57032329142E+01  0.83676573863E+01 -0.29663203187E+01  0.10551948270E+02  0.51100000000E-03 0.  1.
        -12    1    3    3    0    0  0.14538566192E+02 -0.84219831350E+01 -0.35414565603E+02  0.39198101532E+02  0.00000000000E+00 0.  1.
</event>
<event>
 7    1  0.2294706E-015  0.9000774E+02  0.7816164E-02  0.1186339E+00
        -11   -1    0    0    0    0  0.00000000000E+00  0.00000000000E+00  0.45593999997E+02  0.45594000000E+02  0.51100000000E-03 0.  1.
         11   -1    0    0    0    0 -0.00000000000E+00 -0.00000000000E+00 -0.45593999997E+02  0.45594000000E+02  0.51100000000E-03 0. -1.
    9900012    2    1    2    0    0  0.14435079498E+00 -0.18956884656E+00 -0.11559541922E+01  0.90007744267E+02  0.90000005692E+02 0.  0.
        -12    1    1    2    0    0 -0.14435079498E+00  0.18956884656E+00  0.11559541922E+01  0.11802557325E+01  0.00000000000E+00 0.  1.
         11    1    3    3    0    0 -0.56564773589E+01 -0.11958250040E+02  0.10542613421E+02  0.16915737588E+02  0.51100000000E-03 0. -1.
        -11    1    3    3    0    0  0.21401960427E+02  0.14386231224E+02  0.23255444150E+02  0.34724965684E+02  0.51100000000E-03 0.  1.
         12    1    3    3    0    0 -0.15601132273E+02 -0.26175500301E+01 -0.34954011763E+02  0.38367040995E+02  0.00000000000E+00 0. -1.
</event>
<event>
 7    1  0.2294706E-015  0.9000773E+02  0.7816164E-02  0.1186339E+00
        -11   -1    0    0    0    0  0.00000000000E+00  0.00000000000E+00  0.45593999997E+02  0.45594000000E+02  0.51100000000E-03 0. -1.
         11   -1    0    0    0    0 -0.00000000000E+00 -0.00000000000E+00 -0.45593999997E+02  0.45594000000E+02  0.51100000000E-03 0.  1.
    9900012    2    1    2    0    0 -0.95078243533E+00 -0.52809882205E+00  0.45842725945E+00  0.90007732591E+02  0.89999993861E+02 0.  0.
        -12    1    1    2    0    0  0.95078243533E+00  0.52809882205E+00 -0.45842725945E+00  0.11802674093E+01  0.00000000000E+00 0.  1.
         11    1    3    3    0    0  0.20111062485E+01 -0.93104977324E+01  0.31581277043E+01  0.10035122681E+02  0.51100000000E-03 0. -1.
        -11    1    3    3    0    0 -0.13515449742E+02 -0.27010337136E+02 -0.22561866523E+02  0.37699648741E+02  0.51100000000E-03 0.  1.
         12    1    3    3    0    0  0.10553561058E+02  0.35792736046E+02  0.19862166078E+02  0.42272961169E+02  0.00000000000E+00 0. -1.
</event>
<event>
 7    1  0.2294706E-015  0.9000770E+02  0.7816164E-02  0.1186339E+00
        -11   -1    0    0    0    0  0.00000000000E+00  0.00000000000E+00  0.45593999997E+02  0.45594000000E+02  0.51100000000E-03 0. -1.
         11   -1    0    0    0    0 -0.00000000000E+00 -0.00000000000E+00 -0.45593999997E+02  0.45594000000E+02  0.51100000000E-03 0.  1.
    9900012    2    1    2    0    0  0.77657864947E+00  0.84062297231E+00 -0.28878628159E+00  0.90007695422E+02  0.89999956202E+02 0.  0.
        -12    1    1    2    0    0 -0.77657864947E+00 -0.84062297231E+00  0.28878628159E+00  0.11803045780E+01  0.00000000000E+00 0.  1.
         11    1    3    3    0    0 -0.31208101663E+02 -0.10312729038E+02  0.10850734068E+02  0.34612662707E+02  0.51100000000E-03 0. -1.
        -11    1    3    3    0    0 -0.93406587583E+01 -0.28674809848E+01  0.16749360480E+01  0.99134133508E+01  0.51100000000E-03 0.  1.
        -12    1    3    3    0    0  0.41325339071E+02  0.14020832995E+02 -0.12814456397E+02  0.45481619364E+02  0.00000000000E+00 0.  1.
</event>
<event>
 7    1  0.2294706E-015  0.9000776E+02  0.7816164E-02  0.1186339E+00
        -11   -1    0    0    0    0  0.00000000000E+00  0.00000000000E+00  0.45593999997E+02  0.45594000000E+02  0.51100000000E-03 0.  1.
         11   -1    0    0    0    0 -0.00000000000E+00 -0.00000000000E+00 -0.45593999997E+02  0.45594000000E+02  0.51100000000E-03 0. -1.
    9900012    2    1    2    0    0  0.50791528528E+00 -0.42398799787E+00 -0.97735500302E+00  0.90007759956E+02  0.90000021587E+02 0.  0.
        -12    1    1    2    0    0 -0.50791528528E+00  0.42398799787E+00  0.97735500302E+00  0.11802400439E+01  0.00000000000E+00 0.  1.
         11    1    3    3    0    0  0.83483433308E+01 -0.33043000582E+02  0.85221268461E+01  0.35130632930E+02  0.51100000000E-03 0. -1.
        -11    1    3    3    0    0 -0.27653215536E+01 -0.74045002318E+01  0.76864138339E+01  0.11025179584E+02  0.51100000000E-03 0.  1.
        -12    1    3    3    0    0 -0.50751064919E+01  0.40023512816E+02 -0.17185895683E+02  0.43851947442E+02  0.00000000000E+00 0.  1.
</event>
<event>
 7    1  0.2294706E-015  0.9000771E+02  0.7816164E-02  0.1186339E+00
        -11   -1    0    0    0    0  0.00000000000E+00  0.00000000000E+00  0.45593999997E+02  0.45594000000E+02  0.51100000000E-03 0.  1.
         11   -1    0    0    0    0 -0.00000000000E+00 -0.00000000000E+00 -0.45593999997E+02  0.45594000000E+02  0.51100000000E-03 0. -1.
    9900012    2    1    2    0    0 -0.71422043945E+00 -0.90802974848E+00 -0.24179659797E+00  0.90007705776E+02  0.89999966692E+02 0.  0.
        -12    1    1    2    0    0  0.71422043945E+00  0.90802974848E+00  0.24179659797E+00  0.11802942239E+01  0.00000000000E+00 0.  1.
         11    1    3    3    0    0  0.15976024785E+01  0.11532875562E+00 -0.88925173764E+01  0.90356239382E+01  0.51100000000E-03 0. -1.
        -11    1    3    3    0    0 -0.46530692343E+01 -0.39604344890E+02 -0.45329937571E+01  0.40133567249E+02  0.51100000000E-03 0.  1.
         12    1    3    3    0    0  0.23412463163E+01  0.38580986386E+02  0.13183714536E+02  0.40838514589E+02  0.00000000000E+00 0. -1.
</event>
<event>
 7    1  0.2294706E-015  0.9000778E+02  0.7816164E-02  0.1186339E+00
        -11   -1    0    0    0    0  0.00000000000E+00  0.00000000000E+00  0.45593999997E+02  0.45594000000E+02  0.51100000000E-03 0.  1.
         11   -1    0    0    0    0 -0.00000000000E+00 -0.00000000000E+00 -0.45593999997E+02  0.45594000000E+02  0.51100000000E-03 0. -1.
    9900012    2    1    2    0    0 -0.57589580823E+00 -0.79651605001E+00 -0.65332556589E+00  0.90007776252E+02  0.90000038099E+02 0.  0.
        -12    1    1    2    0    0  0.57589580823E+00  0.79651605001E+00  0.65332556589E+00  0.11802237478E+01  0.00000000000E+00 0.  1.
         11    1    3    3    0    0 -0.53614255141E+01  0.45426856606E+01  0.74583950853E+01  0.10247367177E+02  0.51100000000E-03 0. -1.
        -11    1    3    3    0    0 -0.25074563923E+02 -0.65724863840E+01  0.24400547521E+02  0.35599410849E+02  0.51100000000E-03 0.  1.
         12    1    3    3    0    0  0.29860093629E+02  0.12332846734E+01 -0.32512268173E+02  0.44160998226E+02  0.00000000000E+00 0. -1.
</event>
<event>
 7    1  0.2294706E-015  0.9000772E+02  0.7816164E-02  0.1186339E+00
        -11   -1    0    0    0    0  0.00000000000E+00  0.00000000000E+00  0.45593999997E+02  0.45594000000E+02  0.51100000000E-03 0.  1.
         11   -1    0    0    0    0 -0.00000000000E+00 -0.00000000000E+00 -0.45593999997E+02  0.45594000000E+02  0.51100000000E-03 0. -1.
    9900012    2    1    2    0    0  0.87885329544E+00 -0.76354046358E+00 -0.19410297330E+00  0.90007723287E+02  0.89999984435E+02 0.  0.
        -12    1    1    2    0    0 -0.87885329544E+00  0.76354046358E+00  0.19410297330E+00  0.11802767128E+01  0.00000000000E+00 0.  1.
         11    1    3    3    0    0  0.32921845206E+02 -0.27399526184E+01  0.17131583795E+02  0.37213524366E+02  0.51100000000E-03 0. -1.
        -11    1    3    3    0    0  0.86254970380E+01  0.30288608366E+01 -0.23076114800E+01  0.94285878118E+01  0.51100000000E-03 0.  1.
        -12    1    3    3    0    0 -0.40668488948E+02 -0.10524486818E+01 -0.15018075289E+02  0.43365611110E+02  0.00000000000E+00 0.  1.
</event>
<event>
 7    1  0.2294706E-015  0.9000774E+02  0.7816164E-02  0.1186339E+00
        -11   -1    0    0    0    0  0.00000000000E+00  0.00000000000E+00  0.45593999997E+02  0.45594000000E+02  0.51100000000E-03 0.  1.
         11   -1    0    0    0    0 -0.00000000000E+00 -0.00000000000E+00 -0.45593999997E+02  0.45594000000E+02  0.51100000000E-03 0. -1.
    9900012    2    1    2    0    0  0.75641957290E+00  0.90286013609E+00  0.75416976075E-01  0.90007739556E+02  0.90000000918E+02 0.  0.
        -12    1    1    2    0    0 -0.75641957290E+00 -0.90286013609E+00 -0.75416976075E-01  0.11802604441E+01  0.00000000000E+00 0.  1.
         11    1    3    3    0    0 -0.14563638385E+02 -0.49859998762E+01 -0.36236653463E+02  0.39370735480E+02  0.51100000000E-03 0. -1.
        -11    1    3    3    0    0  0.79763625926E+01  0.46045320563E+01 -0.37080377829E+01  0.99284248563E+01  0.51100000000E-03 0.  1.
        -12    1    3    3    0    0  0.73436953658E+01  0.12843279560E+01  0.40020108222E+02  0.40708579219E+02  0.00000000000E+00 0.  1.
</event>
<event>
 7    1  0.2294706E-015  0.9000779E+02  0.7816164E-02  0.1186339E+00
        -11   -1    0    0    0    0  0.00000000000E+00  0.00000000000E+00  0.45593999997E+02  0.45594000000E+02  0.51100000000E-03 0.  1.
         11   -1    0    0    0    0 -0.00000000000E+00 -0.00000000000E+00 -0.45593999997E+02  0.45594000000E+02  0.51100000000E-03 0. -1.
    9900012    2    1    2    0    0 -0.21388583817E+00  0.11404500975E+01  0.21570137920E+00  0.90007787874E+02  0.90000049874E+02 0.  0.
        -12    1    1    2    0    0  0.21388583817E+00 -0.11404500975E+01 -0.21570137920E+00  0.11802121257E+01  0.00000000000E+00 0.  1.
         11    1    3    3    0    0 -0.64595063652E+01 -0.36577427709E+02 -0.34942758394E+01  0.37307417549E+02  0.51100000000E-03 0. -1.
        -11    1    3    3    0    0  0.75371294700E+00 -0.70428739948E+01  0.27368892455E+01  0.75934656328E+01  0.51100000000E-03 0.  1.
        -12    1    3    3    0    0  0.54919075800E+01  0.44760751801E+02  0.97308797314E+00  0.45106904692E+02  0.00000000000E+00 0.  1.
</event>
<event>
 7    1  0.2294706E-015  0.9000762E+02  0.7816164E-02  0.1186339E+00
        -11   -1    0    0    0    0  0.00000000000E+00  0.00000000000E+00  0.45593999997E+02  0.45594000000E+02  0.51100000000E-03 0. -1.
         11   -1    0    0    0    0 -0.00000000000E+00 -0.00000000000E+00 -0.45593999997E+02  0.45594000000E+02  0.51100000000E-03 0.  1.
    9900012    2    1    2    0    0 -0.30562185461E+00  0.89437846985E+00  0.70709316169E+00  0.90007619424E+02  0.89999879200E+02 0.  0.
        -12    1    1    2    0    0  0.30562185461E+00 -0.89437846985E+00 -0.70709316169E+00  0.11803805762E+01  0.00000000000E+00 0.  1.
         11    1    3    3    0    0 -0.12550747381E+02 -0.85939118607E+01  0.37359553720E+02  0.40337486725E+02  0.51100000000E-03 0. -1.
        -11    1    3    3    0    0  0.37759905714E+01 -0.83703937759E+01 -0.14472039195E+01  0.92960204499E+01  0.51100000000E-03 0.  1.
        -12    1    3    3    0    0  0.84691349552E+01  0.17858684106E+02 -0.35205256639E+02  0.40374112249E+02  0.00000000000E+00 0.  1.
</event>
<event>
 7    1  0.2294706E-015  0.9000775E+02  0.7816164E-02  0.1186339E+00
        -11   -1    0    0    0    0  0.00000000000E+00  0.00000000000E+00  0.45593999997E+02  0.45594000000E+02  0.51100000000E-03 0.  1.
         11   -1    0    0    0    0 -0.00000000000E+00 -0.00000000000E+00 -0.45593999997E+02  0.45594000000E+02  0.51100000000E-03 0. -1.
    9900012    2    1    2    0    0  0.11613185665E+01 -0.88388983134E-01 -0.19107198474E+00  0.90007753446E+02  0.90000014991E+02 0.  0.
        -12    1    1    2    0    0 -0.11613185665E+01  0.88388983134E-01  0.19107198474E+00  0.11802465542E+01  0.00000000000E+00 0.  1.
         11    1    3    3    0    0  0.37077819585E+02 -0.19275650545E+02 -0.33556377992E+00  0.41790286101E+02  0.51100000000E-03 0. -1.
        -11    1    3    3    0    0 -0.51917030888E+01  0.29336065953E+00  0.96101848095E+01  0.10926824505E+02  0.51100000000E-03 0.  1.
        -12    1    3    3    0    0 -0.30724797930E+02  0.18893900902E+02 -0.94656930143E+01  0.37290642839E+02  0.00000000000E+00 0.  1.
</event>
<event>
 7    1  0.2294706E-015  0.9000755E+02  0.7816164E-02  0.1186339E+00
        -11   -1    0    0    0    0  0.00000000000E+00  0.00000000000E+00  0.45593999997E+02  0.45594000000E+02  0.51100000000E-03 0.  1.
         11   -1    0    0    0    0 -0.00000000000E+00 -0.00000000000E+00 -0.45593999997E+02  0.45594000000E+02  0.51100000000E-03 0. -1.
    9900012    2    1    2    0    0  0.29045800447E+00  0.11316024547E+01 -0.16902834161E+00  0.90007550701E+02  0.89999809570E+02 0.  0.
        -12    1    1    2    0    0 -0.29045800447E+00 -0.11316024547E+01  0.16902834161E+00  0.11804492993E+01  0.00000000000E+00 0.  1.
         11    1    3    3    0    0  0.25293632310E+02  0.92860807980E+01 -0.13876311464E+02  0.30307608815E+02  0.51100000000E-03 0. -1.
        -11    1    3    3    0    0  0.88154972710E+01  0.14687486420E+02  0.61215350219E+01  0.18190888949E+02  0.51100000000E-03 0.  1.
        -12    1    3    3    0    0 -0.33818671576E+02 -0.22841964763E+02  0.75857481003E+01  0.41509052936E+02  0.00000000000E+00 0.  1.
</event>
<event>
 7    1  0.2294706E-015  0.9000778E+02  0.7816164E-02  0.1186339E+00
        -11   -1    0    0    0    0  0.00000000000E+00  0.00000000000E+00  0.45593999997E+02  0.45594000000E+02  0.51100000000E-03 0. -1.
         11   -1    0    0    0    0 -0.00000000000E+00 -0.00000000000E+00 -0.45593999997E+02  0.45594000000E+02  0.51100000000E-03 0.  1.
    9900012    2    1    2    0    0  0.65293334176E+00 -0.66708057648E+00 -0.72222608303E+00  0.90007775886E+02  0.90000037728E+02 0.  0.
        -12    1    1    2    0    0 -0.65293334176E+00  0.66708057648E+00  0.72222608303E+00  0.11802241140E+01  0.00000000000E+00 0.  1.
         11    1    3    3    0    0  0.44944145640E+01 -0.27964440566E+01  0.38427797915E+02  0.38790662723E+02  0.51100000000E-03 0. -1.
        -11    1    3    3    0    0 -0.74546703594E+01 -0.49494221932E+01  0.21141994208E+01  0.91944945302E+01  0.51100000000E-03 0.  1.
        -12    1    3    3    0    0  0.36131891372E+01  0.70787856732E+01 -0.41264223419E+02  0.42022618632E+02  0.00000000000E+00 0.  1.
</event>
<event>
 7    1  0.2294706E-015  0.9000776E+02  0.7816164E-02  0.1186339E+00
        -11   -1    0    0    0    0  0.00000000000E+00  0.00000000000E+00  0.45593999997E+02  0.45594000000E+02  0.51100000000E-03 0. -1.
         11   -1    0    0    0    0 -0.00000000000E+00 -0.00000000000E+00 -0.45593999997E+02  0.45594000000E+02  0.51100000000E-03 0.  1.
    9900012    2    1    2    0    0  0.16854465615E+00  0.11681367033E+01  0.47003929701E-02  0.90007757333E+02  0.90000018930E+02 0.  0.
        -12    1    1    2    0    0 -0.16854465615E+00 -0.11681367033E+01 -0.47003929701E-02  0.11802426667E+01  0.00000000000E+00 0.  1.
         11    1    3    3    0    0 -0.21448563560E+02 -0.15207541306E+02  0.34039982884E+02  0.43011982358E+02  0.51100000000E-03 0. -1.
        -11    1    3    3    0    0  0.73381276267E+01  0.90300879497E+00 -0.51465768587E+00  0.74113706387E+01  0.51100000000E-03 0.  1.
        -12    1    3    3    0    0  0.14278980590E+02  0.15472669214E+02 -0.33520624806E+02  0.39584404336E+02  0.00000000000E+00 0.  1.
</event>
<event>
 7    1  0.2294706E-015  0.9000777E+02  0.7816164E-02  0.1186339E+00
        -11   -1    0    0    0    0  0.00000000000E+00  0.00000000000E+00  0.45593999997E+02  0.45594000000E+02  0.51100000000E-03 0. -1.
         11   -1    0    0    0    0 -0.00000000000E+00 -0.00000000000E+00 -0.45593999997E+02  0.45594000000E+02  0.51100000000E-03 0.  1.
    9900012    2    1    2    0    0  0.54942876444E+00 -0.17122095776E+00  0.10304100555E+01  0.90007773977E+02  0.90000035793E+02 0.  0.
        -12    1    1    2    0    0 -0.54942876444E+00  0.17122095776E+00 -0.10304100555E+01  0.11802260233E+01  0.00000000000E+00 0.  1.
         11    1    3    3    0    0  0.22602656289E+02 -0.29064193330E+02  0.17526081341E+02  0.40777088330E+02  0.51100000000E-03 0. -1.
        -11    1    3    3    0    0  0.29260471241E+01  0.84821126308E+01  0.51859295380E+01  0.10363486474E+02  0.51100000000E-03 0.  1.
        -12    1    3    3    0    0 -0.24979274648E+02  0.20410859741E+02 -0.21681600823E+02  0.38867199174E+02  0.00000000000E+00 0.  1.
</event>
<event>
 7    1  0.2294706E-015  0.9000771E+02  0.7816164E-02  0.1186339E+00
        -11   -1    0    0    0    0  0.00000000000E+00  0.00000000000E+00  0.45593999997E+02  0.45594000000E+02  0.51100000000E-03 0.  1.
         11   -1    0    0    0    0 -0.00000000000E+00 -0.00000000000E+00 -0.45593999997E+02  0.45594000000E+02  0.51100000000E-03 0. -1.
    9900012    2    1    2    0    0  0.70650260542E+00 -0.75328835859E+00 -0.57140193018E+00  0.90007707897E+02  0.89999968841E+02 0.  0.
        -12    1    1    2    0    0 -0.70650260542E+00  0.75328835859E+00  0.57140193018E+00  0.11802921030E+01  0.00000000000E+00 0.  1.
         11    1    3    3    0    0 -0.55505866322E-01  0.79739696861E+01 -0.78541103386E+01  0.11192601258E+02  0.51100000000E-03 0. -1.
        -11    1    3    3    0    0 -0.85842742559E+01  0.32778113813E+02  0.12143023842E+02  0.35993715256E+02  0.51100000000E-03 0.  1.
         12    1    3    3    0    0  0.93462827276E+01 -0.41505371857E+02 -0.48603154339E+01  0.42821391383E+02  0.00000000000E+00 0. -1.
</event>
<event>
 7    1  0.2294706E-015  0.9000774E+02  0.7816164E-02  0.1186339E+00
        -11   -1    0    0    0    0  0.00000000000E+00  0.00000000000E+00  0.45593999997E+02  0.45594000000E+02  0.51100000000E-03 0. -1.
         11   -1    0    0    0    0 -0.00000000000E+00 -0.00000000000E+00 -0.45593999997E+02  0.45594000000E+02  0.51100000000E-03 0.  1.
    9900012    2    1    2    0    0  0.81993570442E+00  0.68863766906E+00  0.49649328996E+00  0.90007736476E+02  0.89999997798E+02 0.  0.
        -12    1    1    2    0    0 -0.81993570442E+00 -0.68863766906E+00 -0.49649328996E+00  0.11802635238E+01  0.00000000000E+00 0.  1.
         11    1    3    3    0    0  0.24634186816E+01 -0.23897637894E+02  0.30056965379E+02  0.38478392594E+02  0.51100000000E-03 0. -1.
        -11    1    3    3    0    0  0.11982876604E+02  0.87401915832E+01  0.59042499923E+00  0.14843479463E+02  0.51100000000E-03 0.  1.
        -12    1    3    3    0    0 -0.13626359582E+02  0.15846083980E+02 -0.30150897089E+02  0.36685864419E+02  0.00000000000E+00 0.  1.
</event>
<event>
 7    1  0.2294706E-015  0.9000769E+02  0.7816164E-02  0.1186339E+00
        -11   -1    0    0    0    0  0.00000000000E+00  0.00000000000E+00  0.45593999997E+02  0.45594000000E+02  0.51100000000E-03 0.  1.
         11   -1    0    0    0    0 -0.00000000000E+00 -0.00000000000E+00 -0.45593999997E+02  0.45594000000E+02  0.51100000000E-03 0. -1.
    9900012    2    1    2    0    0 -0.94019192385E+00  0.81789932792E-01 -0.70885513315E+00  0.90007692393E+02  0.89999953133E+02 0.  0.
        -12    1    1    2    0    0  0.94019192385E+00 -0.81789932792E-01  0.70885513315E+00  0.11803076068E+01  0.00000000000E+00 0.  1.
         11    1    3    3    0    0 -0.35968043315E+02 -0.99166743617E+01  0.10189532353E+02  0.38676441669E+02  0.51100000000E-03 0. -1.
        -11    1    3    3    0    0 -0.57802141812E+01 -0.35594851348E+01 -0.37012821605E+01  0.77317721319E+01  0.51100000000E-03 0.  1.
        -12    1    3    3    0    0  0.40808065573E+02  0.13557949429E+02 -0.71971053252E+01  0.43599478593E+02  0.00000000000E+00 0.  1.
</event>
<event>
 7    1  0.2294706E-015  0.9000767E+02  0.7816164E-02  0.1186339E+00
        -11   -1    0    0    0    0  0.00000000000E+00  0.00000000000E+00  0.45593999997E+02  0.45594000000E+02  0.51100000000E-03 0.  1.
         11   -1    0    0    0    0 -0.00000000000E+00 -0.00000000000E+00 -0.45593999997E+02  0.45594000000E+02  0.51100000000E-03 0. -1.
    9900012    2    1    2    0    0  0.14435270835E+00  0.10980513490E+01  0.40819092591E+00  0.90007671952E+02  0.89999932421E+02 0.  0.
        -12    1    1    2    0    0 -0.14435270835E+00 -0.10980513490E+01 -0.40819092591E+00  0.11803280483E+01  0.00000000000E+00 0.  1.
         11    1    3    3    0    0  0.17892926979E+02  0.75417026432E+01  0.13547995697E+02  0.23676619317E+02  0.51100000000E-03 0. -1.
        -11    1    3    3    0    0 -0.36361192586E+02  0.86146991432E+01  0.29523393036E+01  0.37484205677E+02  0.51100000000E-03 0.  1.
         12    1    3    3    0    0  0.18612618316E+02 -0.15058350437E+02 -0.16092144074E+02  0.28846846957E+02  0.00000000000E+00 0. -1.
</event>
<event>
 7    1  0.2294706E-015  0.9000781E+02  0.7816164E-02  0.1186339E+00
        -11   -1    0    0    0    0  0.00000000000E+00  0.00000000000E+00  0.45593999997E+02  0.45594000000E+02  0.51100000000E-03 0. -1.
         11   -1    0    0    0    0 -0.00000000000E+00 -0.00000000000E+00 -0.45593999997E+02  0.45594000000E+02  0.51100000000E-03 0.  1.
    9900012    2    1    2    0    0  0.52457649492E+00  0.41403735741E+00  0.97274585799E+00  0.90007812754E+02  0.90000075082E+02 0.  0.
        -12    1    1    2    0    0 -0.52457649492E+00 -0.41403735741E+00 -0.97274585799E+00  0.11801872464E+01  0.00000000000E+00 0.  1.
         11    1    3    3    0    0  0.28879577163E+02  0.30298129380E+02  0.40100818213E+01  0.42048631101E+02  0.51100000000E-03 0. -1.
        -11    1    3    3    0    0  0.89330637208E+00 -0.46211536003E+01  0.66200655740E+01  0.81227043118E+01  0.51100000000E-03 0.  1.
        -12    1    3    3    0    0 -0.29248307040E+02 -0.25262938422E+02 -0.96574015373E+01  0.39836477340E+02  0.00000000000E+00 0.  1.
</event>
<event>
 7    1  0.2294706E-015  0.9000664E+02  0.7816164E-02  0.1186341E+00
        -11   -1    0    0    0    0  0.00000000000E+00  0.00000000000E+00  0.45593999997E+02  0.45594000000E+02  0.51100000000E-03 0. -1.
         11   -1    0    0    0    0 -0.00000000000E+00 -0.00000000000E+00 -0.45593999997E+02  0.45594000000E+02  0.51100000000E-03 0.  1.
    9900012    2    1    2    0    0  0.10561592480E+01 -0.44562026760E+00  0.28557691990E+00  0.90006643171E+02  0.89998890054E+02 0.  0.
        -12    1    1    2    0    0 -0.10561592480E+01  0.44562026760E+00 -0.28557691990E+00  0.11813568289E+01  0.00000000000E+00 0.  1.
         11    1    3    3    0    0  0.64993584092E+01 -0.76816906395E+01 -0.20063292735E+01  0.10260379536E+02  0.51100000000E-03 0. -1.
        -11    1    3    3    0    0  0.95658900469E+01 -0.25873233516E+02  0.24712658764E+02  0.37035739070E+02  0.51100000000E-03 0.  1.
         12    1    3    3    0    0 -0.15009089208E+02  0.33109303888E+02 -0.22420752571E+02  0.42710524565E+02  0.00000000000E+00 0. -1.
</event>
<event>
 7    1  0.2294706E-015  0.9000773E+02  0.7816164E-02  0.1186339E+00
        -11   -1    0    0    0    0  0.00000000000E+00  0.00000000000E+00  0.45593999997E+02  0.45594000000E+02  0.51100000000E-03 0. -1.
         11   -1    0    0    0    0 -0.00000000000E+00 -0.00000000000E+00 -0.45593999997E+02  0.45594000000E+02  0.51100000000E-03 0.  1.
    9900012    2    1    2    0    0 -0.50803748411E+00 -0.50185870770E+00  0.93972525053E+00  0.90007725543E+02  0.89999986720E+02 0.  0.
        -12    1    1    2    0    0  0.50803748411E+00  0.50185870770E+00 -0.93972525053E+00  0.11802744572E+01  0.00000000000E+00 0.  1.
         11    1    3    3    0    0  0.60374278169E+01  0.66321549760E+01 -0.49620005353E+01  0.10249754331E+02  0.51100000000E-03 0. -1.
        -11    1    3    3    0    0  0.33788185149E+02  0.66034214243E+01 -0.72159920050E+01  0.35175519485E+02  0.51100000000E-03 0.  1.
         12    1    3    3    0    0 -0.40333650450E+02 -0.13737435108E+02  0.13117717791E+02  0.44582451727E+02  0.00000000000E+00 0. -1.
</event>
<event>
 7    1  0.2294706E-015  0.9000786E+02  0.7816164E-02  0.1186339E+00
        -11   -1    0    0    0    0  0.00000000000E+00  0.00000000000E+00  0.45593999997E+02  0.45594000000E+02  0.51100000000E-03 0. -1.
         11   -1    0    0    0    0 -0.00000000000E+00 -0.00000000000E+00 -0.45593999997E+02  0.45594000000E+02  0.51100000000E-03 0.  1.
    9900012    2    1    2    0    0  0.43079611355E+00 -0.85970357390E+00  0.68415259203E+00  0.90007855816E+02  0.90000118712E+02 0.  0.
        -12    1    1    2    0    0 -0.43079611355E+00  0.85970357390E+00 -0.68415259203E+00  0.11801441842E+01  0.00000000000E+00 0.  1.
         11    1    3    3    0    0 -0.37496185844E+01  0.17226261210E+01  0.86336579128E+01  0.95690715065E+01  0.51100000000E-03 0. -1.
        -11    1    3    3    0    0  0.21873085368E+01 -0.38415162889E+02  0.10777612615E+02  0.39958303172E+02  0.51100000000E-03 0.  1.
         12    1    3    3    0    0  0.19931061611E+01  0.35832833194E+02 -0.18727117936E+02  0.40480481137E+02  0.00000000000E+00 0. -1.
</event>
<event>
 7    1  0.2294706E-015  0.9000765E+02  0.7816164E-02  0.1186339E+00
        -11   -1    0    0    0    0  0.00000000000E+00  0.00000000000E+00  0.45593999997E+02  0.45594000000E+02  0.51100000000E-03 0. -1.
         11   -1    0    0    0    0 -0.00000000000E+00 -0.00000000000E+00 -0.45593999997E+02  0.45594000000E+02  0.51100000000E-03 0.  1.
    9900012    2    1    2    0    0  0.76529626848E-01 -0.64857352225E-01  0.11760746468E+01  0.90007654782E+02  0.89999915025E+02 0.  0.
        -12    1    1    2    0    0 -0.76529626848E-01  0.64857352225E-01 -0.11760746468E+01  0.11803452184E+01  0.00000000000E+00 0.  1.
         11    1    3    3    0    0 -0.19638721933E+02 -0.12513031773E+02  0.24040540653E+02  0.33469433196E+02  0.51100000000E-03 0. -1.
        -11    1    3    3    0    0  0.29962238565E+01 -0.74297515260E+01  0.11156825704E+02  0.13735112856E+02  0.51100000000E-03 0.  1.
        -12    1    3    3    0    0  0.16719027703E+02  0.19877925947E+02 -0.34021291710E+02  0.42803108729E+02  0.00000000000E+00 0.  1.
</event>
<event>
 7    1  0.2294706E-015  0.9000773E+02  0.7816164E-02  0.1186339E+00
        -11   -1    0    0    0    0  0.00000000000E+00  0.00000000000E+00  0.45593999997E+02  0.45594000000E+02  0.51100000000E-03 0. -1.
         11   -1    0    0    0    0 -0.00000000000E+00 -0.00000000000E+00 -0.45593999997E+02  0.45594000000E+02  0.51100000000E-03 0.  1.
    9900012    2    1    2    0    0  0.14937589985E+00 -0.11706442401E+01  0.17960019301E-01  0.90007727295E+02  0.89999988495E+02 0.  0.
        -12    1    1    2    0    0 -0.14937589985E+00  0.11706442401E+01 -0.17960019301E-01  0.11802727052E+01  0.00000000000E+00 0.  1.
         11    1    3    3    0    0  0.11038800364E+02  0.34848650977E+01  0.29252346446E+01  0.11939698330E+02  0.51100000000E-03 0. -1.
        -11    1    3    3    0    0 -0.37328447636E+02  0.18651320305E+02 -0.79028948060E+01  0.42470466193E+02  0.51100000000E-03 0.  1.
         12    1    3    3    0    0  0.26439023172E+02 -0.23306829643E+02  0.49956201807E+01  0.35597562772E+02  0.00000000000E+00 0. -1.
</event>
<event>
 7    1  0.2294706E-015  0.9000779E+02  0.7816164E-02  0.1186339E+00
        -11   -1    0    0    0    0  0.00000000000E+00  0.00000000000E+00  0.45593999997E+02  0.45594000000E+02  0.51100000000E-03 0.  1.
         11   -1    0    0    0    0 -0.00000000000E+00 -0.00000000000E+00 -0.45593999997E+02  0.45594000000E+02  0.51100000000E-03 0. -1.
    9900012    2    1    2    0    0 -0.38068584628E+00  0.93830153101E+00 -0.60627850996E+00  0.90007785990E+02  0.90000047966E+02 0.  0.
        -12    1    1    2    0    0  0.38068584628E+00 -0.93830153101E+00  0.60627850996E+00  0.11802140095E+01  0.00000000000E+00 0.  1.
         11    1    3    3    0    0  0.92266826903E+01  0.19695665208E+01  0.41060512023E+01  0.10289340236E+02  0.51100000000E-03 0. -1.
        -11    1    3    3    0    0 -0.17443040047E+02  0.19188252849E+02  0.29459608486E+02  0.39246875364E+02  0.51100000000E-03 0.  1.
         12    1    3    3    0    0  0.78356715100E+01 -0.20219517839E+02 -0.34171938198E+02  0.40471570390E+02  0.00000000000E+00 0. -1.
</event>
<event>
 7    1  0.2294706E-015  0.9000773E+02  0.7816164E-02  0.1186339E+00
        -11   -1    0    0    0    0  0.00000000000E+00  0.00000000000E+00  0.45593999997E+02  0.45594000000E+02  0.51100000000E-03 0.  1.
         11   -1    0    0    0    0 -0.00000000000E+00 -0.00000000000E+00 -0.45593999997E+02  0.45594000000E+02  0.51100000000E-03 0. -1.
    9900012    2    1    2    0    0 -0.25971664209E+00  0.92543346354E+00 -0.68494960904E+00  0.90007730625E+02  0.89999991870E+02 0.  0.
        -12    1    1    2    0    0  0.25971664209E+00 -0.92543346354E+00  0.68494960904E+00  0.11802693746E+01  0.00000000000E+00 0.  1.
         11    1    3    3    0    0  0.30388269248E+01 -0.76757999456E+01 -0.33549736318E+02  0.34550501895E+02  0.51100000000E-03 0. -1.
        -11    1    3    3    0    0 -0.57701464017E+01 -0.38041635637E+01 -0.92141935531E+01  0.11518142776E+02  0.51100000000E-03 0.  1.
        -12    1    3    3    0    0  0.24716028348E+01  0.12405396973E+02  0.42078980262E+02  0.43939085955E+02  0.00000000000E+00 0.  1.
</event>
<event>
 7    1  0.2294706E-015  0.9000771E+02  0.7816164E-02  0.1186339E+00
        -11   -1    0    0    0    0  0.00000000000E+00  0.00000000000E+00  0.45593999997E+02  0.45594000000E+02  0.51100000000E-03 0. -1.
         11   -1    0    0    0    0 -0.00000000000E+00 -0.00000000000E+00 -0.45593999997E+02  0.45594000000E+02  0.51100000000E-03 0.  1.
    9900012    2    1    2    0    0 -0.50035794764E+00 -0.96160546340E+00  0.46693928019E+00  0.90007713834E+02  0.89999974856E+02 0.  0.
        -12    1    1    2    0    0  0.50035794764E+00  0.96160546340E+00 -0.46693928019E+00  0.11802861663E+01  0.00000000000E+00 0.  1.
         11    1    3    3    0    0  0.82465179583E+01  0.18689061782E+01  0.23184504050E+01  0.87677295397E+01  0.51100000000E-03 0. -1.
        -11    1    3    3    0    0 -0.15305686836E+02  0.41070282204E+01 -0.39415411389E+02  0.42481835948E+02  0.51100000000E-03 0.  1.
         12    1    3    3    0    0  0.65588109299E+01 -0.69375398620E+01  0.37563900264E+02  0.38758148346E+02  0.00000000000E+00 0. -1.
</event>
<event>
 7    1  0.2294706E-015  0.9000774E+02  0.7816164E-02  0.1186339E+00
        -11   -1    0    0    0    0  0.00000000000E+00  0.00000000000E+00  0.45593999997E+02  0.45594000000E+02  0.51100000000E-03 0. -1.
         11   -1    0    0    0    0 -0.00000000000E+00 -0.00000000000E+00 -0.45593999997E+02  0.45594000000E+02  0.51100000000E-03 0.  1.
    9900012    2    1    2    0    0 -0.50250829327E+00 -0.84032066889E+00  0.65905403655E+00  0.90007743403E+02  0.90000004816E+02 0.  0.
        -12    1    1    2    0    0  0.50250829327E+00  0.84032066889E+00 -0.65905403655E+00  0.11802565969E+01  0.00000000000E+00 0.  1.
         11    1    3    3    0    0  0.11220814862E+02 -0.90705103599E+01  0.14031301601E+02  0.20126059456E+02  0.51100000000E-03 0. -1.
        -11    1    3    3    0    0 -0.14931225992E+02 -0.27756721751E+02 -0.48235154219E+00  0.31521576345E+02  0.51100000000E-03 0.  1.
         12    1    3    3    0    0  0.32079028365E+01  0.35986911442E+02 -0.12889896022E+02  0.38360107602E+02  0.00000000000E+00 0. -1.
</event>
<event>
 7    1  0.2294706E-015  0.9000769E+02  0.7816164E-02  0.1186339E+00
        -11   -1    0    0    0    0  0.00000000000E+00  0.00000000000E+00  0.45593999997E+02  0.45594000000E+02  0.51100000000E-03 0.  1.
         11   -1    0    0    0    0 -0.00000000000E+00 -0.00000000000E+00 -0.45593999997E+02  0.45594000000E+02  0.51100000000E-03 0. -1.
    9900012    2    1    2    0    0 -0.90833179560E+00 -0.74870151063E+00 -0.86605066707E-01  0.90007694514E+02  0.89999955281E+02 0.  0.
        -12    1    1    2    0    0  0.90833179560E+00  0.74870151063E+00  0.86605066707E-01  0.11803054861E+01  0.00000000000E+00 0.  1.
         11    1    3    3    0    0 -0.54395900308E+01  0.33590007908E+01  0.80061219253E+01  0.10245487522E+02  0.51100000000E-03 0. -1.
        -11    1    3    3    0    0 -0.16085150521E+02  0.21595522740E+02  0.22279543815E+02  0.34949631508E+02  0.51100000000E-03 0.  1.
         12    1    3    3    0    0  0.20616408756E+02 -0.25703225041E+02 -0.30372270807E+02  0.44812575484E+02  0.00000000000E+00 0. -1.
</event>
<event>
 7    1  0.2294706E-015  0.9000772E+02  0.7816164E-02  0.1186339E+00
        -11   -1    0    0    0    0  0.00000000000E+00  0.00000000000E+00  0.45593999997E+02  0.45594000000E+02  0.51100000000E-03 0. -1.
         11   -1    0    0    0    0 -0.00000000000E+00 -0.00000000000E+00 -0.45593999997E+02  0.45594000000E+02  0.51100000000E-03 0.  1.
    9900012    2    1    2    0    0  0.10100332540E+01 -0.58061980617E+00  0.18911088951E+00  0.90007724836E+02  0.89999986004E+02 0.  0.
        -12    1    1    2    0    0 -0.10100332540E+01  0.58061980617E+00 -0.18911088951E+00  0.11802751637E+01  0.00000000000E+00 0.  1.
         11    1    3    3    0    0 -0.29413913886E+01 -0.15373413646E+02 -0.16385168753E+02  0.22659818749E+02  0.51100000000E-03 0. -1.
        -11    1    3    3    0    0  0.22582539532E+02  0.23894977421E+02  0.28427580957E+02  0.43463414465E+02  0.51100000000E-03 0.  1.
         12    1    3    3    0    0 -0.18631114889E+02 -0.91021835819E+01 -0.11853301314E+02  0.23884491621E+02  0.00000000000E+00 0. -1.
</event>
<event>
 7    1  0.2294706E-015  0.9000777E+02  0.7816164E-02  0.1186339E+00
        -11   -1    0    0    0    0  0.00000000000E+00  0.00000000000E+00  0.45593999997E+02  0.45594000000E+02  0.51100000000E-03 0.  1.
         11   -1    0    0    0    0 -0.00000000000E+00 -0.00000000000E+00 -0.45593999997E+02  0.45594000000E+02  0.51100000000E-03 0. -1.
    9900012    2    1    2    0    0  0.96418151115E+00 -0.41983910592E+00 -0.53576000784E+00  0.90007767122E+02  0.90000028848E+02 0.  0.
        -12    1    1    2    0    0 -0.96418151115E+00  0.41983910592E+00  0.53576000784E+00  0.11802328784E+01  0.00000000000E+00 0.  1.
         11    1    3    3    0    0  0.83452126972E+01  0.19654125785E+01  0.23679548088E+01  0.88945281945E+01  0.51100000000E-03 0. -1.
        -11    1    3    3    0    0  0.29583003222E+01  0.11622961657E+02  0.36293162027E+02  0.38223531871E+02  0.51100000000E-03 0.  1.
         12    1    3    3    0    0 -0.10339331508E+02 -0.14008213342E+02 -0.39196876844E+02  0.42889707056E+02  0.00000000000E+00 0. -1.
</event>
<event>
 7    1  0.2801377E-015  0.9000778E+02  0.7816164E-02  0.1186339E+00
        -11   -1    0    0    0    0  0.00000000000E+00  0.00000000000E+00  0.45593999997E+02  0.45594000000E+02  0.51100000000E-03 0. -1.
         11   -1    0    0    0    0 -0.00000000000E+00 -0.00000000000E+00 -0.45593999997E+02  0.45594000000E+02  0.51100000000E-03 0.  1.
    9900012    2    1    2    0    0  0.37627064336E+00  0.80657217890E+00  0.77510147377E+00  0.90007779439E+02  0.90000041328E+02 0.  0.
        -12    1    1    2    0    0 -0.37627064336E+00 -0.80657217890E+00 -0.77510147377E+00  0.11802205605E+01  0.00000000000E+00 0.  1.
         11    1    3    3    0    0  0.36592782449E+01  0.14972131849E+02  0.35909070202E+02  0.39077056855E+02  0.51100000000E-03 0. -1.
        -11    1    3    3    0    0  0.84736122557E+01 -0.20269773901E+01  0.30044800159E+01  0.92161620226E+01  0.51100000000E-03 0.  1.
        -12    1    3    3    0    0 -0.11756619857E+02 -0.12138582280E+02 -0.38138448745E+02  0.41714560562E+02  0.00000000000E+00 0.  1.
</event>
<event>
 7    1  0.2294706E-015  0.9000777E+02  0.7816164E-02  0.1186339E+00
        -11   -1    0    0    0    0  0.00000000000E+00  0.00000000000E+00  0.45593999997E+02  0.45594000000E+02  0.51100000000E-03 0. -1.
         11   -1    0    0    0    0 -0.00000000000E+00 -0.00000000000E+00 -0.45593999997E+02  0.45594000000E+02  0.51100000000E-03 0.  1.
    9900012    2    1    2    0    0 -0.53369675464E+00 -0.43504928125E+00  0.95855920657E+00  0.90007772964E+02  0.90000034768E+02 0.  0.
        -12    1    1    2    0    0  0.53369675464E+00  0.43504928125E+00 -0.95855920657E+00  0.11802270356E+01  0.00000000000E+00 0.  1.
         11    1    3    3    0    0 -0.31519563689E+02 -0.13595391191E+02  0.19916600484E+02  0.39686125181E+02  0.51100000000E-03 0. -1.
        -11    1    3    3    0    0 -0.28454419485E+01  0.63891323988E+01  0.47539455591E+01  0.84568050310E+01  0.51100000000E-03 0.  1.
        -12    1    3    3    0    0  0.33831308883E+02  0.67712095107E+01 -0.23711986836E+02  0.41864842753E+02  0.00000000000E+00 0.  1.
</event>
<event>
 7    1  0.2294706E-015  0.9000764E+02  0.7816164E-02  0.1186339E+00
        -11   -1    0    0    0    0  0.00000000000E+00  0.00000000000E+00  0.45593999997E+02  0.45594000000E+02  0.51100000000E-03 0. -1.
         11   -1    0    0    0    0 -0.00000000000E+00 -0.00000000000E+00 -0.45593999997E+02  0.45594000000E+02  0.51100000000E-03 0.  1.
    9900012    2    1    2    0    0 -0.52904570830E+00 -0.99594291768E+00  0.34849532356E+00  0.90007643847E+02  0.89999903946E+02 0.  0.
        -12    1    1    2    0    0  0.52904570830E+00  0.99594291768E+00 -0.34849532356E+00  0.11803561527E+01  0.00000000000E+00 0.  1.
         11    1    3    3    0    0  0.41423529916E+01 -0.28284508436E+02  0.22614479487E+02  0.36449789965E+02  0.51100000000E-03 0. -1.
        -11    1    3    3    0    0 -0.48693761095E+01  0.56115827334E+01  0.11345691618E+02  0.13561910006E+02  0.51100000000E-03 0.  1.
        -12    1    3    3    0    0  0.19797740962E+00  0.21676982785E+02 -0.33611675781E+02  0.39995943876E+02  0.00000000000E+00 0.  1.
</event>
<event>
 7    1  0.2294706E-015  0.9000765E+02  0.7816164E-02  0.1186339E+00
        -11   -1    0    0    0    0  0.00000000000E+00  0.00000000000E+00  0.45593999997E+02  0.45594000000E+02  0.51100000000E-03 0.  1.
         11   -1    0    0    0    0 -0.00000000000E+00 -0.00000000000E+00 -0.45593999997E+02  0.45594000000E+02  0.51100000000E-03 0. -1.
    9900012    2    1    2    0    0 -0.45635910695E+00  0.39946566251E+00 -0.10126141687E+01  0.90007650939E+02  0.89999911132E+02 0.  0.
        -12    1    1    2    0    0  0.45635910695E+00 -0.39946566251E+00  0.10126141687E+01  0.11803490606E+01  0.00000000000E+00 0.  1.
         11    1    3    3    0    0 -0.18487254290E+02  0.29048736279E+02  0.12563688836E+02  0.36653157136E+02  0.51100000000E-03 0. -1.
        -11    1    3    3    0    0  0.32288017557E+01  0.94615534956E+01  0.76789608521E+00  0.10026755207E+02  0.51100000000E-03 0.  1.
        -12    1    3    3    0    0  0.14802093427E+02 -0.38110824112E+02 -0.14344199090E+02  0.43327738596E+02  0.00000000000E+00 0.  1.
</event>
<event>
 7    1  0.2294706E-015  0.9000773E+02  0.7816164E-02  0.1186339E+00
        -11   -1    0    0    0    0  0.00000000000E+00  0.00000000000E+00  0.45593999997E+02  0.45594000000E+02  0.51100000000E-03 0.  1.
         11   -1    0    0    0    0 -0.00000000000E+00 -0.00000000000E+00 -0.45593999997E+02  0.45594000000E+02  0.51100000000E-03 0. -1.
    9900012    2    1    2    0    0  0.27688236400E-01 -0.35249343127E+00 -0.11260686817E+01  0.90007725060E+02  0.89999986231E+02 0.  0.
        -12    1    1    2    0    0 -0.27688236400E-01  0.35249343127E+00  0.11260686817E+01  0.11802749397E+01  0.00000000000E+00 0.  1.
         11    1    3    3    0    0  0.76245840628E+01 -0.33616066105E+01 -0.58810333174E+00  0.83534751406E+01  0.51100000000E-03 0. -1.
        -11    1    3    3    0    0 -0.73762733449E+01  0.15337399285E+01  0.40194491403E+02  0.40894485032E+02  0.51100000000E-03 0.  1.
         12    1    3    3    0    0 -0.22062248147E+00  0.14753732507E+01 -0.40732456753E+02  0.40759764887E+02  0.00000000000E+00 0. -1.
</event>
<event>
 7    1  0.2294706E-015  0.9000785E+02  0.7816164E-02  0.1186339E+00
        -11   -1    0    0    0    0  0.00000000000E+00  0.00000000000E+00  0.45593999997E+02  0.45594000000E+02  0.51100000000E-03 0. -1.
         11   -1    0    0    0    0 -0.00000000000E+00 -0.00000000000E+00 -0.45593999997E+02  0.45594000000E+02  0.51100000000E-03 0.  1.
    9900012    2    1    2    0    0 -0.11264375089E+01  0.10754437341E-01  0.35183387013E+00  0.90007845692E+02  0.90000108455E+02 0.  0.
        -12    1    1    2    0    0  0.11264375089E+01 -0.10754437341E-01 -0.35183387013E+00  0.11801543083E+01  0.00000000000E+00 0.  1.
         11    1    3    3    0    0  0.51895074367E+01  0.56848660227E+01  0.53874335337E+01  0.93953780910E+01  0.51100000000E-03 0. -1.
        -11    1    3    3    0    0  0.35978425736E+01  0.35854656729E+02 -0.10586092276E+02  0.37557505645E+02  0.51100000000E-03 0.  1.
         12    1    3    3    0    0 -0.99137875192E+01 -0.41528768315E+02  0.55504926127E+01  0.43054961955E+02  0.00000000000E+00 0. -1.
</event>
<event>
 7    1  0.2294706E-015  0.9000773E+02  0.7816164E-02  0.1186339E+00
        -11   -1    0    0    0    0  0.00000000000E+00  0.00000000000E+00  0.45593999997E+02  0.45594000000E+02  0.51100000000E-03 0.  1.
         11   -1    0    0    0    0 -0.00000000000E+00 -0.00000000000E+00 -0.45593999997E+02  0.45594000000E+02  0.51100000000E-03 0. -1.
    9900012    2    1    2    0    0 -0.39316618488E+00 -0.11011056811E+01 -0.16132671708E+00  0.90007728981E+02  0.89999990203E+02 0.  0.
        -12    1    1    2    0    0  0.39316618488E+00  0.11011056811E+01  0.16132671708E+00  0.11802710195E+01  0.00000000000E+00 0.  1.
         11    1    3    3    0    0 -0.18168261767E+01  0.38431657795E+01  0.83348743598E+01  0.93563300188E+01  0.51100000000E-03 0. -1.
        -11    1    3    3    0    0  0.22697575836E+02  0.12739133396E+01  0.29149201482E+02  0.36965913370E+02  0.51100000000E-03 0.  1.
         12    1    3    3    0    0 -0.21273915844E+02 -0.62181848002E+01 -0.37645402559E+02  0.43685485591E+02  0.00000000000E+00 0. -1.
</event>
<event>
 7    1  0.2294706E-015  0.9000790E+02  0.7816164E-02  0.1186339E+00
        -11   -1    0    0    0    0  0.00000000000E+00  0.00000000000E+00  0.45593999997E+02  0.45594000000E+02  0.51100000000E-03 0.  1.
         11   -1    0    0    0    0 -0.00000000000E+00 -0.00000000000E+00 -0.45593999997E+02  0.45594000000E+02  0.51100000000E-03 0. -1.
    9900012    2    1    2    0    0 -0.71848189405E-01 -0.92547128652E+00 -0.72868174457E+00  0.90007899856E+02  0.90000163334E+02 0.  0.
        -12    1    1    2    0    0  0.71848189405E-01  0.92547128652E+00  0.72868174457E+00  0.11801001438E+01  0.00000000000E+00 0.  1.
         11    1    3    3    0    0  0.27314433482E+00  0.66590559381E+01  0.54891954876E+01  0.86341705552E+01  0.51100000000E-03 0. -1.
        -11    1    3    3    0    0  0.15877873102E+02  0.27838875521E+02  0.16734060321E+02  0.36154372067E+02  0.51100000000E-03 0.  1.
         12    1    3    3    0    0 -0.16222865626E+02 -0.35423402746E+02 -0.22951937553E+02  0.45219357234E+02  0.00000000000E+00 0. -1.
</event>
<event>
 7    1  0.2294706E-015  0.9000783E+02  0.7816164E-02  0.1186339E+00
        -11   -1    0    0    0    0  0.00000000000E+00  0.00000000000E+00  0.45593999997E+02  0.45594000000E+02  0.51100000000E-03 0.  1.
         11   -1    0    0    0    0 -0.00000000000E+00 -0.00000000000E+00 -0.45593999997E+02  0.45594000000E+02  0.51100000000E-03 0. -1.
    9900012    2    1    2    0    0 -0.87490106492E+00  0.53891145011E+00 -0.58045646333E+00  0.90007827500E+02  0.90000090023E+02 0.  0.
        -12    1    1    2    0    0  0.87490106492E+00 -0.53891145011E+00  0.58045646333E+00  0.11801725002E+01  0.00000000000E+00 0.  1.
         11    1    3    3    0    0 -0.19681059075E+01 -0.81819951948E+01 -0.53890479747E+01  0.99930137879E+01  0.51100000000E-03 0. -1.
        -11    1    3    3    0    0 -0.38092585316E+02  0.92516122089E+00 -0.61229063166E+01  0.38592628330E+02  0.51100000000E-03 0.  1.
         12    1    3    3    0    0  0.39185790159E+02  0.77957454240E+01  0.10931497828E+02  0.41422185382E+02  0.00000000000E+00 0. -1.
</event>
<event>
 7    1  0.2294706E-015  0.9000783E+02  0.7816164E-02  0.1186339E+00
        -11   -1    0    0    0    0  0.00000000000E+00  0.00000000000E+00  0.45593999997E+02  0.45594000000E+02  0.51100000000E-03 0. -1.
         11   -1    0    0    0    0 -0.00000000000E+00 -0.00000000000E+00 -0.45593999997E+02  0.45594000000E+02  0.51100000000E-03 0.  1.
    9900012    2    1    2    0    0  0.74085065547E+00 -0.52800465489E+00  0.75176162617E+00  0.90007832998E+02  0.90000095594E+02 0.  0.
        -12    1    1    2    0    0 -0.74085065547E+00  0.52800465489E+00 -0.75176162617E+00  0.11801670017E+01  0.00000000000E+00 0.  1.
         11    1    3    3    0    0  0.93525094594E+01 -0.66812063720E+01 -0.41104922630E+01  0.12206723503E+02  0.51100000000E-03 0. -1.
        -11    1    3    3    0    0 -0.19959989454E+02  0.20786366183E+02 -0.27936210518E+02  0.40136094185E+02  0.51100000000E-03 0.  1.
         12    1    3    3    0    0  0.11348330650E+02 -0.14633164465E+02  0.32798464407E+02  0.37665015310E+02  0.00000000000E+00 0. -1.
</event>
<event>
 7    1  0.2294706E-015  0.9000769E+02  0.7816164E-02  0.1186339E+00
        -11   -1    0    0    0    0  0.00000000000E+00  0.00000000000E+00  0.45593999997E+02  0.45594000000E+02  0.51100000000E-03 0.  1.
         11   -1    0    0    0    0 -0.00000000000E+00 -0.00000000000E+00 -0.45593999997E+02  0.45594000000E+02  0.51100000000E-03 0. -1.
    9900012    2    1    2    0    0 -0.58463224614E+00  0.63293687293E+00 -0.80667625701E+00  0.90007690493E+02  0.89999951208E+02 0.  0.
        -12    1    1    2    0    0  0.58463224614E+00 -0.63293687293E+00  0.80667625701E+00  0.11803095068E+01  0.00000000000E+00 0.  1.
         11    1    3    3    0    0 -0.10548213206E+02 -0.10018131233E+02  0.33292713728E+02  0.36332252103E+02  0.51100000000E-03 0. -1.
        -11    1    3    3    0    0 -0.12507805791E+01 -0.79239121371E+01  0.46445307468E+01  0.92695470080E+01  0.51100000000E-03 0.  1.
        -12    1    3    3    0    0  0.11214361539E+02  0.18574980243E+02 -0.38743920732E+02  0.44405891382E+02  0.00000000000E+00 0.  1.
</event>
<event>
 7    1  0.2294706E-015  0.9000767E+02  0.7816164E-02  0.1186339E+00
        -11   -1    0    0    0    0  0.00000000000E+00  0.00000000000E+00  0.45593999997E+02  0.45594000000E+02  0.51100000000E-03 0.  1.
         11   -1    0    0    0    0 -0.00000000000E+00 -0.00000000000E+00 -0.45593999997E+02  0.45594000000E+02  0.51100000000E-03 0. -1.
    9900012    2    1    2    0    0  0.41462669585E+00  0.45528930384E+00 -0.10069672663E+01  0.90007666690E+02  0.89999927090E+02 0.  0.
        -12    1    1    2    0    0 -0.41462669585E+00 -0.45528930384E+00  0.10069672663E+01  0.11803333100E+01  0.00000000000E+00 0.  1.
         11    1    3    3    0    0 -0.49355260619E+01 -0.45486259203E+01 -0.80881139087E+01  0.10510328355E+02  0.51100000000E-03 0. -1.
        -11    1    3    3    0    0 -0.19986685808E+02 -0.28982751042E+02  0.11103011507E+02  0.36915367157E+02  0.51100000000E-03 0.  1.
         12    1    3    3    0    0  0.25336838566E+02  0.33986666266E+02 -0.40218648647E+01  0.42581971178E+02  0.00000000000E+00 0. -1.
</event>
<event>
 7    1  0.2294706E-015  0.9000763E+02  0.7816164E-02  0.1186339E+00
        -11   -1    0    0    0    0  0.00000000000E+00  0.00000000000E+00  0.45593999997E+02  0.45594000000E+02  0.51100000000E-03 0. -1.
         11   -1    0    0    0    0 -0.00000000000E+00 -0.00000000000E+00 -0.45593999997E+02  0.45594000000E+02  0.51100000000E-03 0.  1.
    9900012    2    1    2    0    0  0.10708995522E+00 -0.11006859943E+01  0.41267518425E+00  0.90007627718E+02  0.89999887604E+02 0.  0.
        -12    1    1    2    0    0 -0.10708995522E+00  0.11006859943E+01 -0.41267518425E+00  0.11803722820E+01  0.00000000000E+00 0.  1.
         11    1    3    3    0    0 -0.56242468370E+01  0.46385550964E+01  0.19414868190E+01  0.75443831554E+01  0.51100000000E-03 0. -1.
        -11    1    3    3    0    0  0.26334413020E+02  0.26983424800E+02 -0.16290335431E+02  0.41072880977E+02  0.51100000000E-03 0.  1.
         12    1    3    3    0    0 -0.20603076228E+02 -0.32722665890E+02  0.14761523796E+02  0.41390363586E+02  0.00000000000E+00 0. -1.
</event>
<event>
 7    1  0.2750562E-015  0.9000774E+02  0.7816164E-02  0.1186339E+00
        -11   -1    0    0    0    0  0.00000000000E+00  0.00000000000E+00  0.45593999997E+02  0.45594000000E+02  0.51100000000E-03 0. -1.
         11   -1    0    0    0    0 -0.00000000000E+00 -0.00000000000E+00 -0.45593999997E+02  0.45594000000E+02  0.51100000000E-03 0.  1.
    9900012    2    1    2    0    0 -0.10034821970E+01  0.28419963275E+00  0.55250490794E+00  0.90007742560E+02  0.90000003962E+02 0.  0.
        -12    1    1    2    0    0  0.10034821970E+01 -0.28419963275E+00 -0.55250490794E+00  0.11802574398E+01  0.00000000000E+00 0.  1.
         11    1    3    3    0    0 -0.20340797456E+02  0.48484677747E+01  0.30224828196E+02  0.36753175655E+02  0.51100000000E-03 0. -1.
        -11    1    3    3    0    0 -0.86443402595E+01  0.18161319355E+01  0.34008214861E+01  0.94651223326E+01  0.51100000000E-03 0.  1.
        -12    1    3    3    0    0  0.27981655519E+02 -0.63804000774E+01 -0.33073144775E+02  0.43789444573E+02  0.00000000000E+00 0.  1.
</event>
<event>
 7    1  0.2294706E-015  0.9000765E+02  0.7816164E-02  0.1186339E+00
        -11   -1    0    0    0    0  0.00000000000E+00  0.00000000000E+00  0.45593999997E+02  0.45594000000E+02  0.51100000000E-03 0.  1.
         11   -1    0    0    0    0 -0.00000000000E+00 -0.00000000000E+00 -0.45593999997E+02  0.45594000000E+02  0.51100000000E-03 0. -1.
    9900012    2    1    2    0    0 -0.93692043503E+00  0.20167483234E+00  0.68901722565E+00  0.90007645233E+02  0.89999905350E+02 0.  0.
        -12    1    1    2    0    0  0.93692043503E+00 -0.20167483234E+00 -0.68901722565E+00  0.11803547674E+01  0.00000000000E+00 0.  1.
         11    1    3    3    0    0  0.21804267869E+02  0.30808672320E+02 -0.92538056163E+01  0.38861720317E+02  0.51100000000E-03 0. -1.
        -11    1    3    3    0    0  0.75913954973E+01 -0.18188421100E+01 -0.11256821256E+01  0.78869913609E+01  0.51100000000E-03 0.  1.
        -12    1    3    3    0    0 -0.30332583801E+02 -0.28788155377E+02  0.11068504968E+02  0.43258933554E+02  0.00000000000E+00 0.  1.
</event>
<event>
 7    1  0.2294706E-015  0.9000781E+02  0.7816164E-02  0.1186339E+00
        -11   -1    0    0    0    0  0.00000000000E+00  0.00000000000E+00  0.45593999997E+02  0.45594000000E+02  0.51100000000E-03 0.  1.
         11   -1    0    0    0    0 -0.00000000000E+00 -0.00000000000E+00 -0.45593999997E+02  0.45594000000E+02  0.51100000000E-03 0. -1.
    9900012    2    1    2    0    0 -0.70377906140E+00 -0.19397395112E+00 -0.92731974742E+00  0.90007808162E+02  0.90000070430E+02 0.  0.
        -12    1    1    2    0    0  0.70377906140E+00  0.19397395112E+00  0.92731974742E+00  0.11801918382E+01  0.00000000000E+00 0.  1.
         11    1    3    3    0    0 -0.10854193494E+02  0.15048475612E+01 -0.32369877332E+00  0.10962794523E+02  0.51100000000E-03 0. -1.
        -11    1    3    3    0    0 -0.31521165559E+02 -0.14498094606E+02 -0.56805432403E+01  0.35157462894E+02  0.51100000000E-03 0.  1.
         12    1    3    3    0    0  0.41671579991E+02  0.12799273093E+02  0.50769222662E+01  0.43887550745E+02  0.00000000000E+00 0. -1.
</event>
<event>
 7    1  0.2294706E-015  0.9000734E+02  0.7816164E-02  0.1186340E+00
        -11   -1    0    0    0    0  0.00000000000E+00  0.00000000000E+00  0.45593999997E+02  0.45594000000E+02  0.51100000000E-03 0. -1.
         11   -1    0    0    0    0 -0.00000000000E+00 -0.00000000000E+00 -0.45593999997E+02  0.45594000000E+02  0.51100000000E-03 0.  1.
    9900012    2    1    2    0    0  0.11066030312E+01  0.68301203574E-03 -0.41155646265E+00  0.90007343633E+02  0.89999599768E+02 0.  0.
        -12    1    1    2    0    0 -0.11066030312E+01 -0.68301203573E-03  0.41155646265E+00  0.11806563670E+01  0.00000000000E+00 0.  1.
         11    1    3    3    0    0  0.50499381059E+01  0.45962443167E+01 -0.71836495227E+01  0.99112137208E+01  0.51100000000E-03 0. -1.
        -11    1    3    3    0    0 -0.46739609080E+01  0.19787659363E+02 -0.29835833001E+02  0.36105045420E+02  0.51100000000E-03 0.  1.
         12    1    3    3    0    0  0.73062583325E+00 -0.24383220668E+02  0.36607926061E+02  0.43991084492E+02  0.00000000000E+00 0. -1.
</event>
<event>
 7    1  0.2294706E-015  0.9000785E+02  0.7816164E-02  0.1186339E+00
        -11   -1    0    0    0    0  0.00000000000E+00  0.00000000000E+00  0.45593999997E+02  0.45594000000E+02  0.51100000000E-03 0.  1.
         11   -1    0    0    0    0 -0.00000000000E+00 -0.00000000000E+00 -0.45593999997E+02  0.45594000000E+02  0.51100000000E-03 0. -1.
    9900012    2    1    2    0    0  0.18371240656E+00 -0.35542948311E+00 -0.11102603127E+01  0.90007848176E+02  0.90000110972E+02 0.  0.
        -12    1    1    2    0    0 -0.18371240656E+00  0.35542948311E+00  0.11102603127E+01  0.11801518241E+01  0.00000000000E+00 0.  1.
         11    1    3    3    0    0  0.27545725547E+01 -0.35261221749E+01  0.77087082529E+01  0.89132143888E+01  0.51100000000E-03 0. -1.
        -11    1    3    3    0    0  0.15492025400E+02  0.18301376247E+02  0.28322550105E+02  0.37109433682E+02  0.51100000000E-03 0.  1.
         12    1    3    3    0    0 -0.18062885548E+02 -0.15130683555E+02 -0.37141518670E+02  0.43985200105E+02  0.00000000000E+00 0. -1.
</event>
<event>
 7    1  0.2294706E-015  0.9000767E+02  0.7816164E-02  0.1186339E+00
        -11   -1    0    0    0    0  0.00000000000E+00  0.00000000000E+00  0.45593999997E+02  0.45594000000E+02  0.51100000000E-03 0.  1.
         11   -1    0    0    0    0 -0.00000000000E+00 -0.00000000000E+00 -0.45593999997E+02  0.45594000000E+02  0.51100000000E-03 0. -1.
    9900012    2    1    2    0    0  0.15493958561E+00  0.39118263150E+00 -0.11027893946E+01  0.90007671836E+02  0.89999932304E+02 0.  0.
        -12    1    1    2    0    0 -0.15493958561E+00 -0.39118263150E+00  0.11027893946E+01  0.11803281643E+01  0.00000000000E+00 0.  1.
         11    1    3    3    0    0 -0.69639353653E+01  0.24135027783E+02 -0.27131145227E+02  0.36974247842E+02  0.51100000000E-03 0. -1.
        -11    1    3    3    0    0 -0.31339353240E+01  0.94646024781E+01  0.63548175512E+00  0.99901995979E+01  0.51100000000E-03 0.  1.
        -12    1    3    3    0    0  0.10252810275E+02 -0.33208447630E+02  0.25392874077E+02  0.43043224396E+02  0.00000000000E+00 0.  1.
</event>
<event>
 7    1  0.2294706E-015  0.9000769E+02  0.7816164E-02  0.1186339E+00
        -11   -1    0    0    0    0  0.00000000000E+00  0.00000000000E+00  0.45593999997E+02  0.45594000000E+02  0.51100000000E-03 0.  1.
         11   -1    0    0    0    0 -0.00000000000E+00 -0.00000000000E+00 -0.45593999997E+02  0.45594000000E+02  0.51100000000E-03 0. -1.
    9900012    2    1    2    0    0  0.34562028796E-01  0.66656302341E+00 -0.97346209283E+00  0.90007691039E+02  0.89999951760E+02 0.  0.
        -12    1    1    2    0    0 -0.34562028796E-01 -0.66656302341E+00  0.97346209283E+00  0.11803089613E+01  0.00000000000E+00 0.  1.
         11    1    3    3    0    0  0.44790400204E+01  0.47536397987E+01 -0.73203764446E+01  0.98105454686E+01  0.51100000000E-03 0. -1.
        -11    1    3    3    0    0  0.53950858298E+01  0.35138556339E+02  0.15420703590E+02  0.38750783117E+02  0.51100000000E-03 0.  1.
         12    1    3    3    0    0 -0.98395638213E+01 -0.39225633115E+02 -0.90737892379E+01  0.41446362453E+02  0.00000000000E+00 0. -1.
</event>
<event>
 7    1  0.2294706E-015  0.9000777E+02  0.7816164E-02  0.1186339E+00
        -11   -1    0    0    0    0  0.00000000000E+00  0.00000000000E+00  0.45593999997E+02  0.45594000000E+02  0.51100000000E-03 0.  1.
         11   -1    0    0    0    0 -0.00000000000E+00 -0.00000000000E+00 -0.45593999997E+02  0.45594000000E+02  0.51100000000E-03 0. -1.
    9900012    2    1    2    0    0 -0.42284641926E+00 -0.75407038958E+00  0.80345008074E+00  0.90007765583E+02  0.90000027289E+02 0.  0.
        -12    1    1    2    0    0  0.42284641926E+00  0.75407038958E+00 -0.80345008074E+00  0.11802344170E+01  0.00000000000E+00 0.  1.
         11    1    3    3    0    0  0.72761265680E+01  0.49469337234E+01  0.19702141917E+00  0.88007379689E+01  0.51100000000E-03 0. -1.
        -11    1    3    3    0    0  0.17067880225E+02  0.26935094400E+01  0.34388726865E+02  0.38485738451E+02  0.51100000000E-03 0.  1.
         12    1    3    3    0    0 -0.24766853212E+02 -0.83945135530E+01 -0.33782298204E+02  0.42721289163E+02  0.00000000000E+00 0. -1.
</event>
<event>
 7    1  0.2294706E-015  0.9000771E+02  0.7816164E-02  0.1186339E+00
        -11   -1    0    0    0    0  0.00000000000E+00  0.00000000000E+00  0.45593999997E+02  0.45594000000E+02  0.51100000000E-03 0.  1.
         11   -1    0    0    0    0 -0.00000000000E+00 -0.00000000000E+00 -0.45593999997E+02  0.45594000000E+02  0.51100000000E-03 0. -1.
    9900012    2    1    2    0    0  0.10218451175E+01  0.35226634307E+00  0.47416400480E+00  0.90007707441E+02  0.89999968380E+02 0.  0.
        -12    1    1    2    0    0 -0.10218451175E+01 -0.35226634307E+00 -0.47416400480E+00  0.11802925587E+01  0.00000000000E+00 0.  1.
         11    1    3    3    0    0  0.14579367994E+01 -0.82840453449E+01  0.43912560754E+01  0.94886309427E+01  0.51100000000E-03 0. -1.
        -11    1    3    3    0    0 -0.15653996823E+02  0.10444538326E+02  0.34422197496E+02  0.39230392275E+02  0.51100000000E-03 0.  1.
         12    1    3    3    0    0  0.15217905141E+02 -0.18082266376E+01 -0.38339289566E+02  0.41288684223E+02  0.00000000000E+00 0. -1.
</event>
<event>
 7    1  0.2294706E-015  0.9000768E+02  0.7816164E-02  0.1186339E+00
        -11   -1    0    0    0    0  0.00000000000E+00  0.00000000000E+00  0.45593999997E+02  0.45594000000E+02  0.51100000000E-03 0. -1.
         11   -1    0    0    0    0 -0.00000000000E+00 -0.00000000000E+00 -0.45593999997E+02  0.45594000000E+02  0.51100000000E-03 0.  1.
    9900012    2    1    2    0    0 -0.34005558224E+00  0.10723951734E+01  0.35706358474E+00  0.90007676481E+02  0.89999937010E+02 0.  0.
        -12    1    1    2    0    0  0.34005558224E+00 -0.10723951734E+01 -0.35706358474E+00  0.11803235194E+01  0.00000000000E+00 0.  1.
         11    1    3    3    0    0 -0.27262795288E+01  0.25541126258E+02 -0.12585014582E+02  0.28603571856E+02  0.51100000000E-03 0. -1.
        -11    1    3    3    0    0  0.67186694304E+01 -0.89525765714E+01 -0.21020266985E+02  0.23814717520E+02  0.51100000000E-03 0.  1.
         12    1    3    3    0    0 -0.43324454838E+01 -0.15516154514E+02  0.33962345151E+02  0.37589387105E+02  0.00000000000E+00 0. -1.
</event>
<event>
 7    1  0.2294706E-015  0.9000818E+02  0.7816164E-02  0.1186338E+00
        -11   -1    0    0    0    0  0.00000000000E+00  0.00000000000E+00  0.45593999997E+02  0.45594000000E+02  0.51100000000E-03 0. -1.
         11   -1    0    0    0    0 -0.00000000000E+00 -0.00000000000E+00 -0.45593999997E+02  0.45594000000E+02  0.51100000000E-03 0.  1.
    9900012    2    1    2    0    0  0.10886252836E+01  0.45135315487E+00  0.56182368406E-01  0.90008177498E+02  0.90000444640E+02 0.  0.
        -12    1    1    2    0    0 -0.10886252836E+01 -0.45135315487E+00 -0.56182368406E-01  0.11798225023E+01  0.00000000000E+00 0.  1.
         11    1    3    3    0    0  0.28763442667E+02 -0.29272250818E+02 -0.10244577601E+01  0.41051794309E+02  0.51100000000E-03 0. -1.
        -11    1    3    3    0    0 -0.56677573380E+01 -0.50063330209E+01 -0.16863540934E+01  0.77479438529E+01  0.51100000000E-03 0.  1.
        -12    1    3    3    0    0 -0.22007060046E+02  0.34729936994E+02  0.27669942219E+01  0.41208439336E+02  0.00000000000E+00 0.  1.
</event>
<event>
 7    1  0.2294706E-015  0.9000792E+02  0.7816164E-02  0.1186339E+00
        -11   -1    0    0    0    0  0.00000000000E+00  0.00000000000E+00  0.45593999997E+02  0.45594000000E+02  0.51100000000E-03 0. -1.
         11   -1    0    0    0    0 -0.00000000000E+00 -0.00000000000E+00 -0.45593999997E+02  0.45594000000E+02  0.51100000000E-03 0.  1.
    9900012    2    1    2    0    0  0.24890839696E+00  0.11055760877E+01  0.32913876616E+00  0.90007921103E+02  0.90000184861E+02 0.  0.
        -12    1    1    2    0    0 -0.24890839696E+00 -0.11055760877E+01 -0.32913876616E+00  0.11800788970E+01  0.00000000000E+00 0.  1.
         11    1    3    3    0    0  0.15137350421E+02  0.23917079826E+02  0.24238891250E+02  0.37265130276E+02  0.51100000000E-03 0. -1.
        -11    1    3    3    0    0  0.18432379301E+01  0.39969279771E-01  0.90788804383E+01  0.92641887872E+01  0.51100000000E-03 0.  1.
        -12    1    3    3    0    0 -0.16731679955E+02 -0.22851473019E+02 -0.32988632922E+02  0.43478602039E+02  0.00000000000E+00 0.  1.
</event>
<event>
 7    1  0.2294706E-015  0.9000771E+02  0.7816164E-02  0.1186339E+00
        -11   -1    0    0    0    0  0.00000000000E+00  0.00000000000E+00  0.45593999997E+02  0.45594000000E+02  0.51100000000E-03 0.  1.
         11   -1    0    0    0    0 -0.00000000000E+00 -0.00000000000E+00 -0.45593999997E+02  0.45594000000E+02  0.51100000000E-03 0. -1.
    9900012    2    1    2    0    0  0.10891544578E+01 -0.34913172338E+00  0.29144897702E+00  0.90007706435E+02  0.89999967360E+02 0.  0.
        -12    1    1    2    0    0 -0.10891544578E+01  0.34913172338E+00 -0.29144897702E+00  0.11802935649E+01  0.00000000000E+00 0.  1.
         11    1    3    3    0    0  0.47335543839E+00  0.34981239935E+02 -0.13442605328E+02  0.37478191673E+02  0.51100000000E-03 0. -1.
        -11    1    3    3    0    0  0.12467882939E+02 -0.55221980806E+01 -0.59672542215E+01  0.14884585981E+02  0.51100000000E-03 0.  1.
        -12    1    3    3    0    0 -0.11852083920E+02 -0.29808173578E+02  0.19701308526E+02  0.37644928781E+02  0.00000000000E+00 0.  1.
</event>
<event>
 7    1  0.2294706E-015  0.9000773E+02  0.7816164E-02  0.1186339E+00
        -11   -1    0    0    0    0  0.00000000000E+00  0.00000000000E+00  0.45593999997E+02  0.45594000000E+02  0.51100000000E-03 0. -1.
         11   -1    0    0    0    0 -0.00000000000E+00 -0.00000000000E+00 -0.45593999997E+02  0.45594000000E+02  0.51100000000E-03 0.  1.
    9900012    2    1    2    0    0 -0.45319854628E-01 -0.72367917118E-01  0.11771771129E+01  0.90007730133E+02  0.89999991370E+02 0.  0.
        -12    1    1    2    0    0  0.45319854628E-01  0.72367917118E-01 -0.11771771129E+01  0.11802698674E+01  0.00000000000E+00 0.  1.
         11    1    3    3    0    0 -0.18001060877E+02  0.67986379357E+01  0.34960887082E+02  0.39906431765E+02  0.51100000000E-03 0. -1.
        -11    1    3    3    0    0  0.24146365089E+01  0.37229746533E+01  0.51888513385E+01  0.68275316340E+01  0.51100000000E-03 0.  1.
        -12    1    3    3    0    0  0.15541104513E+02 -0.10593980506E+02 -0.38972561307E+02  0.43273766733E+02  0.00000000000E+00 0.  1.
</event>
<event>
 7    1  0.2294706E-015  0.9000767E+02  0.7816164E-02  0.1186339E+00
        -11   -1    0    0    0    0  0.00000000000E+00  0.00000000000E+00  0.45593999997E+02  0.45594000000E+02  0.51100000000E-03 0.  1.
         11   -1    0    0    0    0 -0.00000000000E+00 -0.00000000000E+00 -0.45593999997E+02  0.45594000000E+02  0.51100000000E-03 0. -1.
    9900012    2    1    2    0    0 -0.39441889307E+00  0.78773185976E+00 -0.78554547735E+00  0.90007674010E+02  0.89999934507E+02 0.  0.
        -12    1    1    2    0    0  0.39441889307E+00 -0.78773185976E+00  0.78554547735E+00  0.11803259902E+01  0.00000000000E+00 0.  1.
         11    1    3    3    0    0 -0.30090456883E+00 -0.24092460414E+01  0.84064908372E+01  0.87500913426E+01  0.51100000000E-03 0. -1.
        -11    1    3    3    0    0  0.16655104522E+02  0.31720960633E+02  0.16431901006E+02  0.39415976723E+02  0.51100000000E-03 0.  1.
         12    1    3    3    0    0 -0.16748618846E+02 -0.28523982732E+02 -0.25623937321E+02  0.41841605944E+02  0.00000000000E+00 0. -1.
</event>
<event>
 7    1  0.2294706E-015  0.9000772E+02  0.7816164E-02  0.1186339E+00
        -11   -1    0    0    0    0  0.00000000000E+00  0.00000000000E+00  0.45593999997E+02  0.45594000000E+02  0.51100000000E-03 0. -1.
         11   -1    0    0    0    0 -0.00000000000E+00 -0.00000000000E+00 -0.45593999997E+02  0.45594000000E+02  0.51100000000E-03 0.  1.
    9900012    2    1    2    0    0  0.52405713417E-01  0.10261370055E+00  0.11746417417E+01  0.90007720731E+02  0.89999981845E+02 0.  0.
        -12    1    1    2    0    0 -0.52405713417E-01 -0.10261370055E+00 -0.11746417417E+01  0.11802792685E+01  0.00000000000E+00 0.  1.
         11    1    3    3    0    0 -0.10974566673E+02  0.43686562576E+00 -0.42218067798E+01  0.11766716534E+02  0.51100000000E-03 0. -1.
        -11    1    3    3    0    0  0.39789799568E+01  0.16140967466E+01 -0.35973965571E+02  0.36229322227E+02  0.51100000000E-03 0.  1.
         12    1    3    3    0    0  0.70479924297E+01 -0.19483486718E+01  0.41370414093E+02  0.42011681971E+02  0.00000000000E+00 0. -1.
</event>
<event>
 7    1  0.2381333E-015  0.9000767E+02  0.7816164E-02  0.1186339E+00
        -11   -1    0    0    0    0  0.00000000000E+00  0.00000000000E+00  0.45593999997E+02  0.45594000000E+02  0.51100000000E-03 0.  1.
         11   -1    0    0    0    0 -0.00000000000E+00 -0.00000000000E+00 -0.45593999997E+02  0.45594000000E+02  0.51100000000E-03 0. -1.
    9900012    2    1    2    0    0 -0.26522736534E-01  0.11738557310E+01 -0.12055604312E+00  0.90007671871E+02  0.89999932340E+02 0.  0.
        -12    1    1    2    0    0  0.26522736534E-01 -0.11738557310E+01  0.12055604312E+00  0.11803281291E+01  0.00000000000E+00 0.  1.
         11    1    3    3    0    0  0.25002720623E+02 -0.22952005393E+02  0.15439667137E+02  0.37286913410E+02  0.51100000000E-03 0. -1.
        -11    1    3    3    0    0  0.14674431993E+00 -0.88676207087E+01 -0.25825640563E+01  0.92372002411E+01  0.51100000000E-03 0.  1.
        -12    1    3    3    0    0 -0.25175987680E+02  0.32993481832E+02 -0.12977659124E+02  0.43483558219E+02  0.00000000000E+00 0.  1.
</event>
<event>
 7    1  0.2294706E-015  0.9000783E+02  0.7816164E-02  0.1186339E+00
        -11   -1    0    0    0    0  0.00000000000E+00  0.00000000000E+00  0.45593999997E+02  0.45594000000E+02  0.51100000000E-03 0.  1.
         11   -1    0    0    0    0 -0.00000000000E+00 -0.00000000000E+00 -0.45593999997E+02  0.45594000000E+02  0.51100000000E-03 0. -1.
    9900012    2    1    2    0    0  0.10514264499E+00 -0.11220992800E+01  0.35020194344E+00  0.90007829177E+02  0.90000091722E+02 0.  0.
        -12    1    1    2    0    0 -0.10514264499E+00  0.11220992800E+01 -0.35020194344E+00  0.11801708229E+01  0.00000000000E+00 0.  1.
         11    1    3    3    0    0 -0.13402518545E+02 -0.35143431836E+02 -0.42960653630E+01  0.37856894781E+02  0.51100000000E-03 0. -1.
        -11    1    3    3    0    0 -0.10523257836E+02  0.20607525645E+01  0.57121966304E+01  0.12149685067E+02  0.51100000000E-03 0.  1.
        -12    1    3    3    0    0  0.24030919026E+02  0.31960579992E+02 -0.10659293239E+01  0.40001249330E+02  0.00000000000E+00 0.  1.
</event>
<event>
 7    1  0.2294706E-015  0.9000843E+02  0.7816164E-02  0.1186338E+00
        -11   -1    0    0    0    0  0.00000000000E+00  0.00000000000E+00  0.45593999997E+02  0.45594000000E+02  0.51100000000E-03 0. -1.
         11   -1    0    0    0    0 -0.00000000000E+00 -0.00000000000E+00 -0.45593999997E+02  0.45594000000E+02  0.51100000000E-03 0.  1.
    9900012    2    1    2    0    0  0.11389221185E+01  0.30698374906E+00  0.55794368354E-03  0.90008431042E+02  0.90000701530E+02 0.  0.
        -12    1    1    2    0    0 -0.11389221185E+01 -0.30698374906E+00 -0.55794368353E-03  0.11795689575E+01  0.00000000000E+00 0.  1.
         11    1    3    3    0    0  0.17712824912E+02  0.38410632774E+01  0.31447491175E+02  0.36296592608E+02  0.51100000000E-03 0. -1.
        -11    1    3    3    0    0 -0.10517943371E+02 -0.12894685808E+01  0.82895759429E+01  0.13453881654E+02  0.51100000000E-03 0.  1.
        -12    1    3    3    0    0 -0.60559594220E+01 -0.22446109476E+01 -0.39736509174E+02  0.40257956781E+02  0.00000000000E+00 0.  1.
</event>
<event>
 7    1  0.2294706E-015  0.9000777E+02  0.7816164E-02  0.1186339E+00
        -11   -1    0    0    0    0  0.00000000000E+00  0.00000000000E+00  0.45593999997E+02  0.45594000000E+02  0.51100000000E-03 0. -1.
         11   -1    0    0    0    0 -0.00000000000E+00 -0.00000000000E+00 -0.45593999997E+02  0.45594000000E+02  0.51100000000E-03 0.  1.
    9900012    2    1    2    0    0  0.90459020638E+00  0.73690664964E+00  0.17786739725E+00  0.90007766268E+02  0.90000027982E+02 0.  0.
        -12    1    1    2    0    0 -0.90459020638E+00 -0.73690664964E+00 -0.17786739725E+00  0.11802337323E+01  0.00000000000E+00 0.  1.
         11    1    3    3    0    0  0.31113662718E+01  0.27568885732E+02  0.28118105071E+02  0.39501289772E+02  0.51100000000E-03 0. -1.
        -11    1    3    3    0    0 -0.74155786259E+01  0.30422470910E+01  0.15980750318E+01  0.81731216673E+01  0.51100000000E-03 0.  1.
        -12    1    3    3    0    0  0.52088025605E+01 -0.29874226173E+02 -0.29538312706E+02  0.42333354829E+02  0.00000000000E+00 0.  1.
</event>
<event>
 7    1  0.2294706E-015  0.9000785E+02  0.7816164E-02  0.1186339E+00
        -11   -1    0    0    0    0  0.00000000000E+00  0.00000000000E+00  0.45593999997E+02  0.45594000000E+02  0.51100000000E-03 0. -1.
         11   -1    0    0    0    0 -0.00000000000E+00 -0.00000000000E+00 -0.45593999997E+02  0.45594000000E+02  0.51100000000E-03 0.  1.
    9900012    2    1    2    0    0  0.67049650310E-01 -0.11240650693E+01  0.35319038010E+00  0.90007846883E+02  0.90000109662E+02 0.  0.
        -12    1    1    2    0    0 -0.67049650310E-01  0.11240650693E+01 -0.35319038010E+00  0.11801531172E+01  0.00000000000E+00 0.  1.
         11    1    3    3    0    0 -0.26342932998E+02 -0.27385854123E+02  0.25078056326E+01  0.38081809494E+02  0.51100000000E-03 0. -1.
        -11    1    3    3    0    0 -0.39415761832E+01  0.63271135162E+00 -0.10588231052E+02  0.11315784707E+02  0.51100000000E-03 0.  1.
        -12    1    3    3    0    0  0.30351558832E+02  0.25629077702E+02  0.84336157996E+01  0.40610252681E+02  0.00000000000E+00 0.  1.
</event>
<event>
 7    1  0.2294706E-015  0.9000777E+02  0.7816164E-02  0.1186339E+00
        -11   -1    0    0    0    0  0.00000000000E+00  0.00000000000E+00  0.45593999997E+02  0.45594000000E+02  0.51100000000E-03 0.  1.
         11   -1    0    0    0    0 -0.00000000000E+00 -0.00000000000E+00 -0.45593999997E+02  0.45594000000E+02  0.51100000000E-03 0. -1.
    9900012    2    1    2    0    0 -0.22032890512E+00 -0.68005167500E+00 -0.93911476960E+00  0.90007766270E+02  0.90000027985E+02 0.  0.
        -12    1    1    2    0    0  0.22032890512E+00  0.68005167500E+00  0.93911476960E+00  0.11802337301E+01  0.00000000000E+00 0.  1.
         11    1    3    3    0    0  0.55008124369E+01  0.69123595470E+01  0.66849404197E+01  0.11078270652E+02  0.51100000000E-03 0. -1.
        -11    1    3    3    0    0 -0.61988553133E+01 -0.17960193758E+02  0.32411822242E+02  0.37570208788E+02  0.51100000000E-03 0.  1.
         12    1    3    3    0    0  0.47771397130E+00  0.10367782536E+02 -0.40035877432E+02  0.41359286830E+02  0.00000000000E+00 0. -1.
</event>
<event>
 7    1  0.2294706E-015  0.9000756E+02  0.7816164E-02  0.1186339E+00
        -11   -1    0    0    0    0  0.00000000000E+00  0.00000000000E+00  0.45593999997E+02  0.45594000000E+02  0.51100000000E-03 0.  1.
         11   -1    0    0    0    0 -0.00000000000E+00 -0.00000000000E+00 -0.45593999997E+02  0.45594000000E+02  0.51100000000E-03 0. -1.
    9900012    2    1    2    0    0  0.25895014244E+00 -0.10610226380E+01 -0.44790087224E+00  0.90007559656E+02  0.89999818643E+02 0.  0.
        -12    1    1    2    0    0 -0.25895014244E+00  0.10610226380E+01  0.44790087224E+00  0.11804403441E+01  0.00000000000E+00 0.  1.
         11    1    3    3    0    0 -0.39970474204E+02  0.43119471441E+01 -0.10367272359E+02  0.41517611115E+02  0.51100000000E-03 0. -1.
        -11    1    3    3    0    0  0.26395945925E+00  0.49632773412E+01 -0.22460481992E+01  0.54542212401E+01  0.51100000000E-03 0.  1.
        -12    1    3    3    0    0  0.39965464887E+02 -0.10336247123E+02  0.12165419686E+02  0.43035727301E+02  0.00000000000E+00 0.  1.
</event>
<event>
 7    1  0.2294706E-015  0.9000775E+02  0.7816164E-02  0.1186339E+00
        -11   -1    0    0    0    0  0.00000000000E+00  0.00000000000E+00  0.45593999997E+02  0.45594000000E+02  0.51100000000E-03 0. -1.
         11   -1    0    0    0    0 -0.00000000000E+00 -0.00000000000E+00 -0.45593999997E+02  0.45594000000E+02  0.51100000000E-03 0.  1.
    9900012    2    1    2    0    0 -0.38889166890E+00 -0.86493569436E+00 -0.70259328057E+00  0.90007750957E+02  0.90000012470E+02 0.  0.
        -12    1    1    2    0    0  0.38889166890E+00  0.86493569436E+00  0.70259328057E+00  0.11802490430E+01  0.00000000000E+00 0.  1.
         11    1    3    3    0    0 -0.63079480480E+01 -0.65771896993E+01  0.17762403435E+01  0.92846466241E+01  0.51100000000E-03 0. -1.
        -11    1    3    3    0    0 -0.25713073326E+02 -0.14444989917E+02 -0.23513611527E+02  0.37718825550E+02  0.51100000000E-03 0.  1.
         12    1    3    3    0    0  0.31632129705E+02  0.20157243922E+02  0.21034777903E+02  0.43004278783E+02  0.00000000000E+00 0. -1.
</event>
<event>
 7    1  0.2294706E-015  0.9000773E+02  0.7816164E-02  0.1186339E+00
        -11   -1    0    0    0    0  0.00000000000E+00  0.00000000000E+00  0.45593999997E+02  0.45594000000E+02  0.51100000000E-03 0.  1.
         11   -1    0    0    0    0 -0.00000000000E+00 -0.00000000000E+00 -0.45593999997E+02  0.45594000000E+02  0.51100000000E-03 0. -1.
    9900012    2    1    2    0    0 -0.33996253048E-01 -0.11796765237E+01 -0.15810828688E-01  0.90007727816E+02  0.89999989023E+02 0.  0.
        -12    1    1    2    0    0  0.33996253048E-01  0.11796765237E+01  0.15810828688E-01  0.11802721839E+01  0.00000000000E+00 0.  1.
         11    1    3    3    0    0 -0.41301282242E+02  0.37433987886E+01  0.25540826197E+01  0.41549155077E+02  0.51100000000E-03 0. -1.
        -11    1    3    3    0    0  0.27294183578E+01 -0.72317642745E+01  0.48774202114E+01  0.91398778588E+01  0.51100000000E-03 0.  1.
        -12    1    3    3    0    0  0.38537867632E+02  0.23086889622E+01 -0.74473136597E+01  0.39318694880E+02  0.00000000000E+00 0.  1.
</event>
<event>
 7    1  0.2294706E-015  0.9000778E+02  0.7816164E-02  0.1186339E+00
        -11   -1    0    0    0    0  0.00000000000E+00  0.00000000000E+00  0.45593999997E+02  0.45594000000E+02  0.51100000000E-03 0. -1.
         11   -1    0    0    0    0 -0.00000000000E+00 -0.00000000000E+00 -0.45593999997E+02  0.45594000000E+02  0.51100000000E-03 0.  1.
    9900012    2    1    2    0    0 -0.62258795486E+00  0.67776923519E-01  0.10003554446E+01  0.90007779475E+02  0.90000041364E+02 0.  0.
        -12    1    1    2    0    0  0.62258795486E+00 -0.67776923519E-01 -0.10003554446E+01  0.11802205253E+01  0.00000000000E+00 0.  1.
         11    1    3    3    0    0  0.30314018464E+02  0.21625251781E+02  0.18184789719E+02  0.41440050765E+02  0.51100000000E-03 0. -1.
        -11    1    3    3    0    0 -0.78425286211E+01  0.64094162144E+00  0.52506613267E+01  0.94596778996E+01  0.51100000000E-03 0.  1.
        -12    1    3    3    0    0 -0.23094077798E+02 -0.22198416479E+02 -0.22435095601E+02  0.39108050810E+02  0.00000000000E+00 0.  1.
</event>
<event>
 7    1  0.2294706E-015  0.9000776E+02  0.7816164E-02  0.1186339E+00
        -11   -1    0    0    0    0  0.00000000000E+00  0.00000000000E+00  0.45593999997E+02  0.45594000000E+02  0.51100000000E-03 0. -1.
         11   -1    0    0    0    0 -0.00000000000E+00 -0.00000000000E+00 -0.45593999997E+02  0.45594000000E+02  0.51100000000E-03 0.  1.
    9900012    2    1    2    0    0 -0.19267367704E+00  0.35086886472E-01  0.11638746501E+01  0.90007763398E+02  0.90000025075E+02 0.  0.
        -12    1    1    2    0    0  0.19267367704E+00 -0.35086886472E-01 -0.11638746501E+01  0.11802366020E+01  0.00000000000E+00 0.  1.
         11    1    3    3    0    0  0.18189993640E+02  0.24722050082E+02 -0.86959238461E+01  0.31901014415E+02  0.51100000000E-03 0.  1.
        -11    1    3    3    0    0 -0.12290965381E+02  0.76966416500E+01  0.19008451256E+02  0.23908729412E+02  0.51100000000E-03 0. -1.
         12    1    3    3    0    0 -0.60917019366E+01 -0.32383604845E+02 -0.91486527602E+01  0.34198019571E+02  0.00000000000E+00 0. -1.
</event>
<event>
 7    1  0.2294706E-015  0.9000788E+02  0.7816164E-02  0.1186339E+00
        -11   -1    0    0    0    0  0.00000000000E+00  0.00000000000E+00  0.45593999997E+02  0.45594000000E+02  0.51100000000E-03 0.  1.
         11   -1    0    0    0    0 -0.00000000000E+00 -0.00000000000E+00 -0.45593999997E+02  0.45594000000E+02  0.51100000000E-03 0. -1.
    9900012    2    1    2    0    0 -0.48717573843E+00  0.23063655615E+00  0.10498349721E+01  0.90007878443E+02  0.90000141638E+02 0.  0.
        -12    1    1    2    0    0  0.48717573843E+00 -0.23063655615E+00 -0.10498349721E+01  0.11801215572E+01  0.00000000000E+00 0.  1.
         11    1    3    3    0    0 -0.11436906807E+02 -0.30758216086E+02 -0.19636362087E+02  0.38242089513E+02  0.51100000000E-03 0. -1.
        -11    1    3    3    0    0  0.97918766672E+01 -0.31042081949E+01 -0.24336663093E+01  0.10556499853E+02  0.51100000000E-03 0.  1.
        -12    1    3    3    0    0  0.11578544014E+01  0.34093060837E+02  0.23119863368E+02  0.41209289076E+02  0.00000000000E+00 0.  1.
</event>
<event>
 7    1  0.2294706E-015  0.9000777E+02  0.7816164E-02  0.1186339E+00
        -11   -1    0    0    0    0  0.00000000000E+00  0.00000000000E+00  0.45593999997E+02  0.45594000000E+02  0.51100000000E-03 0. -1.
         11   -1    0    0    0    0 -0.00000000000E+00 -0.00000000000E+00 -0.45593999997E+02  0.45594000000E+02  0.51100000000E-03 0.  1.
    9900012    2    1    2    0    0 -0.11343382480E+01 -0.29907745650E+00 -0.12946627808E+00  0.90007774554E+02  0.90000036378E+02 0.  0.
        -12    1    1    2    0    0  0.11343382480E+01  0.29907745650E+00  0.12946627808E+00  0.11802254459E+01  0.00000000000E+00 0.  1.
         11    1    3    3    0    0 -0.32477790448E+00 -0.11439458278E+02  0.93804173904E+01  0.14797260458E+02  0.51100000000E-03 0. -1.
        -11    1    3    3    0    0 -0.15671742449E+02 -0.21799045915E+02  0.15744119340E+02  0.31123611748E+02  0.51100000000E-03 0.  1.
         12    1    3    3    0    0  0.14862182106E+02  0.32939426736E+02 -0.25254003009E+02  0.44086902348E+02  0.00000000000E+00 0. -1.
</event>
<event>
 7    1  0.2294706E-015  0.9000759E+02  0.7816164E-02  0.1186339E+00
        -11   -1    0    0    0    0  0.00000000000E+00  0.00000000000E+00  0.45593999997E+02  0.45594000000E+02  0.51100000000E-03 0.  1.
         11   -1    0    0    0    0 -0.00000000000E+00 -0.00000000000E+00 -0.45593999997E+02  0.45594000000E+02  0.51100000000E-03 0. -1.
    9900012    2    1    2    0    0 -0.62620380229E+00  0.38910181661E+00 -0.92186243187E+00  0.90007592541E+02  0.89999851963E+02 0.  0.
        -12    1    1    2    0    0  0.62620380229E+00 -0.38910181661E+00  0.92186243187E+00  0.11804074589E+01  0.00000000000E+00 0.  1.
         11    1    3    3    0    0 -0.22778880547E+01 -0.98883106589E+01  0.84363613441E+01  0.13196198493E+02  0.51100000000E-03 0. -1.
        -11    1    3    3    0    0  0.37560011095E+01 -0.25720950899E+02 -0.26293079158E+02  0.36972974879E+02  0.51100000000E-03 0.  1.
         12    1    3    3    0    0 -0.21043168571E+01  0.35998363375E+02  0.16934855382E+02  0.39838419169E+02  0.00000000000E+00 0. -1.
</event>
<event>
 7    1  0.2294706E-015  0.9000700E+02  0.7816164E-02  0.1186341E+00
        -11   -1    0    0    0    0  0.00000000000E+00  0.00000000000E+00  0.45593999997E+02  0.45594000000E+02  0.51100000000E-03 0. -1.
         11   -1    0    0    0    0 -0.00000000000E+00 -0.00000000000E+00 -0.45593999997E+02  0.45594000000E+02  0.51100000000E-03 0.  1.
    9900012    2    1    2    0    0 -0.61727842021E+00  0.61444435176E+00  0.79761098556E+00  0.90007001357E+02  0.89999252972E+02 0.  0.
        -12    1    1    2    0    0  0.61727842021E+00 -0.61444435176E+00 -0.79761098556E+00  0.11809986426E+01  0.00000000000E+00 0.  1.
         11    1    3    3    0    0  0.30405449581E+01 -0.43247816093E+01  0.31670456518E+01  0.61626964903E+01  0.51100000000E-03 0. -1.
        -11    1    3    3    0    0  0.28576726054E+02 -0.14385048735E+02 -0.24439821785E+02  0.40259952661E+02  0.51100000000E-03 0.  1.
         12    1    3    3    0    0 -0.32234549432E+02  0.19324274697E+02  0.22070387119E+02  0.43584352206E+02  0.00000000000E+00 0. -1.
</event>
<event>
 7    1  0.2294706E-015  0.9000781E+02  0.7816164E-02  0.1186339E+00
        -11   -1    0    0    0    0  0.00000000000E+00  0.00000000000E+00  0.45593999997E+02  0.45594000000E+02  0.51100000000E-03 0. -1.
         11   -1    0    0    0    0 -0.00000000000E+00 -0.00000000000E+00 -0.45593999997E+02  0.45594000000E+02  0.51100000000E-03 0.  1.
    9900012    2    1    2    0    0  0.87376693103E+00 -0.77013094240E+00  0.19045588648E+00  0.90007811980E+02  0.90000074298E+02 0.  0.
        -12    1    1    2    0    0 -0.87376693103E+00  0.77013094240E+00 -0.19045588648E+00  0.11801880202E+01  0.00000000000E+00 0.  1.
         11    1    3    3    0    0  0.35329975056E+01  0.17886260055E+01 -0.49040559731E+01  0.63032546839E+01  0.51100000000E-03 0. -1.
        -11    1    3    3    0    0 -0.29845565643E+01  0.27905194918E+02 -0.27357856850E+02  0.39192598957E+02  0.51100000000E-03 0.  1.
         12    1    3    3    0    0  0.32532598979E+00 -0.30463951866E+02  0.32452368710E+02  0.44511958339E+02  0.00000000000E+00 0. -1.
</event>
<event>
 7    1  0.2294706E-015  0.9000774E+02  0.7816164E-02  0.1186339E+00
        -11   -1    0    0    0    0  0.00000000000E+00  0.00000000000E+00  0.45593999997E+02  0.45594000000E+02  0.51100000000E-03 0. -1.
         11   -1    0    0    0    0 -0.00000000000E+00 -0.00000000000E+00 -0.45593999997E+02  0.45594000000E+02  0.51100000000E-03 0.  1.
    9900012    2    1    2    0    0 -0.97852235331E+00 -0.61187932108E+00  0.24721914316E+00  0.90007737485E+02  0.89999998820E+02 0.  0.
        -12    1    1    2    0    0  0.97852235331E+00  0.61187932108E+00 -0.24721914316E+00  0.11802625150E+01  0.00000000000E+00 0.  1.
         11    1    3    3    0    0  0.20130849185E+01  0.88428865686E+01 -0.26069943197E+01  0.94363962082E+01  0.51100000000E-03 0. -1.
        -11    1    3    3    0    0 -0.95313207136E+01  0.11871270658E+02 -0.34135398914E+02  0.37376444465E+02  0.51100000000E-03 0.  1.
         12    1    3    3    0    0  0.65397134418E+01 -0.21326036548E+02  0.36989612377E+02  0.43194896811E+02  0.00000000000E+00 0. -1.
</event>
<event>
 7    1  0.2294706E-015  0.9000758E+02  0.7816164E-02  0.1186339E+00
        -11   -1    0    0    0    0  0.00000000000E+00  0.00000000000E+00  0.45593999997E+02  0.45594000000E+02  0.51100000000E-03 0.  1.
         11   -1    0    0    0    0 -0.00000000000E+00 -0.00000000000E+00 -0.45593999997E+02  0.45594000000E+02  0.51100000000E-03 0. -1.
    9900012    2    1    2    0    0 -0.26934484853E+00 -0.11213405189E+01 -0.25186936910E+00  0.90007580843E+02  0.89999840110E+02 0.  0.
        -12    1    1    2    0    0  0.26934484853E+00  0.11213405189E+01  0.25186936910E+00  0.11804191568E+01  0.00000000000E+00 0.  1.
         11    1    3    3    0    0 -0.54394871750E+01 -0.15845264775E+01  0.71521094737E+01  0.91242213405E+01  0.51100000000E-03 0. -1.
        -11    1    3    3    0    0  0.57560842078E+01  0.56712832158E+01  0.36136320344E+02  0.37028767289E+02  0.51100000000E-03 0.  1.
         12    1    3    3    0    0 -0.58594188135E+00 -0.52080972572E+01 -0.43540299187E+02  0.43854592213E+02  0.00000000000E+00 0. -1.
</event>
<event>
 7    1  0.2294706E-015  0.9000775E+02  0.7816164E-02  0.1186339E+00
        -11   -1    0    0    0    0  0.00000000000E+00  0.00000000000E+00  0.45593999997E+02  0.45594000000E+02  0.51100000000E-03 0. -1.
         11   -1    0    0    0    0 -0.00000000000E+00 -0.00000000000E+00 -0.45593999997E+02  0.45594000000E+02  0.51100000000E-03 0.  1.
    9900012    2    1    2    0    0 -0.53091642568E+00  0.38115269618E+00  0.98277507352E+00  0.90007747284E+02  0.90000008748E+02 0.  0.
        -12    1    1    2    0    0  0.53091642568E+00 -0.38115269618E+00 -0.98277507352E+00  0.11802527162E+01  0.00000000000E+00 0.  1.
         11    1    3    3    0    0  0.21695731669E+02 -0.14214562035E+01  0.37111490842E+02  0.43011487572E+02  0.51100000000E-03 0. -1.
        -11    1    3    3    0    0 -0.65343968593E+01 -0.34433882686E+01 -0.14141189405E+00  0.73875072025E+01  0.51100000000E-03 0.  1.
        -12    1    3    3    0    0 -0.15692251236E+02  0.52459971683E+01 -0.35987303875E+02  0.39608752509E+02  0.00000000000E+00 0.  1.
</event>
<event>
 7    1  0.2294706E-015  0.9000782E+02  0.7816164E-02  0.1186339E+00
        -11   -1    0    0    0    0  0.00000000000E+00  0.00000000000E+00  0.45593999997E+02  0.45594000000E+02  0.51100000000E-03 0. -1.
         11   -1    0    0    0    0 -0.00000000000E+00 -0.00000000000E+00 -0.45593999997E+02  0.45594000000E+02  0.51100000000E-03 0.  1.
    9900012    2    1    2    0    0 -0.65977816514E+00 -0.77709979472E+00  0.59466525832E+00  0.90007822858E+02  0.90000085319E+02 0.  0.
        -12    1    1    2    0    0  0.65977816514E+00  0.77709979472E+00 -0.59466525832E+00  0.11801771425E+01  0.00000000000E+00 0.  1.
         11    1    3    3    0    0 -0.74179179527E+00  0.37044744218E+02  0.16199201479E+02  0.40438563996E+02  0.51100000000E-03 0. -1.
        -11    1    3    3    0    0 -0.66557300412E+01 -0.32905974158E+01  0.48542626311E+01  0.88707744694E+01  0.51100000000E-03 0.  1.
        -12    1    3    3    0    0  0.67377436714E+01 -0.34531246597E+02 -0.20458798852E+02  0.40698484392E+02  0.00000000000E+00 0.  1.
</event>
<event>
 7    1  0.2294706E-015  0.9000786E+02  0.7816164E-02  0.1186339E+00
        -11   -1    0    0    0    0  0.00000000000E+00  0.00000000000E+00  0.45593999997E+02  0.45594000000E+02  0.51100000000E-03 0.  1.
         11   -1    0    0    0    0 -0.00000000000E+00 -0.00000000000E+00 -0.45593999997E+02  0.45594000000E+02  0.51100000000E-03 0. -1.
    9900012    2    1    2    0    0  0.89533352802E+00  0.71378751252E+00 -0.28570523485E+00  0.90007855000E+02  0.90000117886E+02 0.  0.
        -12    1    1    2    0    0 -0.89533352802E+00 -0.71378751252E+00  0.28570523485E+00  0.11801449998E+01  0.00000000000E+00 0.  1.
         11    1    3    3    0    0  0.39252994689E+02  0.71300789528E+01  0.13096784876E+02  0.41990015388E+02  0.51100000000E-03 0. -1.
        -11    1    3    3    0    0 -0.41120859104E+01 -0.87191266520E+01  0.28463433511E+01  0.10051571561E+02  0.51100000000E-03 0.  1.
        -12    1    3    3    0    0 -0.34245575250E+02  0.23028352118E+01 -0.16228833462E+02  0.37966268052E+02  0.00000000000E+00 0.  1.
</event>
<event>
 7    1  0.2294706E-015  0.9000764E+02  0.7816164E-02  0.1186339E+00
        -11   -1    0    0    0    0  0.00000000000E+00  0.00000000000E+00  0.45593999997E+02  0.45594000000E+02  0.51100000000E-03 0. -1.
         11   -1    0    0    0    0 -0.00000000000E+00 -0.00000000000E+00 -0.45593999997E+02  0.45594000000E+02  0.51100000000E-03 0.  1.
    9900012    2    1    2    0    0 -0.38959153478E+00 -0.23787094129E-01  0.11139549578E+01  0.90007642835E+02  0.89999902920E+02 0.  0.
        -12    1    1    2    0    0  0.38959153478E+00  0.23787094129E-01 -0.11139549578E+01  0.11803571653E+01  0.00000000000E+00 0.  1.
         11    1    3    3    0    0 -0.47339061136E+01  0.82969804125E+01 -0.62011942498E+01  0.11388791044E+02  0.51100000000E-03 0. -1.
        -11    1    3    3    0    0 -0.17201773092E+01  0.34205285855E+02 -0.31897429311E+01  0.34396730231E+02  0.51100000000E-03 0.  1.
         12    1    3    3    0    0  0.60644918880E+01 -0.42526053361E+02  0.10504892139E+02  0.44222121559E+02  0.00000000000E+00 0. -1.
</event>
<event>
 7    1  0.2294706E-015  0.9000771E+02  0.7816164E-02  0.1186339E+00
        -11   -1    0    0    0    0  0.00000000000E+00  0.00000000000E+00  0.45593999997E+02  0.45594000000E+02  0.51100000000E-03 0.  1.
         11   -1    0    0    0    0 -0.00000000000E+00 -0.00000000000E+00 -0.45593999997E+02  0.45594000000E+02  0.51100000000E-03 0. -1.
    9900012    2    1    2    0    0 -0.71125902802E-04  0.79591433820E+00 -0.87155416050E+00  0.90007709233E+02  0.89999970195E+02 0.  0.
        -12    1    1    2    0    0  0.71125902801E-04 -0.79591433820E+00  0.87155416050E+00  0.11802907665E+01  0.00000000000E+00 0.  1.
         11    1    3    3    0    0 -0.90825346331E+01 -0.38080210836E+02  0.10706279640E+02  0.40585949744E+02  0.51100000000E-03 0. -1.
        -11    1    3    3    0    0  0.34426137958E+01 -0.89622966312E+00 -0.84045161810E+01  0.91263744091E+01  0.51100000000E-03 0.  1.
        -12    1    3    3    0    0  0.56398497114E+01  0.39772354837E+02 -0.31733176190E+01  0.40295385080E+02  0.00000000000E+00 0.  1.
</event>
<event>
 7    1  0.2294706E-015  0.9000773E+02  0.7816164E-02  0.1186339E+00
        -11   -1    0    0    0    0  0.00000000000E+00  0.00000000000E+00  0.45593999997E+02  0.45594000000E+02  0.51100000000E-03 0. -1.
         11   -1    0    0    0    0 -0.00000000000E+00 -0.00000000000E+00 -0.45593999997E+02  0.45594000000E+02  0.51100000000E-03 0.  1.
    9900012    2    1    2    0    0 -0.83386949221E+00 -0.38044703421E-02  0.83527448622E+00  0.90007730424E+02  0.89999991666E+02 0.  0.
        -12    1    1    2    0    0  0.83386949221E+00  0.38044703421E-02 -0.83527448622E+00  0.11802695757E+01  0.00000000000E+00 0.  1.
         11    1    3    3    0    0  0.44086690558E+01  0.77832378133E+01  0.91888190680E+01  0.12823788435E+02  0.51100000000E-03 0. -1.
        -11    1    3    3    0    0 -0.24226261520E+02  0.27292979414E+02 -0.76672890361E+01  0.37290827209E+02  0.51100000000E-03 0.  1.
         12    1    3    3    0    0  0.18983722972E+02 -0.35080021697E+02 -0.68625554573E+00  0.39893114780E+02  0.00000000000E+00 0. -1.
</event>
<event>
 7    1  0.2294706E-015  0.9000763E+02  0.7816164E-02  0.1186339E+00
        -11   -1    0    0    0    0  0.00000000000E+00  0.00000000000E+00  0.45593999997E+02  0.45594000000E+02  0.51100000000E-03 0.  1.
         11   -1    0    0    0    0 -0.00000000000E+00 -0.00000000000E+00 -0.45593999997E+02  0.45594000000E+02  0.51100000000E-03 0. -1.
    9900012    2    1    2    0    0  0.94433190020E+00  0.30286565671E+00 -0.64014383776E+00  0.90007629517E+02  0.89999889427E+02 0.  0.
        -12    1    1    2    0    0 -0.94433190020E+00 -0.30286565671E+00  0.64014383776E+00  0.11803704828E+01  0.00000000000E+00 0.  1.
         11    1    3    3    0    0  0.27510081202E+02  0.27608989485E+02  0.93047277704E+01  0.40070423348E+02  0.51100000000E-03 0. -1.
        -11    1    3    3    0    0  0.22456972547E+01  0.36951882261E+01 -0.60494710416E+01  0.74359715122E+01  0.51100000000E-03 0.  1.
        -12    1    3    3    0    0 -0.28811446557E+02 -0.31001312054E+02 -0.38954005666E+01  0.42501234657E+02  0.00000000000E+00 0.  1.
</event>
<event>
 7    1  0.2456938E-015  0.9000775E+02  0.7816164E-02  0.1186339E+00
        -11   -1    0    0    0    0  0.00000000000E+00  0.00000000000E+00  0.45593999997E+02  0.45594000000E+02  0.51100000000E-03 0. -1.
         11   -1    0    0    0    0 -0.00000000000E+00 -0.00000000000E+00 -0.45593999997E+02  0.45594000000E+02  0.51100000000E-03 0.  1.
    9900012    2    1    2    0    0 -0.83615265082E+00 -0.72765068404E+00 -0.40541583874E+00  0.90007750545E+02  0.90000012052E+02 0.  0.
        -12    1    1    2    0    0  0.83615265082E+00  0.72765068404E+00  0.40541583874E+00  0.11802494549E+01  0.00000000000E+00 0.  1.
         11    1    3    3    0    0 -0.36488871176E+02  0.86232095517E+01 -0.20957229031E+02  0.42953497083E+02  0.51100000000E-03 0. -1.
        -11    1    3    3    0    0  0.92059515381E+01  0.17397876995E+01 -0.31133107431E+01  0.98726444788E+01  0.51100000000E-03 0.  1.
        -12    1    3    3    0    0  0.26446766987E+02 -0.11090647935E+02  0.23665123936E+02  0.37181608984E+02  0.00000000000E+00 0.  1.
</event>
<event>
 7    1  0.2294706E-015  0.9000773E+02  0.7816164E-02  0.1186339E+00
        -11   -1    0    0    0    0  0.00000000000E+00  0.00000000000E+00  0.45593999997E+02  0.45594000000E+02  0.51100000000E-03 0.  1.
         11   -1    0    0    0    0 -0.00000000000E+00 -0.00000000000E+00 -0.45593999997E+02  0.45594000000E+02  0.51100000000E-03 0. -1.
    9900012    2    1    2    0    0 -0.30546449360E+00 -0.27625762285E+00 -0.11060740638E+01  0.90007734494E+02  0.89999995789E+02 0.  0.
        -12    1    1    2    0    0  0.30546449360E+00  0.27625762285E+00  0.11060740638E+01  0.11802655064E+01  0.00000000000E+00 0.  1.
         11    1    3    3    0    0  0.74449637156E+00 -0.98055503906E+01  0.27361528489E+01  0.10207331972E+02  0.51100000000E-03 0. -1.
        -11    1    3    3    0    0 -0.25061056300E+02  0.42085183098E+01  0.29136326563E+02  0.38661268669E+02  0.51100000000E-03 0.  1.
         12    1    3    3    0    0  0.24011095435E+02  0.53207744580E+01 -0.32978553475E+02  0.41139133853E+02  0.00000000000E+00 0. -1.
</event>
<event>
 7    1  0.2719977E-015  0.9000769E+02  0.7816164E-02  0.1186339E+00
        -11   -1    0    0    0    0  0.00000000000E+00  0.00000000000E+00  0.45593999997E+02  0.45594000000E+02  0.51100000000E-03 0.  1.
         11   -1    0    0    0    0 -0.00000000000E+00 -0.00000000000E+00 -0.45593999997E+02  0.45594000000E+02  0.51100000000E-03 0. -1.
    9900012    2    1    2    0    0 -0.63300365507E+00 -0.19303408714E+00 -0.97732802928E+00  0.90007692471E+02  0.89999953212E+02 0.  0.
        -12    1    1    2    0    0  0.63300365507E+00  0.19303408714E+00  0.97732802928E+00  0.11803075290E+01  0.00000000000E+00 0.  1.
         11    1    3    3    0    0 -0.46490001935E+01 -0.13281963867E+02 -0.34321189328E+02  0.37094040008E+02  0.51100000000E-03 0. -1.
        -11    1    3    3    0    0  0.62373909929E+01 -0.30035778204E+00 -0.75665733670E+01  0.98106214876E+01  0.51100000000E-03 0.  1.
        -12    1    3    3    0    0 -0.22213944544E+01  0.13389287562E+02  0.40910434666E+02  0.43103030975E+02  0.00000000000E+00 0.  1.
</event>
<event>
 7    1  0.2294706E-015  0.9000776E+02  0.7816164E-02  0.1186339E+00
        -11   -1    0    0    0    0  0.00000000000E+00  0.00000000000E+00  0.45593999997E+02  0.45594000000E+02  0.51100000000E-03 0. -1.
         11   -1    0    0    0    0 -0.00000000000E+00 -0.00000000000E+00 -0.45593999997E+02  0.45594000000E+02  0.51100000000E-03 0.  1.
    9900012    2    1    2    0    0 -0.84301925825E+00  0.78386264877E+00  0.26045678606E+00  0.90007762795E+02  0.90000024464E+02 0.  0.
        -12    1    1    2    0    0  0.84301925825E+00 -0.78386264877E+00 -0.26045678606E+00  0.11802372047E+01  0.00000000000E+00 0.  1.
         11    1    3    3    0    0 -0.17819455471E+02 -0.16967253314E+02  0.29472153898E+02  0.38393079246E+02  0.51100000000E-03 0. -1.
        -11    1    3    3    0    0 -0.81263470986E+01  0.31846404312E+01  0.20416911944E+01  0.89637020832E+01  0.51100000000E-03 0.  1.
        -12    1    3    3    0    0  0.25102783312E+02  0.14566475531E+02 -0.31253388306E+02  0.42650981466E+02  0.00000000000E+00 0.  1.
</event>
<event>
 7    1  0.2294706E-015  0.9000772E+02  0.7816164E-02  0.1186339E+00
        -11   -1    0    0    0    0  0.00000000000E+00  0.00000000000E+00  0.45593999997E+02  0.45594000000E+02  0.51100000000E-03 0.  1.
         11   -1    0    0    0    0 -0.00000000000E+00 -0.00000000000E+00 -0.45593999997E+02  0.45594000000E+02  0.51100000000E-03 0. -1.
    9900012    2    1    2    0    0 -0.92046800842E+00  0.68855717224E+00 -0.26773472744E+00  0.90007722821E+02  0.89999983963E+02 0.  0.
        -12    1    1    2    0    0  0.92046800842E+00 -0.68855717224E+00  0.26773472744E+00  0.11802771786E+01  0.00000000000E+00 0.  1.
         11    1    3    3    0    0  0.52193922300E+00 -0.33682394138E+01 -0.93412373196E+01  0.99436498441E+01  0.51100000000E-03 0. -1.
        -11    1    3    3    0    0  0.26118101252E+02  0.30902052966E+02 -0.31052706889E+00  0.40462186271E+02  0.51100000000E-03 0.  1.
         12    1    3    3    0    0 -0.27560508484E+02 -0.26845256380E+02  0.93840296610E+01  0.39601886706E+02  0.00000000000E+00 0. -1.
</event>
<event>
 7    1  0.2294706E-015  0.9000768E+02  0.7816164E-02  0.1186339E+00
        -11   -1    0    0    0    0  0.00000000000E+00  0.00000000000E+00  0.45593999997E+02  0.45594000000E+02  0.51100000000E-03 0.  1.
         11   -1    0    0    0    0 -0.00000000000E+00 -0.00000000000E+00 -0.45593999997E+02  0.45594000000E+02  0.51100000000E-03 0. -1.
    9900012    2    1    2    0    0  0.19896402046E+00  0.76592718770E+00 -0.87574472957E+00  0.90007678023E+02  0.89999938573E+02 0.  0.
        -12    1    1    2    0    0 -0.19896402046E+00 -0.76592718770E+00  0.87574472957E+00  0.11803219771E+01  0.00000000000E+00 0.  1.
         11    1    3    3    0    0 -0.33476881716E+02  0.38826337092E+01  0.19766020124E+02  0.39070090936E+02  0.51100000000E-03 0. -1.
        -11    1    3    3    0    0 -0.42816132392E+01  0.52548168756E+01 -0.69988626079E+01  0.97431714750E+01  0.51100000000E-03 0.  1.
        -12    1    3    3    0    0  0.37957458976E+02 -0.83715233970E+01 -0.13642902246E+02  0.41194415612E+02  0.00000000000E+00 0.  1.
</event>
<event>
 7    1  0.2294706E-015  0.9000773E+02  0.7816164E-02  0.1186339E+00
        -11   -1    0    0    0    0  0.00000000000E+00  0.00000000000E+00  0.45593999997E+02  0.45594000000E+02  0.51100000000E-03 0.  1.
         11   -1    0    0    0    0 -0.00000000000E+00 -0.00000000000E+00 -0.45593999997E+02  0.45594000000E+02  0.51100000000E-03 0. -1.
    9900012    2    1    2    0    0  0.90712757704E+00 -0.35129028169E+00 -0.66839187311E+00  0.90007731811E+02  0.89999993070E+02 0.  0.
        -12    1    1    2    0    0 -0.90712757704E+00  0.35129028169E+00  0.66839187311E+00  0.11802681895E+01  0.00000000000E+00 0.  1.
         11    1    3    3    0    0  0.31331500464E+02 -0.29976165144E+01  0.26929257074E+02  0.41422620788E+02  0.51100000000E-03 0. -1.
        -11    1    3    3    0    0 -0.40298106824E+01  0.83319018152E+01  0.93534760686E+00  0.93024103006E+01  0.51100000000E-03 0.  1.
        -12    1    3    3    0    0 -0.26394562205E+02 -0.56855755824E+01 -0.28532996554E+02  0.39282700722E+02  0.00000000000E+00 0.  1.
</event>
<event>
 7    1  0.2294706E-015  0.9000774E+02  0.7816164E-02  0.1186339E+00
        -11   -1    0    0    0    0  0.00000000000E+00  0.00000000000E+00  0.45593999997E+02  0.45594000000E+02  0.51100000000E-03 0.  1.
         11   -1    0    0    0    0 -0.00000000000E+00 -0.00000000000E+00 -0.45593999997E+02  0.45594000000E+02  0.51100000000E-03 0. -1.
    9900012    2    1    2    0    0  0.20407471272E+00 -0.86831298396E+00 -0.77290898972E+00  0.90007744844E+02  0.90000006276E+02 0.  0.
        -12    1    1    2    0    0 -0.20407471272E+00  0.86831298396E+00  0.77290898972E+00  0.11802551558E+01  0.00000000000E+00 0.  1.
         11    1    3    3    0    0 -0.76884024688E+01  0.53742341148E+01 -0.41081044649E+02  0.42138416612E+02  0.51100000000E-03 0. -1.
        -11    1    3    3    0    0 -0.44797872342E+01  0.56255844049E+01  0.54497215826E+01  0.90230349190E+01  0.51100000000E-03 0.  1.
        -12    1    3    3    0    0  0.12372264416E+02 -0.11868131504E+02  0.34858414077E+02  0.38846293313E+02  0.00000000000E+00 0.  1.
</event>
<event>
 7    1  0.2294706E-015  0.9000783E+02  0.7816164E-02  0.1186339E+00
        -11   -1    0    0    0    0  0.00000000000E+00  0.00000000000E+00  0.45593999997E+02  0.45594000000E+02  0.51100000000E-03 0.  1.
         11   -1    0    0    0    0 -0.00000000000E+00 -0.00000000000E+00 -0.45593999997E+02  0.45594000000E+02  0.51100000000E-03 0. -1.
    9900012    2    1    2    0    0  0.52188366706E+00  0.36350021978E+00 -0.99413775592E+00  0.90007828466E+02  0.90000091002E+02 0.  0.
        -12    1    1    2    0    0 -0.52188366706E+00 -0.36350021978E+00  0.99413775592E+00  0.11801715339E+01  0.00000000000E+00 0.  1.
         11    1    3    3    0    0 -0.23517381791E+02  0.22057162628E+02 -0.10044943468E+02  0.33771090581E+02  0.51100000000E-03 0. -1.
        -11    1    3    3    0    0 -0.68553099080E+01  0.41721497258E+01 -0.90234047622E+01  0.12075758404E+02  0.51100000000E-03 0.  1.
        -12    1    3    3    0    0  0.30894575366E+02 -0.25865812134E+02  0.18074210474E+02  0.44160979481E+02  0.00000000000E+00 0.  1.
</event>
<event>
 7    1  0.2294706E-015  0.9000761E+02  0.7816164E-02  0.1186339E+00
        -11   -1    0    0    0    0  0.00000000000E+00  0.00000000000E+00  0.45593999997E+02  0.45594000000E+02  0.51100000000E-03 0.  1.
         11   -1    0    0    0    0 -0.00000000000E+00 -0.00000000000E+00 -0.45593999997E+02  0.45594000000E+02  0.51100000000E-03 0. -1.
    9900012    2    1    2    0    0  0.30880055852E+00  0.10376758385E+01  0.47030166184E+00  0.90007613375E+02  0.89999873072E+02 0.  0.
        -12    1    1    2    0    0 -0.30880055852E+00 -0.10376758385E+01 -0.47030166184E+00  0.11803866248E+01  0.00000000000E+00 0.  1.
         11    1    3    3    0    0 -0.38575932525E+01  0.44245870128E+01 -0.36722650529E+02  0.37188856639E+02  0.51100000000E-03 0. -1.
        -11    1    3    3    0    0  0.15033446058E+01  0.12636703247E+02  0.55089225056E+00  0.12737731215E+02  0.51100000000E-03 0.  1.
        -12    1    3    3    0    0  0.26630492052E+01 -0.16023614422E+02  0.36642059940E+02  0.40081025522E+02  0.00000000000E+00 0.  1.
</event>
<event>
 7    1  0.2294706E-015  0.9000775E+02  0.7816164E-02  0.1186339E+00
        -11   -1    0    0    0    0  0.00000000000E+00  0.00000000000E+00  0.45593999997E+02  0.45594000000E+02  0.51100000000E-03 0. -1.
         11   -1    0    0    0    0 -0.00000000000E+00 -0.00000000000E+00 -0.45593999997E+02  0.45594000000E+02  0.51100000000E-03 0.  1.
    9900012    2    1    2    0    0 -0.66287532555E+00  0.94180288036E+00 -0.25806178967E+00  0.90007749073E+02  0.90000010561E+02 0.  0.
        -12    1    1    2    0    0  0.66287532555E+00 -0.94180288036E+00  0.25806178967E+00  0.11802509267E+01  0.00000000000E+00 0.  1.
         11    1    3    3    0    0  0.10577294967E+02 -0.19676556265E+00 -0.93502434402E+00  0.10620365167E+02  0.51100000000E-03 0. -1.
        -11    1    3    3    0    0 -0.17430799755E+02  0.36500717969E+02  0.11210643096E+02  0.41973964683E+02  0.51100000000E-03 0.  1.
         12    1    3    3    0    0  0.61906294626E+01 -0.35362149526E+02 -0.10533680542E+02  0.37413419223E+02  0.00000000000E+00 0. -1.
</event>
<event>
 7    1  0.2294706E-015  0.9000780E+02  0.7816164E-02  0.1186339E+00
        -11   -1    0    0    0    0  0.00000000000E+00  0.00000000000E+00  0.45593999997E+02  0.45594000000E+02  0.51100000000E-03 0. -1.
         11   -1    0    0    0    0 -0.00000000000E+00 -0.00000000000E+00 -0.45593999997E+02  0.45594000000E+02  0.51100000000E-03 0.  1.
    9900012    2    1    2    0    0  0.10364105136E+01 -0.37019136757E+00 -0.42625041939E+00  0.90007797551E+02  0.90000059678E+02 0.  0.
        -12    1    1    2    0    0 -0.10364105136E+01  0.37019136757E+00  0.42625041939E+00  0.11802024493E+01  0.00000000000E+00 0.  1.
         11    1    3    3    0    0 -0.31152531323E+02 -0.22991079810E+02  0.54642466635E+01  0.39101508290E+02  0.51100000000E-03 0. -1.
        -11    1    3    3    0    0 -0.82686265061E+00  0.17183188291E+01  0.89168802039E+01  0.91185017560E+01  0.51100000000E-03 0.  1.
        -12    1    3    3    0    0  0.33015804488E+02  0.20902569614E+02 -0.14807377287E+02  0.41787787505E+02  0.00000000000E+00 0.  1.
</event>
<event>
 7    1  0.2294706E-015  0.9000775E+02  0.7816164E-02  0.1186339E+00
        -11   -1    0    0    0    0  0.00000000000E+00  0.00000000000E+00  0.45593999997E+02  0.45594000000E+02  0.51100000000E-03 0.  1.
         11   -1    0    0    0    0 -0.00000000000E+00 -0.00000000000E+00 -0.45593999997E+02  0.45594000000E+02  0.51100000000E-03 0. -1.
    9900012    2    1    2    0    0 -0.47792651612E+00  0.93991884386E+00 -0.53022295046E+00  0.90007746822E+02  0.90000008280E+02 0.  0.
        -12    1    1    2    0    0  0.47792651612E+00 -0.93991884386E+00  0.53022295046E+00  0.11802531784E+01  0.00000000000E+00 0.  1.
         11    1    3    3    0    0  0.27662520635E+00 -0.11220543667E+01  0.75784070424E+01  0.76660146796E+01  0.51100000000E-03 0. -1.
        -11    1    3    3    0    0  0.15830722069E+02  0.27142989328E+02  0.23103857893E+02  0.39001818941E+02  0.51100000000E-03 0.  1.
         12    1    3    3    0    0 -0.16585273792E+02 -0.25081016117E+02 -0.31212487886E+02  0.43339913201E+02  0.00000000000E+00 0. -1.
</event>
<event>
 7    1  0.2294706E-015  0.9000747E+02  0.7816164E-02  0.1186340E+00
        -11   -1    0    0    0    0  0.00000000000E+00  0.00000000000E+00  0.45593999997E+02  0.45594000000E+02  0.51100000000E-03 0.  1.
         11   -1    0    0    0    0 -0.00000000000E+00 -0.00000000000E+00 -0.45593999997E+02  0.45594000000E+02  0.51100000000E-03 0. -1.
    9900012    2    1    2    0    0 -0.48387962105E-01 -0.99353552705E+00 -0.63576522426E+00  0.90007469755E+02  0.89999727556E+02 0.  0.
        -12    1    1    2    0    0  0.48387962105E-01  0.99353552705E+00  0.63576522426E+00  0.11805302448E+01  0.00000000000E+00 0.  1.
         11    1    3    3    0    0 -0.53960306851E+01  0.37403132199E+02  0.21947960542E+01  0.37854043052E+02  0.51100000000E-03 0. -1.
        -11    1    3    3    0    0  0.34254104021E+01  0.31142275251E+01  0.79703838312E+01  0.92173135011E+01  0.51100000000E-03 0.  1.
        -12    1    3    3    0    0  0.19222323209E+01 -0.41510895251E+02 -0.10800945110E+02  0.42936113202E+02  0.00000000000E+00 0.  1.
</event>
<event>
 7    1  0.2294706E-015  0.9000773E+02  0.7816164E-02  0.1186339E+00
        -11   -1    0    0    0    0  0.00000000000E+00  0.00000000000E+00  0.45593999997E+02  0.45594000000E+02  0.51100000000E-03 0.  1.
         11   -1    0    0    0    0 -0.00000000000E+00 -0.00000000000E+00 -0.45593999997E+02  0.45594000000E+02  0.51100000000E-03 0. -1.
    9900012    2    1    2    0    0 -0.80059252151E+00  0.82898813641E+00  0.25467277165E+00  0.90007733955E+02  0.89999995243E+02 0.  0.
        -12    1    1    2    0    0  0.80059252151E+00 -0.82898813641E+00 -0.25467277165E+00  0.11802660448E+01  0.00000000000E+00 0.  1.
         11    1    3    3    0    0  0.20943276259E+01 -0.62328627215E+01 -0.39916710292E+02  0.40454648024E+02  0.51100000000E-03 0. -1.
        -11    1    3    3    0    0  0.95048735449E+00 -0.84243220731E+01  0.28172250247E+01  0.89336098921E+01  0.51100000000E-03 0.  1.
        -12    1    3    3    0    0 -0.38454075019E+01  0.15486172931E+02  0.37354158039E+02  0.40619476039E+02  0.00000000000E+00 0.  1.
</event>
<event>
 7    1  0.2294706E-015  0.9000771E+02  0.7816164E-02  0.1186339E+00
        -11   -1    0    0    0    0  0.00000000000E+00  0.00000000000E+00  0.45593999997E+02  0.45594000000E+02  0.51100000000E-03 0.  1.
         11   -1    0    0    0    0 -0.00000000000E+00 -0.00000000000E+00 -0.45593999997E+02  0.45594000000E+02  0.51100000000E-03 0. -1.
    9900012    2    1    2    0    0  0.90260313009E+00 -0.81224763363E-01 -0.75617243449E+00  0.90007709094E+02  0.89999970054E+02 0.  0.
        -12    1    1    2    0    0 -0.90260313009E+00  0.81224763363E-01  0.75617243449E+00  0.11802909062E+01  0.00000000000E+00 0.  1.
         11    1    3    3    0    0 -0.16783317696E+01 -0.40679083270E+01 -0.89885621703E+01  0.10007943137E+02  0.51100000000E-03 0. -1.
        -11    1    3    3    0    0  0.17917428599E+02  0.31577630481E+02 -0.16517165434E+02  0.39887313129E+02  0.51100000000E-03 0.  1.
         12    1    3    3    0    0 -0.15336493700E+02 -0.27590946917E+02  0.24749555170E+02  0.40112452828E+02  0.00000000000E+00 0. -1.
</event>
<event>
 7    1  0.2294706E-015  0.9000782E+02  0.7816164E-02  0.1186339E+00
        -11   -1    0    0    0    0  0.00000000000E+00  0.00000000000E+00  0.45593999997E+02  0.45594000000E+02  0.51100000000E-03 0. -1.
         11   -1    0    0    0    0 -0.00000000000E+00 -0.00000000000E+00 -0.45593999997E+02  0.45594000000E+02  0.51100000000E-03 0.  1.
    9900012    2    1    2    0    0  0.56186170119E+00 -0.10083436730E+01 -0.24569942866E+00  0.90007824698E+02  0.90000087184E+02 0.  0.
        -12    1    1    2    0    0 -0.56186170119E+00  0.10083436730E+01  0.24569942866E+00  0.11801753019E+01  0.00000000000E+00 0.  1.
         11    1    3    3    0    0 -0.28689555216E+02 -0.12371339136E+02  0.22527253159E+02  0.38517758835E+02  0.51100000000E-03 0. -1.
        -11    1    3    3    0    0  0.19493846408E+01 -0.88610549956E+01  0.21844406150E+01  0.93322118051E+01  0.51100000000E-03 0.  1.
        -12    1    3    3    0    0  0.27302032276E+02  0.20224050459E+02 -0.24957393203E+02  0.42157854058E+02  0.00000000000E+00 0.  1.
</event>
<event>
 7    1  0.2294706E-015  0.9000772E+02  0.7816164E-02  0.1186339E+00
        -11   -1    0    0    0    0  0.00000000000E+00  0.00000000000E+00  0.45593999997E+02  0.45594000000E+02  0.51100000000E-03 0.  1.
         11   -1    0    0    0    0 -0.00000000000E+00 -0.00000000000E+00 -0.45593999997E+02  0.45594000000E+02  0.51100000000E-03 0. -1.
    9900012    2    1    2    0    0 -0.11800610283E+01  0.20819891345E-01  0.96961902583E-02  0.90007715494E+02  0.89999976539E+02 0.  0.
        -12    1    1    2    0    0  0.11800610283E+01 -0.20819891345E-01 -0.96961902583E-02  0.11802845058E+01  0.00000000000E+00 0.  1.
         11    1    3    3    0    0  0.59091929097E+01  0.58556408628E+01  0.33635725153E+01  0.89733333319E+01  0.51100000000E-03 0. -1.
        -11    1    3    3    0    0 -0.11300670843E+02 -0.20998654089E+02  0.33407909880E+02  0.41045548819E+02  0.51100000000E-03 0.  1.
         12    1    3    3    0    0  0.42114169049E+01  0.15163833118E+02 -0.36761786205E+02  0.39988833343E+02  0.00000000000E+00 0. -1.
</event>
<event>
 7    1  0.2294706E-015  0.9000770E+02  0.7816164E-02  0.1186339E+00
        -11   -1    0    0    0    0  0.00000000000E+00  0.00000000000E+00  0.45593999997E+02  0.45594000000E+02  0.51100000000E-03 0. -1.
         11   -1    0    0    0    0 -0.00000000000E+00 -0.00000000000E+00 -0.45593999997E+02  0.45594000000E+02  0.51100000000E-03 0.  1.
    9900012    2    1    2    0    0 -0.40965327384E+00 -0.71529371388E+00 -0.84477137842E+00  0.90007703603E+02  0.89999964491E+02 0.  0.
        -12    1    1    2    0    0  0.40965327384E+00  0.71529371388E+00  0.84477137842E+00  0.11802963965E+01  0.00000000000E+00 0.  1.
         11    1    3    3    0    0  0.17982951398E+01 -0.81317305179E+01 -0.49460368001E+01  0.96861853645E+01  0.51100000000E-03 0. -1.
        -11    1    3    3    0    0  0.18956439596E+02 -0.31004767527E+02  0.11870103022E+01  0.36360022075E+02  0.51100000000E-03 0.  1.
         12    1    3    3    0    0 -0.21164388010E+02  0.38421204331E+02  0.29142551195E+01  0.43961496164E+02  0.00000000000E+00 0. -1.
</event>
<event>
 7    1  0.2294706E-015  0.9000776E+02  0.7816164E-02  0.1186339E+00
        -11   -1    0    0    0    0  0.00000000000E+00  0.00000000000E+00  0.45593999997E+02  0.45594000000E+02  0.51100000000E-03 0.  1.
         11   -1    0    0    0    0 -0.00000000000E+00 -0.00000000000E+00 -0.45593999997E+02  0.45594000000E+02  0.51100000000E-03 0. -1.
    9900012    2    1    2    0    0  0.69998840433E+00 -0.74407863350E+00 -0.59103644985E+00  0.90007762370E+02  0.90000024033E+02 0.  0.
        -12    1    1    2    0    0 -0.69998840433E+00  0.74407863350E+00  0.59103644985E+00  0.11802376303E+01  0.00000000000E+00 0.  1.
         11    1    3    3    0    0 -0.54693749805E+01 -0.18179674656E+02 -0.14945206746E+02  0.24161412173E+02  0.51100000000E-03 0. -1.
        -11    1    3    3    0    0  0.14365634973E+02 -0.77441376783E+01 -0.17828336336E+02  0.24170078886E+02  0.51100000000E-03 0.  1.
        -12    1    3    3    0    0 -0.81962715880E+01  0.25179733701E+02  0.32182506633E+02  0.41676271311E+02  0.00000000000E+00 0.  1.
</event>
<event>
 7    1  0.2294706E-015  0.9000783E+02  0.7816164E-02  0.1186339E+00
        -11   -1    0    0    0    0  0.00000000000E+00  0.00000000000E+00  0.45593999997E+02  0.45594000000E+02  0.51100000000E-03 0. -1.
         11   -1    0    0    0    0 -0.00000000000E+00 -0.00000000000E+00 -0.45593999997E+02  0.45594000000E+02  0.51100000000E-03 0.  1.
    9900012    2    1    2    0    0 -0.89433464929E+00 -0.13958686544E+00  0.75729182775E+00  0.90007826339E+02  0.90000088847E+02 0.  0.
        -12    1    1    2    0    0  0.89433464929E+00  0.13958686544E+00 -0.75729182775E+00  0.11801736611E+01  0.00000000000E+00 0.  1.
         11    1    3    3    0    0  0.75686038833E+01 -0.49244371052E+01  0.10590877197E+02  0.13917633621E+02  0.51100000000E-03 0. -1.
        -11    1    3    3    0    0  0.42260051167E+01 -0.18537458938E+02 -0.34793378468E+02  0.39649409688E+02  0.51100000000E-03 0.  1.
         12    1    3    3    0    0 -0.12688943649E+02  0.23322309178E+02  0.24959793099E+02  0.36440783030E+02  0.00000000000E+00 0. -1.
</event>
<event>
 7    1  0.2294706E-015  0.9000784E+02  0.7816164E-02  0.1186339E+00
        -11   -1    0    0    0    0  0.00000000000E+00  0.00000000000E+00  0.45593999997E+02  0.45594000000E+02  0.51100000000E-03 0.  1.
         11   -1    0    0    0    0 -0.00000000000E+00 -0.00000000000E+00 -0.45593999997E+02  0.45594000000E+02  0.51100000000E-03 0. -1.
    9900012    2    1    2    0    0 -0.20785598449E+00 -0.69473757233E+00 -0.93107570038E+00  0.90007844771E+02  0.90000107522E+02 0.  0.
        -12    1    1    2    0    0  0.20785598449E+00  0.69473757233E+00  0.93107570038E+00  0.11801552290E+01  0.00000000000E+00 0.  1.
         11    1    3    3    0    0  0.49361390348E+01  0.14526498460E+02  0.14123885333E+02  0.20853507217E+02  0.51100000000E-03 0. -1.
        -11    1    3    3    0    0 -0.64955025531E+01  0.24620487492E+02 -0.14466229965E+02  0.29285350731E+02  0.51100000000E-03 0.  1.
         12    1    3    3    0    0  0.13515075338E+01 -0.39841723525E+02 -0.58873106906E+00  0.39868986823E+02  0.00000000000E+00 0. -1.
</event>
<event>
 7    1  0.2294706E-015  0.9000775E+02  0.7816164E-02  0.1186339E+00
        -11   -1    0    0    0    0  0.00000000000E+00  0.00000000000E+00  0.45593999997E+02  0.45594000000E+02  0.51100000000E-03 0. -1.
         11   -1    0    0    0    0 -0.00000000000E+00 -0.00000000000E+00 -0.45593999997E+02  0.45594000000E+02  0.51100000000E-03 0.  1.
    9900012    2    1    2    0    0 -0.10730419906E+01 -0.22761700764E+00  0.43560623173E+00  0.90007753668E+02  0.90000015216E+02 0.  0.
        -12    1    1    2    0    0  0.10730419906E+01  0.22761700764E+00 -0.43560623173E+00  0.11802463323E+01  0.00000000000E+00 0.  1.
         11    1    3    3    0    0 -0.52478414349E+01 -0.43772389643E+01 -0.67653385611E+01  0.96161253520E+01  0.51100000000E-03 0. -1.
        -11    1    3    3    0    0  0.57039102650E+00 -0.10595999736E+02 -0.34457134340E+02  0.36054051971E+02  0.51100000000E-03 0.  1.
         12    1    3    3    0    0  0.36044084178E+01  0.14745621693E+02  0.41658079132E+02  0.44337576345E+02  0.00000000000E+00 0. -1.
</event>
<event>
 7    1  0.2294706E-015  0.9000764E+02  0.7816164E-02  0.1186339E+00
        -11   -1    0    0    0    0  0.00000000000E+00  0.00000000000E+00  0.45593999997E+02  0.45594000000E+02  0.51100000000E-03 0.  1.
         11   -1    0    0    0    0 -0.00000000000E+00 -0.00000000000E+00 -0.45593999997E+02  0.45594000000E+02  0.51100000000E-03 0. -1.
    9900012    2    1    2    0    0  0.92772202785E+00 -0.64949554902E+00 -0.33278223613E+00  0.90007637070E+02  0.89999897080E+02 0.  0.
        -12    1    1    2    0    0 -0.92772202785E+00  0.64949554902E+00  0.33278223613E+00  0.11803629297E+01  0.00000000000E+00 0.  1.
         11    1    3    3    0    0  0.46919361835E+01  0.60508462167E+00 -0.57653503836E+01  0.74578587984E+01  0.51100000000E-03 0. -1.
        -11    1    3    3    0    0  0.22013281203E+02 -0.25933444507E+02 -0.19319053382E+02  0.39119738204E+02  0.51100000000E-03 0.  1.
         12    1    3    3    0    0 -0.25777495359E+02  0.24678864337E+02  0.24751621529E+02  0.43430040067E+02  0.00000000000E+00 0. -1.
</event>
<event>
 7    1  0.2294706E-015  0.9000773E+02  0.7816164E-02  0.1186339E+00
        -11   -1    0    0    0    0  0.00000000000E+00  0.00000000000E+00  0.45593999997E+02  0.45594000000E+02  0.51100000000E-03 0.  1.
         11   -1    0    0    0    0 -0.00000000000E+00 -0.00000000000E+00 -0.45593999997E+02  0.45594000000E+02  0.51100000000E-03 0. -1.
    9900012    2    1    2    0    0 -0.11171888174E+01  0.36138001452E+00 -0.11972146052E+00  0.90007729016E+02  0.89999990239E+02 0.  0.
        -12    1    1    2    0    0  0.11171888174E+01 -0.36138001452E+00  0.11972146052E+00  0.11802709845E+01  0.00000000000E+00 0.  1.
         11    1    3    3    0    0 -0.53090647544E+01  0.70676879476E+01 -0.41070339400E+02  0.42010845745E+02  0.51100000000E-03 0. -1.
        -11    1    3    3    0    0 -0.34793890643E+00 -0.94880721503E+01  0.34217646930E+01  0.10092227132E+02  0.51100000000E-03 0.  1.
        -12    1    3    3    0    0  0.45398148434E+01  0.27817642173E+01  0.37528853247E+02  0.37904656139E+02  0.00000000000E+00 0.  1.
</event>
<event>
 7    1  0.2294706E-015  0.9000782E+02  0.7816164E-02  0.1186339E+00
        -11   -1    0    0    0    0  0.00000000000E+00  0.00000000000E+00  0.45593999997E+02  0.45594000000E+02  0.51100000000E-03 0.  1.
         11   -1    0    0    0    0 -0.00000000000E+00 -0.00000000000E+00 -0.45593999997E+02  0.45594000000E+02  0.51100000000E-03 0. -1.
    9900012    2    1    2    0    0 -0.28647160815E+00  0.12214703121E+00 -0.11383518799E+01  0.90007817437E+02  0.90000079827E+02 0.  0.
        -12    1    1    2    0    0  0.28647160815E+00 -0.12214703121E+00  0.11383518799E+01  0.11801825630E+01  0.00000000000E+00 0.  1.
         11    1    3    3    0    0 -0.13750561760E+01 -0.31424461041E+01 -0.36641129135E+02  0.36801332742E+02  0.51100000000E-03 0. -1.
        -11    1    3    3    0    0  0.55299436903E+01  0.45563305062E+00 -0.78076104707E+01  0.95784476935E+01  0.51100000000E-03 0.  1.
        -12    1    3    3    0    0 -0.44413591225E+01  0.28089600847E+01  0.43310387726E+02  0.43628037002E+02  0.00000000000E+00 0.  1.
</event>
<event>
 7    1  0.2294706E-015  0.9000775E+02  0.7816164E-02  0.1186339E+00
        -11   -1    0    0    0    0  0.00000000000E+00  0.00000000000E+00  0.45593999997E+02  0.45594000000E+02  0.51100000000E-03 0.  1.
         11   -1    0    0    0    0 -0.00000000000E+00 -0.00000000000E+00 -0.45593999997E+02  0.45594000000E+02  0.51100000000E-03 0. -1.
    9900012    2    1    2    0    0 -0.40166729911E+00  0.10631142628E+01 -0.31848858950E+00  0.90007752765E+02  0.90000014301E+02 0.  0.
        -12    1    1    2    0    0  0.40166729911E+00 -0.10631142628E+01  0.31848858950E+00  0.11802472354E+01  0.00000000000E+00 0.  1.
         11    1    3    3    0    0 -0.69642076838E+01  0.11342007965E+02 -0.38773606659E+00  0.13315091920E+02  0.51100000000E-03 0. -1.
        -11    1    3    3    0    0 -0.11990776520E+02 -0.38795206606E+02  0.88454161807E+01  0.41558250262E+02  0.51100000000E-03 0.  1.
         12    1    3    3    0    0  0.18553316905E+02  0.28516312904E+02 -0.87761687036E+01  0.35134410582E+02  0.00000000000E+00 0. -1.
</event>
<event>
 7    1  0.2294706E-015  0.9000769E+02  0.7816164E-02  0.1186339E+00
        -11   -1    0    0    0    0  0.00000000000E+00  0.00000000000E+00  0.45593999997E+02  0.45594000000E+02  0.51100000000E-03 0.  1.
         11   -1    0    0    0    0 -0.00000000000E+00 -0.00000000000E+00 -0.45593999997E+02  0.45594000000E+02  0.51100000000E-03 0. -1.
    9900012    2    1    2    0    0 -0.26214945227E+00 -0.11247428527E+01 -0.24365736369E+00  0.90007687444E+02  0.89999948118E+02 0.  0.
        -12    1    1    2    0    0  0.26214945227E+00  0.11247428527E+01  0.24365736369E+00  0.11803125565E+01  0.00000000000E+00 0.  1.
         11    1    3    3    0    0 -0.31068721877E+02  0.87191038013E+00 -0.20469204673E+02  0.37215776856E+02  0.51100000000E-03 0. -1.
        -11    1    3    3    0    0 -0.85668068552E+01  0.29275691566E+01  0.30386711686E+01  0.95495740006E+01  0.51100000000E-03 0.  1.
        -12    1    3    3    0    0  0.39373379280E+02 -0.49242223894E+01  0.17186876141E+02  0.43242336587E+02  0.00000000000E+00 0.  1.
</event>
<event>
 7    1  0.2294706E-015  0.9000764E+02  0.7816164E-02  0.1186339E+00
        -11   -1    0    0    0    0  0.00000000000E+00  0.00000000000E+00  0.45593999997E+02  0.45594000000E+02  0.51100000000E-03 0.  1.
         11   -1    0    0    0    0 -0.00000000000E+00 -0.00000000000E+00 -0.45593999997E+02  0.45594000000E+02  0.51100000000E-03 0. -1.
    9900012    2    1    2    0    0 -0.51163301575E+00 -0.10204177472E+01  0.30039837062E+00  0.90007635691E+02  0.89999895682E+02 0.  0.
        -12    1    1    2    0    0  0.51163301575E+00  0.10204177472E+01 -0.30039837062E+00  0.11803643093E+01  0.00000000000E+00 0.  1.
         11    1    3    3    0    0 -0.47579148049E+01 -0.68796385143E+01  0.76808745534E+01  0.11356188337E+02  0.51100000000E-03 0. -1.
        -11    1    3    3    0    0 -0.13385267158E+02 -0.25956985692E+02 -0.24805961421E+02  0.38317961916E+02  0.51100000000E-03 0.  1.
         12    1    3    3    0    0  0.17631548948E+02  0.31816206459E+02  0.17425485239E+02  0.40333485437E+02  0.00000000000E+00 0. -1.
</event>
<event>
 7    1  0.2294706E-015  0.9000762E+02  0.7816164E-02  0.1186339E+00
        -11   -1    0    0    0    0  0.00000000000E+00  0.00000000000E+00  0.45593999997E+02  0.45594000000E+02  0.51100000000E-03 0. -1.
         11   -1    0    0    0    0 -0.00000000000E+00 -0.00000000000E+00 -0.45593999997E+02  0.45594000000E+02  0.51100000000E-03 0.  1.
    9900012    2    1    2    0    0 -0.11188842900E+01 -0.21637153942E+00  0.30752054182E+00  0.90007623966E+02  0.89999883803E+02 0.  0.
        -12    1    1    2    0    0  0.11188842900E+01  0.21637153942E+00 -0.30752054182E+00  0.11803760337E+01  0.00000000000E+00 0.  1.
         11    1    3    3    0    0 -0.78789015214E+00  0.76341938946E+01 -0.32989808186E+01  0.83537394031E+01  0.51100000000E-03 0. -1.
        -11    1    3    3    0    0 -0.21117390335E+02  0.29221209014E+02 -0.93047126159E+01  0.37234404896E+02  0.51100000000E-03 0.  1.
         12    1    3    3    0    0  0.20786396197E+02 -0.37071774448E+02  0.12911213976E+02  0.44419479668E+02  0.00000000000E+00 0. -1.
</event>
<event>
 7    1  0.2294706E-015  0.9000826E+02  0.7816164E-02  0.1186338E+00
        -11   -1    0    0    0    0  0.00000000000E+00  0.00000000000E+00  0.45593999997E+02  0.45594000000E+02  0.51100000000E-03 0.  1.
         11   -1    0    0    0    0 -0.00000000000E+00 -0.00000000000E+00 -0.45593999997E+02  0.45594000000E+02  0.51100000000E-03 0. -1.
    9900012    2    1    2    0    0 -0.94121986014E+00  0.59819150260E+00  0.38477901767E+00  0.90008261558E+02  0.90000529809E+02 0.  0.
        -12    1    1    2    0    0  0.94121986014E+00 -0.59819150260E+00 -0.38477901767E+00  0.11797384419E+01  0.00000000000E+00 0.  1.
         11    1    3    3    0    0  0.49174982926E+01  0.60004514541E+01 -0.37367411459E+01  0.86110650772E+01  0.51100000000E-03 0. -1.
        -11    1    3    3    0    0  0.35925304901E+02  0.11963948204E+01  0.12907729621E+02  0.38192517291E+02  0.51100000000E-03 0.  1.
         12    1    3    3    0    0 -0.41784023053E+02 -0.65986547720E+01 -0.87862094572E+01  0.43204679190E+02  0.00000000000E+00 0. -1.
</event>
<event>
 7    1  0.2294706E-015  0.9000783E+02  0.7816164E-02  0.1186339E+00
        -11   -1    0    0    0    0  0.00000000000E+00  0.00000000000E+00  0.45593999997E+02  0.45594000000E+02  0.51100000000E-03 0.  1.
         11   -1    0    0    0    0 -0.00000000000E+00 -0.00000000000E+00 -0.45593999997E+02  0.45594000000E+02  0.51100000000E-03 0. -1.
    9900012    2    1    2    0    0 -0.49371656928E-01  0.42103500745E+00 -0.11014086548E+01  0.90007826681E+02  0.90000089193E+02 0.  0.
        -12    1    1    2    0    0  0.49371656928E-01 -0.42103500745E+00  0.11014086548E+01  0.11801733190E+01  0.00000000000E+00 0.  1.
         11    1    3    3    0    0 -0.11407708626E+02  0.36225669606E+02 -0.99121225721E+01  0.39251562118E+02  0.51100000000E-03 0. -1.
        -11    1    3    3    0    0  0.64303369606E+01  0.48735937368E+01  0.52500108919E+01  0.96262019491E+01  0.51100000000E-03 0.  1.
        -12    1    3    3    0    0  0.49280000083E+01 -0.40678228336E+02  0.35607030254E+01  0.41130062614E+02  0.00000000000E+00 0.  1.
</event>
<event>
 7    1  0.2294706E-015  0.9000773E+02  0.7816164E-02  0.1186339E+00
        -11   -1    0    0    0    0  0.00000000000E+00  0.00000000000E+00  0.45593999997E+02  0.45594000000E+02  0.51100000000E-03 0. -1.
         11   -1    0    0    0    0 -0.00000000000E+00 -0.00000000000E+00 -0.45593999997E+02  0.45594000000E+02  0.51100000000E-03 0.  1.
    9900012    2    1    2    0    0 -0.25659496546E-01  0.11643548672E+01  0.19145779906E+00  0.90007730219E+02  0.89999991458E+02 0.  0.
        -12    1    1    2    0    0  0.25659496546E-01 -0.11643548672E+01 -0.19145779906E+00  0.11802697808E+01  0.00000000000E+00 0.  1.
         11    1    3    3    0    0  0.57988864076E+01  0.48439574130E+01  0.59360389244E+01  0.96087233990E+01  0.51100000000E-03 0. -1.
        -11    1    3    3    0    0  0.35428270854E+02  0.77536151791E+00  0.86556339804E+01  0.36478535621E+02  0.51100000000E-03 0.  1.
         12    1    3    3    0    0 -0.41252816758E+02 -0.44549640636E+01 -0.14400215106E+02  0.43920471199E+02  0.00000000000E+00 0. -1.
</event>
<event>
 7    1  0.2294706E-015  0.9000774E+02  0.7816164E-02  0.1186339E+00
        -11   -1    0    0    0    0  0.00000000000E+00  0.00000000000E+00  0.45593999997E+02  0.45594000000E+02  0.51100000000E-03 0.  1.
         11   -1    0    0    0    0 -0.00000000000E+00 -0.00000000000E+00 -0.45593999997E+02  0.45594000000E+02  0.51100000000E-03 0. -1.
    9900012    2    1    2    0    0  0.11240612994E+01 -0.31991044185E+00 -0.16479850097E+00  0.90007739418E+02  0.90000000778E+02 0.  0.
        -12    1    1    2    0    0 -0.11240612994E+01  0.31991044185E+00  0.16479850097E+00  0.11802605820E+01  0.00000000000E+00 0.  1.
         11    1    3    3    0    0 -0.37853697171E+01  0.48635648705E+01 -0.10077243079E+02  0.11812455946E+02  0.51100000000E-03 0. -1.
        -11    1    3    3    0    0  0.39096097313E+02  0.75701199854E-01  0.17419329730E+02  0.42801210313E+02  0.51100000000E-03 0.  1.
         12    1    3    3    0    0 -0.34186666296E+02 -0.52591765122E+01 -0.75068851521E+01  0.35394073158E+02  0.00000000000E+00 0. -1.
</event>
<event>
 7    1  0.2294706E-015  0.9000786E+02  0.7816164E-02  0.1186339E+00
        -11   -1    0    0    0    0  0.00000000000E+00  0.00000000000E+00  0.45593999997E+02  0.45594000000E+02  0.51100000000E-03 0.  1.
         11   -1    0    0    0    0 -0.00000000000E+00 -0.00000000000E+00 -0.45593999997E+02  0.45594000000E+02  0.51100000000E-03 0. -1.
    9900012    2    1    2    0    0 -0.17105034236E+00 -0.11666224638E+01 -0.49745314845E-01  0.90007855607E+02  0.90000118501E+02 0.  0.
        -12    1    1    2    0    0  0.17105034236E+00  0.11666224638E+01  0.49745314845E-01  0.11801443933E+01  0.00000000000E+00 0.  1.
         11    1    3    3    0    0 -0.39980672131E+02  0.51423433545E+01 -0.11420396787E+01  0.40326196128E+02  0.51100000000E-03 0. -1.
        -11    1    3    3    0    0  0.11409547710E+01 -0.59020816538E+01 -0.79508431042E+01  0.99675599806E+01  0.51100000000E-03 0.  1.
        -12    1    3    3    0    0  0.38668667018E+02 -0.40688416450E+00  0.90431374681E+01  0.39714099498E+02  0.00000000000E+00 0.  1.
</event>
<event>
 7    1  0.2294706E-015  0.9000762E+02  0.7816164E-02  0.1186339E+00
        -11   -1    0    0    0    0  0.00000000000E+00  0.00000000000E+00  0.45593999997E+02  0.45594000000E+02  0.51100000000E-03 0. -1.
         11   -1    0    0    0    0 -0.00000000000E+00 -0.00000000000E+00 -0.45593999997E+02  0.45594000000E+02  0.51100000000E-03 0.  1.
    9900012    2    1    2    0    0  0.38616248912E+00  0.66410654814E+00  0.89618138855E+00  0.90007618682E+02  0.89999878448E+02 0.  0.
        -12    1    1    2    0    0 -0.38616248912E+00 -0.66410654814E+00 -0.89618138855E+00  0.11803813182E+01  0.00000000000E+00 0.  1.
         11    1    3    3    0    0 -0.85674898832E+01  0.16267818833E+02 -0.29347534942E+02  0.34631223194E+02  0.51100000000E-03 0. -1.
        -11    1    3    3    0    0  0.31895781284E+01 -0.50964919248E+01 -0.10940623360E+02  0.12483784617E+02  0.51100000000E-03 0.  1.
         12    1    3    3    0    0  0.57640742438E+01 -0.10507220360E+02  0.41184339691E+02  0.42892610871E+02  0.00000000000E+00 0. -1.
</event>
<event>
 7    1  0.2294706E-015  0.9000766E+02  0.7816164E-02  0.1186339E+00
        -11   -1    0    0    0    0  0.00000000000E+00  0.00000000000E+00  0.45593999997E+02  0.45594000000E+02  0.51100000000E-03 0.  1.
         11   -1    0    0    0    0 -0.00000000000E+00 -0.00000000000E+00 -0.45593999997E+02  0.45594000000E+02  0.51100000000E-03 0. -1.
    9900012    2    1    2    0    0  0.36713722128E+00 -0.73791015557E+00 -0.84492871765E+00  0.90007658662E+02  0.89999918956E+02 0.  0.
        -12    1    1    2    0    0 -0.36713722128E+00  0.73791015557E+00  0.84492871765E+00  0.11803413383E+01  0.00000000000E+00 0.  1.
         11    1    3    3    0    0 -0.13824407368E+02 -0.51960881837E+01 -0.36086644161E+02  0.38991787065E+02  0.51100000000E-03 0. -1.
        -11    1    3    3    0    0  0.15122772885E+02 -0.26694095529E+01  0.31776654925E+00  0.15359849704E+02  0.51100000000E-03 0.  1.
        -12    1    3    3    0    0 -0.93122829545E+00  0.71275875811E+01  0.34923948894E+02  0.35656021892E+02  0.00000000000E+00 0.  1.
</event>
<event>
 7    1  0.2294706E-015  0.9000784E+02  0.7816164E-02  0.1186339E+00
        -11   -1    0    0    0    0  0.00000000000E+00  0.00000000000E+00  0.45593999997E+02  0.45594000000E+02  0.51100000000E-03 0.  1.
         11   -1    0    0    0    0 -0.00000000000E+00 -0.00000000000E+00 -0.45593999997E+02  0.45594000000E+02  0.51100000000E-03 0. -1.
    9900012    2    1    2    0    0  0.63133114440E+00  0.88598542996E+00 -0.45741779040E+00  0.90007838896E+02  0.90000101570E+02 0.  0.
        -12    1    1    2    0    0 -0.63133114440E+00 -0.88598542996E+00  0.45741779040E+00  0.11801611038E+01  0.00000000000E+00 0.  1.
         11    1    3    3    0    0  0.23087272781E+02 -0.11243010725E+02 -0.28123318212E+02  0.38083441049E+02  0.51100000000E-03 0. -1.
        -11    1    3    3    0    0 -0.31573770408E+01 -0.46955533083E+01 -0.68910287899E+01  0.89164751272E+01  0.51100000000E-03 0.  1.
        -12    1    3    3    0    0 -0.19298564596E+02  0.16824549464E+02  0.34556929212E+02  0.43007922720E+02  0.00000000000E+00 0.  1.
</event>
<event>
 7    1  0.2294706E-015  0.9000779E+02  0.7816164E-02  0.1186339E+00
        -11   -1    0    0    0    0  0.00000000000E+00  0.00000000000E+00  0.45593999997E+02  0.45594000000E+02  0.51100000000E-03 0. -1.
         11   -1    0    0    0    0 -0.00000000000E+00 -0.00000000000E+00 -0.45593999997E+02  0.45594000000E+02  0.51100000000E-03 0.  1.
    9900012    2    1    2    0    0 -0.14117349504E+00 -0.11712851607E+01  0.32648530207E-01  0.90007786117E+02  0.90000048094E+02 0.  0.
        -12    1    1    2    0    0  0.14117349504E+00  0.11712851607E+01 -0.32648530207E-01  0.11802138831E+01  0.00000000000E+00 0.  1.
         11    1    3    3    0    0  0.81721275301E+01  0.34355152163E+02 -0.10200476870E+02  0.36757446554E+02  0.51100000000E-03 0. -1.
        -11    1    3    3    0    0  0.10386057390E+02 -0.94212873262E+00 -0.43737011942E+01  0.11308715977E+02  0.51100000000E-03 0.  1.
        -12    1    3    3    0    0 -0.18699358415E+02 -0.34584308591E+02  0.14606826595E+02  0.41941623586E+02  0.00000000000E+00 0.  1.
</event>
<event>
 7    1  0.2294706E-015  0.9000771E+02  0.7816164E-02  0.1186339E+00
        -11   -1    0    0    0    0  0.00000000000E+00  0.00000000000E+00  0.45593999997E+02  0.45594000000E+02  0.51100000000E-03 0. -1.
         11   -1    0    0    0    0 -0.00000000000E+00 -0.00000000000E+00 -0.45593999997E+02  0.45594000000E+02  0.51100000000E-03 0.  1.
    9900012    2    1    2    0    0 -0.89921479370E+00 -0.83349345838E-01  0.75996813124E+00  0.90007709392E+02  0.89999970356E+02 0.  0.
        -12    1    1    2    0    0  0.89921479370E+00  0.83349345838E-01 -0.75996813124E+00  0.11802906079E+01  0.00000000000E+00 0.  1.
         11    1    3    3    0    0 -0.29750887275E+02 -0.32224575937E+02  0.34624388356E+01  0.43994625477E+02  0.51100000000E-03 0. -1.
        -11    1    3    3    0    0  0.69465080327E+00  0.75702143097E+01 -0.40594196793E+01  0.86179796256E+01  0.51100000000E-03 0.  1.
        -12    1    3    3    0    0  0.28157021678E+02  0.24571012281E+02  0.13569489750E+01  0.37395104289E+02  0.00000000000E+00 0.  1.
</event>
<event>
 7    1  0.2294706E-015  0.9000777E+02  0.7816164E-02  0.1186339E+00
        -11   -1    0    0    0    0  0.00000000000E+00  0.00000000000E+00  0.45593999997E+02  0.45594000000E+02  0.51100000000E-03 0. -1.
         11   -1    0    0    0    0 -0.00000000000E+00 -0.00000000000E+00 -0.45593999997E+02  0.45594000000E+02  0.51100000000E-03 0.  1.
    9900012    2    1    2    0    0  0.57624828717E+00 -0.61731427836E+00  0.82450756939E+00  0.90007766236E+02  0.90000027950E+02 0.  0.
        -12    1    1    2    0    0 -0.57624828717E+00  0.61731427836E+00 -0.82450756939E+00  0.11802337644E+01  0.00000000000E+00 0.  1.
         11    1    3    3    0    0  0.22398398420E+02  0.19570012158E+02 -0.26035088687E+02  0.39528464059E+02  0.51100000000E-03 0. -1.
        -11    1    3    3    0    0 -0.26105787942E+01  0.80448518551E+01  0.37890933989E+01  0.92677932680E+01  0.51100000000E-03 0.  1.
        -12    1    3    3    0    0 -0.19211571339E+02 -0.28232178292E+02  0.23070502858E+02  0.41211508908E+02  0.00000000000E+00 0.  1.
</event>
<event>
 7    1  0.2294706E-015  0.9000780E+02  0.7816164E-02  0.1186339E+00
        -11   -1    0    0    0    0  0.00000000000E+00  0.00000000000E+00  0.45593999997E+02  0.45594000000E+02  0.51100000000E-03 0.  1.
         11   -1    0    0    0    0 -0.00000000000E+00 -0.00000000000E+00 -0.45593999997E+02  0.45594000000E+02  0.51100000000E-03 0. -1.
    9900012    2    1    2    0    0  0.95246673731E+00 -0.62655099950E+00 -0.30515085205E+00  0.90007798287E+02  0.90000060424E+02 0.  0.
        -12    1    1    2    0    0 -0.95246673731E+00  0.62655099950E+00  0.30515085205E+00  0.11802017129E+01  0.00000000000E+00 0.  1.
         11    1    3    3    0    0  0.16745445846E+02  0.35711616652E+02 -0.18098043945E+02  0.43396644056E+02  0.51100000000E-03 0. -1.
        -11    1    3    3    0    0 -0.64464787874E+01 -0.16621399103E+02 -0.94076885011E+00  0.17852536043E+02  0.51100000000E-03 0.  1.
        -12    1    3    3    0    0 -0.93465003210E+01 -0.19716768549E+02  0.18733661943E+02  0.28758618187E+02  0.00000000000E+00 0.  1.
</event>
<event>
 7    1  0.2294706E-015  0.9000708E+02  0.7816164E-02  0.1186340E+00
        -11   -1    0    0    0    0  0.00000000000E+00  0.00000000000E+00  0.45593999997E+02  0.45594000000E+02  0.51100000000E-03 0. -1.
         11   -1    0    0    0    0 -0.00000000000E+00 -0.00000000000E+00 -0.45593999997E+02  0.45594000000E+02  0.51100000000E-03 0.  1.
    9900012    2    1    2    0    0  0.40255258208E+00 -0.11096599338E+01  0.34196685469E-01  0.90007083761E+02  0.89999336464E+02 0.  0.
        -12    1    1    2    0    0 -0.40255258208E+00  0.11096599338E+01 -0.34196685469E-01  0.11809162389E+01  0.00000000000E+00 0.  1.
         11    1    3    3    0    0 -0.57131695375E+00  0.23558462926E+02  0.30026368552E+02  0.38169495506E+02  0.51100000000E-03 0. -1.
        -11    1    3    3    0    0 -0.41353409002E+01  0.13985661238E+01  0.58039935623E+01  0.72624632940E+01  0.51100000000E-03 0.  1.
        -12    1    3    3    0    0  0.51092104361E+01 -0.26066688983E+02 -0.35796165429E+02  0.44575124961E+02  0.00000000000E+00 0.  1.
</event>
<event>
 7    1  0.2294706E-015  0.9000785E+02  0.7816164E-02  0.1186339E+00
        -11   -1    0    0    0    0  0.00000000000E+00  0.00000000000E+00  0.45593999997E+02  0.45594000000E+02  0.51100000000E-03 0. -1.
         11   -1    0    0    0    0 -0.00000000000E+00 -0.00000000000E+00 -0.45593999997E+02  0.45594000000E+02  0.51100000000E-03 0.  1.
    9900012    2    1    2    0    0  0.11853242302E+00 -0.65635299407E+00  0.97359973489E+00  0.90007853555E+02  0.90000116422E+02 0.  0.
        -12    1    1    2    0    0 -0.11853242302E+00  0.65635299407E+00 -0.97359973489E+00  0.11801464451E+01  0.00000000000E+00 0.  1.
         11    1    3    3    0    0 -0.94400555613E+01 -0.32735787011E+02 -0.26399665266E+02  0.43100913293E+02  0.51100000000E-03 0. -1.
        -11    1    3    3    0    0 -0.18950011397E+01  0.90576499933E+01 -0.13136397018E+00  0.92546912144E+01  0.51100000000E-03 0.  1.
        -12    1    3    3    0    0  0.11453589124E+02  0.23021784024E+02  0.27504628972E+02  0.37652249047E+02  0.00000000000E+00 0.  1.
</event>
<event>
 7    1  0.2294706E-015  0.9000771E+02  0.7816164E-02  0.1186339E+00
        -11   -1    0    0    0    0  0.00000000000E+00  0.00000000000E+00  0.45593999997E+02  0.45594000000E+02  0.51100000000E-03 0. -1.
         11   -1    0    0    0    0 -0.00000000000E+00 -0.00000000000E+00 -0.45593999997E+02  0.45594000000E+02  0.51100000000E-03 0.  1.
    9900012    2    1    2    0    0 -0.78925750670E+00 -0.75938797722E+00 -0.43986828970E+00  0.90007711212E+02  0.89999972200E+02 0.  0.
        -12    1    1    2    0    0  0.78925750670E+00  0.75938797722E+00  0.43986828970E+00  0.11802887884E+01  0.00000000000E+00 0.  1.
         11    1    3    3    0    0 -0.23175015653E+02 -0.11477407942E+02  0.17622561661E+02  0.31294838605E+02  0.51100000000E-03 0. -1.
        -11    1    3    3    0    0 -0.46278171036E+01 -0.45420022701E+01  0.13175999017E+02  0.14685143040E+02  0.51100000000E-03 0.  1.
        -12    1    3    3    0    0  0.27013575249E+02  0.15260022235E+02 -0.31238428968E+02  0.44027729566E+02  0.00000000000E+00 0.  1.
</event>
<event>
 7    1  0.2294706E-015  0.9000766E+02  0.7816164E-02  0.1186339E+00
        -11   -1    0    0    0    0  0.00000000000E+00  0.00000000000E+00  0.45593999997E+02  0.45594000000E+02  0.51100000000E-03 0.  1.
         11   -1    0    0    0    0 -0.00000000000E+00 -0.00000000000E+00 -0.45593999997E+02  0.45594000000E+02  0.51100000000E-03 0. -1.
    9900012    2    1    2    0    0  0.18344657291E+00  0.85204241502E+00 -0.79596788815E+00  0.90007663692E+02  0.89999924052E+02 0.  0.
        -12    1    1    2    0    0 -0.18344657291E+00 -0.85204241502E+00  0.79596788815E+00  0.11803363085E+01  0.00000000000E+00 0.  1.
         11    1    3    3    0    0 -0.11155844601E+02 -0.31128670269E+02 -0.18354652296E+02  0.37819839273E+02  0.51100000000E-03 0. -1.
        -11    1    3    3    0    0 -0.82837555726E+00 -0.75373939872E+01  0.10077237727E+01  0.76494458391E+01  0.51100000000E-03 0.  1.
        -12    1    3    3    0    0  0.12167666731E+02  0.39518106671E+02  0.16550960635E+02  0.44538378580E+02  0.00000000000E+00 0.  1.
</event>
<event>
 7    1  0.2294706E-015  0.9000772E+02  0.7816164E-02  0.1186339E+00
        -11   -1    0    0    0    0  0.00000000000E+00  0.00000000000E+00  0.45593999997E+02  0.45594000000E+02  0.51100000000E-03 0.  1.
         11   -1    0    0    0    0 -0.00000000000E+00 -0.00000000000E+00 -0.45593999997E+02  0.45594000000E+02  0.51100000000E-03 0. -1.
    9900012    2    1    2    0    0 -0.79267321900E+00  0.47028676927E+00 -0.73727195148E+00  0.90007715963E+02  0.89999977014E+02 0.  0.
        -12    1    1    2    0    0  0.79267321900E+00 -0.47028676927E+00  0.73727195148E+00  0.11802840370E+01  0.00000000000E+00 0.  1.
         11    1    3    3    0    0  0.55048938096E+00 -0.84807993778E+01 -0.17265344218E+01  0.86722498820E+01  0.51100000000E-03 0. -1.
        -11    1    3    3    0    0  0.21175343867E+02 -0.48432256158E+01  0.33205299621E+02  0.39679263419E+02  0.51100000000E-03 0.  1.
         12    1    3    3    0    0 -0.22518506467E+02  0.13794311763E+02 -0.32216037151E+02  0.41656202662E+02  0.00000000000E+00 0. -1.
</event>
<event>
 7    1  0.2294706E-015  0.9000766E+02  0.7816164E-02  0.1186339E+00
        -11   -1    0    0    0    0  0.00000000000E+00  0.00000000000E+00  0.45593999997E+02  0.45594000000E+02  0.51100000000E-03 0.  1.
         11   -1    0    0    0    0 -0.00000000000E+00 -0.00000000000E+00 -0.45593999997E+02  0.45594000000E+02  0.51100000000E-03 0. -1.
    9900012    2    1    2    0    0  0.68584543538E+00  0.91575074897E+00 -0.29020246618E+00  0.90007660698E+02  0.89999921020E+02 0.  0.
        -12    1    1    2    0    0 -0.68584543538E+00 -0.91575074897E+00  0.29020246618E+00  0.11803393016E+01  0.00000000000E+00 0.  1.
         11    1    3    3    0    0  0.30859227890E+02  0.17764677827E+02  0.59478503730E+01  0.36100590695E+02  0.51100000000E-03 0. -1.
        -11    1    3    3    0    0  0.18920432731E+00  0.10137317947E+02  0.56164107993E+01  0.11590732676E+02  0.51100000000E-03 0.  1.
        -12    1    3    3    0    0 -0.30362586782E+02 -0.26986245025E+02 -0.11854463638E+02  0.42316337327E+02  0.00000000000E+00 0.  1.
</event>
<event>
 7    1  0.2294706E-015  0.9000765E+02  0.7816164E-02  0.1186339E+00
        -11   -1    0    0    0    0  0.00000000000E+00  0.00000000000E+00  0.45593999997E+02  0.45594000000E+02  0.51100000000E-03 0. -1.
         11   -1    0    0    0    0 -0.00000000000E+00 -0.00000000000E+00 -0.45593999997E+02  0.45594000000E+02  0.51100000000E-03 0.  1.
    9900012    2    1    2    0    0 -0.74362007227E+00  0.79428325818E+00  0.45755842376E+00  0.90007654111E+02  0.89999914345E+02 0.  0.
        -12    1    1    2    0    0  0.74362007227E+00 -0.79428325818E+00 -0.45755842376E+00  0.11803458888E+01  0.00000000000E+00 0.  1.
         11    1    3    3    0    0 -0.85248291218E+00  0.59527860159E+01 -0.84624338255E+01  0.10381482311E+02  0.51100000000E-03 0. -1.
        -11    1    3    3    0    0 -0.26597241945E+02 -0.73564386340E+01 -0.24422135004E+02  0.36850660060E+02  0.51100000000E-03 0.  1.
         12    1    3    3    0    0  0.26706104785E+02  0.21979358763E+01  0.33342127253E+02  0.42775511740E+02  0.00000000000E+00 0. -1.
</event>
<event>
 7    1  0.2294706E-015  0.9000837E+02  0.7816164E-02  0.1186338E+00
        -11   -1    0    0    0    0  0.00000000000E+00  0.00000000000E+00  0.45593999997E+02  0.45594000000E+02  0.51100000000E-03 0. -1.
         11   -1    0    0    0    0 -0.00000000000E+00 -0.00000000000E+00 -0.45593999997E+02  0.45594000000E+02  0.51100000000E-03 0.  1.
    9900012    2    1    2    0    0 -0.72593027377E+00  0.91293322224E+00 -0.17634691739E+00  0.90008372912E+02  0.90000642632E+02 0.  0.
        -12    1    1    2    0    0  0.72593027377E+00 -0.91293322224E+00  0.17634691739E+00  0.11796270877E+01  0.00000000000E+00 0.  1.
         11    1    3    3    0    0  0.35076780230E+02 -0.48934722375E+01  0.87371462019E+01  0.36478271695E+02  0.51100000000E-03 0. -1.
        -11    1    3    3    0    0  0.26591329188E+01 -0.10541906071E+02 -0.39881524761E+00  0.10879422106E+02  0.51100000000E-03 0.  1.
        -12    1    3    3    0    0 -0.38461843423E+02  0.16348311531E+02 -0.85146778717E+01  0.42650679111E+02  0.00000000000E+00 0.  1.
</event>
<event>
 7    1  0.2294706E-015  0.9000769E+02  0.7816164E-02  0.1186339E+00
        -11   -1    0    0    0    0  0.00000000000E+00  0.00000000000E+00  0.45593999997E+02  0.45594000000E+02  0.51100000000E-03 0. -1.
         11   -1    0    0    0    0 -0.00000000000E+00 -0.00000000000E+00 -0.45593999997E+02  0.45594000000E+02  0.51100000000E-03 0.  1.
    9900012    2    1    2    0    0  0.86507398742E+00 -0.80258890394E+00 -0.25065007076E-01  0.90007690631E+02  0.89999951347E+02 0.  0.
        -12    1    1    2    0    0 -0.86507398742E+00  0.80258890394E+00  0.25065007076E-01  0.11803093692E+01  0.00000000000E+00 0.  1.
         11    1    3    3    0    0  0.53109293830E+01 -0.64903009537E+01 -0.41855484670E+01  0.93727687271E+01  0.51100000000E-03 0. -1.
        -11    1    3    3    0    0  0.20143772937E+02 -0.52237262104E+01 -0.30398721826E+02  0.36839397288E+02  0.51100000000E-03 0.  1.
         12    1    3    3    0    0 -0.24589628332E+02  0.10911438260E+02  0.34559205285E+02  0.43795524616E+02  0.00000000000E+00 0. -1.
</event>
<event>
 7    1  0.2294706E-015  0.9000774E+02  0.7816164E-02  0.1186339E+00
        -11   -1    0    0    0    0  0.00000000000E+00  0.00000000000E+00  0.45593999997E+02  0.45594000000E+02  0.51100000000E-03 0. -1.
         11   -1    0    0    0    0 -0.00000000000E+00 -0.00000000000E+00 -0.45593999997E+02  0.45594000000E+02  0.51100000000E-03 0.  1.
    9900012    2    1    2    0    0 -0.36033759932E+00 -0.77865227271E+00  0.81047955395E+00  0.90007737464E+02  0.89999998798E+02 0.  0.
        -12    1    1    2    0    0  0.36033759932E+00  0.77865227271E+00 -0.81047955395E+00  0.11802625363E+01  0.00000000000E+00 0.  1.
         11    1    3    3    0    0 -0.27719238761E+02  0.32852976049E+01  0.29388506169E+02  0.40531884646E+02  0.51100000000E-03 0. -1.
        -11    1    3    3    0    0  0.20910040849E+01  0.10661910790E+02 -0.52562460344E+01  0.12069662896E+02  0.51100000000E-03 0.  1.
        -12    1    3    3    0    0  0.25267897077E+02 -0.14725860668E+02 -0.23321780580E+02  0.37406189922E+02  0.00000000000E+00 0.  1.
</event>
<event>
 7    1  0.2294706E-015  0.9000768E+02  0.7816164E-02  0.1186339E+00
        -11   -1    0    0    0    0  0.00000000000E+00  0.00000000000E+00  0.45593999997E+02  0.45594000000E+02  0.51100000000E-03 0.  1.
         11   -1    0    0    0    0 -0.00000000000E+00 -0.00000000000E+00 -0.45593999997E+02  0.45594000000E+02  0.51100000000E-03 0. -1.
    9900012    2    1    2    0    0 -0.18434161410E+00 -0.42192001505E+00 -0.10868061143E+01  0.90007684000E+02  0.89999944629E+02 0.  0.
        -12    1    1    2    0    0  0.18434161410E+00  0.42192001505E+00  0.10868061143E+01  0.11803160000E+01  0.00000000000E+00 0.  1.
         11    1    3    3    0    0 -0.83898249362E+01  0.32503060461E+01  0.26652042231E+01  0.93838673086E+01  0.51100000000E-03 0. -1.
        -11    1    3    3    0    0 -0.20845148659E+02  0.63441993745E+01  0.28632575068E+02  0.35980459191E+02  0.51100000000E-03 0.  1.
         12    1    3    3    0    0  0.29050631981E+02 -0.10016425436E+02 -0.32384585406E+02  0.44643357500E+02  0.00000000000E+00 0. -1.
</event>
<event>
 7    1  0.2294706E-015  0.9000840E+02  0.7816164E-02  0.1186338E+00
        -11   -1    0    0    0    0  0.00000000000E+00  0.00000000000E+00  0.45593999997E+02  0.45594000000E+02  0.51100000000E-03 0.  1.
         11   -1    0    0    0    0 -0.00000000000E+00 -0.00000000000E+00 -0.45593999997E+02  0.45594000000E+02  0.51100000000E-03 0. -1.
    9900012    2    1    2    0    0 -0.54519052473E+00 -0.32300385608E+00 -0.99493327505E+00  0.90008399889E+02  0.90000669965E+02 0.  0.
        -12    1    1    2    0    0  0.54519052473E+00  0.32300385608E+00  0.99493327505E+00  0.11796001107E+01  0.00000000000E+00 0.  1.
         11    1    3    3    0    0 -0.20888491840E+02 -0.33720789036E+02  0.12613325442E+02  0.41623511187E+02  0.51100000000E-03 0. -1.
        -11    1    3    3    0    0  0.88550237061E+01 -0.52423524737E+00  0.23489441140E+01  0.91762631905E+01  0.51100000000E-03 0.  1.
        -12    1    3    3    0    0  0.11488277609E+02  0.33922020428E+02 -0.15957202831E+02  0.39208625512E+02  0.00000000000E+00 0.  1.
</event>
<event>
 7    1  0.2294706E-015  0.9000787E+02  0.7816164E-02  0.1186339E+00
        -11   -1    0    0    0    0  0.00000000000E+00  0.00000000000E+00  0.45593999997E+02  0.45594000000E+02  0.51100000000E-03 0.  1.
         11   -1    0    0    0    0 -0.00000000000E+00 -0.00000000000E+00 -0.45593999997E+02  0.45594000000E+02  0.51100000000E-03 0. -1.
    9900012    2    1    2    0    0 -0.11158579784E+01  0.33634626725E+00  0.18560076665E+00  0.90007866328E+02  0.90000129363E+02 0.  0.
        -12    1    1    2    0    0  0.11158579784E+01 -0.33634626725E+00 -0.18560076665E+00  0.11801336721E+01  0.00000000000E+00 0.  1.
         11    1    3    3    0    0 -0.23832807693E+02 -0.27978565752E+02 -0.90487158158E+01  0.37850787604E+02  0.51100000000E-03 0. -1.
        -11    1    3    3    0    0  0.23271644879E+01 -0.66722977253E+01 -0.56145730298E+01  0.90254463633E+01  0.51100000000E-03 0.  1.
        -12    1    3    3    0    0  0.20389785227E+02  0.34987209745E+02  0.14848889612E+02  0.43131632360E+02  0.00000000000E+00 0.  1.
</event>
<event>
 7    1  0.2294706E-015  0.9000787E+02  0.7816164E-02  0.1186339E+00
        -11   -1    0    0    0    0  0.00000000000E+00  0.00000000000E+00  0.45593999997E+02  0.45594000000E+02  0.51100000000E-03 0.  1.
         11   -1    0    0    0    0 -0.00000000000E+00 -0.00000000000E+00 -0.45593999997E+02  0.45594000000E+02  0.51100000000E-03 0. -1.
    9900012    2    1    2    0    0  0.11120090409E+01  0.32185241173E+00  0.22922821509E+00  0.90007873457E+02  0.90000136587E+02 0.  0.
        -12    1    1    2    0    0 -0.11120090409E+01 -0.32185241173E+00 -0.22922821509E+00  0.11801265426E+01  0.00000000000E+00 0.  1.
         11    1    3    3    0    0  0.18034978955E-01  0.34765219836E+02 -0.19184624870E+02  0.39707312515E+02  0.51100000000E-03 0. -1.
        -11    1    3    3    0    0 -0.27648310569E+01 -0.35665328554E+01 -0.77677083272E+01  0.89834147349E+01  0.51100000000E-03 0.  1.
        -12    1    3    3    0    0  0.38588051188E+01 -0.30876834568E+02  0.27181561413E+02  0.41317146208E+02  0.00000000000E+00 0.  1.
</event>
<event>
 7    1  0.2294706E-015  0.9000777E+02  0.7816164E-02  0.1186339E+00
        -11   -1    0    0    0    0  0.00000000000E+00  0.00000000000E+00  0.45593999997E+02  0.45594000000E+02  0.51100000000E-03 0.  1.
         11   -1    0    0    0    0 -0.00000000000E+00 -0.00000000000E+00 -0.45593999997E+02  0.45594000000E+02  0.51100000000E-03 0. -1.
    9900012    2    1    2    0    0  0.14690890380E+00 -0.11702085599E+01 -0.44465664962E-01  0.90007768033E+02  0.90000029771E+02 0.  0.
        -12    1    1    2    0    0 -0.14690890380E+00  0.11702085599E+01  0.44465664962E-01  0.11802319666E+01  0.00000000000E+00 0.  1.
         11    1    3    3    0    0 -0.27864446556E+02 -0.19874515881E+02  0.11921736487E+02  0.36242951929E+02  0.51100000000E-03 0. -1.
        -11    1    3    3    0    0 -0.66891272382E+01  0.44196438302E+01  0.79421638853E+01  0.11285195711E+02  0.51100000000E-03 0.  1.
        -12    1    3    3    0    0  0.34700482698E+02  0.14284663491E+02 -0.19908366037E+02  0.42479620394E+02  0.00000000000E+00 0.  1.
</event>
<event>
 7    1  0.2294706E-015  0.9000792E+02  0.7816164E-02  0.1186339E+00
        -11   -1    0    0    0    0  0.00000000000E+00  0.00000000000E+00  0.45593999997E+02  0.45594000000E+02  0.51100000000E-03 0.  1.
         11   -1    0    0    0    0 -0.00000000000E+00 -0.00000000000E+00 -0.45593999997E+02  0.45594000000E+02  0.51100000000E-03 0. -1.
    9900012    2    1    2    0    0 -0.10149176902E+01  0.53178713839E+00  0.28238908944E+00  0.90007915649E+02  0.90000179335E+02 0.  0.
        -12    1    1    2    0    0  0.10149176902E+01 -0.53178713839E+00 -0.28238908944E+00  0.11800843513E+01  0.00000000000E+00 0.  1.
         11    1    3    3    0    0  0.80199951296E+01 -0.33562229414E+01 -0.27852366846E+01  0.91291893376E+01  0.51100000000E-03 0. -1.
        -11    1    3    3    0    0 -0.23896854029E+01  0.49167476539E+01  0.41502025515E+02  0.41860519896E+02  0.51100000000E-03 0.  1.
         12    1    3    3    0    0 -0.66452274169E+01 -0.10287375741E+01 -0.38434399741E+02  0.39018206415E+02  0.00000000000E+00 0. -1.
</event>
<event>
 7    1  0.2611388E-015  0.9000770E+02  0.7816164E-02  0.1186339E+00
        -11   -1    0    0    0    0  0.00000000000E+00  0.00000000000E+00  0.45593999997E+02  0.45594000000E+02  0.51100000000E-03 0.  1.
         11   -1    0    0    0    0 -0.00000000000E+00 -0.00000000000E+00 -0.45593999997E+02  0.45594000000E+02  0.51100000000E-03 0. -1.
    9900012    2    1    2    0    0 -0.48596343572E+00 -0.92400127117E+00 -0.55061164661E+00  0.90007698346E+02  0.89999959164E+02 0.  0.
        -12    1    1    2    0    0  0.48596343572E+00  0.92400127117E+00  0.55061164661E+00  0.11803016544E+01  0.00000000000E+00 0.  1.
         11    1    3    3    0    0  0.35944215501E+00  0.10260509649E+02 -0.36787626582E+02  0.38193412085E+02  0.51100000000E-03 0. -1.
        -11    1    3    3    0    0 -0.37669119551E+01 -0.71224339560E+01 -0.55147543545E+01  0.97637701216E+01  0.51100000000E-03 0.  1.
        -12    1    3    3    0    0  0.29215063644E+01 -0.40620769646E+01  0.41751769290E+02  0.42050516139E+02  0.00000000000E+00 0.  1.
</event>
<event>
 7    1  0.2294706E-015  0.9000771E+02  0.7816164E-02  0.1186339E+00
        -11   -1    0    0    0    0  0.00000000000E+00  0.00000000000E+00  0.45593999997E+02  0.45594000000E+02  0.51100000000E-03 0.  1.
         11   -1    0    0    0    0 -0.00000000000E+00 -0.00000000000E+00 -0.45593999997E+02  0.45594000000E+02  0.51100000000E-03 0. -1.
    9900012    2    1    2    0    0 -0.30267386562E+00  0.37029422279E+00 -0.10790477345E+01  0.90007714741E+02  0.89999975775E+02 0.  0.
        -12    1    1    2    0    0  0.30267386562E+00 -0.37029422279E+00  0.10790477345E+01  0.11802852594E+01  0.00000000000E+00 0.  1.
         11    1    3    3    0    0 -0.96065134296E+01  0.22138098340E+01  0.25317159210E+01  0.10178194340E+02  0.51100000000E-03 0. -1.
        -11    1    3    3    0    0  0.16833172783E+02  0.33030049683E+02  0.14514576545E+02  0.39812219487E+02  0.51100000000E-03 0.  1.
         12    1    3    3    0    0 -0.75293332186E+01 -0.34873565294E+02 -0.18125340200E+02  0.40017300913E+02  0.00000000000E+00 0. -1.
</event>
<event>
 7    1  0.2294706E-015  0.9000772E+02  0.7816164E-02  0.1186339E+00
        -11   -1    0    0    0    0  0.00000000000E+00  0.00000000000E+00  0.45593999997E+02  0.45594000000E+02  0.51100000000E-03 0. -1.
         11   -1    0    0    0    0 -0.00000000000E+00 -0.00000000000E+00 -0.45593999997E+02  0.45594000000E+02  0.51100000000E-03 0.  1.
    9900012    2    1    2    0    0 -0.65078955751E-01 -0.24143728023E+00  0.11534918503E+01  0.90007715848E+02  0.89999976897E+02 0.  0.
        -12    1    1    2    0    0  0.65078955751E-01  0.24143728023E+00 -0.11534918503E+01  0.11802841520E+01  0.00000000000E+00 0.  1.
         11    1    3    3    0    0  0.51243072737E+01 -0.84709758829E+01 -0.57988601197E+00  0.99172690542E+01  0.51100000000E-03 0. -1.
        -11    1    3    3    0    0  0.33242734040E+02  0.26511694342E+01 -0.16478393298E+02  0.37197385819E+02  0.51100000000E-03 0.  1.
         12    1    3    3    0    0 -0.38432120269E+02  0.55783691685E+01  0.18211771161E+02  0.42893060975E+02  0.00000000000E+00 0. -1.
</event>
<event>
 7    1  0.2294706E-015  0.9000771E+02  0.7816164E-02  0.1186339E+00
        -11   -1    0    0    0    0  0.00000000000E+00  0.00000000000E+00  0.45593999997E+02  0.45594000000E+02  0.51100000000E-03 0.  1.
         11   -1    0    0    0    0 -0.00000000000E+00 -0.00000000000E+00 -0.45593999997E+02  0.45594000000E+02  0.51100000000E-03 0. -1.
    9900012    2    1    2    0    0  0.93819662461E+00  0.67059706831E+00  0.25133396828E+00  0.90007711011E+02  0.89999971996E+02 0.  0.
        -12    1    1    2    0    0 -0.93819662461E+00 -0.67059706831E+00 -0.25133396828E+00  0.11802889892E+01  0.00000000000E+00 0.  1.
         11    1    3    3    0    0  0.36481103986E+02  0.22529469703E+01  0.24241488372E+02  0.43858824390E+02  0.51100000000E-03 0. -1.
        -11    1    3    3    0    0 -0.29485799314E+01  0.41903044049E+00 -0.10330800974E+02  0.10751518923E+02  0.51100000000E-03 0.  1.
        -12    1    3    3    0    0 -0.32594327430E+02 -0.20013803425E+01 -0.13659353430E+02  0.35397367699E+02  0.00000000000E+00 0.  1.
</event>
<event>
 7    1  0.2294706E-015  0.9000758E+02  0.7816164E-02  0.1186339E+00
        -11   -1    0    0    0    0  0.00000000000E+00  0.00000000000E+00  0.45593999997E+02  0.45594000000E+02  0.51100000000E-03 0.  1.
         11   -1    0    0    0    0 -0.00000000000E+00 -0.00000000000E+00 -0.45593999997E+02  0.45594000000E+02  0.51100000000E-03 0. -1.
    9900012    2    1    2    0    0  0.58553566838E+00 -0.28352125899E+00 -0.98496095070E+00  0.90007582956E+02  0.89999842251E+02 0.  0.
        -12    1    1    2    0    0 -0.58553566838E+00  0.28352125899E+00  0.98496095070E+00  0.11804170439E+01  0.00000000000E+00 0.  1.
         11    1    3    3    0    0 -0.26264267609E+02  0.30560440624E+02  0.81818904567E+00  0.40304115395E+02  0.51100000000E-03 0. -1.
        -11    1    3    3    0    0 -0.56020278167E+01 -0.87260046771E+01 -0.10657810581E+01  0.10424095299E+02  0.51100000000E-03 0.  1.
        -12    1    3    3    0    0  0.32451831094E+02 -0.22117957206E+02 -0.73736893830E+00  0.39279372262E+02  0.00000000000E+00 0.  1.
</event>
<event>
 7    1  0.2294706E-015  0.9000793E+02  0.7816164E-02  0.1186339E+00
        -11   -1    0    0    0    0  0.00000000000E+00  0.00000000000E+00  0.45593999997E+02  0.45594000000E+02  0.51100000000E-03 0.  1.
         11   -1    0    0    0    0 -0.00000000000E+00 -0.00000000000E+00 -0.45593999997E+02  0.45594000000E+02  0.51100000000E-03 0. -1.
    9900012    2    1    2    0    0 -0.92285955818E+00  0.62696171078E+00 -0.38447115275E+00  0.90007928469E+02  0.90000192325E+02 0.  0.
        -12    1    1    2    0    0  0.92285955818E+00 -0.62696171078E+00  0.38447115275E+00  0.11800715310E+01  0.00000000000E+00 0.  1.
         11    1    3    3    0    0  0.40682372426E+01  0.85095305607E+01 -0.13214850102E+02  0.16235606799E+02  0.51100000000E-03 0. -1.
        -11    1    3    3    0    0 -0.11117874964E+02  0.17788178366E+02  0.33992509360E+02  0.39943924771E+02  0.51100000000E-03 0.  1.
         12    1    3    3    0    0  0.61267781628E+01 -0.25670747216E+02 -0.21162130410E+02  0.33828396899E+02  0.00000000000E+00 0. -1.
</event>
<event>
 7    1  0.2912945E-015  0.9000777E+02  0.7816164E-02  0.1186339E+00
        -11   -1    0    0    0    0  0.00000000000E+00  0.00000000000E+00  0.45593999997E+02  0.45594000000E+02  0.51100000000E-03 0. -1.
         11   -1    0    0    0    0 -0.00000000000E+00 -0.00000000000E+00 -0.45593999997E+02  0.45594000000E+02  0.51100000000E-03 0.  1.
    9900012    2    1    2    0    0  0.83875616258E+00 -0.13444561049E+00  0.81936978933E+00  0.90007765119E+02  0.90000026819E+02 0.  0.
        -12    1    1    2    0    0 -0.83875616258E+00  0.13444561049E+00 -0.81936978933E+00  0.11802348809E+01  0.00000000000E+00 0.  1.
         11    1    3    3    0    0  0.13693082163E+02 -0.54354201708E+01  0.33879098692E+02  0.36943708801E+02  0.51100000000E-03 0. -1.
        -11    1    3    3    0    0  0.88786018468E+01 -0.35783688538E+01  0.30032674551E+01  0.10032642228E+02  0.51100000000E-03 0.  1.
        -12    1    3    3    0    0 -0.21732927848E+02  0.88793434141E+01 -0.36062996357E+02  0.43031414090E+02  0.00000000000E+00 0.  1.
</event>
<event>
 7    1  0.2294706E-015  0.9000789E+02  0.7816164E-02  0.1186339E+00
        -11   -1    0    0    0    0  0.00000000000E+00  0.00000000000E+00  0.45593999997E+02  0.45594000000E+02  0.51100000000E-03 0.  1.
         11   -1    0    0    0    0 -0.00000000000E+00 -0.00000000000E+00 -0.45593999997E+02  0.45594000000E+02  0.51100000000E-03 0. -1.
    9900012    2    1    2    0    0 -0.11873084768E+00 -0.11123135750E+01  0.37594059007E+00  0.90007885671E+02  0.90000148961E+02 0.  0.
        -12    1    1    2    0    0  0.11873084768E+00  0.11123135750E+01 -0.37594059007E+00  0.11801143295E+01  0.00000000000E+00 0.  1.
         11    1    3    3    0    0  0.25105383588E+02  0.22595153766E+02 -0.76753930704E+01  0.34637160938E+02  0.51100000000E-03 0. -1.
        -11    1    3    3    0    0  0.15034015197E+00  0.28307293123E+01 -0.12824475162E+02  0.13134031903E+02  0.51100000000E-03 0.  1.
        -12    1    3    3    0    0 -0.25374454587E+02 -0.26538196653E+02  0.20875808822E+02  0.42236692830E+02  0.00000000000E+00 0.  1.
</event>
<event>
 7    1  0.2294706E-015  0.9000770E+02  0.7816164E-02  0.1186339E+00
        -11   -1    0    0    0    0  0.00000000000E+00  0.00000000000E+00  0.45593999997E+02  0.45594000000E+02  0.51100000000E-03 0. -1.
         11   -1    0    0    0    0 -0.00000000000E+00 -0.00000000000E+00 -0.45593999997E+02  0.45594000000E+02  0.51100000000E-03 0.  1.
    9900012    2    1    2    0    0  0.18290150960E+00  0.81752298167E+00  0.83144438599E+00  0.90007704887E+02  0.89999965791E+02 0.  0.
        -12    1    1    2    0    0 -0.18290150960E+00 -0.81752298167E+00 -0.83144438599E+00  0.11802951134E+01  0.00000000000E+00 0.  1.
         11    1    3    3    0    0  0.92881072809E+00  0.37041420328E+02  0.98487541192E+01  0.38339633113E+02  0.51100000000E-03 0. -1.
        -11    1    3    3    0    0  0.10812184658E+02  0.89160418482E+00  0.24824317246E+01  0.11129275028E+02  0.51100000000E-03 0.  1.
        -12    1    3    3    0    0 -0.11558093877E+02 -0.37115501531E+02 -0.11499741458E+02  0.40538796746E+02  0.00000000000E+00 0.  1.
</event>
<event>
 7    1  0.2294706E-015  0.9000767E+02  0.7816164E-02  0.1186339E+00
        -11   -1    0    0    0    0  0.00000000000E+00  0.00000000000E+00  0.45593999997E+02  0.45594000000E+02  0.51100000000E-03 0.  1.
         11   -1    0    0    0    0 -0.00000000000E+00 -0.00000000000E+00 -0.45593999997E+02  0.45594000000E+02  0.51100000000E-03 0. -1.
    9900012    2    1    2    0    0  0.90524271157E+00 -0.12935225746E+00 -0.74631605861E+00  0.90007667830E+02  0.89999928245E+02 0.  0.
        -12    1    1    2    0    0 -0.90524271157E+00  0.12935225746E+00  0.74631605861E+00  0.11803321705E+01  0.00000000000E+00 0.  1.
         11    1    3    3    0    0 -0.24678452541E+02  0.32244748513E+02  0.97437148549E+01  0.41757511970E+02  0.51100000000E-03 0. -1.
        -11    1    3    3    0    0 -0.11134958477E+01 -0.32325174027E+01 -0.79416158351E+01  0.86462884577E+01  0.51100000000E-03 0.  1.
        -12    1    3    3    0    0  0.26697191100E+02 -0.29141583368E+02 -0.25484150784E+01  0.39603867402E+02  0.00000000000E+00 0.  1.
</event>
<event>
 7    1  0.2294706E-015  0.9000772E+02  0.7816164E-02  0.1186339E+00
        -11   -1    0    0    0    0  0.00000000000E+00  0.00000000000E+00  0.45593999997E+02  0.45594000000E+02  0.51100000000E-03 0.  1.
         11   -1    0    0    0    0 -0.00000000000E+00 -0.00000000000E+00 -0.45593999997E+02  0.45594000000E+02  0.51100000000E-03 0. -1.
    9900012    2    1    2    0    0  0.71346560806E+00  0.46105975338E+00 -0.81942059901E+00  0.90007720631E+02  0.89999981744E+02 0.  0.
        -12    1    1    2    0    0 -0.71346560806E+00 -0.46105975338E+00  0.81942059901E+00  0.11802793687E+01  0.00000000000E+00 0.  1.
         11    1    3    3    0    0  0.68798270755E+01 -0.31878286290E+01  0.29267951104E+01  0.81277550305E+01  0.51100000000E-03 0. -1.
        -11    1    3    3    0    0  0.48751370492E+01  0.10798242876E+02  0.37111604335E+02  0.38956901661E+02  0.51100000000E-03 0.  1.
         12    1    3    3    0    0 -0.11041498517E+02 -0.71493544938E+01 -0.40857820044E+02  0.42923063940E+02  0.00000000000E+00 0. -1.
</event>
<event>
 7    1  0.2294706E-015  0.9000764E+02  0.7816164E-02  0.1186339E+00
        -11   -1    0    0    0    0  0.00000000000E+00  0.00000000000E+00  0.45593999997E+02  0.45594000000E+02  0.51100000000E-03 0.  1.
         11   -1    0    0    0    0 -0.00000000000E+00 -0.00000000000E+00 -0.45593999997E+02  0.45594000000E+02  0.51100000000E-03 0. -1.
    9900012    2    1    2    0    0 -0.64234650983E+00  0.98637484768E+00  0.87766201382E-01  0.90007641036E+02  0.89999901097E+02 0.  0.
        -12    1    1    2    0    0  0.64234650983E+00 -0.98637484768E+00 -0.87766201382E-01  0.11803589644E+01  0.00000000000E+00 0.  1.
         11    1    3    3    0    0 -0.11131308325E+02  0.17147947580E+02  0.31127417162E+02  0.37240760339E+02  0.51100000000E-03 0. -1.
        -11    1    3    3    0    0 -0.60450802853E+00  0.46095367227E+01  0.67767988061E+01  0.82181665275E+01  0.51100000000E-03 0.  1.
        -12    1    3    3    0    0  0.11093469844E+02 -0.20771109455E+02 -0.37816449767E+02  0.44548714169E+02  0.00000000000E+00 0.  1.
</event>
<event>
 7    1  0.2294706E-015  0.9000781E+02  0.7816164E-02  0.1186339E+00
        -11   -1    0    0    0    0  0.00000000000E+00  0.00000000000E+00  0.45593999997E+02  0.45594000000E+02  0.51100000000E-03 0.  1.
         11   -1    0    0    0    0 -0.00000000000E+00 -0.00000000000E+00 -0.45593999997E+02  0.45594000000E+02  0.51100000000E-03 0. -1.
    9900012    2    1    2    0    0 -0.91303155685E-01 -0.94708299623E+00 -0.69824775140E+00  0.90007808325E+02  0.90000070595E+02 0.  0.
        -12    1    1    2    0    0  0.91303155685E-01  0.94708299623E+00  0.69824775140E+00  0.11801916752E+01  0.00000000000E+00 0.  1.
         11    1    3    3    0    0 -0.49664853398E+00  0.21001322545E+02 -0.29117428064E+02  0.35904412344E+02  0.51100000000E-03 0. -1.
        -11    1    3    3    0    0  0.72534609178E+01  0.17221852430E+01 -0.74801428041E+01  0.10560831119E+02  0.51100000000E-03 0.  1.
        -12    1    3    3    0    0 -0.68481155395E+01 -0.23670590784E+02  0.35899323117E+02  0.43542564862E+02  0.00000000000E+00 0.  1.
</event>
<event>
 7    1  0.2294706E-015  0.9000769E+02  0.7816164E-02  0.1186339E+00
        -11   -1    0    0    0    0  0.00000000000E+00  0.00000000000E+00  0.45593999997E+02  0.45594000000E+02  0.51100000000E-03 0. -1.
         11   -1    0    0    0    0 -0.00000000000E+00 -0.00000000000E+00 -0.45593999997E+02  0.45594000000E+02  0.51100000000E-03 0.  1.
    9900012    2    1    2    0    0  0.41490511417E+00 -0.10605676738E+01  0.31015018114E+00  0.90007685136E+02  0.89999945779E+02 0.  0.
        -12    1    1    2    0    0 -0.41490511417E+00  0.10605676738E+01 -0.31015018114E+00  0.11803148645E+01  0.00000000000E+00 0.  1.
         11    1    3    3    0    0  0.10874353909E+02 -0.39170736780E+01  0.10548539581E+00  0.11558813372E+02  0.51100000000E-03 0. -1.
        -11    1    3    3    0    0 -0.13553651567E+01  0.39360901256E+02 -0.73792293460E+01  0.40069571852E+02  0.51100000000E-03 0.  1.
         12    1    3    3    0    0 -0.91040836380E+01 -0.36504395251E+02  0.75838941313E+01  0.38379299912E+02  0.00000000000E+00 0. -1.
</event>
<event>
 7    1  0.2294706E-015  0.9000793E+02  0.7816164E-02  0.1186339E+00
        -11   -1    0    0    0    0  0.00000000000E+00  0.00000000000E+00  0.45593999997E+02  0.45594000000E+02  0.51100000000E-03 0. -1.
         11   -1    0    0    0    0 -0.00000000000E+00 -0.00000000000E+00 -0.45593999997E+02  0.45594000000E+02  0.51100000000E-03 0.  1.
    9900012    2    1    2    0    0  0.29785281654E+00  0.70770295523E+00  0.89611199150E+00  0.90007925225E+02  0.90000189038E+02 0.  0.
        -12    1    1    2    0    0 -0.29785281654E+00 -0.70770295523E+00 -0.89611199150E+00  0.11800747749E+01  0.00000000000E+00 0.  1.
         11    1    3    3    0    0  0.15366272614E+02 -0.51600538935E+01  0.36405998017E+02  0.39851539269E+02  0.51100000000E-03 0. -1.
        -11    1    3    3    0    0 -0.46598351024E+01  0.35268221785E+01  0.53521913701E+01  0.79245498663E+01  0.51100000000E-03 0.  1.
        -12    1    3    3    0    0 -0.10408584695E+02  0.23409346702E+01 -0.40862077395E+02  0.42231836090E+02  0.00000000000E+00 0.  1.
</event>
<event>
 7    1  0.2294706E-015  0.9000776E+02  0.7816164E-02  0.1186339E+00
        -11   -1    0    0    0    0  0.00000000000E+00  0.00000000000E+00  0.45593999997E+02  0.45594000000E+02  0.51100000000E-03 0.  1.
         11   -1    0    0    0    0 -0.00000000000E+00 -0.00000000000E+00 -0.45593999997E+02  0.45594000000E+02  0.51100000000E-03 0. -1.
    9900012    2    1    2    0    0 -0.98012244214E-01 -0.98024299979E+00 -0.64997898495E+00  0.90007764676E+02  0.90000026370E+02 0.  0.
        -12    1    1    2    0    0  0.98012244214E-01  0.98024299979E+00  0.64997898495E+00  0.11802353238E+01  0.00000000000E+00 0.  1.
         11    1    3    3    0    0 -0.42982637215E+01 -0.40010761449E+01 -0.10114950321E+02  0.11695978009E+02  0.51100000000E-03 0. -1.
        -11    1    3    3    0    0 -0.87464099918E+01  0.13632828350E+02 -0.30748168455E+02  0.34753468319E+02  0.51100000000E-03 0.  1.
         12    1    3    3    0    0  0.12946661469E+02 -0.10611995205E+02  0.40213139791E+02  0.43558318348E+02  0.00000000000E+00 0. -1.
</event>
<event>
 7    1  0.2294706E-015  0.9000777E+02  0.7816164E-02  0.1186339E+00
        -11   -1    0    0    0    0  0.00000000000E+00  0.00000000000E+00  0.45593999997E+02  0.45594000000E+02  0.51100000000E-03 0. -1.
         11   -1    0    0    0    0 -0.00000000000E+00 -0.00000000000E+00 -0.45593999997E+02  0.45594000000E+02  0.51100000000E-03 0.  1.
    9900012    2    1    2    0    0  0.77367322290E+00 -0.60186430535E+00  0.65736951626E+00  0.90007768845E+02  0.90000030594E+02 0.  0.
        -12    1    1    2    0    0 -0.77367322290E+00  0.60186430535E+00 -0.65736951626E+00  0.11802311548E+01  0.00000000000E+00 0.  1.
         11    1    3    3    0    0  0.78251236709E+01 -0.46047586231E+01  0.34040136255E+01  0.96965804007E+01  0.51100000000E-03 0. -1.
        -11    1    3    3    0    0 -0.60862451103E+01  0.36248775525E+02 -0.21907480717E+02  0.42789646157E+02  0.51100000000E-03 0.  1.
         12    1    3    3    0    0 -0.96520533777E+00 -0.32245881207E+02  0.19160836608E+02  0.37521542288E+02  0.00000000000E+00 0. -1.
</event>
<event>
 7    1  0.2294706E-015  0.9000775E+02  0.7816164E-02  0.1186339E+00
        -11   -1    0    0    0    0  0.00000000000E+00  0.00000000000E+00  0.45593999997E+02  0.45594000000E+02  0.51100000000E-03 0. -1.
         11   -1    0    0    0    0 -0.00000000000E+00 -0.00000000000E+00 -0.45593999997E+02  0.45594000000E+02  0.51100000000E-03 0.  1.
    9900012    2    1    2    0    0 -0.29498655378E+00 -0.10042059480E+01  0.54548446349E+00  0.90007745810E+02  0.90000007255E+02 0.  0.
        -12    1    1    2    0    0  0.29498655378E+00  0.10042059480E+01 -0.54548446349E+00  0.11802541899E+01  0.00000000000E+00 0.  1.
         11    1    3    3    0    0  0.21223915243E+01 -0.93469719694E+01 -0.36200239260E+01  0.10245731026E+02  0.51100000000E-03 0. -1.
        -11    1    3    3    0    0  0.94273130126E+01 -0.19509511498E+02 -0.28125576776E+02  0.35504131292E+02  0.51100000000E-03 0.  1.
         12    1    3    3    0    0 -0.11844691091E+02  0.27852277519E+02  0.32291085165E+02  0.44257883492E+02  0.00000000000E+00 0. -1.
</event>
<event>
 7    1  0.2294706E-015  0.9000791E+02  0.7816164E-02  0.1186339E+00
        -11   -1    0    0    0    0  0.00000000000E+00  0.00000000000E+00  0.45593999997E+02  0.45594000000E+02  0.51100000000E-03 0. -1.
         11   -1    0    0    0    0 -0.00000000000E+00 -0.00000000000E+00 -0.45593999997E+02  0.45594000000E+02  0.51100000000E-03 0.  1.
    9900012    2    1    2    0    0 -0.31612723583E+00  0.89496738990E+00  0.70121738496E+00  0.90007911495E+02  0.90000175127E+02 0.  0.
        -12    1    1    2    0    0  0.31612723583E+00 -0.89496738990E+00 -0.70121738496E+00  0.11800885048E+01  0.00000000000E+00 0.  1.
         11    1    3    3    0    0  0.30375335394E+02  0.22857712935E+02  0.20070470565E+01  0.38067890395E+02  0.51100000000E-03 0. -1.
        -11    1    3    3    0    0  0.56997687627E+01 -0.69852999107E+01 -0.79621682715E+01  0.12028212778E+02  0.51100000000E-03 0.  1.
        -12    1    3    3    0    0 -0.36391231393E+02 -0.14977445635E+02  0.66563385999E+01  0.39911808323E+02  0.00000000000E+00 0.  1.
</event>
<event>
 7    1  0.2294706E-015  0.9000775E+02  0.7816164E-02  0.1186339E+00
        -11   -1    0    0    0    0  0.00000000000E+00  0.00000000000E+00  0.45593999997E+02  0.45594000000E+02  0.51100000000E-03 0.  1.
         11   -1    0    0    0    0 -0.00000000000E+00 -0.00000000000E+00 -0.45593999997E+02  0.45594000000E+02  0.51100000000E-03 0. -1.
    9900012    2    1    2    0    0 -0.45786466444E+00  0.89831320484E+00  0.61350209590E+00  0.90007749397E+02  0.90000010889E+02 0.  0.
        -12    1    1    2    0    0  0.45786466444E+00 -0.89831320484E+00 -0.61350209590E+00  0.11802506033E+01  0.00000000000E+00 0.  1.
         11    1    3    3    0    0  0.31890949139E+02  0.22740462700E+02  0.16763676791E+01  0.39204227956E+02  0.51100000000E-03 0. -1.
        -11    1    3    3    0    0  0.62294064256E+01 -0.45058617212E+01 -0.34818671650E+01  0.84398870539E+01  0.51100000000E-03 0.  1.
        -12    1    3    3    0    0 -0.38578220229E+02 -0.17336287774E+02  0.24190015819E+01  0.42363634387E+02  0.00000000000E+00 0.  1.
</event>
<event>
 7    1  0.2294706E-015  0.9000783E+02  0.7816164E-02  0.1186339E+00
        -11   -1    0    0    0    0  0.00000000000E+00  0.00000000000E+00  0.45593999997E+02  0.45594000000E+02  0.51100000000E-03 0.  1.
         11   -1    0    0    0    0 -0.00000000000E+00 -0.00000000000E+00 -0.45593999997E+02  0.45594000000E+02  0.51100000000E-03 0. -1.
    9900012    2    1    2    0    0 -0.34886526681E+00  0.31943262693E+00 -0.10812335067E+01  0.90007826253E+02  0.90000088759E+02 0.  0.
        -12    1    1    2    0    0  0.34886526681E+00 -0.31943262693E+00  0.10812335067E+01  0.11801737472E+01  0.00000000000E+00 0.  1.
         11    1    3    3    0    0  0.12569050441E+02  0.13836063562E+02  0.38732627451E+02  0.43007372780E+02  0.51100000000E-03 0. -1.
        -11    1    3    3    0    0 -0.75016307101E+01 -0.59981852898E+01 -0.47162995586E+01  0.10700288401E+02  0.51100000000E-03 0.  1.
        -12    1    3    3    0    0 -0.54162849974E+01 -0.75184456457E+01 -0.35097561399E+02  0.36300165072E+02  0.00000000000E+00 0.  1.
</event>
<event>
 7    1  0.2294706E-015  0.9000792E+02  0.7816164E-02  0.1186339E+00
        -11   -1    0    0    0    0  0.00000000000E+00  0.00000000000E+00  0.45593999997E+02  0.45594000000E+02  0.51100000000E-03 0. -1.
         11   -1    0    0    0    0 -0.00000000000E+00 -0.00000000000E+00 -0.45593999997E+02  0.45594000000E+02  0.51100000000E-03 0.  1.
    9900012    2    1    2    0    0  0.72141095750E+00  0.92180495730E+00  0.14977031756E+00  0.90007919792E+02  0.90000183533E+02 0.  0.
        -12    1    1    2    0    0 -0.72141095750E+00 -0.92180495730E+00 -0.14977031756E+00  0.11800802078E+01  0.00000000000E+00 0.  1.
         11    1    3    3    0    0 -0.31394078465E+02  0.14921393115E+02  0.24077448530E+02  0.42284272054E+02  0.51100000000E-03 0. -1.
        -11    1    3    3    0    0 -0.83098641495E+00 -0.12839013601E+01 -0.94222476694E+01  0.95455587856E+01  0.51100000000E-03 0.  1.
        -12    1    3    3    0    0  0.32946475837E+02 -0.12715686798E+02 -0.14505430543E+02  0.38178088953E+02  0.00000000000E+00 0.  1.
</event>
<event>
 7    1  0.2294706E-015  0.9000770E+02  0.7816164E-02  0.1186339E+00
        -11   -1    0    0    0    0  0.00000000000E+00  0.00000000000E+00  0.45593999997E+02  0.45594000000E+02  0.51100000000E-03 0.  1.
         11   -1    0    0    0    0 -0.00000000000E+00 -0.00000000000E+00 -0.45593999997E+02  0.45594000000E+02  0.51100000000E-03 0. -1.
    9900012    2    1    2    0    0 -0.49890295729E+00 -0.92159047553E+00 -0.54302492719E+00  0.90007699514E+02  0.89999960348E+02 0.  0.
        -12    1    1    2    0    0  0.49890295729E+00  0.92159047553E+00  0.54302492719E+00  0.11803004859E+01  0.00000000000E+00 0.  1.
         11    1    3    3    0    0 -0.89189961271E+01 -0.21746302163E+01 -0.39745596282E+01  0.10003730954E+02  0.51100000000E-03 0. -1.
        -11    1    3    3    0    0  0.37055120966E+02  0.17801155830E+02 -0.12944458615E+02  0.43098980821E+02  0.51100000000E-03 0.  1.
         12    1    3    3    0    0 -0.28635027796E+02 -0.16548116089E+02  0.16375993316E+02  0.36904987740E+02  0.00000000000E+00 0. -1.
</event>
<event>
 7    1  0.2294706E-015  0.9000776E+02  0.7816164E-02  0.1186339E+00
        -11   -1    0    0    0    0  0.00000000000E+00  0.00000000000E+00  0.45593999997E+02  0.45594000000E+02  0.51100000000E-03 0.  1.
         11   -1    0    0    0    0 -0.00000000000E+00 -0.00000000000E+00 -0.45593999997E+02  0.45594000000E+02  0.51100000000E-03 0. -1.
    9900012    2    1    2    0    0  0.57590297931E+00 -0.64435701214E+00 -0.80380048243E+00  0.90007764678E+02  0.90000026371E+02 0.  0.
        -12    1    1    2    0    0 -0.57590297931E+00  0.64435701214E+00  0.80380048243E+00  0.11802353224E+01  0.00000000000E+00 0.  1.
         11    1    3    3    0    0  0.19613562252E+02 -0.24679880533E+02 -0.76708585537E+01  0.32444266035E+02  0.51100000000E-03 0. -1.
        -11    1    3    3    0    0  0.30388257325E+01 -0.13373845913E+02  0.16421934539E+01  0.13812712114E+02  0.51100000000E-03 0.  1.
        -12    1    3    3    0    0 -0.22076485005E+02  0.37409369434E+02  0.52248646174E+01  0.43750786529E+02  0.00000000000E+00 0.  1.
</event>
<event>
 7    1  0.2294706E-015  0.9000781E+02  0.7816164E-02  0.1186339E+00
        -11   -1    0    0    0    0  0.00000000000E+00  0.00000000000E+00  0.45593999997E+02  0.45594000000E+02  0.51100000000E-03 0.  1.
         11   -1    0    0    0    0 -0.00000000000E+00 -0.00000000000E+00 -0.45593999997E+02  0.45594000000E+02  0.51100000000E-03 0. -1.
    9900012    2    1    2    0    0  0.30970161534E+00  0.11372576904E+01 -0.59898184944E-01  0.90007805975E+02  0.90000068213E+02 0.  0.
        -12    1    1    2    0    0 -0.30970161534E+00 -0.11372576904E+01  0.59898184944E-01  0.11801940253E+01  0.00000000000E+00 0.  1.
         11    1    3    3    0    0 -0.59029683258E+01 -0.34663686251E+01 -0.49364350283E+01  0.84397356327E+01  0.51100000000E-03 0. -1.
        -11    1    3    3    0    0  0.13217814474E+01 -0.17860880005E+02  0.37558173803E+02  0.41609789238E+02  0.51100000000E-03 0.  1.
         12    1    3    3    0    0  0.48908884937E+01  0.22464506320E+02 -0.32681636959E+02  0.39958281104E+02  0.00000000000E+00 0. -1.
</event>
<event>
 7    1  0.2294706E-015  0.9000803E+02  0.7816164E-02  0.1186338E+00
        -11   -1    0    0    0    0  0.00000000000E+00  0.00000000000E+00  0.45593999997E+02  0.45594000000E+02  0.51100000000E-03 0. -1.
         11   -1    0    0    0    0 -0.00000000000E+00 -0.00000000000E+00 -0.45593999997E+02  0.45594000000E+02  0.51100000000E-03 0.  1.
    9900012    2    1    2    0    0  0.56772505727E+00  0.88094459254E+00  0.54217791257E+00  0.90008028812E+02  0.90000293992E+02 0.  0.
        -12    1    1    2    0    0 -0.56772505727E+00 -0.88094459254E+00 -0.54217791257E+00  0.11799711881E+01  0.00000000000E+00 0.  1.
         11    1    3    3    0    0 -0.75713148539E+01 -0.55155687346E+01 -0.46225353674E+01  0.10445771420E+02  0.51100000000E-03 0. -1.
        -11    1    3    3    0    0  0.14312585000E+02 -0.16199415528E+02 -0.30202680269E+02  0.37141258037E+02  0.51100000000E-03 0.  1.
         12    1    3    3    0    0 -0.61735450885E+01  0.22595928855E+02  0.35367393549E+02  0.42420999355E+02  0.00000000000E+00 0. -1.
</event>
<event>
 7    1  0.2294706E-015  0.9000775E+02  0.7816164E-02  0.1186339E+00
        -11   -1    0    0    0    0  0.00000000000E+00  0.00000000000E+00  0.45593999997E+02  0.45594000000E+02  0.51100000000E-03 0. -1.
         11   -1    0    0    0    0 -0.00000000000E+00 -0.00000000000E+00 -0.45593999997E+02  0.45594000000E+02  0.51100000000E-03 0.  1.
    9900012    2    1    2    0    0  0.98817861740E+00 -0.96249379318E-01 -0.63813902130E+00  0.90007753274E+02  0.90000014818E+02 0.  0.
        -12    1    1    2    0    0 -0.98817861740E+00  0.96249379318E-01  0.63813902130E+00  0.11802467257E+01  0.00000000000E+00 0.  1.
         11    1    3    3    0    0 -0.11279664131E+01 -0.32803411996E+01 -0.22340535080E+01  0.41260079923E+01  0.51100000000E-03 0. -1.
        -11    1    3    3    0    0  0.21133030650E+02 -0.18639392149E+02 -0.31265063214E+02  0.42089619886E+02  0.51100000000E-03 0.  1.
         12    1    3    3    0    0 -0.19016885619E+02  0.21823483969E+02  0.32860977701E+02  0.43792125396E+02  0.00000000000E+00 0. -1.
</event>
<event>
 7    1  0.2294706E-015  0.9000783E+02  0.7816164E-02  0.1186339E+00
        -11   -1    0    0    0    0  0.00000000000E+00  0.00000000000E+00  0.45593999997E+02  0.45594000000E+02  0.51100000000E-03 0. -1.
         11   -1    0    0    0    0 -0.00000000000E+00 -0.00000000000E+00 -0.45593999997E+02  0.45594000000E+02  0.51100000000E-03 0.  1.
    9900012    2    1    2    0    0  0.11719690450E+01 -0.62168750618E-01  0.12421416364E+00  0.90007828167E+02  0.90000090699E+02 0.  0.
        -12    1    1    2    0    0 -0.11719690450E+01  0.62168750618E-01 -0.12421416364E+00  0.11801718326E+01  0.00000000000E+00 0.  1.
         11    1    3    3    0    0  0.17173541652E+02 -0.12139510064E+02  0.28378301358E+02  0.35321752869E+02  0.51100000000E-03 0. -1.
        -11    1    3    3    0    0  0.43556557568E+01 -0.75986662241E+00  0.91764060497E+01  0.10186047448E+02  0.51100000000E-03 0.  1.
        -12    1    3    3    0    0 -0.20357228364E+02  0.12837207936E+02 -0.37430493244E+02  0.44500027851E+02  0.00000000000E+00 0.  1.
</event>
<event>
 7    1  0.2294706E-015  0.9000773E+02  0.7816164E-02  0.1186339E+00
        -11   -1    0    0    0    0  0.00000000000E+00  0.00000000000E+00  0.45593999997E+02  0.45594000000E+02  0.51100000000E-03 0.  1.
         11   -1    0    0    0    0 -0.00000000000E+00 -0.00000000000E+00 -0.45593999997E+02  0.45594000000E+02  0.51100000000E-03 0. -1.
    9900012    2    1    2    0    0 -0.80018881130E+00 -0.65908157446E+00  0.56421711406E+00  0.90007732400E+02  0.89999993668E+02 0.  0.
        -12    1    1    2    0    0  0.80018881130E+00  0.65908157446E+00 -0.56421711406E+00  0.11802675999E+01  0.00000000000E+00 0.  1.
         11    1    3    3    0    0  0.26603346080E+02 -0.14485258828E+02 -0.24986242898E+02  0.39266691743E+02  0.51100000000E-03 0. -1.
        -11    1    3    3    0    0  0.65206948185E+01  0.62935447158E+01  0.45893833259E+01  0.10158277688E+02  0.51100000000E-03 0.  1.
        -12    1    3    3    0    0 -0.33924229710E+02  0.75326325381E+01  0.20961076686E+02  0.40582762970E+02  0.00000000000E+00 0.  1.
</event>
<event>
 7    1  0.2294706E-015  0.9000756E+02  0.7816164E-02  0.1186339E+00
        -11   -1    0    0    0    0  0.00000000000E+00  0.00000000000E+00  0.45593999997E+02  0.45594000000E+02  0.51100000000E-03 0. -1.
         11   -1    0    0    0    0 -0.00000000000E+00 -0.00000000000E+00 -0.45593999997E+02  0.45594000000E+02  0.51100000000E-03 0.  1.
    9900012    2    1    2    0    0 -0.17895067374E+00 -0.70094937028E+00  0.93277891166E+00  0.90007563699E+02  0.89999822739E+02 0.  0.
        -12    1    1    2    0    0  0.17895067374E+00  0.70094937028E+00 -0.93277891166E+00  0.11804363013E+01  0.00000000000E+00 0.  1.
         11    1    3    3    0    0  0.94616203400E+01 -0.75901562691E+01  0.32052772494E-01  0.12129870539E+02  0.51100000000E-03 0. -1.
        -11    1    3    3    0    0 -0.19793492333E+02 -0.25326723669E+01  0.35436027026E+02  0.40668277314E+02  0.51100000000E-03 0.  1.
         12    1    3    3    0    0  0.10152921319E+02  0.94218792657E+01 -0.34535300887E+02  0.37209415846E+02  0.00000000000E+00 0. -1.
</event>
<event>
 7    1  0.2294706E-015  0.9000846E+02  0.7816164E-02  0.1186338E+00
        -11   -1    0    0    0    0  0.00000000000E+00  0.00000000000E+00  0.45593999997E+02  0.45594000000E+02  0.51100000000E-03 0.  1.
         11   -1    0    0    0    0 -0.00000000000E+00 -0.00000000000E+00 -0.45593999997E+02  0.45594000000E+02  0.51100000000E-03 0. -1.
    9900012    2    1    2    0    0  0.46015217973E+00 -0.47224856019E+00  0.97804007917E+00  0.90008457238E+02  0.90000728071E+02 0.  0.
        -12    1    1    2    0    0 -0.46015217973E+00  0.47224856019E+00 -0.97804007917E+00  0.11795427621E+01  0.00000000000E+00 0.  1.
         11    1    3    3    0    0  0.76225493261E+01 -0.32826102031E+01  0.41185064437E+01  0.92650355402E+01  0.51100000000E-03 0. -1.
        -11    1    3    3    0    0  0.33002030963E+00  0.84381172781E+01  0.37806396911E+02  0.38738022462E+02  0.51100000000E-03 0.  1.
         12    1    3    3    0    0 -0.74924174560E+01 -0.56277556352E+01 -0.40946863276E+02  0.42005399236E+02  0.00000000000E+00 0. -1.
</event>
<event>
 7    1  0.2294706E-015  0.9000771E+02  0.7816164E-02  0.1186339E+00
        -11   -1    0    0    0    0  0.00000000000E+00  0.00000000000E+00  0.45593999997E+02  0.45594000000E+02  0.51100000000E-03 0.  1.
         11   -1    0    0    0    0 -0.00000000000E+00 -0.00000000000E+00 -0.45593999997E+02  0.45594000000E+02  0.51100000000E-03 0. -1.
    9900012    2    1    2    0    0 -0.51175545684E+00 -0.57175187010E+00 -0.89682118432E+00  0.90007711016E+02  0.89999972002E+02 0.  0.
        -12    1    1    2    0    0  0.51175545684E+00  0.57175187010E+00  0.89682118432E+00  0.11802889838E+01  0.00000000000E+00 0.  1.
         11    1    3    3    0    0  0.18084473989E+01  0.65066817659E+01  0.36097840927E+00  0.67629649763E+01  0.51100000000E-03 0. -1.
        -11    1    3    3    0    0 -0.37184915137E+01  0.37830183994E+02 -0.40502814762E+01  0.38227670350E+02  0.51100000000E-03 0.  1.
         12    1    3    3    0    0  0.13982886580E+01 -0.44908617630E+02  0.27924818826E+01  0.45017075690E+02  0.00000000000E+00 0. -1.
</event>
<event>
 7    1  0.2294706E-015  0.9000781E+02  0.7816164E-02  0.1186339E+00
        -11   -1    0    0    0    0  0.00000000000E+00  0.00000000000E+00  0.45593999997E+02  0.45594000000E+02  0.51100000000E-03 0. -1.
         11   -1    0    0    0    0 -0.00000000000E+00 -0.00000000000E+00 -0.45593999997E+02  0.45594000000E+02  0.51100000000E-03 0.  1.
    9900012    2    1    2    0    0  0.10078772695E+01  0.49670678956E+00  0.36099926823E+00  0.90007807348E+02  0.90000069604E+02 0.  0.
        -12    1    1    2    0    0 -0.10078772695E+01 -0.49670678956E+00 -0.36099926823E+00  0.11801926525E+01  0.00000000000E+00 0.  1.
         11    1    3    3    0    0  0.42324256804E+01 -0.71683448027E+01  0.63828143885E+01  0.10489943476E+02  0.51100000000E-03 0. -1.
        -11    1    3    3    0    0 -0.23812869789E+02 -0.28193965783E+02 -0.92397689404E+01  0.38043735417E+02  0.51100000000E-03 0.  1.
         12    1    3    3    0    0  0.20588321378E+02  0.35859017375E+02  0.32179538201E+01  0.41474128455E+02  0.00000000000E+00 0. -1.
</event>
<event>
 7    1  0.2294706E-015  0.9000777E+02  0.7816164E-02  0.1186339E+00
        -11   -1    0    0    0    0  0.00000000000E+00  0.00000000000E+00  0.45593999997E+02  0.45594000000E+02  0.51100000000E-03 0. -1.
         11   -1    0    0    0    0 -0.00000000000E+00 -0.00000000000E+00 -0.45593999997E+02  0.45594000000E+02  0.51100000000E-03 0.  1.
    9900012    2    1    2    0    0  0.21500118894E+00  0.25646142076E-01  0.11601944462E+01  0.90007773586E+02  0.90000035397E+02 0.  0.
        -12    1    1    2    0    0 -0.21500118894E+00 -0.25646142076E-01 -0.11601944462E+01  0.11802264142E+01  0.00000000000E+00 0.  1.
         11    1    3    3    0    0 -0.65905790223E+01  0.41695205785E+01  0.35578824134E+02  0.36423527571E+02  0.51100000000E-03 0. -1.
        -11    1    3    3    0    0  0.66227223186E+01  0.26714411797E+01  0.79408499624E+01  0.10679613629E+02  0.51100000000E-03 0.  1.
        -12    1    3    3    0    0  0.18285789273E+00 -0.68153156161E+01 -0.42359479650E+02  0.42904632386E+02  0.00000000000E+00 0.  1.
</event>
<event>
 7    1  0.2294706E-015  0.9000779E+02  0.7816164E-02  0.1186339E+00
        -11   -1    0    0    0    0  0.00000000000E+00  0.00000000000E+00  0.45593999997E+02  0.45594000000E+02  0.51100000000E-03 0.  1.
         11   -1    0    0    0    0 -0.00000000000E+00 -0.00000000000E+00 -0.45593999997E+02  0.45594000000E+02  0.51100000000E-03 0. -1.
    9900012    2    1    2    0    0  0.28220143203E+00  0.85892592759E+00 -0.75861731994E+00  0.90007791698E+02  0.90000053749E+02 0.  0.
        -12    1    1    2    0    0 -0.28220143203E+00 -0.85892592759E+00  0.75861731994E+00  0.11802083017E+01  0.00000000000E+00 0.  1.
         11    1    3    3    0    0  0.20143839958E+01 -0.32670875826E+02 -0.16851844403E+02  0.36816144966E+02  0.51100000000E-03 0. -1.
        -11    1    3    3    0    0 -0.18250050583E+01 -0.43444392129E+00 -0.10117311866E+02  0.10289770874E+02  0.51100000000E-03 0.  1.
        -12    1    3    3    0    0  0.92822494576E-01  0.33964245675E+02  0.26210538948E+02  0.42901875859E+02  0.00000000000E+00 0.  1.
</event>
<event>
 7    1  0.2294706E-015  0.9000805E+02  0.7816164E-02  0.1186338E+00
        -11   -1    0    0    0    0  0.00000000000E+00  0.00000000000E+00  0.45593999997E+02  0.45594000000E+02  0.51100000000E-03 0. -1.
         11   -1    0    0    0    0 -0.00000000000E+00 -0.00000000000E+00 -0.45593999997E+02  0.45594000000E+02  0.51100000000E-03 0.  1.
    9900012    2    1    2    0    0  0.43405668179E+00 -0.10513979201E+01  0.31374032422E+00  0.90008052637E+02  0.90000318131E+02 0.  0.
        -12    1    1    2    0    0 -0.43405668179E+00  0.10513979201E+01 -0.31374032422E+00  0.11799473634E+01  0.00000000000E+00 0.  1.
         11    1    3    3    0    0  0.54319813265E+01  0.93070571398E+01 -0.12114413927E+01  0.10844137782E+02  0.51100000000E-03 0. -1.
        -11    1    3    3    0    0  0.49952888276E+00  0.33699519327E+02  0.70169700391E+01  0.34425935002E+02  0.51100000000E-03 0.  1.
         12    1    3    3    0    0 -0.54974535275E+01 -0.44057974386E+02 -0.54917883222E+01  0.44737979853E+02  0.00000000000E+00 0. -1.
</event>
<event>
 7    1  0.2294706E-015  0.9000785E+02  0.7816164E-02  0.1186339E+00
        -11   -1    0    0    0    0  0.00000000000E+00  0.00000000000E+00  0.45593999997E+02  0.45594000000E+02  0.51100000000E-03 0.  1.
         11   -1    0    0    0    0 -0.00000000000E+00 -0.00000000000E+00 -0.45593999997E+02  0.45594000000E+02  0.51100000000E-03 0. -1.
    9900012    2    1    2    0    0 -0.67189836963E+00  0.90556779648E+00 -0.34822459990E+00  0.90007847118E+02  0.90000109900E+02 0.  0.
        -12    1    1    2    0    0  0.67189836963E+00 -0.90556779648E+00  0.34822459990E+00  0.11801528821E+01  0.00000000000E+00 0.  1.
         11    1    3    3    0    0 -0.36473270948E+02  0.46076595202E+01 -0.11340071533E+02  0.38472421844E+02  0.51100000000E-03 0. -1.
        -11    1    3    3    0    0  0.51608760227E+01 -0.11327911654E+02 -0.78969189295E+01  0.14741694360E+02  0.51100000000E-03 0.  1.
        -12    1    3    3    0    0  0.30640496555E+02  0.76258199307E+01  0.18888765862E+02  0.36793730914E+02  0.00000000000E+00 0.  1.
</event>
<event>
 7    1  0.2294706E-015  0.9000769E+02  0.7816164E-02  0.1186339E+00
        -11   -1    0    0    0    0  0.00000000000E+00  0.00000000000E+00  0.45593999997E+02  0.45594000000E+02  0.51100000000E-03 0.  1.
         11   -1    0    0    0    0 -0.00000000000E+00 -0.00000000000E+00 -0.45593999997E+02  0.45594000000E+02  0.51100000000E-03 0. -1.
    9900012    2    1    2    0    0  0.23137052899E+00  0.10790230714E+01 -0.41869547588E+00  0.90007691137E+02  0.89999951860E+02 0.  0.
        -12    1    1    2    0    0 -0.23137052899E+00 -0.10790230714E+01  0.41869547588E+00  0.11803088629E+01  0.00000000000E+00 0.  1.
         11    1    3    3    0    0 -0.35504118439E+02  0.10697935835E+01  0.10052601654E+02  0.36915331297E+02  0.51100000000E-03 0. -1.
        -11    1    3    3    0    0 -0.48820490764E+01 -0.74907117084E+01  0.33333812791E+01  0.95423579946E+01  0.51100000000E-03 0.  1.
        -12    1    3    3    0    0  0.40617538045E+02  0.74999411963E+01 -0.13804678409E+02  0.43550001846E+02  0.00000000000E+00 0.  1.
</event>
<event>
 7    1  0.2294706E-015  0.9000780E+02  0.7816164E-02  0.1186339E+00
        -11   -1    0    0    0    0  0.00000000000E+00  0.00000000000E+00  0.45593999997E+02  0.45594000000E+02  0.51100000000E-03 0. -1.
         11   -1    0    0    0    0 -0.00000000000E+00 -0.00000000000E+00 -0.45593999997E+02  0.45594000000E+02  0.51100000000E-03 0.  1.
    9900012    2    1    2    0    0 -0.58720439794E+00 -0.22278225386E+00  0.99921827370E+00  0.90007797434E+02  0.90000059560E+02 0.  0.
        -12    1    1    2    0    0  0.58720439794E+00  0.22278225386E+00 -0.99921827370E+00  0.11802025657E+01  0.00000000000E+00 0.  1.
         11    1    3    3    0    0 -0.73647215387E+01  0.25776873846E+01 -0.65768487574E+01  0.10204829025E+02  0.51100000000E-03 0. -1.
        -11    1    3    3    0    0 -0.27485764460E+02  0.21768708568E+02  0.12785820652E+02  0.37320518896E+02  0.51100000000E-03 0.  1.
         12    1    3    3    0    0  0.34263281601E+02 -0.24569178206E+02 -0.52097536213E+01  0.42482449513E+02  0.00000000000E+00 0. -1.
</event>
<event>
 7    1  0.2294706E-015  0.9000754E+02  0.7816164E-02  0.1186339E+00
        -11   -1    0    0    0    0  0.00000000000E+00  0.00000000000E+00  0.45593999997E+02  0.45594000000E+02  0.51100000000E-03 0.  1.
         11   -1    0    0    0    0 -0.00000000000E+00 -0.00000000000E+00 -0.45593999997E+02  0.45594000000E+02  0.51100000000E-03 0. -1.
    9900012    2    1    2    0    0 -0.83007302661E+00 -0.19772027716E+00 -0.81570656031E+00  0.90007537493E+02  0.89999796188E+02 0.  0.
        -12    1    1    2    0    0  0.83007302661E+00  0.19772027716E+00  0.81570656031E+00  0.11804625068E+01  0.00000000000E+00 0.  1.
         11    1    3    3    0    0  0.28447348782E+02  0.19975947406E+02 -0.17462557868E+02  0.38900270630E+02  0.51100000000E-03 0. -1.
        -11    1    3    3    0    0  0.37372246418E+01 -0.33499860232E+01 -0.58895867913E+01  0.77379898690E+01  0.51100000000E-03 0.  1.
        -12    1    3    3    0    0 -0.33014646451E+02 -0.16823681660E+02  0.22536438099E+02  0.43369276995E+02  0.00000000000E+00 0.  1.
</event>
<event>
 7    1  0.2294706E-015  0.9000770E+02  0.7816164E-02  0.1186339E+00
        -11   -1    0    0    0    0  0.00000000000E+00  0.00000000000E+00  0.45593999997E+02  0.45594000000E+02  0.51100000000E-03 0. -1.
         11   -1    0    0    0    0 -0.00000000000E+00 -0.00000000000E+00 -0.45593999997E+02  0.45594000000E+02  0.51100000000E-03 0.  1.
    9900012    2    1    2    0    0  0.11033445007E+00 -0.92055949822E+00  0.73041199620E+00  0.90007701239E+02  0.89999962096E+02 0.  0.
        -12    1    1    2    0    0 -0.11033445007E+00  0.92055949822E+00 -0.73041199620E+00  0.11802987608E+01  0.00000000000E+00 0.  1.
         11    1    3    3    0    0 -0.11000321576E+02 -0.12240837393E+02  0.12397482692E+02  0.20604435256E+02  0.51100000000E-03 0. -1.
        -11    1    3    3    0    0 -0.23956516907E+02  0.18649040781E+02 -0.14144665164E+02  0.33492879501E+02  0.51100000000E-03 0.  1.
         12    1    3    3    0    0  0.35067172933E+02 -0.73287628860E+01  0.24775944680E+01  0.35910386482E+02  0.00000000000E+00 0. -1.
</event>
<event>
 7    1  0.2294706E-015  0.9000779E+02  0.7816164E-02  0.1186339E+00
        -11   -1    0    0    0    0  0.00000000000E+00  0.00000000000E+00  0.45593999997E+02  0.45594000000E+02  0.51100000000E-03 0.  1.
         11   -1    0    0    0    0 -0.00000000000E+00 -0.00000000000E+00 -0.45593999997E+02  0.45594000000E+02  0.51100000000E-03 0. -1.
    9900012    2    1    2    0    0 -0.59409800553E+00 -0.69571725649E+00 -0.74560869381E+00  0.90007785077E+02  0.90000047040E+02 0.  0.
        -12    1    1    2    0    0  0.59409800553E+00  0.69571725649E+00  0.74560869381E+00  0.11802149234E+01  0.00000000000E+00 0.  1.
         11    1    3    3    0    0 -0.83181900200E+01  0.17163969244E+01  0.23239857394E+01  0.88056353314E+01  0.51100000000E-03 0. -1.
        -11    1    3    3    0    0  0.20749665088E+02  0.20629392523E+02  0.27923095492E+02  0.40445267947E+02  0.51100000000E-03 0.  1.
         12    1    3    3    0    0 -0.13025573074E+02 -0.23041506704E+02 -0.30992689926E+02  0.40756881798E+02  0.00000000000E+00 0. -1.
</event>
<event>
 7    1  0.2294706E-015  0.9000777E+02  0.7816164E-02  0.1186339E+00
        -11   -1    0    0    0    0  0.00000000000E+00  0.00000000000E+00  0.45593999997E+02  0.45594000000E+02  0.51100000000E-03 0. -1.
         11   -1    0    0    0    0 -0.00000000000E+00 -0.00000000000E+00 -0.45593999997E+02  0.45594000000E+02  0.51100000000E-03 0.  1.
    9900012    2    1    2    0    0 -0.87068720102E+00  0.23746727014E+00 -0.76056909730E+00  0.90007766015E+02  0.90000027727E+02 0.  0.
        -12    1    1    2    0    0  0.87068720102E+00 -0.23746727014E+00  0.76056909730E+00  0.11802339845E+01  0.00000000000E+00 0.  1.
         11    1    3    3    0    0 -0.67948128812E+01  0.59584443836E+01  0.13091667565E+01  0.91316186638E+01  0.51100000000E-03 0. -1.
        -11    1    3    3    0    0 -0.37321119090E+02 -0.43633239476E+01 -0.40206639672E+00  0.37577469095E+02  0.51100000000E-03 0.  1.
         12    1    3    3    0    0  0.43245244770E+02 -0.13576531659E+01 -0.16676694571E+01  0.43298678256E+02  0.00000000000E+00 0. -1.
</event>
<event>
 7    1  0.2294706E-015  0.9000779E+02  0.7816164E-02  0.1186339E+00
        -11   -1    0    0    0    0  0.00000000000E+00  0.00000000000E+00  0.45593999997E+02  0.45594000000E+02  0.51100000000E-03 0.  1.
         11   -1    0    0    0    0 -0.00000000000E+00 -0.00000000000E+00 -0.45593999997E+02  0.45594000000E+02  0.51100000000E-03 0. -1.
    9900012    2    1    2    0    0 -0.12947376914E+00  0.97760996868E+00 -0.64838571980E+00  0.90007792921E+02  0.90000054988E+02 0.  0.
        -12    1    1    2    0    0  0.12947376914E+00 -0.97760996868E+00  0.64838571980E+00  0.11802070790E+01  0.00000000000E+00 0.  1.
         11    1    3    3    0    0 -0.91881517378E+01 -0.33293801090E+02  0.16204674807E+02  0.38150895261E+02  0.51100000000E-03 0. -1.
        -11    1    3    3    0    0  0.12958436306E+01 -0.57740448271E+01 -0.82759006908E+01  0.10173953847E+02  0.51100000000E-03 0.  1.
        -12    1    3    3    0    0  0.77628343380E+01  0.40045455886E+02 -0.85771598360E+01  0.41682943813E+02  0.00000000000E+00 0.  1.
</event>
<event>
 7    1  0.2294706E-015  0.9000770E+02  0.7816164E-02  0.1186339E+00
        -11   -1    0    0    0    0  0.00000000000E+00  0.00000000000E+00  0.45593999997E+02  0.45594000000E+02  0.51100000000E-03 0.  1.
         11   -1    0    0    0    0 -0.00000000000E+00 -0.00000000000E+00 -0.45593999997E+02  0.45594000000E+02  0.51100000000E-03 0. -1.
    9900012    2    1    2    0    0  0.76464511885E+00 -0.10231854199E+00 -0.89328833993E+00  0.90007696946E+02  0.89999957745E+02 0.  0.
        -12    1    1    2    0    0 -0.76464511885E+00  0.10231854199E+00  0.89328833993E+00  0.11803030543E+01  0.00000000000E+00 0.  1.
         11    1    3    3    0    0 -0.46306214955E+01  0.74120714561E+01 -0.51782568989E+01  0.10158533530E+02  0.51100000000E-03 0. -1.
        -11    1    3    3    0    0 -0.25252938014E+02 -0.11733318394E+02  0.29035390647E+02  0.40229784354E+02  0.51100000000E-03 0.  1.
         12    1    3    3    0    0  0.30648204628E+02  0.42189283962E+01 -0.24750422088E+02  0.39619379062E+02  0.00000000000E+00 0. -1.
</event>
<event>
 7    1  0.2294706E-015  0.9000774E+02  0.7816164E-02  0.1186339E+00
        -11   -1    0    0    0    0  0.00000000000E+00  0.00000000000E+00  0.45593999997E+02  0.45594000000E+02  0.51100000000E-03 0. -1.
         11   -1    0    0    0    0 -0.00000000000E+00 -0.00000000000E+00 -0.45593999997E+02  0.45594000000E+02  0.51100000000E-03 0.  1.
    9900012    2    1    2    0    0  0.80418176689E+00 -0.80067610927E+00 -0.32438338886E+00  0.90007739381E+02  0.90000000741E+02 0.  0.
        -12    1    1    2    0    0 -0.80418176689E+00  0.80067610927E+00  0.32438338886E+00  0.11802606192E+01  0.00000000000E+00 0.  1.
         11    1    3    3    0    0  0.17593379182E+02  0.12163907014E+02  0.31217501166E+02  0.37842040170E+02  0.51100000000E-03 0. -1.
        -11    1    3    3    0    0  0.69819446786E+01 -0.56978604823E+00  0.36712819346E+01  0.79088886033E+01  0.51100000000E-03 0.  1.
        -12    1    3    3    0    0 -0.23771142094E+02 -0.12394797075E+02 -0.35213166489E+02  0.44256810608E+02  0.00000000000E+00 0.  1.
</event>
<event>
 7    1  0.2294706E-015  0.9000768E+02  0.7816164E-02  0.1186339E+00
        -11   -1    0    0    0    0  0.00000000000E+00  0.00000000000E+00  0.45593999997E+02  0.45594000000E+02  0.51100000000E-03 0.  1.
         11   -1    0    0    0    0 -0.00000000000E+00 -0.00000000000E+00 -0.45593999997E+02  0.45594000000E+02  0.51100000000E-03 0. -1.
    9900012    2    1    2    0    0  0.80455564581E+00  0.52564169725E-01 -0.86202524894E+00  0.90007677879E+02  0.89999938427E+02 0.  0.
        -12    1    1    2    0    0 -0.80455564581E+00 -0.52564169725E-01  0.86202524894E+00  0.11803221208E+01  0.00000000000E+00 0.  1.
         11    1    3    3    0    0 -0.12161860975E+02  0.13755084292E+02 -0.36647401544E+02  0.40989574851E+02  0.51100000000E-03 0. -1.
        -11    1    3    3    0    0 -0.27489914821E+00 -0.76907992710E+01 -0.24777420789E+01  0.80847491637E+01  0.51100000000E-03 0.  1.
        -12    1    3    3    0    0  0.13241315769E+02 -0.60117208509E+01  0.38263118374E+02  0.40933353865E+02  0.00000000000E+00 0.  1.
</event>
<event>
 7    1  0.2294706E-015  0.9000787E+02  0.7816164E-02  0.1186339E+00
        -11   -1    0    0    0    0  0.00000000000E+00  0.00000000000E+00  0.45593999997E+02  0.45594000000E+02  0.51100000000E-03 0. -1.
         11   -1    0    0    0    0 -0.00000000000E+00 -0.00000000000E+00 -0.45593999997E+02  0.45594000000E+02  0.51100000000E-03 0.  1.
    9900012    2    1    2    0    0 -0.30008497987E+00 -0.61895020495E+00  0.95893874907E+00  0.90007867009E+02  0.90000130054E+02 0.  0.
        -12    1    1    2    0    0  0.30008497987E+00  0.61895020495E+00 -0.95893874907E+00  0.11801329907E+01  0.00000000000E+00 0.  1.
         11    1    3    3    0    0 -0.20863601952E+01 -0.31177375387E+01  0.97116233075E+01  0.10410994849E+02  0.51100000000E-03 0. -1.
        -11    1    3    3    0    0 -0.60553256114E+01  0.38535874348E+02 -0.15732596266E+02  0.42061801740E+02  0.51100000000E-03 0.  1.
         12    1    3    3    0    0  0.78416008267E+01 -0.36037087015E+02  0.69799117075E+01  0.37535070420E+02  0.00000000000E+00 0. -1.
</event>
<event>
 7    1  0.2294706E-015  0.9000767E+02  0.7816164E-02  0.1186339E+00
        -11   -1    0    0    0    0  0.00000000000E+00  0.00000000000E+00  0.45593999997E+02  0.45594000000E+02  0.51100000000E-03 0.  1.
         11   -1    0    0    0    0 -0.00000000000E+00 -0.00000000000E+00 -0.45593999997E+02  0.45594000000E+02  0.51100000000E-03 0. -1.
    9900012    2    1    2    0    0  0.72379425578E-01  0.65201354056E+00 -0.98123160307E+00  0.90007671276E+02  0.89999931737E+02 0.  0.
        -12    1    1    2    0    0 -0.72379425578E-01 -0.65201354056E+00  0.98123160307E+00  0.11803287242E+01  0.00000000000E+00 0.  1.
         11    1    3    3    0    0  0.33632169641E+02 -0.15147428736E+02 -0.53799396896E+01  0.37276147647E+02  0.51100000000E-03 0. -1.
        -11    1    3    3    0    0  0.69870194101E+01  0.27786464759E+01 -0.51169046137E+01  0.90951651751E+01  0.51100000000E-03 0.  1.
        -12    1    3    3    0    0 -0.40546809625E+02  0.13020795800E+02  0.95156127003E+01  0.43636358454E+02  0.00000000000E+00 0.  1.
</event>
<event>
 7    1  0.2294706E-015  0.9000726E+02  0.7816164E-02  0.1186340E+00
        -11   -1    0    0    0    0  0.00000000000E+00  0.00000000000E+00  0.45593999997E+02  0.45594000000E+02  0.51100000000E-03 0.  1.
         11   -1    0    0    0    0 -0.00000000000E+00 -0.00000000000E+00 -0.45593999997E+02  0.45594000000E+02  0.51100000000E-03 0. -1.
    9900012    2    1    2    0    0  0.82470463608E+00 -0.22094178325E+00 -0.81559168994E+00  0.90007261751E+02  0.89999516805E+02 0.  0.
        -12    1    1    2    0    0 -0.82470463608E+00  0.22094178325E+00  0.81559168994E+00  0.11807382492E+01  0.00000000000E+00 0.  1.
         11    1    3    3    0    0 -0.15270821661E+02 -0.35329184204E+02  0.24238072004E+01  0.38564544498E+02  0.51100000000E-03 0. -1.
        -11    1    3    3    0    0  0.51734382938E+01 -0.55427320731E+01 -0.53781394046E+01  0.92957369976E+01  0.51100000000E-03 0.  1.
        -12    1    3    3    0    0  0.10922088003E+02  0.40650974494E+02  0.21387405142E+01  0.42146980255E+02  0.00000000000E+00 0.  1.
</event>
<event>
 7    1  0.2294706E-015  0.9000777E+02  0.7816164E-02  0.1186339E+00
        -11   -1    0    0    0    0  0.00000000000E+00  0.00000000000E+00  0.45593999997E+02  0.45594000000E+02  0.51100000000E-03 0.  1.
         11   -1    0    0    0    0 -0.00000000000E+00 -0.00000000000E+00 -0.45593999997E+02  0.45594000000E+02  0.51100000000E-03 0. -1.
    9900012    2    1    2    0    0  0.48573572387E-01 -0.34684413880E+00 -0.11270727585E+01  0.90007765595E+02  0.90000027301E+02 0.  0.
        -12    1    1    2    0    0 -0.48573572387E-01  0.34684413880E+00  0.11270727585E+01  0.11802344053E+01  0.00000000000E+00 0.  1.
         11    1    3    3    0    0  0.26358143312E+02  0.37636323197E+01  0.22253594060E+02  0.34700707427E+02  0.51100000000E-03 0. -1.
        -11    1    3    3    0    0  0.47347751654E+01  0.88257002318E+01  0.50971734253E+01  0.11237982810E+02  0.51100000000E-03 0.  1.
        -12    1    3    3    0    0 -0.31044344905E+02 -0.12936176690E+02 -0.28477840244E+02  0.44069075358E+02  0.00000000000E+00 0.  1.
</event>
<event>
 7    1  0.2294706E-015  0.9000777E+02  0.7816164E-02  0.1186339E+00
        -11   -1    0    0    0    0  0.00000000000E+00  0.00000000000E+00  0.45593999997E+02  0.45594000000E+02  0.51100000000E-03 0.  1.
         11   -1    0    0    0    0 -0.00000000000E+00 -0.00000000000E+00 -0.45593999997E+02  0.45594000000E+02  0.51100000000E-03 0. -1.
    9900012    2    1    2    0    0 -0.44653727135E+00 -0.31732245851E+00  0.10454001536E+01  0.90007766736E+02  0.90000028456E+02 0.  0.
        -12    1    1    2    0    0  0.44653727135E+00  0.31732245851E+00 -0.10454001536E+01  0.11802332644E+01  0.00000000000E+00 0.  1.
         11    1    3    3    0    0 -0.35476027555E+01 -0.87491845227E+01 -0.11905198033E+01  0.95158316917E+01  0.51100000000E-03 0. -1.
        -11    1    3    3    0    0  0.39023146305E+02 -0.83736415169E+01  0.70929353112E+01  0.40536817233E+02  0.51100000000E-03 0.  1.
         12    1    3    3    0    0 -0.35922080821E+02  0.16805503581E+02 -0.48570153544E+01  0.39955117811E+02  0.00000000000E+00 0. -1.
</event>
<event>
 7    1  0.2294706E-015  0.9000748E+02  0.7816164E-02  0.1186340E+00
        -11   -1    0    0    0    0  0.00000000000E+00  0.00000000000E+00  0.45593999997E+02  0.45594000000E+02  0.51100000000E-03 0. -1.
         11   -1    0    0    0    0 -0.00000000000E+00 -0.00000000000E+00 -0.45593999997E+02  0.45594000000E+02  0.51100000000E-03 0.  1.
    9900012    2    1    2    0    0  0.11567930910E+01  0.20757621396E+00 -0.11125928128E+00  0.90007476062E+02  0.89999733946E+02 0.  0.
        -12    1    1    2    0    0 -0.11567930910E+01 -0.20757621396E+00  0.11125928128E+00  0.11805239378E+01  0.00000000000E+00 0.  1.
         11    1    3    3    0    0 -0.94880976144E+01  0.15649736818E+02  0.10318063976E+01  0.18330381434E+02  0.51100000000E-03 0. -1.
        -11    1    3    3    0    0 -0.17240851440E+02  0.11396354586E+02 -0.19880648950E+02  0.28676890682E+02  0.51100000000E-03 0.  1.
         12    1    3    3    0    0  0.27885742145E+02 -0.26838515190E+02  0.18737583272E+02  0.43000203947E+02  0.00000000000E+00 0. -1.
</event>
<event>
 7    1  0.2294706E-015  0.9000778E+02  0.7816164E-02  0.1186339E+00
        -11   -1    0    0    0    0  0.00000000000E+00  0.00000000000E+00  0.45593999997E+02  0.45594000000E+02  0.51100000000E-03 0.  1.
         11   -1    0    0    0    0 -0.00000000000E+00 -0.00000000000E+00 -0.45593999997E+02  0.45594000000E+02  0.51100000000E-03 0. -1.
    9900012    2    1    2    0    0  0.25714378425E-01 -0.74670183409E+00 -0.91362110631E+00  0.90007776130E+02  0.90000037975E+02 0.  0.
        -12    1    1    2    0    0 -0.25714378425E-01  0.74670183409E+00  0.91362110631E+00  0.11802238704E+01  0.00000000000E+00 0.  1.
         11    1    3    3    0    0  0.79979428674E+01  0.66957810727E+00  0.33343170767E+01  0.86909778265E+01  0.51100000000E-03 0. -1.
        -11    1    3    3    0    0  0.93437988257E+01 -0.11463919238E+02  0.34591924842E+02  0.37620862368E+02  0.51100000000E-03 0.  1.
         12    1    3    3    0    0 -0.17316027315E+02  0.10047639297E+02 -0.38839863025E+02  0.43695935935E+02  0.00000000000E+00 0. -1.
</event>
<event>
 7    1  0.2294706E-015  0.9000780E+02  0.7816164E-02  0.1186339E+00
        -11   -1    0    0    0    0  0.00000000000E+00  0.00000000000E+00  0.45593999997E+02  0.45594000000E+02  0.51100000000E-03 0.  1.
         11   -1    0    0    0    0 -0.00000000000E+00 -0.00000000000E+00 -0.45593999997E+02  0.45594000000E+02  0.51100000000E-03 0. -1.
    9900012    2    1    2    0    0 -0.96939549617E+00 -0.19775266704E+00  0.64346482064E+00  0.90007796322E+02  0.90000058434E+02 0.  0.
        -12    1    1    2    0    0  0.96939549617E+00  0.19775266704E+00 -0.64346482064E+00  0.11802036776E+01  0.00000000000E+00 0.  1.
         11    1    3    3    0    0 -0.67673479719E+01  0.62234276345E+01 -0.27642517401E+01  0.96004759277E+01  0.51100000000E-03 0. -1.
        -11    1    3    3    0    0 -0.17564923419E+02  0.27929336983E+02  0.16448073586E+02  0.36866156892E+02  0.51100000000E-03 0.  1.
         12    1    3    3    0    0  0.23362875895E+02 -0.34350517285E+02 -0.13040357025E+02  0.43541163503E+02  0.00000000000E+00 0. -1.
</event>
<event>
 7    1  0.2294706E-015  0.9000775E+02  0.7816164E-02  0.1186339E+00
        -11   -1    0    0    0    0  0.00000000000E+00  0.00000000000E+00  0.45593999997E+02  0.45594000000E+02  0.51100000000E-03 0. -1.
         11   -1    0    0    0    0 -0.00000000000E+00 -0.00000000000E+00 -0.45593999997E+02  0.45594000000E+02  0.51100000000E-03 0.  1.
    9900012    2    1    2    0    0  0.49265795689E+00 -0.10504493748E+01 -0.21638915961E+00  0.90007754254E+02  0.90000015811E+02 0.  0.
        -12    1    1    2    0    0 -0.49265795689E+00  0.10504493748E+01  0.21638915961E+00  0.11802457456E+01  0.00000000000E+00 0.  1.
         11    1    3    3    0    0 -0.32927198646E+02  0.22963713842E+02  0.27837141648E+01  0.40240298569E+02  0.51100000000E-03 0. -1.
        -11    1    3    3    0    0  0.74588360189E+01  0.63012949493E+01 -0.52402936083E+00  0.97783004570E+01  0.51100000000E-03 0.  1.
        -12    1    3    3    0    0  0.25961020584E+02 -0.30315458166E+02 -0.24760739636E+01  0.39989155228E+02  0.00000000000E+00 0.  1.
</event>
<event>
 7    1  0.2294706E-015  0.9000762E+02  0.7816164E-02  0.1186339E+00
        -11   -1    0    0    0    0  0.00000000000E+00  0.00000000000E+00  0.45593999997E+02  0.45594000000E+02  0.51100000000E-03 0. -1.
         11   -1    0    0    0    0 -0.00000000000E+00 -0.00000000000E+00 -0.45593999997E+02  0.45594000000E+02  0.51100000000E-03 0.  1.
    9900012    2    1    2    0    0  0.15304223096E+00  0.22992076091E+00  0.11476153498E+01  0.90007615964E+02  0.89999875695E+02 0.  0.
        -12    1    1    2    0    0 -0.15304223096E+00 -0.22992076091E+00 -0.11476153498E+01  0.11803840357E+01  0.00000000000E+00 0.  1.
         11    1    3    3    0    0 -0.46047488394E+00  0.47078277948E+01 -0.81589428502E+01  0.94310141745E+01  0.51100000000E-03 0. -1.
        -11    1    3    3    0    0 -0.46457869234E+01 -0.41945310882E+02  0.50883677848E+01  0.42507457323E+02  0.51100000000E-03 0.  1.
         12    1    3    3    0    0  0.52593040383E+01  0.37467403848E+02  0.42181904152E+01  0.38069144467E+02  0.00000000000E+00 0. -1.
</event>
<event>
 7    1  0.2353990E-015  0.9000773E+02  0.7816164E-02  0.1186339E+00
        -11   -1    0    0    0    0  0.00000000000E+00  0.00000000000E+00  0.45593999997E+02  0.45594000000E+02  0.51100000000E-03 0. -1.
         11   -1    0    0    0    0 -0.00000000000E+00 -0.00000000000E+00 -0.45593999997E+02  0.45594000000E+02  0.51100000000E-03 0.  1.
    9900012    2    1    2    0    0 -0.75362299304E+00  0.37455576727E+00  0.82752807430E+00  0.90007727848E+02  0.89999989056E+02 0.  0.
        -12    1    1    2    0    0  0.75362299304E+00 -0.37455576727E+00 -0.82752807430E+00  0.11802721517E+01  0.00000000000E+00 0.  1.
         11    1    3    3    0    0 -0.17208854597E+02 -0.84719891104E+01  0.34352801594E+02  0.39345066446E+02  0.51100000000E-03 0. -1.
        -11    1    3    3    0    0 -0.24843735132E+01 -0.85721323071E+01 -0.69767965601E+00  0.89521126673E+01  0.51100000000E-03 0.  1.
        -12    1    3    3    0    0  0.18939605118E+02  0.17418677185E+02 -0.32827593864E+02  0.41710548735E+02  0.00000000000E+00 0.  1.
</event>
<event>
 7    1  0.2294706E-015  0.9000772E+02  0.7816164E-02  0.1186339E+00
        -11   -1    0    0    0    0  0.00000000000E+00  0.00000000000E+00  0.45593999997E+02  0.45594000000E+02  0.51100000000E-03 0. -1.
         11   -1    0    0    0    0 -0.00000000000E+00 -0.00000000000E+00 -0.45593999997E+02  0.45594000000E+02  0.51100000000E-03 0.  1.
    9900012    2    1    2    0    0  0.13799866540E+00 -0.10810945967E+01  0.45305077603E+00  0.90007718608E+02  0.89999979694E+02 0.  0.
        -12    1    1    2    0    0 -0.13799866540E+00  0.10810945967E+01 -0.45305077603E+00  0.11802813920E+01  0.00000000000E+00 0.  1.
         11    1    3    3    0    0 -0.42579875671E+01  0.60523320433E+01 -0.31428841832E+01  0.80398322454E+01  0.51100000000E-03 0. -1.
        -11    1    3    3    0    0 -0.18806925961E+02  0.25734487071E+02 -0.17687003747E+02  0.36452632151E+02  0.51100000000E-03 0.  1.
         12    1    3    3    0    0  0.23202912194E+02 -0.32867913711E+02  0.21282938707E+02  0.45515254212E+02  0.00000000000E+00 0. -1.
</event>
<event>
 7    1  0.2294706E-015  0.9000774E+02  0.7816164E-02  0.1186339E+00
        -11   -1    0    0    0    0  0.00000000000E+00  0.00000000000E+00  0.45593999997E+02  0.45594000000E+02  0.51100000000E-03 0.  1.
         11   -1    0    0    0    0 -0.00000000000E+00 -0.00000000000E+00 -0.45593999997E+02  0.45594000000E+02  0.51100000000E-03 0. -1.
    9900012    2    1    2    0    0  0.20103266931E+00 -0.11188518375E+01 -0.31745009098E+00  0.90007738110E+02  0.89999999453E+02 0.  0.
        -12    1    1    2    0    0 -0.20103266931E+00  0.11188518375E+01  0.31745009098E+00  0.11802618898E+01  0.00000000000E+00 0.  1.
         11    1    3    3    0    0  0.36250943115E+01 -0.41284026710E+02  0.31613703257E+01  0.41563282267E+02  0.51100000000E-03 0. -1.
        -11    1    3    3    0    0  0.20558346973E+01  0.16169415595E+01 -0.87691556464E+01  0.91509041806E+01  0.51100000000E-03 0.  1.
        -12    1    3    3    0    0 -0.54798963395E+01  0.38548233313E+02  0.52903352298E+01  0.39293551663E+02  0.00000000000E+00 0.  1.
</event>
<event>
 7    1  0.2294706E-015  0.9000782E+02  0.7816164E-02  0.1186339E+00
        -11   -1    0    0    0    0  0.00000000000E+00  0.00000000000E+00  0.45593999997E+02  0.45594000000E+02  0.51100000000E-03 0. -1.
         11   -1    0    0    0    0 -0.00000000000E+00 -0.00000000000E+00 -0.45593999997E+02  0.45594000000E+02  0.51100000000E-03 0.  1.
    9900012    2    1    2    0    0  0.10171181584E+01  0.59813916334E+00  0.22700437456E-01  0.90007824116E+02  0.90000086595E+02 0.  0.
        -12    1    1    2    0    0 -0.10171181584E+01 -0.59813916334E+00 -0.22700437456E-01  0.11801758838E+01  0.00000000000E+00 0.  1.
         11    1    3    3    0    0  0.50837337340E+01  0.66159367165E+01  0.33972748565E+01  0.90086871422E+01  0.51100000000E-03 0. -1.
        -11    1    3    3    0    0  0.21971595193E+02  0.22234482851E+02 -0.22075883929E+02  0.38268366499E+02  0.51100000000E-03 0.  1.
         12    1    3    3    0    0 -0.26038210768E+02 -0.28252280404E+02  0.18701309510E+02  0.42730770475E+02  0.00000000000E+00 0. -1.
</event>
<event>
 7    1  0.2294706E-015  0.9000779E+02  0.7816164E-02  0.1186339E+00
        -11   -1    0    0    0    0  0.00000000000E+00  0.00000000000E+00  0.45593999997E+02  0.45594000000E+02  0.51100000000E-03 0.  1.
         11   -1    0    0    0    0 -0.00000000000E+00 -0.00000000000E+00 -0.45593999997E+02  0.45594000000E+02  0.51100000000E-03 0. -1.
    9900012    2    1    2    0    0  0.79559967935E+00 -0.86506025827E+00  0.10768393410E+00  0.90007786490E+02  0.90000048471E+02 0.  0.
        -12    1    1    2    0    0 -0.79559967935E+00  0.86506025827E+00 -0.10768393410E+00  0.11802135103E+01  0.00000000000E+00 0.  1.
         11    1    3    3    0    0 -0.41718826176E+01  0.50013495099E+01 -0.64073169891E+01  0.91362909736E+01  0.51100000000E-03 0. -1.
        -11    1    3    3    0    0 -0.14295739001E+02 -0.21804449464E+02  0.34565211361E+02  0.43296143093E+02  0.51100000000E-03 0.  1.
         12    1    3    3    0    0  0.19263221297E+02  0.15938039696E+02 -0.28050210438E+02  0.37575352423E+02  0.00000000000E+00 0. -1.
</event>
<event>
 7    1  0.2294706E-015  0.9000759E+02  0.7816164E-02  0.1186339E+00
        -11   -1    0    0    0    0  0.00000000000E+00  0.00000000000E+00  0.45593999997E+02  0.45594000000E+02  0.51100000000E-03 0.  1.
         11   -1    0    0    0    0 -0.00000000000E+00 -0.00000000000E+00 -0.45593999997E+02  0.45594000000E+02  0.51100000000E-03 0. -1.
    9900012    2    1    2    0    0 -0.16564302892E+00  0.95538170574E+00  0.67319005950E+00  0.90007586228E+02  0.89999845566E+02 0.  0.
        -12    1    1    2    0    0  0.16564302892E+00 -0.95538170574E+00 -0.67319005950E+00  0.11804137719E+01  0.00000000000E+00 0.  1.
         11    1    3    3    0    0 -0.18787719250E+02  0.24628658194E+02 -0.17671234969E+02  0.35662609896E+02  0.51100000000E-03 0. -1.
        -11    1    3    3    0    0 -0.13337665949E+02 -0.80356259153E+01  0.58821072372E+01  0.16645233631E+02  0.51100000000E-03 0.  1.
         12    1    3    3    0    0  0.31959742170E+02 -0.15637650573E+02  0.12462317791E+02  0.37699742701E+02  0.00000000000E+00 0. -1.
</event>
<event>
 7    1  0.2294706E-015  0.9000774E+02  0.7816164E-02  0.1186339E+00
        -11   -1    0    0    0    0  0.00000000000E+00  0.00000000000E+00  0.45593999997E+02  0.45594000000E+02  0.51100000000E-03 0.  1.
         11   -1    0    0    0    0 -0.00000000000E+00 -0.00000000000E+00 -0.45593999997E+02  0.45594000000E+02  0.51100000000E-03 0. -1.
    9900012    2    1    2    0    0  0.33170573971E+00  0.71342594626E+00 -0.87978076505E+00  0.90007737541E+02  0.89999998876E+02 0.  0.
        -12    1    1    2    0    0 -0.33170573971E+00 -0.71342594626E+00  0.87978076505E+00  0.11802624594E+01  0.00000000000E+00 0.  1.
         11    1    3    3    0    0 -0.24308818015E+02  0.36726633809E+01 -0.26973055873E+02  0.36495928992E+02  0.51100000000E-03 0. -1.
        -11    1    3    3    0    0  0.16198622642E+01  0.10781645676E+01 -0.10178126019E+02  0.10362463130E+02  0.51100000000E-03 0.  1.
        -12    1    3    3    0    0  0.23020661491E+02 -0.40374020023E+01  0.36271401127E+02  0.43149345419E+02  0.00000000000E+00 0.  1.
</event>
<event>
 7    1  0.2294706E-015  0.9000774E+02  0.7816164E-02  0.1186339E+00
        -11   -1    0    0    0    0  0.00000000000E+00  0.00000000000E+00  0.45593999997E+02  0.45594000000E+02  0.51100000000E-03 0.  1.
         11   -1    0    0    0    0 -0.00000000000E+00 -0.00000000000E+00 -0.45593999997E+02  0.45594000000E+02  0.51100000000E-03 0. -1.
    9900012    2    1    2    0    0 -0.92164554585E+00 -0.58181451958E+00  0.45286433736E+00  0.90007735303E+02  0.89999996609E+02 0.  0.
        -12    1    1    2    0    0  0.92164554585E+00  0.58181451958E+00 -0.45286433736E+00  0.11802646972E+01  0.00000000000E+00 0.  1.
         11    1    3    3    0    0 -0.26806654100E+02  0.12059049321E+02  0.14358619103E+01  0.29429221435E+02  0.51100000000E-03 0. -1.
        -11    1    3    3    0    0 -0.93024204304E+01  0.13102579538E+02 -0.49113927262E+01  0.16802809145E+02  0.51100000000E-03 0.  1.
        -12    1    3    3    0    0  0.35187428984E+02 -0.25743443379E+02  0.39283951533E+01  0.43775704723E+02  0.00000000000E+00 0.  1.
</event>
<event>
 7    1  0.2294706E-015  0.9000680E+02  0.7816164E-02  0.1186341E+00
        -11   -1    0    0    0    0  0.00000000000E+00  0.00000000000E+00  0.45593999997E+02  0.45594000000E+02  0.51100000000E-03 0.  1.
         11   -1    0    0    0    0 -0.00000000000E+00 -0.00000000000E+00 -0.45593999997E+02  0.45594000000E+02  0.51100000000E-03 0. -1.
    9900012    2    1    2    0    0  0.41944646853E+00  0.10089600258E+01 -0.44865959849E+00  0.90006800987E+02  0.89999049955E+02 0.  0.
        -12    1    1    2    0    0 -0.41944646853E+00 -0.10089600258E+01  0.44865959849E+00  0.11811990133E+01  0.00000000000E+00 0.  1.
         11    1    3    3    0    0  0.67472066901E+01 -0.22219870933E+01  0.70018125048E+01  0.99743372399E+01  0.51100000000E-03 0. -1.
        -11    1    3    3    0    0 -0.68014718235E+01  0.37549310409E+02  0.12717753545E+02  0.40223773899E+02  0.51100000000E-03 0.  1.
         12    1    3    3    0    0  0.47371160194E+00 -0.34318363290E+02 -0.20168225649E+02  0.39808689848E+02  0.00000000000E+00 0. -1.
</event>
<event>
 7    1  0.2294706E-015  0.9000778E+02  0.7816164E-02  0.1186339E+00
        -11   -1    0    0    0    0  0.00000000000E+00  0.00000000000E+00  0.45593999997E+02  0.45594000000E+02  0.51100000000E-03 0.  1.
         11   -1    0    0    0    0 -0.00000000000E+00 -0.00000000000E+00 -0.45593999997E+02  0.45594000000E+02  0.51100000000E-03 0. -1.
    9900012    2    1    2    0    0  0.12351215752E+00  0.55306424104E+00 -0.10352723206E+01  0.90007777951E+02  0.90000039820E+02 0.  0.
        -12    1    1    2    0    0 -0.12351215752E+00 -0.55306424104E+00  0.10352723206E+01  0.11802220493E+01  0.00000000000E+00 0.  1.
         11    1    3    3    0    0 -0.16970576172E+02 -0.23588077494E+02 -0.28969087691E+02  0.41031766929E+02  0.51100000000E-03 0. -1.
        -11    1    3    3    0    0 -0.86825019676E+00 -0.49849218536E+01  0.77252165059E+01  0.92348402593E+01  0.51100000000E-03 0.  1.
        -12    1    3    3    0    0  0.17962338527E+02  0.29126063588E+02  0.20208598864E+02  0.39741170762E+02  0.00000000000E+00 0.  1.
</event>
<event>
 7    1  0.2294706E-015  0.9000749E+02  0.7816164E-02  0.1186340E+00
        -11   -1    0    0    0    0  0.00000000000E+00  0.00000000000E+00  0.45593999997E+02  0.45594000000E+02  0.51100000000E-03 0.  1.
         11   -1    0    0    0    0 -0.00000000000E+00 -0.00000000000E+00 -0.45593999997E+02  0.45594000000E+02  0.51100000000E-03 0. -1.
    9900012    2    1    2    0    0 -0.65271184046E+00  0.48774870692E+00 -0.85421034298E+00  0.90007488730E+02  0.89999746781E+02 0.  0.
        -12    1    1    2    0    0  0.65271184046E+00 -0.48774870692E+00  0.85421034298E+00  0.11805112697E+01  0.00000000000E+00 0.  1.
         11    1    3    3    0    0 -0.36897590815E+00 -0.10235790790E+02  0.40717083271E+01  0.11022085342E+02  0.51100000000E-03 0. -1.
        -11    1    3    3    0    0  0.24620882537E+02 -0.46491545351E+01  0.26205804989E+02  0.36256678146E+02  0.51100000000E-03 0.  1.
         12    1    3    3    0    0 -0.24904618469E+02  0.15372694032E+02 -0.31131723659E+02  0.42728725243E+02  0.00000000000E+00 0. -1.
</event>
<event>
 7    1  0.2294706E-015  0.9000778E+02  0.7816164E-02  0.1186339E+00
        -11   -1    0    0    0    0  0.00000000000E+00  0.00000000000E+00  0.45593999997E+02  0.45594000000E+02  0.51100000000E-03 0. -1.
         11   -1    0    0    0    0 -0.00000000000E+00 -0.00000000000E+00 -0.45593999997E+02  0.45594000000E+02  0.51100000000E-03 0.  1.
    9900012    2    1    2    0    0 -0.11004948517E+01  0.14871659545E+00  0.39963749627E+00  0.90007781515E+02  0.90000043431E+02 0.  0.
        -12    1    1    2    0    0  0.11004948517E+01 -0.14871659545E+00 -0.39963749627E+00  0.11802184852E+01  0.00000000000E+00 0.  1.
         11    1    3    3    0    0 -0.62337506304E+01 -0.20673873362E+02 -0.81592220510E+01  0.23083361789E+02  0.51100000000E-03 0. -1.
        -11    1    3    3    0    0 -0.12864276655E+02  0.28914477084E+01 -0.22938588645E+02  0.26458059887E+02  0.51100000000E-03 0.  1.
        -12    1    3    3    0    0  0.17997532433E+02  0.17931142249E+02  0.31497448192E+02  0.40466359840E+02  0.00000000000E+00 0.  1.
</event>
<event>
 7    1  0.2294706E-015  0.9000780E+02  0.7816164E-02  0.1186339E+00
        -11   -1    0    0    0    0  0.00000000000E+00  0.00000000000E+00  0.45593999997E+02  0.45594000000E+02  0.51100000000E-03 0. -1.
         11   -1    0    0    0    0 -0.00000000000E+00 -0.00000000000E+00 -0.45593999997E+02  0.45594000000E+02  0.51100000000E-03 0.  1.
    9900012    2    1    2    0    0  0.10090227804E+01  0.58116358661E+00  0.19230976093E+00  0.90007804622E+02  0.90000066843E+02 0.  0.
        -12    1    1    2    0    0 -0.10090227804E+01 -0.58116358661E+00 -0.19230976093E+00  0.11801953778E+01  0.00000000000E+00 0.  1.
         11    1    3    3    0    0 -0.41134417231E+01 -0.16541810624E+02  0.17175011650E+01  0.17131891666E+02  0.51100000000E-03 0. -1.
        -11    1    3    3    0    0 -0.18238233603E+02  0.12919318610E+02  0.27463883805E+02  0.35409135434E+02  0.51100000000E-03 0.  1.
         12    1    3    3    0    0  0.23360698107E+02  0.42036556005E+01 -0.28989075209E+02  0.37466777522E+02  0.00000000000E+00 0. -1.
</event>
<event>
 7    1  0.2294706E-015  0.9000776E+02  0.7816164E-02  0.1186339E+00
        -11   -1    0    0    0    0  0.00000000000E+00  0.00000000000E+00  0.45593999997E+02  0.45594000000E+02  0.51100000000E-03 0.  1.
         11   -1    0    0    0    0 -0.00000000000E+00 -0.00000000000E+00 -0.45593999997E+02  0.45594000000E+02  0.51100000000E-03 0. -1.
    9900012    2    1    2    0    0 -0.57131396369E+00 -0.99556257064E+00 -0.27461363239E+00  0.90007763954E+02  0.90000025638E+02 0.  0.
        -12    1    1    2    0    0  0.57131396369E+00  0.99556257064E+00  0.27461363239E+00  0.11802360460E+01  0.00000000000E+00 0.  1.
         11    1    3    3    0    0  0.37447357222E+02 -0.77009058735E+01  0.26029316343E+01  0.38319495920E+02  0.51100000000E-03 0. -1.
        -11    1    3    3    0    0  0.39147524683E+01  0.47521631963E+01  0.62014904161E+01  0.87388114509E+01  0.51100000000E-03 0.  1.
        -12    1    3    3    0    0 -0.41933423654E+02  0.19531801066E+01 -0.90790356828E+01  0.42949456583E+02  0.00000000000E+00 0.  1.
</event>
<event>
 7    1  0.2294706E-015  0.9000775E+02  0.7816164E-02  0.1186339E+00
        -11   -1    0    0    0    0  0.00000000000E+00  0.00000000000E+00  0.45593999997E+02  0.45594000000E+02  0.51100000000E-03 0.  1.
         11   -1    0    0    0    0 -0.00000000000E+00 -0.00000000000E+00 -0.45593999997E+02  0.45594000000E+02  0.51100000000E-03 0. -1.
    9900012    2    1    2    0    0  0.11210019547E+01  0.20797547338E+00 -0.30511604197E+00  0.90007747917E+02  0.90000009390E+02 0.  0.
        -12    1    1    2    0    0 -0.11210019547E+01 -0.20797547338E+00  0.30511604197E+00  0.11802520828E+01  0.00000000000E+00 0.  1.
         11    1    3    3    0    0  0.94030358279E+01  0.38011208151E+01 -0.16109761320E+01  0.10269413157E+02  0.51100000000E-03 0. -1.
        -11    1    3    3    0    0  0.30091234398E+02 -0.21894299630E+02  0.52772718299E+00  0.37217216985E+02  0.51100000000E-03 0.  1.
         12    1    3    3    0    0 -0.38373268271E+02  0.18301154288E+02  0.77813290709E+00  0.42521117775E+02  0.00000000000E+00 0. -1.
</event>
<event>
 7    1  0.2294706E-015  0.9000767E+02  0.7816164E-02  0.1186339E+00
        -11   -1    0    0    0    0  0.00000000000E+00  0.00000000000E+00  0.45593999997E+02  0.45594000000E+02  0.51100000000E-03 0. -1.
         11   -1    0    0    0    0 -0.00000000000E+00 -0.00000000000E+00 -0.45593999997E+02  0.45594000000E+02  0.51100000000E-03 0.  1.
    9900012    2    1    2    0    0 -0.50466696653E+00 -0.93660028812E+00  0.51114339238E+00  0.90007671057E+02  0.89999931515E+02 0.  0.
        -12    1    1    2    0    0  0.50466696653E+00  0.93660028812E+00 -0.51114339238E+00  0.11803289433E+01  0.00000000000E+00 0.  1.
         11    1    3    3    0    0 -0.43840815051E+01 -0.41670629111E+01  0.69801070169E+00  0.60886618521E+01  0.51100000000E-03 0. -1.
        -11    1    3    3    0    0  0.36170971607E+02  0.86660266240E+00 -0.24269121572E+02  0.43566965115E+02  0.51100000000E-03 0.  1.
         12    1    3    3    0    0 -0.32291557069E+02  0.23638599605E+01  0.24082254263E+02  0.40352044090E+02  0.00000000000E+00 0. -1.
</event>
<event>
 7    1  0.2294706E-015  0.9000777E+02  0.7816164E-02  0.1186339E+00
        -11   -1    0    0    0    0  0.00000000000E+00  0.00000000000E+00  0.45593999997E+02  0.45594000000E+02  0.51100000000E-03 0.  1.
         11   -1    0    0    0    0 -0.00000000000E+00 -0.00000000000E+00 -0.45593999997E+02  0.45594000000E+02  0.51100000000E-03 0. -1.
    9900012    2    1    2    0    0 -0.48009511252E+00 -0.69737399292E+00 -0.82226997112E+00  0.90007767096E+02  0.90000028821E+02 0.  0.
        -12    1    1    2    0    0  0.48009511252E+00  0.69737399292E+00  0.82226997112E+00  0.11802329043E+01  0.00000000000E+00 0.  1.
         11    1    3    3    0    0  0.17764298583E+01  0.28126450186E+02 -0.11467262181E+02  0.30426156598E+02  0.51100000000E-03 0. -1.
        -11    1    3    3    0    0 -0.36303806606E+01 -0.10699912621E+02 -0.20565094267E+02  0.23464673369E+02  0.51100000000E-03 0.  1.
        -12    1    3    3    0    0  0.13738556898E+01 -0.18123911559E+02  0.31210086477E+02  0.36116937129E+02  0.00000000000E+00 0.  1.
</event>
<event>
 7    1  0.2294706E-015  0.9000775E+02  0.7816164E-02  0.1186339E+00
        -11   -1    0    0    0    0  0.00000000000E+00  0.00000000000E+00  0.45593999997E+02  0.45594000000E+02  0.51100000000E-03 0. -1.
         11   -1    0    0    0    0 -0.00000000000E+00 -0.00000000000E+00 -0.45593999997E+02  0.45594000000E+02  0.51100000000E-03 0.  1.
    9900012    2    1    2    0    0  0.33475059542E+00 -0.38079709253E+00  0.10658009870E+01  0.90007747429E+02  0.90000008895E+02 0.  0.
        -12    1    1    2    0    0 -0.33475059542E+00  0.38079709253E+00 -0.10658009870E+01  0.11802525707E+01  0.00000000000E+00 0.  1.
         11    1    3    3    0    0  0.68103017878E+01 -0.67073047108E+00 -0.61566994608E+01  0.92051636768E+01  0.51100000000E-03 0. -1.
        -11    1    3    3    0    0  0.22115518163E+02 -0.10957269360E+02 -0.25795578011E+02  0.35701116798E+02  0.51100000000E-03 0.  1.
         12    1    3    3    0    0 -0.28591069355E+02  0.11247202739E+02  0.33018078459E+02  0.45101466954E+02  0.00000000000E+00 0. -1.
</event>
<event>
 7    1  0.2294706E-015  0.9000774E+02  0.7816164E-02  0.1186339E+00
        -11   -1    0    0    0    0  0.00000000000E+00  0.00000000000E+00  0.45593999997E+02  0.45594000000E+02  0.51100000000E-03 0.  1.
         11   -1    0    0    0    0 -0.00000000000E+00 -0.00000000000E+00 -0.45593999997E+02  0.45594000000E+02  0.51100000000E-03 0. -1.
    9900012    2    1    2    0    0  0.23898489232E+00  0.86016099040E+00 -0.77202341852E+00  0.90007741186E+02  0.90000002570E+02 0.  0.
        -12    1    1    2    0    0 -0.23898489232E+00 -0.86016099040E+00  0.77202341852E+00  0.11802588135E+01  0.00000000000E+00 0.  1.
         11    1    3    3    0    0  0.16621432193E+02 -0.15171825788E+02 -0.36657105634E+02  0.43013947734E+02  0.51100000000E-03 0. -1.
        -11    1    3    3    0    0  0.16983799402E+01 -0.29867407205E+01  0.79795534432E+01  0.86878298767E+01  0.51100000000E-03 0.  1.
        -12    1    3    3    0    0 -0.18080827241E+02  0.19018727499E+02  0.27905528773E+02  0.38305963576E+02  0.00000000000E+00 0.  1.
</event>
<event>
 7    1  0.2294706E-015  0.9000788E+02  0.7816164E-02  0.1186339E+00
        -11   -1    0    0    0    0  0.00000000000E+00  0.00000000000E+00  0.45593999997E+02  0.45594000000E+02  0.51100000000E-03 0.  1.
         11   -1    0    0    0    0 -0.00000000000E+00 -0.00000000000E+00 -0.45593999997E+02  0.45594000000E+02  0.51100000000E-03 0. -1.
    9900012    2    1    2    0    0  0.30022224927E+00 -0.10718381947E+01  0.39206358255E+00  0.90007879512E+02  0.90000142721E+02 0.  0.
        -12    1    1    2    0    0 -0.30022224927E+00  0.10718381947E+01 -0.39206358255E+00  0.11801204885E+01  0.00000000000E+00 0.  1.
         11    1    3    3    0    0 -0.26298455170E+02 -0.22632334218E+02 -0.22783964922E+02  0.41508316688E+02  0.51100000000E-03 0. -1.
        -11    1    3    3    0    0  0.51326880441E+01  0.36416217710E+01 -0.55648308034E+01  0.84007879281E+01  0.51100000000E-03 0.  1.
        -12    1    3    3    0    0  0.21465989375E+02  0.17918874252E+02  0.28740859308E+02  0.40098774895E+02  0.00000000000E+00 0.  1.
</event>
<event>
 7    1  0.2294706E-015  0.9000767E+02  0.7816164E-02  0.1186339E+00
        -11   -1    0    0    0    0  0.00000000000E+00  0.00000000000E+00  0.45593999997E+02  0.45594000000E+02  0.51100000000E-03 0.  1.
         11   -1    0    0    0    0 -0.00000000000E+00 -0.00000000000E+00 -0.45593999997E+02  0.45594000000E+02  0.51100000000E-03 0. -1.
    9900012    2    1    2    0    0  0.10687947240E+01  0.49942302510E+00 -0.37956214917E-01  0.90007666914E+02  0.89999927317E+02 0.  0.
        -12    1    1    2    0    0 -0.10687947240E+01 -0.49942302510E+00  0.37956214917E-01  0.11803330862E+01  0.00000000000E+00 0.  1.
         11    1    3    3    0    0 -0.59182580867E+01 -0.61640164363E+01  0.16435355301E+01  0.87018438683E+01  0.51100000000E-03 0. -1.
        -11    1    3    3    0    0 -0.40861449306E+01 -0.12292835571E+01  0.38577271110E+02  0.38812543913E+02  0.51100000000E-03 0.  1.
         12    1    3    3    0    0  0.11073197741E+02  0.78927230186E+01 -0.40258762855E+02  0.42493279133E+02  0.00000000000E+00 0. -1.
</event>
<event>
 7    1  0.2294706E-015  0.9000771E+02  0.7816164E-02  0.1186339E+00
        -11   -1    0    0    0    0  0.00000000000E+00  0.00000000000E+00  0.45593999997E+02  0.45594000000E+02  0.51100000000E-03 0. -1.
         11   -1    0    0    0    0 -0.00000000000E+00 -0.00000000000E+00 -0.45593999997E+02  0.45594000000E+02  0.51100000000E-03 0.  1.
    9900012    2    1    2    0    0  0.43631062198E+00 -0.10526368818E+01 -0.30768376476E+00  0.90007711619E+02  0.89999972612E+02 0.  0.
        -12    1    1    2    0    0 -0.43631062198E+00  0.10526368818E+01  0.30768376476E+00  0.11802883812E+01  0.00000000000E+00 0.  1.
         11    1    3    3    0    0  0.48531301221E+01 -0.77220328919E+01  0.77882661471E+00  0.91536460016E+01  0.51100000000E-03 0. -1.
        -11    1    3    3    0    0  0.13095320062E+02  0.35236318650E+02 -0.19787845133E+02  0.42481106092E+02  0.51100000000E-03 0.  1.
         12    1    3    3    0    0 -0.17512139562E+02 -0.28566922640E+02  0.18701334754E+02  0.38372959525E+02  0.00000000000E+00 0. -1.
</event>
<event>
 7    1  0.2294706E-015  0.9000774E+02  0.7816164E-02  0.1186339E+00
        -11   -1    0    0    0    0  0.00000000000E+00  0.00000000000E+00  0.45593999997E+02  0.45594000000E+02  0.51100000000E-03 0. -1.
         11   -1    0    0    0    0 -0.00000000000E+00 -0.00000000000E+00 -0.45593999997E+02  0.45594000000E+02  0.51100000000E-03 0.  1.
    9900012    2    1    2    0    0 -0.66566114280E+00 -0.86981695266E+00  0.43969874749E+00  0.90007736777E+02  0.89999998102E+02 0.  0.
        -12    1    1    2    0    0  0.66566114280E+00  0.86981695266E+00 -0.43969874749E+00  0.11802632235E+01  0.00000000000E+00 0.  1.
         11    1    3    3    0    0 -0.35235764483E+02  0.34650509772E+01 -0.26032191144E+00  0.35406686441E+02  0.51100000000E-03 0. -1.
        -11    1    3    3    0    0 -0.68178120675E+01 -0.35760827768E+01  0.95540013505E+01  0.12269876588E+02  0.51100000000E-03 0.  1.
        -12    1    3    3    0    0  0.41387915408E+02 -0.75878515307E+00 -0.88539806915E+01  0.42331173747E+02  0.00000000000E+00 0.  1.
</event>
<event>
 7    1  0.2552881E-015  0.9000784E+02  0.7816164E-02  0.1186339E+00
        -11   -1    0    0    0    0  0.00000000000E+00  0.00000000000E+00  0.45593999997E+02  0.45594000000E+02  0.51100000000E-03 0.  1.
         11   -1    0    0    0    0 -0.00000000000E+00 -0.00000000000E+00 -0.45593999997E+02  0.45594000000E+02  0.51100000000E-03 0. -1.
    9900012    2    1    2    0    0 -0.28833691213E+00  0.37726833263E+00 -0.10804236596E+01  0.90007836938E+02  0.90000099585E+02 0.  0.
        -12    1    1    2    0    0  0.28833691213E+00 -0.37726833263E+00  0.10804236596E+01  0.11801630624E+01  0.00000000000E+00 0.  1.
         11    1    3    3    0    0 -0.79950257504E+00  0.23757447704E+02 -0.33048275524E+02  0.40709262351E+02  0.51100000000E-03 0. -1.
        -11    1    3    3    0    0  0.69110074321E+01 -0.65141677784E+01 -0.29933013770E+01  0.99577235835E+01  0.51100000000E-03 0.  1.
        -12    1    3    3    0    0 -0.63998417691E+01 -0.16866011593E+02  0.34961153241E+02  0.39340851003E+02  0.00000000000E+00 0.  1.
</event>
<event>
 7    1  0.2294706E-015  0.9000778E+02  0.7816164E-02  0.1186339E+00
        -11   -1    0    0    0    0  0.00000000000E+00  0.00000000000E+00  0.45593999997E+02  0.45594000000E+02  0.51100000000E-03 0.  1.
         11   -1    0    0    0    0 -0.00000000000E+00 -0.00000000000E+00 -0.45593999997E+02  0.45594000000E+02  0.51100000000E-03 0. -1.
    9900012    2    1    2    0    0  0.20477077121E+00  0.10119127848E+01 -0.57185161645E+00  0.90007782722E+02  0.90000044654E+02 0.  0.
        -12    1    1    2    0    0 -0.20477077121E+00 -0.10119127848E+01  0.57185161645E+00  0.11802172784E+01  0.00000000000E+00 0.  1.
         11    1    3    3    0    0  0.75668078270E+01  0.42082530533E+01 -0.57157958224E+00  0.86771353528E+01  0.51100000000E-03 0. -1.
        -11    1    3    3    0    0  0.30555898847E+02 -0.21781793393E+02  0.79582940197E+01  0.38359404606E+02  0.51100000000E-03 0.  1.
         12    1    3    3    0    0 -0.37917935902E+02  0.18585453125E+02 -0.79585660539E+01  0.42971242763E+02  0.00000000000E+00 0. -1.
</event>
<event>
 7    1  0.2294706E-015  0.9000775E+02  0.7816164E-02  0.1186339E+00
        -11   -1    0    0    0    0  0.00000000000E+00  0.00000000000E+00  0.45593999997E+02  0.45594000000E+02  0.51100000000E-03 0. -1.
         11   -1    0    0    0    0 -0.00000000000E+00 -0.00000000000E+00 -0.45593999997E+02  0.45594000000E+02  0.51100000000E-03 0.  1.
    9900012    2    1    2    0    0  0.87172216121E+00 -0.74043682573E+00  0.29129879265E+00  0.90007745279E+02  0.90000006717E+02 0.  0.
        -12    1    1    2    0    0 -0.87172216121E+00  0.74043682573E+00 -0.29129879265E+00  0.11802547207E+01  0.00000000000E+00 0.  1.
         11    1    3    3    0    0  0.15966258340E+02 -0.33197387181E+02  0.83083271789E+01  0.37762629964E+02  0.51100000000E-03 0. -1.
        -11    1    3    3    0    0  0.81844878545E+01 -0.34086448267E+01 -0.11899294118E+01  0.89454252700E+01  0.51100000000E-03 0.  1.
        -12    1    3    3    0    0 -0.23279024033E+02  0.35865595182E+02 -0.68270989744E+01  0.43299690046E+02  0.00000000000E+00 0.  1.
</event>
<event>
 7    1  0.2294706E-015  0.9000763E+02  0.7816164E-02  0.1186339E+00
        -11   -1    0    0    0    0  0.00000000000E+00  0.00000000000E+00  0.45593999997E+02  0.45594000000E+02  0.51100000000E-03 0.  1.
         11   -1    0    0    0    0 -0.00000000000E+00 -0.00000000000E+00 -0.45593999997E+02  0.45594000000E+02  0.51100000000E-03 0. -1.
    9900012    2    1    2    0    0  0.69938111776E+00  0.80848211675E+00 -0.50049523414E+00  0.90007630244E+02  0.89999890163E+02 0.  0.
        -12    1    1    2    0    0 -0.69938111776E+00 -0.80848211675E+00  0.50049523414E+00  0.11803697558E+01  0.00000000000E+00 0.  1.
         11    1    3    3    0    0  0.12065275404E+00 -0.12519444736E+02  0.26868556056E+01  0.12805086758E+02  0.51100000000E-03 0. -1.
        -11    1    3    3    0    0 -0.25146811001E+02 -0.15335696163E+01  0.25540424163E+02  0.35875161407E+02  0.51100000000E-03 0.  1.
         12    1    3    3    0    0  0.25725539364E+02  0.14861496469E+02 -0.28727775003E+02  0.41327382079E+02  0.00000000000E+00 0. -1.
</event>
<event>
 7    1  0.2294706E-015  0.9000776E+02  0.7816164E-02  0.1186339E+00
        -11   -1    0    0    0    0  0.00000000000E+00  0.00000000000E+00  0.45593999997E+02  0.45594000000E+02  0.51100000000E-03 0. -1.
         11   -1    0    0    0    0 -0.00000000000E+00 -0.00000000000E+00 -0.45593999997E+02  0.45594000000E+02  0.51100000000E-03 0.  1.
    9900012    2    1    2    0    0  0.23556912642E+00  0.88234319414E+00  0.74763278206E+00  0.90007755490E+02  0.90000017063E+02 0.  0.
        -12    1    1    2    0    0 -0.23556912642E+00 -0.88234319414E+00 -0.74763278206E+00  0.11802445096E+01  0.00000000000E+00 0.  1.
         11    1    3    3    0    0  0.13174880242E+01  0.80754337692E+01 -0.34109046366E+01  0.88646870197E+01  0.51100000000E-03 0. -1.
        -11    1    3    3    0    0  0.25178129657E+02  0.13611322978E+02  0.27986955334E+02  0.40030937977E+02  0.51100000000E-03 0.  1.
         12    1    3    3    0    0 -0.26260048555E+02 -0.20804413553E+02 -0.23828417915E+02  0.41112130493E+02  0.00000000000E+00 0. -1.
</event>
<event>
 7    1  0.2294706E-015  0.9000811E+02  0.7816164E-02  0.1186338E+00
        -11   -1    0    0    0    0  0.00000000000E+00  0.00000000000E+00  0.45593999997E+02  0.45594000000E+02  0.51100000000E-03 0. -1.
         11   -1    0    0    0    0 -0.00000000000E+00 -0.00000000000E+00 -0.45593999997E+02  0.45594000000E+02  0.51100000000E-03 0.  1.
    9900012    2    1    2    0    0 -0.87417366483E+00  0.79236187426E+00  0.10696705667E-01  0.90008113838E+02  0.90000380140E+02 0.  0.
        -12    1    1    2    0    0  0.87417366483E+00 -0.79236187426E+00 -0.10696705667E-01  0.11798861621E+01  0.00000000000E+00 0.  1.
         11    1    3    3    0    0  0.56905153671E+01  0.66788963903E+01 -0.51598443033E+01  0.10179077347E+02  0.51100000000E-03 0. -1.
        -11    1    3    3    0    0 -0.30097622391E+02  0.14084725864E+02 -0.21044677263E+02  0.39333507569E+02  0.51100000000E-03 0.  1.
         12    1    3    3    0    0  0.23532933359E+02 -0.19971260380E+02  0.26215218272E+02  0.40495528923E+02  0.00000000000E+00 0. -1.
</event>
<event>
 7    1  0.2294706E-015  0.9000768E+02  0.7816164E-02  0.1186339E+00
        -11   -1    0    0    0    0  0.00000000000E+00  0.00000000000E+00  0.45593999997E+02  0.45594000000E+02  0.51100000000E-03 0.  1.
         11   -1    0    0    0    0 -0.00000000000E+00 -0.00000000000E+00 -0.45593999997E+02  0.45594000000E+02  0.51100000000E-03 0. -1.
    9900012    2    1    2    0    0  0.94870944835E+00  0.10281327810E+00 -0.69464048619E+00  0.90007684113E+02  0.89999944743E+02 0.  0.
        -12    1    1    2    0    0 -0.94870944835E+00 -0.10281327810E+00  0.69464048619E+00  0.11803158868E+01  0.00000000000E+00 0.  1.
         11    1    3    3    0    0 -0.98592824372E+01 -0.31400022709E+02  0.27808171074E+02  0.43086671431E+02  0.51100000000E-03 0. -1.
        -11    1    3    3    0    0 -0.42754129583E+00  0.99420685898E+01 -0.68326596596E+00  0.99746865637E+01  0.51100000000E-03 0.  1.
        -12    1    3    3    0    0  0.11235533181E+02  0.21560767397E+02 -0.27819545594E+02  0.36946326119E+02  0.00000000000E+00 0.  1.
</event>
<event>
 7    1  0.2294706E-015  0.9000764E+02  0.7816164E-02  0.1186339E+00
        -11   -1    0    0    0    0  0.00000000000E+00  0.00000000000E+00  0.45593999997E+02  0.45594000000E+02  0.51100000000E-03 0.  1.
         11   -1    0    0    0    0 -0.00000000000E+00 -0.00000000000E+00 -0.45593999997E+02  0.45594000000E+02  0.51100000000E-03 0. -1.
    9900012    2    1    2    0    0  0.60312345555E+00 -0.82502334170E+00 -0.59061923166E+00  0.90007638829E+02  0.89999898862E+02 0.  0.
        -12    1    1    2    0    0 -0.60312345555E+00  0.82502334170E+00  0.59061923166E+00  0.11803611709E+01  0.00000000000E+00 0.  1.
         11    1    3    3    0    0  0.52186222446E+01  0.41526505605E+01  0.62769173700E+01  0.91585051586E+01  0.51100000000E-03 0. -1.
        -11    1    3    3    0    0 -0.30199730790E+01  0.37376813112E+02  0.19806136614E+01  0.37550888492E+02  0.51100000000E-03 0.  1.
         12    1    3    3    0    0 -0.15955257100E+01 -0.42354487014E+02 -0.88481502631E+01  0.43298245179E+02  0.00000000000E+00 0. -1.
</event>
<event>
 7    1  0.2294706E-015  0.9000773E+02  0.7816164E-02  0.1186339E+00
        -11   -1    0    0    0    0  0.00000000000E+00  0.00000000000E+00  0.45593999997E+02  0.45594000000E+02  0.51100000000E-03 0.  1.
         11   -1    0    0    0    0 -0.00000000000E+00 -0.00000000000E+00 -0.45593999997E+02  0.45594000000E+02  0.51100000000E-03 0. -1.
    9900012    2    1    2    0    0  0.57235356782E+00 -0.98218558923E+00  0.31741648412E+00  0.90007732927E+02  0.89999994202E+02 0.  0.
        -12    1    1    2    0    0 -0.57235356782E+00  0.98218558923E+00 -0.31741648412E+00  0.11802670726E+01  0.00000000000E+00 0.  1.
         11    1    3    3    0    0 -0.12506217888E+02 -0.89488245136E+01 -0.23901968877E+02  0.28421665371E+02  0.51100000000E-03 0. -1.
        -11    1    3    3    0    0 -0.11163196760E+02  0.68629028819E+01 -0.12146035045E+02  0.17867360338E+02  0.51100000000E-03 0.  1.
        -12    1    3    3    0    0  0.24241768216E+02  0.11037360425E+01  0.36365420406E+02  0.43718707218E+02  0.00000000000E+00 0.  1.
</event>
<event>
 7    1  0.2294706E-015  0.9000783E+02  0.7816164E-02  0.1186339E+00
        -11   -1    0    0    0    0  0.00000000000E+00  0.00000000000E+00  0.45593999997E+02  0.45594000000E+02  0.51100000000E-03 0. -1.
         11   -1    0    0    0    0 -0.00000000000E+00 -0.00000000000E+00 -0.45593999997E+02  0.45594000000E+02  0.51100000000E-03 0.  1.
    9900012    2    1    2    0    0 -0.10788364740E+01 -0.24195716732E+00  0.41276228180E+00  0.90007828780E+02  0.90000091319E+02 0.  0.
        -12    1    1    2    0    0  0.10788364740E+01  0.24195716732E+00 -0.41276228180E+00  0.11801712205E+01  0.00000000000E+00 0.  1.
         11    1    3    3    0    0 -0.89712091536E+01  0.35632181227E+01  0.96558245716E+01  0.13653353635E+02  0.51100000000E-03 0. -1.
        -11    1    3    3    0    0 -0.29199572584E+02 -0.39402610441E+01  0.13958680528E+02  0.32603457769E+02  0.51100000000E-03 0.  1.
         12    1    3    3    0    0  0.37091945263E+02  0.13508575404E+00 -0.23201742818E+02  0.43751017375E+02  0.00000000000E+00 0. -1.
</event>
<event>
 7    1  0.2294706E-015  0.9000771E+02  0.7816164E-02  0.1186339E+00
        -11   -1    0    0    0    0  0.00000000000E+00  0.00000000000E+00  0.45593999997E+02  0.45594000000E+02  0.51100000000E-03 0.  1.
         11   -1    0    0    0    0 -0.00000000000E+00 -0.00000000000E+00 -0.45593999997E+02  0.45594000000E+02  0.51100000000E-03 0. -1.
    9900012    2    1    2    0    0  0.87737963826E+00 -0.29262001981E+00 -0.73325767210E+00  0.90007708375E+02  0.89999969326E+02 0.  0.
        -12    1    1    2    0    0 -0.87737963826E+00  0.29262001981E+00  0.73325767210E+00  0.11802916247E+01  0.00000000000E+00 0.  1.
         11    1    3    3    0    0 -0.22598691157E+02 -0.31171601591E+02 -0.34863200525E+01  0.38659074168E+02  0.51100000000E-03 0. -1.
        -11    1    3    3    0    0 -0.78950639554E+01  0.62924427414E+01 -0.41170296537E+01  0.10903063970E+02  0.51100000000E-03 0.  1.
        -12    1    3    3    0    0  0.31371134751E+02  0.24586538830E+02  0.68700920341E+01  0.40445570237E+02  0.00000000000E+00 0.  1.
</event>
<event>
 7    1  0.2294706E-015  0.9000771E+02  0.7816164E-02  0.1186339E+00
        -11   -1    0    0    0    0  0.00000000000E+00  0.00000000000E+00  0.45593999997E+02  0.45594000000E+02  0.51100000000E-03 0.  1.
         11   -1    0    0    0    0 -0.00000000000E+00 -0.00000000000E+00 -0.45593999997E+02  0.45594000000E+02  0.51100000000E-03 0. -1.
    9900012    2    1    2    0    0 -0.71456317509E+00 -0.50406308798E-01 -0.93805692586E+00  0.90007706764E+02  0.89999967693E+02 0.  0.
        -12    1    1    2    0    0  0.71456317509E+00  0.50406308798E-01  0.93805692586E+00  0.11802932362E+01  0.00000000000E+00 0.  1.
         11    1    3    3    0    0  0.12607296353E+02  0.21300146143E+02 -0.28692716308E+02  0.37893431047E+02  0.51100000000E-03 0. -1.
        -11    1    3    3    0    0 -0.34300832325E+01  0.87128520341E+00 -0.80702157610E+01  0.88120934844E+01  0.51100000000E-03 0.  1.
        -12    1    3    3    0    0 -0.98917762959E+01 -0.22221837656E+02  0.35824875143E+02  0.43302182233E+02  0.00000000000E+00 0.  1.
</event>
<event>
 7    1  0.2294706E-015  0.9000772E+02  0.7816164E-02  0.1186339E+00
        -11   -1    0    0    0    0  0.00000000000E+00  0.00000000000E+00  0.45593999997E+02  0.45594000000E+02  0.51100000000E-03 0. -1.
         11   -1    0    0    0    0 -0.00000000000E+00 -0.00000000000E+00 -0.45593999997E+02  0.45594000000E+02  0.51100000000E-03 0.  1.
    9900012    2    1    2    0    0  0.34067659164E+00 -0.76907300288E+00 -0.82796371285E+00  0.90007721332E+02  0.89999982454E+02 0.  0.
        -12    1    1    2    0    0 -0.34067659164E+00  0.76907300288E+00  0.82796371285E+00  0.11802786678E+01  0.00000000000E+00 0.  1.
         11    1    3    3    0    0  0.15306061340E+01 -0.36696073460E+01 -0.74136106780E+01  0.84125142946E+01  0.51100000000E-03 0. -1.
        -11    1    3    3    0    0  0.32438171484E+02 -0.79690033345E+01  0.25020961574E+02  0.41734739746E+02  0.51100000000E-03 0.  1.
         12    1    3    3    0    0 -0.33628101026E+02  0.10869537678E+02 -0.18435314609E+02  0.39860467291E+02  0.00000000000E+00 0. -1.
</event>
<event>
 7    1  0.2294706E-015  0.9000761E+02  0.7816164E-02  0.1186339E+00
        -11   -1    0    0    0    0  0.00000000000E+00  0.00000000000E+00  0.45593999997E+02  0.45594000000E+02  0.51100000000E-03 0.  1.
         11   -1    0    0    0    0 -0.00000000000E+00 -0.00000000000E+00 -0.45593999997E+02  0.45594000000E+02  0.51100000000E-03 0. -1.
    9900012    2    1    2    0    0  0.84011868076E+00  0.69993565363E+00 -0.44452197293E+00  0.90007614850E+02  0.89999874566E+02 0.  0.
        -12    1    1    2    0    0 -0.84011868076E+00 -0.69993565363E+00  0.44452197293E+00  0.11803851496E+01  0.00000000000E+00 0.  1.
         11    1    3    3    0    0  0.21978428013E+02 -0.27890849629E+02 -0.53975774842E+01  0.35917748174E+02  0.51100000000E-03 0. -1.
        -11    1    3    3    0    0  0.52404698875E+01 -0.74967305520E+01  0.35999387714E+00  0.91538565350E+01  0.51100000000E-03 0.  1.
        -12    1    3    3    0    0 -0.26378779219E+02  0.36087515835E+02  0.45930616341E+01  0.44936010141E+02  0.00000000000E+00 0.  1.
</event>
<event>
 7    1  0.2294706E-015  0.9000771E+02  0.7816164E-02  0.1186339E+00
        -11   -1    0    0    0    0  0.00000000000E+00  0.00000000000E+00  0.45593999997E+02  0.45594000000E+02  0.51100000000E-03 0.  1.
         11   -1    0    0    0    0 -0.00000000000E+00 -0.00000000000E+00 -0.45593999997E+02  0.45594000000E+02  0.51100000000E-03 0. -1.
    9900012    2    1    2    0    0  0.86714700447E+00  0.67828575753E-01 -0.79783715059E+00  0.90007708188E+02  0.89999969136E+02 0.  0.
        -12    1    1    2    0    0 -0.86714700447E+00 -0.67828575753E-01  0.79783715059E+00  0.11802918122E+01  0.00000000000E+00 0.  1.
         11    1    3    3    0    0  0.12160033034E+01  0.91023544126E+01  0.85735364734E+00  0.92231543099E+01  0.51100000000E-03 0. -1.
        -11    1    3    3    0    0  0.11562430785E+02  0.29714679102E+02 -0.18525064701E+02  0.36875872630E+02  0.51100000000E-03 0.  1.
         12    1    3    3    0    0 -0.11911287084E+02 -0.38749204939E+02  0.16869873903E+02  0.43908681248E+02  0.00000000000E+00 0. -1.
</event>
<event>
 7    1  0.2294706E-015  0.9000663E+02  0.7816164E-02  0.1186341E+00
        -11   -1    0    0    0    0  0.00000000000E+00  0.00000000000E+00  0.45593999997E+02  0.45594000000E+02  0.51100000000E-03 0.  1.
         11   -1    0    0    0    0 -0.00000000000E+00 -0.00000000000E+00 -0.45593999997E+02  0.45594000000E+02  0.51100000000E-03 0. -1.
    9900012    2    1    2    0    0 -0.81620435825E+00  0.80188588497E+00  0.29397487695E+00  0.90006631406E+02  0.89998878133E+02 0.  0.
        -12    1    1    2    0    0  0.81620435825E+00 -0.80188588497E+00 -0.29397487695E+00  0.11813685941E+01  0.00000000000E+00 0.  1.
         11    1    3    3    0    0  0.15776816712E+01 -0.76324056888E+01  0.57085385838E+01  0.96607509582E+01  0.51100000000E-03 0. -1.
        -11    1    3    3    0    0  0.10333097528E+02  0.18613269446E+02  0.32628271825E+02  0.38959348384E+02  0.51100000000E-03 0.  1.
         12    1    3    3    0    0 -0.12726983558E+02 -0.10178977872E+02 -0.38042835531E+02  0.41386532064E+02  0.00000000000E+00 0. -1.
</event>
<event>
 7    1  0.2294706E-015  0.9000779E+02  0.7816164E-02  0.1186339E+00
        -11   -1    0    0    0    0  0.00000000000E+00  0.00000000000E+00  0.45593999997E+02  0.45594000000E+02  0.51100000000E-03 0.  1.
         11   -1    0    0    0    0 -0.00000000000E+00 -0.00000000000E+00 -0.45593999997E+02  0.45594000000E+02  0.51100000000E-03 0. -1.
    9900012    2    1    2    0    0 -0.74286702706E+00 -0.86479941980E+00 -0.30523844236E+00  0.90007788170E+02  0.90000050174E+02 0.  0.
        -12    1    1    2    0    0  0.74286702706E+00  0.86479941980E+00  0.30523844236E+00  0.11802118297E+01  0.00000000000E+00 0.  1.
         11    1    3    3    0    0 -0.46925333254E+00 -0.95153937878E+00 -0.10515224011E+02  0.10568612120E+02  0.51100000000E-03 0. -1.
        -11    1    3    3    0    0  0.36628114356E+01 -0.26469886063E+02 -0.24024154161E+02  0.35933703389E+02  0.51100000000E-03 0.  1.
         12    1    3    3    0    0 -0.39364251301E+01  0.26556626022E+02  0.34234139729E+02  0.43505472662E+02  0.00000000000E+00 0. -1.
</event>
<event>
 7    1  0.2294706E-015  0.9000768E+02  0.7816164E-02  0.1186339E+00
        -11   -1    0    0    0    0  0.00000000000E+00  0.00000000000E+00  0.45593999997E+02  0.45594000000E+02  0.51100000000E-03 0. -1.
         11   -1    0    0    0    0 -0.00000000000E+00 -0.00000000000E+00 -0.45593999997E+02  0.45594000000E+02  0.51100000000E-03 0.  1.
    9900012    2    1    2    0    0 -0.57430710968E+00 -0.10217201373E+01 -0.13932112407E+00  0.90007681793E+02  0.89999942392E+02 0.  0.
        -12    1    1    2    0    0  0.57430710968E+00  0.10217201373E+01  0.13932112407E+00  0.11803182075E+01  0.00000000000E+00 0.  1.
         11    1    3    3    0    0 -0.45412313757E+01 -0.91535451998E+01  0.15876363012E+01  0.10340733118E+02  0.51100000000E-03 0. -1.
        -11    1    3    3    0    0 -0.51954964672E+01 -0.21944059039E+02 -0.29899950391E+02  0.37450526623E+02  0.51100000000E-03 0.  1.
         12    1    3    3    0    0  0.91624207332E+01  0.30075884102E+02  0.28172992966E+02  0.42216422052E+02  0.00000000000E+00 0. -1.
</event>
<event>
 7    1  0.2294706E-015  0.9000784E+02  0.7816164E-02  0.1186339E+00
        -11   -1    0    0    0    0  0.00000000000E+00  0.00000000000E+00  0.45593999997E+02  0.45594000000E+02  0.51100000000E-03 0.  1.
         11   -1    0    0    0    0 -0.00000000000E+00 -0.00000000000E+00 -0.45593999997E+02  0.45594000000E+02  0.51100000000E-03 0. -1.
    9900012    2    1    2    0    0 -0.75429075844E+00  0.87394365228E+00 -0.24505324327E+00  0.90007837660E+02  0.90000100318E+02 0.  0.
        -12    1    1    2    0    0  0.75429075844E+00 -0.87394365228E+00  0.24505324327E+00  0.11801623395E+01  0.00000000000E+00 0.  1.
         11    1    3    3    0    0  0.27089522107E+01 -0.69738673965E+00 -0.87654139515E+01  0.92009375798E+01  0.51100000000E-03 0. -1.
        -11    1    3    3    0    0 -0.15459284757E+02 -0.44079836011E+01 -0.33253538189E+02  0.36935316527E+02  0.51100000000E-03 0.  1.
         12    1    3    3    0    0  0.11996041788E+02  0.59793139930E+01  0.41773898897E+02  0.43871583553E+02  0.00000000000E+00 0. -1.
</event>
<event>
 7    1  0.2294706E-015  0.9000775E+02  0.7816164E-02  0.1186339E+00
        -11   -1    0    0    0    0  0.00000000000E+00  0.00000000000E+00  0.45593999997E+02  0.45594000000E+02  0.51100000000E-03 0.  1.
         11   -1    0    0    0    0 -0.00000000000E+00 -0.00000000000E+00 -0.45593999997E+02  0.45594000000E+02  0.51100000000E-03 0. -1.
    9900012    2    1    2    0    0 -0.88608840369E+00 -0.31118091888E+00 -0.71484748880E+00  0.90007748690E+02  0.90000010172E+02 0.  0.
        -12    1    1    2    0    0  0.88608840369E+00  0.31118091888E+00  0.71484748880E+00  0.11802513104E+01  0.00000000000E+00 0.  1.
         11    1    3    3    0    0 -0.11413757233E+02 -0.11025767248E+02 -0.13437821710E+02  0.20794625511E+02  0.51100000000E-03 0. -1.
        -11    1    3    3    0    0  0.16486574620E+02 -0.25757083913E+02  0.99261304004E+01  0.32152178455E+02  0.51100000000E-03 0.  1.
         12    1    3    3    0    0 -0.59589057908E+01  0.36471670242E+02  0.27968438209E+01  0.37060944724E+02  0.00000000000E+00 0. -1.
</event>
<event>
 7    1  0.2294706E-015  0.9000777E+02  0.7816164E-02  0.1186339E+00
        -11   -1    0    0    0    0  0.00000000000E+00  0.00000000000E+00  0.45593999997E+02  0.45594000000E+02  0.51100000000E-03 0.  1.
         11   -1    0    0    0    0 -0.00000000000E+00 -0.00000000000E+00 -0.45593999997E+02  0.45594000000E+02  0.51100000000E-03 0. -1.
    9900012    2    1    2    0    0  0.65382418240E+00 -0.67267451033E+00 -0.71621179514E+00  0.90007772736E+02  0.90000034536E+02 0.  0.
        -12    1    1    2    0    0 -0.65382418240E+00  0.67267451033E+00  0.71621179514E+00  0.11802272636E+01  0.00000000000E+00 0.  1.
         11    1    3    3    0    0  0.25271560054E+02 -0.25593339381E+01 -0.24200155779E+02  0.35083464449E+02  0.51100000000E-03 0. -1.
        -11    1    3    3    0    0  0.83755403159E+01  0.37469103444E+00 -0.62710833287E+01  0.10469792516E+02  0.51100000000E-03 0.  1.
        -12    1    3    3    0    0 -0.32993276188E+02  0.15119683934E+01  0.29755027313E+02  0.44454515771E+02  0.00000000000E+00 0.  1.
</event>
<event>
 7    1  0.2294706E-015  0.9000777E+02  0.7816164E-02  0.1186339E+00
        -11   -1    0    0    0    0  0.00000000000E+00  0.00000000000E+00  0.45593999997E+02  0.45594000000E+02  0.51100000000E-03 0. -1.
         11   -1    0    0    0    0 -0.00000000000E+00 -0.00000000000E+00 -0.45593999997E+02  0.45594000000E+02  0.51100000000E-03 0.  1.
    9900012    2    1    2    0    0  0.10107917906E+01 -0.49064915891E+00 -0.36125430429E+00  0.90007770652E+02  0.90000032425E+02 0.  0.
        -12    1    1    2    0    0 -0.10107917906E+01  0.49064915891E+00  0.36125430429E+00  0.11802293478E+01  0.00000000000E+00 0.  1.
         11    1    3    3    0    0  0.77761005396E+01 -0.41584590113E+01 -0.24007477490E+01  0.91391526394E+01  0.51100000000E-03 0. -1.
        -11    1    3    3    0    0  0.14516364383E+02 -0.23719908073E+02 -0.24604911872E+02  0.37131665225E+02  0.51100000000E-03 0.  1.
         12    1    3    3    0    0 -0.21281673132E+02  0.27387717926E+02  0.26644405317E+02  0.43736952788E+02  0.00000000000E+00 0. -1.
</event>
<event>
 7    1  0.2294706E-015  0.9000850E+02  0.7816164E-02  0.1186338E+00
        -11   -1    0    0    0    0  0.00000000000E+00  0.00000000000E+00  0.45593999997E+02  0.45594000000E+02  0.51100000000E-03 0.  1.
         11   -1    0    0    0    0 -0.00000000000E+00 -0.00000000000E+00 -0.45593999997E+02  0.45594000000E+02  0.51100000000E-03 0. -1.
    9900012    2    1    2    0    0  0.51277510147E+00  0.89415278608E+00  0.57338749363E+00  0.90008499798E+02  0.90000771192E+02 0.  0.
        -12    1    1    2    0    0 -0.51277510147E+00 -0.89415278608E+00 -0.57338749363E+00  0.11795002024E+01  0.00000000000E+00 0.  1.
         11    1    3    3    0    0 -0.58005144319E+01  0.14692355361E+01  0.76413723482E+01  0.97054207719E+01  0.51100000000E-03 0. -1.
        -11    1    3    3    0    0 -0.96785845895E+01  0.24914058548E+02  0.24808899441E+02  0.36467338876E+02  0.51100000000E-03 0.  1.
         12    1    3    3    0    0  0.15991874123E+02 -0.25489141298E+02 -0.31876884295E+02  0.43835740149E+02  0.00000000000E+00 0. -1.
</event>
<event>
 7    1  0.2294706E-015  0.9000774E+02  0.7816164E-02  0.1186339E+00
        -11   -1    0    0    0    0  0.00000000000E+00  0.00000000000E+00  0.45593999997E+02  0.45594000000E+02  0.51100000000E-03 0.  1.
         11   -1    0    0    0    0 -0.00000000000E+00 -0.00000000000E+00 -0.45593999997E+02  0.45594000000E+02  0.51100000000E-03 0. -1.
    9900012    2    1    2    0    0 -0.31285313752E+00  0.53809173552E+00 -0.10027877082E+01  0.90007744524E+02  0.90000005951E+02 0.  0.
        -12    1    1    2    0    0  0.31285313752E+00 -0.53809173552E+00  0.10027877082E+01  0.11802554762E+01  0.00000000000E+00 0.  1.
         11    1    3    3    0    0 -0.47312426459E+01 -0.11156545336E+02  0.13871080138E+01  0.12197427176E+02  0.51100000000E-03 0. -1.
        -11    1    3    3    0    0 -0.35830148129E+02  0.56126810964E+01  0.44329542429E+01  0.36537005728E+02  0.51100000000E-03 0.  1.
         12    1    3    3    0    0  0.40248537637E+02  0.60819559751E+01 -0.68228499649E+01  0.41273311620E+02  0.00000000000E+00 0. -1.
</event>
<event>
 7    1  0.2294706E-015  0.9000775E+02  0.7816164E-02  0.1186339E+00
        -11   -1    0    0    0    0  0.00000000000E+00  0.00000000000E+00  0.45593999997E+02  0.45594000000E+02  0.51100000000E-03 0.  1.
         11   -1    0    0    0    0 -0.00000000000E+00 -0.00000000000E+00 -0.45593999997E+02  0.45594000000E+02  0.51100000000E-03 0. -1.
    9900012    2    1    2    0    0  0.37617954963E+00 -0.10826432485E+01 -0.28172588991E+00  0.90007747089E+02  0.90000008550E+02 0.  0.
        -12    1    1    2    0    0 -0.37617954963E+00  0.10826432485E+01  0.28172588991E+00  0.11802529111E+01  0.00000000000E+00 0.  1.
         11    1    3    3    0    0 -0.19861481469E+02  0.29815370118E+02 -0.46257991397E+01  0.36122468899E+02  0.51100000000E-03 0. -1.
        -11    1    3    3    0    0 -0.22989822333E+00  0.85256117720E+01  0.41035109242E+01  0.94645502506E+01  0.51100000000E-03 0.  1.
        -12    1    3    3    0    0  0.20467559242E+02 -0.39423625139E+02  0.24056232557E+00  0.44420727939E+02  0.00000000000E+00 0.  1.
</event>
<event>
 7    1  0.2294706E-015  0.9000771E+02  0.7816164E-02  0.1186339E+00
        -11   -1    0    0    0    0  0.00000000000E+00  0.00000000000E+00  0.45593999997E+02  0.45594000000E+02  0.51100000000E-03 0. -1.
         11   -1    0    0    0    0 -0.00000000000E+00 -0.00000000000E+00 -0.45593999997E+02  0.45594000000E+02  0.51100000000E-03 0.  1.
    9900012    2    1    2    0    0 -0.47332174510E+00 -0.40831845655E+00  0.10011581635E+01  0.90007713973E+02  0.89999974998E+02 0.  0.
        -12    1    1    2    0    0  0.47332174510E+00  0.40831845655E+00 -0.10011581635E+01  0.11802860266E+01  0.00000000000E+00 0.  1.
         11    1    3    3    0    0  0.10300043218E+02 -0.27135695863E+02  0.23798129167E+02  0.37533822512E+02  0.51100000000E-03 0. -1.
        -11    1    3    3    0    0 -0.33784359556E+01 -0.63923354197E+01 -0.16424559033E+02  0.17945526498E+02  0.51100000000E-03 0.  1.
        -12    1    3    3    0    0 -0.73949290075E+01  0.33119712826E+02 -0.63724119708E+01  0.34528364963E+02  0.00000000000E+00 0.  1.
</event>
<event>
 7    1  0.2294706E-015  0.9000815E+02  0.7816164E-02  0.1186338E+00
        -11   -1    0    0    0    0  0.00000000000E+00  0.00000000000E+00  0.45593999997E+02  0.45594000000E+02  0.51100000000E-03 0. -1.
         11   -1    0    0    0    0 -0.00000000000E+00 -0.00000000000E+00 -0.45593999997E+02  0.45594000000E+02  0.51100000000E-03 0.  1.
    9900012    2    1    2    0    0  0.33530889721E+00  0.68535973542E+00  0.89993606585E+00  0.90008154694E+02  0.90000421535E+02 0.  0.
        -12    1    1    2    0    0 -0.33530889721E+00 -0.68535973542E+00 -0.89993606585E+00  0.11798453060E+01  0.00000000000E+00 0.  1.
         11    1    3    3    0    0  0.16855007782E+02  0.17922449911E+01  0.38772748453E+01  0.17387831662E+02  0.51100000000E-03 0. -1.
        -11    1    3    3    0    0 -0.16955869860E+01  0.11382209300E+01 -0.36154770569E+02  0.36212401153E+02  0.51100000000E-03 0.  1.
         12    1    3    3    0    0 -0.14824111898E+02 -0.22451061856E+01  0.33177431790E+02  0.36407921879E+02  0.00000000000E+00 0. -1.
</event>
<event>
 7    1  0.2294706E-015  0.9000770E+02  0.7816164E-02  0.1186339E+00
        -11   -1    0    0    0    0  0.00000000000E+00  0.00000000000E+00  0.45593999997E+02  0.45594000000E+02  0.51100000000E-03 0. -1.
         11   -1    0    0    0    0 -0.00000000000E+00 -0.00000000000E+00 -0.45593999997E+02  0.45594000000E+02  0.51100000000E-03 0.  1.
    9900012    2    1    2    0    0  0.68140160111E+00  0.51788683330E+00  0.81276940418E+00  0.90007699607E+02  0.89999960441E+02 0.  0.
        -12    1    1    2    0    0 -0.68140160111E+00 -0.51788683330E+00 -0.81276940418E+00  0.11803003933E+01  0.00000000000E+00 0.  1.
         11    1    3    3    0    0 -0.80534399834E+01  0.51557080987E+01 -0.82603798419E+01  0.12636182056E+02  0.51100000000E-03 0. -1.
        -11    1    3    3    0    0 -0.26476318578E+02 -0.16770208150E+02 -0.13166325843E+02  0.33993932743E+02  0.51100000000E-03 0.  1.
         12    1    3    3    0    0  0.35211160162E+02  0.12132386885E+02  0.22239475090E+02  0.43377584808E+02  0.00000000000E+00 0. -1.
</event>
<event>
 7    1  0.2294706E-015  0.9000772E+02  0.7816164E-02  0.1186339E+00
        -11   -1    0    0    0    0  0.00000000000E+00  0.00000000000E+00  0.45593999997E+02  0.45594000000E+02  0.51100000000E-03 0. -1.
         11   -1    0    0    0    0 -0.00000000000E+00 -0.00000000000E+00 -0.45593999997E+02  0.45594000000E+02  0.51100000000E-03 0.  1.
    9900012    2    1    2    0    0  0.23754218565E+00  0.11518169869E+01 -0.99778867231E-01  0.90007718473E+02  0.89999979557E+02 0.  0.
        -12    1    1    2    0    0 -0.23754218565E+00 -0.11518169869E+01  0.99778867231E-01  0.11802815273E+01  0.00000000000E+00 0.  1.
         11    1    3    3    0    0  0.23082740975E+02 -0.16363735702E+02  0.20979186029E+02  0.35223728135E+02  0.51100000000E-03 0. -1.
        -11    1    3    3    0    0 -0.25839477009E+01 -0.13322456703E+02 -0.71925490108E+01  0.15358951782E+02  0.51100000000E-03 0.  1.
        -12    1    3    3    0    0 -0.20261251088E+02  0.30838009392E+02 -0.13886415885E+02  0.39425038555E+02  0.00000000000E+00 0.  1.
</event>
<event>
 7    1  0.2294706E-015  0.9000767E+02  0.7816164E-02  0.1186339E+00
        -11   -1    0    0    0    0  0.00000000000E+00  0.00000000000E+00  0.45593999997E+02  0.45594000000E+02  0.51100000000E-03 0. -1.
         11   -1    0    0    0    0 -0.00000000000E+00 -0.00000000000E+00 -0.45593999997E+02  0.45594000000E+02  0.51100000000E-03 0.  1.
    9900012    2    1    2    0    0  0.10073331344E+01 -0.12769910429E+00 -0.60179462554E+00  0.90007667896E+02  0.89999928312E+02 0.  0.
        -12    1    1    2    0    0 -0.10073331344E+01  0.12769910429E+00  0.60179462554E+00  0.11803321042E+01  0.00000000000E+00 0.  1.
         11    1    3    3    0    0  0.27948411201E+00 -0.61317334099E+01  0.96750932116E+01  0.11457909709E+02  0.51100000000E-03 0. -1.
        -11    1    3    3    0    0 -0.36739349336E+02  0.13457393374E+02 -0.55357447299E+00  0.39130393187E+02  0.51100000000E-03 0.  1.
         12    1    3    3    0    0  0.37467198358E+02 -0.74533590682E+01 -0.97233133641E+01  0.39419365000E+02  0.00000000000E+00 0. -1.
</event>
<event>
 7    1  0.2294706E-015  0.9000773E+02  0.7816164E-02  0.1186339E+00
        -11   -1    0    0    0    0  0.00000000000E+00  0.00000000000E+00  0.45593999997E+02  0.45594000000E+02  0.51100000000E-03 0. -1.
         11   -1    0    0    0    0 -0.00000000000E+00 -0.00000000000E+00 -0.45593999997E+02  0.45594000000E+02  0.51100000000E-03 0.  1.
    9900012    2    1    2    0    0  0.16462161590E+00 -0.58066474461E+00  0.10142776742E+01  0.90007732648E+02  0.89999993919E+02 0.  0.
        -12    1    1    2    0    0 -0.16462161590E+00  0.58066474461E+00 -0.10142776742E+01  0.11802673521E+01  0.00000000000E+00 0.  1.
         11    1    3    3    0    0 -0.32845876539E+02 -0.23808903452E+02  0.12874250589E+02  0.42561271335E+02  0.51100000000E-03 0. -1.
        -11    1    3    3    0    0  0.62781531851E+01  0.30068257795E+01  0.62437262940E+01  0.93509532658E+01  0.51100000000E-03 0.  1.
        -12    1    3    3    0    0  0.26732344969E+02  0.20221412928E+02 -0.18103699208E+02  0.38095508047E+02  0.00000000000E+00 0.  1.
</event>
<event>
 7    1  0.2294706E-015  0.9000776E+02  0.7816164E-02  0.1186339E+00
        -11   -1    0    0    0    0  0.00000000000E+00  0.00000000000E+00  0.45593999997E+02  0.45594000000E+02  0.51100000000E-03 0. -1.
         11   -1    0    0    0    0 -0.00000000000E+00 -0.00000000000E+00 -0.45593999997E+02  0.45594000000E+02  0.51100000000E-03 0.  1.
    9900012    2    1    2    0    0  0.45353198650E+00 -0.10892949003E+01  0.26538492041E-01  0.90007763187E+02  0.90000024861E+02 0.  0.
        -12    1    1    2    0    0 -0.45353198650E+00  0.10892949003E+01 -0.26538492041E-01  0.11802368127E+01  0.00000000000E+00 0.  1.
         11    1    3    3    0    0  0.45274476822E+01  0.20247944805E+01 -0.83453508130E+01  0.97078553583E+01  0.51100000000E-03 0. -1.
        -11    1    3    3    0    0  0.21200041206E+02 -0.33663827961E+02  0.83536982274E+01  0.40650699064E+02  0.51100000000E-03 0.  1.
         12    1    3    3    0    0 -0.25273956902E+02  0.30549738580E+02  0.18191077658E-01  0.39649208765E+02  0.00000000000E+00 0. -1.
</event>
<event>
 7    1  0.2294706E-015  0.9000767E+02  0.7816164E-02  0.1186339E+00
        -11   -1    0    0    0    0  0.00000000000E+00  0.00000000000E+00  0.45593999997E+02  0.45594000000E+02  0.51100000000E-03 0.  1.
         11   -1    0    0    0    0 -0.00000000000E+00 -0.00000000000E+00 -0.45593999997E+02  0.45594000000E+02  0.51100000000E-03 0. -1.
    9900012    2    1    2    0    0  0.91863906689E+00  0.45203836626E+00 -0.58731543108E+00  0.90007671302E+02  0.89999931763E+02 0.  0.
        -12    1    1    2    0    0 -0.91863906689E+00 -0.45203836626E+00  0.58731543108E+00  0.11803286980E+01  0.00000000000E+00 0.  1.
         11    1    3    3    0    0 -0.41768163235E+02 -0.59841663824E+01  0.14933872220E+01  0.42221083749E+02  0.51100000000E-03 0. -1.
        -11    1    3    3    0    0  0.54129372952E+01  0.60079895025E+01 -0.63289640200E+01  0.10268963621E+02  0.51100000000E-03 0.  1.
        -12    1    3    3    0    0  0.37273865007E+02  0.42821524624E+00  0.42482613669E+01  0.37517623932E+02  0.00000000000E+00 0.  1.
</event>
<event>
 7    1  0.2294706E-015  0.9000776E+02  0.7816164E-02  0.1186339E+00
        -11   -1    0    0    0    0  0.00000000000E+00  0.00000000000E+00  0.45593999997E+02  0.45594000000E+02  0.51100000000E-03 0.  1.
         11   -1    0    0    0    0 -0.00000000000E+00 -0.00000000000E+00 -0.45593999997E+02  0.45594000000E+02  0.51100000000E-03 0. -1.
    9900012    2    1    2    0    0 -0.15503196795E+00  0.94795726768E+00  0.68579186126E+00  0.90007759190E+02  0.90000020811E+02 0.  0.
        -12    1    1    2    0    0  0.15503196795E+00 -0.94795726768E+00 -0.68579186126E+00  0.11802408099E+01  0.00000000000E+00 0.  1.
         11    1    3    3    0    0  0.77902375681E+01 -0.40638588317E+02 -0.35576240974E+01  0.41531185286E+02  0.51100000000E-03 0. -1.
        -11    1    3    3    0    0 -0.87319388523E+01  0.24886352408E+01  0.20565981792E+01  0.93096540115E+01  0.51100000000E-03 0.  1.
        -12    1    3    3    0    0  0.78666931626E+00  0.39097910344E+02  0.21868177794E+01  0.39166919893E+02  0.00000000000E+00 0.  1.
</event>
<event>
 7    1  0.2294706E-015  0.9000847E+02  0.7816164E-02  0.1186338E+00
        -11   -1    0    0    0    0  0.00000000000E+00  0.00000000000E+00  0.45593999997E+02  0.45594000000E+02  0.51100000000E-03 0. -1.
         11   -1    0    0    0    0 -0.00000000000E+00 -0.00000000000E+00 -0.45593999997E+02  0.45594000000E+02  0.51100000000E-03 0.  1.
    9900012    2    1    2    0    0 -0.91084614266E+00  0.15668263894E+00  0.73287872124E+00  0.90008465615E+02  0.90000736558E+02 0.  0.
        -12    1    1    2    0    0  0.91084614266E+00 -0.15668263894E+00 -0.73287872124E+00  0.11795343848E+01  0.00000000000E+00 0.  1.
         11    1    3    3    0    0 -0.16564095764E+01  0.65631059289E+01  0.37631220825E+01  0.77446200803E+01  0.51100000000E-03 0. -1.
        -11    1    3    3    0    0  0.22763353185E+02  0.15249827334E+02 -0.30451533205E+02  0.40963683388E+02  0.51100000000E-03 0.  1.
         12    1    3    3    0    0 -0.22017789751E+02 -0.21656250624E+02  0.27421289844E+02  0.41300162146E+02  0.00000000000E+00 0. -1.
</event>
<event>
 7    1  0.2294706E-015  0.9000777E+02  0.7816164E-02  0.1186339E+00
        -11   -1    0    0    0    0  0.00000000000E+00  0.00000000000E+00  0.45593999997E+02  0.45594000000E+02  0.51100000000E-03 0.  1.
         11   -1    0    0    0    0 -0.00000000000E+00 -0.00000000000E+00 -0.45593999997E+02  0.45594000000E+02  0.51100000000E-03 0. -1.
    9900012    2    1    2    0    0 -0.89573224539E+00  0.73954819874E+00 -0.20897199034E+00  0.90007772443E+02  0.90000034239E+02 0.  0.
        -12    1    1    2    0    0  0.89573224539E+00 -0.73954819874E+00  0.20897199034E+00  0.11802275571E+01  0.00000000000E+00 0.  1.
         11    1    3    3    0    0 -0.59733827661E+01  0.19997587294E+01  0.73990104866E+01  0.97172883608E+01  0.51100000000E-03 0. -1.
        -11    1    3    3    0    0 -0.92033124607E+01  0.37482403864E+02 -0.49856358515E+01  0.38916424871E+02  0.51100000000E-03 0.  1.
         12    1    3    3    0    0  0.14280962981E+02 -0.38742614394E+02 -0.26223466255E+01  0.41374059211E+02  0.00000000000E+00 0. -1.
</event>
<event>
 7    1  0.2294706E-015  0.9000763E+02  0.7816164E-02  0.1186339E+00
        -11   -1    0    0    0    0  0.00000000000E+00  0.00000000000E+00  0.45593999997E+02  0.45594000000E+02  0.51100000000E-03 0.  1.
         11   -1    0    0    0    0 -0.00000000000E+00 -0.00000000000E+00 -0.45593999997E+02  0.45594000000E+02  0.51100000000E-03 0. -1.
    9900012    2    1    2    0    0 -0.10990051357E+01 -0.19198454380E+00 -0.38548770284E+00  0.90007630938E+02  0.89999890866E+02 0.  0.
        -12    1    1    2    0    0  0.10990051357E+01  0.19198454380E+00  0.38548770284E+00  0.11803690619E+01  0.00000000000E+00 0.  1.
         11    1    3    3    0    0  0.27251639095E+02  0.12993932881E+02 -0.31792419600E+02  0.43843495178E+02  0.51100000000E-03 0. -1.
        -11    1    3    3    0    0 -0.91144447907E+01 -0.23022793502E+01  0.24104613250E+01  0.97048399322E+01  0.51100000000E-03 0.  1.
        -12    1    3    3    0    0 -0.19236199440E+02 -0.10883638074E+02  0.28996470572E+02  0.36459295828E+02  0.00000000000E+00 0.  1.
</event>
<event>
 7    1  0.2294706E-015  0.9000798E+02  0.7816164E-02  0.1186339E+00
        -11   -1    0    0    0    0  0.00000000000E+00  0.00000000000E+00  0.45593999997E+02  0.45594000000E+02  0.51100000000E-03 0.  1.
         11   -1    0    0    0    0 -0.00000000000E+00 -0.00000000000E+00 -0.45593999997E+02  0.45594000000E+02  0.51100000000E-03 0. -1.
    9900012    2    1    2    0    0  0.23586613847E-01 -0.42163065459E+00 -0.11018748269E+01  0.90007975902E+02  0.90000240384E+02 0.  0.
        -12    1    1    2    0    0 -0.23586613847E-01  0.42163065459E+00  0.11018748269E+01  0.11800240978E+01  0.00000000000E+00 0.  1.
         11    1    3    3    0    0  0.76289759927E+01 -0.24867655055E+01  0.10198785363E+01  0.80885987579E+01  0.51100000000E-03 0. -1.
        -11    1    3    3    0    0  0.24031777331E+02  0.30794674698E+02  0.95414057226E+00  0.39073631722E+02  0.51100000000E-03 0.  1.
         12    1    3    3    0    0 -0.31637166710E+02 -0.28729539847E+02 -0.30758939354E+01  0.42845745422E+02  0.00000000000E+00 0. -1.
</event>
<event>
 7    1  0.2294706E-015  0.9000775E+02  0.7816164E-02  0.1186339E+00
        -11   -1    0    0    0    0  0.00000000000E+00  0.00000000000E+00  0.45593999997E+02  0.45594000000E+02  0.51100000000E-03 0.  1.
         11   -1    0    0    0    0 -0.00000000000E+00 -0.00000000000E+00 -0.45593999997E+02  0.45594000000E+02  0.51100000000E-03 0. -1.
    9900012    2    1    2    0    0  0.81138125220E+00  0.49134808982E+00 -0.70229778558E+00  0.90007752288E+02  0.90000013818E+02 0.  0.
        -12    1    1    2    0    0 -0.81138125220E+00 -0.49134808982E+00  0.70229778558E+00  0.11802477119E+01  0.00000000000E+00 0.  1.
         11    1    3    3    0    0 -0.69912394425E+01 -0.87982838724E+00 -0.33183546197E+02  0.33923432394E+02  0.51100000000E-03 0. -1.
        -11    1    3    3    0    0 -0.57599823545E+01 -0.62508461180E+01 -0.86389258964E+01  0.12119468421E+02  0.51100000000E-03 0.  1.
        -12    1    3    3    0    0  0.13562603049E+02  0.76220225951E+01  0.41120174308E+02  0.43964851473E+02  0.00000000000E+00 0.  1.
</event>
<event>
 7    1  0.2294706E-015  0.9000773E+02  0.7816164E-02  0.1186339E+00
        -11   -1    0    0    0    0  0.00000000000E+00  0.00000000000E+00  0.45593999997E+02  0.45594000000E+02  0.51100000000E-03 0.  1.
         11   -1    0    0    0    0 -0.00000000000E+00 -0.00000000000E+00 -0.45593999997E+02  0.45594000000E+02  0.51100000000E-03 0. -1.
    9900012    2    1    2    0    0 -0.71659166695E+00 -0.71553147917E-01 -0.93510189450E+00  0.90007729259E+02  0.89999990485E+02 0.  0.
        -12    1    1    2    0    0  0.71659166695E+00  0.71553147917E-01  0.93510189450E+00  0.11802707415E+01  0.00000000000E+00 0.  1.
         11    1    3    3    0    0  0.39124682965E+01 -0.33880596173E+01  0.89839339946E+01  0.10368096567E+02  0.51100000000E-03 0. -1.
        -11    1    3    3    0    0  0.13719880624E+02 -0.29584459626E+02  0.13485788497E+02  0.35289401629E+02  0.51100000000E-03 0.  1.
         12    1    3    3    0    0 -0.18348940588E+02  0.32900966095E+02 -0.23404824386E+02  0.44350231062E+02  0.00000000000E+00 0. -1.
</event>
<event>
 7    1  0.2773236E-015  0.9000779E+02  0.7816164E-02  0.1186339E+00
        -11   -1    0    0    0    0  0.00000000000E+00  0.00000000000E+00  0.45593999997E+02  0.45594000000E+02  0.51100000000E-03 0.  1.
         11   -1    0    0    0    0 -0.00000000000E+00 -0.00000000000E+00 -0.45593999997E+02  0.45594000000E+02  0.51100000000E-03 0. -1.
    9900012    2    1    2    0    0 -0.94035233630E+00 -0.71119279051E+00  0.53275110523E-01  0.90007789875E+02  0.90000051901E+02 0.  0.
        -12    1    1    2    0    0  0.94035233630E+00  0.71119279051E+00 -0.53275110523E-01  0.11802101250E+01  0.00000000000E+00 0.  1.
         11    1    3    3    0    0  0.99434237549E+01 -0.33465636012E+02  0.11511730949E+02  0.36760582413E+02  0.51100000000E-03 0. -1.
        -11    1    3    3    0    0  0.55225343006E+01 -0.67446082055E+01 -0.48300818249E+01  0.99658324109E+01  0.51100000000E-03 0.  1.
        -12    1    3    3    0    0 -0.16406310392E+02  0.39499051427E+02 -0.66283740134E+01  0.43281375051E+02  0.00000000000E+00 0.  1.
</event>
<event>
 7    1  0.2294706E-015  0.9000763E+02  0.7816164E-02  0.1186339E+00
        -11   -1    0    0    0    0  0.00000000000E+00  0.00000000000E+00  0.45593999997E+02  0.45594000000E+02  0.51100000000E-03 0.  1.
         11   -1    0    0    0    0 -0.00000000000E+00 -0.00000000000E+00 -0.45593999997E+02  0.45594000000E+02  0.51100000000E-03 0. -1.
    9900012    2    1    2    0    0  0.46880115393E+00  0.10787092483E+01  0.99432916515E-01  0.90007629266E+02  0.89999889172E+02 0.  0.
        -12    1    1    2    0    0 -0.46880115393E+00 -0.10787092483E+01 -0.99432916515E-01  0.11803707338E+01  0.00000000000E+00 0.  1.
         11    1    3    3    0    0 -0.84608971184E+01 -0.20603501594E+01 -0.16728252926E+01  0.88673653104E+01  0.51100000000E-03 0. -1.
        -11    1    3    3    0    0  0.80359840079E+01 -0.11633280465E+02  0.38783212858E+02  0.41280114501E+02  0.51100000000E-03 0.  1.
         12    1    3    3    0    0  0.89371426451E+00  0.14772339872E+02 -0.37010954649E+02  0.39860149455E+02  0.00000000000E+00 0. -1.
</event>
<event>
 7    1  0.2294706E-015  0.9000784E+02  0.7816164E-02  0.1186339E+00
        -11   -1    0    0    0    0  0.00000000000E+00  0.00000000000E+00  0.45593999997E+02  0.45594000000E+02  0.51100000000E-03 0.  1.
         11   -1    0    0    0    0 -0.00000000000E+00 -0.00000000000E+00 -0.45593999997E+02  0.45594000000E+02  0.51100000000E-03 0. -1.
    9900012    2    1    2    0    0  0.13576666362E+00  0.33744204701E-01 -0.11718377252E+01  0.90007841149E+02  0.90000103853E+02 0.  0.
        -12    1    1    2    0    0 -0.13576666362E+00 -0.33744204701E-01  0.11718377252E+01  0.11801588505E+01  0.00000000000E+00 0.  1.
         11    1    3    3    0    0 -0.63983607508E+01  0.30390944261E+01  0.45802951961E+01  0.84352960572E+01  0.51100000000E-03 0. -1.
        -11    1    3    3    0    0 -0.21713914558E+02 -0.56919084686E+01  0.29022128256E+02  0.36690268958E+02  0.51100000000E-03 0.  1.
         12    1    3    3    0    0  0.28248041972E+02  0.26865582472E+01 -0.34774261178E+02  0.44882276134E+02  0.00000000000E+00 0. -1.
</event>
<event>
 7    1  0.2294706E-015  0.9000769E+02  0.7816164E-02  0.1186339E+00
        -11   -1    0    0    0    0  0.00000000000E+00  0.00000000000E+00  0.45593999997E+02  0.45594000000E+02  0.51100000000E-03 0.  1.
         11   -1    0    0    0    0 -0.00000000000E+00 -0.00000000000E+00 -0.45593999997E+02  0.45594000000E+02  0.51100000000E-03 0. -1.
    9900012    2    1    2    0    0  0.34234337506E+00  0.64202615452E+00 -0.92936917284E+00  0.90007693417E+02  0.89999954170E+02 0.  0.
        -12    1    1    2    0    0 -0.34234337506E+00 -0.64202615452E+00  0.92936917284E+00  0.11803065826E+01  0.00000000000E+00 0.  1.
         11    1    3    3    0    0  0.75447222621E+01 -0.35977759386E+01  0.41980307704E+01  0.93536243418E+01  0.51100000000E-03 0. -1.
        -11    1    3    3    0    0  0.22158262273E+02 -0.28356266547E+02 -0.73426252051E+01  0.36728471036E+02  0.51100000000E-03 0.  1.
         12    1    3    3    0    0 -0.29360641161E+02  0.32596068640E+02  0.22152252619E+01  0.43925598040E+02  0.00000000000E+00 0. -1.
</event>
<event>
 7    1  0.2294706E-015  0.9000736E+02  0.7816164E-02  0.1186340E+00
        -11   -1    0    0    0    0  0.00000000000E+00  0.00000000000E+00  0.45593999997E+02  0.45594000000E+02  0.51100000000E-03 0. -1.
         11   -1    0    0    0    0 -0.00000000000E+00 -0.00000000000E+00 -0.45593999997E+02  0.45594000000E+02  0.51100000000E-03 0.  1.
    9900012    2    1    2    0    0 -0.71466783560E+00 -0.37363918678E+00 -0.86229711298E+00  0.90007359213E+02  0.89999615554E+02 0.  0.
        -12    1    1    2    0    0  0.71466783560E+00  0.37363918678E+00  0.86229711298E+00  0.11806407871E+01  0.00000000000E+00 0.  1.
         11    1    3    3    0    0  0.19356921227E+01  0.99259910491E+01  0.28801260934E+01  0.10515100041E+02  0.51100000000E-03 0. -1.
        -11    1    3    3    0    0  0.12557383984E+02  0.31259914069E+02 -0.91503576801E+01  0.34908439754E+02  0.51100000000E-03 0.  1.
         12    1    3    3    0    0 -0.15207743942E+02 -0.41559544305E+02  0.54079344737E+01  0.44583819418E+02  0.00000000000E+00 0. -1.
</event>
<event>
 7    1  0.2294706E-015  0.9000776E+02  0.7816164E-02  0.1186339E+00
        -11   -1    0    0    0    0  0.00000000000E+00  0.00000000000E+00  0.45593999997E+02  0.45594000000E+02  0.51100000000E-03 0.  1.
         11   -1    0    0    0    0 -0.00000000000E+00 -0.00000000000E+00 -0.45593999997E+02  0.45594000000E+02  0.51100000000E-03 0. -1.
    9900012    2    1    2    0    0 -0.87985763755E+00  0.11733578942E+00 -0.77784394406E+00  0.90007763434E+02  0.90000025112E+02 0.  0.
        -12    1    1    2    0    0  0.87985763755E+00 -0.11733578942E+00  0.77784394406E+00  0.11802365658E+01  0.00000000000E+00 0.  1.
         11    1    3    3    0    0  0.93437210691E-01  0.25877492552E+02 -0.29501190407E+02  0.39242497206E+02  0.51100000000E-03 0. -1.
        -11    1    3    3    0    0 -0.20983726188E+01  0.78816866849E+01  0.65100175739E+01  0.10435731010E+02  0.51100000000E-03 0.  1.
        -12    1    3    3    0    0  0.11250777706E+01 -0.33641843448E+02  0.22213328889E+02  0.40329535218E+02  0.00000000000E+00 0.  1.
</event>
<event>
 7    1  0.2294706E-015  0.9000773E+02  0.7816164E-02  0.1186339E+00
        -11   -1    0    0    0    0  0.00000000000E+00  0.00000000000E+00  0.45593999997E+02  0.45594000000E+02  0.51100000000E-03 0.  1.
         11   -1    0    0    0    0 -0.00000000000E+00 -0.00000000000E+00 -0.45593999997E+02  0.45594000000E+02  0.51100000000E-03 0. -1.
    9900012    2    1    2    0    0 -0.11008421788E+01 -0.34585079863E+00  0.24814843426E+00  0.90007727183E+02  0.89999988382E+02 0.  0.
        -12    1    1    2    0    0  0.11008421788E+01  0.34585079863E+00 -0.24814843426E+00  0.11802728172E+01  0.00000000000E+00 0.  1.
         11    1    3    3    0    0  0.94098240212E+01  0.44984931554E+01  0.31550156803E+01  0.10896575287E+02  0.51100000000E-03 0. -1.
        -11    1    3    3    0    0  0.85055074865E+01 -0.28933092480E+02  0.23807997558E+02  0.38422496613E+02  0.51100000000E-03 0.  1.
         12    1    3    3    0    0 -0.19016173687E+02  0.24088748526E+02 -0.26714864804E+02  0.40688655282E+02  0.00000000000E+00 0. -1.
</event>
<event>
 7    1  0.2294706E-015  0.9000770E+02  0.7816164E-02  0.1186339E+00
        -11   -1    0    0    0    0  0.00000000000E+00  0.00000000000E+00  0.45593999997E+02  0.45594000000E+02  0.51100000000E-03 0.  1.
         11   -1    0    0    0    0 -0.00000000000E+00 -0.00000000000E+00 -0.45593999997E+02  0.45594000000E+02  0.51100000000E-03 0. -1.
    9900012    2    1    2    0    0 -0.54082051523E+00 -0.63631094452E+00 -0.83410881298E+00  0.90007696666E+02  0.89999957462E+02 0.  0.
        -12    1    1    2    0    0  0.54082051523E+00  0.63631094452E+00  0.83410881298E+00  0.11803033338E+01  0.00000000000E+00 0.  1.
         11    1    3    3    0    0  0.25586280208E+01 -0.14862583564E+02  0.78976003565E+01  0.17023955451E+02  0.51100000000E-03 0. -1.
        -11    1    3    3    0    0 -0.19825601942E+02  0.18863664301E+02  0.23698351081E+02  0.36200886280E+02  0.51100000000E-03 0.  1.
         12    1    3    3    0    0  0.16726153406E+02 -0.46373916809E+01 -0.32430060250E+02  0.36782854936E+02  0.00000000000E+00 0. -1.
</event>
<event>
 7    1  0.2294706E-015  0.9000650E+02  0.7816164E-02  0.1186342E+00
        -11   -1    0    0    0    0  0.00000000000E+00  0.00000000000E+00  0.45593999997E+02  0.45594000000E+02  0.51100000000E-03 0.  1.
         11   -1    0    0    0    0 -0.00000000000E+00 -0.00000000000E+00 -0.45593999997E+02  0.45594000000E+02  0.51100000000E-03 0. -1.
    9900012    2    1    2    0    0  0.56159099263E+00  0.81036289384E+00  0.65104566914E+00  0.90006503946E+02  0.89998748989E+02 0.  0.
        -12    1    1    2    0    0 -0.56159099263E+00 -0.81036289384E+00 -0.65104566914E+00  0.11814960542E+01  0.00000000000E+00 0.  1.
         11    1    3    3    0    0  0.18409254213E+02  0.27811549865E+02 -0.20124499587E+02  0.38953541950E+02  0.51100000000E-03 0. -1.
        -11    1    3    3    0    0  0.73623543000E+01  0.22989913957E+01  0.55830585466E+01  0.95215631738E+01  0.51100000000E-03 0.  1.
        -12    1    3    3    0    0 -0.25210017521E+02 -0.29300178366E+02  0.15192486709E+02  0.41531398822E+02  0.00000000000E+00 0.  1.
</event>
<event>
 7    1  0.3084807E-015  0.9000769E+02  0.7816164E-02  0.1186339E+00
        -11   -1    0    0    0    0  0.00000000000E+00  0.00000000000E+00  0.45593999997E+02  0.45594000000E+02  0.51100000000E-03 0. -1.
         11   -1    0    0    0    0 -0.00000000000E+00 -0.00000000000E+00 -0.45593999997E+02  0.45594000000E+02  0.51100000000E-03 0.  1.
    9900012    2    1    2    0    0  0.25073637477E+00 -0.89035803257E+00  0.73316003089E+00  0.90007690809E+02  0.89999951528E+02 0.  0.
        -12    1    1    2    0    0 -0.25073637477E+00  0.89035803257E+00 -0.73316003089E+00  0.11803091911E+01  0.00000000000E+00 0.  1.
         11    1    3    3    0    0  0.10367902625E+02  0.10061353302E+02  0.33746208514E+02  0.36708729540E+02  0.51100000000E-03 0. -1.
        -11    1    3    3    0    0  0.92692055709E+01  0.79481717733E+00  0.38142291316E+01  0.10054762573E+02  0.51100000000E-03 0.  1.
        -12    1    3    3    0    0 -0.19386371821E+02 -0.11746528511E+02 -0.36827277614E+02  0.43244198697E+02  0.00000000000E+00 0.  1.
</event>
<event>
 7    1  0.2294706E-015  0.9000799E+02  0.7816164E-02  0.1186339E+00
        -11   -1    0    0    0    0  0.00000000000E+00  0.00000000000E+00  0.45593999997E+02  0.45594000000E+02  0.51100000000E-03 0. -1.
         11   -1    0    0    0    0 -0.00000000000E+00 -0.00000000000E+00 -0.45593999997E+02  0.45594000000E+02  0.51100000000E-03 0.  1.
    9900012    2    1    2    0    0 -0.10265030874E+01  0.51744403353E+00  0.26639502723E+00  0.90007990158E+02  0.90000254828E+02 0.  0.
        -12    1    1    2    0    0  0.10265030874E+01 -0.51744403353E+00 -0.26639502723E+00  0.11800098418E+01  0.00000000000E+00 0.  1.
         11    1    3    3    0    0  0.11107078648E+01  0.74496681633E+01 -0.38686388414E+01  0.84674432062E+01  0.51100000000E-03 0. -1.
        -11    1    3    3    0    0  0.26891620167E+02  0.12049120917E+02 -0.23099216603E+02  0.37442146814E+02  0.51100000000E-03 0.  1.
         12    1    3    3    0    0 -0.29028831120E+02 -0.18981345047E+02  0.27234250472E+02  0.44098400138E+02  0.00000000000E+00 0. -1.
</event>
<event>
 7    1  0.2294706E-015  0.9000774E+02  0.7816164E-02  0.1186339E+00
        -11   -1    0    0    0    0  0.00000000000E+00  0.00000000000E+00  0.45593999997E+02  0.45594000000E+02  0.51100000000E-03 0.  1.
         11   -1    0    0    0    0 -0.00000000000E+00 -0.00000000000E+00 -0.45593999997E+02  0.45594000000E+02  0.51100000000E-03 0. -1.
    9900012    2    1    2    0    0 -0.30450738680E+00  0.47641922653E+00 -0.10360120250E+01  0.90007736917E+02  0.89999998245E+02 0.  0.
        -12    1    1    2    0    0  0.30450738680E+00 -0.47641922653E+00  0.10360120250E+01  0.11802630825E+01  0.00000000000E+00 0.  1.
         11    1    3    3    0    0  0.43973512015E+01 -0.12041815256E+02 -0.39366975246E+02  0.41401699875E+02  0.51100000000E-03 0. -1.
        -11    1    3    3    0    0 -0.91141903310E+01  0.38263250525E+01  0.89889995743E+00  0.99255856347E+01  0.51100000000E-03 0.  1.
        -12    1    3    3    0    0  0.44123317427E+01  0.86919094298E+01  0.37432063264E+02  0.38680451408E+02  0.00000000000E+00 0.  1.
</event>
<event>
 7    1  0.2294706E-015  0.9000770E+02  0.7816164E-02  0.1186339E+00
        -11   -1    0    0    0    0  0.00000000000E+00  0.00000000000E+00  0.45593999997E+02  0.45594000000E+02  0.51100000000E-03 0.  1.
         11   -1    0    0    0    0 -0.00000000000E+00 -0.00000000000E+00 -0.45593999997E+02  0.45594000000E+02  0.51100000000E-03 0. -1.
    9900012    2    1    2    0    0 -0.42362111019E+00 -0.10862709295E+01 -0.18350575986E+00  0.90007697606E+02  0.89999958414E+02 0.  0.
        -12    1    1    2    0    0  0.42362111019E+00  0.10862709295E+01  0.18350575986E+00  0.11803023939E+01  0.00000000000E+00 0.  1.
         11    1    3    3    0    0 -0.93767890095E+01  0.23600864298E+02 -0.26640661193E+02  0.36805567470E+02  0.51100000000E-03 0. -1.
        -11    1    3    3    0    0 -0.50605873976E+01  0.73174737782E+01 -0.73782590661E+00  0.89274495032E+01  0.51100000000E-03 0.  1.
        -12    1    3    3    0    0  0.14013755297E+02 -0.32004609005E+02  0.27194981339E+02  0.44274680633E+02  0.00000000000E+00 0.  1.
</event>
<event>
 7    1  0.2294706E-015  0.9000766E+02  0.7816164E-02  0.1186339E+00
        -11   -1    0    0    0    0  0.00000000000E+00  0.00000000000E+00  0.45593999997E+02  0.45594000000E+02  0.51100000000E-03 0.  1.
         11   -1    0    0    0    0 -0.00000000000E+00 -0.00000000000E+00 -0.45593999997E+02  0.45594000000E+02  0.51100000000E-03 0. -1.
    9900012    2    1    2    0    0 -0.57675477500E-02  0.45750650205E+00 -0.10880568266E+01  0.90007655507E+02  0.89999915760E+02 0.  0.
        -12    1    1    2    0    0  0.57675477500E-02 -0.45750650205E+00  0.10880568266E+01  0.11803444929E+01  0.00000000000E+00 0.  1.
         11    1    3    3    0    0 -0.26573074791E+02 -0.31133919456E+02 -0.14855056720E+02  0.43544482486E+02  0.51100000000E-03 0. -1.
        -11    1    3    3    0    0  0.74675378313E+01  0.90500962416E+00  0.56768598430E+01  0.94239005523E+01  0.51100000000E-03 0.  1.
        -12    1    3    3    0    0  0.19099769412E+02  0.30686416334E+02  0.80901400500E+01  0.37039272469E+02  0.00000000000E+00 0.  1.
</event>
<event>
 7    1  0.2294706E-015  0.9000774E+02  0.7816164E-02  0.1186339E+00
        -11   -1    0    0    0    0  0.00000000000E+00  0.00000000000E+00  0.45593999997E+02  0.45594000000E+02  0.51100000000E-03 0. -1.
         11   -1    0    0    0    0 -0.00000000000E+00 -0.00000000000E+00 -0.45593999997E+02  0.45594000000E+02  0.51100000000E-03 0.  1.
    9900012    2    1    2    0    0  0.26209012257E+00 -0.73584990641E+00  0.88478283513E+00  0.90007742832E+02  0.90000004237E+02 0.  0.
        -12    1    1    2    0    0 -0.26209012257E+00  0.73584990641E+00 -0.88478283513E+00  0.11802571679E+01  0.00000000000E+00 0.  1.
         11    1    3    3    0    0  0.78405596394E+01  0.48999215543E+01 -0.30227306430E+00  0.92506743518E+01  0.51100000000E-03 0. -1.
        -11    1    3    3    0    0  0.19401126655E+02  0.23558687837E+02 -0.19226160538E+02  0.36070219536E+02  0.51100000000E-03 0.  1.
         12    1    3    3    0    0 -0.26979596172E+02 -0.29194459297E+02  0.20413216437E+02  0.44686848944E+02  0.00000000000E+00 0. -1.
</event>
<event>
 7    1  0.2294706E-015  0.9000778E+02  0.7816164E-02  0.1186339E+00
        -11   -1    0    0    0    0  0.00000000000E+00  0.00000000000E+00  0.45593999997E+02  0.45594000000E+02  0.51100000000E-03 0. -1.
         11   -1    0    0    0    0 -0.00000000000E+00 -0.00000000000E+00 -0.45593999997E+02  0.45594000000E+02  0.51100000000E-03 0.  1.
    9900012    2    1    2    0    0 -0.63920483075E+00  0.98702323614E+00 -0.10060863765E+00  0.90007779774E+02  0.90000041667E+02 0.  0.
        -12    1    1    2    0    0  0.63920483075E+00 -0.98702323614E+00  0.10060863765E+00  0.11802202262E+01  0.00000000000E+00 0.  1.
         11    1    3    3    0    0  0.16049651341E+02 -0.30983763514E+02 -0.53897626963E+01  0.35307710941E+02  0.51100000000E-03 0. -1.
        -11    1    3    3    0    0 -0.20647270805E+01 -0.91602983524E+01 -0.37661687982E+01  0.10117222519E+02  0.51100000000E-03 0.  1.
        -12    1    3    3    0    0 -0.14624129091E+02  0.41131085103E+02  0.90553228568E+01  0.44582846314E+02  0.00000000000E+00 0.  1.
</event>
<event>
 7    1  0.2294706E-015  0.9000770E+02  0.7816164E-02  0.1186339E+00
        -11   -1    0    0    0    0  0.00000000000E+00  0.00000000000E+00  0.45593999997E+02  0.45594000000E+02  0.51100000000E-03 0. -1.
         11   -1    0    0    0    0 -0.00000000000E+00 -0.00000000000E+00 -0.45593999997E+02  0.45594000000E+02  0.51100000000E-03 0.  1.
    9900012    2    1    2    0    0  0.10653523960E+01  0.46276740789E+00  0.20971442396E+00  0.90007699385E+02  0.89999960217E+02 0.  0.
        -12    1    1    2    0    0 -0.10653523960E+01 -0.46276740789E+00 -0.20971442396E+00  0.11803006147E+01  0.00000000000E+00 0.  1.
         11    1    3    3    0    0  0.33485256933E+02  0.12625701362E+02 -0.33132808802E+01  0.35939513035E+02  0.51100000000E-03 0. -1.
        -11    1    3    3    0    0  0.20991216594E+01  0.76999941127E+01 -0.92754122759E+01  0.12236400379E+02  0.51100000000E-03 0.  1.
        -12    1    3    3    0    0 -0.34519026197E+02 -0.19862928067E+02  0.12798407580E+02  0.41831785971E+02  0.00000000000E+00 0.  1.
</event>
