<event>
 7    1  0.4194672E-008  0.4614232E+02  0.7816164E-02  0.1320468E+00
        -11   -1    0    0    0    0  0.00000000000E+00  0.00000000000E+00  0.45593999997E+02  0.45594000000E+02  0.51100000000E-03 0.  1.
         11   -1    0    0    0    0 -0.00000000000E+00 -0.00000000000E+00 -0.45593999997E+02  0.45594000000E+02  0.51100000000E-03 0. -1.
    9900012    2    1    2    0    0 -0.36650794330E+02 -0.16921872470E+02 -0.19987068745E+02  0.46142318631E+02  0.10000007937E+02 0.  0.
        -12    1    1    2    0    0  0.36650794330E+02  0.16921872470E+02  0.19987068745E+02  0.45045681369E+02  0.00000000000E+00 0.  1.
         11    1    3    3    0    0 -0.23719725235E+02 -0.10299048922E+02 -0.16578079594E+02  0.30716908979E+02  0.51100000000E-03 0. -1.
        -11    1    3    3    0    0 -0.49421907055E+01 -0.71477930185E+00 -0.20447711576E+01  0.53960400080E+01  0.51100000000E-03 0.  1.
        -12    1    3    3    0    0 -0.79888783894E+01 -0.59080442464E+01 -0.13642179942E+01  0.10029369645E+02  0.00000000000E+00 0.  1.
</event>
<event>
 7    1  0.4194672E-008  0.4614232E+02  0.7816164E-02  0.1320468E+00
        -11   -1    0    0    0    0  0.00000000000E+00  0.00000000000E+00  0.45593999997E+02  0.45594000000E+02  0.51100000000E-03 0.  1.
         11   -1    0    0    0    0 -0.00000000000E+00 -0.00000000000E+00 -0.45593999997E+02  0.45594000000E+02  0.51100000000E-03 0. -1.
    9900012    2    1    2    0    0  0.17174110317E+02  0.27077971233E+02 -0.31637744270E+02  0.46142318145E+02  0.10000003496E+02 0.  0.
        -12    1    1    2    0    0 -0.17174110317E+02 -0.27077971233E+02  0.31637744270E+02  0.45045681855E+02  0.00000000000E+00 0.  1.
         11    1    3    3    0    0  0.88982137241E+01  0.17583821662E+02 -0.21271575278E+02  0.28997394828E+02  0.51100000000E-03 0. -1.
        -11    1    3    3    0    0  0.54320179902E+01  0.87375657574E+01 -0.60955748365E+01  0.11958591374E+02  0.51100000000E-03 0.  1.
         12    1    3    3    0    0  0.28438786029E+01  0.75658381435E+00 -0.42705941554E+01  0.51863319424E+01  0.00000000000E+00 0. -1.
</event>
<event>
 7    1  0.4194672E-008  0.4614232E+02  0.7816164E-02  0.1320468E+00
        -11   -1    0    0    0    0  0.00000000000E+00  0.00000000000E+00  0.45593999997E+02  0.45594000000E+02  0.51100000000E-03 0.  1.
         11   -1    0    0    0    0 -0.00000000000E+00 -0.00000000000E+00 -0.45593999997E+02  0.45594000000E+02  0.51100000000E-03 0. -1.
    9900012    2    1    2    0    0  0.30862876958E+02 -0.47687237539E+01 -0.32463142191E+02  0.46142317618E+02  0.99999986966E+01 0.  0.
        -12    1    1    2    0    0 -0.30862876958E+02  0.47687237539E+01  0.32463142191E+02  0.45045682382E+02  0.00000000000E+00 0.  1.
         11    1    3    3    0    0  0.17264888692E+02 -0.49131173712E+01 -0.24106784811E+02  0.30055817707E+02  0.51100000000E-03 0. -1.
        -11    1    3    3    0    0  0.81599611156E+01 -0.82464308895E+00 -0.54224009128E+01  0.98319598022E+01  0.51100000000E-03 0.  1.
        -12    1    3    3    0    0  0.54380271503E+01  0.96903670630E+00 -0.29339564669E+01  0.62545401090E+01  0.00000000000E+00 0.  1.
</event>
<event>
 7    1  0.4194672E-008  0.4614232E+02  0.7816164E-02  0.1320468E+00
        -11   -1    0    0    0    0  0.00000000000E+00  0.00000000000E+00  0.45593999997E+02  0.45594000000E+02  0.51100000000E-03 0.  1.
         11   -1    0    0    0    0 -0.00000000000E+00 -0.00000000000E+00 -0.45593999997E+02  0.45594000000E+02  0.51100000000E-03 0. -1.
    9900012    2    1    2    0    0 -0.19934356962E+02  0.25754090210E+02 -0.31120120326E+02  0.46142316088E+02  0.99999847449E+01 0.  0.
        -12    1    1    2    0    0  0.19934356962E+02 -0.25754090210E+02  0.31120120326E+02  0.45045683912E+02  0.00000000000E+00 0.  1.
         11    1    3    3    0    0 -0.18391574012E+01  0.63707522788E+01 -0.34723730937E+01  0.74850757984E+01  0.51100000000E-03 0. -1.
        -11    1    3    3    0    0 -0.81387313638E+00  0.11766871217E+01 -0.17192891035E+00  0.14410211226E+01  0.51100000000E-03 0.  1.
         12    1    3    3    0    0 -0.17281326424E+02  0.18206650809E+02 -0.27475818322E+02  0.37216219167E+02  0.00000000000E+00 0. -1.
</event>
<event>
 7    1  0.4194672E-008  0.4614232E+02  0.7816164E-02  0.1320468E+00
        -11   -1    0    0    0    0  0.00000000000E+00  0.00000000000E+00  0.45593999997E+02  0.45594000000E+02  0.51100000000E-03 0. -1.
         11   -1    0    0    0    0 -0.00000000000E+00 -0.00000000000E+00 -0.45593999997E+02  0.45594000000E+02  0.51100000000E-03 0.  1.
    9900012    2    1    2    0    0 -0.11230292099E+02  0.28337139818E+02  0.33166255372E+02  0.46142318197E+02  0.10000003975E+02 0.  0.
        -12    1    1    2    0    0  0.11230292099E+02 -0.28337139818E+02 -0.33166255372E+02  0.45045681803E+02  0.00000000000E+00 0.  1.
         11    1    3    3    0    0 -0.42470290517E+00  0.11043384336E+01  0.48688754787E+01  0.50105772743E+01  0.51100000000E-03 0. -1.
        -11    1    3    3    0    0 -0.95957487109E+00  0.79026054160E-01  0.10409588719E+01  0.14179649801E+01  0.51100000000E-03 0.  1.
         12    1    3    3    0    0 -0.98460143231E+01  0.27153775330E+02  0.27256421021E+02  0.39713775943E+02  0.00000000000E+00 0. -1.
</event>
<event>
 7    1  0.4194672E-008  0.4614232E+02  0.7816164E-02  0.1320468E+00
        -11   -1    0    0    0    0  0.00000000000E+00  0.00000000000E+00  0.45593999997E+02  0.45594000000E+02  0.51100000000E-03 0.  1.
         11   -1    0    0    0    0 -0.00000000000E+00 -0.00000000000E+00 -0.45593999997E+02  0.45594000000E+02  0.51100000000E-03 0. -1.
    9900012    2    1    2    0    0 -0.11020012449E+02 -0.42943692694E+02 -0.79694416589E+01  0.46142318554E+02  0.10000007234E+02 0.  0.
        -12    1    1    2    0    0  0.11020012449E+02  0.42943692694E+02  0.79694416589E+01  0.45045681446E+02  0.00000000000E+00 0.  1.
         11    1    3    3    0    0 -0.63246520998E+01 -0.16704654816E+02 -0.70285578147E+00  0.17875702035E+02  0.51100000000E-03 0. -1.
        -11    1    3    3    0    0  0.19903575108E+00 -0.15273574500E+02 -0.47627432023E+01  0.16000169259E+02  0.51100000000E-03 0.  1.
        -12    1    3    3    0    0 -0.48943961003E+01 -0.10965463377E+02 -0.25038426751E+01  0.12266447261E+02  0.00000000000E+00 0.  1.
</event>
<event>
 7    1  0.4194672E-008  0.4614232E+02  0.7816164E-02  0.1320468E+00
        -11   -1    0    0    0    0  0.00000000000E+00  0.00000000000E+00  0.45593999997E+02  0.45594000000E+02  0.51100000000E-03 0.  1.
         11   -1    0    0    0    0 -0.00000000000E+00 -0.00000000000E+00 -0.45593999997E+02  0.45594000000E+02  0.51100000000E-03 0. -1.
    9900012    2    1    2    0    0  0.31963647833E+02 -0.31737883975E+02  0.38130989530E+00  0.46142318085E+02  0.10000002953E+02 0.  0.
        -12    1    1    2    0    0 -0.31963647833E+02  0.31737883975E+02 -0.38130989530E+00  0.45045681915E+02  0.00000000000E+00 0.  1.
         11    1    3    3    0    0  0.78529959399E+00 -0.14683448872E+01 -0.13867169365E+01  0.21669601481E+01  0.51100000000E-03 0. -1.
        -11    1    3    3    0    0  0.11821765475E+02 -0.11737614140E+02 -0.24816088219E+01  0.16842924546E+02  0.51100000000E-03 0.  1.
         12    1    3    3    0    0  0.19356582764E+02 -0.18531924947E+02  0.42496356537E+01  0.27132433391E+02  0.00000000000E+00 0. -1.
</event>
<event>
 7    1  0.4194672E-008  0.4614232E+02  0.7816164E-02  0.1320468E+00
        -11   -1    0    0    0    0  0.00000000000E+00  0.00000000000E+00  0.45593999997E+02  0.45594000000E+02  0.51100000000E-03 0.  1.
         11   -1    0    0    0    0 -0.00000000000E+00 -0.00000000000E+00 -0.45593999997E+02  0.45594000000E+02  0.51100000000E-03 0. -1.
    9900012    2    1    2    0    0  0.34749242701E+02 -0.21432102781E+02 -0.19033354751E+02  0.46142317732E+02  0.99999997308E+01 0.  0.
        -12    1    1    2    0    0 -0.34749242701E+02  0.21432102781E+02  0.19033354751E+02  0.45045682268E+02  0.00000000000E+00 0.  1.
         11    1    3    3    0    0  0.19341640789E+02 -0.12994635578E+02 -0.11810967079E+02  0.26123907935E+02  0.51100000000E-03 0. -1.
        -11    1    3    3    0    0  0.34707855347E+01 -0.42793720605E+01 -0.44382286579E+01  0.70751149348E+01  0.51100000000E-03 0.  1.
         12    1    3    3    0    0  0.11936816378E+02 -0.41580951426E+01 -0.27841590145E+01  0.12943294862E+02  0.00000000000E+00 0. -1.
</event>
<event>
 7    1  0.4194672E-008  0.4614232E+02  0.7816164E-02  0.1320468E+00
        -11   -1    0    0    0    0  0.00000000000E+00  0.00000000000E+00  0.45593999997E+02  0.45594000000E+02  0.51100000000E-03 0. -1.
         11   -1    0    0    0    0 -0.00000000000E+00 -0.00000000000E+00 -0.45593999997E+02  0.45594000000E+02  0.51100000000E-03 0.  1.
    9900012    2    1    2    0    0  0.52081818013E+01  0.17938261904E+02  0.40990328778E+02  0.46142318174E+02  0.10000003769E+02 0.  0.
        -12    1    1    2    0    0 -0.52081818013E+01 -0.17938261904E+02 -0.40990328778E+02  0.45045681826E+02  0.00000000000E+00 0.  1.
         11    1    3    3    0    0  0.20419359018E+01  0.15352288334E+01  0.80430176966E+01  0.84389906818E+01  0.51100000000E-03 0. -1.
        -11    1    3    3    0    0  0.23797163226E+01  0.64347857807E+00  0.33084251530E+01  0.41258686007E+01  0.51100000000E-03 0.  1.
         12    1    3    3    0    0  0.78652957687E+00  0.15759554492E+02  0.29638885928E+02  0.33577458892E+02  0.00000000000E+00 0. -1.
</event>
<event>
 7    1  0.4194672E-008  0.4614232E+02  0.7816164E-02  0.1320468E+00
        -11   -1    0    0    0    0  0.00000000000E+00  0.00000000000E+00  0.45593999997E+02  0.45594000000E+02  0.51100000000E-03 0.  1.
         11   -1    0    0    0    0 -0.00000000000E+00 -0.00000000000E+00 -0.45593999997E+02  0.45594000000E+02  0.51100000000E-03 0. -1.
    9900012    2    1    2    0    0  0.22874910066E+02  0.10001992579E+02 -0.37494159877E+02  0.46142318843E+02  0.10000009862E+02 0.  0.
        -12    1    1    2    0    0 -0.22874910066E+02 -0.10001992579E+02  0.37494159877E+02  0.45045681157E+02  0.00000000000E+00 0.  1.
         11    1    3    3    0    0  0.52925703485E+01 -0.89446783208E-01 -0.72315898779E+01  0.89618744716E+01  0.51100000000E-03 0. -1.
        -11    1    3    3    0    0  0.63973840980E+01  0.74914537626E+00 -0.56057720634E+01  0.85388771382E+01  0.51100000000E-03 0.  1.
         12    1    3    3    0    0  0.11184955619E+02  0.93422939863E+01 -0.24656797935E+02  0.28641567233E+02  0.00000000000E+00 0. -1.
</event>
<event>
 7    1  0.4194672E-008  0.4614232E+02  0.7816164E-02  0.1320468E+00
        -11   -1    0    0    0    0  0.00000000000E+00  0.00000000000E+00  0.45593999997E+02  0.45594000000E+02  0.51100000000E-03 0.  1.
         11   -1    0    0    0    0 -0.00000000000E+00 -0.00000000000E+00 -0.45593999997E+02  0.45594000000E+02  0.51100000000E-03 0. -1.
    9900012    2    1    2    0    0 -0.32054611828E+02  0.83084759918E+01 -0.30538247881E+02  0.46142317672E+02  0.99999991887E+01 0.  0.
        -12    1    1    2    0    0  0.32054611828E+02 -0.83084759918E+01  0.30538247881E+02  0.45045682328E+02  0.00000000000E+00 0.  1.
         11    1    3    3    0    0 -0.29655460071E+01  0.11266365549E+01 -0.63930515944E+01  0.71368678002E+01  0.51100000000E-03 0. -1.
        -11    1    3    3    0    0 -0.15519717356E+02  0.32049618295E+01 -0.87515328680E+01  0.18103113957E+02  0.51100000000E-03 0.  1.
        -12    1    3    3    0    0 -0.13569348465E+02  0.39768776074E+01 -0.15393663419E+02  0.20902335915E+02  0.00000000000E+00 0.  1.
</event>
<event>
 7    1  0.4194672E-008  0.4614232E+02  0.7816164E-02  0.1320468E+00
        -11   -1    0    0    0    0  0.00000000000E+00  0.00000000000E+00  0.45593999997E+02  0.45594000000E+02  0.51100000000E-03 0. -1.
         11   -1    0    0    0    0 -0.00000000000E+00 -0.00000000000E+00 -0.45593999997E+02  0.45594000000E+02  0.51100000000E-03 0.  1.
    9900012    2    1    2    0    0  0.53925666065E+01  0.63664193521E+01  0.44266267284E+02  0.46142317751E+02  0.99999999101E+01 0.  0.
        -12    1    1    2    0    0 -0.53925666065E+01 -0.63664193521E+01 -0.44266267284E+02  0.45045682249E+02  0.00000000000E+00 0.  1.
         11    1    3    3    0    0  0.21774194148E+01  0.55080192929E+01  0.15166289091E+02  0.16281761480E+02  0.51100000000E-03 0. -1.
        -11    1    3    3    0    0  0.38169302733E+01  0.77655413136E+00  0.97248291629E+01  0.10475891157E+02  0.51100000000E-03 0.  1.
         12    1    3    3    0    0 -0.60178308157E+00  0.81845927935E-01  0.19375149030E+02  0.19384665114E+02  0.00000000000E+00 0. -1.
</event>
<event>
 7    1  0.4194672E-008  0.4614232E+02  0.7816164E-02  0.1320468E+00
        -11   -1    0    0    0    0  0.00000000000E+00  0.00000000000E+00  0.45593999997E+02  0.45594000000E+02  0.51100000000E-03 0.  1.
         11   -1    0    0    0    0 -0.00000000000E+00 -0.00000000000E+00 -0.45593999997E+02  0.45594000000E+02  0.51100000000E-03 0. -1.
    9900012    2    1    2    0    0 -0.11585484454E+02  0.33178036883E+02 -0.28179923371E+02  0.46142315827E+02  0.99999823617E+01 0.  0.
        -12    1    1    2    0    0  0.11585484454E+02 -0.33178036883E+02  0.28179923371E+02  0.45045684173E+02  0.00000000000E+00 0.  1.
         11    1    3    3    0    0  0.18594777186E+00  0.41291503671E+01 -0.51022547826E+01  0.65663889206E+01  0.51100000000E-03 0. -1.
        -11    1    3    3    0    0 -0.32089749033E+01  0.93044796393E+01 -0.33947087105E+01  0.10411287566E+02  0.51100000000E-03 0.  1.
        -12    1    3    3    0    0 -0.85624573222E+01  0.19744406876E+02 -0.19682959878E+02  0.29164639340E+02  0.00000000000E+00 0.  1.
</event>
<event>
 7    1  0.4194672E-008  0.4614232E+02  0.7816164E-02  0.1320468E+00
        -11   -1    0    0    0    0  0.00000000000E+00  0.00000000000E+00  0.45593999997E+02  0.45594000000E+02  0.51100000000E-03 0.  1.
         11   -1    0    0    0    0 -0.00000000000E+00 -0.00000000000E+00 -0.45593999997E+02  0.45594000000E+02  0.51100000000E-03 0. -1.
    9900012    2    1    2    0    0  0.24398907162E+02 -0.28262860841E+02 -0.25199553143E+02  0.46142318162E+02  0.10000003660E+02 0.  0.
        -12    1    1    2    0    0 -0.24398907162E+02  0.28262860841E+02  0.25199553143E+02  0.45045681838E+02  0.00000000000E+00 0.  1.
         11    1    3    3    0    0  0.11299085566E+02 -0.11329779414E+02 -0.13753946104E+02  0.21099864215E+02  0.51100000000E-03 0. -1.
        -11    1    3    3    0    0  0.47813432072E+01 -0.20121375859E+01 -0.24861034374E+01  0.57524474002E+01  0.51100000000E-03 0.  1.
        -12    1    3    3    0    0  0.83184783886E+01 -0.14920943841E+02 -0.89595036014E+01  0.19290006547E+02  0.00000000000E+00 0.  1.
</event>
<event>
 7    1  0.4194672E-008  0.4614232E+02  0.7816164E-02  0.1320468E+00
        -11   -1    0    0    0    0  0.00000000000E+00  0.00000000000E+00  0.45593999997E+02  0.45594000000E+02  0.51100000000E-03 0.  1.
         11   -1    0    0    0    0 -0.00000000000E+00 -0.00000000000E+00 -0.45593999997E+02  0.45594000000E+02  0.51100000000E-03 0. -1.
    9900012    2    1    2    0    0 -0.13478864958E+02 -0.12454747960E+02 -0.41137732254E+02  0.46142316940E+02  0.99999925134E+01 0.  0.
        -12    1    1    2    0    0  0.13478864958E+02  0.12454747960E+02  0.41137732254E+02  0.45045683060E+02  0.00000000000E+00 0.  1.
         11    1    3    3    0    0 -0.84898130490E+00 -0.55298608034E+00 -0.87443664126E+01  0.88028692527E+01  0.51100000000E-03 0. -1.
        -11    1    3    3    0    0  0.37973519386E+00 -0.10630127688E+01 -0.50731806884E+01  0.51972451859E+01  0.51100000000E-03 0.  1.
         12    1    3    3    0    0 -0.13009618847E+02 -0.10838749111E+02 -0.27320185153E+02  0.32142202502E+02  0.00000000000E+00 0. -1.
</event>
<event>
 7    1  0.4194672E-008  0.4614232E+02  0.7816164E-02  0.1320468E+00
        -11   -1    0    0    0    0  0.00000000000E+00  0.00000000000E+00  0.45593999997E+02  0.45594000000E+02  0.51100000000E-03 0.  1.
         11   -1    0    0    0    0 -0.00000000000E+00 -0.00000000000E+00 -0.45593999997E+02  0.45594000000E+02  0.51100000000E-03 0. -1.
    9900012    2    1    2    0    0 -0.89046193845E+01  0.91357693985E+01 -0.43201376452E+02  0.46142318117E+02  0.10000003248E+02 0.  0.
        -12    1    1    2    0    0  0.89046193845E+01 -0.91357693985E+01  0.43201376452E+02  0.45045681883E+02  0.00000000000E+00 0.  1.
         11    1    3    3    0    0 -0.19995456819E+01  0.21890256053E+01 -0.30864460902E+01  0.42797389831E+01  0.51100000000E-03 0.  1.
        -11    1    3    3    0    0 -0.61740560113E+01  0.63094000010E+01 -0.21765533021E+02  0.23487569563E+02  0.51100000000E-03 0. -1.
        -12    1    3    3    0    0 -0.73101769121E+00  0.63734379225E+00 -0.18349397341E+02  0.18375009571E+02  0.00000000000E+00 0.  1.
</event>
<event>
 7    1  0.4194672E-008  0.4614232E+02  0.7816164E-02  0.1320468E+00
        -11   -1    0    0    0    0  0.00000000000E+00  0.00000000000E+00  0.45593999997E+02  0.45594000000E+02  0.51100000000E-03 0.  1.
         11   -1    0    0    0    0 -0.00000000000E+00 -0.00000000000E+00 -0.45593999997E+02  0.45594000000E+02  0.51100000000E-03 0. -1.
    9900012    2    1    2    0    0  0.92012284688E+01 -0.24801739984E+02 -0.36459900474E+02  0.46142320361E+02  0.10000023709E+02 0.  0.
        -12    1    1    2    0    0 -0.92012284688E+01  0.24801739984E+02  0.36459900474E+02  0.45045679639E+02  0.00000000000E+00 0.  1.
         11    1    3    3    0    0 -0.97250315679E+00 -0.19249463269E+01 -0.45595176662E+01  0.50438459890E+01  0.51100000000E-03 0. -1.
        -11    1    3    3    0    0  0.41131777940E+01 -0.14061502202E+02 -0.22544546829E+02  0.26886812152E+02  0.51100000000E-03 0.  1.
        -12    1    3    3    0    0  0.60605538316E+01 -0.88152914553E+01 -0.93558359787E+01  0.14211662220E+02  0.00000000000E+00 0.  1.
</event>
<event>
 7    1  0.4194672E-008  0.4614232E+02  0.7816164E-02  0.1320468E+00
        -11   -1    0    0    0    0  0.00000000000E+00  0.00000000000E+00  0.45593999997E+02  0.45594000000E+02  0.51100000000E-03 0.  1.
         11   -1    0    0    0    0 -0.00000000000E+00 -0.00000000000E+00 -0.45593999997E+02  0.45594000000E+02  0.51100000000E-03 0. -1.
    9900012    2    1    2    0    0 -0.17921896689E+02  0.36106103193E+02 -0.20106426661E+02  0.46142318056E+02  0.10000002689E+02 0.  0.
        -12    1    1    2    0    0  0.17921896689E+02 -0.36106103193E+02  0.20106426661E+02  0.45045681944E+02  0.00000000000E+00 0.  1.
         11    1    3    3    0    0 -0.22741435084E+01  0.84275649486E+01 -0.61926602624E+01  0.10702552081E+02  0.51100000000E-03 0. -1.
        -11    1    3    3    0    0 -0.92373600075E+01  0.96624920058E+01 -0.43395371603E+01  0.14054328682E+02  0.51100000000E-03 0.  1.
        -12    1    3    3    0    0 -0.64103931734E+01  0.18016046239E+02 -0.95742292384E+01  0.21385437293E+02  0.00000000000E+00 0.  1.
</event>
<event>
 7    1  0.4194672E-008  0.4614232E+02  0.7816164E-02  0.1320468E+00
        -11   -1    0    0    0    0  0.00000000000E+00  0.00000000000E+00  0.45593999997E+02  0.45594000000E+02  0.51100000000E-03 0.  1.
         11   -1    0    0    0    0 -0.00000000000E+00 -0.00000000000E+00 -0.45593999997E+02  0.45594000000E+02  0.51100000000E-03 0. -1.
    9900012    2    1    2    0    0  0.19005555233E+02  0.36871748131E+02 -0.17560652440E+02  0.46142318142E+02  0.10000003473E+02 0.  0.
        -12    1    1    2    0    0 -0.19005555233E+02 -0.36871748131E+02  0.17560652440E+02  0.45045681858E+02  0.00000000000E+00 0.  1.
         11    1    3    3    0    0  0.37247951286E+01  0.99887297671E+01 -0.51372452540E+01  0.11833854409E+02  0.51100000000E-03 0. -1.
        -11    1    3    3    0    0  0.15803907123E+02  0.26238380859E+02 -0.10788289703E+02  0.32474656356E+02  0.51100000000E-03 0.  1.
        -12    1    3    3    0    0 -0.52314701847E+00  0.64463750504E+00 -0.16351174826E+01  0.18338073775E+01  0.00000000000E+00 0.  1.
</event>
<event>
 7    1  0.4194672E-008  0.4614232E+02  0.7816164E-02  0.1320468E+00
        -11   -1    0    0    0    0  0.00000000000E+00  0.00000000000E+00  0.45593999997E+02  0.45594000000E+02  0.51100000000E-03 0.  1.
         11   -1    0    0    0    0 -0.00000000000E+00 -0.00000000000E+00 -0.45593999997E+02  0.45594000000E+02  0.51100000000E-03 0. -1.
    9900012    2    1    2    0    0 -0.37310393697E+02  0.12237115615E+02 -0.22074897808E+02  0.46142316638E+02  0.99999897554E+01 0.  0.
        -12    1    1    2    0    0  0.37310393697E+02 -0.12237115615E+02  0.22074897808E+02  0.45045683362E+02  0.00000000000E+00 0.  1.
         11    1    3    3    0    0 -0.12041076546E+02  0.35669996983E+01 -0.95863150260E+01  0.15799001464E+02  0.51100000000E-03 0.  1.
        -11    1    3    3    0    0 -0.21331083737E+02  0.64442798120E+01 -0.12988033001E+02  0.25792108816E+02  0.51100000000E-03 0. -1.
        -12    1    3    3    0    0 -0.39382334142E+01  0.22258361044E+01  0.49945021908E+00  0.45512063576E+01  0.00000000000E+00 0.  1.
</event>
<event>
 7    1  0.4194672E-008  0.4614232E+02  0.7816164E-02  0.1320468E+00
        -11   -1    0    0    0    0  0.00000000000E+00  0.00000000000E+00  0.45593999997E+02  0.45594000000E+02  0.51100000000E-03 0.  1.
         11   -1    0    0    0    0 -0.00000000000E+00 -0.00000000000E+00 -0.45593999997E+02  0.45594000000E+02  0.51100000000E-03 0. -1.
    9900012    2    1    2    0    0 -0.41138989727E+02  0.14769901304E+02 -0.10887926513E+02  0.46142318698E+02  0.10000008540E+02 0.  0.
        -12    1    1    2    0    0  0.41138989727E+02 -0.14769901304E+02  0.10887926513E+02  0.45045681302E+02  0.00000000000E+00 0.  1.
         11    1    3    3    0    0 -0.18536388427E+02  0.90935026587E+01 -0.84624708572E+01  0.22313737916E+02  0.51100000000E-03 0. -1.
        -11    1    3    3    0    0 -0.15143844945E+02  0.55957108756E+01 -0.26775750599E+01  0.16365128425E+02  0.51100000000E-03 0.  1.
         12    1    3    3    0    0 -0.74587563550E+01  0.80687769304E-01  0.25211940429E+00  0.74634523562E+01  0.00000000000E+00 0. -1.
</event>
<event>
 7    1  0.4194672E-008  0.4614232E+02  0.7816164E-02  0.1320468E+00
        -11   -1    0    0    0    0  0.00000000000E+00  0.00000000000E+00  0.45593999997E+02  0.45594000000E+02  0.51100000000E-03 0.  1.
         11   -1    0    0    0    0 -0.00000000000E+00 -0.00000000000E+00 -0.45593999997E+02  0.45594000000E+02  0.51100000000E-03 0. -1.
    9900012    2    1    2    0    0  0.39299176876E+02  0.75833830808E+01  0.20668345401E+02  0.46142317591E+02  0.99999984475E+01 0.  0.
        -12    1    1    2    0    0 -0.39299176876E+02 -0.75833830808E+01 -0.20668345401E+02  0.45045682409E+02  0.00000000000E+00 0.  1.
         11    1    3    3    0    0  0.18051005399E+02  0.40467833096E+01  0.88313255147E+01  0.20498964893E+02  0.51100000000E-03 0. -1.
        -11    1    3    3    0    0  0.14580200603E+02  0.36194176367E+01  0.11583633344E+02  0.18970055228E+02  0.51100000000E-03 0.  1.
         12    1    3    3    0    0  0.66679708745E+01 -0.82817865504E-01  0.25338654197E+00  0.66732974699E+01  0.00000000000E+00 0. -1.
</event>
<event>
 7    1  0.4194672E-008  0.4614232E+02  0.7816164E-02  0.1320468E+00
        -11   -1    0    0    0    0  0.00000000000E+00  0.00000000000E+00  0.45593999997E+02  0.45594000000E+02  0.51100000000E-03 0. -1.
         11   -1    0    0    0    0 -0.00000000000E+00 -0.00000000000E+00 -0.45593999997E+02  0.45594000000E+02  0.51100000000E-03 0.  1.
    9900012    2    1    2    0    0 -0.10128758491E+02 -0.35799926944E+02  0.25394625885E+02  0.46142317170E+02  0.99999946108E+01 0.  0.
        -12    1    1    2    0    0  0.10128758491E+02  0.35799926944E+02 -0.25394625885E+02  0.45045682830E+02  0.00000000000E+00 0.  1.
         11    1    3    3    0    0 -0.34681939831E+01 -0.90304413834E+01  0.61227473275E+01  0.11448374390E+02  0.51100000000E-03 0. -1.
        -11    1    3    3    0    0 -0.39010744710E-01 -0.16636092028E+02  0.96636330529E+01  0.19239201747E+02  0.51100000000E-03 0.  1.
         12    1    3    3    0    0 -0.66215537629E+01 -0.10133393532E+02  0.96082455046E+01  0.15454741033E+02  0.00000000000E+00 0. -1.
</event>
<event>
 7    1  0.4194672E-008  0.4614232E+02  0.7816164E-02  0.1320468E+00
        -11   -1    0    0    0    0  0.00000000000E+00  0.00000000000E+00  0.45593999997E+02  0.45594000000E+02  0.51100000000E-03 0.  1.
         11   -1    0    0    0    0 -0.00000000000E+00 -0.00000000000E+00 -0.45593999997E+02  0.45594000000E+02  0.51100000000E-03 0. -1.
    9900012    2    1    2    0    0 -0.95835669716E+01 -0.10950637260E+02 -0.42630414625E+02  0.46142318039E+02  0.10000002530E+02 0.  0.
        -12    1    1    2    0    0  0.95835669716E+01  0.10950637260E+02  0.42630414625E+02  0.45045681961E+02  0.00000000000E+00 0.  1.
         11    1    3    3    0    0 -0.17371981296E+01 -0.13604387333E+01 -0.63093300206E+01  0.66840329486E+01  0.51100000000E-03 0. -1.
        -11    1    3    3    0    0 -0.41510223454E+01 -0.75634070112E+01 -0.12028138491E+02  0.14802439932E+02  0.51100000000E-03 0.  1.
        -12    1    3    3    0    0 -0.36953464966E+01 -0.20267915150E+01 -0.24292946113E+02  0.24655845158E+02  0.00000000000E+00 0.  1.
</event>
<event>
 7    1  0.4194672E-008  0.4614232E+02  0.7816164E-02  0.1320468E+00
        -11   -1    0    0    0    0  0.00000000000E+00  0.00000000000E+00  0.45593999997E+02  0.45594000000E+02  0.51100000000E-03 0. -1.
         11   -1    0    0    0    0 -0.00000000000E+00 -0.00000000000E+00 -0.45593999997E+02  0.45594000000E+02  0.51100000000E-03 0.  1.
    9900012    2    1    2    0    0  0.24603907702E+01 -0.43638240361E+02  0.10897890830E+02  0.46142316865E+02  0.99999918252E+01 0.  0.
        -12    1    1    2    0    0 -0.24603907702E+01  0.43638240361E+02 -0.10897890830E+02  0.45045683135E+02  0.00000000000E+00 0.  1.
         11    1    3    3    0    0 -0.21534179366E+01 -0.71806742178E+01  0.19302391044E+01  0.77411313316E+01  0.51100000000E-03 0.  1.
        -11    1    3    3    0    0 -0.89479240303E+00 -0.17870080345E+02  0.32141287838E+01  0.18178862701E+02  0.51100000000E-03 0. -1.
        -12    1    3    3    0    0  0.55086011098E+01 -0.18587485798E+02  0.57535229420E+01  0.20222322832E+02  0.00000000000E+00 0.  1.
</event>
<event>
 7    1  0.4194672E-008  0.4614232E+02  0.7816164E-02  0.1320468E+00
        -11   -1    0    0    0    0  0.00000000000E+00  0.00000000000E+00  0.45593999997E+02  0.45594000000E+02  0.51100000000E-03 0.  1.
         11   -1    0    0    0    0 -0.00000000000E+00 -0.00000000000E+00 -0.45593999997E+02  0.45594000000E+02  0.51100000000E-03 0. -1.
    9900012    2    1    2    0    0 -0.31614026258E+02 -0.22024685704E+02 -0.23336238596E+02  0.46142317982E+02  0.10000002016E+02 0.  0.
        -12    1    1    2    0    0  0.31614026258E+02  0.22024685704E+02  0.23336238596E+02  0.45045682018E+02  0.00000000000E+00 0.  1.
         11    1    3    3    0    0 -0.73772500427E+01 -0.96144479836E+01 -0.94037494712E+01  0.15339228553E+02  0.51100000000E-03 0. -1.
        -11    1    3    3    0    0 -0.29360085663E+00 -0.36879629139E+00  0.19119657208E+00  0.50869298978E+00  0.51100000000E-03 0.  1.
        -12    1    3    3    0    0 -0.23943175359E+02 -0.12041441429E+02 -0.14123685697E+02  0.30294396439E+02  0.00000000000E+00 0.  1.
</event>
<event>
 7    1  0.4194672E-008  0.4614232E+02  0.7816164E-02  0.1320468E+00
        -11   -1    0    0    0    0  0.00000000000E+00  0.00000000000E+00  0.45593999997E+02  0.45594000000E+02  0.51100000000E-03 0.  1.
         11   -1    0    0    0    0 -0.00000000000E+00 -0.00000000000E+00 -0.45593999997E+02  0.45594000000E+02  0.51100000000E-03 0. -1.
    9900012    2    1    2    0    0 -0.56392801835E+01  0.39337671712E+02 -0.21209891969E+02  0.46142318586E+02  0.10000007524E+02 0.  0.
        -12    1    1    2    0    0  0.56392801835E+01 -0.39337671712E+02  0.21209891969E+02  0.45045681414E+02  0.00000000000E+00 0.  1.
         11    1    3    3    0    0  0.10678127663E+01  0.15728820006E+02 -0.70143267016E+01  0.17255050919E+02  0.51100000000E-03 0. -1.
        -11    1    3    3    0    0 -0.13692970651E+00  0.58147993819E+01 -0.13273033401E+01  0.59659346304E+01  0.51100000000E-03 0.  1.
        -12    1    3    3    0    0 -0.65701632433E+01  0.17794052324E+02 -0.12868261928E+02  0.22921333037E+02  0.00000000000E+00 0.  1.
</event>
<event>
 7    1  0.4194672E-008  0.4614232E+02  0.7816164E-02  0.1320468E+00
        -11   -1    0    0    0    0  0.00000000000E+00  0.00000000000E+00  0.45593999997E+02  0.45594000000E+02  0.51100000000E-03 0.  1.
         11   -1    0    0    0    0 -0.00000000000E+00 -0.00000000000E+00 -0.45593999997E+02  0.45594000000E+02  0.51100000000E-03 0. -1.
    9900012    2    1    2    0    0  0.76197508311E+01 -0.35402370682E+02 -0.26790390428E+02  0.46142317944E+02  0.10000001664E+02 0.  0.
        -12    1    1    2    0    0 -0.76197508311E+01  0.35402370682E+02  0.26790390428E+02  0.45045682056E+02  0.00000000000E+00 0.  1.
         11    1    3    3    0    0  0.20946505812E+01 -0.15793510616E+02 -0.13851511272E+02  0.21111298004E+02  0.51100000000E-03 0.  1.
        -11    1    3    3    0    0  0.67871260186E+01 -0.16328733907E+02 -0.12072847772E+02  0.21411358765E+02  0.51100000000E-03 0. -1.
        -12    1    3    3    0    0 -0.12620257687E+01 -0.32801261589E+01 -0.86603138520E+00  0.36196611746E+01  0.00000000000E+00 0.  1.
</event>
<event>
 7    1  0.4194672E-008  0.4614232E+02  0.7816164E-02  0.1320468E+00
        -11   -1    0    0    0    0  0.00000000000E+00  0.00000000000E+00  0.45593999997E+02  0.45594000000E+02  0.51100000000E-03 0.  1.
         11   -1    0    0    0    0 -0.00000000000E+00 -0.00000000000E+00 -0.45593999997E+02  0.45594000000E+02  0.51100000000E-03 0. -1.
    9900012    2    1    2    0    0  0.57519112421E+01 -0.32792731637E+02 -0.30342474043E+02  0.46142318052E+02  0.10000002653E+02 0.  0.
        -12    1    1    2    0    0 -0.57519112421E+01  0.32792731637E+02  0.30342474043E+02  0.45045681948E+02  0.00000000000E+00 0.  1.
         11    1    3    3    0    0  0.11377019954E+01 -0.58564040633E+01 -0.76539544388E+01  0.97043728904E+01  0.51100000000E-03 0. -1.
        -11    1    3    3    0    0 -0.22619350750E+01 -0.94361994554E+01 -0.80877661159E+01  0.12632108749E+02  0.51100000000E-03 0.  1.
         12    1    3    3    0    0  0.68761443217E+01 -0.17500128118E+02 -0.14600753488E+02  0.23805836412E+02  0.00000000000E+00 0. -1.
</event>
<event>
 7    1  0.4194672E-008  0.4614232E+02  0.7816164E-02  0.1320468E+00
        -11   -1    0    0    0    0  0.00000000000E+00  0.00000000000E+00  0.45593999997E+02  0.45594000000E+02  0.51100000000E-03 0.  1.
         11   -1    0    0    0    0 -0.00000000000E+00 -0.00000000000E+00 -0.45593999997E+02  0.45594000000E+02  0.51100000000E-03 0. -1.
    9900012    2    1    2    0    0 -0.39112302172E+01  0.89332969211E+01 -0.43977403977E+02  0.46142316786E+02  0.99999911042E+01 0.  0.
        -12    1    1    2    0    0  0.39112302172E+01 -0.89332969211E+01  0.43977403977E+02  0.45045683214E+02  0.00000000000E+00 0.  1.
         11    1    3    3    0    0 -0.24431074333E+01  0.48865177986E+00 -0.11024286655E+02  0.11302320603E+02  0.51100000000E-03 0. -1.
        -11    1    3    3    0    0  0.30273565634E+01  0.34746398403E+01 -0.13366423422E+02  0.14138574367E+02  0.51100000000E-03 0.  1.
         12    1    3    3    0    0 -0.44954793472E+01  0.49700053009E+01 -0.19586693899E+02  0.20701421815E+02  0.00000000000E+00 0. -1.
</event>
<event>
 7    1  0.4194672E-008  0.4614232E+02  0.7816164E-02  0.1320468E+00
        -11   -1    0    0    0    0  0.00000000000E+00  0.00000000000E+00  0.45593999997E+02  0.45594000000E+02  0.51100000000E-03 0.  1.
         11   -1    0    0    0    0 -0.00000000000E+00 -0.00000000000E+00 -0.45593999997E+02  0.45594000000E+02  0.51100000000E-03 0. -1.
    9900012    2    1    2    0    0 -0.10291662181E+02 -0.43730917997E+02  0.32866267828E+01  0.46142318576E+02  0.10000007430E+02 0.  0.
        -12    1    1    2    0    0  0.10291662181E+02  0.43730917997E+02 -0.32866267828E+01  0.45045681424E+02  0.00000000000E+00 0.  1.
         11    1    3    3    0    0 -0.30173906693E+01 -0.20045742852E+02  0.27364384542E+01  0.20455428341E+02  0.51100000000E-03 0. -1.
        -11    1    3    3    0    0  0.21021031591E+00 -0.10548932074E+02 -0.14642579695E+00  0.10552042316E+02  0.51100000000E-03 0.  1.
        -12    1    3    3    0    0 -0.74844818280E+01 -0.13136243072E+02  0.69661412556E+00  0.15134847918E+02  0.00000000000E+00 0.  1.
</event>
<event>
 7    1  0.4194672E-008  0.4614232E+02  0.7816164E-02  0.1320468E+00
        -11   -1    0    0    0    0  0.00000000000E+00  0.00000000000E+00  0.45593999997E+02  0.45594000000E+02  0.51100000000E-03 0. -1.
         11   -1    0    0    0    0 -0.00000000000E+00 -0.00000000000E+00 -0.45593999997E+02  0.45594000000E+02  0.51100000000E-03 0.  1.
    9900012    2    1    2    0    0  0.15178097130E+02 -0.41849767380E+02 -0.68801045480E+01  0.46142317623E+02  0.99999987385E+01 0.  0.
        -12    1    1    2    0    0 -0.15178097130E+02  0.41849767380E+02  0.68801045480E+01  0.45045682377E+02  0.00000000000E+00 0.  1.
         11    1    3    3    0    0  0.95920125618E+01 -0.30257664675E+02 -0.32570428446E+01  0.31908326577E+02  0.51100000000E-03 0. -1.
        -11    1    3    3    0    0  0.18485936207E+01 -0.82439546632E+01 -0.82534178604E+00  0.84888913404E+01  0.51100000000E-03 0.  1.
        -12    1    3    3    0    0  0.37374909475E+01 -0.33481480414E+01 -0.27977199173E+01  0.57450997054E+01  0.00000000000E+00 0.  1.
</event>
<event>
 7    1  0.4194672E-008  0.4614231E+02  0.7816164E-02  0.1320468E+00
        -11   -1    0    0    0    0  0.00000000000E+00  0.00000000000E+00  0.45593999997E+02  0.45594000000E+02  0.51100000000E-03 0.  1.
         11   -1    0    0    0    0 -0.00000000000E+00 -0.00000000000E+00 -0.45593999997E+02  0.45594000000E+02  0.51100000000E-03 0. -1.
    9900012    2    1    2    0    0 -0.12386197327E+02  0.69693584653E+01 -0.42744870611E+02  0.46142314244E+02  0.99999679278E+01 0.  0.
        -12    1    1    2    0    0  0.12386197327E+02 -0.69693584653E+01  0.42744870611E+02  0.45045685756E+02  0.00000000000E+00 0.  1.
         11    1    3    3    0    0 -0.59103099694E+01  0.28956252694E+01 -0.20898566200E+02  0.21910419418E+02  0.51100000000E-03 0. -1.
        -11    1    3    3    0    0 -0.51219269982E+01  0.52929848999E+01 -0.11029560984E+02  0.13262768983E+02  0.51100000000E-03 0.  1.
        -12    1    3    3    0    0 -0.13539603593E+01 -0.12192517039E+01 -0.10816743428E+02  0.10969125843E+02  0.00000000000E+00 0.  1.
</event>
<event>
 7    1  0.4194672E-008  0.4614232E+02  0.7816164E-02  0.1320468E+00
        -11   -1    0    0    0    0  0.00000000000E+00  0.00000000000E+00  0.45593999997E+02  0.45594000000E+02  0.51100000000E-03 0.  1.
         11   -1    0    0    0    0 -0.00000000000E+00 -0.00000000000E+00 -0.45593999997E+02  0.45594000000E+02  0.51100000000E-03 0. -1.
    9900012    2    1    2    0    0 -0.98483945266E+01  0.12866167329E+02 -0.42030753673E+02  0.46142318844E+02  0.10000009871E+02 0.  0.
        -12    1    1    2    0    0  0.98483945266E+01 -0.12866167329E+02  0.42030753673E+02  0.45045681156E+02  0.00000000000E+00 0.  1.
         11    1    3    3    0    0 -0.33990666124E+01 -0.18703770359E-01 -0.14654770613E+02  0.15043812869E+02  0.51100000000E-03 0. -1.
        -11    1    3    3    0    0 -0.27885588136E+01  0.43390347605E+01 -0.69363111670E+01  0.86438241407E+01  0.51100000000E-03 0.  1.
         12    1    3    3    0    0 -0.36607691007E+01  0.85458363388E+01 -0.20439671893E+02  0.22454681834E+02  0.00000000000E+00 0. -1.
</event>
<event>
 7    1  0.4194672E-008  0.4614232E+02  0.7816164E-02  0.1320468E+00
        -11   -1    0    0    0    0  0.00000000000E+00  0.00000000000E+00  0.45593999997E+02  0.45594000000E+02  0.51100000000E-03 0. -1.
         11   -1    0    0    0    0 -0.00000000000E+00 -0.00000000000E+00 -0.45593999997E+02  0.45594000000E+02  0.51100000000E-03 0.  1.
    9900012    2    1    2    0    0  0.39809595431E+02  0.53008869559E+00 -0.21071985663E+02  0.46142318052E+02  0.10000002654E+02 0.  0.
        -12    1    1    2    0    0 -0.39809595431E+02 -0.53008869559E+00  0.21071985663E+02  0.45045681948E+02  0.00000000000E+00 0.  1.
         11    1    3    3    0    0  0.21133928253E+02  0.25141144400E+01 -0.12956448243E+02  0.24916525563E+02  0.51100000000E-03 0. -1.
        -11    1    3    3    0    0  0.78205295592E+01  0.14255839536E+01 -0.51356301542E+01  0.94640197346E+01  0.51100000000E-03 0.  1.
        -12    1    3    3    0    0  0.10855137618E+02 -0.34096096980E+01 -0.29799072656E+01  0.11761772754E+02  0.00000000000E+00 0.  1.
</event>
<event>
 7    1  0.4194672E-008  0.4614232E+02  0.7816164E-02  0.1320468E+00
        -11   -1    0    0    0    0  0.00000000000E+00  0.00000000000E+00  0.45593999997E+02  0.45594000000E+02  0.51100000000E-03 0.  1.
         11   -1    0    0    0    0 -0.00000000000E+00 -0.00000000000E+00 -0.45593999997E+02  0.45594000000E+02  0.51100000000E-03 0. -1.
    9900012    2    1    2    0    0  0.16447737085E+02 -0.11812042306E+02 -0.40237558716E+02  0.46142317298E+02  0.99999957814E+01 0.  0.
        -12    1    1    2    0    0 -0.16447737085E+02  0.11812042306E+02  0.40237558716E+02  0.45045682702E+02  0.00000000000E+00 0.  1.
         11    1    3    3    0    0  0.15912524254E+02 -0.86502934839E+01 -0.29140789808E+02  0.34310663596E+02  0.51100000000E-03 0. -1.
        -11    1    3    3    0    0  0.24782690466E+00  0.34857057672E+00 -0.46547200876E+00  0.63212662789E+00  0.51100000000E-03 0.  1.
         12    1    3    3    0    0  0.28738592684E+00 -0.35103193984E+01 -0.10631296899E+02  0.11199527075E+02  0.00000000000E+00 0. -1.
</event>
<event>
 7    1  0.4194672E-008  0.4614232E+02  0.7816164E-02  0.1320468E+00
        -11   -1    0    0    0    0  0.00000000000E+00  0.00000000000E+00  0.45593999997E+02  0.45594000000E+02  0.51100000000E-03 0.  1.
         11   -1    0    0    0    0 -0.00000000000E+00 -0.00000000000E+00 -0.45593999997E+02  0.45594000000E+02  0.51100000000E-03 0. -1.
    9900012    2    1    2    0    0 -0.13388557898E+02  0.22609929711E+02 -0.36587580770E+02  0.46142317957E+02  0.10000001784E+02 0.  0.
        -12    1    1    2    0    0  0.13388557898E+02 -0.22609929711E+02  0.36587580770E+02  0.45045682043E+02  0.00000000000E+00 0.  1.
         11    1    3    3    0    0 -0.75975914074E+01  0.13491119633E+02 -0.19289350756E+02  0.24734849039E+02  0.51100000000E-03 0. -1.
        -11    1    3    3    0    0 -0.64239884981E+01  0.42600763058E+01 -0.10822997668E+02  0.13287330700E+02  0.51100000000E-03 0.  1.
        -12    1    3    3    0    0  0.63302200736E+00  0.48587337726E+01 -0.64752323463E+01  0.81201382176E+01  0.00000000000E+00 0.  1.
</event>
<event>
 7    1  0.4194672E-008  0.4614232E+02  0.7816164E-02  0.1320468E+00
        -11   -1    0    0    0    0  0.00000000000E+00  0.00000000000E+00  0.45593999997E+02  0.45594000000E+02  0.51100000000E-03 0. -1.
         11   -1    0    0    0    0 -0.00000000000E+00 -0.00000000000E+00 -0.45593999997E+02  0.45594000000E+02  0.51100000000E-03 0.  1.
    9900012    2    1    2    0    0  0.45330688909E+01  0.11484797694E+02  0.43320482316E+02  0.46142317857E+02  0.10000000876E+02 0.  0.
        -12    1    1    2    0    0 -0.45330688909E+01 -0.11484797694E+02 -0.43320482316E+02  0.45045682143E+02  0.00000000000E+00 0.  1.
         11    1    3    3    0    0 -0.14844295020E+01  0.85311215402E+01  0.19154753372E+02  0.21021135619E+02  0.51100000000E-03 0. -1.
        -11    1    3    3    0    0  0.14716193153E+01  0.12407258096E+01  0.87024442281E+01  0.89127773308E+01  0.51100000000E-03 0.  1.
         12    1    3    3    0    0  0.45458790776E+01  0.17129503444E+01  0.15463284715E+02  0.16208404908E+02  0.00000000000E+00 0. -1.
</event>
<event>
 7    1  0.4194672E-008  0.4614232E+02  0.7816164E-02  0.1320468E+00
        -11   -1    0    0    0    0  0.00000000000E+00  0.00000000000E+00  0.45593999997E+02  0.45594000000E+02  0.51100000000E-03 0. -1.
         11   -1    0    0    0    0 -0.00000000000E+00 -0.00000000000E+00 -0.45593999997E+02  0.45594000000E+02  0.51100000000E-03 0.  1.
    9900012    2    1    2    0    0  0.44335315370E+02 -0.47591392129E+01 -0.63909223648E+01  0.46142317813E+02  0.10000000475E+02 0.  0.
        -12    1    1    2    0    0 -0.44335315370E+02  0.47591392129E+01  0.63909223648E+01  0.45045682187E+02  0.00000000000E+00 0.  1.
         11    1    3    3    0    0  0.11652116427E+02 -0.28183453264E+01 -0.19427922572E+01  0.12144518501E+02  0.51100000000E-03 0. -1.
        -11    1    3    3    0    0  0.36432106574E+01  0.16919758946E+01 -0.23557954324E+01  0.46567734218E+01  0.51100000000E-03 0.  1.
        -12    1    3    3    0    0  0.29039988285E+02 -0.36327697812E+01 -0.20923346752E+01  0.29341025890E+02  0.00000000000E+00 0.  1.
</event>
<event>
 7    1  0.4194672E-008  0.4614232E+02  0.7816164E-02  0.1320468E+00
        -11   -1    0    0    0    0  0.00000000000E+00  0.00000000000E+00  0.45593999997E+02  0.45594000000E+02  0.51100000000E-03 0.  1.
         11   -1    0    0    0    0 -0.00000000000E+00 -0.00000000000E+00 -0.45593999997E+02  0.45594000000E+02  0.51100000000E-03 0. -1.
    9900012    2    1    2    0    0 -0.31740281632E+02  0.31126897829E+02  0.72652731583E+01  0.46142318291E+02  0.10000004835E+02 0.  0.
        -12    1    1    2    0    0  0.31740281632E+02 -0.31126897829E+02 -0.72652731583E+01  0.45045681709E+02  0.00000000000E+00 0.  1.
         11    1    3    3    0    0 -0.21807668375E+02  0.23363364513E+02  0.29085720977E+01  0.32091758962E+02  0.51100000000E-03 0. -1.
        -11    1    3    3    0    0 -0.20210766111E+01  0.24893603172E+01  0.30990826188E+01  0.44593697757E+01  0.51100000000E-03 0.  1.
         12    1    3    3    0    0 -0.79115366461E+01  0.52741729982E+01  0.12576184419E+01  0.95911895541E+01  0.00000000000E+00 0. -1.
</event>
<event>
 7    1  0.4194672E-008  0.4614232E+02  0.7816164E-02  0.1320468E+00
        -11   -1    0    0    0    0  0.00000000000E+00  0.00000000000E+00  0.45593999997E+02  0.45594000000E+02  0.51100000000E-03 0. -1.
         11   -1    0    0    0    0 -0.00000000000E+00 -0.00000000000E+00 -0.45593999997E+02  0.45594000000E+02  0.51100000000E-03 0.  1.
    9900012    2    1    2    0    0  0.31052358082E+02 -0.16520609196E+02  0.28141322940E+02  0.46142317327E+02  0.99999960418E+01 0.  0.
        -12    1    1    2    0    0 -0.31052358082E+02  0.16520609196E+02 -0.28141322940E+02  0.45045682673E+02  0.00000000000E+00 0.  1.
         11    1    3    3    0    0  0.36853531208E+00 -0.82329060794E-01  0.12188305841E+01  0.12759876976E+01  0.51100000000E-03 0. -1.
        -11    1    3    3    0    0  0.37289933552E+01  0.65021699386E+00  0.44008137550E+01  0.58047683459E+01  0.51100000000E-03 0.  1.
         12    1    3    3    0    0  0.26954829414E+02 -0.17088497129E+02  0.22521678601E+02  0.39061561284E+02  0.00000000000E+00 0. -1.
</event>
<event>
 7    1  0.4194672E-008  0.4614232E+02  0.7816164E-02  0.1320468E+00
        -11   -1    0    0    0    0  0.00000000000E+00  0.00000000000E+00  0.45593999997E+02  0.45594000000E+02  0.51100000000E-03 0. -1.
         11   -1    0    0    0    0 -0.00000000000E+00 -0.00000000000E+00 -0.45593999997E+02  0.45594000000E+02  0.51100000000E-03 0.  1.
    9900012    2    1    2    0    0 -0.17256010154E+00 -0.28079117443E+02  0.35222817214E+02  0.46142318011E+02  0.10000002279E+02 0.  0.
        -12    1    1    2    0    0  0.17256010154E+00  0.28079117443E+02 -0.35222817214E+02  0.45045681989E+02  0.00000000000E+00 0.  1.
         11    1    3    3    0    0  0.55774144201E-01 -0.12012477126E+02  0.10955726733E+02  0.16258249167E+02  0.51100000000E-03 0. -1.
        -11    1    3    3    0    0 -0.22625518758E+01 -0.12298359325E+02  0.14066906943E+02  0.18821441345E+02  0.51100000000E-03 0.  1.
        -12    1    3    3    0    0  0.20342176300E+01 -0.37682809924E+01  0.10200183537E+02  0.11062627499E+02  0.00000000000E+00 0.  1.
</event>
<event>
 7    1  0.4194672E-008  0.4614232E+02  0.7816164E-02  0.1320468E+00
        -11   -1    0    0    0    0  0.00000000000E+00  0.00000000000E+00  0.45593999997E+02  0.45594000000E+02  0.51100000000E-03 0.  1.
         11   -1    0    0    0    0 -0.00000000000E+00 -0.00000000000E+00 -0.45593999997E+02  0.45594000000E+02  0.51100000000E-03 0. -1.
    9900012    2    1    2    0    0 -0.28835236281E+02  0.34400335048E+02  0.37761775236E+01  0.46142318526E+02  0.10000006976E+02 0.  0.
        -12    1    1    2    0    0  0.28835236281E+02 -0.34400335048E+02 -0.37761775236E+01  0.45045681474E+02  0.00000000000E+00 0.  1.
         11    1    3    3    0    0 -0.12266644156E+02  0.20512884608E+02  0.95312381414E-01  0.23901005805E+02  0.51100000000E-03 0. -1.
        -11    1    3    3    0    0 -0.27288229565E+00 -0.23644614107E+00 -0.18951607776E-01  0.36156735122E+00  0.51100000000E-03 0.  1.
         12    1    3    3    0    0 -0.16295709830E+02  0.14123896581E+02  0.36998167499E+01  0.21879745370E+02  0.00000000000E+00 0. -1.
</event>
<event>
 7    1  0.4194672E-008  0.4614232E+02  0.7816164E-02  0.1320468E+00
        -11   -1    0    0    0    0  0.00000000000E+00  0.00000000000E+00  0.45593999997E+02  0.45594000000E+02  0.51100000000E-03 0.  1.
         11   -1    0    0    0    0 -0.00000000000E+00 -0.00000000000E+00 -0.45593999997E+02  0.45594000000E+02  0.51100000000E-03 0. -1.
    9900012    2    1    2    0    0  0.27527795768E+02  0.22940950236E+02 -0.27295544097E+02  0.46142318019E+02  0.10000002353E+02 0.  0.
        -12    1    1    2    0    0 -0.27527795768E+02 -0.22940950236E+02  0.27295544097E+02  0.45045681981E+02  0.00000000000E+00 0.  1.
         11    1    3    3    0    0  0.15498066390E+02  0.93002578863E+01 -0.96888135161E+01  0.20507509995E+02  0.51100000000E-03 0. -1.
        -11    1    3    3    0    0  0.59519678639E+01  0.69671848140E+01 -0.60909419344E+01  0.11003052285E+02  0.51100000000E-03 0.  1.
        -12    1    3    3    0    0  0.60777615140E+01  0.66735075355E+01 -0.11515788647E+02  0.14631755739E+02  0.00000000000E+00 0.  1.
</event>
<event>
 7    1  0.4194672E-008  0.4614232E+02  0.7816164E-02  0.1320468E+00
        -11   -1    0    0    0    0  0.00000000000E+00  0.00000000000E+00  0.45593999997E+02  0.45594000000E+02  0.51100000000E-03 0. -1.
         11   -1    0    0    0    0 -0.00000000000E+00 -0.00000000000E+00 -0.45593999997E+02  0.45594000000E+02  0.51100000000E-03 0.  1.
    9900012    2    1    2    0    0  0.91953770236E+01  0.43859816376E+02 -0.45689057738E+01  0.46142319284E+02  0.10000013889E+02 0.  0.
        -12    1    1    2    0    0 -0.91953770236E+01 -0.43859816376E+02  0.45689057738E+01  0.45045680716E+02  0.00000000000E+00 0.  1.
         11    1    3    3    0    0  0.20394964613E+01  0.34718523142E+01  0.55473991926E+00  0.40646083387E+01  0.51100000000E-03 0. -1.
        -11    1    3    3    0    0  0.80232726666E+01  0.37471111752E+02 -0.31479816385E+01  0.38449537174E+02  0.51100000000E-03 0.  1.
        -12    1    3    3    0    0 -0.86739210427E+00  0.29168523098E+01 -0.19756640546E+01  0.36281737715E+01  0.00000000000E+00 0.  1.
</event>
<event>
 7    1  0.4194672E-008  0.4614232E+02  0.7816164E-02  0.1320468E+00
        -11   -1    0    0    0    0  0.00000000000E+00  0.00000000000E+00  0.45593999997E+02  0.45594000000E+02  0.51100000000E-03 0. -1.
         11   -1    0    0    0    0 -0.00000000000E+00 -0.00000000000E+00 -0.45593999997E+02  0.45594000000E+02  0.51100000000E-03 0.  1.
    9900012    2    1    2    0    0  0.40507284281E+02  0.18754602508E+02  0.60447015670E+01  0.46142316388E+02  0.99999874749E+01 0.  0.
        -12    1    1    2    0    0 -0.40507284281E+02 -0.18754602508E+02 -0.60447015670E+01  0.45045683612E+02  0.00000000000E+00 0.  1.
         11    1    3    3    0    0  0.52526993052E+01  0.37477191713E+01 -0.14982000566E+01  0.66242624230E+01  0.51100000000E-03 0. -1.
        -11    1    3    3    0    0  0.89167596547E+01  0.57891777937E+01  0.41324986546E+01  0.11406170596E+02  0.51100000000E-03 0.  1.
         12    1    3    3    0    0  0.26337825321E+02  0.92177055434E+01  0.34104029690E+01  0.28111883369E+02  0.00000000000E+00 0. -1.
</event>
<event>
 7    1  0.4194672E-008  0.4614232E+02  0.7816164E-02  0.1320468E+00
        -11   -1    0    0    0    0  0.00000000000E+00  0.00000000000E+00  0.45593999997E+02  0.45594000000E+02  0.51100000000E-03 0. -1.
         11   -1    0    0    0    0 -0.00000000000E+00 -0.00000000000E+00 -0.45593999997E+02  0.45594000000E+02  0.51100000000E-03 0.  1.
    9900012    2    1    2    0    0  0.24529835915E+02 -0.19014231484E+01  0.37733078416E+02  0.46142318001E+02  0.10000002188E+02 0.  0.
        -12    1    1    2    0    0 -0.24529835915E+02  0.19014231484E+01 -0.37733078416E+02  0.45045681999E+02  0.00000000000E+00 0.  1.
         11    1    3    3    0    0  0.21309593344E+02 -0.39009033298E+01  0.27516054315E+02  0.35020694748E+02  0.51100000000E-03 0. -1.
        -11    1    3    3    0    0  0.11250711507E+01 -0.39559536344E+00  0.23473969764E+01  0.26329742900E+01  0.51100000000E-03 0.  1.
        -12    1    3    3    0    0  0.20951714204E+01  0.23950755448E+01  0.78696271243E+01  0.84886489633E+01  0.00000000000E+00 0.  1.
</event>
<event>
 7    1  0.4194672E-008  0.4614232E+02  0.7816164E-02  0.1320468E+00
        -11   -1    0    0    0    0  0.00000000000E+00  0.00000000000E+00  0.45593999997E+02  0.45594000000E+02  0.51100000000E-03 0. -1.
         11   -1    0    0    0    0 -0.00000000000E+00 -0.00000000000E+00 -0.45593999997E+02  0.45594000000E+02  0.51100000000E-03 0.  1.
    9900012    2    1    2    0    0 -0.87482527861E+01  0.45294664446E+01  0.43955267059E+02  0.46142317684E+02  0.99999992989E+01 0.  0.
        -12    1    1    2    0    0  0.87482527861E+01 -0.45294664446E+01 -0.43955267059E+02  0.45045682316E+02  0.00000000000E+00 0.  1.
         11    1    3    3    0    0 -0.24158544003E+01 -0.16068929123E+00  0.26733609833E+02  0.26843026440E+02  0.51100000000E-03 0.  1.
        -11    1    3    3    0    0 -0.27663411743E+01  0.41118092941E+01  0.11633344029E+02  0.12644932294E+02  0.51100000000E-03 0. -1.
        -12    1    3    3    0    0 -0.35660572116E+01  0.57834644174E+00  0.55883131967E+01  0.66543589494E+01  0.00000000000E+00 0.  1.
</event>
<event>
 7    1  0.4194672E-008  0.4614232E+02  0.7816164E-02  0.1320468E+00
        -11   -1    0    0    0    0  0.00000000000E+00  0.00000000000E+00  0.45593999997E+02  0.45594000000E+02  0.51100000000E-03 0.  1.
         11   -1    0    0    0    0 -0.00000000000E+00 -0.00000000000E+00 -0.45593999997E+02  0.45594000000E+02  0.51100000000E-03 0. -1.
    9900012    2    1    2    0    0 -0.16714528819E+02 -0.99345952561E+01 -0.40633014183E+02  0.46142317653E+02  0.99999990096E+01 0.  0.
        -12    1    1    2    0    0  0.16714528819E+02  0.99345952561E+01  0.40633014183E+02  0.45045682347E+02  0.00000000000E+00 0.  1.
         11    1    3    3    0    0 -0.33212358418E+01  0.13464328897E+00 -0.86887232801E+01  0.93028301517E+01  0.51100000000E-03 0. -1.
        -11    1    3    3    0    0 -0.71729478685E+00  0.11764003867E+01 -0.19176877240E+01  0.23613462577E+01  0.51100000000E-03 0.  1.
         12    1    3    3    0    0 -0.12675998190E+02 -0.11245638932E+02 -0.30026603179E+02  0.34478141243E+02  0.00000000000E+00 0. -1.
</event>
<event>
 7    1  0.4194672E-008  0.4614231E+02  0.7816164E-02  0.1320468E+00
        -11   -1    0    0    0    0  0.00000000000E+00  0.00000000000E+00  0.45593999997E+02  0.45594000000E+02  0.51100000000E-03 0. -1.
         11   -1    0    0    0    0 -0.00000000000E+00 -0.00000000000E+00 -0.45593999997E+02  0.45594000000E+02  0.51100000000E-03 0.  1.
    9900012    2    1    2    0    0  0.29843034582E+02  0.15065427353E+02 -0.30191723593E+02  0.46142312216E+02  0.99999494361E+01 0.  0.
        -12    1    1    2    0    0 -0.29843034582E+02 -0.15065427353E+02  0.30191723593E+02  0.45045687784E+02  0.00000000000E+00 0.  1.
         11    1    3    3    0    0  0.49008027416E+01 -0.14484214793E+00 -0.39248479248E+01  0.62803883839E+01  0.51100000000E-03 0. -1.
        -11    1    3    3    0    0  0.82548529445E+01  0.22351734877E+01 -0.51496932323E+01  0.99828822643E+01  0.51100000000E-03 0.  1.
        -12    1    3    3    0    0  0.16687378896E+02  0.12975096013E+02 -0.21117182436E+02  0.29879041568E+02  0.00000000000E+00 0.  1.
</event>
<event>
 7    1  0.4194672E-008  0.4614232E+02  0.7816164E-02  0.1320468E+00
        -11   -1    0    0    0    0  0.00000000000E+00  0.00000000000E+00  0.45593999997E+02  0.45594000000E+02  0.51100000000E-03 0. -1.
         11   -1    0    0    0    0 -0.00000000000E+00 -0.00000000000E+00 -0.45593999997E+02  0.45594000000E+02  0.51100000000E-03 0.  1.
    9900012    2    1    2    0    0 -0.40465774051E+02 -0.99265560727E+01  0.17120108656E+02  0.46142317572E+02  0.99999982763E+01 0.  0.
        -12    1    1    2    0    0  0.40465774051E+02  0.99265560727E+01 -0.17120108656E+02  0.45045682428E+02  0.00000000000E+00 0.  1.
         11    1    3    3    0    0 -0.21702345211E+02 -0.68007206724E+01  0.99275769249E+01  0.24815285071E+02  0.51100000000E-03 0. -1.
        -11    1    3    3    0    0 -0.18428712197E+02 -0.39940900348E+01  0.75746918596E+01  0.20321076386E+02  0.51100000000E-03 0.  1.
        -12    1    3    3    0    0 -0.33471664361E+00  0.86825463455E+00 -0.38216012874E+00  0.10059561153E+01  0.00000000000E+00 0.  1.
</event>
<event>
 7    1  0.4194672E-008  0.4614232E+02  0.7816164E-02  0.1320468E+00
        -11   -1    0    0    0    0  0.00000000000E+00  0.00000000000E+00  0.45593999997E+02  0.45594000000E+02  0.51100000000E-03 0. -1.
         11   -1    0    0    0    0 -0.00000000000E+00 -0.00000000000E+00 -0.45593999997E+02  0.45594000000E+02  0.51100000000E-03 0.  1.
    9900012    2    1    2    0    0 -0.42322690205E+02  0.15275056132E+02 -0.21391596197E+01  0.46142318188E+02  0.10000003895E+02 0.  0.
        -12    1    1    2    0    0  0.42322690205E+02 -0.15275056132E+02  0.21391596197E+01  0.45045681812E+02  0.00000000000E+00 0.  1.
         11    1    3    3    0    0 -0.14604467881E+02  0.63673352662E+01 -0.93462519496E+00  0.15959541503E+02  0.51100000000E-03 0. -1.
        -11    1    3    3    0    0 -0.13223922578E+02  0.16807349895E+00 -0.88249242276E+00  0.13254401918E+02  0.51100000000E-03 0.  1.
        -12    1    3    3    0    0 -0.14494299746E+02  0.87396473666E+01 -0.32204200193E+00  0.16928374767E+02  0.00000000000E+00 0.  1.
</event>
<event>
 7    1  0.4194672E-008  0.4614232E+02  0.7816164E-02  0.1320468E+00
        -11   -1    0    0    0    0  0.00000000000E+00  0.00000000000E+00  0.45593999997E+02  0.45594000000E+02  0.51100000000E-03 0.  1.
         11   -1    0    0    0    0 -0.00000000000E+00 -0.00000000000E+00 -0.45593999997E+02  0.45594000000E+02  0.51100000000E-03 0. -1.
    9900012    2    1    2    0    0  0.33782277361E+02 -0.29767255134E+02  0.13348372650E+01  0.46142317272E+02  0.99999955371E+01 0.  0.
        -12    1    1    2    0    0 -0.33782277361E+02  0.29767255134E+02 -0.13348372650E+01  0.45045682728E+02  0.00000000000E+00 0.  1.
         11    1    3    3    0    0  0.17534210132E+02 -0.12049142805E+02 -0.37021299067E+00  0.21278332294E+02  0.51100000000E-03 0. -1.
        -11    1    3    3    0    0  0.13090848339E+01 -0.11399063110E+01 -0.15308835575E+01  0.23144533324E+01  0.51100000000E-03 0.  1.
        -12    1    3    3    0    0  0.14938982396E+02 -0.16578206018E+02  0.32359338131E+01  0.22549531646E+02  0.00000000000E+00 0.  1.
</event>
<event>
 7    1  0.4194672E-008  0.4614232E+02  0.7816164E-02  0.1320468E+00
        -11   -1    0    0    0    0  0.00000000000E+00  0.00000000000E+00  0.45593999997E+02  0.45594000000E+02  0.51100000000E-03 0. -1.
         11   -1    0    0    0    0 -0.00000000000E+00 -0.00000000000E+00 -0.45593999997E+02  0.45594000000E+02  0.51100000000E-03 0.  1.
    9900012    2    1    2    0    0  0.25272054796E+02  0.30272550930E+02  0.21771759991E+02  0.46142316228E+02  0.99999860168E+01 0.  0.
        -12    1    1    2    0    0 -0.25272054796E+02 -0.30272550930E+02 -0.21771759991E+02  0.45045683772E+02  0.00000000000E+00 0.  1.
         11    1    3    3    0    0  0.11037025343E+02  0.88985864856E+01  0.76414372525E+01  0.16105661533E+02  0.51100000000E-03 0.  1.
        -11    1    3    3    0    0  0.12026947865E+02  0.13042974855E+02  0.10956871538E+02  0.20852330857E+02  0.51100000000E-03 0. -1.
        -12    1    3    3    0    0  0.22080815878E+01  0.83309895890E+01  0.31734512009E+01  0.91843238376E+01  0.00000000000E+00 0.  1.
</event>
<event>
 7    1  0.4194672E-008  0.4614232E+02  0.7816164E-02  0.1320468E+00
        -11   -1    0    0    0    0  0.00000000000E+00  0.00000000000E+00  0.45593999997E+02  0.45594000000E+02  0.51100000000E-03 0.  1.
         11   -1    0    0    0    0 -0.00000000000E+00 -0.00000000000E+00 -0.45593999997E+02  0.45594000000E+02  0.51100000000E-03 0. -1.
    9900012    2    1    2    0    0 -0.16197828806E+02 -0.14987810685E+02 -0.39269700009E+02  0.46142318010E+02  0.10000002271E+02 0.  0.
        -12    1    1    2    0    0  0.16197828806E+02  0.14987810685E+02  0.39269700009E+02  0.45045681990E+02  0.00000000000E+00 0.  1.
         11    1    3    3    0    0 -0.40540397707E+01 -0.50877692360E+00 -0.45840712500E+01  0.61406678714E+01  0.51100000000E-03 0. -1.
        -11    1    3    3    0    0 -0.31927557808E+01 -0.65295803487E+01 -0.83342353613E+01  0.11058417080E+02  0.51100000000E-03 0.  1.
         12    1    3    3    0    0 -0.89510332543E+01 -0.79494534123E+01 -0.26351393398E+02  0.28943233058E+02  0.00000000000E+00 0. -1.
</event>
<event>
 7    1  0.4194672E-008  0.4614232E+02  0.7816164E-02  0.1320468E+00
        -11   -1    0    0    0    0  0.00000000000E+00  0.00000000000E+00  0.45593999997E+02  0.45594000000E+02  0.51100000000E-03 0.  1.
         11   -1    0    0    0    0 -0.00000000000E+00 -0.00000000000E+00 -0.45593999997E+02  0.45594000000E+02  0.51100000000E-03 0. -1.
    9900012    2    1    2    0    0 -0.38119911295E+01 -0.39713298088E+02 -0.20914974447E+02  0.46142317882E+02  0.10000001100E+02 0.  0.
        -12    1    1    2    0    0  0.38119911295E+01  0.39713298088E+02  0.20914974447E+02  0.45045682118E+02  0.00000000000E+00 0.  1.
         11    1    3    3    0    0 -0.45117671458E+01 -0.10888968021E+02 -0.38355944303E+01  0.12395057573E+02  0.51100000000E-03 0. -1.
        -11    1    3    3    0    0 -0.14695436577E+01 -0.13439245712E+02 -0.89309664133E+01  0.16202933229E+02  0.51100000000E-03 0.  1.
        -12    1    3    3    0    0  0.21693196741E+01 -0.15385084354E+02 -0.81484136034E+01  0.17544327080E+02  0.00000000000E+00 0.  1.
</event>
<event>
 7    1  0.4194672E-008  0.4614232E+02  0.7816164E-02  0.1320468E+00
        -11   -1    0    0    0    0  0.00000000000E+00  0.00000000000E+00  0.45593999997E+02  0.45594000000E+02  0.51100000000E-03 0. -1.
         11   -1    0    0    0    0 -0.00000000000E+00 -0.00000000000E+00 -0.45593999997E+02  0.45594000000E+02  0.51100000000E-03 0.  1.
    9900012    2    1    2    0    0  0.15288931226E+02 -0.42297702349E+02 -0.25032791231E+01  0.46142318205E+02  0.10000004046E+02 0.  0.
        -12    1    1    2    0    0 -0.15288931226E+02  0.42297702349E+02  0.25032791231E+01  0.45045681795E+02  0.00000000000E+00 0.  1.
         11    1    3    3    0    0  0.98303823478E+01 -0.21830240805E+02 -0.22169815303E+01  0.24043935577E+02  0.51100000000E-03 0. -1.
        -11    1    3    3    0    0  0.30726295826E+01 -0.74443085103E+01  0.27586070090E+01  0.85128546704E+01  0.51100000000E-03 0.  1.
        -12    1    3    3    0    0  0.23859192958E+01 -0.13023153034E+02 -0.30449046018E+01  0.13585527957E+02  0.00000000000E+00 0.  1.
</event>
<event>
 7    1  0.4194672E-008  0.4614232E+02  0.7816164E-02  0.1320468E+00
        -11   -1    0    0    0    0  0.00000000000E+00  0.00000000000E+00  0.45593999997E+02  0.45594000000E+02  0.51100000000E-03 0.  1.
         11   -1    0    0    0    0 -0.00000000000E+00 -0.00000000000E+00 -0.45593999997E+02  0.45594000000E+02  0.51100000000E-03 0. -1.
    9900012    2    1    2    0    0 -0.31637386170E+02  0.16730329659E+02 -0.27354802773E+02  0.46142319087E+02  0.10000012088E+02 0.  0.
        -12    1    1    2    0    0  0.31637386170E+02 -0.16730329659E+02  0.27354802773E+02  0.45045680913E+02  0.00000000000E+00 0.  1.
         11    1    3    3    0    0 -0.50068190274E+01  0.53895080616E+01 -0.49776783248E+01  0.88821346357E+01  0.51100000000E-03 0. -1.
        -11    1    3    3    0    0 -0.94008378039E+00  0.13439906421E+01 -0.34531416766E+01  0.38228596704E+01  0.51100000000E-03 0.  1.
         12    1    3    3    0    0 -0.25690483362E+02  0.99968309550E+01 -0.18923982772E+02  0.33437324781E+02  0.00000000000E+00 0. -1.
</event>
<event>
 7    1  0.4194672E-008  0.4614232E+02  0.7816164E-02  0.1320468E+00
        -11   -1    0    0    0    0  0.00000000000E+00  0.00000000000E+00  0.45593999997E+02  0.45594000000E+02  0.51100000000E-03 0.  1.
         11   -1    0    0    0    0 -0.00000000000E+00 -0.00000000000E+00 -0.45593999997E+02  0.45594000000E+02  0.51100000000E-03 0. -1.
    9900012    2    1    2    0    0  0.21699132127E+02  0.21383947325E+02 -0.33181140593E+02  0.46142316196E+02  0.99999857296E+01 0.  0.
        -12    1    1    2    0    0 -0.21699132127E+02 -0.21383947325E+02  0.33181140593E+02  0.45045683804E+02  0.00000000000E+00 0.  1.
         11    1    3    3    0    0  0.15182209182E+02  0.13342942699E+02 -0.20753368866E+02  0.28969568776E+02  0.51100000000E-03 0. -1.
        -11    1    3    3    0    0  0.23173100613E+01 -0.96866805320E-01 -0.99296595154E+00  0.25229527820E+01  0.51100000000E-03 0.  1.
        -12    1    3    3    0    0  0.41996128836E+01  0.81378714316E+01 -0.11434805776E+02  0.14649794638E+02  0.00000000000E+00 0.  1.
</event>
<event>
 7    1  0.4194672E-008  0.4614232E+02  0.7816164E-02  0.1320468E+00
        -11   -1    0    0    0    0  0.00000000000E+00  0.00000000000E+00  0.45593999997E+02  0.45594000000E+02  0.51100000000E-03 0.  1.
         11   -1    0    0    0    0 -0.00000000000E+00 -0.00000000000E+00 -0.45593999997E+02  0.45594000000E+02  0.51100000000E-03 0. -1.
    9900012    2    1    2    0    0 -0.24581986908E+02  0.26663433162E+01 -0.37652754841E+02  0.46142318585E+02  0.10000007510E+02 0.  0.
        -12    1    1    2    0    0  0.24581986908E+02 -0.26663433162E+01  0.37652754841E+02  0.45045681415E+02  0.00000000000E+00 0.  1.
         11    1    3    3    0    0 -0.12655100268E+01 -0.50926621196E+00 -0.17737653444E+01  0.22376575834E+01  0.51100000000E-03 0. -1.
        -11    1    3    3    0    0 -0.16423029032E+02 -0.20781666307E+01 -0.25202632282E+02  0.30153065073E+02  0.51100000000E-03 0.  1.
         12    1    3    3    0    0 -0.68934478494E+01  0.52537761589E+01 -0.10676357215E+02  0.13751595928E+02  0.00000000000E+00 0. -1.
</event>
<event>
 7    1  0.4194672E-008  0.4614232E+02  0.7816164E-02  0.1320468E+00
        -11   -1    0    0    0    0  0.00000000000E+00  0.00000000000E+00  0.45593999997E+02  0.45594000000E+02  0.51100000000E-03 0.  1.
         11   -1    0    0    0    0 -0.00000000000E+00 -0.00000000000E+00 -0.45593999997E+02  0.45594000000E+02  0.51100000000E-03 0. -1.
    9900012    2    1    2    0    0  0.22834699910E+02  0.17746705286E+02 -0.34536135490E+02  0.46142315156E+02  0.99999762431E+01 0.  0.
        -12    1    1    2    0    0 -0.22834699910E+02 -0.17746705286E+02  0.34536135490E+02  0.45045684844E+02  0.00000000000E+00 0.  1.
         11    1    3    3    0    0  0.53111770256E+01  0.84387703505E+01 -0.92727559045E+01  0.13616366944E+02  0.51100000000E-03 0. -1.
        -11    1    3    3    0    0  0.14664814244E+02  0.95835097782E+01 -0.22719869231E+02  0.28689595581E+02  0.51100000000E-03 0.  1.
        -12    1    3    3    0    0  0.28587086403E+01 -0.27557484229E+00 -0.25435103544E+01  0.38363526307E+01  0.00000000000E+00 0.  1.
</event>
<event>
 7    1  0.4194672E-008  0.4614232E+02  0.7816164E-02  0.1320468E+00
        -11   -1    0    0    0    0  0.00000000000E+00  0.00000000000E+00  0.45593999997E+02  0.45594000000E+02  0.51100000000E-03 0.  1.
         11   -1    0    0    0    0 -0.00000000000E+00 -0.00000000000E+00 -0.45593999997E+02  0.45594000000E+02  0.51100000000E-03 0. -1.
    9900012    2    1    2    0    0  0.33174832851E+02  0.64542794297E+01 -0.29780634272E+02  0.46142318350E+02  0.10000005370E+02 0.  0.
        -12    1    1    2    0    0 -0.33174832851E+02 -0.64542794297E+01  0.29780634272E+02  0.45045681650E+02  0.00000000000E+00 0.  1.
         11    1    3    3    0    0  0.11525144299E+02  0.28247609555E+00 -0.91954940115E+01  0.14746723509E+02  0.51100000000E-03 0. -1.
        -11    1    3    3    0    0  0.56505792057E+01  0.43417284492E+00 -0.96309900474E+01  0.11174682142E+02  0.51100000000E-03 0.  1.
         12    1    3    3    0    0  0.15999109346E+02  0.57376304892E+01 -0.10954150213E+02  0.20220912699E+02  0.00000000000E+00 0. -1.
</event>
<event>
 7    1  0.4194672E-008  0.4614232E+02  0.7816164E-02  0.1320468E+00
        -11   -1    0    0    0    0  0.00000000000E+00  0.00000000000E+00  0.45593999997E+02  0.45594000000E+02  0.51100000000E-03 0.  1.
         11   -1    0    0    0    0 -0.00000000000E+00 -0.00000000000E+00 -0.45593999997E+02  0.45594000000E+02  0.51100000000E-03 0. -1.
    9900012    2    1    2    0    0  0.22093093681E+02  0.38982964864E+02  0.46192102375E+01  0.46142318285E+02  0.10000004774E+02 0.  0.
        -12    1    1    2    0    0 -0.22093093681E+02 -0.38982964864E+02 -0.46192102375E+01  0.45045681715E+02  0.00000000000E+00 0.  1.
         11    1    3    3    0    0  0.12007512144E+01  0.13849408336E+01  0.15720262177E+00  0.18397221303E+01  0.51100000000E-03 0. -1.
        -11    1    3    3    0    0  0.23720996002E+01  0.24940850109E+00  0.11016690887E+00  0.23877181833E+01  0.51100000000E-03 0.  1.
         12    1    3    3    0    0  0.18520242866E+02  0.37348615529E+02  0.43518407068E+01  0.41914877971E+02  0.00000000000E+00 0. -1.
</event>
<event>
 7    1  0.4194672E-008  0.4614232E+02  0.7816164E-02  0.1320468E+00
        -11   -1    0    0    0    0  0.00000000000E+00  0.00000000000E+00  0.45593999997E+02  0.45594000000E+02  0.51100000000E-03 0. -1.
         11   -1    0    0    0    0 -0.00000000000E+00 -0.00000000000E+00 -0.45593999997E+02  0.45594000000E+02  0.51100000000E-03 0.  1.
    9900012    2    1    2    0    0  0.41481125504E+02  0.16336641308E+02 -0.64454578127E+01  0.46142317091E+02  0.99999938931E+01 0.  0.
        -12    1    1    2    0    0 -0.41481125504E+02 -0.16336641308E+02  0.64454578127E+01  0.45045682909E+02  0.00000000000E+00 0.  1.
         11    1    3    3    0    0  0.33209692151E+02  0.94935274506E+01 -0.50816810303E+01  0.34911806006E+02  0.51100000000E-03 0. -1.
        -11    1    3    3    0    0  0.57461162996E+01  0.58290721108E+01  0.33335667045E-02  0.81851051047E+01  0.51100000000E-03 0.  1.
        -12    1    3    3    0    0  0.25253170532E+01  0.10140417469E+01 -0.13671103491E+01  0.30454059812E+01  0.00000000000E+00 0.  1.
</event>
<event>
 7    1  0.4194672E-008  0.4614232E+02  0.7816164E-02  0.1320468E+00
        -11   -1    0    0    0    0  0.00000000000E+00  0.00000000000E+00  0.45593999997E+02  0.45594000000E+02  0.51100000000E-03 0. -1.
         11   -1    0    0    0    0 -0.00000000000E+00 -0.00000000000E+00 -0.45593999997E+02  0.45594000000E+02  0.51100000000E-03 0.  1.
    9900012    2    1    2    0    0  0.24532323098E+02  0.31431023146E+02  0.20961142383E+02  0.46142316715E+02  0.99999904611E+01 0.  0.
        -12    1    1    2    0    0 -0.24532323098E+02 -0.31431023146E+02 -0.20961142383E+02  0.45045683285E+02  0.00000000000E+00 0.  1.
         11    1    3    3    0    0  0.12764693810E+02  0.12710576973E+02  0.75265322488E+01  0.19522931721E+02  0.51100000000E-03 0. -1.
        -11    1    3    3    0    0  0.44171099445E+01  0.39679438572E+01  0.11141961978E+01  0.60412641181E+01  0.51100000000E-03 0.  1.
        -12    1    3    3    0    0  0.73505193442E+01  0.14752502316E+02  0.12320413937E+02  0.20578120876E+02  0.00000000000E+00 0.  1.
</event>
<event>
 7    1  0.4194672E-008  0.4614232E+02  0.7816164E-02  0.1320468E+00
        -11   -1    0    0    0    0  0.00000000000E+00  0.00000000000E+00  0.45593999997E+02  0.45594000000E+02  0.51100000000E-03 0. -1.
         11   -1    0    0    0    0 -0.00000000000E+00 -0.00000000000E+00 -0.45593999997E+02  0.45594000000E+02  0.51100000000E-03 0.  1.
    9900012    2    1    2    0    0  0.44197986763E+02 -0.83772442410E+01  0.23394873211E+01  0.46142318121E+02  0.10000003283E+02 0.  0.
        -12    1    1    2    0    0 -0.44197986763E+02  0.83772442410E+01 -0.23394873211E+01  0.45045681879E+02  0.00000000000E+00 0.  1.
         11    1    3    3    0    0  0.34736057857E+01  0.12290992600E+01 -0.16635621923E+01  0.40427789420E+01  0.51100000000E-03 0. -1.
        -11    1    3    3    0    0  0.57379001749E+00  0.13796800786E+00  0.20499033871E-02  0.59014796330E+00  0.51100000000E-03 0.  1.
         12    1    3    3    0    0  0.40150590960E+02 -0.97443115088E+01  0.40009996101E+01  0.41509391216E+02  0.00000000000E+00 0. -1.
</event>
<event>
 7    1  0.4194672E-008  0.4614232E+02  0.7816164E-02  0.1320468E+00
        -11   -1    0    0    0    0  0.00000000000E+00  0.00000000000E+00  0.45593999997E+02  0.45594000000E+02  0.51100000000E-03 0. -1.
         11   -1    0    0    0    0 -0.00000000000E+00 -0.00000000000E+00 -0.45593999997E+02  0.45594000000E+02  0.51100000000E-03 0.  1.
    9900012    2    1    2    0    0 -0.39678068505E+02  0.15267813729E+02  0.14888191377E+02  0.46142317645E+02  0.99999989436E+01 0.  0.
        -12    1    1    2    0    0  0.39678068505E+02 -0.15267813729E+02 -0.14888191377E+02  0.45045682355E+02  0.00000000000E+00 0.  1.
         11    1    3    3    0    0 -0.23479307024E+02  0.12825634986E+02  0.68768379984E+01  0.27623643355E+02  0.51100000000E-03 0. -1.
        -11    1    3    3    0    0 -0.47502443852E+01 -0.70107516073E-01  0.98104500367E+00  0.48509984893E+01  0.51100000000E-03 0.  1.
         12    1    3    3    0    0 -0.11448517096E+02  0.25122862587E+01  0.70303083752E+01  0.13667675801E+02  0.00000000000E+00 0. -1.
</event>
<event>
 7    1  0.4194672E-008  0.4614232E+02  0.7816164E-02  0.1320468E+00
        -11   -1    0    0    0    0  0.00000000000E+00  0.00000000000E+00  0.45593999997E+02  0.45594000000E+02  0.51100000000E-03 0.  1.
         11   -1    0    0    0    0 -0.00000000000E+00 -0.00000000000E+00 -0.45593999997E+02  0.45594000000E+02  0.51100000000E-03 0. -1.
    9900012    2    1    2    0    0  0.11353627595E+02 -0.43163892807E+02 -0.60899243851E+01  0.46142315625E+02  0.99999805199E+01 0.  0.
        -12    1    1    2    0    0 -0.11353627595E+02  0.43163892807E+02  0.60899243851E+01  0.45045684375E+02  0.00000000000E+00 0.  1.
         11    1    3    3    0    0  0.29560625526E+01 -0.15943242023E+02 -0.22393267194E+01  0.16368868514E+02  0.51100000000E-03 0. -1.
        -11    1    3    3    0    0  0.62052641571E+01 -0.16709459429E+02 -0.60306004220E+01  0.18816999744E+02  0.51100000000E-03 0.  1.
         12    1    3    3    0    0  0.21923008855E+01 -0.10511191355E+02  0.21800027564E+01  0.10956447366E+02  0.00000000000E+00 0. -1.
</event>
<event>
 7    1  0.4194672E-008  0.4614232E+02  0.7816164E-02  0.1320468E+00
        -11   -1    0    0    0    0  0.00000000000E+00  0.00000000000E+00  0.45593999997E+02  0.45594000000E+02  0.51100000000E-03 0. -1.
         11   -1    0    0    0    0 -0.00000000000E+00 -0.00000000000E+00 -0.45593999997E+02  0.45594000000E+02  0.51100000000E-03 0.  1.
    9900012    2    1    2    0    0  0.41064745555E+02  0.13381807299E+02 -0.12795581934E+02  0.46142323059E+02  0.10000048310E+02 0.  0.
        -12    1    1    2    0    0 -0.41064745555E+02 -0.13381807299E+02  0.12795581934E+02  0.45045676941E+02  0.00000000000E+00 0.  1.
         11    1    3    3    0    0  0.32108674666E+02  0.10108667986E+02 -0.10521963186E+02  0.35268454273E+02  0.51100000000E-03 0. -1.
        -11    1    3    3    0    0  0.35264870651E+01  0.30120144443E+01 -0.27921106621E+01  0.54133376251E+01  0.51100000000E-03 0.  1.
         12    1    3    3    0    0  0.54295838231E+01  0.26112486793E+00  0.51849191383E+00  0.54605311604E+01  0.00000000000E+00 0. -1.
</event>
<event>
 7    1  0.4194672E-008  0.4614232E+02  0.7816164E-02  0.1320468E+00
        -11   -1    0    0    0    0  0.00000000000E+00  0.00000000000E+00  0.45593999997E+02  0.45594000000E+02  0.51100000000E-03 0. -1.
         11   -1    0    0    0    0 -0.00000000000E+00 -0.00000000000E+00 -0.45593999997E+02  0.45594000000E+02  0.51100000000E-03 0.  1.
    9900012    2    1    2    0    0 -0.20539893465E+02  0.37523180510E+01  0.39914236563E+02  0.46142318800E+02  0.10000009478E+02 0.  0.
        -12    1    1    2    0    0  0.20539893465E+02 -0.37523180510E+01 -0.39914236563E+02  0.45045681200E+02  0.00000000000E+00 0.  1.
         11    1    3    3    0    0 -0.14721599563E+02 -0.42156394813E+00  0.29784735454E+02  0.33227002215E+02  0.51100000000E-03 0. -1.
        -11    1    3    3    0    0 -0.54296512642E+01  0.28082706643E+01  0.60699294342E+01  0.86146120384E+01  0.51100000000E-03 0.  1.
        -12    1    3    3    0    0 -0.38864263738E+00  0.13656113349E+01  0.40595716752E+01  0.43007045474E+01  0.00000000000E+00 0.  1.
</event>
<event>
 7    1  0.4194672E-008  0.4614232E+02  0.7816164E-02  0.1320468E+00
        -11   -1    0    0    0    0  0.00000000000E+00  0.00000000000E+00  0.45593999997E+02  0.45594000000E+02  0.51100000000E-03 0. -1.
         11   -1    0    0    0    0 -0.00000000000E+00 -0.00000000000E+00 -0.45593999997E+02  0.45594000000E+02  0.51100000000E-03 0.  1.
    9900012    2    1    2    0    0 -0.18533205724E+02 -0.12505148105E+01  0.41037416637E+02  0.46142322451E+02  0.10000042762E+02 0.  0.
        -12    1    1    2    0    0  0.18533205724E+02  0.12505148105E+01 -0.41037416637E+02  0.45045677549E+02  0.00000000000E+00 0.  1.
         11    1    3    3    0    0 -0.13341509774E+02 -0.18679237060E+01  0.28550256891E+02  0.31569006808E+02  0.51100000000E-03 0. -1.
        -11    1    3    3    0    0  0.27640861100E+00  0.12609327983E+01  0.50394105375E+00  0.13857525352E+01  0.51100000000E-03 0.  1.
        -12    1    3    3    0    0 -0.54681045603E+01 -0.64352390290E+00  0.11983218691E+02  0.13187563107E+02  0.00000000000E+00 0.  1.
</event>
<event>
 7    1  0.4194672E-008  0.4614232E+02  0.7816164E-02  0.1320468E+00
        -11   -1    0    0    0    0  0.00000000000E+00  0.00000000000E+00  0.45593999997E+02  0.45594000000E+02  0.51100000000E-03 0. -1.
         11   -1    0    0    0    0 -0.00000000000E+00 -0.00000000000E+00 -0.45593999997E+02  0.45594000000E+02  0.51100000000E-03 0.  1.
    9900012    2    1    2    0    0 -0.30356947286E+02 -0.26052726049E+02  0.20708083587E+02  0.46142317533E+02  0.99999979175E+01 0.  0.
        -12    1    1    2    0    0  0.30356947286E+02  0.26052726049E+02 -0.20708083587E+02  0.45045682467E+02  0.00000000000E+00 0.  1.
         11    1    3    3    0    0 -0.20140880386E+01 -0.83290435323E+00  0.35337403805E+01  0.41518190745E+01  0.51100000000E-03 0. -1.
        -11    1    3    3    0    0 -0.98305157200E+01 -0.84289247459E+01  0.86980839673E+01  0.15599438344E+02  0.51100000000E-03 0.  1.
         12    1    3    3    0    0 -0.18512343527E+02 -0.16790896950E+02  0.84762592389E+01  0.26391060114E+02  0.00000000000E+00 0. -1.
</event>
<event>
 7    1  0.4194672E-008  0.4614232E+02  0.7816164E-02  0.1320468E+00
        -11   -1    0    0    0    0  0.00000000000E+00  0.00000000000E+00  0.45593999997E+02  0.45594000000E+02  0.51100000000E-03 0.  1.
         11   -1    0    0    0    0 -0.00000000000E+00 -0.00000000000E+00 -0.45593999997E+02  0.45594000000E+02  0.51100000000E-03 0. -1.
    9900012    2    1    2    0    0  0.45195542552E+01  0.31370809321E+02 -0.32008742500E+02  0.46142316028E+02  0.99999841924E+01 0.  0.
        -12    1    1    2    0    0 -0.45195542552E+01 -0.31370809321E+02  0.32008742500E+02  0.45045683972E+02  0.00000000000E+00 0.  1.
         11    1    3    3    0    0  0.44642945875E+01  0.22681275392E+02 -0.26388530939E+02  0.35081686746E+02  0.51100000000E-03 0. -1.
        -11    1    3    3    0    0  0.12695014442E+01  0.68568397022E+01 -0.28728888136E+01  0.75419742120E+01  0.51100000000E-03 0.  1.
         12    1    3    3    0    0 -0.12142417765E+01  0.18326942272E+01 -0.27473227470E+01  0.35186550695E+01  0.00000000000E+00 0. -1.
</event>
<event>
 7    1  0.4194672E-008  0.4614232E+02  0.7816164E-02  0.1320468E+00
        -11   -1    0    0    0    0  0.00000000000E+00  0.00000000000E+00  0.45593999997E+02  0.45594000000E+02  0.51100000000E-03 0. -1.
         11   -1    0    0    0    0 -0.00000000000E+00 -0.00000000000E+00 -0.45593999997E+02  0.45594000000E+02  0.51100000000E-03 0.  1.
    9900012    2    1    2    0    0 -0.19812633648E+02  0.36026339928E+02  0.18403148619E+02  0.46142317635E+02  0.99999988479E+01 0.  0.
        -12    1    1    2    0    0  0.19812633648E+02 -0.36026339928E+02 -0.18403148619E+02  0.45045682365E+02  0.00000000000E+00 0.  1.
         11    1    3    3    0    0 -0.42999435794E+01  0.80131189593E+01  0.62991160597E+01  0.11062479543E+02  0.51100000000E-03 0. -1.
        -11    1    3    3    0    0 -0.97296290090E+01  0.98123322002E+01  0.54991797228E+01  0.14872408068E+02  0.51100000000E-03 0.  1.
         12    1    3    3    0    0 -0.57830610592E+01  0.18200888768E+02  0.66048528368E+01  0.20207430024E+02  0.00000000000E+00 0. -1.
</event>
<event>
 7    1  0.4194672E-008  0.4614232E+02  0.7816164E-02  0.1320468E+00
        -11   -1    0    0    0    0  0.00000000000E+00  0.00000000000E+00  0.45593999997E+02  0.45594000000E+02  0.51100000000E-03 0.  1.
         11   -1    0    0    0    0 -0.00000000000E+00 -0.00000000000E+00 -0.45593999997E+02  0.45594000000E+02  0.51100000000E-03 0. -1.
    9900012    2    1    2    0    0 -0.71588428559E+01 -0.42405955716E+02  0.13401468550E+02  0.46142317959E+02  0.10000001804E+02 0.  0.
        -12    1    1    2    0    0  0.71588428559E+01  0.42405955716E+02 -0.13401468550E+02  0.45045682041E+02  0.00000000000E+00 0.  1.
         11    1    3    3    0    0 -0.63149866567E+01 -0.34671405994E+02  0.89701637351E+01  0.36365495841E+02  0.51100000000E-03 0. -1.
        -11    1    3    3    0    0 -0.21055196120E+01 -0.63982090150E+01  0.41659509188E+01  0.79199393151E+01  0.51100000000E-03 0.  1.
         12    1    3    3    0    0  0.12616634128E+01 -0.13363407074E+01  0.26535389618E+00  0.18568828029E+01  0.00000000000E+00 0. -1.
</event>
<event>
 7    1  0.4194672E-008  0.4614232E+02  0.7816164E-02  0.1320468E+00
        -11   -1    0    0    0    0  0.00000000000E+00  0.00000000000E+00  0.45593999997E+02  0.45594000000E+02  0.51100000000E-03 0.  1.
         11   -1    0    0    0    0 -0.00000000000E+00 -0.00000000000E+00 -0.45593999997E+02  0.45594000000E+02  0.51100000000E-03 0. -1.
    9900012    2    1    2    0    0 -0.67833633671E+01  0.92649309135E+01 -0.43557554470E+02  0.46142317468E+02  0.99999973271E+01 0.  0.
        -12    1    1    2    0    0  0.67833633671E+01 -0.92649309135E+01  0.43557554470E+02  0.45045682532E+02  0.00000000000E+00 0.  1.
         11    1    3    3    0    0 -0.28030505740E+01 -0.71469550432E+00 -0.10735373064E+02  0.11118278521E+02  0.51100000000E-03 0.  1.
        -11    1    3    3    0    0 -0.15287684581E+01  0.11569494036E+01 -0.13574113537E+02  0.13708837424E+02  0.51100000000E-03 0. -1.
        -12    1    3    3    0    0 -0.24515443350E+01  0.88226770142E+01 -0.19248067868E+02  0.21315201523E+02  0.00000000000E+00 0.  1.
</event>
<event>
 7    1  0.4194672E-008  0.4614232E+02  0.7816164E-02  0.1320468E+00
        -11   -1    0    0    0    0  0.00000000000E+00  0.00000000000E+00  0.45593999997E+02  0.45594000000E+02  0.51100000000E-03 0. -1.
         11   -1    0    0    0    0 -0.00000000000E+00 -0.00000000000E+00 -0.45593999997E+02  0.45594000000E+02  0.51100000000E-03 0.  1.
    9900012    2    1    2    0    0 -0.43774433382E+02  0.10624799515E+02 -0.16198276830E+00  0.46142316288E+02  0.99999865690E+01 0.  0.
        -12    1    1    2    0    0  0.43774433382E+02 -0.10624799515E+02  0.16198276830E+00  0.45045683712E+02  0.00000000000E+00 0.  1.
         11    1    3    3    0    0 -0.44990553448E+01  0.17927863064E+01  0.12202149008E+01  0.49944475572E+01  0.51100000000E-03 0. -1.
        -11    1    3    3    0    0 -0.17916858684E+02  0.76869989822E+01  0.15540098682E+01  0.19558085934E+02  0.51100000000E-03 0.  1.
         12    1    3    3    0    0 -0.21358519353E+02  0.11450142260E+01 -0.29362075373E+01  0.21589782797E+02  0.00000000000E+00 0. -1.
</event>
<event>
 7    1  0.4194672E-008  0.4614232E+02  0.7816164E-02  0.1320468E+00
        -11   -1    0    0    0    0  0.00000000000E+00  0.00000000000E+00  0.45593999997E+02  0.45594000000E+02  0.51100000000E-03 0. -1.
         11   -1    0    0    0    0 -0.00000000000E+00 -0.00000000000E+00 -0.45593999997E+02  0.45594000000E+02  0.51100000000E-03 0.  1.
    9900012    2    1    2    0    0  0.20450541623E+02  0.13377106582E+02  0.37841007242E+02  0.46142318051E+02  0.10000002641E+02 0.  0.
        -12    1    1    2    0    0 -0.20450541623E+02 -0.13377106582E+02 -0.37841007242E+02  0.45045681949E+02  0.00000000000E+00 0.  1.
         11    1    3    3    0    0  0.62456861555E+01  0.16769276839E+01  0.97351151924E+01  0.11687307221E+02  0.51100000000E-03 0. -1.
        -11    1    3    3    0    0  0.58963036253E+01  0.44492738579E+00  0.91889131781E+01  0.10927052781E+02  0.51100000000E-03 0.  1.
         12    1    3    3    0    0  0.83085518424E+01  0.11255251512E+02  0.18916978872E+02  0.23527958049E+02  0.00000000000E+00 0. -1.
</event>
<event>
 7    1  0.4194672E-008  0.4614232E+02  0.7816164E-02  0.1320468E+00
        -11   -1    0    0    0    0  0.00000000000E+00  0.00000000000E+00  0.45593999997E+02  0.45594000000E+02  0.51100000000E-03 0.  1.
         11   -1    0    0    0    0 -0.00000000000E+00 -0.00000000000E+00 -0.45593999997E+02  0.45594000000E+02  0.51100000000E-03 0. -1.
    9900012    2    1    2    0    0 -0.13517557277E+02  0.61971388590E+01 -0.42520402661E+02  0.46142317330E+02  0.99999960679E+01 0.  0.
        -12    1    1    2    0    0  0.13517557277E+02 -0.61971388590E+01  0.42520402661E+02  0.45045682670E+02  0.00000000000E+00 0.  1.
         11    1    3    3    0    0 -0.34939406919E+00 -0.88844537406E+00 -0.98344711577E+01  0.98807001074E+01  0.51100000000E-03 0.  1.
        -11    1    3    3    0    0 -0.82867862440E+01  0.22768710344E+01 -0.14889564707E+02  0.17191687101E+02  0.51100000000E-03 0. -1.
        -12    1    3    3    0    0 -0.48813769638E+01  0.48087131987E+01 -0.17796366796E+02  0.19069930121E+02  0.00000000000E+00 0.  1.
</event>
<event>
 7    1  0.4194672E-008  0.4614232E+02  0.7816164E-02  0.1320468E+00
        -11   -1    0    0    0    0  0.00000000000E+00  0.00000000000E+00  0.45593999997E+02  0.45594000000E+02  0.51100000000E-03 0.  1.
         11   -1    0    0    0    0 -0.00000000000E+00 -0.00000000000E+00 -0.45593999997E+02  0.45594000000E+02  0.51100000000E-03 0. -1.
    9900012    2    1    2    0    0 -0.22324337589E+02  0.25361683271E+02 -0.29791314307E+02  0.46142318351E+02  0.10000005378E+02 0.  0.
        -12    1    1    2    0    0  0.22324337589E+02 -0.25361683271E+02  0.29791314307E+02  0.45045681649E+02  0.00000000000E+00 0.  1.
         11    1    3    3    0    0 -0.85872969184E+01  0.60628469275E+01 -0.70671670482E+01  0.12666674053E+02  0.51100000000E-03 0.  1.
        -11    1    3    3    0    0 -0.12114603161E+02  0.17845040659E+02 -0.17363842579E+02  0.27689566902E+02  0.51100000000E-03 0. -1.
         12    1    3    3    0    0 -0.16224375094E+01  0.14537956847E+01 -0.53603046795E+01  0.57860773951E+01  0.00000000000E+00 0. -1.
</event>
<event>
 7    1  0.4194672E-008  0.4614232E+02  0.7816164E-02  0.1320468E+00
        -11   -1    0    0    0    0  0.00000000000E+00  0.00000000000E+00  0.45593999997E+02  0.45594000000E+02  0.51100000000E-03 0. -1.
         11   -1    0    0    0    0 -0.00000000000E+00 -0.00000000000E+00 -0.45593999997E+02  0.45594000000E+02  0.51100000000E-03 0.  1.
    9900012    2    1    2    0    0  0.29444318007E+02 -0.20366728632E+02  0.27337556793E+02  0.46142317526E+02  0.99999978583E+01 0.  0.
        -12    1    1    2    0    0 -0.29444318007E+02  0.20366728632E+02 -0.27337556793E+02  0.45045682474E+02  0.00000000000E+00 0.  1.
         11    1    3    3    0    0  0.24402047486E+01 -0.24782727572E+01  0.48809748480E+01  0.59933588915E+01  0.51100000000E-03 0. -1.
        -11    1    3    3    0    0  0.16436065729E+02 -0.14220488529E+02  0.17543942969E+02  0.27931281493E+02  0.51100000000E-03 0.  1.
        -12    1    3    3    0    0  0.10568047529E+02 -0.36679673463E+01  0.49126389759E+01  0.12217677142E+02  0.00000000000E+00 0.  1.
</event>
<event>
 7    1  0.4194672E-008  0.4614232E+02  0.7816164E-02  0.1320468E+00
        -11   -1    0    0    0    0  0.00000000000E+00  0.00000000000E+00  0.45593999997E+02  0.45594000000E+02  0.51100000000E-03 0.  1.
         11   -1    0    0    0    0 -0.00000000000E+00 -0.00000000000E+00 -0.45593999997E+02  0.45594000000E+02  0.51100000000E-03 0. -1.
    9900012    2    1    2    0    0  0.10412700097E+02  0.85282507427E+01 -0.42987883400E+02  0.46142317596E+02  0.99999984963E+01 0.  0.
        -12    1    1    2    0    0 -0.10412700097E+02 -0.85282507427E+01  0.42987883400E+02  0.45045682404E+02  0.00000000000E+00 0.  1.
         11    1    3    3    0    0  0.75499755035E+01  0.58960432080E+01 -0.21250176822E+02  0.23309557500E+02  0.51100000000E-03 0. -1.
        -11    1    3    3    0    0  0.31641498519E+00  0.10781256661E+01 -0.18070825085E+02  0.18105722657E+02  0.51100000000E-03 0.  1.
        -12    1    3    3    0    0  0.25463096085E+01  0.15540818686E+01 -0.36668814919E+01  0.47270374393E+01  0.00000000000E+00 0.  1.
</event>
<event>
 7    1  0.4194672E-008  0.4614232E+02  0.7816164E-02  0.1320468E+00
        -11   -1    0    0    0    0  0.00000000000E+00  0.00000000000E+00  0.45593999997E+02  0.45594000000E+02  0.51100000000E-03 0.  1.
         11   -1    0    0    0    0 -0.00000000000E+00 -0.00000000000E+00 -0.45593999997E+02  0.45594000000E+02  0.51100000000E-03 0. -1.
    9900012    2    1    2    0    0  0.12724909238E+02 -0.18691320599E+02 -0.38959270240E+02  0.46142317426E+02  0.99999969487E+01 0.  0.
        -12    1    1    2    0    0 -0.12724909238E+02  0.18691320599E+02  0.38959270240E+02  0.45045682574E+02  0.00000000000E+00 0.  1.
         11    1    3    3    0    0  0.65844075657E+01 -0.84509102391E+01 -0.23171262972E+02  0.25528018623E+02  0.51100000000E-03 0. -1.
        -11    1    3    3    0    0 -0.16843684041E+00  0.53458541014E+00 -0.16971598147E+01  0.17873176068E+01  0.51100000000E-03 0.  1.
         12    1    3    3    0    0  0.63089385131E+01 -0.10774995770E+02 -0.14090847454E+02  0.18826981197E+02  0.00000000000E+00 0. -1.
</event>
<event>
 7    1  0.4194672E-008  0.4614232E+02  0.7816164E-02  0.1320468E+00
        -11   -1    0    0    0    0  0.00000000000E+00  0.00000000000E+00  0.45593999997E+02  0.45594000000E+02  0.51100000000E-03 0.  1.
         11   -1    0    0    0    0 -0.00000000000E+00 -0.00000000000E+00 -0.45593999997E+02  0.45594000000E+02  0.51100000000E-03 0. -1.
    9900012    2    1    2    0    0  0.35003121547E+02  0.38018861535E+01 -0.28096986905E+02  0.46142317304E+02  0.99999958342E+01 0.  0.
        -12    1    1    2    0    0 -0.35003121547E+02 -0.38018861535E+01  0.28096986905E+02  0.45045682696E+02  0.00000000000E+00 0.  1.
         11    1    3    3    0    0  0.27785822998E+01 -0.11745040406E+00 -0.38804670686E+01  0.47741322904E+01  0.51100000000E-03 0. -1.
        -11    1    3    3    0    0  0.31983156244E+01 -0.10872302225E+01 -0.23667215491E+00  0.33863411464E+01  0.51100000000E-03 0.  1.
         12    1    3    3    0    0  0.29026223623E+02  0.50065667801E+01 -0.23979847682E+02  0.37981843867E+02  0.00000000000E+00 0. -1.
</event>
<event>
 7    1  0.4194672E-008  0.4614232E+02  0.7816164E-02  0.1320468E+00
        -11   -1    0    0    0    0  0.00000000000E+00  0.00000000000E+00  0.45593999997E+02  0.45594000000E+02  0.51100000000E-03 0. -1.
         11   -1    0    0    0    0 -0.00000000000E+00 -0.00000000000E+00 -0.45593999997E+02  0.45594000000E+02  0.51100000000E-03 0.  1.
    9900012    2    1    2    0    0 -0.23843305409E+02 -0.30659879877E+02  0.22816266943E+02  0.46142317808E+02  0.10000000432E+02 0.  0.
        -12    1    1    2    0    0  0.23843305409E+02  0.30659879877E+02 -0.22816266943E+02  0.45045682192E+02  0.00000000000E+00 0.  1.
         11    1    3    3    0    0 -0.51233099012E+01 -0.95716931174E+01  0.89691676249E+01  0.14082314498E+02  0.51100000000E-03 0.  1.
        -11    1    3    3    0    0 -0.68189997659E+01 -0.11367057218E+02  0.86942956803E+01  0.15852429632E+02  0.51100000000E-03 0. -1.
        -12    1    3    3    0    0 -0.11900995742E+02 -0.97211295420E+01  0.51528036377E+01  0.16207573679E+02  0.00000000000E+00 0.  1.
</event>
<event>
 7    1  0.4194672E-008  0.4614231E+02  0.7816164E-02  0.1320468E+00
        -11   -1    0    0    0    0  0.00000000000E+00  0.00000000000E+00  0.45593999997E+02  0.45594000000E+02  0.51100000000E-03 0.  1.
         11   -1    0    0    0    0 -0.00000000000E+00 -0.00000000000E+00 -0.45593999997E+02  0.45594000000E+02  0.51100000000E-03 0. -1.
    9900012    2    1    2    0    0  0.12873100241E+02 -0.88034729394E+01 -0.42259865969E+02  0.46142310780E+02  0.99999363396E+01 0.  0.
        -12    1    1    2    0    0 -0.12873100241E+02  0.88034729394E+01  0.42259865969E+02  0.45045689220E+02  0.00000000000E+00 0.  1.
         11    1    3    3    0    0  0.26537405679E+01 -0.57833313996E+01 -0.12122527725E+02  0.13691053275E+02  0.51100000000E-03 0. -1.
        -11    1    3    3    0    0 -0.25895787399E+00 -0.13944674193E+01 -0.40536881244E+01  0.42946462293E+01  0.51100000000E-03 0.  1.
        -12    1    3    3    0    0  0.10478317547E+02 -0.16256741205E+01 -0.26083650120E+02  0.28156611275E+02  0.00000000000E+00 0.  1.
</event>
<event>
 7    1  0.4194672E-008  0.4614231E+02  0.7816164E-02  0.1320468E+00
        -11   -1    0    0    0    0  0.00000000000E+00  0.00000000000E+00  0.45593999997E+02  0.45594000000E+02  0.51100000000E-03 0.  1.
         11   -1    0    0    0    0 -0.00000000000E+00 -0.00000000000E+00 -0.45593999997E+02  0.45594000000E+02  0.51100000000E-03 0. -1.
    9900012    2    1    2    0    0  0.70909231516E+01  0.20222214730E+02 -0.39621897501E+02  0.46142312956E+02  0.99999561788E+01 0.  0.
        -12    1    1    2    0    0 -0.70909231516E+01 -0.20222214730E+02  0.39621897501E+02  0.45045687044E+02  0.00000000000E+00 0.  1.
         11    1    3    3    0    0 -0.81857311114E+00 -0.36619810494E+00 -0.67090722986E+00  0.11199463213E+01  0.51100000000E-03 0.  1.
        -11    1    3    3    0    0  0.51088331771E+01  0.80165013034E+01 -0.19497135694E+02  0.21691075817E+02  0.51100000000E-03 0. -1.
         12    1    3    3    0    0  0.28006630856E+01  0.12571911532E+02 -0.19453854577E+02  0.23331290817E+02  0.00000000000E+00 0. -1.
</event>
<event>
 7    1  0.4194672E-008  0.4614232E+02  0.7816164E-02  0.1320468E+00
        -11   -1    0    0    0    0  0.00000000000E+00  0.00000000000E+00  0.45593999997E+02  0.45594000000E+02  0.51100000000E-03 0.  1.
         11   -1    0    0    0    0 -0.00000000000E+00 -0.00000000000E+00 -0.45593999997E+02  0.45594000000E+02  0.51100000000E-03 0. -1.
    9900012    2    1    2    0    0 -0.18250895058E+02 -0.16503475240E+02 -0.37731334343E+02  0.46142318113E+02  0.10000003206E+02 0.  0.
        -12    1    1    2    0    0  0.18250895058E+02  0.16503475240E+02  0.37731334343E+02  0.45045681887E+02  0.00000000000E+00 0.  1.
         11    1    3    3    0    0 -0.85294739239E+01 -0.79075583068E+01 -0.15541022123E+02  0.19411459829E+02  0.51100000000E-03 0. -1.
        -11    1    3    3    0    0  0.56444233751E-01 -0.11052069869E+01 -0.74043145899E+01  0.74865575028E+01  0.51100000000E-03 0.  1.
        -12    1    3    3    0    0 -0.97778653678E+01 -0.74907099461E+01 -0.14785997630E+02  0.19244300781E+02  0.00000000000E+00 0.  1.
</event>
<event>
 7    1  0.4194672E-008  0.4614232E+02  0.7816164E-02  0.1320468E+00
        -11   -1    0    0    0    0  0.00000000000E+00  0.00000000000E+00  0.45593999997E+02  0.45594000000E+02  0.51100000000E-03 0.  1.
         11   -1    0    0    0    0 -0.00000000000E+00 -0.00000000000E+00 -0.45593999997E+02  0.45594000000E+02  0.51100000000E-03 0. -1.
    9900012    2    1    2    0    0 -0.18218982519E+02 -0.52943344046E+01 -0.40855259584E+02  0.46142317226E+02  0.99999951249E+01 0.  0.
        -12    1    1    2    0    0  0.18218982519E+02  0.52943344046E+01  0.40855259584E+02  0.45045682774E+02  0.00000000000E+00 0.  1.
         11    1    3    3    0    0 -0.11218853004E+02 -0.67640121940E+01 -0.31260474802E+02  0.33894421499E+02  0.51100000000E-03 0. -1.
        -11    1    3    3    0    0 -0.30414614795E+01 -0.65970367071E+00 -0.41520876715E+01  0.51889815144E+01  0.51100000000E-03 0.  1.
         12    1    3    3    0    0 -0.39586680352E+01  0.21293814601E+01 -0.54426971113E+01  0.70589142126E+01  0.00000000000E+00 0. -1.
</event>
<event>
 7    1  0.4194672E-008  0.4614232E+02  0.7816164E-02  0.1320468E+00
        -11   -1    0    0    0    0  0.00000000000E+00  0.00000000000E+00  0.45593999997E+02  0.45594000000E+02  0.51100000000E-03 0.  1.
         11   -1    0    0    0    0 -0.00000000000E+00 -0.00000000000E+00 -0.45593999997E+02  0.45594000000E+02  0.51100000000E-03 0. -1.
    9900012    2    1    2    0    0  0.97204215531E+01  0.22545086619E+02 -0.37766997888E+02  0.46142315908E+02  0.99999830991E+01 0.  0.
        -12    1    1    2    0    0 -0.97204215531E+01 -0.22545086619E+02  0.37766997888E+02  0.45045684092E+02  0.00000000000E+00 0.  1.
         11    1    3    3    0    0  0.33876060107E+01  0.98930097068E+01 -0.17911686380E+02  0.20740685254E+02  0.51100000000E-03 0. -1.
        -11    1    3    3    0    0  0.67511104832E+01  0.13229610465E+02 -0.19700281982E+02  0.24671870546E+02  0.51100000000E-03 0.  1.
        -12    1    3    3    0    0 -0.41829494082E+00 -0.57753355222E+00 -0.15502952607E+00  0.72976010812E+00  0.00000000000E+00 0.  1.
</event>
<event>
 7    1  0.4194672E-008  0.4614232E+02  0.7816164E-02  0.1320468E+00
        -11   -1    0    0    0    0  0.00000000000E+00  0.00000000000E+00  0.45593999997E+02  0.45594000000E+02  0.51100000000E-03 0. -1.
         11   -1    0    0    0    0 -0.00000000000E+00 -0.00000000000E+00 -0.45593999997E+02  0.45594000000E+02  0.51100000000E-03 0.  1.
    9900012    2    1    2    0    0 -0.16631599991E+02 -0.19525262742E+02  0.37030630821E+02  0.46142316273E+02  0.99999864299E+01 0.  0.
        -12    1    1    2    0    0  0.16631599991E+02  0.19525262742E+02 -0.37030630821E+02  0.45045683727E+02  0.00000000000E+00 0.  1.
         11    1    3    3    0    0 -0.75123456075E+01 -0.98419639936E+01  0.14065149696E+02  0.18738410499E+02  0.51100000000E-03 0. -1.
        -11    1    3    3    0    0 -0.97437197434E+01 -0.69539169617E+01  0.16759778466E+02  0.20595805642E+02  0.51100000000E-03 0.  1.
        -12    1    3    3    0    0  0.62446535934E+00 -0.27293817871E+01  0.62057026585E+01  0.68081001323E+01  0.00000000000E+00 0.  1.
</event>
<event>
 7    1  0.4194672E-008  0.4614232E+02  0.7816164E-02  0.1320468E+00
        -11   -1    0    0    0    0  0.00000000000E+00  0.00000000000E+00  0.45593999997E+02  0.45594000000E+02  0.51100000000E-03 0.  1.
         11   -1    0    0    0    0 -0.00000000000E+00 -0.00000000000E+00 -0.45593999997E+02  0.45594000000E+02  0.51100000000E-03 0. -1.
    9900012    2    1    2    0    0 -0.74431658175E+01  0.41183573445E+01 -0.44235187938E+02  0.46142318336E+02  0.10000005247E+02 0.  0.
        -12    1    1    2    0    0  0.74431658175E+01 -0.41183573445E+01  0.44235187938E+02  0.45045681664E+02  0.00000000000E+00 0.  1.
         11    1    3    3    0    0 -0.35038869541E-01  0.10864918486E+01 -0.44827256316E+00  0.11758574792E+01  0.51100000000E-03 0. -1.
        -11    1    3    3    0    0  0.44524578528E+00 -0.12534967821E+00 -0.13802904509E+02  0.13810652754E+02  0.51100000000E-03 0.  1.
         12    1    3    3    0    0 -0.78533727333E+01  0.31572151742E+01 -0.29984010866E+02  0.31155808103E+02  0.00000000000E+00 0. -1.
</event>
<event>
 7    1  0.4194672E-008  0.4614232E+02  0.7816164E-02  0.1320468E+00
        -11   -1    0    0    0    0  0.00000000000E+00  0.00000000000E+00  0.45593999997E+02  0.45594000000E+02  0.51100000000E-03 0.  1.
         11   -1    0    0    0    0 -0.00000000000E+00 -0.00000000000E+00 -0.45593999997E+02  0.45594000000E+02  0.51100000000E-03 0. -1.
    9900012    2    1    2    0    0  0.43043889539E+01  0.36321712426E+02 -0.26292945168E+02  0.46142317372E+02  0.99999964521E+01 0.  0.
        -12    1    1    2    0    0 -0.43043889539E+01 -0.36321712426E+02  0.26292945168E+02  0.45045682628E+02  0.00000000000E+00 0.  1.
         11    1    3    3    0    0  0.17847352435E+01  0.24817559713E+02 -0.20475109189E+02  0.32223076306E+02  0.51100000000E-03 0. -1.
        -11    1    3    3    0    0  0.10115722340E+01  0.10520457030E+02 -0.59232394790E+01  0.12115612271E+02  0.51100000000E-03 0.  1.
        -12    1    3    3    0    0  0.15080814764E+01  0.98369568179E+00  0.10540350012E+00  0.18036287954E+01  0.00000000000E+00 0.  1.
</event>
<event>
 7    1  0.4194672E-008  0.4614232E+02  0.7816164E-02  0.1320468E+00
        -11   -1    0    0    0    0  0.00000000000E+00  0.00000000000E+00  0.45593999997E+02  0.45594000000E+02  0.51100000000E-03 0.  1.
         11   -1    0    0    0    0 -0.00000000000E+00 -0.00000000000E+00 -0.45593999997E+02  0.45594000000E+02  0.51100000000E-03 0. -1.
    9900012    2    1    2    0    0  0.85355142088E+01  0.44151978841E+02 -0.26193939912E+01  0.46142318040E+02  0.10000002540E+02 0.  0.
        -12    1    1    2    0    0 -0.85355142088E+01 -0.44151978841E+02  0.26193939912E+01  0.45045681960E+02  0.00000000000E+00 0.  1.
         11    1    3    3    0    0 -0.85147629413E+00  0.22128310162E+01  0.12562590173E+01  0.26832480253E+01  0.51100000000E-03 0.  1.
        -11    1    3    3    0    0  0.22616640577E+01  0.21858444326E+02 -0.16961682899E+01  0.22040501351E+02  0.51100000000E-03 0. -1.
         12    1    3    3    0    0  0.71253264452E+01  0.20080703499E+02 -0.21794847185E+01  0.21418568663E+02  0.00000000000E+00 0. -1.
</event>
<event>
 7    1  0.4194672E-008  0.4614230E+02  0.7816164E-02  0.1320468E+00
        -11   -1    0    0    0    0  0.00000000000E+00  0.00000000000E+00  0.45593999997E+02  0.45594000000E+02  0.51100000000E-03 0. -1.
         11   -1    0    0    0    0 -0.00000000000E+00 -0.00000000000E+00 -0.45593999997E+02  0.45594000000E+02  0.51100000000E-03 0.  1.
    9900012    2    1    2    0    0  0.34211586984E+02 -0.27957528303E+02 -0.87783131084E+01  0.46142302605E+02  0.99998617927E+01 0.  0.
        -12    1    1    2    0    0 -0.34211586984E+02  0.27957528303E+02  0.87783131084E+01  0.45045697395E+02  0.00000000000E+00 0.  1.
         11    1    3    3    0    0  0.20853840964E+02 -0.14829955367E+02 -0.47409137639E+01  0.26024729062E+02  0.51100000000E-03 0. -1.
        -11    1    3    3    0    0  0.29037224883E+01 -0.86462891983E+00 -0.25041192835E+01  0.39306235008E+01  0.51100000000E-03 0.  1.
         12    1    3    3    0    0  0.10454023532E+02 -0.12262944015E+02 -0.15332800610E+01  0.16186950043E+02  0.00000000000E+00 0. -1.
</event>
<event>
 7    1  0.4194672E-008  0.4614232E+02  0.7816164E-02  0.1320468E+00
        -11   -1    0    0    0    0  0.00000000000E+00  0.00000000000E+00  0.45593999997E+02  0.45594000000E+02  0.51100000000E-03 0.  1.
         11   -1    0    0    0    0 -0.00000000000E+00 -0.00000000000E+00 -0.45593999997E+02  0.45594000000E+02  0.51100000000E-03 0. -1.
    9900012    2    1    2    0    0  0.80035089589E+01 -0.44069194197E+02  0.47920154085E+01  0.46142318248E+02  0.10000004443E+02 0.  0.
        -12    1    1    2    0    0 -0.80035089589E+01  0.44069194197E+02 -0.47920154085E+01  0.45045681752E+02  0.00000000000E+00 0.  1.
         11    1    3    3    0    0  0.29437602588E+01 -0.22191930078E+02  0.14474214302E+00  0.22386791543E+02  0.51100000000E-03 0. -1.
        -11    1    3    3    0    0  0.19545201299E+01 -0.10747555789E+01  0.77754485731E-01  0.22318813843E+01  0.51100000000E-03 0.  1.
         12    1    3    3    0    0  0.31052285702E+01 -0.20802508540E+02  0.45695187798E+01  0.21523645321E+02  0.00000000000E+00 0. -1.
</event>
<event>
 7    1  0.4194672E-008  0.4614232E+02  0.7816164E-02  0.1320468E+00
        -11   -1    0    0    0    0  0.00000000000E+00  0.00000000000E+00  0.45593999997E+02  0.45594000000E+02  0.51100000000E-03 0. -1.
         11   -1    0    0    0    0 -0.00000000000E+00 -0.00000000000E+00 -0.45593999997E+02  0.45594000000E+02  0.51100000000E-03 0.  1.
    9900012    2    1    2    0    0 -0.23282486230E+02  0.28902048508E+02  0.25528629681E+02  0.46142317561E+02  0.99999981730E+01 0.  0.
        -12    1    1    2    0    0  0.23282486230E+02 -0.28902048508E+02 -0.25528629681E+02  0.45045682439E+02  0.00000000000E+00 0.  1.
         11    1    3    3    0    0 -0.96556686067E+01  0.15634043509E+02  0.13315102932E+02  0.22692448502E+02  0.51100000000E-03 0. -1.
        -11    1    3    3    0    0 -0.10303267864E+02  0.11733559770E+02  0.70811040127E+01  0.17145722145E+02  0.51100000000E-03 0.  1.
        -12    1    3    3    0    0 -0.33235497595E+01  0.15344452287E+01  0.51324227365E+01  0.63041469137E+01  0.00000000000E+00 0.  1.
</event>
<event>
 7    1  0.4194672E-008  0.4614232E+02  0.7816164E-02  0.1320468E+00
        -11   -1    0    0    0    0  0.00000000000E+00  0.00000000000E+00  0.45593999997E+02  0.45594000000E+02  0.51100000000E-03 0.  1.
         11   -1    0    0    0    0 -0.00000000000E+00 -0.00000000000E+00 -0.45593999997E+02  0.45594000000E+02  0.51100000000E-03 0. -1.
    9900012    2    1    2    0    0  0.23634806360E+02 -0.86210711531E+00 -0.38337531147E+02  0.46142316579E+02  0.99999892240E+01 0.  0.
        -12    1    1    2    0    0 -0.23634806360E+02  0.86210711531E+00  0.38337531147E+02  0.45045683421E+02  0.00000000000E+00 0.  1.
         11    1    3    3    0    0  0.84279383488E+01  0.16905293084E+00 -0.18675672134E+02  0.20489984227E+02  0.51100000000E-03 0. -1.
        -11    1    3    3    0    0  0.43899045652E+01  0.19047443199E+01 -0.32739102743E+01  0.57980860429E+01  0.51100000000E-03 0.  1.
         12    1    3    3    0    0  0.10816963446E+02 -0.29359043661E+01 -0.16387948738E+02  0.19854246309E+02  0.00000000000E+00 0. -1.
</event>
<event>
 7    1  0.4194672E-008  0.4614232E+02  0.7816164E-02  0.1320468E+00
        -11   -1    0    0    0    0  0.00000000000E+00  0.00000000000E+00  0.45593999997E+02  0.45594000000E+02  0.51100000000E-03 0.  1.
         11   -1    0    0    0    0 -0.00000000000E+00 -0.00000000000E+00 -0.45593999997E+02  0.45594000000E+02  0.51100000000E-03 0. -1.
    9900012    2    1    2    0    0 -0.65589456205E+01  0.16733107544E+02 -0.41304925897E+02  0.46142316976E+02  0.99999928404E+01 0.  0.
        -12    1    1    2    0    0  0.65589456205E+01 -0.16733107544E+02  0.41304925897E+02  0.45045683024E+02  0.00000000000E+00 0.  1.
         11    1    3    3    0    0 -0.20192382802E+01  0.13778696496E+02 -0.33427878114E+02  0.36212606035E+02  0.51100000000E-03 0. -1.
        -11    1    3    3    0    0 -0.12901642604E+01 -0.42089113091E+00 -0.16332650147E+01  0.21234942977E+01  0.51100000000E-03 0.  1.
         12    1    3    3    0    0 -0.32495430798E+01  0.33753021788E+01 -0.62437827688E+01  0.78062166438E+01  0.00000000000E+00 0. -1.
</event>
<event>
 7    1  0.4194672E-008  0.4614232E+02  0.7816164E-02  0.1320468E+00
        -11   -1    0    0    0    0  0.00000000000E+00  0.00000000000E+00  0.45593999997E+02  0.45594000000E+02  0.51100000000E-03 0.  1.
         11   -1    0    0    0    0 -0.00000000000E+00 -0.00000000000E+00 -0.45593999997E+02  0.45594000000E+02  0.51100000000E-03 0. -1.
    9900012    2    1    2    0    0 -0.81634420404E+01 -0.14537818947E+02 -0.41846427786E+02  0.46142317808E+02  0.10000000432E+02 0.  0.
        -12    1    1    2    0    0  0.81634420404E+01  0.14537818947E+02  0.41846427786E+02  0.45045682192E+02  0.00000000000E+00 0.  1.
         11    1    3    3    0    0 -0.47972706151E+01 -0.66753017053E+01 -0.15020678003E+02  0.17122915235E+02  0.51100000000E-03 0. -1.
        -11    1    3    3    0    0 -0.48055329682E+01 -0.79004669214E+01 -0.19872554145E+02  0.21918689130E+02  0.51100000000E-03 0.  1.
        -12    1    3    3    0    0  0.14393615429E+01  0.37949679518E-01 -0.69531956375E+01  0.71007134432E+01  0.00000000000E+00 0.  1.
</event>
<event>
 7    1  0.4194672E-008  0.4614232E+02  0.7816164E-02  0.1320468E+00
        -11   -1    0    0    0    0  0.00000000000E+00  0.00000000000E+00  0.45593999997E+02  0.45594000000E+02  0.51100000000E-03 0. -1.
         11   -1    0    0    0    0 -0.00000000000E+00 -0.00000000000E+00 -0.45593999997E+02  0.45594000000E+02  0.51100000000E-03 0.  1.
    9900012    2    1    2    0    0 -0.27640149489E+02 -0.27842121239E+02  0.22134859044E+02  0.46142316924E+02  0.99999923656E+01 0.  0.
        -12    1    1    2    0    0  0.27640149489E+02  0.27842121239E+02 -0.22134859044E+02  0.45045683076E+02  0.00000000000E+00 0.  1.
         11    1    3    3    0    0 -0.15865916172E+02 -0.14924136168E+02  0.68487040110E+01  0.22833350241E+02  0.51100000000E-03 0.  1.
        -11    1    3    3    0    0 -0.57753238827E+01 -0.55509623393E+01  0.58547082941E+01  0.99219533517E+01  0.51100000000E-03 0. -1.
        -12    1    3    3    0    0 -0.59989094343E+01 -0.73670227322E+01  0.94314467392E+01  0.13387013331E+02  0.00000000000E+00 0.  1.
</event>
<event>
 7    1  0.4194672E-008  0.4614232E+02  0.7816164E-02  0.1320468E+00
        -11   -1    0    0    0    0  0.00000000000E+00  0.00000000000E+00  0.45593999997E+02  0.45594000000E+02  0.51100000000E-03 0.  1.
         11   -1    0    0    0    0 -0.00000000000E+00 -0.00000000000E+00 -0.45593999997E+02  0.45594000000E+02  0.51100000000E-03 0. -1.
    9900012    2    1    2    0    0 -0.94801933634E+01  0.37088863803E+02 -0.23741432420E+02  0.46142317657E+02  0.99999990501E+01 0.  0.
        -12    1    1    2    0    0  0.94801933634E+01 -0.37088863803E+02  0.23741432420E+02  0.45045682343E+02  0.00000000000E+00 0.  1.
         11    1    3    3    0    0 -0.30195092257E+01  0.88618690945E+01 -0.75708347714E+01  0.12040253287E+02  0.51100000000E-03 0. -1.
        -11    1    3    3    0    0 -0.18648879971E+01  0.82840856767E+01 -0.91075124397E+01  0.12451934221E+02  0.51100000000E-03 0.  1.
        -12    1    3    3    0    0 -0.45957961407E+01  0.19942909032E+02 -0.70630852089E+01  0.21650130149E+02  0.00000000000E+00 0.  1.
</event>
<event>
 7    1  0.4194672E-008  0.4614232E+02  0.7816164E-02  0.1320468E+00
        -11   -1    0    0    0    0  0.00000000000E+00  0.00000000000E+00  0.45593999997E+02  0.45594000000E+02  0.51100000000E-03 0.  1.
         11   -1    0    0    0    0 -0.00000000000E+00 -0.00000000000E+00 -0.45593999997E+02  0.45594000000E+02  0.51100000000E-03 0. -1.
    9900012    2    1    2    0    0 -0.81816892030E+01 -0.17252855436E+02 -0.40798437128E+02  0.46142317288E+02  0.99999956850E+01 0.  0.
        -12    1    1    2    0    0  0.81816892030E+01  0.17252855436E+02  0.40798437128E+02  0.45045682712E+02  0.00000000000E+00 0.  1.
         11    1    3    3    0    0 -0.86126199238E+00 -0.33838307206E+01 -0.11711010971E+02  0.12220468926E+02  0.51100000000E-03 0. -1.
        -11    1    3    3    0    0  0.15953034988E+01 -0.25008175318E+01 -0.41393884561E+01  0.50925061249E+01  0.51100000000E-03 0.  1.
         12    1    3    3    0    0 -0.89157307094E+01 -0.11368207184E+02 -0.24948037701E+02  0.28829342237E+02  0.00000000000E+00 0. -1.
</event>
<event>
 7    1  0.4194672E-008  0.4614232E+02  0.7816164E-02  0.1320468E+00
        -11   -1    0    0    0    0  0.00000000000E+00  0.00000000000E+00  0.45593999997E+02  0.45594000000E+02  0.51100000000E-03 0.  1.
         11   -1    0    0    0    0 -0.00000000000E+00 -0.00000000000E+00 -0.45593999997E+02  0.45594000000E+02  0.51100000000E-03 0. -1.
    9900012    2    1    2    0    0  0.36816630316E+02  0.13709843852E+02 -0.22038362291E+02  0.46142317646E+02  0.99999989493E+01 0.  0.
        -12    1    1    2    0    0 -0.36816630316E+02 -0.13709843852E+02  0.22038362291E+02  0.45045682354E+02  0.00000000000E+00 0.  1.
         11    1    3    3    0    0  0.17164139279E+02  0.90064616104E+01 -0.90803941809E+01  0.21405083197E+02  0.51100000000E-03 0. -1.
        -11    1    3    3    0    0  0.96097565873E+01  0.34581361981E+01 -0.32595325862E+01  0.10720572773E+02  0.51100000000E-03 0.  1.
         12    1    3    3    0    0  0.10042734450E+02  0.12452460435E+01 -0.96984355234E+01  0.14016661676E+02  0.00000000000E+00 0. -1.
</event>
<event>
 7    1  0.4194672E-008  0.4614232E+02  0.7816164E-02  0.1320468E+00
        -11   -1    0    0    0    0  0.00000000000E+00  0.00000000000E+00  0.45593999997E+02  0.45594000000E+02  0.51100000000E-03 0. -1.
         11   -1    0    0    0    0 -0.00000000000E+00 -0.00000000000E+00 -0.45593999997E+02  0.45594000000E+02  0.51100000000E-03 0.  1.
    9900012    2    1    2    0    0  0.54430340814E+01 -0.41172698049E+02  0.17444079477E+02  0.46142316595E+02  0.99999893662E+01 0.  0.
        -12    1    1    2    0    0 -0.54430340814E+01  0.41172698049E+02 -0.17444079477E+02  0.45045683405E+02  0.00000000000E+00 0.  1.
         11    1    3    3    0    0 -0.68821155751E+00 -0.11624317064E+02  0.50024516965E+01  0.12673709228E+02  0.51100000000E-03 0. -1.
        -11    1    3    3    0    0  0.59944916529E+01 -0.15370524288E+02  0.93269325879E+01  0.18952008306E+02  0.51100000000E-03 0.  1.
         12    1    3    3    0    0  0.13675398599E+00 -0.14177856697E+02  0.31146951925E+01  0.14516599061E+02  0.00000000000E+00 0. -1.
</event>
<event>
 7    1  0.4194672E-008  0.4614232E+02  0.7816164E-02  0.1320468E+00
        -11   -1    0    0    0    0  0.00000000000E+00  0.00000000000E+00  0.45593999997E+02  0.45594000000E+02  0.51100000000E-03 0.  1.
         11   -1    0    0    0    0 -0.00000000000E+00 -0.00000000000E+00 -0.45593999997E+02  0.45594000000E+02  0.51100000000E-03 0. -1.
    9900012    2    1    2    0    0  0.38853146309E+02  0.13515131893E+02 -0.18354500515E+02  0.46142318105E+02  0.10000003140E+02 0.  0.
        -12    1    1    2    0    0 -0.38853146309E+02 -0.13515131893E+02  0.18354500515E+02  0.45045681895E+02  0.00000000000E+00 0.  1.
         11    1    3    3    0    0  0.19505879405E+02  0.78195982487E+01 -0.98640380318E+01  0.23214751661E+02  0.51100000000E-03 0. -1.
        -11    1    3    3    0    0  0.20982744399E+01  0.29770973924E+01 -0.26884763160E+01  0.45270044921E+01  0.51100000000E-03 0.  1.
        -12    1    3    3    0    0  0.17248992464E+02  0.27184362523E+01 -0.58019861674E+01  0.18400561952E+02  0.00000000000E+00 0.  1.
</event>
<event>
 7    1  0.4194672E-008  0.4614232E+02  0.7816164E-02  0.1320468E+00
        -11   -1    0    0    0    0  0.00000000000E+00  0.00000000000E+00  0.45593999997E+02  0.45594000000E+02  0.51100000000E-03 0.  1.
         11   -1    0    0    0    0 -0.00000000000E+00 -0.00000000000E+00 -0.45593999997E+02  0.45594000000E+02  0.51100000000E-03 0. -1.
    9900012    2    1    2    0    0  0.36822271553E+02  0.24409201537E+02 -0.87991323635E+01  0.46142317273E+02  0.99999955505E+01 0.  0.
        -12    1    1    2    0    0 -0.36822271553E+02 -0.24409201537E+02  0.87991323635E+01  0.45045682727E+02  0.00000000000E+00 0.  1.
         11    1    3    3    0    0  0.20818753441E+02  0.13395845689E+02 -0.80872589821E+01  0.26043673602E+02  0.51100000000E-03 0. -1.
        -11    1    3    3    0    0  0.10558833256E+02  0.88632607429E+01 -0.24291416731E+01  0.13998109882E+02  0.51100000000E-03 0.  1.
        -12    1    3    3    0    0  0.54446848553E+01  0.21500951051E+01  0.17172682917E+01  0.61005337898E+01  0.00000000000E+00 0.  1.
</event>
<event>
 7    1  0.4194672E-008  0.4614231E+02  0.7816164E-02  0.1320468E+00
        -11   -1    0    0    0    0  0.00000000000E+00  0.00000000000E+00  0.45593999997E+02  0.45594000000E+02  0.51100000000E-03 0.  1.
         11   -1    0    0    0    0 -0.00000000000E+00 -0.00000000000E+00 -0.45593999997E+02  0.45594000000E+02  0.51100000000E-03 0. -1.
    9900012    2    1    2    0    0  0.16418619331E+02  0.29737595158E+02 -0.29584093356E+02  0.46142309793E+02  0.99999273385E+01 0.  0.
        -12    1    1    2    0    0 -0.16418619331E+02 -0.29737595158E+02  0.29584093356E+02  0.45045690207E+02  0.00000000000E+00 0.  1.
         11    1    3    3    0    0  0.86496171112E+01  0.15136214742E+02 -0.88583422473E+01  0.19554822948E+02  0.51100000000E-03 0.  1.
        -11    1    3    3    0    0  0.62821688282E+00  0.27177167859E+01 -0.34846938555E+01  0.44636008454E+01  0.51100000000E-03 0. -1.
        -12    1    3    3    0    0  0.71407853373E+01  0.11883663630E+02 -0.17241057253E+02  0.22123886000E+02  0.00000000000E+00 0.  1.
</event>
<event>
 7    1  0.4194672E-008  0.4614232E+02  0.7816164E-02  0.1320468E+00
        -11   -1    0    0    0    0  0.00000000000E+00  0.00000000000E+00  0.45593999997E+02  0.45594000000E+02  0.51100000000E-03 0. -1.
         11   -1    0    0    0    0 -0.00000000000E+00 -0.00000000000E+00 -0.45593999997E+02  0.45594000000E+02  0.51100000000E-03 0.  1.
    9900012    2    1    2    0    0 -0.14149676952E+02 -0.42357640318E+02  0.58932608155E+01  0.46142316808E+02  0.99999913122E+01 0.  0.
        -12    1    1    2    0    0  0.14149676952E+02  0.42357640318E+02 -0.58932608155E+01  0.45045683192E+02  0.00000000000E+00 0.  1.
         11    1    3    3    0    0 -0.80772402579E+01 -0.12678345003E+02  0.33733940556E+01  0.15406558017E+02  0.51100000000E-03 0. -1.
        -11    1    3    3    0    0  0.65914482159E+00 -0.44347633676E+01 -0.43428803520E-01  0.44836909287E+01  0.51100000000E-03 0.  1.
        -12    1    3    3    0    0 -0.67315815153E+01 -0.25244531947E+02  0.25632955635E+01  0.26252067863E+02  0.00000000000E+00 0.  1.
</event>
<event>
 7    1  0.4194672E-008  0.4614232E+02  0.7816164E-02  0.1320468E+00
        -11   -1    0    0    0    0  0.00000000000E+00  0.00000000000E+00  0.45593999997E+02  0.45594000000E+02  0.51100000000E-03 0. -1.
         11   -1    0    0    0    0 -0.00000000000E+00 -0.00000000000E+00 -0.45593999997E+02  0.45594000000E+02  0.51100000000E-03 0.  1.
    9900012    2    1    2    0    0  0.42838716380E+01  0.30821940262E+02  0.32569464302E+02  0.46142316937E+02  0.99999924851E+01 0.  0.
        -12    1    1    2    0    0 -0.42838716380E+01 -0.30821940262E+02 -0.32569464302E+02  0.45045683063E+02  0.00000000000E+00 0.  1.
         11    1    3    3    0    0  0.52396232467E+00  0.91272432618E+01  0.64248794724E+01  0.11174085313E+02  0.51100000000E-03 0. -1.
        -11    1    3    3    0    0  0.20024171083E+01  0.14078144952E+02  0.21793018811E+02  0.26021904402E+02  0.51100000000E-03 0.  1.
        -12    1    3    3    0    0  0.17574922051E+01  0.76165520484E+01  0.43515660183E+01  0.89463272223E+01  0.00000000000E+00 0.  1.
</event>
<event>
 7    1  0.4194672E-008  0.4614232E+02  0.7816164E-02  0.1320468E+00
        -11   -1    0    0    0    0  0.00000000000E+00  0.00000000000E+00  0.45593999997E+02  0.45594000000E+02  0.51100000000E-03 0. -1.
         11   -1    0    0    0    0 -0.00000000000E+00 -0.00000000000E+00 -0.45593999997E+02  0.45594000000E+02  0.51100000000E-03 0.  1.
    9900012    2    1    2    0    0 -0.25832840509E+02 -0.35024816994E+02  0.11620673237E+02  0.46142317624E+02  0.99999987509E+01 0.  0.
        -12    1    1    2    0    0  0.25832840509E+02  0.35024816994E+02 -0.11620673237E+02  0.45045682376E+02  0.00000000000E+00 0.  1.
         11    1    3    3    0    0 -0.18371695509E+02 -0.18209468899E+02  0.40759572680E+01  0.26186205937E+02  0.51100000000E-03 0. -1.
        -11    1    3    3    0    0 -0.12426413751E+01 -0.39421274175E+01  0.22842021624E+01  0.47225105551E+01  0.51100000000E-03 0.  1.
         12    1    3    3    0    0 -0.62185036248E+01 -0.12873220677E+02  0.52605138067E+01  0.15233601132E+02  0.00000000000E+00 0. -1.
</event>
<event>
 7    1  0.4194672E-008  0.4614232E+02  0.7816164E-02  0.1320468E+00
        -11   -1    0    0    0    0  0.00000000000E+00  0.00000000000E+00  0.45593999997E+02  0.45594000000E+02  0.51100000000E-03 0.  1.
         11   -1    0    0    0    0 -0.00000000000E+00 -0.00000000000E+00 -0.45593999997E+02  0.45594000000E+02  0.51100000000E-03 0. -1.
    9900012    2    1    2    0    0 -0.28655809452E+02 -0.18960226180E+02 -0.29128471871E+02  0.46142318013E+02  0.10000002298E+02 0.  0.
        -12    1    1    2    0    0  0.28655809452E+02  0.18960226180E+02  0.29128471871E+02  0.45045681987E+02  0.00000000000E+00 0.  1.
         11    1    3    3    0    0 -0.18214807920E+02 -0.66830188044E+01 -0.17137616184E+02  0.25887059637E+02  0.51100000000E-03 0. -1.
        -11    1    3    3    0    0 -0.75014958709E+01 -0.82750008355E+01 -0.96718541161E+01  0.14774736594E+02  0.51100000000E-03 0.  1.
         12    1    3    3    0    0 -0.29395056607E+01 -0.40022065397E+01 -0.23190015705E+01  0.54805217817E+01  0.00000000000E+00 0. -1.
</event>
<event>
 7    1  0.4194672E-008  0.4614232E+02  0.7816164E-02  0.1320468E+00
        -11   -1    0    0    0    0  0.00000000000E+00  0.00000000000E+00  0.45593999997E+02  0.45594000000E+02  0.51100000000E-03 0. -1.
         11   -1    0    0    0    0 -0.00000000000E+00 -0.00000000000E+00 -0.45593999997E+02  0.45594000000E+02  0.51100000000E-03 0.  1.
    9900012    2    1    2    0    0 -0.36584691194E+02 -0.22501473385E+02  0.13577830312E+02  0.46142318628E+02  0.10000007908E+02 0.  0.
        -12    1    1    2    0    0  0.36584691194E+02  0.22501473385E+02 -0.13577830312E+02  0.45045681372E+02  0.00000000000E+00 0.  1.
         11    1    3    3    0    0 -0.21214111585E+02 -0.13861324855E+02  0.86874965710E+01  0.26788942757E+02  0.51100000000E-03 0. -1.
        -11    1    3    3    0    0 -0.48039411106E+01 -0.32512138863E+01 -0.13424793804E+01  0.59540316658E+01  0.51100000000E-03 0.  1.
        -12    1    3    3    0    0 -0.10566638498E+02 -0.53889346434E+01  0.62328131215E+01  0.13399344206E+02  0.00000000000E+00 0.  1.
</event>
<event>
 7    1  0.4194672E-008  0.4614232E+02  0.7816164E-02  0.1320468E+00
        -11   -1    0    0    0    0  0.00000000000E+00  0.00000000000E+00  0.45593999997E+02  0.45594000000E+02  0.51100000000E-03 0.  1.
         11   -1    0    0    0    0 -0.00000000000E+00 -0.00000000000E+00 -0.45593999997E+02  0.45594000000E+02  0.51100000000E-03 0. -1.
    9900012    2    1    2    0    0 -0.27904430895E+00 -0.38125574757E+02 -0.23989082180E+02  0.46142318962E+02  0.10000010952E+02 0.  0.
        -12    1    1    2    0    0  0.27904430895E+00  0.38125574757E+02  0.23989082180E+02  0.45045681038E+02  0.00000000000E+00 0.  1.
         11    1    3    3    0    0 -0.20702187509E+01 -0.22097910353E+02 -0.94814793235E+01  0.24135076094E+02  0.51100000000E-03 0. -1.
        -11    1    3    3    0    0  0.10911638712E+01 -0.70785033966E+01 -0.40593687699E+01  0.82325162618E+01  0.51100000000E-03 0.  1.
        -12    1    3    3    0    0  0.70001057070E+00 -0.89491610081E+01 -0.10448234087E+02  0.13774726606E+02  0.00000000000E+00 0.  1.
</event>
<event>
 7    1  0.4194672E-008  0.4614232E+02  0.7816164E-02  0.1320468E+00
        -11   -1    0    0    0    0  0.00000000000E+00  0.00000000000E+00  0.45593999997E+02  0.45594000000E+02  0.51100000000E-03 0. -1.
         11   -1    0    0    0    0 -0.00000000000E+00 -0.00000000000E+00 -0.45593999997E+02  0.45594000000E+02  0.51100000000E-03 0.  1.
    9900012    2    1    2    0    0 -0.30521427751E+02 -0.32861557785E+02 -0.42040324471E+01  0.46142318511E+02  0.10000006840E+02 0.  0.
        -12    1    1    2    0    0  0.30521427751E+02  0.32861557785E+02  0.42040324471E+01  0.45045681489E+02  0.00000000000E+00 0.  1.
         11    1    3    3    0    0 -0.86510095086E+01 -0.90458930884E+01  0.22955955196E+01  0.12725482558E+02  0.51100000000E-03 0. -1.
        -11    1    3    3    0    0 -0.15422324270E+02 -0.14127460510E+02 -0.60414394585E+01  0.21769984321E+02  0.51100000000E-03 0.  1.
        -12    1    3    3    0    0 -0.64480939724E+01 -0.96882041866E+01 -0.45818850822E+00  0.11646851632E+02  0.00000000000E+00 0.  1.
</event>
<event>
 7    1  0.4194672E-008  0.4614232E+02  0.7816164E-02  0.1320468E+00
        -11   -1    0    0    0    0  0.00000000000E+00  0.00000000000E+00  0.45593999997E+02  0.45594000000E+02  0.51100000000E-03 0. -1.
         11   -1    0    0    0    0 -0.00000000000E+00 -0.00000000000E+00 -0.45593999997E+02  0.45594000000E+02  0.51100000000E-03 0.  1.
    9900012    2    1    2    0    0 -0.37747318430E+02 -0.61522610195E+01  0.23799228821E+02  0.46142315892E+02  0.99999829521E+01 0.  0.
        -12    1    1    2    0    0  0.37747318430E+02  0.61522610195E+01 -0.23799228821E+02  0.45045684108E+02  0.00000000000E+00 0.  1.
         11    1    3    3    0    0 -0.19958181331E+02 -0.59269355531E+01  0.10317506389E+02  0.23235931345E+02  0.51100000000E-03 0. -1.
        -11    1    3    3    0    0 -0.59668172218E+01  0.92063868405E-01  0.16819667244E+01  0.62000319223E+01  0.51100000000E-03 0.  1.
        -12    1    3    3    0    0 -0.11822319877E+02 -0.31738933475E+00  0.11799755707E+02  0.16706352624E+02  0.00000000000E+00 0.  1.
</event>
<event>
 7    1  0.4194672E-008  0.4614232E+02  0.7816164E-02  0.1320468E+00
        -11   -1    0    0    0    0  0.00000000000E+00  0.00000000000E+00  0.45593999997E+02  0.45594000000E+02  0.51100000000E-03 0.  1.
         11   -1    0    0    0    0 -0.00000000000E+00 -0.00000000000E+00 -0.45593999997E+02  0.45594000000E+02  0.51100000000E-03 0. -1.
    9900012    2    1    2    0    0  0.57792000295E+01  0.38271002264E+02 -0.23044407541E+02  0.46142317785E+02  0.10000000221E+02 0.  0.
        -12    1    1    2    0    0 -0.57792000295E+01 -0.38271002264E+02  0.23044407541E+02  0.45045682215E+02  0.00000000000E+00 0.  1.
         11    1    3    3    0    0 -0.13573909510E+00  0.11010110530E-01  0.43438927229E+00  0.45523688940E+00  0.51100000000E-03 0.  1.
        -11    1    3    3    0    0  0.32813464194E+01  0.16992664032E+02 -0.70628214366E+01  0.18692279479E+02  0.51100000000E-03 0. -1.
         12    1    3    3    0    0  0.26335927052E+01  0.21267328122E+02 -0.16415975377E+02  0.26994801417E+02  0.00000000000E+00 0. -1.
</event>
<event>
 7    1  0.4194672E-008  0.4614232E+02  0.7816164E-02  0.1320468E+00
        -11   -1    0    0    0    0  0.00000000000E+00  0.00000000000E+00  0.45593999997E+02  0.45594000000E+02  0.51100000000E-03 0.  1.
         11   -1    0    0    0    0 -0.00000000000E+00 -0.00000000000E+00 -0.45593999997E+02  0.45594000000E+02  0.51100000000E-03 0. -1.
    9900012    2    1    2    0    0  0.44804970396E+02 -0.25310920599E+01 -0.39015266721E+01  0.46142315306E+02  0.99999776083E+01 0.  0.
        -12    1    1    2    0    0 -0.44804970396E+02  0.25310920599E+01  0.39015266721E+01  0.45045684694E+02  0.00000000000E+00 0.  1.
         11    1    3    3    0    0  0.71356055607E+01  0.20207570969E+01 -0.75295334424E+00  0.74543453745E+01  0.51100000000E-03 0. -1.
        -11    1    3    3    0    0  0.29027166693E+02 -0.64875338731E+00 -0.31543543913E+01  0.29205260469E+02  0.51100000000E-03 0.  1.
        -12    1    3    3    0    0  0.86421981427E+01 -0.39030957695E+01  0.57810634311E-02  0.94827094622E+01  0.00000000000E+00 0.  1.
</event>
<event>
 7    1  0.4194672E-008  0.4614232E+02  0.7816164E-02  0.1320468E+00
        -11   -1    0    0    0    0  0.00000000000E+00  0.00000000000E+00  0.45593999997E+02  0.45594000000E+02  0.51100000000E-03 0.  1.
         11   -1    0    0    0    0 -0.00000000000E+00 -0.00000000000E+00 -0.45593999997E+02  0.45594000000E+02  0.51100000000E-03 0. -1.
    9900012    2    1    2    0    0  0.38030212830E+02 -0.22541314118E+02  0.86432421052E+01  0.46142316920E+02  0.99999923293E+01 0.  0.
        -12    1    1    2    0    0 -0.38030212830E+02  0.22541314118E+02 -0.86432421052E+01  0.45045683080E+02  0.00000000000E+00 0.  1.
         11    1    3    3    0    0  0.64247512837E+01 -0.29097026288E+01  0.21363102569E+00  0.70561630453E+01  0.51100000000E-03 0. -1.
        -11    1    3    3    0    0  0.14907584641E+01  0.87876400438E+00  0.38013912287E+00  0.17717485678E+01  0.51100000000E-03 0.  1.
        -12    1    3    3    0    0  0.30114703082E+02 -0.20510375494E+02  0.80494719567E+01  0.37314405307E+02  0.00000000000E+00 0.  1.
</event>
<event>
 7    1  0.4194672E-008  0.4614232E+02  0.7816164E-02  0.1320468E+00
        -11   -1    0    0    0    0  0.00000000000E+00  0.00000000000E+00  0.45593999997E+02  0.45594000000E+02  0.51100000000E-03 0.  1.
         11   -1    0    0    0    0 -0.00000000000E+00 -0.00000000000E+00 -0.45593999997E+02  0.45594000000E+02  0.51100000000E-03 0. -1.
    9900012    2    1    2    0    0 -0.92091994491E+00 -0.82308695257E+01 -0.44277736101E+02  0.46142320730E+02  0.10000027074E+02 0.  0.
        -12    1    1    2    0    0  0.92091994491E+00  0.82308695257E+01  0.44277736101E+02  0.45045679270E+02  0.00000000000E+00 0.  1.
         11    1    3    3    0    0 -0.62131718671E+00  0.55097532687E+00 -0.60514373821E+01  0.61081505800E+01  0.51100000000E-03 0. -1.
        -11    1    3    3    0    0 -0.18283633262E+01  0.72694354908E-01 -0.15313901114E+02  0.15422832571E+02  0.51100000000E-03 0.  1.
         12    1    3    3    0    0  0.15287605680E+01 -0.88545392075E+01 -0.22912397605E+02  0.24611337579E+02  0.00000000000E+00 0. -1.
</event>
<event>
 7    1  0.4194672E-008  0.4614232E+02  0.7816164E-02  0.1320468E+00
        -11   -1    0    0    0    0  0.00000000000E+00  0.00000000000E+00  0.45593999997E+02  0.45594000000E+02  0.51100000000E-03 0.  1.
         11   -1    0    0    0    0 -0.00000000000E+00 -0.00000000000E+00 -0.45593999997E+02  0.45594000000E+02  0.51100000000E-03 0. -1.
    9900012    2    1    2    0    0 -0.60337996961E+01 -0.41890118449E+00 -0.44637779060E+02  0.46142317229E+02  0.99999951441E+01 0.  0.
        -12    1    1    2    0    0  0.60337996961E+01  0.41890118449E+00  0.44637779060E+02  0.45045682771E+02  0.00000000000E+00 0.  1.
         11    1    3    3    0    0 -0.60555276988E-01 -0.10160721828E+01 -0.82385136877E+01  0.83011552006E+01  0.51100000000E-03 0. -1.
        -11    1    3    3    0    0  0.20763145921E+01 -0.14596842695E+00 -0.10697111197E+02  0.10897732667E+02  0.51100000000E-03 0.  1.
        -12    1    3    3    0    0 -0.80495590112E+01  0.74313942521E+00 -0.25702154175E+02  0.26943429361E+02  0.00000000000E+00 0.  1.
</event>
<event>
 7    1  0.4194672E-008  0.4614233E+02  0.7816164E-02  0.1320468E+00
        -11   -1    0    0    0    0  0.00000000000E+00  0.00000000000E+00  0.45593999997E+02  0.45594000000E+02  0.51100000000E-03 0.  1.
         11   -1    0    0    0    0 -0.00000000000E+00 -0.00000000000E+00 -0.45593999997E+02  0.45594000000E+02  0.51100000000E-03 0. -1.
    9900012    2    1    2    0    0  0.22543143682E+02 -0.44341896242E+01 -0.38746062706E+02  0.46142326069E+02  0.10000075757E+02 0.  0.
        -12    1    1    2    0    0 -0.22543143682E+02  0.44341896242E+01  0.38746062706E+02  0.45045673931E+02  0.00000000000E+00 0.  1.
         11    1    3    3    0    0  0.71351023877E+01 -0.97438145927E+00 -0.85164534235E+01  0.11152985452E+02  0.51100000000E-03 0. -1.
        -11    1    3    3    0    0  0.50132695412E+01 -0.41868334528E+01 -0.72545197030E+01  0.97616854199E+01  0.51100000000E-03 0.  1.
        -12    1    3    3    0    0  0.10394771753E+02  0.72702528782E+00 -0.22975089579E+02  0.25227655197E+02  0.00000000000E+00 0.  1.
</event>
<event>
 7    1  0.4194672E-008  0.4614232E+02  0.7816164E-02  0.1320468E+00
        -11   -1    0    0    0    0  0.00000000000E+00  0.00000000000E+00  0.45593999997E+02  0.45594000000E+02  0.51100000000E-03 0.  1.
         11   -1    0    0    0    0 -0.00000000000E+00 -0.00000000000E+00 -0.45593999997E+02  0.45594000000E+02  0.51100000000E-03 0. -1.
    9900012    2    1    2    0    0 -0.31243004377E+02  0.92107597693E+01 -0.31115109205E+02  0.46142318310E+02  0.10000005008E+02 0.  0.
        -12    1    1    2    0    0  0.31243004377E+02 -0.92107597693E+01  0.31115109205E+02  0.45045681690E+02  0.00000000000E+00 0.  1.
         11    1    3    3    0    0 -0.15130111782E+01  0.81529566030E+00 -0.16186567139E+01  0.23609234756E+01  0.51100000000E-03 0. -1.
        -11    1    3    3    0    0 -0.83503661091E+01  0.43972717837E+01 -0.14723809119E+02  0.17488715462E+02  0.51100000000E-03 0.  1.
         12    1    3    3    0    0 -0.21379627090E+02  0.39981923254E+01 -0.14772643373E+02  0.26292679372E+02  0.00000000000E+00 0. -1.
</event>
<event>
 7    1  0.4194672E-008  0.4614232E+02  0.7816164E-02  0.1320468E+00
        -11   -1    0    0    0    0  0.00000000000E+00  0.00000000000E+00  0.45593999997E+02  0.45594000000E+02  0.51100000000E-03 0.  1.
         11   -1    0    0    0    0 -0.00000000000E+00 -0.00000000000E+00 -0.45593999997E+02  0.45594000000E+02  0.51100000000E-03 0. -1.
    9900012    2    1    2    0    0 -0.15285817908E+02 -0.97053916752E+01 -0.41246363514E+02  0.46142319188E+02  0.10000013014E+02 0.  0.
        -12    1    1    2    0    0  0.15285817908E+02  0.97053916752E+01  0.41246363514E+02  0.45045680812E+02  0.00000000000E+00 0.  1.
         11    1    3    3    0    0 -0.22323885637E+01 -0.44764156340E+01 -0.56994042942E+01  0.75832094260E+01  0.51100000000E-03 0. -1.
        -11    1    3    3    0    0 -0.46676695695E+00  0.38408775917E+00 -0.22707218560E+00  0.64572195057E+00  0.51100000000E-03 0.  1.
        -12    1    3    3    0    0 -0.12586662387E+02 -0.56130638003E+01 -0.35319887034E+02  0.37913387812E+02  0.00000000000E+00 0.  1.
</event>
<event>
 7    1  0.4194672E-008  0.4614232E+02  0.7816164E-02  0.1320468E+00
        -11   -1    0    0    0    0  0.00000000000E+00  0.00000000000E+00  0.45593999997E+02  0.45594000000E+02  0.51100000000E-03 0. -1.
         11   -1    0    0    0    0 -0.00000000000E+00 -0.00000000000E+00 -0.45593999997E+02  0.45594000000E+02  0.51100000000E-03 0.  1.
    9900012    2    1    2    0    0 -0.24882945934E+02  0.13960833110E+02  0.34857534332E+02  0.46142316975E+02  0.99999928322E+01 0.  0.
        -12    1    1    2    0    0  0.24882945934E+02 -0.13960833110E+02 -0.34857534332E+02  0.45045683025E+02  0.00000000000E+00 0.  1.
         11    1    3    3    0    0 -0.12341043679E+01  0.36037341790E+01  0.40015607145E+01  0.55247083214E+01  0.51100000000E-03 0. -1.
        -11    1    3    3    0    0 -0.85164906693E+01  0.49756800846E+01  0.80912712350E+01  0.12757612476E+02  0.51100000000E-03 0.  1.
        -12    1    3    3    0    0 -0.15132350897E+02  0.53814188464E+01  0.22764702382E+02  0.27859996178E+02  0.00000000000E+00 0.  1.
</event>
<event>
 7    1  0.4194672E-008  0.4614231E+02  0.7816164E-02  0.1320468E+00
        -11   -1    0    0    0    0  0.00000000000E+00  0.00000000000E+00  0.45593999997E+02  0.45594000000E+02  0.51100000000E-03 0. -1.
         11   -1    0    0    0    0 -0.00000000000E+00 -0.00000000000E+00 -0.45593999997E+02  0.45594000000E+02  0.51100000000E-03 0.  1.
    9900012    2    1    2    0    0  0.66326104255E+01 -0.22285104910E+02  0.38581036644E+02  0.46142314186E+02  0.99999673985E+01 0.  0.
        -12    1    1    2    0    0 -0.66326104255E+01  0.22285104910E+02 -0.38581036644E+02  0.45045685814E+02  0.00000000000E+00 0.  1.
         11    1    3    3    0    0  0.22704712902E+01 -0.36987535654E+01  0.93179832324E+01  0.10279135645E+02  0.51100000000E-03 0. -1.
        -11    1    3    3    0    0  0.25477985083E+01 -0.67301319527E+00  0.26978718844E+01  0.37713044117E+01  0.51100000000E-03 0.  1.
        -12    1    3    3    0    0  0.18143406270E+01 -0.17913338150E+02  0.26565181527E+02  0.32091874130E+02  0.00000000000E+00 0.  1.
</event>
<event>
 7    1  0.4194672E-008  0.4614232E+02  0.7816164E-02  0.1320468E+00
        -11   -1    0    0    0    0  0.00000000000E+00  0.00000000000E+00  0.45593999997E+02  0.45594000000E+02  0.51100000000E-03 0.  1.
         11   -1    0    0    0    0 -0.00000000000E+00 -0.00000000000E+00 -0.45593999997E+02  0.45594000000E+02  0.51100000000E-03 0. -1.
    9900012    2    1    2    0    0  0.38156863823E+01  0.36582776327E+02 -0.26004892656E+02  0.46142318426E+02  0.10000006067E+02 0.  0.
        -12    1    1    2    0    0 -0.38156863823E+01 -0.36582776327E+02  0.26004892656E+02  0.45045681574E+02  0.00000000000E+00 0.  1.
         11    1    3    3    0    0  0.31882336541E+01  0.63827413831E+01 -0.70951829667E+01  0.10062099333E+02  0.51100000000E-03 0. -1.
        -11    1    3    3    0    0  0.28156505733E+01  0.94403866126E+01 -0.62520349248E+01  0.11667764503E+02  0.51100000000E-03 0.  1.
        -12    1    3    3    0    0 -0.21881978452E+01  0.20759648331E+02 -0.12657674765E+02  0.24412454590E+02  0.00000000000E+00 0.  1.
</event>
<event>
 7    1  0.4194672E-008  0.4614232E+02  0.7816164E-02  0.1320468E+00
        -11   -1    0    0    0    0  0.00000000000E+00  0.00000000000E+00  0.45593999997E+02  0.45594000000E+02  0.51100000000E-03 0. -1.
         11   -1    0    0    0    0 -0.00000000000E+00 -0.00000000000E+00 -0.45593999997E+02  0.45594000000E+02  0.51100000000E-03 0.  1.
    9900012    2    1    2    0    0  0.41078850942E+02 -0.69574747177E+01  0.17124107400E+02  0.46142317594E+02  0.99999984731E+01 0.  0.
        -12    1    1    2    0    0 -0.41078850942E+02  0.69574747177E+01 -0.17124107400E+02  0.45045682406E+02  0.00000000000E+00 0.  1.
         11    1    3    3    0    0  0.24003154210E+02  0.31163939150E+00  0.77625158877E+01  0.25229054368E+02  0.51100000000E-03 0. -1.
        -11    1    3    3    0    0  0.19521986165E+01 -0.93537620856E+00  0.31686873789E+00  0.21877875006E+01  0.51100000000E-03 0.  1.
        -12    1    3    3    0    0  0.15123498116E+02 -0.63337379007E+01  0.90447227747E+01  0.18725475725E+02  0.00000000000E+00 0.  1.
</event>
<event>
 7    1  0.4194672E-008  0.4614232E+02  0.7816164E-02  0.1320468E+00
        -11   -1    0    0    0    0  0.00000000000E+00  0.00000000000E+00  0.45593999997E+02  0.45594000000E+02  0.51100000000E-03 0.  1.
         11   -1    0    0    0    0 -0.00000000000E+00 -0.00000000000E+00 -0.45593999997E+02  0.45594000000E+02  0.51100000000E-03 0. -1.
    9900012    2    1    2    0    0 -0.13141312606E+02  0.37663933722E+02 -0.20924804002E+02  0.46142318487E+02  0.10000006619E+02 0.  0.
        -12    1    1    2    0    0  0.13141312606E+02 -0.37663933722E+02  0.20924804002E+02  0.45045681513E+02  0.00000000000E+00 0.  1.
         11    1    3    3    0    0  0.69024721620E+00  0.41690762274E+01 -0.17434637944E+01  0.45713569181E+01  0.51100000000E-03 0. -1.
        -11    1    3    3    0    0 -0.60928434229E+01  0.10365985430E+02 -0.95256939928E+01  0.15339988305E+02  0.51100000000E-03 0.  1.
         12    1    3    3    0    0 -0.77387163989E+01  0.23128872065E+02 -0.96556462152E+01  0.26230973263E+02  0.00000000000E+00 0. -1.
</event>
<event>
 7    1  0.4194672E-008  0.4614232E+02  0.7816164E-02  0.1320468E+00
        -11   -1    0    0    0    0  0.00000000000E+00  0.00000000000E+00  0.45593999997E+02  0.45594000000E+02  0.51100000000E-03 0. -1.
         11   -1    0    0    0    0 -0.00000000000E+00 -0.00000000000E+00 -0.45593999997E+02  0.45594000000E+02  0.51100000000E-03 0.  1.
    9900012    2    1    2    0    0  0.34146495965E+02  0.26901642317E+02 -0.11808132756E+02  0.46142317130E+02  0.99999942491E+01 0.  0.
        -12    1    1    2    0    0 -0.34146495965E+02 -0.26901642317E+02  0.11808132756E+02  0.45045682870E+02  0.00000000000E+00 0.  1.
         11    1    3    3    0    0  0.22425820967E+01  0.11766081852E+01 -0.57325164717E+00  0.25965744730E+01  0.51100000000E-03 0.  1.
        -11    1    3    3    0    0  0.47127538012E+01  0.89600513493E+01 -0.29457675286E+01  0.10543723971E+02  0.51100000000E-03 0. -1.
         12    1    3    3    0    0  0.27191160067E+02  0.16764982782E+02 -0.82891135799E+01  0.33002018687E+02  0.00000000000E+00 0. -1.
</event>
<event>
 7    1  0.4194672E-008  0.4614232E+02  0.7816164E-02  0.1320468E+00
        -11   -1    0    0    0    0  0.00000000000E+00  0.00000000000E+00  0.45593999997E+02  0.45594000000E+02  0.51100000000E-03 0.  1.
         11   -1    0    0    0    0 -0.00000000000E+00 -0.00000000000E+00 -0.45593999997E+02  0.45594000000E+02  0.51100000000E-03 0. -1.
    9900012    2    1    2    0    0  0.33463316441E+02  0.14994161188E+02 -0.26162856903E+02  0.46142317651E+02  0.99999989933E+01 0.  0.
        -12    1    1    2    0    0 -0.33463316441E+02 -0.14994161188E+02  0.26162856903E+02  0.45045682349E+02  0.00000000000E+00 0.  1.
         11    1    3    3    0    0  0.17286819297E+02  0.69093495972E+01 -0.92103427360E+01  0.20770258709E+02  0.51100000000E-03 0.  1.
        -11    1    3    3    0    0  0.11531557943E+02  0.83282579643E+01 -0.12912556312E+02  0.19211215997E+02  0.51100000000E-03 0. -1.
         12    1    3    3    0    0  0.46449392008E+01 -0.24344637310E+00 -0.40399578546E+01  0.61608429442E+01  0.00000000000E+00 0. -1.
</event>
<event>
 7    1  0.4194672E-008  0.4614232E+02  0.7816164E-02  0.1320468E+00
        -11   -1    0    0    0    0  0.00000000000E+00  0.00000000000E+00  0.45593999997E+02  0.45594000000E+02  0.51100000000E-03 0.  1.
         11   -1    0    0    0    0 -0.00000000000E+00 -0.00000000000E+00 -0.45593999997E+02  0.45594000000E+02  0.51100000000E-03 0. -1.
    9900012    2    1    2    0    0  0.20572818867E+02  0.44936177879E+01 -0.39820597769E+02  0.46142317813E+02  0.10000000478E+02 0.  0.
        -12    1    1    2    0    0 -0.20572818867E+02 -0.44936177879E+01  0.39820597769E+02  0.45045682187E+02  0.00000000000E+00 0.  1.
         11    1    3    3    0    0  0.17967539491E+02  0.51289066954E+01 -0.32709076100E+02  0.37669906010E+02  0.51100000000E-03 0. -1.
        -11    1    3    3    0    0  0.28425804084E+00  0.14259252637E+01 -0.17305722049E+01  0.22602977479E+01  0.51100000000E-03 0.  1.
        -12    1    3    3    0    0  0.23210213347E+01 -0.20612141713E+01 -0.53809494643E+01  0.62121140551E+01  0.00000000000E+00 0.  1.
</event>
<event>
 7    1  0.4194672E-008  0.4614232E+02  0.7816164E-02  0.1320468E+00
        -11   -1    0    0    0    0  0.00000000000E+00  0.00000000000E+00  0.45593999997E+02  0.45594000000E+02  0.51100000000E-03 0. -1.
         11   -1    0    0    0    0 -0.00000000000E+00 -0.00000000000E+00 -0.45593999997E+02  0.45594000000E+02  0.51100000000E-03 0.  1.
    9900012    2    1    2    0    0  0.83725715629E+01  0.41945688381E+02  0.14127025902E+02  0.46142316642E+02  0.99999897987E+01 0.  0.
        -12    1    1    2    0    0 -0.83725715629E+01 -0.41945688381E+02 -0.14127025902E+02  0.45045683358E+02  0.00000000000E+00 0.  1.
         11    1    3    3    0    0  0.31753544617E+01  0.31172848315E+02  0.10172402076E+02  0.32943999640E+02  0.51100000000E-03 0. -1.
        -11    1    3    3    0    0  0.23835485356E+01  0.61884521914E+01  0.41370920545E+01  0.78162507045E+01  0.51100000000E-03 0.  1.
         12    1    3    3    0    0  0.28136685656E+01  0.45843878743E+01 -0.18246822833E+00  0.53820662978E+01  0.00000000000E+00 0. -1.
</event>
<event>
 7    1  0.4194672E-008  0.4614232E+02  0.7816164E-02  0.1320468E+00
        -11   -1    0    0    0    0  0.00000000000E+00  0.00000000000E+00  0.45593999997E+02  0.45594000000E+02  0.51100000000E-03 0.  1.
         11   -1    0    0    0    0 -0.00000000000E+00 -0.00000000000E+00 -0.45593999997E+02  0.45594000000E+02  0.51100000000E-03 0. -1.
    9900012    2    1    2    0    0 -0.39722316231E+02 -0.18408703414E+02 -0.10600504718E+02  0.46142317982E+02  0.10000002017E+02 0.  0.
        -12    1    1    2    0    0  0.39722316231E+02  0.18408703414E+02  0.10600504718E+02  0.45045682018E+02  0.00000000000E+00 0.  1.
         11    1    3    3    0    0 -0.14525325056E+02 -0.85548051117E+01 -0.47322949467E+01  0.17508979816E+02  0.51100000000E-03 0. -1.
        -11    1    3    3    0    0 -0.12425661368E+02 -0.72007342536E+01 -0.76979546007E-01  0.14361530571E+02  0.51100000000E-03 0.  1.
         12    1    3    3    0    0 -0.12771329807E+02 -0.26531640486E+01 -0.57912302255E+01  0.14271807596E+02  0.00000000000E+00 0. -1.
</event>
<event>
 7    1  0.4194672E-008  0.4614232E+02  0.7816164E-02  0.1320468E+00
        -11   -1    0    0    0    0  0.00000000000E+00  0.00000000000E+00  0.45593999997E+02  0.45594000000E+02  0.51100000000E-03 0.  1.
         11   -1    0    0    0    0 -0.00000000000E+00 -0.00000000000E+00 -0.45593999997E+02  0.45594000000E+02  0.51100000000E-03 0. -1.
    9900012    2    1    2    0    0 -0.18908951094E+02  0.37679074530E+02  0.15869850642E+02  0.46142320426E+02  0.10000024297E+02 0.  0.
        -12    1    1    2    0    0  0.18908951094E+02 -0.37679074530E+02 -0.15869850642E+02  0.45045679574E+02  0.00000000000E+00 0.  1.
         11    1    3    3    0    0 -0.52613331385E+01  0.15347793708E+02  0.79540775716E+01  0.18069414721E+02  0.51100000000E-03 0. -1.
        -11    1    3    3    0    0 -0.60852640906E+01  0.13515398879E+02  0.17566293865E+01  0.14925890023E+02  0.51100000000E-03 0.  1.
         12    1    3    3    0    0 -0.75623538649E+01  0.88158819438E+01  0.61591436835E+01  0.13147015682E+02  0.00000000000E+00 0. -1.
</event>
<event>
 7    1  0.4194672E-008  0.4614231E+02  0.7816164E-02  0.1320468E+00
        -11   -1    0    0    0    0  0.00000000000E+00  0.00000000000E+00  0.45593999997E+02  0.45594000000E+02  0.51100000000E-03 0. -1.
         11   -1    0    0    0    0 -0.00000000000E+00 -0.00000000000E+00 -0.45593999997E+02  0.45594000000E+02  0.51100000000E-03 0.  1.
    9900012    2    1    2    0    0  0.37526109454E+02  0.24702417090E+02 -0.32704535626E+01  0.46142310225E+02  0.99999312767E+01 0.  0.
        -12    1    1    2    0    0 -0.37526109454E+02 -0.24702417090E+02  0.32704535626E+01  0.45045689775E+02  0.00000000000E+00 0.  1.
         11    1    3    3    0    0  0.93541722738E+01  0.92180670982E+01 -0.67923013767E+00  0.13150462113E+02  0.51100000000E-03 0. -1.
        -11    1    3    3    0    0  0.12070992069E+01  0.22846506190E+01 -0.14163072182E+01  0.29466325431E+01  0.51100000000E-03 0.  1.
        -12    1    3    3    0    0  0.26964837973E+02  0.13199699372E+02 -0.11749162067E+01  0.30045215568E+02  0.00000000000E+00 0.  1.
</event>
<event>
 7    1  0.4194672E-008  0.4614231E+02  0.7816164E-02  0.1320468E+00
        -11   -1    0    0    0    0  0.00000000000E+00  0.00000000000E+00  0.45593999997E+02  0.45594000000E+02  0.51100000000E-03 0. -1.
         11   -1    0    0    0    0 -0.00000000000E+00 -0.00000000000E+00 -0.45593999997E+02  0.45594000000E+02  0.51100000000E-03 0.  1.
    9900012    2    1    2    0    0 -0.35391753589E+02 -0.13360989130E+02  0.24454490038E+02  0.46142308357E+02  0.99999142419E+01 0.  0.
        -12    1    1    2    0    0  0.35391753589E+02  0.13360989130E+02 -0.24454490038E+02  0.45045691643E+02  0.00000000000E+00 0.  1.
         11    1    3    3    0    0 -0.16684274071E+02 -0.21581570452E+01  0.10633754651E+02  0.19902245636E+02  0.51100000000E-03 0. -1.
        -11    1    3    3    0    0 -0.42383894863E+01 -0.46602406033E+01  0.52189518968E+01  0.81804185150E+01  0.51100000000E-03 0.  1.
         12    1    3    3    0    0 -0.14469090032E+02 -0.65425914813E+01  0.86017834900E+01  0.18059644206E+02  0.00000000000E+00 0. -1.
</event>
<event>
 7    1  0.4194672E-008  0.4614232E+02  0.7816164E-02  0.1320468E+00
        -11   -1    0    0    0    0  0.00000000000E+00  0.00000000000E+00  0.45593999997E+02  0.45594000000E+02  0.51100000000E-03 0.  1.
         11   -1    0    0    0    0 -0.00000000000E+00 -0.00000000000E+00 -0.45593999997E+02  0.45594000000E+02  0.51100000000E-03 0. -1.
    9900012    2    1    2    0    0 -0.51982319630E+01 -0.97783702138E+01 -0.43663202537E+02  0.46142318794E+02  0.10000009416E+02 0.  0.
        -12    1    1    2    0    0  0.51982319630E+01  0.97783702138E+01  0.43663202537E+02  0.45045681206E+02  0.00000000000E+00 0.  1.
         11    1    3    3    0    0 -0.26307078326E+01 -0.84345616275E+01 -0.38025176767E+02  0.39038141887E+02  0.51100000000E-03 0. -1.
        -11    1    3    3    0    0 -0.14533065932E+01 -0.18721437828E+01 -0.53299700582E+01  0.58331469619E+01  0.51100000000E-03 0.  1.
        -12    1    3    3    0    0 -0.11142175372E+01  0.52833519651E+00 -0.30805571168E+00  0.12710299452E+01  0.00000000000E+00 0.  1.
</event>
<event>
 7    1  0.4194672E-008  0.4614232E+02  0.7816164E-02  0.1320468E+00
        -11   -1    0    0    0    0  0.00000000000E+00  0.00000000000E+00  0.45593999997E+02  0.45594000000E+02  0.51100000000E-03 0.  1.
         11   -1    0    0    0    0 -0.00000000000E+00 -0.00000000000E+00 -0.45593999997E+02  0.45594000000E+02  0.51100000000E-03 0. -1.
    9900012    2    1    2    0    0  0.15864369257E+02 -0.81483179630E+00 -0.42151764787E+02  0.46142318326E+02  0.10000005154E+02 0.  0.
        -12    1    1    2    0    0 -0.15864369257E+02  0.81483179630E+00  0.42151764787E+02  0.45045681674E+02  0.00000000000E+00 0.  1.
         11    1    3    3    0    0  0.78310380342E+01 -0.14119758051E+01 -0.96326545670E+01  0.12494273354E+02  0.51100000000E-03 0.  1.
        -11    1    3    3    0    0  0.59668356406E+01 -0.84606119898E+00 -0.20499649170E+02  0.21367137465E+02  0.51100000000E-03 0. -1.
        -12    1    3    3    0    0  0.20664955819E+01  0.14432052078E+01 -0.12019461051E+02  0.12280907508E+02  0.00000000000E+00 0.  1.
</event>
<event>
 7    1  0.4194672E-008  0.4614232E+02  0.7816164E-02  0.1320468E+00
        -11   -1    0    0    0    0  0.00000000000E+00  0.00000000000E+00  0.45593999997E+02  0.45594000000E+02  0.51100000000E-03 0.  1.
         11   -1    0    0    0    0 -0.00000000000E+00 -0.00000000000E+00 -0.45593999997E+02  0.45594000000E+02  0.51100000000E-03 0. -1.
    9900012    2    1    2    0    0 -0.27897135368E+02  0.24165231480E+02 -0.25824501414E+02  0.46142318215E+02  0.10000004142E+02 0.  0.
        -12    1    1    2    0    0  0.27897135368E+02 -0.24165231480E+02  0.25824501414E+02  0.45045681785E+02  0.00000000000E+00 0.  1.
         11    1    3    3    0    0 -0.41133860713E+01  0.37407071331E+01 -0.75960315368E+01  0.94134228735E+01  0.51100000000E-03 0. -1.
        -11    1    3    3    0    0 -0.22497981418E+02  0.16920962254E+02 -0.16261815898E+02  0.32510379697E+02  0.51100000000E-03 0.  1.
        -12    1    3    3    0    0 -0.12857678787E+01  0.35035620926E+01 -0.19666539786E+01  0.42185156449E+01  0.00000000000E+00 0.  1.
</event>
<event>
 7    1  0.4194672E-008  0.4614232E+02  0.7816164E-02  0.1320468E+00
        -11   -1    0    0    0    0  0.00000000000E+00  0.00000000000E+00  0.45593999997E+02  0.45594000000E+02  0.51100000000E-03 0.  1.
         11   -1    0    0    0    0 -0.00000000000E+00 -0.00000000000E+00 -0.45593999997E+02  0.45594000000E+02  0.51100000000E-03 0. -1.
    9900012    2    1    2    0    0  0.40745905517E+02  0.19067749940E+02  0.23033742499E+01  0.46142318331E+02  0.10000005193E+02 0.  0.
        -12    1    1    2    0    0 -0.40745905517E+02 -0.19067749940E+02 -0.23033742499E+01  0.45045681669E+02  0.00000000000E+00 0.  1.
         11    1    3    3    0    0  0.99939619192E+01  0.59966740231E+01 -0.16420741013E+01  0.11770122421E+02  0.51100000000E-03 0. -1.
        -11    1    3    3    0    0  0.12471284897E+01  0.25044107651E+01  0.51999945160E+00  0.28456637962E+01  0.51100000000E-03 0.  1.
         12    1    3    3    0    0  0.29504815108E+02  0.10566665151E+02  0.34254488995E+01  0.31526532114E+02  0.00000000000E+00 0. -1.
</event>
<event>
 7    1  0.4194672E-008  0.4614232E+02  0.7816164E-02  0.1320468E+00
        -11   -1    0    0    0    0  0.00000000000E+00  0.00000000000E+00  0.45593999997E+02  0.45594000000E+02  0.51100000000E-03 0. -1.
         11   -1    0    0    0    0 -0.00000000000E+00 -0.00000000000E+00 -0.45593999997E+02  0.45594000000E+02  0.51100000000E-03 0.  1.
    9900012    2    1    2    0    0  0.29814382825E+01  0.43435184947E+02  0.11558944166E+02  0.46142318122E+02  0.10000003288E+02 0.  0.
        -12    1    1    2    0    0 -0.29814382825E+01 -0.43435184947E+02 -0.11558944166E+02  0.45045681878E+02  0.00000000000E+00 0.  1.
         11    1    3    3    0    0 -0.57411969420E+00  0.81034860023E+01  0.88413828025E-01  0.81242794191E+01  0.51100000000E-03 0. -1.
        -11    1    3    3    0    0 -0.28965684513E+00  0.41900097158E+01 -0.88965652041E+00  0.42932006117E+01  0.51100000000E-03 0.  1.
         12    1    3    3    0    0  0.38452148219E+01  0.31141689229E+02  0.12360186858E+02  0.33724838091E+02  0.00000000000E+00 0. -1.
</event>
<event>
 7    1  0.4194672E-008  0.4614231E+02  0.7816164E-02  0.1320468E+00
        -11   -1    0    0    0    0  0.00000000000E+00  0.00000000000E+00  0.45593999997E+02  0.45594000000E+02  0.51100000000E-03 0.  1.
         11   -1    0    0    0    0 -0.00000000000E+00 -0.00000000000E+00 -0.45593999997E+02  0.45594000000E+02  0.51100000000E-03 0. -1.
    9900012    2    1    2    0    0 -0.45033275572E+02 -0.19676561842E+00 -0.10388265203E+01  0.46142314458E+02  0.99999698771E+01 0.  0.
        -12    1    1    2    0    0  0.45033275572E+02  0.19676561842E+00  0.10388265203E+01  0.45045685542E+02  0.00000000000E+00 0.  1.
         11    1    3    3    0    0 -0.97514661697E+01 -0.25238767267E+01  0.27462194009E+00  0.10076530338E+02  0.51100000000E-03 0. -1.
        -11    1    3    3    0    0 -0.69514836946E+01  0.11568536036E+01  0.24539187789E+01  0.74621145429E+01  0.51100000000E-03 0.  1.
         12    1    3    3    0    0 -0.28330325707E+02  0.11702575047E+01 -0.37673672393E+01  0.28603669576E+02  0.00000000000E+00 0. -1.
</event>
<event>
 7    1  0.4349376E-008  0.4614232E+02  0.7816164E-02  0.1320468E+00
        -11   -1    0    0    0    0  0.00000000000E+00  0.00000000000E+00  0.45593999997E+02  0.45594000000E+02  0.51100000000E-03 0.  1.
         11   -1    0    0    0    0 -0.00000000000E+00 -0.00000000000E+00 -0.45593999997E+02  0.45594000000E+02  0.51100000000E-03 0. -1.
    9900012    2    1    2    0    0  0.68002269665E+01  0.43032821096E+02 -0.11447560494E+02  0.46142318526E+02  0.10000006971E+02 0.  0.
        -12    1    1    2    0    0 -0.68002269665E+01 -0.43032821096E+02  0.11447560494E+02  0.45045681474E+02  0.00000000000E+00 0.  1.
         11    1    3    3    0    0  0.33923879827E+01  0.24847250354E+02 -0.74295212591E+01  0.26155151171E+02  0.51100000000E-03 0. -1.
        -11    1    3    3    0    0  0.20629275465E+01  0.17589796593E+02 -0.47611275330E+01  0.18339164372E+02  0.51100000000E-03 0.  1.
        -12    1    3    3    0    0  0.13449114373E+01  0.59577414952E+00  0.74308829837E+00  0.16480029826E+01  0.00000000000E+00 0.  1.
</event>
<event>
 7    1  0.4194672E-008  0.4614232E+02  0.7816164E-02  0.1320468E+00
        -11   -1    0    0    0    0  0.00000000000E+00  0.00000000000E+00  0.45593999997E+02  0.45594000000E+02  0.51100000000E-03 0.  1.
         11   -1    0    0    0    0 -0.00000000000E+00 -0.00000000000E+00 -0.45593999997E+02  0.45594000000E+02  0.51100000000E-03 0. -1.
    9900012    2    1    2    0    0  0.31989767052E+01 -0.33553061550E+02 -0.29884311979E+02  0.46142317700E+02  0.99999994448E+01 0.  0.
        -12    1    1    2    0    0 -0.31989767052E+01  0.33553061550E+02  0.29884311979E+02  0.45045682300E+02  0.00000000000E+00 0.  1.
         11    1    3    3    0    0  0.80078812071E+00 -0.18638160481E+01 -0.28360794686E+01  0.34868924401E+01  0.51100000000E-03 0. -1.
        -11    1    3    3    0    0  0.22102113285E+01 -0.21186426408E+01 -0.46138786135E+01  0.55372878630E+01  0.51100000000E-03 0.  1.
         12    1    3    3    0    0  0.18797725599E+00 -0.29570602862E+02 -0.22434353897E+02  0.37118137397E+02  0.00000000000E+00 0. -1.
</event>
<event>
 7    1  0.4194672E-008  0.4614232E+02  0.7816164E-02  0.1320468E+00
        -11   -1    0    0    0    0  0.00000000000E+00  0.00000000000E+00  0.45593999997E+02  0.45594000000E+02  0.51100000000E-03 0.  1.
         11   -1    0    0    0    0 -0.00000000000E+00 -0.00000000000E+00 -0.45593999997E+02  0.45594000000E+02  0.51100000000E-03 0. -1.
    9900012    2    1    2    0    0 -0.86122457622E+01 -0.38591801203E+02 -0.21578129482E+02  0.46142316864E+02  0.99999918227E+01 0.  0.
        -12    1    1    2    0    0  0.86122457622E+01  0.38591801203E+02  0.21578129482E+02  0.45045683136E+02  0.00000000000E+00 0.  1.
         11    1    3    3    0    0 -0.78526430110E+01 -0.15980042771E+02 -0.87447497057E+01  0.19836744111E+02  0.51100000000E-03 0. -1.
        -11    1    3    3    0    0 -0.10206672378E+01 -0.22202489099E+01 -0.57041750360E+00  0.25093113043E+01  0.51100000000E-03 0.  1.
         12    1    3    3    0    0  0.26106448659E+00 -0.20391509522E+02 -0.12262962273E+02  0.23796261449E+02  0.00000000000E+00 0. -1.
</event>
<event>
 7    1  0.4194672E-008  0.4614232E+02  0.7816164E-02  0.1320468E+00
        -11   -1    0    0    0    0  0.00000000000E+00  0.00000000000E+00  0.45593999997E+02  0.45594000000E+02  0.51100000000E-03 0.  1.
         11   -1    0    0    0    0 -0.00000000000E+00 -0.00000000000E+00 -0.45593999997E+02  0.45594000000E+02  0.51100000000E-03 0. -1.
    9900012    2    1    2    0    0 -0.92100032183E+01  0.16675242391E+02 -0.40819426596E+02  0.46142318123E+02  0.10000003303E+02 0.  0.
        -12    1    1    2    0    0  0.92100032183E+01 -0.16675242391E+02  0.40819426596E+02  0.45045681877E+02  0.00000000000E+00 0.  1.
         11    1    3    3    0    0 -0.10382804554E+01  0.54012607991E+01 -0.70114069024E+01  0.89113114375E+01  0.51100000000E-03 0.  1.
        -11    1    3    3    0    0  0.21418266216E+00  0.51145100975E+01 -0.95438057617E+01  0.10829973058E+02  0.51100000000E-03 0. -1.
        -12    1    3    3    0    0 -0.83859054251E+01  0.61594714948E+01 -0.24264213932E+02  0.26401033628E+02  0.00000000000E+00 0.  1.
</event>
<event>
 7    1  0.4194672E-008  0.4614232E+02  0.7816164E-02  0.1320468E+00
        -11   -1    0    0    0    0  0.00000000000E+00  0.00000000000E+00  0.45593999997E+02  0.45594000000E+02  0.51100000000E-03 0. -1.
         11   -1    0    0    0    0 -0.00000000000E+00 -0.00000000000E+00 -0.45593999997E+02  0.45594000000E+02  0.51100000000E-03 0.  1.
    9900012    2    1    2    0    0 -0.87694083139E+01  0.38329024998E+01  0.44017269868E+02  0.46142315297E+02  0.99999775265E+01 0.  0.
        -12    1    1    2    0    0  0.87694083139E+01 -0.38329024998E+01 -0.44017269868E+02  0.45045684703E+02  0.00000000000E+00 0.  1.
         11    1    3    3    0    0 -0.95541996152E+00 -0.16247430908E+01  0.21268894772E+01  0.28418790480E+01  0.51100000000E-03 0. -1.
        -11    1    3    3    0    0 -0.37436670478E+01  0.22564728195E+01  0.90048192978E+01  0.10009669495E+02  0.51100000000E-03 0.  1.
         12    1    3    3    0    0 -0.40703213045E+01  0.32011727712E+01  0.32885561093E+02  0.33290766754E+02  0.00000000000E+00 0. -1.
</event>
<event>
 7    1  0.4194672E-008  0.4614232E+02  0.7816164E-02  0.1320468E+00
        -11   -1    0    0    0    0  0.00000000000E+00  0.00000000000E+00  0.45593999997E+02  0.45594000000E+02  0.51100000000E-03 0.  1.
         11   -1    0    0    0    0 -0.00000000000E+00 -0.00000000000E+00 -0.45593999997E+02  0.45594000000E+02  0.51100000000E-03 0. -1.
    9900012    2    1    2    0    0  0.10349784487E+02 -0.10683494484E+02 -0.42518916513E+02  0.46142319244E+02  0.10000013520E+02 0.  0.
        -12    1    1    2    0    0 -0.10349784487E+02  0.10683494484E+02  0.42518916513E+02  0.45045680756E+02  0.00000000000E+00 0.  1.
         11    1    3    3    0    0  0.24230193403E+01 -0.48556239848E+01 -0.81913332974E+01  0.98257848773E+01  0.51100000000E-03 0. -1.
        -11    1    3    3    0    0  0.12512684016E+01  0.92768167298E+00 -0.11306961572E+02  0.11413748120E+02  0.51100000000E-03 0.  1.
        -12    1    3    3    0    0  0.66754967454E+01 -0.67555521727E+01 -0.23020621644E+02  0.24902786246E+02  0.00000000000E+00 0.  1.
</event>
<event>
 7    1  0.4194672E-008  0.4614231E+02  0.7816164E-02  0.1320468E+00
        -11   -1    0    0    0    0  0.00000000000E+00  0.00000000000E+00  0.45593999997E+02  0.45594000000E+02  0.51100000000E-03 0.  1.
         11   -1    0    0    0    0 -0.00000000000E+00 -0.00000000000E+00 -0.45593999997E+02  0.45594000000E+02  0.51100000000E-03 0. -1.
    9900012    2    1    2    0    0 -0.10523542362E+02  0.39984021778E+02 -0.17878673158E+02  0.46142313244E+02  0.99999588095E+01 0.  0.
        -12    1    1    2    0    0  0.10523542362E+02 -0.39984021778E+02  0.17878673158E+02  0.45045686756E+02  0.00000000000E+00 0.  1.
         11    1    3    3    0    0 -0.86113875316E+00  0.65405021288E+01 -0.40132904458E+01  0.77218021545E+01  0.51100000000E-03 0. -1.
        -11    1    3    3    0    0  0.86768760030E+00  0.87521051059E+01 -0.17380354642E+01  0.89650986103E+01  0.51100000000E-03 0.  1.
         12    1    3    3    0    0 -0.10530091210E+02  0.24691414544E+02 -0.12127347248E+02  0.29455412479E+02  0.00000000000E+00 0. -1.
</event>
<event>
 7    1  0.4194672E-008  0.4614232E+02  0.7816164E-02  0.1320468E+00
        -11   -1    0    0    0    0  0.00000000000E+00  0.00000000000E+00  0.45593999997E+02  0.45594000000E+02  0.51100000000E-03 0.  1.
         11   -1    0    0    0    0 -0.00000000000E+00 -0.00000000000E+00 -0.45593999997E+02  0.45594000000E+02  0.51100000000E-03 0. -1.
    9900012    2    1    2    0    0  0.68431733712E+01 -0.22649090811E+02 -0.38331489210E+02  0.46142318726E+02  0.10000008803E+02 0.  0.
        -12    1    1    2    0    0 -0.68431733712E+01  0.22649090811E+02  0.38331489210E+02  0.45045681274E+02  0.00000000000E+00 0.  1.
         11    1    3    3    0    0  0.25699064339E+01 -0.93434634272E+01 -0.18834241021E+02  0.21180966998E+02  0.51100000000E-03 0. -1.
        -11    1    3    3    0    0  0.23052037375E+01 -0.45296989807E+01 -0.12726196623E+02  0.13703584125E+02  0.51100000000E-03 0.  1.
         12    1    3    3    0    0  0.19680631998E+01 -0.87759284026E+01 -0.67710515659E+01  0.11257767603E+02  0.00000000000E+00 0. -1.
</event>
<event>
 7    1  0.4194672E-008  0.4614232E+02  0.7816164E-02  0.1320468E+00
        -11   -1    0    0    0    0  0.00000000000E+00  0.00000000000E+00  0.45593999997E+02  0.45594000000E+02  0.51100000000E-03 0.  1.
         11   -1    0    0    0    0 -0.00000000000E+00 -0.00000000000E+00 -0.45593999997E+02  0.45594000000E+02  0.51100000000E-03 0. -1.
    9900012    2    1    2    0    0 -0.42979615703E+02 -0.79532809306E+01 -0.10890890063E+02  0.46142317300E+02  0.99999957996E+01 0.  0.
        -12    1    1    2    0    0  0.42979615703E+02  0.79532809306E+01  0.10890890063E+02  0.45045682700E+02  0.00000000000E+00 0.  1.
         11    1    3    3    0    0 -0.58455351871E+01  0.68163374899E+00 -0.20733860280E+00  0.58887940827E+01  0.51100000000E-03 0. -1.
        -11    1    3    3    0    0 -0.13479858881E+01 -0.62876817500E+00  0.96985035831E+00  0.17756760265E+01  0.51100000000E-03 0.  1.
        -12    1    3    3    0    0 -0.35786094627E+02 -0.80061465046E+01 -0.11653401818E+02  0.38477847191E+02  0.00000000000E+00 0.  1.
</event>
<event>
 7    1  0.4194672E-008  0.4614232E+02  0.7816164E-02  0.1320468E+00
        -11   -1    0    0    0    0  0.00000000000E+00  0.00000000000E+00  0.45593999997E+02  0.45594000000E+02  0.51100000000E-03 0.  1.
         11   -1    0    0    0    0 -0.00000000000E+00 -0.00000000000E+00 -0.45593999997E+02  0.45594000000E+02  0.51100000000E-03 0. -1.
    9900012    2    1    2    0    0  0.25730483440E+02  0.32312624413E+02 -0.17970816692E+02  0.46142315111E+02  0.99999758358E+01 0.  0.
        -12    1    1    2    0    0 -0.25730483440E+02 -0.32312624413E+02  0.17970816692E+02  0.45045684889E+02  0.00000000000E+00 0.  1.
         11    1    3    3    0    0  0.51981198809E+01  0.26233812072E+01 -0.18527452706E+01  0.61102573230E+01  0.51100000000E-03 0.  1.
        -11    1    3    3    0    0  0.68862369188E+01  0.94507964820E+01 -0.85179671682E+01  0.14466982339E+02  0.51100000000E-03 0. -1.
        -12    1    3    3    0    0  0.13646126640E+02  0.20238446724E+02 -0.76001042534E+01  0.25565075449E+02  0.00000000000E+00 0.  1.
</event>
<event>
 7    1  0.4194672E-008  0.4614232E+02  0.7816164E-02  0.1320468E+00
        -11   -1    0    0    0    0  0.00000000000E+00  0.00000000000E+00  0.45593999997E+02  0.45594000000E+02  0.51100000000E-03 0.  1.
         11   -1    0    0    0    0 -0.00000000000E+00 -0.00000000000E+00 -0.45593999997E+02  0.45594000000E+02  0.51100000000E-03 0. -1.
    9900012    2    1    2    0    0  0.29275772172E+02  0.13172354498E+02 -0.31599553007E+02  0.46142317526E+02  0.99999978579E+01 0.  0.
        -12    1    1    2    0    0 -0.29275772172E+02 -0.13172354498E+02  0.31599553007E+02  0.45045682474E+02  0.00000000000E+00 0.  1.
         11    1    3    3    0    0  0.17834112670E+02  0.47196311662E+01 -0.14537266738E+02  0.23487499176E+02  0.51100000000E-03 0.  1.
        -11    1    3    3    0    0  0.20097633899E+01  0.31751792854E+01 -0.66999049589E+01  0.76817731741E+01  0.51100000000E-03 0. -1.
         12    1    3    3    0    0  0.94318961121E+01  0.52775440468E+01 -0.10362381310E+02  0.14973045176E+02  0.00000000000E+00 0. -1.
</event>
<event>
 7    1  0.4194672E-008  0.4614232E+02  0.7816164E-02  0.1320468E+00
        -11   -1    0    0    0    0  0.00000000000E+00  0.00000000000E+00  0.45593999997E+02  0.45594000000E+02  0.51100000000E-03 0. -1.
         11   -1    0    0    0    0 -0.00000000000E+00 -0.00000000000E+00 -0.45593999997E+02  0.45594000000E+02  0.51100000000E-03 0.  1.
    9900012    2    1    2    0    0 -0.31668001101E+02 -0.31761056270E+02 -0.41816197464E+01  0.46142323928E+02  0.10000056234E+02 0.  0.
        -12    1    1    2    0    0  0.31668001101E+02  0.31761056270E+02  0.41816197464E+01  0.45045676072E+02  0.00000000000E+00 0.  1.
         11    1    3    3    0    0 -0.18170476689E+02 -0.16727258268E+02  0.24565789996E+01  0.24819391067E+02  0.51100000000E-03 0. -1.
        -11    1    3    3    0    0 -0.10365514984E+02 -0.11756477517E+02 -0.44738069340E+01  0.16299497330E+02  0.51100000000E-03 0.  1.
         12    1    3    3    0    0 -0.31320094281E+01 -0.32773204851E+01 -0.21643918119E+01  0.50234355311E+01  0.00000000000E+00 0. -1.
</event>
<event>
 7    1  0.4194672E-008  0.4614232E+02  0.7816164E-02  0.1320468E+00
        -11   -1    0    0    0    0  0.00000000000E+00  0.00000000000E+00  0.45593999997E+02  0.45594000000E+02  0.51100000000E-03 0.  1.
         11   -1    0    0    0    0 -0.00000000000E+00 -0.00000000000E+00 -0.45593999997E+02  0.45594000000E+02  0.51100000000E-03 0. -1.
    9900012    2    1    2    0    0  0.34868849913E+02 -0.20240829863E+02 -0.20089427759E+02  0.46142323232E+02  0.10000049885E+02 0.  0.
        -12    1    1    2    0    0 -0.34868849913E+02  0.20240829863E+02  0.20089427759E+02  0.45045676768E+02  0.00000000000E+00 0.  1.
         11    1    3    3    0    0  0.25348805109E+02 -0.13167448423E+02 -0.15083275951E+02  0.32302458608E+02  0.51100000000E-03 0. -1.
        -11    1    3    3    0    0  0.80122126051E+01 -0.30374095390E+01 -0.29161654079E+01  0.90512666784E+01  0.51100000000E-03 0.  1.
        -12    1    3    3    0    0  0.15078321986E+01 -0.40359719014E+01 -0.20899864002E+01  0.47885979453E+01  0.00000000000E+00 0.  1.
</event>
<event>
 7    1  0.4194672E-008  0.4614232E+02  0.7816164E-02  0.1320468E+00
        -11   -1    0    0    0    0  0.00000000000E+00  0.00000000000E+00  0.45593999997E+02  0.45594000000E+02  0.51100000000E-03 0.  1.
         11   -1    0    0    0    0 -0.00000000000E+00 -0.00000000000E+00 -0.45593999997E+02  0.45594000000E+02  0.51100000000E-03 0. -1.
    9900012    2    1    2    0    0  0.37209891721E+02 -0.92353330682E+01 -0.23648383346E+02  0.46142318147E+02  0.10000003517E+02 0.  0.
        -12    1    1    2    0    0 -0.37209891721E+02  0.92353330682E+01  0.23648383346E+02  0.45045681853E+02  0.00000000000E+00 0.  1.
         11    1    3    3    0    0  0.97456369898E+01 -0.18296818168E+01 -0.30971334195E+01  0.10388330548E+02  0.51100000000E-03 0. -1.
        -11    1    3    3    0    0  0.13529515631E+02 -0.12906959036E+01 -0.65980040003E+01  0.15107857101E+02  0.51100000000E-03 0.  1.
        -12    1    3    3    0    0  0.13934739100E+02 -0.61149553479E+01 -0.13953245926E+02  0.20646130498E+02  0.00000000000E+00 0.  1.
</event>
<event>
 7    1  0.4194672E-008  0.4614232E+02  0.7816164E-02  0.1320468E+00
        -11   -1    0    0    0    0  0.00000000000E+00  0.00000000000E+00  0.45593999997E+02  0.45594000000E+02  0.51100000000E-03 0. -1.
         11   -1    0    0    0    0 -0.00000000000E+00 -0.00000000000E+00 -0.45593999997E+02  0.45594000000E+02  0.51100000000E-03 0.  1.
    9900012    2    1    2    0    0  0.44476161138E+02  0.46175257159E+00 -0.71253970534E+01  0.46142318651E+02  0.10000008112E+02 0.  0.
        -12    1    1    2    0    0 -0.44476161138E+02 -0.46175257159E+00  0.71253970534E+01  0.45045681349E+02  0.00000000000E+00 0.  1.
         11    1    3    3    0    0  0.16362049490E+02  0.17481172928E+01 -0.89735414921E+00  0.16479618391E+02  0.51100000000E-03 0. -1.
        -11    1    3    3    0    0  0.26223674734E+02  0.73377846430E+00 -0.55671102102E+01  0.26818133115E+02  0.51100000000E-03 0.  1.
         12    1    3    3    0    0  0.18904369143E+01 -0.20201431855E+01 -0.66093269401E+00  0.28445671451E+01  0.00000000000E+00 0. -1.
</event>
<event>
 7    1  0.4194672E-008  0.4614232E+02  0.7816164E-02  0.1320468E+00
        -11   -1    0    0    0    0  0.00000000000E+00  0.00000000000E+00  0.45593999997E+02  0.45594000000E+02  0.51100000000E-03 0.  1.
         11   -1    0    0    0    0 -0.00000000000E+00 -0.00000000000E+00 -0.45593999997E+02  0.45594000000E+02  0.51100000000E-03 0. -1.
    9900012    2    1    2    0    0 -0.31672278329E+02 -0.17062446488E+02 -0.27108172253E+02  0.46142319879E+02  0.10000019311E+02 0.  0.
        -12    1    1    2    0    0  0.31672278329E+02  0.17062446488E+02  0.27108172253E+02  0.45045680121E+02  0.00000000000E+00 0.  1.
         11    1    3    3    0    0 -0.21181898490E+02 -0.10624535050E+02 -0.16480562164E+02  0.28864554356E+02  0.51100000000E-03 0. -1.
        -11    1    3    3    0    0 -0.10898204072E+02 -0.63452028529E+01 -0.87376060045E+01  0.15342040614E+02  0.51100000000E-03 0.  1.
        -12    1    3    3    0    0  0.40782423298E+00 -0.92708585620E-01 -0.18900040842E+01  0.19357249094E+01  0.00000000000E+00 0.  1.
</event>
<event>
 7    1  0.4194672E-008  0.4614232E+02  0.7816164E-02  0.1320468E+00
        -11   -1    0    0    0    0  0.00000000000E+00  0.00000000000E+00  0.45593999997E+02  0.45594000000E+02  0.51100000000E-03 0. -1.
         11   -1    0    0    0    0 -0.00000000000E+00 -0.00000000000E+00 -0.45593999997E+02  0.45594000000E+02  0.51100000000E-03 0.  1.
    9900012    2    1    2    0    0 -0.19550845074E+02 -0.14445524096E+01  0.40556025264E+02  0.46142318077E+02  0.10000002876E+02 0.  0.
        -12    1    1    2    0    0  0.19550845074E+02  0.14445524096E+01 -0.40556025264E+02  0.45045681923E+02  0.00000000000E+00 0.  1.
         11    1    3    3    0    0 -0.70207028889E+01 -0.33122840387E+00  0.13339399394E+02  0.15077783583E+02  0.51100000000E-03 0. -1.
        -11    1    3    3    0    0 -0.12645256335E+02 -0.27216224296E+01  0.21189762202E+02  0.24825707620E+02  0.51100000000E-03 0.  1.
        -12    1    3    3    0    0  0.11511414991E+00  0.16082984239E+01  0.60268636676E+01  0.62388268734E+01  0.00000000000E+00 0.  1.
</event>
<event>
 7    1  0.4194672E-008  0.4614232E+02  0.7816164E-02  0.1320468E+00
        -11   -1    0    0    0    0  0.00000000000E+00  0.00000000000E+00  0.45593999997E+02  0.45594000000E+02  0.51100000000E-03 0.  1.
         11   -1    0    0    0    0 -0.00000000000E+00 -0.00000000000E+00 -0.45593999997E+02  0.45594000000E+02  0.51100000000E-03 0. -1.
    9900012    2    1    2    0    0  0.73487257813E+01 -0.30730159629E+02 -0.32105559909E+02  0.46142318093E+02  0.10000003023E+02 0.  0.
        -12    1    1    2    0    0 -0.73487257813E+01  0.30730159629E+02  0.32105559909E+02  0.45045681907E+02  0.00000000000E+00 0.  1.
         11    1    3    3    0    0  0.38967978273E+01 -0.13754837507E+02 -0.14162193453E+02  0.20123327553E+02  0.51100000000E-03 0. -1.
        -11    1    3    3    0    0  0.40375338738E+01 -0.41866293911E+01 -0.38287883270E+01  0.69634162417E+01  0.51100000000E-03 0.  1.
         12    1    3    3    0    0 -0.58560591985E+00 -0.12788692731E+02 -0.14114578128E+02  0.19055574298E+02  0.00000000000E+00 0. -1.
</event>
<event>
 7    1  0.4194672E-008  0.4614232E+02  0.7816164E-02  0.1320468E+00
        -11   -1    0    0    0    0  0.00000000000E+00  0.00000000000E+00  0.45593999997E+02  0.45594000000E+02  0.51100000000E-03 0. -1.
         11   -1    0    0    0    0 -0.00000000000E+00 -0.00000000000E+00 -0.45593999997E+02  0.45594000000E+02  0.51100000000E-03 0.  1.
    9900012    2    1    2    0    0 -0.32726475784E+02  0.75463861392E+01  0.30019050405E+02  0.46142317096E+02  0.99999939391E+01 0.  0.
        -12    1    1    2    0    0  0.32726475784E+02 -0.75463861392E+01 -0.30019050405E+02  0.45045682904E+02  0.00000000000E+00 0.  1.
         11    1    3    3    0    0 -0.16367525412E+02  0.26939474368E+01  0.18330662545E+02  0.24721780488E+02  0.51100000000E-03 0. -1.
        -11    1    3    3    0    0 -0.19157610233E+01  0.26815419477E+01  0.27894880325E+01  0.43176441794E+01  0.51100000000E-03 0.  1.
         12    1    3    3    0    0 -0.14443189349E+02  0.21708967547E+01  0.88988998278E+01  0.17102892429E+02  0.00000000000E+00 0. -1.
</event>
<event>
 7    1  0.4194672E-008  0.4614232E+02  0.7816164E-02  0.1320468E+00
        -11   -1    0    0    0    0  0.00000000000E+00  0.00000000000E+00  0.45593999997E+02  0.45594000000E+02  0.51100000000E-03 0. -1.
         11   -1    0    0    0    0 -0.00000000000E+00 -0.00000000000E+00 -0.45593999997E+02  0.45594000000E+02  0.51100000000E-03 0.  1.
    9900012    2    1    2    0    0  0.37523002449E+02 -0.24915754307E+02  0.58562681261E+00  0.46142317807E+02  0.10000000416E+02 0.  0.
        -12    1    1    2    0    0 -0.37523002449E+02  0.24915754307E+02 -0.58562681261E+00  0.45045682193E+02  0.00000000000E+00 0.  1.
         11    1    3    3    0    0  0.10578953650E+01 -0.21699243029E+01  0.40524899491E+00  0.24478441725E+01  0.51100000000E-03 0. -1.
        -11    1    3    3    0    0  0.90697419447E+01 -0.85026389708E+01 -0.25719757801E+01  0.12695280544E+02  0.51100000000E-03 0.  1.
        -12    1    3    3    0    0  0.27395365139E+02 -0.14243191033E+02  0.27523535978E+01  0.30999193091E+02  0.00000000000E+00 0.  1.
</event>
<event>
 7    1  0.4194672E-008  0.4614232E+02  0.7816164E-02  0.1320468E+00
        -11   -1    0    0    0    0  0.00000000000E+00  0.00000000000E+00  0.45593999997E+02  0.45594000000E+02  0.51100000000E-03 0. -1.
         11   -1    0    0    0    0 -0.00000000000E+00 -0.00000000000E+00 -0.45593999997E+02  0.45594000000E+02  0.51100000000E-03 0.  1.
    9900012    2    1    2    0    0 -0.32206915135E+02  0.95808468133E+01  0.30000592800E+02  0.46142316783E+02  0.99999910785E+01 0.  0.
        -12    1    1    2    0    0  0.32206915135E+02 -0.95808468133E+01 -0.30000592800E+02  0.45045683217E+02  0.00000000000E+00 0.  1.
         11    1    3    3    0    0 -0.10891197949E+02  0.58669766494E+01  0.90657584682E+01  0.15337130913E+02  0.51100000000E-03 0. -1.
        -11    1    3    3    0    0 -0.14137070219E+01  0.21687240905E+01  0.17971078882E+01  0.31514328087E+01  0.51100000000E-03 0.  1.
         12    1    3    3    0    0 -0.19902010164E+02  0.15451460735E+01  0.19137726444E+02  0.27653753062E+02  0.00000000000E+00 0. -1.
</event>
<event>
 7    1  0.4194672E-008  0.4614232E+02  0.7816164E-02  0.1320468E+00
        -11   -1    0    0    0    0  0.00000000000E+00  0.00000000000E+00  0.45593999997E+02  0.45594000000E+02  0.51100000000E-03 0. -1.
         11   -1    0    0    0    0 -0.00000000000E+00 -0.00000000000E+00 -0.45593999997E+02  0.45594000000E+02  0.51100000000E-03 0.  1.
    9900012    2    1    2    0    0  0.32659395265E+02 -0.16311120747E+02  0.26389861189E+02  0.46142317269E+02  0.99999955168E+01 0.  0.
        -12    1    1    2    0    0 -0.32659395265E+02  0.16311120747E+02 -0.26389861189E+02  0.45045682731E+02  0.00000000000E+00 0.  1.
         11    1    3    3    0    0  0.74791371452E+01 -0.42572426033E+01  0.95422431858E+01  0.12849747558E+02  0.51100000000E-03 0. -1.
        -11    1    3    3    0    0  0.22976671062E+02 -0.89021637247E+01  0.15920810922E+02  0.29336805428E+02  0.51100000000E-03 0.  1.
        -12    1    3    3    0    0  0.22035870580E+01 -0.31517144189E+01  0.92680708101E+00  0.39557642834E+01  0.00000000000E+00 0.  1.
</event>
<event>
 7    1  0.4194672E-008  0.4614232E+02  0.7816164E-02  0.1320468E+00
        -11   -1    0    0    0    0  0.00000000000E+00  0.00000000000E+00  0.45593999997E+02  0.45594000000E+02  0.51100000000E-03 0.  1.
         11   -1    0    0    0    0 -0.00000000000E+00 -0.00000000000E+00 -0.45593999997E+02  0.45594000000E+02  0.51100000000E-03 0. -1.
    9900012    2    1    2    0    0 -0.25196737081E+02 -0.20322269577E+02 -0.31324803676E+02  0.46142317347E+02  0.99999962268E+01 0.  0.
        -12    1    1    2    0    0  0.25196737081E+02  0.20322269577E+02  0.31324803676E+02  0.45045682653E+02  0.00000000000E+00 0.  1.
         11    1    3    3    0    0 -0.15412986861E+01 -0.25921555059E+01 -0.58305056500E+01  0.65642721000E+01  0.51100000000E-03 0. -1.
        -11    1    3    3    0    0 -0.15820811719E+02 -0.90679757540E+01 -0.18437998347E+02  0.25932336012E+02  0.51100000000E-03 0.  1.
        -12    1    3    3    0    0 -0.78346266760E+01 -0.86621383174E+01 -0.70562996788E+01  0.13645709236E+02  0.00000000000E+00 0.  1.
</event>
<event>
 7    1  0.4194672E-008  0.4614232E+02  0.7816164E-02  0.1320468E+00
        -11   -1    0    0    0    0  0.00000000000E+00  0.00000000000E+00  0.45593999997E+02  0.45594000000E+02  0.51100000000E-03 0.  1.
         11   -1    0    0    0    0 -0.00000000000E+00 -0.00000000000E+00 -0.45593999997E+02  0.45594000000E+02  0.51100000000E-03 0. -1.
    9900012    2    1    2    0    0  0.44467719823E+02  0.69422619543E+01  0.18816165023E+01  0.46142316655E+02  0.99999899180E+01 0.  0.
        -12    1    1    2    0    0 -0.44467719823E+02 -0.69422619543E+01 -0.18816165023E+01  0.45045683345E+02  0.00000000000E+00 0.  1.
         11    1    3    3    0    0  0.18451656019E+02 -0.11624670115E+00  0.54629041576E+00  0.18460107167E+02  0.51100000000E-03 0. -1.
        -11    1    3    3    0    0  0.60314013707E+01 -0.58872688477E+00 -0.10552619249E+01  0.61512583941E+01  0.51100000000E-03 0.  1.
         12    1    3    3    0    0  0.19984662433E+02  0.76472355402E+01  0.23905880114E+01  0.21530951094E+02  0.00000000000E+00 0. -1.
</event>
<event>
 7    1  0.4244773E-008  0.4614232E+02  0.7816164E-02  0.1320468E+00
        -11   -1    0    0    0    0  0.00000000000E+00  0.00000000000E+00  0.45593999997E+02  0.45594000000E+02  0.51100000000E-03 0. -1.
         11   -1    0    0    0    0 -0.00000000000E+00 -0.00000000000E+00 -0.45593999997E+02  0.45594000000E+02  0.51100000000E-03 0.  1.
    9900012    2    1    2    0    0  0.11468265878E+02 -0.41474795074E+02 -0.13320427991E+02  0.46142317071E+02  0.99999937100E+01 0.  0.
        -12    1    1    2    0    0 -0.11468265878E+02  0.41474795074E+02  0.13320427991E+02  0.45045682929E+02  0.00000000000E+00 0.  1.
         11    1    3    3    0    0  0.33924194254E+01 -0.12567066332E+02 -0.61075667899E+01  0.14378526980E+02  0.51100000000E-03 0. -1.
        -11    1    3    3    0    0 -0.40915263831E+00 -0.56894886780E+01 -0.36907504127E+01  0.67940655111E+01  0.51100000000E-03 0.  1.
        -12    1    3    3    0    0  0.84849990907E+01 -0.23218240063E+02 -0.35221107879E+01  0.24969724580E+02  0.00000000000E+00 0.  1.
</event>
<event>
 7    1  0.4194672E-008  0.4614232E+02  0.7816164E-02  0.1320468E+00
        -11   -1    0    0    0    0  0.00000000000E+00  0.00000000000E+00  0.45593999997E+02  0.45594000000E+02  0.51100000000E-03 0.  1.
         11   -1    0    0    0    0 -0.00000000000E+00 -0.00000000000E+00 -0.45593999997E+02  0.45594000000E+02  0.51100000000E-03 0. -1.
    9900012    2    1    2    0    0  0.76576363612E+01  0.19763996112E+02 -0.39747435211E+02  0.46142317157E+02  0.99999944938E+01 0.  0.
        -12    1    1    2    0    0 -0.76576363612E+01 -0.19763996112E+02  0.39747435211E+02  0.45045682843E+02  0.00000000000E+00 0.  1.
         11    1    3    3    0    0  0.31167253978E+01  0.14429996711E+02 -0.22427339996E+02  0.26850034671E+02  0.51100000000E-03 0. -1.
        -11    1    3    3    0    0  0.54482904830E-01 -0.73523030194E+00 -0.61041153180E+00  0.95714914359E+00  0.51100000000E-03 0.  1.
         12    1    3    3    0    0  0.44864280586E+01  0.60692297025E+01 -0.16709683683E+02  0.18335133342E+02  0.00000000000E+00 0. -1.
</event>
<event>
 7    1  0.4194672E-008  0.4614232E+02  0.7816164E-02  0.1320468E+00
        -11   -1    0    0    0    0  0.00000000000E+00  0.00000000000E+00  0.45593999997E+02  0.45594000000E+02  0.51100000000E-03 0.  1.
         11   -1    0    0    0    0 -0.00000000000E+00 -0.00000000000E+00 -0.45593999997E+02  0.45594000000E+02  0.51100000000E-03 0. -1.
    9900012    2    1    2    0    0 -0.25548698588E+02 -0.30576305774E+02 -0.21011117848E+02  0.46142317104E+02  0.99999940045E+01 0.  0.
        -12    1    1    2    0    0  0.25548698588E+02  0.30576305774E+02  0.21011117848E+02  0.45045682896E+02  0.00000000000E+00 0.  1.
         11    1    3    3    0    0 -0.24348195926E+01 -0.51787190190E+01 -0.19138186320E+01  0.60340847809E+01  0.51100000000E-03 0. -1.
        -11    1    3    3    0    0 -0.52050752718E+01 -0.64034478707E+01 -0.87480856000E+01  0.12026053182E+02  0.51100000000E-03 0.  1.
        -12    1    3    3    0    0 -0.17908803724E+02 -0.18994138885E+02 -0.10349213616E+02  0.28082179140E+02  0.00000000000E+00 0.  1.
</event>
<event>
 7    1  0.4194672E-008  0.4614232E+02  0.7816164E-02  0.1320468E+00
        -11   -1    0    0    0    0  0.00000000000E+00  0.00000000000E+00  0.45593999997E+02  0.45594000000E+02  0.51100000000E-03 0.  1.
         11   -1    0    0    0    0 -0.00000000000E+00 -0.00000000000E+00 -0.45593999997E+02  0.45594000000E+02  0.51100000000E-03 0. -1.
    9900012    2    1    2    0    0  0.50348262089E+01 -0.10418074832E+02 -0.43534211767E+02  0.46142319272E+02  0.10000013774E+02 0.  0.
        -12    1    1    2    0    0 -0.50348262089E+01  0.10418074832E+02  0.43534211767E+02  0.45045680728E+02  0.00000000000E+00 0.  1.
         11    1    3    3    0    0  0.32622306735E+01 -0.11235656244E+01 -0.10720634009E+02  0.11262173081E+02  0.51100000000E-03 0. -1.
        -11    1    3    3    0    0  0.18689056187E+00  0.11635219324E+01 -0.22840896766E+01  0.25701706716E+01  0.51100000000E-03 0.  1.
         12    1    3    3    0    0  0.15857049735E+01 -0.10458031140E+02 -0.30529488081E+02  0.32309975519E+02  0.00000000000E+00 0. -1.
</event>
<event>
 7    1  0.4194672E-008  0.4614233E+02  0.7816164E-02  0.1320468E+00
        -11   -1    0    0    0    0  0.00000000000E+00  0.00000000000E+00  0.45593999997E+02  0.45594000000E+02  0.51100000000E-03 0. -1.
         11   -1    0    0    0    0 -0.00000000000E+00 -0.00000000000E+00 -0.45593999997E+02  0.45594000000E+02  0.51100000000E-03 0.  1.
    9900012    2    1    2    0    0 -0.43529944927E+02  0.64943952712E+01  0.95957974302E+01  0.46142327582E+02  0.10000089555E+02 0.  0.
        -12    1    1    2    0    0  0.43529944927E+02 -0.64943952712E+01 -0.95957974302E+01  0.45045672418E+02  0.00000000000E+00 0.  1.
         11    1    3    3    0    0 -0.20268596943E+00 -0.49112870379E+00 -0.10624033944E+00  0.54182679588E+00  0.51100000000E-03 0. -1.
        -11    1    3    3    0    0 -0.18949022920E+02  0.35408864599E+01  0.39911053716E+00  0.19281147166E+02  0.51100000000E-03 0.  1.
        -12    1    3    3    0    0 -0.24378236037E+02  0.34446375150E+01  0.93029272325E+01  0.26319353620E+02  0.00000000000E+00 0.  1.
</event>
<event>
 7    1  0.4194672E-008  0.4614232E+02  0.7816164E-02  0.1320468E+00
        -11   -1    0    0    0    0  0.00000000000E+00  0.00000000000E+00  0.45593999997E+02  0.45594000000E+02  0.51100000000E-03 0. -1.
         11   -1    0    0    0    0 -0.00000000000E+00 -0.00000000000E+00 -0.45593999997E+02  0.45594000000E+02  0.51100000000E-03 0.  1.
    9900012    2    1    2    0    0  0.41445310735E+02 -0.17645997567E+02 -0.13594991913E+00  0.46142317694E+02  0.99999993906E+01 0.  0.
        -12    1    1    2    0    0 -0.41445310735E+02  0.17645997567E+02  0.13594991913E+00  0.45045682306E+02  0.00000000000E+00 0.  1.
         11    1    3    3    0    0  0.10490890028E+02 -0.43193956239E+01  0.33997181410E+01  0.11843734032E+02  0.51100000000E-03 0. -1.
        -11    1    3    3    0    0  0.18819992727E+01 -0.23131929054E+01  0.18679171500E+00  0.29879213654E+01  0.51100000000E-03 0.  1.
         12    1    3    3    0    0  0.29072421434E+02 -0.11013409037E+02 -0.37224597751E+01  0.31310662297E+02  0.00000000000E+00 0. -1.
</event>
<event>
 7    1  0.4194672E-008  0.4614232E+02  0.7816164E-02  0.1320468E+00
        -11   -1    0    0    0    0  0.00000000000E+00  0.00000000000E+00  0.45593999997E+02  0.45594000000E+02  0.51100000000E-03 0.  1.
         11   -1    0    0    0    0 -0.00000000000E+00 -0.00000000000E+00 -0.45593999997E+02  0.45594000000E+02  0.51100000000E-03 0. -1.
    9900012    2    1    2    0    0 -0.37833883882E+02 -0.27690899277E+01 -0.24290798122E+02  0.46142317610E+02  0.99999986188E+01 0.  0.
        -12    1    1    2    0    0  0.37833883882E+02  0.27690899277E+01  0.24290798122E+02  0.45045682390E+02  0.00000000000E+00 0.  1.
         11    1    3    3    0    0 -0.18901964194E+02 -0.49092028231E+01 -0.12803700836E+02  0.23352072245E+02  0.51100000000E-03 0. -1.
        -11    1    3    3    0    0  0.75156219072E-01  0.54295141628E+00 -0.65838771996E+00  0.85669092946E+00  0.51100000000E-03 0.  1.
        -12    1    3    3    0    0 -0.19007075907E+02  0.15971614791E+01 -0.10828709566E+02  0.21933554435E+02  0.00000000000E+00 0.  1.
</event>
<event>
 7    1  0.4194672E-008  0.4614232E+02  0.7816164E-02  0.1320468E+00
        -11   -1    0    0    0    0  0.00000000000E+00  0.00000000000E+00  0.45593999997E+02  0.45594000000E+02  0.51100000000E-03 0. -1.
         11   -1    0    0    0    0 -0.00000000000E+00 -0.00000000000E+00 -0.45593999997E+02  0.45594000000E+02  0.51100000000E-03 0.  1.
    9900012    2    1    2    0    0 -0.68108239080E+01 -0.40210659347E+02  0.19126657939E+02  0.46142317728E+02  0.99999996941E+01 0.  0.
        -12    1    1    2    0    0  0.68108239080E+01  0.40210659347E+02 -0.19126657939E+02  0.45045682272E+02  0.00000000000E+00 0.  1.
         11    1    3    3    0    0  0.15229486835E+01 -0.65513971083E+01  0.34591796140E+01  0.75634714666E+01  0.51100000000E-03 0. -1.
        -11    1    3    3    0    0  0.43173484297E+00 -0.85208016143E+01  0.25815088388E+01  0.89137334081E+01  0.51100000000E-03 0.  1.
        -12    1    3    3    0    0 -0.87655074345E+01 -0.25138460625E+02  0.13085969487E+02  0.29665112853E+02  0.00000000000E+00 0.  1.
</event>
<event>
 7    1  0.4194672E-008  0.4614232E+02  0.7816164E-02  0.1320468E+00
        -11   -1    0    0    0    0  0.00000000000E+00  0.00000000000E+00  0.45593999997E+02  0.45594000000E+02  0.51100000000E-03 0.  1.
         11   -1    0    0    0    0 -0.00000000000E+00 -0.00000000000E+00 -0.45593999997E+02  0.45594000000E+02  0.51100000000E-03 0. -1.
    9900012    2    1    2    0    0 -0.10769200640E+02  0.25697346993E+02 -0.35394691136E+02  0.46142317793E+02  0.10000000287E+02 0.  0.
        -12    1    1    2    0    0  0.10769200640E+02 -0.25697346993E+02  0.35394691136E+02  0.45045682207E+02  0.00000000000E+00 0.  1.
         11    1    3    3    0    0 -0.17749290677E+01  0.32030561776E+01 -0.93784235093E+01  0.10068007243E+02  0.51100000000E-03 0.  1.
        -11    1    3    3    0    0 -0.68796619826E+01  0.13640061395E+02 -0.19981796148E+02  0.25152598304E+02  0.51100000000E-03 0. -1.
        -12    1    3    3    0    0 -0.21146095897E+01  0.88542294206E+01 -0.60344714788E+01  0.10921712246E+02  0.00000000000E+00 0.  1.
</event>
<event>
 7    1  0.4194672E-008  0.4614232E+02  0.7816164E-02  0.1320468E+00
        -11   -1    0    0    0    0  0.00000000000E+00  0.00000000000E+00  0.45593999997E+02  0.45594000000E+02  0.51100000000E-03 0.  1.
         11   -1    0    0    0    0 -0.00000000000E+00 -0.00000000000E+00 -0.45593999997E+02  0.45594000000E+02  0.51100000000E-03 0. -1.
    9900012    2    1    2    0    0  0.24314862098E+02 -0.27333105710E+02 -0.26283117492E+02  0.46142318169E+02  0.10000003716E+02 0.  0.
        -12    1    1    2    0    0 -0.24314862098E+02  0.27333105710E+02  0.26283117492E+02  0.45045681831E+02  0.00000000000E+00 0.  1.
         11    1    3    3    0    0  0.87208569355E+01 -0.14000316865E+02 -0.11189158693E+02  0.19931369510E+02  0.51100000000E-03 0. -1.
        -11    1    3    3    0    0  0.16110611456E+02 -0.12918703931E+02 -0.15039470213E+02  0.25546631428E+02  0.51100000000E-03 0.  1.
         12    1    3    3    0    0 -0.51660629376E+00 -0.41408491311E+00 -0.54488586117E-01  0.66431723148E+00  0.00000000000E+00 0. -1.
</event>
<event>
 7    1  0.4194672E-008  0.4614232E+02  0.7816164E-02  0.1320468E+00
        -11   -1    0    0    0    0  0.00000000000E+00  0.00000000000E+00  0.45593999997E+02  0.45594000000E+02  0.51100000000E-03 0.  1.
         11   -1    0    0    0    0 -0.00000000000E+00 -0.00000000000E+00 -0.45593999997E+02  0.45594000000E+02  0.51100000000E-03 0. -1.
    9900012    2    1    2    0    0 -0.26197290427E+02  0.21189367306E+02 -0.29896927114E+02  0.46142316928E+02  0.99999924057E+01 0.  0.
        -12    1    1    2    0    0  0.26197290427E+02 -0.21189367306E+02  0.29896927114E+02  0.45045683072E+02  0.00000000000E+00 0.  1.
         11    1    3    3    0    0 -0.15907649629E+02  0.13330163003E+02 -0.16006457615E+02  0.26209792980E+02  0.51100000000E-03 0. -1.
        -11    1    3    3    0    0 -0.58132942119E+01  0.75730846558E+01 -0.11138540679E+02  0.14670142792E+02  0.51100000000E-03 0.  1.
        -12    1    3    3    0    0 -0.44763465860E+01  0.28611964677E+00 -0.27519288199E+01  0.52623811569E+01  0.00000000000E+00 0.  1.
</event>
<event>
 7    1  0.4194672E-008  0.4614232E+02  0.7816164E-02  0.1320468E+00
        -11   -1    0    0    0    0  0.00000000000E+00  0.00000000000E+00  0.45593999997E+02  0.45594000000E+02  0.51100000000E-03 0.  1.
         11   -1    0    0    0    0 -0.00000000000E+00 -0.00000000000E+00 -0.45593999997E+02  0.45594000000E+02  0.51100000000E-03 0. -1.
    9900012    2    1    2    0    0 -0.13493889052E+02 -0.15383056158E+02 -0.40129657614E+02  0.46142324528E+02  0.10000061704E+02 0.  0.
        -12    1    1    2    0    0  0.13493889052E+02  0.15383056158E+02  0.40129657614E+02  0.45045675472E+02  0.00000000000E+00 0.  1.
         11    1    3    3    0    0 -0.81603290705E+01 -0.47516415846E+01 -0.19674390453E+02  0.21823169070E+02  0.51100000000E-03 0. -1.
        -11    1    3    3    0    0 -0.41666899258E+01 -0.10816568638E+02 -0.19862421631E+02  0.22997288000E+02  0.51100000000E-03 0.  1.
         12    1    3    3    0    0 -0.11668700554E+01  0.18515406468E+00 -0.59284553021E+00  0.13218674580E+01  0.00000000000E+00 0. -1.
</event>
<event>
 7    1  0.4194672E-008  0.4614232E+02  0.7816164E-02  0.1320468E+00
        -11   -1    0    0    0    0  0.00000000000E+00  0.00000000000E+00  0.45593999997E+02  0.45594000000E+02  0.51100000000E-03 0.  1.
         11   -1    0    0    0    0 -0.00000000000E+00 -0.00000000000E+00 -0.45593999997E+02  0.45594000000E+02  0.51100000000E-03 0. -1.
    9900012    2    1    2    0    0 -0.91417291639E+01  0.23366916829E+02 -0.37410285830E+02  0.46142317631E+02  0.99999988145E+01 0.  0.
        -12    1    1    2    0    0  0.91417291639E+01 -0.23366916829E+02  0.37410285830E+02  0.45045682369E+02  0.00000000000E+00 0.  1.
         11    1    3    3    0    0 -0.56898436498E+01  0.80439686667E+01 -0.16038809040E+02  0.18823473334E+02  0.51100000000E-03 0. -1.
        -11    1    3    3    0    0 -0.15659508287E+01  0.12206840429E+02 -0.19883993483E+02  0.23384446804E+02  0.51100000000E-03 0.  1.
        -12    1    3    3    0    0 -0.18859346854E+01  0.31161077336E+01 -0.14874833073E+01  0.39343974932E+01  0.00000000000E+00 0.  1.
</event>
<event>
 7    1  0.5881253E-008  0.4614232E+02  0.7816164E-02  0.1320468E+00
        -11   -1    0    0    0    0  0.00000000000E+00  0.00000000000E+00  0.45593999997E+02  0.45594000000E+02  0.51100000000E-03 0. -1.
         11   -1    0    0    0    0 -0.00000000000E+00 -0.00000000000E+00 -0.45593999997E+02  0.45594000000E+02  0.51100000000E-03 0.  1.
    9900012    2    1    2    0    0 -0.65694862165E+01  0.44055113505E+02  0.67158172528E+01  0.46142319004E+02  0.10000011331E+02 0.  0.
        -12    1    1    2    0    0  0.65694862165E+01 -0.44055113505E+02 -0.67158172528E+01  0.45045680996E+02  0.00000000000E+00 0.  1.
         11    1    3    3    0    0 -0.26908571066E+01  0.20533889387E+02  0.30418521218E+01  0.20931655212E+02  0.51100000000E-03 0. -1.
        -11    1    3    3    0    0 -0.49588979652E+00  0.10861638431E+02 -0.17791434280E+01  0.11017551801E+02  0.51100000000E-03 0.  1.
        -12    1    3    3    0    0 -0.33827393134E+01  0.12659585687E+02  0.54531085590E+01  0.14193111991E+02  0.00000000000E+00 0.  1.
</event>
<event>
 7    1  0.4194672E-008  0.4614232E+02  0.7816164E-02  0.1320468E+00
        -11   -1    0    0    0    0  0.00000000000E+00  0.00000000000E+00  0.45593999997E+02  0.45594000000E+02  0.51100000000E-03 0. -1.
         11   -1    0    0    0    0 -0.00000000000E+00 -0.00000000000E+00 -0.45593999997E+02  0.45594000000E+02  0.51100000000E-03 0.  1.
    9900012    2    1    2    0    0 -0.79628532236E+01 -0.97005539996E+01  0.43262059252E+02  0.46142317076E+02  0.99999937519E+01 0.  0.
        -12    1    1    2    0    0  0.79628532236E+01  0.97005539996E+01 -0.43262059252E+02  0.45045682924E+02  0.00000000000E+00 0.  1.
         11    1    3    3    0    0 -0.18348140154E+01 -0.11258397144E+01  0.19582803399E+02  0.19700767669E+02  0.51100000000E-03 0. -1.
        -11    1    3    3    0    0 -0.25234419133E+01 -0.13662617223E+01  0.11385138888E+02  0.11741201725E+02  0.51100000000E-03 0.  1.
        -12    1    3    3    0    0 -0.36045972949E+01 -0.72084525629E+01  0.12294116965E+02  0.14700347681E+02  0.00000000000E+00 0.  1.
</event>
<event>
 7    1  0.4194672E-008  0.4614232E+02  0.7816164E-02  0.1320468E+00
        -11   -1    0    0    0    0  0.00000000000E+00  0.00000000000E+00  0.45593999997E+02  0.45594000000E+02  0.51100000000E-03 0. -1.
         11   -1    0    0    0    0 -0.00000000000E+00 -0.00000000000E+00 -0.45593999997E+02  0.45594000000E+02  0.51100000000E-03 0.  1.
    9900012    2    1    2    0    0  0.26385118561E+02  0.56366326841E+01  0.36071696604E+02  0.46142318682E+02  0.10000008397E+02 0.  0.
        -12    1    1    2    0    0 -0.26385118561E+02 -0.56366326841E+01 -0.36071696604E+02  0.45045681318E+02  0.00000000000E+00 0.  1.
         11    1    3    3    0    0  0.41168485026E+01  0.12288279353E+01  0.71130564238E+01  0.83098755488E+01  0.51100000000E-03 0. -1.
        -11    1    3    3    0    0  0.71699100483E+01 -0.23351657351E+01  0.11794355076E+02  0.13998836417E+02  0.51100000000E-03 0.  1.
         12    1    3    3    0    0  0.15098360010E+02  0.67429704839E+01  0.17164285104E+02  0.23833606716E+02  0.00000000000E+00 0. -1.
</event>
<event>
 7    1  0.4194672E-008  0.4614232E+02  0.7816164E-02  0.1320468E+00
        -11   -1    0    0    0    0  0.00000000000E+00  0.00000000000E+00  0.45593999997E+02  0.45594000000E+02  0.51100000000E-03 0.  1.
         11   -1    0    0    0    0 -0.00000000000E+00 -0.00000000000E+00 -0.45593999997E+02  0.45594000000E+02  0.51100000000E-03 0. -1.
    9900012    2    1    2    0    0  0.11171859745E+02 -0.41212808020E+01 -0.43443273620E+02  0.46142318427E+02  0.10000006068E+02 0.  0.
        -12    1    1    2    0    0 -0.11171859745E+02  0.41212808020E+01  0.43443273620E+02  0.45045681573E+02  0.00000000000E+00 0.  1.
         11    1    3    3    0    0  0.25189309246E+00 -0.12204806240E+01 -0.13852555314E+02  0.13908497837E+02  0.51100000000E-03 0. -1.
        -11    1    3    3    0    0  0.22104934568E+01  0.23946760915E+00 -0.13397660255E+02  0.13580903012E+02  0.51100000000E-03 0.  1.
        -12    1    3    3    0    0  0.87094731954E+01 -0.31402677872E+01 -0.16193058051E+02  0.18652917578E+02  0.00000000000E+00 0.  1.
</event>
<event>
 7    1  0.4194672E-008  0.4614232E+02  0.7816164E-02  0.1320468E+00
        -11   -1    0    0    0    0  0.00000000000E+00  0.00000000000E+00  0.45593999997E+02  0.45594000000E+02  0.51100000000E-03 0.  1.
         11   -1    0    0    0    0 -0.00000000000E+00 -0.00000000000E+00 -0.45593999997E+02  0.45594000000E+02  0.51100000000E-03 0. -1.
    9900012    2    1    2    0    0  0.27931948296E+02 -0.93374386722E+00 -0.35327720748E+02  0.46142318004E+02  0.10000002219E+02 0.  0.
        -12    1    1    2    0    0 -0.27931948296E+02  0.93374386722E+00  0.35327720748E+02  0.45045681996E+02  0.00000000000E+00 0.  1.
         11    1    3    3    0    0  0.10394091818E+02  0.17250372958E+00 -0.75116164236E+01  0.12825415542E+02  0.51100000000E-03 0. -1.
        -11    1    3    3    0    0  0.10131480420E+02 -0.21705983296E+01 -0.12239401538E+02  0.16036250898E+02  0.51100000000E-03 0.  1.
        -12    1    3    3    0    0  0.74063760573E+01  0.10643507328E+01 -0.15576702786E+02  0.17280651564E+02  0.00000000000E+00 0.  1.
</event>
<event>
 7    1  0.4194672E-008  0.4614232E+02  0.7816164E-02  0.1320468E+00
        -11   -1    0    0    0    0  0.00000000000E+00  0.00000000000E+00  0.45593999997E+02  0.45594000000E+02  0.51100000000E-03 0. -1.
         11   -1    0    0    0    0 -0.00000000000E+00 -0.00000000000E+00 -0.45593999997E+02  0.45594000000E+02  0.51100000000E-03 0.  1.
    9900012    2    1    2    0    0  0.36735546833E+02 -0.23407076291E+02  0.11477015529E+02  0.46142317554E+02  0.99999981099E+01 0.  0.
        -12    1    1    2    0    0 -0.36735546833E+02  0.23407076291E+02 -0.11477015529E+02  0.45045682446E+02  0.00000000000E+00 0.  1.
         11    1    3    3    0    0  0.16812930717E+02 -0.10447746545E+02  0.18390574283E+01  0.19879944156E+02  0.51100000000E-03 0. -1.
        -11    1    3    3    0    0  0.12815356081E+02 -0.10927360590E+02  0.51360960360E+01  0.17607386055E+02  0.51100000000E-03 0.  1.
        -12    1    3    3    0    0  0.71072600345E+01 -0.20319691561E+01  0.45018620646E+01  0.86549873425E+01  0.00000000000E+00 0.  1.
</event>
<event>
 7    1  0.4194672E-008  0.4614231E+02  0.7816164E-02  0.1320468E+00
        -11   -1    0    0    0    0  0.00000000000E+00  0.00000000000E+00  0.45593999997E+02  0.45594000000E+02  0.51100000000E-03 0.  1.
         11   -1    0    0    0    0 -0.00000000000E+00 -0.00000000000E+00 -0.45593999997E+02  0.45594000000E+02  0.51100000000E-03 0. -1.
    9900012    2    1    2    0    0 -0.91945178406E+01  0.43733505319E+02 -0.56528866611E+01  0.46142314598E+02  0.99999711521E+01 0.  0.
        -12    1    1    2    0    0  0.91945178406E+01 -0.43733505319E+02  0.56528866611E+01  0.45045685402E+02  0.00000000000E+00 0.  1.
         11    1    3    3    0    0 -0.50222163989E+01  0.30954452414E+02 -0.57668447738E+01  0.31885063599E+02  0.51100000000E-03 0. -1.
        -11    1    3    3    0    0 -0.35135311957E+01  0.45769160697E+01  0.13777361605E+01  0.59322187554E+01  0.51100000000E-03 0.  1.
        -12    1    3    3    0    0 -0.65877024590E+00  0.82021368347E+01 -0.12637780478E+01  0.83250322429E+01  0.00000000000E+00 0.  1.
</event>
<event>
 7    1  0.4194672E-008  0.4614232E+02  0.7816164E-02  0.1320468E+00
        -11   -1    0    0    0    0  0.00000000000E+00  0.00000000000E+00  0.45593999997E+02  0.45594000000E+02  0.51100000000E-03 0.  1.
         11   -1    0    0    0    0 -0.00000000000E+00 -0.00000000000E+00 -0.45593999997E+02  0.45594000000E+02  0.51100000000E-03 0. -1.
    9900012    2    1    2    0    0  0.21777187614E+02 -0.35623833608E+02 -0.16905917516E+02  0.46142317983E+02  0.10000002019E+02 0.  0.
        -12    1    1    2    0    0 -0.21777187614E+02  0.35623833608E+02  0.16905917516E+02  0.45045682017E+02  0.00000000000E+00 0.  1.
         11    1    3    3    0    0  0.52674886320E+00 -0.20488157271E+01 -0.11136813873E+01  0.23906895955E+01  0.51100000000E-03 0.  1.
        -11    1    3    3    0    0  0.44619273823E+01 -0.11417960090E+02 -0.10980572039E+01  0.12307897402E+02  0.51100000000E-03 0. -1.
         12    1    3    3    0    0  0.16788511369E+02 -0.22157057791E+02 -0.14694178925E+02  0.31443730985E+02  0.00000000000E+00 0. -1.
</event>
<event>
 7    1  0.4194672E-008  0.4614232E+02  0.7816164E-02  0.1320468E+00
        -11   -1    0    0    0    0  0.00000000000E+00  0.00000000000E+00  0.45593999997E+02  0.45594000000E+02  0.51100000000E-03 0.  1.
         11   -1    0    0    0    0 -0.00000000000E+00 -0.00000000000E+00 -0.45593999997E+02  0.45594000000E+02  0.51100000000E-03 0. -1.
    9900012    2    1    2    0    0  0.24409497945E+02  0.11088679199E+02 -0.36198495484E+02  0.46142317947E+02  0.10000001695E+02 0.  0.
        -12    1    1    2    0    0 -0.24409497945E+02 -0.11088679199E+02  0.36198495484E+02  0.45045682053E+02  0.00000000000E+00 0.  1.
         11    1    3    3    0    0  0.26094370070E+01 -0.10146379022E+01 -0.33809037543E+01  0.43896653657E+01  0.51100000000E-03 0. -1.
        -11    1    3    3    0    0  0.21084526502E+02  0.95243589441E+01 -0.29354312983E+02  0.37375745639E+02  0.51100000000E-03 0.  1.
        -12    1    3    3    0    0  0.71553443641E+00  0.25789581569E+01 -0.34632787465E+01  0.43769069422E+01  0.00000000000E+00 0.  1.
</event>
<event>
 7    1  0.4194672E-008  0.4614232E+02  0.7816164E-02  0.1320468E+00
        -11   -1    0    0    0    0  0.00000000000E+00  0.00000000000E+00  0.45593999997E+02  0.45594000000E+02  0.51100000000E-03 0.  1.
         11   -1    0    0    0    0 -0.00000000000E+00 -0.00000000000E+00 -0.45593999997E+02  0.45594000000E+02  0.51100000000E-03 0. -1.
    9900012    2    1    2    0    0 -0.42089805985E+02 -0.15015477557E+02  0.56654380947E+01  0.46142317378E+02  0.99999965038E+01 0.  0.
        -12    1    1    2    0    0  0.42089805985E+02  0.15015477557E+02 -0.56654380947E+01  0.45045682622E+02  0.00000000000E+00 0.  1.
         11    1    3    3    0    0 -0.32712708531E+02 -0.13805712158E+02  0.37737363706E+01  0.35706583064E+02  0.51100000000E-03 0. -1.
        -11    1    3    3    0    0 -0.71028899059E+01 -0.24722251575E+01  0.63686007651E+00  0.75477502120E+01  0.51100000000E-03 0.  1.
        -12    1    3    3    0    0 -0.22742075481E+01  0.12624597586E+01  0.12548416476E+01  0.28879841022E+01  0.00000000000E+00 0.  1.
</event>
<event>
 7    1  0.4194672E-008  0.4614232E+02  0.7816164E-02  0.1320468E+00
        -11   -1    0    0    0    0  0.00000000000E+00  0.00000000000E+00  0.45593999997E+02  0.45594000000E+02  0.51100000000E-03 0.  1.
         11   -1    0    0    0    0 -0.00000000000E+00 -0.00000000000E+00 -0.45593999997E+02  0.45594000000E+02  0.51100000000E-03 0. -1.
    9900012    2    1    2    0    0  0.65381592755E+01  0.39025087688E+02 -0.21526926471E+02  0.46142316977E+02  0.99999928476E+01 0.  0.
        -12    1    1    2    0    0 -0.65381592755E+01 -0.39025087688E+02  0.21526926471E+02  0.45045683023E+02  0.00000000000E+00 0.  1.
         11    1    3    3    0    0  0.41137112480E+01  0.76545194662E+01 -0.20019211145E+01  0.89175095683E+01  0.51100000000E-03 0. -1.
        -11    1    3    3    0    0  0.73437459865E+00  0.86299076573E+00 -0.83278882469E+00  0.14062704578E+01  0.51100000000E-03 0.  1.
        -12    1    3    3    0    0  0.16900734288E+01  0.30507577456E+02 -0.18692216532E+02  0.35818536951E+02  0.00000000000E+00 0.  1.
</event>
<event>
 7    1  0.4194672E-008  0.4614232E+02  0.7816164E-02  0.1320468E+00
        -11   -1    0    0    0    0  0.00000000000E+00  0.00000000000E+00  0.45593999997E+02  0.45594000000E+02  0.51100000000E-03 0.  1.
         11   -1    0    0    0    0 -0.00000000000E+00 -0.00000000000E+00 -0.45593999997E+02  0.45594000000E+02  0.51100000000E-03 0. -1.
    9900012    2    1    2    0    0  0.23602931136E+02 -0.27067807380E+02 -0.27190970952E+02  0.46142318122E+02  0.10000003292E+02 0.  0.
        -12    1    1    2    0    0 -0.23602931136E+02  0.27067807380E+02  0.27190970952E+02  0.45045681878E+02  0.00000000000E+00 0.  1.
         11    1    3    3    0    0  0.53859982252E+01 -0.87571225883E+01 -0.59627911694E+01  0.11884908569E+02  0.51100000000E-03 0. -1.
        -11    1    3    3    0    0  0.33664265935E+01 -0.56780406783E+01 -0.20568457351E+01  0.69140139278E+01  0.51100000000E-03 0.  1.
        -12    1    3    3    0    0  0.14850506317E+02 -0.12632644113E+02 -0.19171334047E+02  0.27343395625E+02  0.00000000000E+00 0.  1.
</event>
<event>
 7    1  0.4194672E-008  0.4614233E+02  0.7816164E-02  0.1320468E+00
        -11   -1    0    0    0    0  0.00000000000E+00  0.00000000000E+00  0.45593999997E+02  0.45594000000E+02  0.51100000000E-03 0.  1.
         11   -1    0    0    0    0 -0.00000000000E+00 -0.00000000000E+00 -0.45593999997E+02  0.45594000000E+02  0.51100000000E-03 0. -1.
    9900012    2    1    2    0    0  0.42388556023E+02 -0.14637821041E+02 -0.42493453868E+01  0.46142329589E+02  0.10000107860E+02 0.  0.
        -12    1    1    2    0    0 -0.42388556023E+02  0.14637821041E+02  0.42493453868E+01  0.45045670411E+02  0.00000000000E+00 0.  1.
         11    1    3    3    0    0  0.26112039044E+01  0.18485264264E+00 -0.10025633779E+01  0.28031571340E+01  0.51100000000E-03 0. -1.
        -11    1    3    3    0    0  0.36813369521E+01 -0.39443032165E-01  0.16361614829E+01  0.40287494545E+01  0.51100000000E-03 0.  1.
         12    1    3    3    0    0  0.36096015166E+02 -0.14783230652E+02 -0.48829434918E+01  0.39310423001E+02  0.00000000000E+00 0. -1.
</event>
<event>
 7    1  0.4194672E-008  0.4614232E+02  0.7816164E-02  0.1320468E+00
        -11   -1    0    0    0    0  0.00000000000E+00  0.00000000000E+00  0.45593999997E+02  0.45594000000E+02  0.51100000000E-03 0.  1.
         11   -1    0    0    0    0 -0.00000000000E+00 -0.00000000000E+00 -0.45593999997E+02  0.45594000000E+02  0.51100000000E-03 0. -1.
    9900012    2    1    2    0    0  0.41881040139E+02 -0.74970516450E-01 -0.16585730589E+02  0.46142316490E+02  0.99999884052E+01 0.  0.
        -12    1    1    2    0    0 -0.41881040139E+02  0.74970516450E-01  0.16585730589E+02  0.45045683510E+02  0.00000000000E+00 0.  1.
         11    1    3    3    0    0  0.18963556765E+02 -0.13328316245E+00 -0.62632649690E+01  0.19971548210E+02  0.51100000000E-03 0. -1.
        -11    1    3    3    0    0  0.27367287271E+01 -0.18572386043E+01  0.23332649830E+00  0.33156388336E+01  0.51100000000E-03 0.  1.
        -12    1    3    3    0    0  0.20180754647E+02  0.19155512503E+01 -0.10555792119E+02  0.22855129446E+02  0.00000000000E+00 0.  1.
</event>
<event>
 7    1  0.4194672E-008  0.4614232E+02  0.7816164E-02  0.1320468E+00
        -11   -1    0    0    0    0  0.00000000000E+00  0.00000000000E+00  0.45593999997E+02  0.45594000000E+02  0.51100000000E-03 0. -1.
         11   -1    0    0    0    0 -0.00000000000E+00 -0.00000000000E+00 -0.45593999997E+02  0.45594000000E+02  0.51100000000E-03 0.  1.
    9900012    2    1    2    0    0  0.33360046497E+02  0.28791301171E+02 -0.93424609548E+01  0.46142319829E+02  0.10000018854E+02 0.  0.
        -12    1    1    2    0    0 -0.33360046497E+02 -0.28791301171E+02  0.93424609548E+01  0.45045680171E+02  0.00000000000E+00 0.  1.
         11    1    3    3    0    0  0.13587434176E+02  0.92661729359E+01 -0.46057712528E+01  0.17079035612E+02  0.51100000000E-03 0. -1.
        -11    1    3    3    0    0  0.15956043410E+02  0.13060804418E+02 -0.59448941252E+01  0.21459769332E+02  0.51100000000E-03 0.  1.
        -12    1    3    3    0    0  0.38165689108E+01  0.64643238179E+01  0.12082044232E+01  0.76035148847E+01  0.00000000000E+00 0.  1.
</event>
<event>
 7    1  0.4194672E-008  0.4614232E+02  0.7816164E-02  0.1320468E+00
        -11   -1    0    0    0    0  0.00000000000E+00  0.00000000000E+00  0.45593999997E+02  0.45594000000E+02  0.51100000000E-03 0.  1.
         11   -1    0    0    0    0 -0.00000000000E+00 -0.00000000000E+00 -0.45593999997E+02  0.45594000000E+02  0.51100000000E-03 0. -1.
    9900012    2    1    2    0    0 -0.10118510546E+02  0.18929406450E+00 -0.43894116004E+02  0.46142317547E+02  0.99999980454E+01 0.  0.
        -12    1    1    2    0    0  0.10118510546E+02 -0.18929406450E+00  0.43894116004E+02  0.45045682453E+02  0.00000000000E+00 0.  1.
         11    1    3    3    0    0 -0.27610356651E+00  0.22465566397E+01 -0.14256337698E+02  0.14434902657E+02  0.51100000000E-03 0. -1.
        -11    1    3    3    0    0 -0.11321731755E+01  0.20603236663E-01 -0.10694580697E+02  0.10754361773E+02  0.51100000000E-03 0.  1.
        -12    1    3    3    0    0 -0.87102338036E+01 -0.20778658119E+01 -0.18943197609E+02  0.20953053117E+02  0.00000000000E+00 0.  1.
</event>
<event>
 7    1  0.4194672E-008  0.4614232E+02  0.7816164E-02  0.1320468E+00
        -11   -1    0    0    0    0  0.00000000000E+00  0.00000000000E+00  0.45593999997E+02  0.45594000000E+02  0.51100000000E-03 0.  1.
         11   -1    0    0    0    0 -0.00000000000E+00 -0.00000000000E+00 -0.45593999997E+02  0.45594000000E+02  0.51100000000E-03 0. -1.
    9900012    2    1    2    0    0  0.14762050184E+02  0.78127116024E+00 -0.42550968916E+02  0.46142318010E+02  0.10000002271E+02 0.  0.
        -12    1    1    2    0    0 -0.14762050184E+02 -0.78127116024E+00  0.42550968916E+02  0.45045681990E+02  0.00000000000E+00 0.  1.
         11    1    3    3    0    0  0.34184554870E+01  0.12262178684E+01 -0.94009615498E+01  0.10078071566E+02  0.51100000000E-03 0. -1.
        -11    1    3    3    0    0 -0.14855152333E+00 -0.29951035983E+00  0.44563019919E+00  0.55710012231E+00  0.51100000000E-03 0.  1.
        -12    1    3    3    0    0  0.11492146220E+02 -0.14543634828E+00 -0.33595637565E+02  0.35507146321E+02  0.00000000000E+00 0.  1.
</event>
<event>
 7    1  0.4194672E-008  0.4614232E+02  0.7816164E-02  0.1320468E+00
        -11   -1    0    0    0    0  0.00000000000E+00  0.00000000000E+00  0.45593999997E+02  0.45594000000E+02  0.51100000000E-03 0. -1.
         11   -1    0    0    0    0 -0.00000000000E+00 -0.00000000000E+00 -0.45593999997E+02  0.45594000000E+02  0.51100000000E-03 0.  1.
    9900012    2    1    2    0    0 -0.28105650816E+02 -0.24550136651E+02  0.25228488530E+02  0.46142318177E+02  0.10000003795E+02 0.  0.
        -12    1    1    2    0    0  0.28105650816E+02  0.24550136651E+02 -0.25228488530E+02  0.45045681823E+02  0.00000000000E+00 0.  1.
         11    1    3    3    0    0 -0.11220508888E+02 -0.10423060713E+02  0.87298384662E+01  0.17628105237E+02  0.51100000000E-03 0. -1.
        -11    1    3    3    0    0 -0.41690634081E+01 -0.74656647473E+01  0.38346385991E+01  0.93713229198E+01  0.51100000000E-03 0.  1.
         12    1    3    3    0    0 -0.12716078520E+02 -0.66614111909E+01  0.12664011464E+02  0.19142890021E+02  0.00000000000E+00 0. -1.
</event>
<event>
 7    1  0.4194672E-008  0.4614232E+02  0.7816164E-02  0.1320468E+00
        -11   -1    0    0    0    0  0.00000000000E+00  0.00000000000E+00  0.45593999997E+02  0.45594000000E+02  0.51100000000E-03 0.  1.
         11   -1    0    0    0    0 -0.00000000000E+00 -0.00000000000E+00 -0.45593999997E+02  0.45594000000E+02  0.51100000000E-03 0. -1.
    9900012    2    1    2    0    0 -0.34396848927E+00  0.29994885247E+02 -0.33605087474E+02  0.46142319192E+02  0.10000013051E+02 0.  0.
        -12    1    1    2    0    0  0.34396848927E+00 -0.29994885247E+02  0.33605087474E+02  0.45045680808E+02  0.00000000000E+00 0.  1.
         11    1    3    3    0    0 -0.13072930607E+01  0.10541237752E+01 -0.26287228540E+01  0.31193550911E+01  0.51100000000E-03 0.  1.
        -11    1    3    3    0    0 -0.11144165764E+01  0.14652586859E+02 -0.10910824057E+02  0.18302631172E+02  0.51100000000E-03 0. -1.
        -12    1    3    3    0    0  0.20777411478E+01  0.14288174613E+02 -0.20065540563E+02  0.24720332929E+02  0.00000000000E+00 0.  1.
</event>
<event>
 7    1  0.4194672E-008  0.4614232E+02  0.7816164E-02  0.1320468E+00
        -11   -1    0    0    0    0  0.00000000000E+00  0.00000000000E+00  0.45593999997E+02  0.45594000000E+02  0.51100000000E-03 0.  1.
         11   -1    0    0    0    0 -0.00000000000E+00 -0.00000000000E+00 -0.45593999997E+02  0.45594000000E+02  0.51100000000E-03 0. -1.
    9900012    2    1    2    0    0 -0.16061702045E+02  0.34044626897E+02  0.24740625346E+02  0.46142318347E+02  0.10000005338E+02 0.  0.
        -12    1    1    2    0    0  0.16061702045E+02 -0.34044626897E+02 -0.24740625346E+02  0.45045681653E+02  0.00000000000E+00 0.  1.
         11    1    3    3    0    0 -0.14754069736E+00  0.59311756747E+01  0.37497547256E+01  0.70186376103E+01  0.51100000000E-03 0. -1.
        -11    1    3    3    0    0 -0.10733344155E+02  0.16965427842E+02  0.16666518323E+02  0.26092206727E+02  0.51100000000E-03 0.  1.
         12    1    3    3    0    0 -0.51808171933E+01  0.11148023380E+02  0.43243522973E+01  0.13031474009E+02  0.00000000000E+00 0. -1.
</event>
<event>
 7    1  0.4194672E-008  0.4614232E+02  0.7816164E-02  0.1320468E+00
        -11   -1    0    0    0    0  0.00000000000E+00  0.00000000000E+00  0.45593999997E+02  0.45594000000E+02  0.51100000000E-03 0.  1.
         11   -1    0    0    0    0 -0.00000000000E+00 -0.00000000000E+00 -0.45593999997E+02  0.45594000000E+02  0.51100000000E-03 0. -1.
    9900012    2    1    2    0    0  0.22171840745E+02  0.90306293608E+01 -0.38157183884E+02  0.46142317958E+02  0.10000001792E+02 0.  0.
        -12    1    1    2    0    0 -0.22171840745E+02 -0.90306293608E+01  0.38157183884E+02  0.45045682042E+02  0.00000000000E+00 0.  1.
         11    1    3    3    0    0  0.30432719213E+01  0.46611536119E+01 -0.11645575127E+02  0.12907644142E+02  0.51100000000E-03 0. -1.
        -11    1    3    3    0    0  0.82374149337E+01  0.35165621824E+01 -0.98742037037E+01  0.13331208250E+02  0.51100000000E-03 0.  1.
        -12    1    3    3    0    0  0.10891153890E+02  0.85291356653E+00 -0.16637405053E+02  0.19903465565E+02  0.00000000000E+00 0.  1.
</event>
<event>
 7    1  0.4194672E-008  0.4614232E+02  0.7816164E-02  0.1320468E+00
        -11   -1    0    0    0    0  0.00000000000E+00  0.00000000000E+00  0.45593999997E+02  0.45594000000E+02  0.51100000000E-03 0. -1.
         11   -1    0    0    0    0 -0.00000000000E+00 -0.00000000000E+00 -0.45593999997E+02  0.45594000000E+02  0.51100000000E-03 0.  1.
    9900012    2    1    2    0    0 -0.11107182336E+02  0.24244391709E+02  0.36303628742E+02  0.46142317758E+02  0.99999999713E+01 0.  0.
        -12    1    1    2    0    0  0.11107182336E+02 -0.24244391709E+02 -0.36303628742E+02  0.45045682242E+02  0.00000000000E+00 0.  1.
         11    1    3    3    0    0 -0.29936434130E+01  0.32635914983E+01  0.64683217408E+01  0.78391400521E+01  0.51100000000E-03 0. -1.
        -11    1    3    3    0    0 -0.12465056828E+01  0.15253438052E+00 -0.23016403779E-01  0.12560147971E+01  0.51100000000E-03 0.  1.
         12    1    3    3    0    0 -0.68670332404E+01  0.20828265831E+02  0.29858323405E+02  0.37047162909E+02  0.00000000000E+00 0. -1.
</event>
<event>
 7    1  0.4194672E-008  0.4614232E+02  0.7816164E-02  0.1320468E+00
        -11   -1    0    0    0    0  0.00000000000E+00  0.00000000000E+00  0.45593999997E+02  0.45594000000E+02  0.51100000000E-03 0.  1.
         11   -1    0    0    0    0 -0.00000000000E+00 -0.00000000000E+00 -0.45593999997E+02  0.45594000000E+02  0.51100000000E-03 0. -1.
    9900012    2    1    2    0    0 -0.13404488485E+02  0.40055773300E+02  0.15651458779E+02  0.46142318208E+02  0.10000004076E+02 0.  0.
        -12    1    1    2    0    0  0.13404488485E+02 -0.40055773300E+02 -0.15651458779E+02  0.45045681792E+02  0.00000000000E+00 0.  1.
         11    1    3    3    0    0 -0.21961368054E+01  0.38907561850E+01 -0.10941767646E+01  0.45998069104E+01  0.51100000000E-03 0. -1.
        -11    1    3    3    0    0 -0.25659965672E+01  0.12330252357E+02  0.43788258566E+01  0.13333925818E+02  0.51100000000E-03 0.  1.
         12    1    3    3    0    0 -0.86423551128E+01  0.23834764758E+02  0.12366809687E+02  0.28208585480E+02  0.00000000000E+00 0. -1.
</event>
<event>
 7    1  0.4194672E-008  0.4614232E+02  0.7816164E-02  0.1320468E+00
        -11   -1    0    0    0    0  0.00000000000E+00  0.00000000000E+00  0.45593999997E+02  0.45594000000E+02  0.51100000000E-03 0.  1.
         11   -1    0    0    0    0 -0.00000000000E+00 -0.00000000000E+00 -0.45593999997E+02  0.45594000000E+02  0.51100000000E-03 0. -1.
    9900012    2    1    2    0    0  0.14959545339E+02 -0.36898289543E+02 -0.21067550770E+02  0.46142318038E+02  0.10000002527E+02 0.  0.
        -12    1    1    2    0    0 -0.14959545339E+02  0.36898289543E+02  0.21067550770E+02  0.45045681962E+02  0.00000000000E+00 0.  1.
         11    1    3    3    0    0  0.77787016653E+01 -0.13214537633E+02 -0.11702886104E+02  0.19289627987E+02  0.51100000000E-03 0. -1.
        -11    1    3    3    0    0  0.15222459628E+00 -0.72701011674E+01 -0.34021554987E+01  0.80282131019E+01  0.51100000000E-03 0.  1.
        -12    1    3    3    0    0  0.70286190775E+01 -0.16413650743E+02 -0.59625091665E+01  0.18824476949E+02  0.00000000000E+00 0.  1.
</event>
<event>
 7    1  0.4194672E-008  0.4614232E+02  0.7816164E-02  0.1320468E+00
        -11   -1    0    0    0    0  0.00000000000E+00  0.00000000000E+00  0.45593999997E+02  0.45594000000E+02  0.51100000000E-03 0.  1.
         11   -1    0    0    0    0 -0.00000000000E+00 -0.00000000000E+00 -0.45593999997E+02  0.45594000000E+02  0.51100000000E-03 0. -1.
    9900012    2    1    2    0    0 -0.37389894323E+02  0.25086633261E+02 -0.13304426406E+01  0.46142318260E+02  0.10000004547E+02 0.  0.
        -12    1    1    2    0    0  0.37389894323E+02 -0.25086633261E+02  0.13304426406E+01  0.45045681740E+02  0.00000000000E+00 0.  1.
         11    1    3    3    0    0 -0.14702891524E+02  0.87525967278E+01 -0.30806223907E+01  0.17386005960E+02  0.51100000000E-03 0. -1.
        -11    1    3    3    0    0 -0.17283163609E+01 -0.50442790996E+00 -0.13412076454E+00  0.18054123076E+01  0.51100000000E-03 0.  1.
         12    1    3    3    0    0 -0.20958686438E+02  0.16838464443E+02  0.18843005147E+01  0.26950899993E+02  0.00000000000E+00 0. -1.
</event>
<event>
 7    1  0.4194672E-008  0.4614232E+02  0.7816164E-02  0.1320468E+00
        -11   -1    0    0    0    0  0.00000000000E+00  0.00000000000E+00  0.45593999997E+02  0.45594000000E+02  0.51100000000E-03 0.  1.
         11   -1    0    0    0    0 -0.00000000000E+00 -0.00000000000E+00 -0.45593999997E+02  0.45594000000E+02  0.51100000000E-03 0. -1.
    9900012    2    1    2    0    0  0.56701537499E+01 -0.34349829694E+01 -0.44555175612E+02  0.46142318461E+02  0.10000006380E+02 0.  0.
        -12    1    1    2    0    0 -0.56701537499E+01  0.34349829694E+01  0.44555175612E+02  0.45045681539E+02  0.00000000000E+00 0.  1.
         11    1    3    3    0    0  0.42852538485E+01  0.11616689211E+01 -0.12273666131E+02  0.13052040292E+02  0.51100000000E-03 0. -1.
        -11    1    3    3    0    0  0.74401126444E+00  0.11110172197E+01 -0.96089557450E+01  0.97015433202E+01  0.51100000000E-03 0.  1.
         12    1    3    3    0    0  0.64088863700E+00 -0.57076691101E+01 -0.22672553735E+02  0.23388734848E+02  0.00000000000E+00 0. -1.
</event>
<event>
 7    1  0.4194672E-008  0.4614232E+02  0.7816164E-02  0.1320468E+00
        -11   -1    0    0    0    0  0.00000000000E+00  0.00000000000E+00  0.45593999997E+02  0.45594000000E+02  0.51100000000E-03 0.  1.
         11   -1    0    0    0    0 -0.00000000000E+00 -0.00000000000E+00 -0.45593999997E+02  0.45594000000E+02  0.51100000000E-03 0. -1.
    9900012    2    1    2    0    0  0.22354558172E+02  0.25375117426E+02 -0.29757192661E+02  0.46142319069E+02  0.10000011924E+02 0.  0.
        -12    1    1    2    0    0 -0.22354558172E+02 -0.25375117426E+02  0.29757192661E+02  0.45045680931E+02  0.00000000000E+00 0.  1.
         11    1    3    3    0    0  0.30553196325E+01  0.19090775221E+01 -0.49257855444E+01  0.61026976439E+01  0.51100000000E-03 0. -1.
        -11    1    3    3    0    0  0.10288475959E+02  0.85333309158E+01 -0.14704782386E+02  0.19872118643E+02  0.51100000000E-03 0.  1.
        -12    1    3    3    0    0  0.90107625813E+01  0.14932708988E+02 -0.10126624731E+02  0.20167502782E+02  0.00000000000E+00 0.  1.
</event>
<event>
 7    1  0.4194672E-008  0.4614232E+02  0.7816164E-02  0.1320468E+00
        -11   -1    0    0    0    0  0.00000000000E+00  0.00000000000E+00  0.45593999997E+02  0.45594000000E+02  0.51100000000E-03 0.  1.
         11   -1    0    0    0    0 -0.00000000000E+00 -0.00000000000E+00 -0.45593999997E+02  0.45594000000E+02  0.51100000000E-03 0. -1.
    9900012    2    1    2    0    0  0.15715433861E+02  0.41590331496E+02 -0.72376064475E+01  0.46142317826E+02  0.10000000595E+02 0.  0.
        -12    1    1    2    0    0 -0.15715433861E+02 -0.41590331496E+02  0.72376064475E+01  0.45045682174E+02  0.00000000000E+00 0.  1.
         11    1    3    3    0    0  0.50645998615E+00  0.61904504503E+01 -0.93833426630E+00  0.62816120503E+01  0.51100000000E-03 0. -1.
        -11    1    3    3    0    0  0.66942354419E+01  0.22348953166E+02 -0.66987794224E+01  0.24272662437E+02  0.51100000000E-03 0.  1.
         12    1    3    3    0    0  0.85147384325E+01  0.13050927880E+02  0.39950724112E+00  0.15588043339E+02  0.00000000000E+00 0. -1.
</event>
<event>
 7    1  0.4194672E-008  0.4614232E+02  0.7816164E-02  0.1320468E+00
        -11   -1    0    0    0    0  0.00000000000E+00  0.00000000000E+00  0.45593999997E+02  0.45594000000E+02  0.51100000000E-03 0.  1.
         11   -1    0    0    0    0 -0.00000000000E+00 -0.00000000000E+00 -0.45593999997E+02  0.45594000000E+02  0.51100000000E-03 0. -1.
    9900012    2    1    2    0    0  0.44557415860E+02  0.35860612925E+00  0.66046597240E+01  0.46142318337E+02  0.10000005249E+02 0.  0.
        -12    1    1    2    0    0 -0.44557415860E+02 -0.35860612925E+00 -0.66046597240E+01  0.45045681663E+02  0.00000000000E+00 0.  1.
         11    1    3    3    0    0  0.59917567317E+01 -0.13303242954E+01  0.66172910773E+00  0.61732323086E+01  0.51100000000E-03 0. -1.
        -11    1    3    3    0    0  0.78260140877E+00 -0.13871026891E+01  0.51828023030E+00  0.16748532752E+01  0.51100000000E-03 0.  1.
         12    1    3    3    0    0  0.37783057719E+02  0.30760331138E+01  0.54246503860E+01  0.38294232753E+02  0.00000000000E+00 0. -1.
</event>
<event>
 7    1  0.4194672E-008  0.4614232E+02  0.7816164E-02  0.1320468E+00
        -11   -1    0    0    0    0  0.00000000000E+00  0.00000000000E+00  0.45593999997E+02  0.45594000000E+02  0.51100000000E-03 0. -1.
         11   -1    0    0    0    0 -0.00000000000E+00 -0.00000000000E+00 -0.45593999997E+02  0.45594000000E+02  0.51100000000E-03 0.  1.
    9900012    2    1    2    0    0 -0.30881242216E+02  0.20207840248E+02  0.25828385011E+02  0.46142318735E+02  0.10000008882E+02 0.  0.
        -12    1    1    2    0    0  0.30881242216E+02 -0.20207840248E+02 -0.25828385011E+02  0.45045681265E+02  0.00000000000E+00 0.  1.
         11    1    3    3    0    0 -0.96959494481E+01  0.46944453016E+01  0.53540356919E+01  0.12029752734E+02  0.51100000000E-03 0. -1.
        -11    1    3    3    0    0 -0.18353273009E+02  0.98948271460E+01  0.14199543549E+02  0.25226519214E+02  0.51100000000E-03 0.  1.
         12    1    3    3    0    0 -0.28320197595E+01  0.56185678005E+01  0.62748057706E+01  0.88860467873E+01  0.00000000000E+00 0. -1.
</event>
<event>
 7    1  0.4194672E-008  0.4614232E+02  0.7816164E-02  0.1320468E+00
        -11   -1    0    0    0    0  0.00000000000E+00  0.00000000000E+00  0.45593999997E+02  0.45594000000E+02  0.51100000000E-03 0. -1.
         11   -1    0    0    0    0 -0.00000000000E+00 -0.00000000000E+00 -0.45593999997E+02  0.45594000000E+02  0.51100000000E-03 0.  1.
    9900012    2    1    2    0    0  0.28052630030E+02 -0.95766599835E+01  0.33918300333E+02  0.46142316905E+02  0.99999921893E+01 0.  0.
        -12    1    1    2    0    0 -0.28052630030E+02  0.95766599835E+01 -0.33918300333E+02  0.45045683095E+02  0.00000000000E+00 0.  1.
         11    1    3    3    0    0  0.15868266730E+02 -0.25377243442E+01  0.20564713890E+02  0.26098838892E+02  0.51100000000E-03 0. -1.
        -11    1    3    3    0    0  0.73701622849E+01 -0.29643051971E+01  0.43689433957E+01  0.90660942011E+01  0.51100000000E-03 0.  1.
        -12    1    3    3    0    0  0.48142010145E+01 -0.40746304422E+01  0.89846430482E+01  0.10977383812E+02  0.00000000000E+00 0.  1.
</event>
<event>
 7    1  0.4194672E-008  0.4614232E+02  0.7816164E-02  0.1320468E+00
        -11   -1    0    0    0    0  0.00000000000E+00  0.00000000000E+00  0.45593999997E+02  0.45594000000E+02  0.51100000000E-03 0. -1.
         11   -1    0    0    0    0 -0.00000000000E+00 -0.00000000000E+00 -0.45593999997E+02  0.45594000000E+02  0.51100000000E-03 0.  1.
    9900012    2    1    2    0    0  0.42382285796E+02 -0.16305741724E+01  0.15172231706E+02  0.46142317228E+02  0.99999951415E+01 0.  0.
        -12    1    1    2    0    0 -0.42382285796E+02  0.16305741724E+01 -0.15172231706E+02  0.45045682772E+02  0.00000000000E+00 0.  1.
         11    1    3    3    0    0  0.24201939736E+02  0.14625326041E+01  0.11174241547E+02  0.26697126493E+02  0.51100000000E-03 0. -1.
        -11    1    3    3    0    0  0.69901297349E+01 -0.34596048688E+01  0.22154928056E+01  0.81079706580E+01  0.51100000000E-03 0.  1.
        -12    1    3    3    0    0  0.11190216325E+02  0.36649809232E+00  0.17824973541E+01  0.11337220077E+02  0.00000000000E+00 0.  1.
</event>
<event>
 7    1  0.4194672E-008  0.4614232E+02  0.7816164E-02  0.1320468E+00
        -11   -1    0    0    0    0  0.00000000000E+00  0.00000000000E+00  0.45593999997E+02  0.45594000000E+02  0.51100000000E-03 0.  1.
         11   -1    0    0    0    0 -0.00000000000E+00 -0.00000000000E+00 -0.45593999997E+02  0.45594000000E+02  0.51100000000E-03 0. -1.
    9900012    2    1    2    0    0  0.14734464896E+02 -0.66080887248E+01 -0.42051655198E+02  0.46142323212E+02  0.10000049709E+02 0.  0.
        -12    1    1    2    0    0 -0.14734464896E+02  0.66080887248E+01  0.42051655198E+02  0.45045676788E+02  0.00000000000E+00 0.  1.
         11    1    3    3    0    0  0.52416609561E+01 -0.11760368808E+01 -0.20311022056E+02  0.21009419068E+02  0.51100000000E-03 0. -1.
        -11    1    3    3    0    0  0.64566970566E+01 -0.80917196036E-01 -0.11199680316E+02  0.12927812031E+02  0.51100000000E-03 0.  1.
         12    1    3    3    0    0  0.30361068833E+01 -0.53511346480E+01 -0.10540952825E+02  0.12205092113E+02  0.00000000000E+00 0. -1.
</event>
<event>
 7    1  0.4194672E-008  0.4614232E+02  0.7816164E-02  0.1320468E+00
        -11   -1    0    0    0    0  0.00000000000E+00  0.00000000000E+00  0.45593999997E+02  0.45594000000E+02  0.51100000000E-03 0. -1.
         11   -1    0    0    0    0 -0.00000000000E+00 -0.00000000000E+00 -0.45593999997E+02  0.45594000000E+02  0.51100000000E-03 0.  1.
    9900012    2    1    2    0    0  0.16064285036E+02  0.23762357176E+01  0.42016730826E+02  0.46142318529E+02  0.10000007002E+02 0.  0.
        -12    1    1    2    0    0 -0.16064285036E+02 -0.23762357176E+01 -0.42016730826E+02  0.45045681471E+02  0.00000000000E+00 0.  1.
         11    1    3    3    0    0 -0.80613618044E+00  0.14115074552E+01  0.50359389203E+01  0.52917756857E+01  0.51100000000E-03 0. -1.
        -11    1    3    3    0    0  0.14719105553E+01 -0.10074921015E+01  0.48055433949E+01  0.51258958826E+01  0.51100000000E-03 0.  1.
         12    1    3    3    0    0  0.15398510661E+02  0.19722203640E+01  0.32175248510E+02  0.35724646961E+02  0.00000000000E+00 0. -1.
</event>
<event>
 7    1  0.4194672E-008  0.4614232E+02  0.7816164E-02  0.1320468E+00
        -11   -1    0    0    0    0  0.00000000000E+00  0.00000000000E+00  0.45593999997E+02  0.45594000000E+02  0.51100000000E-03 0. -1.
         11   -1    0    0    0    0 -0.00000000000E+00 -0.00000000000E+00 -0.45593999997E+02  0.45594000000E+02  0.51100000000E-03 0.  1.
    9900012    2    1    2    0    0  0.13756184768E+00  0.43948154514E+02  0.98820173831E+01  0.46142317899E+02  0.10000001255E+02 0.  0.
        -12    1    1    2    0    0 -0.13756184768E+00 -0.43948154514E+02 -0.98820173831E+01  0.45045682101E+02  0.00000000000E+00 0.  1.
         11    1    3    3    0    0 -0.22873844056E+01  0.96920102086E+01  0.28700375210E+01  0.10363604823E+02  0.51100000000E-03 0. -1.
        -11    1    3    3    0    0  0.75851153913E+00  0.15428644516E+02 -0.46040868217E+00  0.15454138208E+02  0.51100000000E-03 0.  1.
         12    1    3    3    0    0  0.16664347141E+01  0.18827499789E+02  0.74723885442E+01  0.20324574867E+02  0.00000000000E+00 0. -1.
</event>
<event>
 7    1  0.4194672E-008  0.4614232E+02  0.7816164E-02  0.1320468E+00
        -11   -1    0    0    0    0  0.00000000000E+00  0.00000000000E+00  0.45593999997E+02  0.45594000000E+02  0.51100000000E-03 0. -1.
         11   -1    0    0    0    0 -0.00000000000E+00 -0.00000000000E+00 -0.45593999997E+02  0.45594000000E+02  0.51100000000E-03 0.  1.
    9900012    2    1    2    0    0 -0.20009999692E+02  0.20690398182E+02  0.34649975666E+02  0.46142317874E+02  0.10000001028E+02 0.  0.
        -12    1    1    2    0    0  0.20009999692E+02 -0.20690398182E+02 -0.34649975666E+02  0.45045682126E+02  0.00000000000E+00 0.  1.
         11    1    3    3    0    0 -0.36974229754E+01  0.64950767341E+01  0.73551370909E+01  0.10485942987E+02  0.51100000000E-03 0. -1.
        -11    1    3    3    0    0 -0.15349593448E+02  0.10114129177E+02  0.19455879179E+02  0.26766338243E+02  0.51100000000E-03 0.  1.
         12    1    3    3    0    0 -0.96298326827E+00  0.40811922704E+01  0.78389593960E+01  0.88900366442E+01  0.00000000000E+00 0. -1.
</event>
<event>
 7    1  0.4194672E-008  0.4614232E+02  0.7816164E-02  0.1320468E+00
        -11   -1    0    0    0    0  0.00000000000E+00  0.00000000000E+00  0.45593999997E+02  0.45594000000E+02  0.51100000000E-03 0. -1.
         11   -1    0    0    0    0 -0.00000000000E+00 -0.00000000000E+00 -0.45593999997E+02  0.45594000000E+02  0.51100000000E-03 0.  1.
    9900012    2    1    2    0    0  0.26552269266E+02 -0.28963391194E+02  0.22027539627E+02  0.46142317247E+02  0.99999953135E+01 0.  0.
        -12    1    1    2    0    0 -0.26552269266E+02  0.28963391194E+02 -0.22027539627E+02  0.45045682753E+02  0.00000000000E+00 0.  1.
         11    1    3    3    0    0  0.15833428306E+02 -0.20854256410E+02  0.13964013994E+02  0.29674756097E+02  0.51100000000E-03 0. -1.
        -11    1    3    3    0    0  0.80644947076E+01 -0.84200728413E+01  0.69420555724E+01  0.13569297601E+02  0.51100000000E-03 0.  1.
        -12    1    3    3    0    0  0.26543462530E+01  0.31093805725E+00  0.11214700599E+01  0.28982635493E+01  0.00000000000E+00 0.  1.
</event>
<event>
 7    1  0.4194672E-008  0.4614232E+02  0.7816164E-02  0.1320468E+00
        -11   -1    0    0    0    0  0.00000000000E+00  0.00000000000E+00  0.45593999997E+02  0.45594000000E+02  0.51100000000E-03 0. -1.
         11   -1    0    0    0    0 -0.00000000000E+00 -0.00000000000E+00 -0.45593999997E+02  0.45594000000E+02  0.51100000000E-03 0.  1.
    9900012    2    1    2    0    0  0.36135895150E+02  0.75528959119E+01  0.25812097491E+02  0.46142317278E+02  0.99999955974E+01 0.  0.
        -12    1    1    2    0    0 -0.36135895150E+02 -0.75528959119E+01 -0.25812097491E+02  0.45045682722E+02  0.00000000000E+00 0.  1.
         11    1    3    3    0    0  0.21043741025E+02  0.66697522710E+01  0.16233393212E+02  0.27401600083E+02  0.51100000000E-03 0. -1.
        -11    1    3    3    0    0  0.95026365243E+01 -0.12596360189E+01  0.81603581025E+01  0.12588813623E+02  0.51100000000E-03 0.  1.
         12    1    3    3    0    0  0.55895176009E+01  0.21427796598E+01  0.14183461765E+01  0.61519035719E+01  0.00000000000E+00 0. -1.
</event>
<event>
 7    1  0.4194672E-008  0.4614232E+02  0.7816164E-02  0.1320468E+00
        -11   -1    0    0    0    0  0.00000000000E+00  0.00000000000E+00  0.45593999997E+02  0.45594000000E+02  0.51100000000E-03 0.  1.
         11   -1    0    0    0    0 -0.00000000000E+00 -0.00000000000E+00 -0.45593999997E+02  0.45594000000E+02  0.51100000000E-03 0. -1.
    9900012    2    1    2    0    0  0.11115636821E+02 -0.32906925361E+02 -0.28682579466E+02  0.46142317815E+02  0.10000000490E+02 0.  0.
        -12    1    1    2    0    0 -0.11115636821E+02  0.32906925361E+02  0.28682579466E+02  0.45045682185E+02  0.00000000000E+00 0.  1.
         11    1    3    3    0    0  0.12211391539E+02 -0.23793387905E+02 -0.19740562952E+02  0.33240535754E+02  0.51100000000E-03 0. -1.
        -11    1    3    3    0    0 -0.13590002654E+01 -0.50947238539E+01 -0.50906704384E+01  0.73292577142E+01  0.51100000000E-03 0.  1.
         12    1    3    3    0    0  0.26324554773E+00 -0.40188136020E+01 -0.38513460766E+01  0.55725243461E+01  0.00000000000E+00 0. -1.
</event>
<event>
 7    1  0.4194672E-008  0.4614232E+02  0.7816164E-02  0.1320468E+00
        -11   -1    0    0    0    0  0.00000000000E+00  0.00000000000E+00  0.45593999997E+02  0.45594000000E+02  0.51100000000E-03 0. -1.
         11   -1    0    0    0    0 -0.00000000000E+00 -0.00000000000E+00 -0.45593999997E+02  0.45594000000E+02  0.51100000000E-03 0.  1.
    9900012    2    1    2    0    0 -0.16401355448E+02  0.14364749238E+02  0.39417800657E+02  0.46142317744E+02  0.99999998460E+01 0.  0.
        -12    1    1    2    0    0  0.16401355448E+02 -0.14364749238E+02 -0.39417800657E+02  0.45045682256E+02  0.00000000000E+00 0.  1.
         11    1    3    3    0    0 -0.43982877644E+01  0.32904471378E+01  0.45565491678E+01  0.71368142896E+01  0.51100000000E-03 0. -1.
        -11    1    3    3    0    0 -0.82405714302E+01  0.44256175024E+01  0.23710349510E+02  0.25488699102E+02  0.51100000000E-03 0.  1.
         12    1    3    3    0    0 -0.37624962538E+01  0.66486845979E+01  0.11150901980E+02  0.13516804353E+02  0.00000000000E+00 0. -1.
</event>
<event>
 7    1  0.4194672E-008  0.4614232E+02  0.7816164E-02  0.1320468E+00
        -11   -1    0    0    0    0  0.00000000000E+00  0.00000000000E+00  0.45593999997E+02  0.45594000000E+02  0.51100000000E-03 0. -1.
         11   -1    0    0    0    0 -0.00000000000E+00 -0.00000000000E+00 -0.45593999997E+02  0.45594000000E+02  0.51100000000E-03 0.  1.
    9900012    2    1    2    0    0  0.84621347249E+01  0.36609829614E+00  0.44242193629E+02  0.46142318196E+02  0.10000003966E+02 0.  0.
        -12    1    1    2    0    0 -0.84621347249E+01 -0.36609829614E+00 -0.44242193629E+02  0.45045681804E+02  0.00000000000E+00 0.  1.
         11    1    3    3    0    0  0.16100117127E+01  0.10971939916E+01  0.72202010348E+01  0.74784540925E+01  0.51100000000E-03 0.  1.
        -11    1    3    3    0    0  0.85480513788E+01  0.76186823915E+00  0.25016010263E+02  0.26447124520E+02  0.51100000000E-03 0. -1.
        -12    1    3    3    0    0 -0.16959283666E+01 -0.14929639346E+01  0.12005982331E+02  0.12216739584E+02  0.00000000000E+00 0.  1.
</event>
<event>
 7    1  0.4194672E-008  0.4614232E+02  0.7816164E-02  0.1320468E+00
        -11   -1    0    0    0    0  0.00000000000E+00  0.00000000000E+00  0.45593999997E+02  0.45594000000E+02  0.51100000000E-03 0. -1.
         11   -1    0    0    0    0 -0.00000000000E+00 -0.00000000000E+00 -0.45593999997E+02  0.45594000000E+02  0.51100000000E-03 0.  1.
    9900012    2    1    2    0    0  0.32784595945E+02 -0.14742982845E+02 -0.27146416325E+02  0.46142321031E+02  0.10000029822E+02 0.  0.
        -12    1    1    2    0    0 -0.32784595945E+02  0.14742982845E+02  0.27146416325E+02  0.45045678969E+02  0.00000000000E+00 0.  1.
         11    1    3    3    0    0  0.26083263352E+02 -0.10764799462E+02 -0.21431942223E+02  0.35433680055E+02  0.51100000000E-03 0. -1.
        -11    1    3    3    0    0  0.67619305875E+01 -0.39158693654E+01 -0.63490274943E+01  0.10068162123E+02  0.51100000000E-03 0.  1.
        -12    1    3    3    0    0 -0.60597994454E-01 -0.62314017828E-01  0.63455339218E+00  0.64047885311E+00  0.00000000000E+00 0.  1.
</event>
<event>
 7    1  0.4194672E-008  0.4614232E+02  0.7816164E-02  0.1320468E+00
        -11   -1    0    0    0    0  0.00000000000E+00  0.00000000000E+00  0.45593999997E+02  0.45594000000E+02  0.51100000000E-03 0.  1.
         11   -1    0    0    0    0 -0.00000000000E+00 -0.00000000000E+00 -0.45593999997E+02  0.45594000000E+02  0.51100000000E-03 0. -1.
    9900012    2    1    2    0    0 -0.37220044218E+02  0.24797862348E+02  0.53710114564E+01  0.46142318379E+02  0.10000005635E+02 0.  0.
        -12    1    1    2    0    0  0.37220044218E+02 -0.24797862348E+02 -0.53710114564E+01  0.45045681621E+02  0.00000000000E+00 0.  1.
         11    1    3    3    0    0 -0.34008028565E+01  0.18192243806E+01 -0.20718816036E+01  0.43780967390E+01  0.51100000000E-03 0. -1.
        -11    1    3    3    0    0 -0.13042448849E+02  0.73446212863E+01  0.42963364496E+01  0.15572650415E+02  0.51100000000E-03 0.  1.
         12    1    3    3    0    0 -0.20776792513E+02  0.15634016681E+02  0.31465566104E+01  0.26191571225E+02  0.00000000000E+00 0. -1.
</event>
<event>
 7    1  0.4194672E-008  0.4614232E+02  0.7816164E-02  0.1320468E+00
        -11   -1    0    0    0    0  0.00000000000E+00  0.00000000000E+00  0.45593999997E+02  0.45594000000E+02  0.51100000000E-03 0. -1.
         11   -1    0    0    0    0 -0.00000000000E+00 -0.00000000000E+00 -0.45593999997E+02  0.45594000000E+02  0.51100000000E-03 0.  1.
    9900012    2    1    2    0    0 -0.29597238856E+02  0.20509101886E+02  0.27064621213E+02  0.46142317305E+02  0.99999958403E+01 0.  0.
        -12    1    1    2    0    0  0.29597238856E+02 -0.20509101886E+02 -0.27064621213E+02  0.45045682695E+02  0.00000000000E+00 0.  1.
         11    1    3    3    0    0 -0.12585982340E+02  0.82078082471E+01  0.13260962903E+02  0.20040663788E+02  0.51100000000E-03 0. -1.
        -11    1    3    3    0    0 -0.83736281469E+01  0.23591569217E+01  0.75640106186E+01  0.11528118954E+02  0.51100000000E-03 0.  1.
        -12    1    3    3    0    0 -0.86376283693E+01  0.99421367168E+01  0.62396476914E+01  0.14573534563E+02  0.00000000000E+00 0.  1.
</event>
<event>
 7    1  0.4194672E-008  0.4614232E+02  0.7816164E-02  0.1320468E+00
        -11   -1    0    0    0    0  0.00000000000E+00  0.00000000000E+00  0.45593999997E+02  0.45594000000E+02  0.51100000000E-03 0. -1.
         11   -1    0    0    0    0 -0.00000000000E+00 -0.00000000000E+00 -0.45593999997E+02  0.45594000000E+02  0.51100000000E-03 0.  1.
    9900012    2    1    2    0    0 -0.29120583144E+02  0.29594755562E+00  0.34365935508E+02  0.46142317955E+02  0.10000001765E+02 0.  0.
        -12    1    1    2    0    0  0.29120583144E+02 -0.29594755562E+00 -0.34365935508E+02  0.45045682045E+02  0.00000000000E+00 0.  1.
         11    1    3    3    0    0 -0.26042622797E+01 -0.10927440640E+01  0.44265547773E+01  0.52507769966E+01  0.51100000000E-03 0. -1.
        -11    1    3    3    0    0 -0.23790369575E+02  0.20282482047E+00  0.21961973834E+02  0.32378250684E+02  0.51100000000E-03 0.  1.
        -12    1    3    3    0    0 -0.27259512898E+01  0.11858667991E+01  0.79774068966E+01  0.85132902742E+01  0.00000000000E+00 0.  1.
</event>
<event>
 7    1  0.4194672E-008  0.4614232E+02  0.7816164E-02  0.1320468E+00
        -11   -1    0    0    0    0  0.00000000000E+00  0.00000000000E+00  0.45593999997E+02  0.45594000000E+02  0.51100000000E-03 0.  1.
         11   -1    0    0    0    0 -0.00000000000E+00 -0.00000000000E+00 -0.45593999997E+02  0.45594000000E+02  0.51100000000E-03 0. -1.
    9900012    2    1    2    0    0  0.15443101148E+02 -0.35475705786E+02 -0.23067252298E+02  0.46142320933E+02  0.10000028920E+02 0.  0.
        -12    1    1    2    0    0 -0.15443101148E+02  0.35475705786E+02  0.23067252298E+02  0.45045679067E+02  0.00000000000E+00 0.  1.
         11    1    3    3    0    0  0.12028326032E+02 -0.24212815168E+02 -0.17210395242E+02  0.32049005447E+02  0.51100000000E-03 0. -1.
        -11    1    3    3    0    0 -0.20979550484E+00 -0.90751172658E+00 -0.24249581288E+01  0.25976939534E+01  0.51100000000E-03 0.  1.
         12    1    3    3    0    0  0.36245706205E+01 -0.10355378892E+02 -0.34318989273E+01  0.11495621533E+02  0.00000000000E+00 0. -1.
</event>
<event>
 7    1  0.4194672E-008  0.4614232E+02  0.7816164E-02  0.1320468E+00
        -11   -1    0    0    0    0  0.00000000000E+00  0.00000000000E+00  0.45593999997E+02  0.45594000000E+02  0.51100000000E-03 0.  1.
         11   -1    0    0    0    0 -0.00000000000E+00 -0.00000000000E+00 -0.45593999997E+02  0.45594000000E+02  0.51100000000E-03 0. -1.
    9900012    2    1    2    0    0  0.64066172660E+01  0.45708773538E+01 -0.44352855998E+02  0.46142317635E+02  0.99999988470E+01 0.  0.
        -12    1    1    2    0    0 -0.64066172660E+01 -0.45708773538E+01  0.44352855998E+02  0.45045682365E+02  0.00000000000E+00 0.  1.
         11    1    3    3    0    0  0.18534023336E+01 -0.19617054555E+01 -0.42816359158E+01  0.50612048843E+01  0.51100000000E-03 0. -1.
        -11    1    3    3    0    0 -0.84373722446E+00  0.11746094894E+01 -0.61127722345E+01  0.62815272513E+01  0.51100000000E-03 0.  1.
        -12    1    3    3    0    0  0.53969521569E+01  0.53579733200E+01 -0.33958447848E+02  0.34799585499E+02  0.00000000000E+00 0.  1.
</event>
<event>
 7    1  0.4194672E-008  0.4614232E+02  0.7816164E-02  0.1320468E+00
        -11   -1    0    0    0    0  0.00000000000E+00  0.00000000000E+00  0.45593999997E+02  0.45594000000E+02  0.51100000000E-03 0. -1.
         11   -1    0    0    0    0 -0.00000000000E+00 -0.00000000000E+00 -0.45593999997E+02  0.45594000000E+02  0.51100000000E-03 0.  1.
    9900012    2    1    2    0    0 -0.33287855124E+02  0.21008538470E+02  0.21901451510E+02  0.46142316903E+02  0.99999921771E+01 0.  0.
        -12    1    1    2    0    0  0.33287855124E+02 -0.21008538470E+02 -0.21901451510E+02  0.45045683097E+02  0.00000000000E+00 0.  1.
         11    1    3    3    0    0 -0.27560225638E+01  0.95585375066E+00  0.19120183796E+00  0.29233328871E+01  0.51100000000E-03 0. -1.
        -11    1    3    3    0    0 -0.27760158801E+01  0.25169791547E+01 -0.19282446185E+00  0.37521500191E+01  0.51100000000E-03 0.  1.
         12    1    3    3    0    0 -0.27755816681E+02  0.17535705564E+02  0.21903074134E+02  0.39466833997E+02  0.00000000000E+00 0. -1.
</event>
<event>
 7    1  0.4194672E-008  0.4614232E+02  0.7816164E-02  0.1320468E+00
        -11   -1    0    0    0    0  0.00000000000E+00  0.00000000000E+00  0.45593999997E+02  0.45594000000E+02  0.51100000000E-03 0.  1.
         11   -1    0    0    0    0 -0.00000000000E+00 -0.00000000000E+00 -0.45593999997E+02  0.45594000000E+02  0.51100000000E-03 0. -1.
    9900012    2    1    2    0    0 -0.29821619120E+02  0.32724129240E+02  0.83015629185E+01  0.46142317095E+02  0.99999939264E+01 0.  0.
        -12    1    1    2    0    0  0.29821619120E+02 -0.32724129240E+02 -0.83015629185E+01  0.45045682905E+02  0.00000000000E+00 0.  1.
         11    1    3    3    0    0 -0.67153871544E+01  0.24194668995E+01  0.24255451135E+01  0.75388005724E+01  0.51100000000E-03 0. -1.
        -11    1    3    3    0    0 -0.61555952865E+01  0.93933530465E+01  0.14580583447E+01  0.11324856255E+02  0.51100000000E-03 0.  1.
         12    1    3    3    0    0 -0.16950636679E+02  0.20911309294E+02  0.44179594603E+01  0.27278660268E+02  0.00000000000E+00 0. -1.
</event>
<event>
 7    1  0.4194672E-008  0.4614232E+02  0.7816164E-02  0.1320468E+00
        -11   -1    0    0    0    0  0.00000000000E+00  0.00000000000E+00  0.45593999997E+02  0.45594000000E+02  0.51100000000E-03 0.  1.
         11   -1    0    0    0    0 -0.00000000000E+00 -0.00000000000E+00 -0.45593999997E+02  0.45594000000E+02  0.51100000000E-03 0. -1.
    9900012    2    1    2    0    0  0.38985155265E+02  0.12047051386E+02 -0.19082445832E+02  0.46142317443E+02  0.99999971002E+01 0.  0.
        -12    1    1    2    0    0 -0.38985155265E+02 -0.12047051386E+02  0.19082445832E+02  0.45045682557E+02  0.00000000000E+00 0.  1.
         11    1    3    3    0    0  0.14890393458E+02  0.49724655952E+01 -0.12058528328E+02  0.19795386764E+02  0.51100000000E-03 0. -1.
        -11    1    3    3    0    0  0.69347085054E+01  0.26450954166E+01 -0.37829169468E+01  0.83304965462E+01  0.51100000000E-03 0.  1.
         12    1    3    3    0    0  0.17160053301E+02  0.44294903739E+01 -0.32410005574E+01  0.18016434133E+02  0.00000000000E+00 0. -1.
</event>
<event>
 7    1  0.4194672E-008  0.4614232E+02  0.7816164E-02  0.1320468E+00
        -11   -1    0    0    0    0  0.00000000000E+00  0.00000000000E+00  0.45593999997E+02  0.45594000000E+02  0.51100000000E-03 0.  1.
         11   -1    0    0    0    0 -0.00000000000E+00 -0.00000000000E+00 -0.45593999997E+02  0.45594000000E+02  0.51100000000E-03 0. -1.
    9900012    2    1    2    0    0  0.41397668048E+02  0.38462541799E+01  0.17336462608E+02  0.46142317335E+02  0.99999961122E+01 0.  0.
        -12    1    1    2    0    0 -0.41397668048E+02 -0.38462541799E+01 -0.17336462608E+02  0.45045682665E+02  0.00000000000E+00 0.  1.
         11    1    3    3    0    0  0.35972928124E+01 -0.93747120626E+00 -0.42418615565E+00  0.37415641109E+01  0.51100000000E-03 0. -1.
        -11    1    3    3    0    0  0.10277025635E+02  0.18862968657E+00  0.72687513606E+01  0.12589185187E+02  0.51100000000E-03 0.  1.
         12    1    3    3    0    0  0.27523349600E+02  0.45950956996E+01  0.10491897403E+02  0.29811568037E+02  0.00000000000E+00 0. -1.
</event>
<event>
 7    1  0.4194672E-008  0.4614232E+02  0.7816164E-02  0.1320468E+00
        -11   -1    0    0    0    0  0.00000000000E+00  0.00000000000E+00  0.45593999997E+02  0.45594000000E+02  0.51100000000E-03 0.  1.
         11   -1    0    0    0    0 -0.00000000000E+00 -0.00000000000E+00 -0.45593999997E+02  0.45594000000E+02  0.51100000000E-03 0. -1.
    9900012    2    1    2    0    0 -0.31545164686E+02  0.15247732335E+02 -0.28311171469E+02  0.46142321113E+02  0.10000030563E+02 0.  0.
        -12    1    1    2    0    0  0.31545164686E+02 -0.15247732335E+02  0.28311171469E+02  0.45045678887E+02  0.00000000000E+00 0.  1.
         11    1    3    3    0    0 -0.22219660260E+02  0.87326571380E+01 -0.20978060284E+02  0.31781309229E+02  0.51100000000E-03 0. -1.
        -11    1    3    3    0    0 -0.91478153761E+01  0.68293625220E+01 -0.77587062403E+01  0.13802906991E+02  0.51100000000E-03 0.  1.
        -12    1    3    3    0    0 -0.17768905015E+00 -0.31428732521E+00  0.42559505461E+00  0.55810489323E+00  0.00000000000E+00 0.  1.
</event>
<event>
 7    1  0.4194672E-008  0.4614232E+02  0.7816164E-02  0.1320468E+00
        -11   -1    0    0    0    0  0.00000000000E+00  0.00000000000E+00  0.45593999997E+02  0.45594000000E+02  0.51100000000E-03 0.  1.
         11   -1    0    0    0    0 -0.00000000000E+00 -0.00000000000E+00 -0.45593999997E+02  0.45594000000E+02  0.51100000000E-03 0. -1.
    9900012    2    1    2    0    0 -0.25991633559E+02  0.12359806913E+02 -0.34652326745E+02  0.46142316624E+02  0.99999896300E+01 0.  0.
        -12    1    1    2    0    0  0.25991633559E+02 -0.12359806913E+02  0.34652326745E+02  0.45045683376E+02  0.00000000000E+00 0.  1.
         11    1    3    3    0    0 -0.10549599014E+02  0.50926149802E+01 -0.77573226043E+01  0.14050082596E+02  0.51100000000E-03 0. -1.
        -11    1    3    3    0    0 -0.14150832237E+02  0.53846037351E+01 -0.22198465773E+02  0.26870278996E+02  0.51100000000E-03 0.  1.
        -12    1    3    3    0    0 -0.12912023077E+01  0.18825881974E+01 -0.46965383673E+01  0.52219550320E+01  0.00000000000E+00 0.  1.
</event>
<event>
 7    1  0.4194672E-008  0.4614232E+02  0.7816164E-02  0.1320468E+00
        -11   -1    0    0    0    0  0.00000000000E+00  0.00000000000E+00  0.45593999997E+02  0.45594000000E+02  0.51100000000E-03 0.  1.
         11   -1    0    0    0    0 -0.00000000000E+00 -0.00000000000E+00 -0.45593999997E+02  0.45594000000E+02  0.51100000000E-03 0. -1.
    9900012    2    1    2    0    0 -0.18240748509E+02  0.40973050964E+02 -0.41949574254E+01  0.46142317862E+02  0.10000000923E+02 0.  0.
        -12    1    1    2    0    0  0.18240748509E+02 -0.40973050964E+02  0.41949574254E+01  0.45045682138E+02  0.00000000000E+00 0.  1.
         11    1    3    3    0    0 -0.17121886160E+02  0.33806612689E+02 -0.43245575839E+01  0.38141156848E+02  0.51100000000E-03 0. -1.
        -11    1    3    3    0    0 -0.12735323193E-01  0.34432347538E+01 -0.15418946459E+01  0.37727267484E+01  0.51100000000E-03 0.  1.
        -12    1    3    3    0    0 -0.11061270255E+01  0.37232035212E+01  0.16714948044E+01  0.42284342655E+01  0.00000000000E+00 0.  1.
</event>
<event>
 7    1  0.4194672E-008  0.4614232E+02  0.7816164E-02  0.1320468E+00
        -11   -1    0    0    0    0  0.00000000000E+00  0.00000000000E+00  0.45593999997E+02  0.45594000000E+02  0.51100000000E-03 0.  1.
         11   -1    0    0    0    0 -0.00000000000E+00 -0.00000000000E+00 -0.45593999997E+02  0.45594000000E+02  0.51100000000E-03 0. -1.
    9900012    2    1    2    0    0 -0.12361407385E+02  0.33681795311E+02 -0.27236844882E+02  0.46142318220E+02  0.10000004186E+02 0.  0.
        -12    1    1    2    0    0  0.12361407385E+02 -0.33681795311E+02  0.27236844882E+02  0.45045681780E+02  0.00000000000E+00 0.  1.
         11    1    3    3    0    0 -0.47207204493E+01  0.10945764450E+02 -0.62866789036E+01  0.13476546028E+02  0.51100000000E-03 0. -1.
        -11    1    3    3    0    0 -0.57875261638E+01  0.83230244901E+01 -0.58285563957E+01  0.11693599347E+02  0.51100000000E-03 0.  1.
        -12    1    3    3    0    0 -0.18531607720E+01  0.14413006371E+02 -0.15121609582E+02  0.20972172845E+02  0.00000000000E+00 0.  1.
</event>
<event>
 7    1  0.4194672E-008  0.4614232E+02  0.7816164E-02  0.1320468E+00
        -11   -1    0    0    0    0  0.00000000000E+00  0.00000000000E+00  0.45593999997E+02  0.45594000000E+02  0.51100000000E-03 0.  1.
         11   -1    0    0    0    0 -0.00000000000E+00 -0.00000000000E+00 -0.45593999997E+02  0.45594000000E+02  0.51100000000E-03 0. -1.
    9900012    2    1    2    0    0 -0.15802112998E+02 -0.28028382674E+02 -0.31524855626E+02  0.46142317268E+02  0.99999955016E+01 0.  0.
        -12    1    1    2    0    0  0.15802112998E+02  0.28028382674E+02  0.31524855626E+02  0.45045682732E+02  0.00000000000E+00 0.  1.
         11    1    3    3    0    0 -0.12940318726E+02 -0.19194982047E+02 -0.24427904045E+02  0.33654445187E+02  0.51100000000E-03 0. -1.
        -11    1    3    3    0    0 -0.22063703737E+01 -0.13978327758E+01 -0.29828908276E+01  0.39648007069E+01  0.51100000000E-03 0.  1.
        -12    1    3    3    0    0 -0.65542389801E+00 -0.74355678521E+01 -0.41140607534E+01  0.85230713743E+01  0.00000000000E+00 0.  1.
</event>
<event>
 7    1  0.4353189E-008  0.4614232E+02  0.7816164E-02  0.1320468E+00
        -11   -1    0    0    0    0  0.00000000000E+00  0.00000000000E+00  0.45593999997E+02  0.45594000000E+02  0.51100000000E-03 0. -1.
         11   -1    0    0    0    0 -0.00000000000E+00 -0.00000000000E+00 -0.45593999997E+02  0.45594000000E+02  0.51100000000E-03 0.  1.
    9900012    2    1    2    0    0  0.21922346089E+02  0.75668209859E+01  0.38616934631E+02  0.46142315654E+02  0.99999807885E+01 0.  0.
        -12    1    1    2    0    0 -0.21922346089E+02 -0.75668209859E+01 -0.38616934631E+02  0.45045684346E+02  0.00000000000E+00 0.  1.
         11    1    3    3    0    0  0.12990158481E+02  0.63748324373E+01  0.20432042871E+02  0.25036994270E+02  0.51100000000E-03 0. -1.
        -11    1    3    3    0    0  0.35998593679E+01  0.28353258619E+01  0.11611800437E+02  0.12483267596E+02  0.51100000000E-03 0.  1.
        -12    1    3    3    0    0  0.53323282400E+01 -0.16433373133E+01  0.65730913231E+01  0.86220537882E+01  0.00000000000E+00 0.  1.
</event>
<event>
 7    1  0.4194672E-008  0.4614232E+02  0.7816164E-02  0.1320468E+00
        -11   -1    0    0    0    0  0.00000000000E+00  0.00000000000E+00  0.45593999997E+02  0.45594000000E+02  0.51100000000E-03 0. -1.
         11   -1    0    0    0    0 -0.00000000000E+00 -0.00000000000E+00 -0.45593999997E+02  0.45594000000E+02  0.51100000000E-03 0.  1.
    9900012    2    1    2    0    0 -0.44593408372E+02  0.37903474587E+01 -0.51161144813E+01  0.46142318392E+02  0.10000005754E+02 0.  0.
        -12    1    1    2    0    0  0.44593408372E+02 -0.37903474587E+01  0.51161144813E+01  0.45045681608E+02  0.00000000000E+00 0.  1.
         11    1    3    3    0    0 -0.19949557062E+02  0.18045567998E+01 -0.53896850572E+01  0.20743431671E+02  0.51100000000E-03 0. -1.
        -11    1    3    3    0    0 -0.90794958720E+01  0.94397973657E+00 -0.26988297595E+01  0.95190348967E+01  0.51100000000E-03 0.  1.
         12    1    3    3    0    0 -0.15564355439E+02  0.10418109224E+01  0.29724003354E+01  0.15879851825E+02  0.00000000000E+00 0. -1.
</event>
<event>
 7    1  0.4194672E-008  0.4614232E+02  0.7816164E-02  0.1320468E+00
        -11   -1    0    0    0    0  0.00000000000E+00  0.00000000000E+00  0.45593999997E+02  0.45594000000E+02  0.51100000000E-03 0.  1.
         11   -1    0    0    0    0 -0.00000000000E+00 -0.00000000000E+00 -0.45593999997E+02  0.45594000000E+02  0.51100000000E-03 0. -1.
    9900012    2    1    2    0    0  0.29881287440E+02  0.26950114057E+02 -0.20246320829E+02  0.46142317700E+02  0.99999994417E+01 0.  0.
        -12    1    1    2    0    0 -0.29881287440E+02 -0.26950114057E+02  0.20246320829E+02  0.45045682300E+02  0.00000000000E+00 0.  1.
         11    1    3    3    0    0  0.67559320540E+00  0.15304511846E+01 -0.14870079673E+01  0.22382805820E+01  0.51100000000E-03 0. -1.
        -11    1    3    3    0    0  0.86053032166E+01  0.78222047284E+01 -0.13683077651E+01  0.11709414873E+02  0.51100000000E-03 0.  1.
         12    1    3    3    0    0  0.20600391018E+02  0.17597458144E+02 -0.17391005097E+02  0.32194622245E+02  0.00000000000E+00 0. -1.
</event>
<event>
 7    1  0.4194672E-008  0.4614232E+02  0.7816164E-02  0.1320468E+00
        -11   -1    0    0    0    0  0.00000000000E+00  0.00000000000E+00  0.45593999997E+02  0.45594000000E+02  0.51100000000E-03 0. -1.
         11   -1    0    0    0    0 -0.00000000000E+00 -0.00000000000E+00 -0.45593999997E+02  0.45594000000E+02  0.51100000000E-03 0.  1.
    9900012    2    1    2    0    0 -0.20253890813E+01 -0.40371637570E+02 -0.19878182720E+02  0.46142317974E+02  0.10000001937E+02 0.  0.
        -12    1    1    2    0    0  0.20253890813E+01  0.40371637570E+02  0.19878182720E+02  0.45045682026E+02  0.00000000000E+00 0.  1.
         11    1    3    3    0    0 -0.38072348733E+01 -0.21398842009E+02 -0.13419818384E+02  0.25544020874E+02  0.51100000000E-03 0. -1.
        -11    1    3    3    0    0  0.18911426339E+01 -0.98110252273E+01 -0.54478444832E+01  0.11380318372E+02  0.51100000000E-03 0.  1.
        -12    1    3    3    0    0 -0.10929684191E+00 -0.91617703337E+01 -0.10105198521E+01  0.92179787274E+01  0.00000000000E+00 0.  1.
</event>
<event>
 7    1  0.4194672E-008  0.4614232E+02  0.7816164E-02  0.1320468E+00
        -11   -1    0    0    0    0  0.00000000000E+00  0.00000000000E+00  0.45593999997E+02  0.45594000000E+02  0.51100000000E-03 0.  1.
         11   -1    0    0    0    0 -0.00000000000E+00 -0.00000000000E+00 -0.45593999997E+02  0.45594000000E+02  0.51100000000E-03 0. -1.
    9900012    2    1    2    0    0  0.37306788437E+02 -0.25195617750E+02 -0.15804971099E+01  0.46142316651E+02  0.99999898779E+01 0.  0.
        -12    1    1    2    0    0 -0.37306788437E+02  0.25195617750E+02  0.15804971099E+01  0.45045683349E+02  0.00000000000E+00 0.  1.
         11    1    3    3    0    0  0.93627955835E+01 -0.39080120421E+01  0.10691357534E+01  0.10201840558E+02  0.51100000000E-03 0. -1.
        -11    1    3    3    0    0  0.58985604337E+01 -0.12406711344E+01 -0.86956879666E+00  0.60900271105E+01  0.51100000000E-03 0.  1.
         12    1    3    3    0    0  0.22045432419E+02 -0.20046934574E+02 -0.17800640666E+01  0.29850448982E+02  0.00000000000E+00 0. -1.
</event>
<event>
 7    1  0.4194672E-008  0.4614232E+02  0.7816164E-02  0.1320468E+00
        -11   -1    0    0    0    0  0.00000000000E+00  0.00000000000E+00  0.45593999997E+02  0.45594000000E+02  0.51100000000E-03 0.  1.
         11   -1    0    0    0    0 -0.00000000000E+00 -0.00000000000E+00 -0.45593999997E+02  0.45594000000E+02  0.51100000000E-03 0. -1.
    9900012    2    1    2    0    0 -0.42191440581E+02 -0.62328579673E+01 -0.14496453298E+02  0.46142319464E+02  0.10000015531E+02 0.  0.
        -12    1    1    2    0    0  0.42191440581E+02  0.62328579673E+01  0.14496453298E+02  0.45045680536E+02  0.00000000000E+00 0.  1.
         11    1    3    3    0    0 -0.19530186029E+02 -0.21748674905E+01 -0.51916942461E+01  0.20325154473E+02  0.51100000000E-03 0. -1.
        -11    1    3    3    0    0 -0.27292708521E+01  0.84899992990E+00 -0.34322456641E+01  0.44665457375E+01  0.51100000000E-03 0.  1.
         12    1    3    3    0    0 -0.19931983699E+02 -0.49069904066E+01 -0.58725133881E+01  0.21350619254E+02  0.00000000000E+00 0. -1.
</event>
<event>
 7    1  0.4194672E-008  0.4614232E+02  0.7816164E-02  0.1320468E+00
        -11   -1    0    0    0    0  0.00000000000E+00  0.00000000000E+00  0.45593999997E+02  0.45594000000E+02  0.51100000000E-03 0.  1.
         11   -1    0    0    0    0 -0.00000000000E+00 -0.00000000000E+00 -0.45593999997E+02  0.45594000000E+02  0.51100000000E-03 0. -1.
    9900012    2    1    2    0    0  0.20388784817E+02 -0.22815053861E+02 -0.33058795756E+02  0.46142320897E+02  0.10000028596E+02 0.  0.
        -12    1    1    2    0    0 -0.20388784817E+02  0.22815053861E+02  0.33058795756E+02  0.45045679103E+02  0.00000000000E+00 0.  1.
         11    1    3    3    0    0  0.21681195937E+01 -0.48555415348E+01 -0.64184934750E+01  0.83351115721E+01  0.51100000000E-03 0. -1.
        -11    1    3    3    0    0  0.70331243628E+00  0.78821235865E+00 -0.46664165739E+00  0.11548514203E+01  0.51100000000E-03 0.  1.
        -12    1    3    3    0    0  0.17517352787E+02 -0.18747724685E+02 -0.26173660624E+02  0.36652357905E+02  0.00000000000E+00 0.  1.
</event>
<event>
 7    1  0.4194672E-008  0.4614232E+02  0.7816164E-02  0.1320468E+00
        -11   -1    0    0    0    0  0.00000000000E+00  0.00000000000E+00  0.45593999997E+02  0.45594000000E+02  0.51100000000E-03 0. -1.
         11   -1    0    0    0    0 -0.00000000000E+00 -0.00000000000E+00 -0.45593999997E+02  0.45594000000E+02  0.51100000000E-03 0.  1.
    9900012    2    1    2    0    0 -0.34260915304E+02 -0.98034037409E+01  0.27553517502E+02  0.46142319085E+02  0.10000012072E+02 0.  0.
        -12    1    1    2    0    0  0.34260915304E+02  0.98034037409E+01 -0.27553517502E+02  0.45045680915E+02  0.00000000000E+00 0.  1.
         11    1    3    3    0    0 -0.95270522727E+01 -0.25507827135E+01  0.10825731928E+02  0.14644715412E+02  0.51100000000E-03 0. -1.
        -11    1    3    3    0    0 -0.12770348896E+02 -0.66843037529E+00  0.59661552891E+01  0.14111116869E+02  0.51100000000E-03 0.  1.
        -12    1    3    3    0    0 -0.11963514136E+02 -0.65841906521E+01  0.10761630285E+02  0.17386486804E+02  0.00000000000E+00 0.  1.
</event>
<event>
 7    1  0.4194672E-008  0.4614232E+02  0.7816164E-02  0.1320468E+00
        -11   -1    0    0    0    0  0.00000000000E+00  0.00000000000E+00  0.45593999997E+02  0.45594000000E+02  0.51100000000E-03 0. -1.
         11   -1    0    0    0    0 -0.00000000000E+00 -0.00000000000E+00 -0.45593999997E+02  0.45594000000E+02  0.51100000000E-03 0.  1.
    9900012    2    1    2    0    0  0.37815905026E+02 -0.19919337733E+02  0.14222894858E+02  0.46142318445E+02  0.10000006233E+02 0.  0.
        -12    1    1    2    0    0 -0.37815905026E+02  0.19919337733E+02 -0.14222894858E+02  0.45045681555E+02  0.00000000000E+00 0.  1.
         11    1    3    3    0    0  0.82115438835E+01 -0.27000939621E+01  0.91513468800E+00  0.86923778170E+01  0.51100000000E-03 0. -1.
        -11    1    3    3    0    0  0.11517620672E+02 -0.91221874208E+01  0.25842580953E+01  0.14918052133E+02  0.51100000000E-03 0.  1.
         12    1    3    3    0    0  0.18086740470E+02 -0.80970563503E+01  0.10723502075E+02  0.22531888494E+02  0.00000000000E+00 0. -1.
</event>
<event>
 7    1  0.4194672E-008  0.4614232E+02  0.7816164E-02  0.1320468E+00
        -11   -1    0    0    0    0  0.00000000000E+00  0.00000000000E+00  0.45593999997E+02  0.45594000000E+02  0.51100000000E-03 0. -1.
         11   -1    0    0    0    0 -0.00000000000E+00 -0.00000000000E+00 -0.45593999997E+02  0.45594000000E+02  0.51100000000E-03 0.  1.
    9900012    2    1    2    0    0 -0.84182567686E+00 -0.96095958536E+01  0.44000686286E+02  0.46142318780E+02  0.10000009287E+02 0.  0.
        -12    1    1    2    0    0  0.84182567686E+00  0.96095958536E+01 -0.44000686286E+02  0.45045681220E+02  0.00000000000E+00 0.  1.
         11    1    3    3    0    0  0.94166963516E+00 -0.11061678774E+01  0.11673811772E+01  0.18636330510E+01  0.51100000000E-03 0.  1.
        -11    1    3    3    0    0 -0.59354908861E+00 -0.77533243609E+01  0.20889667701E+02  0.22290010231E+02  0.51100000000E-03 0. -1.
         12    1    3    3    0    0 -0.11899462234E+01 -0.75010361535E+00  0.21943637408E+02  0.21988675498E+02  0.00000000000E+00 0. -1.
</event>
<event>
 7    1  0.4194672E-008  0.4614232E+02  0.7816164E-02  0.1320468E+00
        -11   -1    0    0    0    0  0.00000000000E+00  0.00000000000E+00  0.45593999997E+02  0.45594000000E+02  0.51100000000E-03 0. -1.
         11   -1    0    0    0    0 -0.00000000000E+00 -0.00000000000E+00 -0.45593999997E+02  0.45594000000E+02  0.51100000000E-03 0.  1.
    9900012    2    1    2    0    0 -0.53982951916E+01  0.42846191775E+02  0.12813113322E+02  0.46142316372E+02  0.99999873293E+01 0.  0.
        -12    1    1    2    0    0  0.53982951916E+01 -0.42846191775E+02 -0.12813113322E+02  0.45045683628E+02  0.00000000000E+00 0.  1.
         11    1    3    3    0    0 -0.88531815126E+00  0.15537590990E+01  0.35503332023E+00  0.18231852583E+01  0.51100000000E-03 0. -1.
        -11    1    3    3    0    0 -0.35109935126E+01  0.64735543242E+01  0.43552387221E+01  0.85558217385E+01  0.51100000000E-03 0.  1.
         12    1    3    3    0    0 -0.10019835278E+01  0.34818878351E+02  0.81028412794E+01  0.35763309375E+02  0.00000000000E+00 0. -1.
</event>
<event>
 7    1  0.4194672E-008  0.4614232E+02  0.7816164E-02  0.1320468E+00
        -11   -1    0    0    0    0  0.00000000000E+00  0.00000000000E+00  0.45593999997E+02  0.45594000000E+02  0.51100000000E-03 0.  1.
         11   -1    0    0    0    0 -0.00000000000E+00 -0.00000000000E+00 -0.45593999997E+02  0.45594000000E+02  0.51100000000E-03 0. -1.
    9900012    2    1    2    0    0  0.21188088833E+02  0.13668775619E+02 -0.37327508721E+02  0.46142318268E+02  0.10000004624E+02 0.  0.
        -12    1    1    2    0    0 -0.21188088833E+02 -0.13668775619E+02  0.37327508721E+02  0.45045681732E+02  0.00000000000E+00 0.  1.
         11    1    3    3    0    0  0.41166671342E+01  0.15980526060E+01 -0.12088561515E+02  0.12869888896E+02  0.51100000000E-03 0. -1.
        -11    1    3    3    0    0  0.67663118791E+01  0.25124462458E+01 -0.11760629002E+02  0.13798831739E+02  0.51100000000E-03 0.  1.
        -12    1    3    3    0    0  0.10305109820E+02  0.95582767670E+01 -0.13478318204E+02  0.19473597633E+02  0.00000000000E+00 0.  1.
</event>
<event>
 7    1  0.4194672E-008  0.4614232E+02  0.7816164E-02  0.1320468E+00
        -11   -1    0    0    0    0  0.00000000000E+00  0.00000000000E+00  0.45593999997E+02  0.45594000000E+02  0.51100000000E-03 0. -1.
         11   -1    0    0    0    0 -0.00000000000E+00 -0.00000000000E+00 -0.45593999997E+02  0.45594000000E+02  0.51100000000E-03 0.  1.
    9900012    2    1    2    0    0  0.10882094366E+02 -0.38883717688E+02 -0.19968731923E+02  0.46142315039E+02  0.99999751745E+01 0.  0.
        -12    1    1    2    0    0 -0.10882094366E+02  0.38883717688E+02  0.19968731923E+02  0.45045684961E+02  0.00000000000E+00 0.  1.
         11    1    3    3    0    0  0.50175035168E+01 -0.11123198221E+02 -0.77907935493E+01  0.14477477149E+02  0.51100000000E-03 0. -1.
        -11    1    3    3    0    0  0.39559101074E+01 -0.23915277018E+02 -0.12656228782E+02  0.27345380357E+02  0.51100000000E-03 0.  1.
        -12    1    3    3    0    0  0.19086807418E+01 -0.38452424486E+01  0.47829040805E+00  0.43194575328E+01  0.00000000000E+00 0.  1.
</event>
<event>
 7    1  0.5258693E-008  0.4614232E+02  0.7816164E-02  0.1320468E+00
        -11   -1    0    0    0    0  0.00000000000E+00  0.00000000000E+00  0.45593999997E+02  0.45594000000E+02  0.51100000000E-03 0. -1.
         11   -1    0    0    0    0 -0.00000000000E+00 -0.00000000000E+00 -0.45593999997E+02  0.45594000000E+02  0.51100000000E-03 0.  1.
    9900012    2    1    2    0    0 -0.14883989049E+01  0.24273643556E+02  0.37916861637E+02  0.46142317641E+02  0.99999989065E+01 0.  0.
        -12    1    1    2    0    0  0.14883989049E+01 -0.24273643556E+02 -0.37916861637E+02  0.45045682359E+02  0.00000000000E+00 0.  1.
         11    1    3    3    0    0 -0.86283932984E+00  0.14147180615E+02  0.21173428601E+02  0.25479428762E+02  0.51100000000E-03 0.  1.
        -11    1    3    3    0    0 -0.41884389110E+00  0.10087668073E+02  0.17320689358E+02  0.20048510106E+02  0.51100000000E-03 0. -1.
        -12    1    3    3    0    0 -0.20671568399E+00  0.38794868630E-01 -0.57725632234E+00  0.61437877366E+00  0.00000000000E+00 0.  1.
</event>
<event>
 7    1  0.5289977E-008  0.4614232E+02  0.7816164E-02  0.1320468E+00
        -11   -1    0    0    0    0  0.00000000000E+00  0.00000000000E+00  0.45593999997E+02  0.45594000000E+02  0.51100000000E-03 0.  1.
         11   -1    0    0    0    0 -0.00000000000E+00 -0.00000000000E+00 -0.45593999997E+02  0.45594000000E+02  0.51100000000E-03 0. -1.
    9900012    2    1    2    0    0  0.90711409489E+00 -0.44955180562E+02 -0.27059899366E+01  0.46142317666E+02  0.99999991354E+01 0.  0.
        -12    1    1    2    0    0 -0.90711409489E+00  0.44955180562E+02  0.27059899366E+01  0.45045682334E+02  0.00000000000E+00 0.  1.
         11    1    3    3    0    0  0.11550789886E+01 -0.29922805276E+02 -0.12426880838E+01  0.29970865136E+02  0.51100000000E-03 0. -1.
        -11    1    3    3    0    0  0.13326755544E+01 -0.14077266063E+02 -0.19174909161E+01  0.14269625630E+02  0.51100000000E-03 0.  1.
        -12    1    3    3    0    0 -0.15806404481E+01 -0.95510922342E+00  0.45418906339E+00  0.19018269007E+01  0.00000000000E+00 0.  1.
</event>
<event>
 7    1  0.4194672E-008  0.4614232E+02  0.7816164E-02  0.1320468E+00
        -11   -1    0    0    0    0  0.00000000000E+00  0.00000000000E+00  0.45593999997E+02  0.45594000000E+02  0.51100000000E-03 0. -1.
         11   -1    0    0    0    0 -0.00000000000E+00 -0.00000000000E+00 -0.45593999997E+02  0.45594000000E+02  0.51100000000E-03 0.  1.
    9900012    2    1    2    0    0 -0.21459885753E+02  0.12064386585E+02  0.37723170429E+02  0.46142315330E+02  0.99999778292E+01 0.  0.
        -12    1    1    2    0    0  0.21459885753E+02 -0.12064386585E+02 -0.37723170429E+02  0.45045684670E+02  0.00000000000E+00 0.  1.
         11    1    3    3    0    0 -0.32600808553E+01  0.24033611149E+01  0.35822363017E+01  0.54070961721E+01  0.51100000000E-03 0. -1.
        -11    1    3    3    0    0 -0.82923870013E+01 -0.12720757480E+00  0.12702445676E+02  0.15170101857E+02  0.51100000000E-03 0.  1.
        -12    1    3    3    0    0 -0.99074178965E+01  0.97882330452E+01  0.21438488451E+02  0.25565117300E+02  0.00000000000E+00 0.  1.
</event>
<event>
 7    1  0.4194672E-008  0.4614232E+02  0.7816164E-02  0.1320468E+00
        -11   -1    0    0    0    0  0.00000000000E+00  0.00000000000E+00  0.45593999997E+02  0.45594000000E+02  0.51100000000E-03 0. -1.
         11   -1    0    0    0    0 -0.00000000000E+00 -0.00000000000E+00 -0.45593999997E+02  0.45594000000E+02  0.51100000000E-03 0.  1.
    9900012    2    1    2    0    0 -0.33493528303E+02  0.26652703651E+02  0.14033194077E+02  0.46142316676E+02  0.99999901085E+01 0.  0.
        -12    1    1    2    0    0  0.33493528303E+02 -0.26652703651E+02 -0.14033194077E+02  0.45045683324E+02  0.00000000000E+00 0.  1.
         11    1    3    3    0    0 -0.18059137214E+02  0.14172468043E+02  0.61009955962E+01  0.23753177364E+02  0.51100000000E-03 0. -1.
        -11    1    3    3    0    0 -0.55534438927E+01  0.21530263560E+01  0.50494069792E+01  0.78085064296E+01  0.51100000000E-03 0.  1.
        -12    1    3    3    0    0 -0.98809471966E+01  0.10327209252E+02  0.28827915016E+01  0.14580632883E+02  0.00000000000E+00 0.  1.
</event>
<event>
 7    1  0.4194672E-008  0.4614231E+02  0.7816164E-02  0.1320468E+00
        -11   -1    0    0    0    0  0.00000000000E+00  0.00000000000E+00  0.45593999997E+02  0.45594000000E+02  0.51100000000E-03 0. -1.
         11   -1    0    0    0    0 -0.00000000000E+00 -0.00000000000E+00 -0.45593999997E+02  0.45594000000E+02  0.51100000000E-03 0.  1.
    9900012    2    1    2    0    0  0.39541358438E+02  0.12905725137E+02  0.17292704503E+02  0.46142307671E+02  0.99999079887E+01 0.  0.
        -12    1    1    2    0    0 -0.39541358438E+02 -0.12905725137E+02 -0.17292704503E+02  0.45045692329E+02  0.00000000000E+00 0.  1.
         11    1    3    3    0    0  0.66103674196E+01  0.82761608422E+00  0.52601218748E+01  0.84882735702E+01  0.51100000000E-03 0. -1.
        -11    1    3    3    0    0  0.20314282179E+02  0.40203568876E+01  0.68327269982E+01  0.21806409344E+02  0.51100000000E-03 0.  1.
         12    1    3    3    0    0  0.12616708839E+02  0.80577521650E+01  0.51998556295E+01  0.15847624757E+02  0.00000000000E+00 0. -1.
</event>
<event>
 7    1  0.4194672E-008  0.4614232E+02  0.7816164E-02  0.1320468E+00
        -11   -1    0    0    0    0  0.00000000000E+00  0.00000000000E+00  0.45593999997E+02  0.45594000000E+02  0.51100000000E-03 0. -1.
         11   -1    0    0    0    0 -0.00000000000E+00 -0.00000000000E+00 -0.45593999997E+02  0.45594000000E+02  0.51100000000E-03 0.  1.
    9900012    2    1    2    0    0 -0.32620030174E+02  0.30817909189E+02  0.39119551708E+01  0.46142319979E+02  0.10000020225E+02 0.  0.
        -12    1    1    2    0    0  0.32620030174E+02 -0.30817909189E+02 -0.39119551708E+01  0.45045680021E+02  0.00000000000E+00 0.  1.
         11    1    3    3    0    0 -0.69015606519E+01  0.81363313397E+01  0.26637071245E+01  0.10996670542E+02  0.51100000000E-03 0. -1.
        -11    1    3    3    0    0 -0.72812546746E+00  0.11417707043E+01  0.16709833217E+01  0.21508120699E+01  0.51100000000E-03 0.  1.
         12    1    3    3    0    0 -0.24990344054E+02  0.21539807145E+02 -0.42273527529E+00  0.32994837367E+02  0.00000000000E+00 0. -1.
</event>
<event>
 7    1  0.4194672E-008  0.4614232E+02  0.7816164E-02  0.1320468E+00
        -11   -1    0    0    0    0  0.00000000000E+00  0.00000000000E+00  0.45593999997E+02  0.45594000000E+02  0.51100000000E-03 0.  1.
         11   -1    0    0    0    0 -0.00000000000E+00 -0.00000000000E+00 -0.45593999997E+02  0.45594000000E+02  0.51100000000E-03 0. -1.
    9900012    2    1    2    0    0 -0.30790567960E+02 -0.29262161142E+02 -0.14992676015E+02  0.46142317808E+02  0.10000000432E+02 0.  0.
        -12    1    1    2    0    0  0.30790567960E+02  0.29262161142E+02  0.14992676015E+02  0.45045682192E+02  0.00000000000E+00 0.  1.
         11    1    3    3    0    0 -0.10426401368E+01 -0.30554858998E+01 -0.10775483468E+01  0.34035574389E+01  0.51100000000E-03 0.  1.
        -11    1    3    3    0    0 -0.23891309046E+02 -0.18259621254E+02 -0.13203609906E+02  0.32841189550E+02  0.51100000000E-03 0. -1.
         12    1    3    3    0    0 -0.58566187776E+01 -0.79470539888E+01 -0.71151776212E+00  0.98975708198E+01  0.00000000000E+00 0. -1.
</event>
<event>
 7    1  0.4194672E-008  0.4614232E+02  0.7816164E-02  0.1320468E+00
        -11   -1    0    0    0    0  0.00000000000E+00  0.00000000000E+00  0.45593999997E+02  0.45594000000E+02  0.51100000000E-03 0.  1.
         11   -1    0    0    0    0 -0.00000000000E+00 -0.00000000000E+00 -0.45593999997E+02  0.45594000000E+02  0.51100000000E-03 0. -1.
    9900012    2    1    2    0    0  0.38267556382E+02 -0.23060306038E+02 -0.57384578402E+01  0.46142317805E+02  0.10000000398E+02 0.  0.
        -12    1    1    2    0    0 -0.38267556382E+02  0.23060306038E+02  0.57384578402E+01  0.45045682195E+02  0.00000000000E+00 0.  1.
         11    1    3    3    0    0  0.92134600488E+01 -0.88439387030E+01  0.73928387857E-01  0.12771396303E+02  0.51100000000E-03 0. -1.
        -11    1    3    3    0    0  0.25692577582E+02 -0.14284288772E+02 -0.43990805860E+01  0.29723750752E+02  0.51100000000E-03 0.  1.
        -12    1    3    3    0    0  0.33615187518E+01  0.67921437075E-01 -0.14133056421E+01  0.36471707498E+01  0.00000000000E+00 0.  1.
</event>
<event>
 7    1  0.4194672E-008  0.4614232E+02  0.7816164E-02  0.1320468E+00
        -11   -1    0    0    0    0  0.00000000000E+00  0.00000000000E+00  0.45593999997E+02  0.45594000000E+02  0.51100000000E-03 0.  1.
         11   -1    0    0    0    0 -0.00000000000E+00 -0.00000000000E+00 -0.45593999997E+02  0.45594000000E+02  0.51100000000E-03 0. -1.
    9900012    2    1    2    0    0 -0.38327176359E+02 -0.23222090554E+02 -0.45689772339E+01  0.46142317740E+02  0.99999998061E+01 0.  0.
        -12    1    1    2    0    0  0.38327176359E+02  0.23222090554E+02  0.45689772339E+01  0.45045682260E+02  0.00000000000E+00 0.  1.
         11    1    3    3    0    0 -0.19002344329E+02 -0.15382958612E+02 -0.11427499361E+01  0.24475097208E+02  0.51100000000E-03 0. -1.
        -11    1    3    3    0    0 -0.84453219771E+01 -0.17608121987E+01  0.38387744709E+00  0.86354666957E+01  0.51100000000E-03 0.  1.
         12    1    3    3    0    0 -0.10879510052E+02 -0.60783197425E+01 -0.38101047448E+01  0.13031753836E+02  0.00000000000E+00 0. -1.
</event>
<event>
 7    1  0.4194672E-008  0.4614232E+02  0.7816164E-02  0.1320468E+00
        -11   -1    0    0    0    0  0.00000000000E+00  0.00000000000E+00  0.45593999997E+02  0.45594000000E+02  0.51100000000E-03 0. -1.
         11   -1    0    0    0    0 -0.00000000000E+00 -0.00000000000E+00 -0.45593999997E+02  0.45594000000E+02  0.51100000000E-03 0.  1.
    9900012    2    1    2    0    0  0.37119128261E+02 -0.25516149343E+02  0.45809664133E+00  0.46142318601E+02  0.10000007658E+02 0.  0.
        -12    1    1    2    0    0 -0.37119128261E+02  0.25516149343E+02 -0.45809664133E+00  0.45045681399E+02  0.00000000000E+00 0.  1.
         11    1    3    3    0    0  0.67064990412E+01 -0.74836934795E+01 -0.95722086397E+00  0.10094506899E+02  0.51100000000E-03 0.  1.
        -11    1    3    3    0    0  0.25308171005E+02 -0.16432609985E+02 -0.97032111173E+00  0.30190656069E+02  0.51100000000E-03 0. -1.
        -12    1    3    3    0    0  0.51044582153E+01 -0.15998458786E+01  0.23856386170E+01  0.58571556337E+01  0.00000000000E+00 0.  1.
</event>
<event>
 7    1  0.4194672E-008  0.4614232E+02  0.7816164E-02  0.1320468E+00
        -11   -1    0    0    0    0  0.00000000000E+00  0.00000000000E+00  0.45593999997E+02  0.45594000000E+02  0.51100000000E-03 0. -1.
         11   -1    0    0    0    0 -0.00000000000E+00 -0.00000000000E+00 -0.45593999997E+02  0.45594000000E+02  0.51100000000E-03 0.  1.
    9900012    2    1    2    0    0 -0.41497267986E+02 -0.11394788859E+02  0.13313481802E+02  0.46142320284E+02  0.10000023002E+02 0.  0.
        -12    1    1    2    0    0  0.41497267986E+02  0.11394788859E+02 -0.13313481802E+02  0.45045679716E+02  0.00000000000E+00 0.  1.
         11    1    3    3    0    0 -0.57782008662E+01 -0.55098471153E+00  0.34627842856E+01  0.67588508396E+01  0.51100000000E-03 0. -1.
        -11    1    3    3    0    0 -0.13151386870E+02 -0.20302995939E+01  0.21188293995E+00  0.13308868760E+02  0.51100000000E-03 0.  1.
         12    1    3    3    0    0 -0.22567680250E+02 -0.88135045531E+01  0.96388145760E+01  0.26074600684E+02  0.00000000000E+00 0. -1.
</event>
<event>
 7    1  0.4194672E-008  0.4614232E+02  0.7816164E-02  0.1320468E+00
        -11   -1    0    0    0    0  0.00000000000E+00  0.00000000000E+00  0.45593999997E+02  0.45594000000E+02  0.51100000000E-03 0.  1.
         11   -1    0    0    0    0 -0.00000000000E+00 -0.00000000000E+00 -0.45593999997E+02  0.45594000000E+02  0.51100000000E-03 0. -1.
    9900012    2    1    2    0    0  0.39757619845E+02  0.17806686045E+02 -0.11461549252E+02  0.46142317466E+02  0.99999973106E+01 0.  0.
        -12    1    1    2    0    0 -0.39757619845E+02 -0.17806686045E+02  0.11461549252E+02  0.45045682534E+02  0.00000000000E+00 0.  1.
         11    1    3    3    0    0  0.17887004866E+02  0.64784728190E+01 -0.94315971582E+00  0.19047443494E+02  0.51100000000E-03 0. -1.
        -11    1    3    3    0    0  0.75698307141E+01  0.18912872096E+01 -0.26452825747E+01  0.82387392549E+01  0.51100000000E-03 0.  1.
        -12    1    3    3    0    0  0.14300784265E+02  0.94369260168E+01 -0.78731069618E+01  0.18856134717E+02  0.00000000000E+00 0.  1.
</event>
<event>
 7    1  0.4194672E-008  0.4614232E+02  0.7816164E-02  0.1320468E+00
        -11   -1    0    0    0    0  0.00000000000E+00  0.00000000000E+00  0.45593999997E+02  0.45594000000E+02  0.51100000000E-03 0.  1.
         11   -1    0    0    0    0 -0.00000000000E+00 -0.00000000000E+00 -0.45593999997E+02  0.45594000000E+02  0.51100000000E-03 0. -1.
    9900012    2    1    2    0    0  0.19922739434E+02 -0.23789042639E+02 -0.32653933569E+02  0.46142317923E+02  0.10000001477E+02 0.  0.
        -12    1    1    2    0    0 -0.19922739434E+02  0.23789042639E+02  0.32653933569E+02  0.45045682077E+02  0.00000000000E+00 0.  1.
         11    1    3    3    0    0  0.44566243085E+01 -0.85964616542E+00 -0.46976988386E+01  0.65321410270E+01  0.51100000000E-03 0. -1.
        -11    1    3    3    0    0  0.16635017615E+01 -0.20349743173E+01 -0.98692125155E+00  0.28075563040E+01  0.51100000000E-03 0.  1.
         12    1    3    3    0    0  0.13802613364E+02 -0.20894422157E+02 -0.26969313479E+02  0.36802620592E+02  0.00000000000E+00 0. -1.
</event>
<event>
 7    1  0.4194672E-008  0.4614232E+02  0.7816164E-02  0.1320468E+00
        -11   -1    0    0    0    0  0.00000000000E+00  0.00000000000E+00  0.45593999997E+02  0.45594000000E+02  0.51100000000E-03 0.  1.
         11   -1    0    0    0    0 -0.00000000000E+00 -0.00000000000E+00 -0.45593999997E+02  0.45594000000E+02  0.51100000000E-03 0. -1.
    9900012    2    1    2    0    0 -0.40927325090E+01  0.38550170410E+02 -0.22940082092E+02  0.46142318027E+02  0.10000002424E+02 0.  0.
        -12    1    1    2    0    0  0.40927325090E+01 -0.38550170410E+02  0.22940082092E+02  0.45045681973E+02  0.00000000000E+00 0.  1.
         11    1    3    3    0    0 -0.54883061081E+01  0.16014588101E+02 -0.96657976010E+01  0.19494003681E+02  0.51100000000E-03 0.  1.
        -11    1    3    3    0    0 -0.11573280560E+01  0.10043914099E+02 -0.78157899432E+01  0.12779131088E+02  0.51100000000E-03 0. -1.
        -12    1    3    3    0    0  0.25529016550E+01  0.12491668210E+02 -0.54584945474E+01  0.13869183259E+02  0.00000000000E+00 0.  1.
</event>
<event>
 7    1  0.4194672E-008  0.4614232E+02  0.7816164E-02  0.1320468E+00
        -11   -1    0    0    0    0  0.00000000000E+00  0.00000000000E+00  0.45593999997E+02  0.45594000000E+02  0.51100000000E-03 0.  1.
         11   -1    0    0    0    0 -0.00000000000E+00 -0.00000000000E+00 -0.45593999997E+02  0.45594000000E+02  0.51100000000E-03 0. -1.
    9900012    2    1    2    0    0  0.16441527922E+02 -0.40425245908E+02 -0.11161951355E+02  0.46142317575E+02  0.99999982999E+01 0.  0.
        -12    1    1    2    0    0 -0.16441527922E+02  0.40425245908E+02  0.11161951355E+02  0.45045682425E+02  0.00000000000E+00 0.  1.
         11    1    3    3    0    0  0.73623345320E+01 -0.19156969664E+02 -0.73212068168E+01  0.21789757364E+02  0.51100000000E-03 0. -1.
        -11    1    3    3    0    0  0.97722509418E+01 -0.17565832189E+02 -0.21239811085E+01  0.20213031563E+02  0.51100000000E-03 0.  1.
        -12    1    3    3    0    0 -0.69305755216E+00 -0.37024440549E+01 -0.17167634293E+01  0.41395286474E+01  0.00000000000E+00 0.  1.
</event>
<event>
 7    1  0.4194672E-008  0.4614231E+02  0.7816164E-02  0.1320468E+00
        -11   -1    0    0    0    0  0.00000000000E+00  0.00000000000E+00  0.45593999997E+02  0.45594000000E+02  0.51100000000E-03 0. -1.
         11   -1    0    0    0    0 -0.00000000000E+00 -0.00000000000E+00 -0.45593999997E+02  0.45594000000E+02  0.51100000000E-03 0.  1.
    9900012    2    1    2    0    0  0.23003805843E+01 -0.85595985233E+01  0.44165093123E+02  0.46142312878E+02  0.99999554691E+01 0.  0.
        -12    1    1    2    0    0 -0.23003805843E+01  0.85595985233E+01 -0.44165093123E+02  0.45045687122E+02  0.00000000000E+00 0.  1.
         11    1    3    3    0    0  0.37312089287E+01 -0.54323461200E+01  0.24154538070E+02  0.25037452228E+02  0.51100000000E-03 0. -1.
        -11    1    3    3    0    0  0.22474281238E+01 -0.10868245977E+01  0.78487358764E+01  0.82361869816E+01  0.51100000000E-03 0.  1.
         12    1    3    3    0    0 -0.36782564683E+01 -0.20404278057E+01  0.12161819177E+02  0.12868673668E+02  0.00000000000E+00 0. -1.
</event>
<event>
 7    1  0.4194672E-008  0.4614232E+02  0.7816164E-02  0.1320468E+00
        -11   -1    0    0    0    0  0.00000000000E+00  0.00000000000E+00  0.45593999997E+02  0.45594000000E+02  0.51100000000E-03 0. -1.
         11   -1    0    0    0    0 -0.00000000000E+00 -0.00000000000E+00 -0.45593999997E+02  0.45594000000E+02  0.51100000000E-03 0.  1.
    9900012    2    1    2    0    0 -0.19896031754E+02  0.40412807701E+02  0.25768161401E+00  0.46142317569E+02  0.99999982522E+01 0.  0.
        -12    1    1    2    0    0  0.19896031754E+02 -0.40412807701E+02 -0.25768161401E+00  0.45045682431E+02  0.00000000000E+00 0.  1.
         11    1    3    3    0    0  0.14880392361E+00  0.27661249682E+01  0.27163413277E+00  0.27834107333E+01  0.51100000000E-03 0. -1.
        -11    1    3    3    0    0 -0.13092198861E+01  0.38890689335E+00  0.91728719317E+00  0.16452116392E+01  0.51100000000E-03 0.  1.
         12    1    3    3    0    0 -0.18735615791E+02  0.37257775839E+02 -0.93123971193E+00  0.41713695197E+02  0.00000000000E+00 0. -1.
</event>
<event>
 7    1  0.4194672E-008  0.4614232E+02  0.7816164E-02  0.1320468E+00
        -11   -1    0    0    0    0  0.00000000000E+00  0.00000000000E+00  0.45593999997E+02  0.45594000000E+02  0.51100000000E-03 0.  1.
         11   -1    0    0    0    0 -0.00000000000E+00 -0.00000000000E+00 -0.45593999997E+02  0.45594000000E+02  0.51100000000E-03 0. -1.
    9900012    2    1    2    0    0 -0.35366989043E+02  0.14000815095E+02 -0.24130203165E+02  0.46142318274E+02  0.10000004680E+02 0.  0.
        -12    1    1    2    0    0  0.35366989043E+02 -0.14000815095E+02  0.24130203165E+02  0.45045681726E+02  0.00000000000E+00 0.  1.
         11    1    3    3    0    0 -0.29917870734E+02  0.10510143036E+02 -0.19366445740E+02  0.37156443812E+02  0.51100000000E-03 0. -1.
        -11    1    3    3    0    0 -0.53924701238E+01  0.39450925088E+01 -0.51101649319E+01  0.84116749124E+01  0.51100000000E-03 0.  1.
         12    1    3    3    0    0 -0.56648185960E-01 -0.45442045010E+00  0.34640750678E+00  0.57419954998E+00  0.00000000000E+00 0. -1.
</event>
<event>
 7    1  0.4677739E-008  0.4614232E+02  0.7816164E-02  0.1320468E+00
        -11   -1    0    0    0    0  0.00000000000E+00  0.00000000000E+00  0.45593999997E+02  0.45594000000E+02  0.51100000000E-03 0.  1.
         11   -1    0    0    0    0 -0.00000000000E+00 -0.00000000000E+00 -0.45593999997E+02  0.45594000000E+02  0.51100000000E-03 0. -1.
    9900012    2    1    2    0    0  0.31404633568E+02 -0.30101941219E+02 -0.11693403591E+02  0.46142316941E+02  0.99999925238E+01 0.  0.
        -12    1    1    2    0    0 -0.31404633568E+02  0.30101941219E+02  0.11693403591E+02  0.45045683059E+02  0.00000000000E+00 0.  1.
         11    1    3    3    0    0  0.14449604927E+02 -0.10983004625E+02 -0.46780728166E+01  0.18743047743E+02  0.51100000000E-03 0.  1.
        -11    1    3    3    0    0  0.12491581092E+02 -0.17520239776E+02 -0.70966095689E+01  0.22657455012E+02  0.51100000000E-03 0. -1.
        -12    1    3    3    0    0  0.44634475490E+01 -0.15986968178E+01  0.81278794465E-01  0.47418141866E+01  0.00000000000E+00 0.  1.
</event>
<event>
 7    1  0.4194672E-008  0.4614232E+02  0.7816164E-02  0.1320468E+00
        -11   -1    0    0    0    0  0.00000000000E+00  0.00000000000E+00  0.45593999997E+02  0.45594000000E+02  0.51100000000E-03 0.  1.
         11   -1    0    0    0    0 -0.00000000000E+00 -0.00000000000E+00 -0.45593999997E+02  0.45594000000E+02  0.51100000000E-03 0. -1.
    9900012    2    1    2    0    0  0.44198477278E+02 -0.74593281501E+01 -0.44683917714E+01  0.46142317686E+02  0.99999993128E+01 0.  0.
        -12    1    1    2    0    0 -0.44198477278E+02  0.74593281501E+01  0.44683917714E+01  0.45045682314E+02  0.00000000000E+00 0.  1.
         11    1    3    3    0    0  0.28999611761E+01 -0.17361089030E+01  0.11425448019E+01  0.35678085475E+01  0.51100000000E-03 0.  1.
        -11    1    3    3    0    0  0.10991267286E+02 -0.33630272608E+01  0.74414969282E+00  0.11518318798E+02  0.51100000000E-03 0. -1.
        -12    1    3    3    0    0  0.30307248816E+02 -0.23601919863E+01 -0.63550862661E+01  0.31056190340E+02  0.00000000000E+00 0.  1.
</event>
<event>
 7    1  0.4194672E-008  0.4614232E+02  0.7816164E-02  0.1320468E+00
        -11   -1    0    0    0    0  0.00000000000E+00  0.00000000000E+00  0.45593999997E+02  0.45594000000E+02  0.51100000000E-03 0. -1.
         11   -1    0    0    0    0 -0.00000000000E+00 -0.00000000000E+00 -0.45593999997E+02  0.45594000000E+02  0.51100000000E-03 0.  1.
    9900012    2    1    2    0    0 -0.31427383843E+02  0.13708891612E+02  0.29214711317E+02  0.46142317390E+02  0.99999966169E+01 0.  0.
        -12    1    1    2    0    0  0.31427383843E+02 -0.13708891612E+02 -0.29214711317E+02  0.45045682610E+02  0.00000000000E+00 0.  1.
         11    1    3    3    0    0 -0.16133700083E+01  0.34337294171E+01  0.15995423867E+01  0.41172802433E+01  0.51100000000E-03 0. -1.
        -11    1    3    3    0    0 -0.19363243334E+02  0.68164435156E+01  0.16043454714E+02  0.26053628040E+02  0.51100000000E-03 0.  1.
         12    1    3    3    0    0 -0.10450770501E+02  0.34587186796E+01  0.11571714216E+02  0.15971409107E+02  0.00000000000E+00 0. -1.
</event>
<event>
 7    1  0.4194672E-008  0.4614231E+02  0.7816164E-02  0.1320468E+00
        -11   -1    0    0    0    0  0.00000000000E+00  0.00000000000E+00  0.45593999997E+02  0.45594000000E+02  0.51100000000E-03 0.  1.
         11   -1    0    0    0    0 -0.00000000000E+00 -0.00000000000E+00 -0.45593999997E+02  0.45594000000E+02  0.51100000000E-03 0. -1.
    9900012    2    1    2    0    0 -0.18824782276E+02  0.33756108026E+02  0.23135829119E+02  0.46142313794E+02  0.99999638239E+01 0.  0.
        -12    1    1    2    0    0  0.18824782276E+02 -0.33756108026E+02 -0.23135829119E+02  0.45045686206E+02  0.00000000000E+00 0.  1.
         11    1    3    3    0    0  0.46864126269E+00  0.34251280443E+01  0.15735885497E+01  0.37983296247E+01  0.51100000000E-03 0. -1.
        -11    1    3    3    0    0 -0.81402556554E+01  0.77471701818E+01  0.72639179199E+01  0.13380841221E+02  0.51100000000E-03 0.  1.
         12    1    3    3    0    0 -0.11153167883E+02  0.22583809799E+02  0.14298322649E+02  0.28963142949E+02  0.00000000000E+00 0. -1.
</event>
<event>
 7    1  0.4194672E-008  0.4614232E+02  0.7816164E-02  0.1320468E+00
        -11   -1    0    0    0    0  0.00000000000E+00  0.00000000000E+00  0.45593999997E+02  0.45594000000E+02  0.51100000000E-03 0.  1.
         11   -1    0    0    0    0 -0.00000000000E+00 -0.00000000000E+00 -0.45593999997E+02  0.45594000000E+02  0.51100000000E-03 0. -1.
    9900012    2    1    2    0    0 -0.24441735321E+02  0.24081431520E+02 -0.29185604759E+02  0.46142319911E+02  0.10000019603E+02 0.  0.
        -12    1    1    2    0    0  0.24441735321E+02 -0.24081431520E+02  0.29185604759E+02  0.45045680089E+02  0.00000000000E+00 0.  1.
         11    1    3    3    0    0 -0.14375106028E+02  0.17367366591E+02 -0.21193553510E+02  0.30942459602E+02  0.51100000000E-03 0. -1.
        -11    1    3    3    0    0 -0.68637410139E+01  0.67266249242E+01 -0.68405178261E+01  0.11796232787E+02  0.51100000000E-03 0.  1.
        -12    1    3    3    0    0 -0.32028882788E+01 -0.12559994901E-01 -0.11515334231E+01  0.34036275214E+01  0.00000000000E+00 0.  1.
</event>
<event>
 7    1  0.4194672E-008  0.4614232E+02  0.7816164E-02  0.1320468E+00
        -11   -1    0    0    0    0  0.00000000000E+00  0.00000000000E+00  0.45593999997E+02  0.45594000000E+02  0.51100000000E-03 0.  1.
         11   -1    0    0    0    0 -0.00000000000E+00 -0.00000000000E+00 -0.45593999997E+02  0.45594000000E+02  0.51100000000E-03 0. -1.
    9900012    2    1    2    0    0 -0.32801932622E+02 -0.50475716305E+01 -0.30457654165E+02  0.46142318072E+02  0.10000002835E+02 0.  0.
        -12    1    1    2    0    0  0.32801932622E+02  0.50475716305E+01  0.30457654165E+02  0.45045681928E+02  0.00000000000E+00 0.  1.
         11    1    3    3    0    0 -0.25211857667E+02 -0.46311724595E+01 -0.24083796762E+02  0.35172642666E+02  0.51100000000E-03 0. -1.
        -11    1    3    3    0    0 -0.50763746861E+00  0.79826259339E+00 -0.27773802662E+01  0.29340689105E+01  0.51100000000E-03 0.  1.
         12    1    3    3    0    0 -0.70824374866E+01 -0.12146617644E+01 -0.35964771367E+01  0.80356064954E+01  0.00000000000E+00 0. -1.
</event>
<event>
 7    1  0.4194672E-008  0.4614232E+02  0.7816164E-02  0.1320468E+00
        -11   -1    0    0    0    0  0.00000000000E+00  0.00000000000E+00  0.45593999997E+02  0.45594000000E+02  0.51100000000E-03 0.  1.
         11   -1    0    0    0    0 -0.00000000000E+00 -0.00000000000E+00 -0.45593999997E+02  0.45594000000E+02  0.51100000000E-03 0. -1.
    9900012    2    1    2    0    0  0.61821843075E+01  0.40866939143E+02 -0.17910537195E+02  0.46142318072E+02  0.10000002836E+02 0.  0.
        -12    1    1    2    0    0 -0.61821843075E+01 -0.40866939143E+02  0.17910537195E+02  0.45045681928E+02  0.00000000000E+00 0.  1.
         11    1    3    3    0    0 -0.76619667440E-01  0.27545370056E+01  0.58224324576E+00  0.28164431731E+01  0.51100000000E-03 0. -1.
        -11    1    3    3    0    0  0.40163715531E+01  0.18031625553E+02 -0.12295628577E+02  0.22191287545E+02  0.51100000000E-03 0.  1.
         12    1    3    3    0    0  0.22424324219E+01  0.20080776584E+02 -0.61971518633E+01  0.21134587354E+02  0.00000000000E+00 0. -1.
</event>
<event>
 7    1  0.4194672E-008  0.4614232E+02  0.7816164E-02  0.1320468E+00
        -11   -1    0    0    0    0  0.00000000000E+00  0.00000000000E+00  0.45593999997E+02  0.45594000000E+02  0.51100000000E-03 0.  1.
         11   -1    0    0    0    0 -0.00000000000E+00 -0.00000000000E+00 -0.45593999997E+02  0.45594000000E+02  0.51100000000E-03 0. -1.
    9900012    2    1    2    0    0 -0.37998319310E+02  0.22810959769E+01 -0.24083976737E+02  0.46142316470E+02  0.99999882240E+01 0.  0.
        -12    1    1    2    0    0  0.37998319310E+02 -0.22810959769E+01  0.24083976737E+02  0.45045683530E+02  0.00000000000E+00 0.  1.
         11    1    3    3    0    0 -0.26268315686E+02 -0.24838363958E+00 -0.13547808741E+02  0.29557219513E+02  0.51100000000E-03 0. -1.
        -11    1    3    3    0    0 -0.80597672780E+01  0.20927080068E+01 -0.43905348674E+01  0.94136110000E+01  0.51100000000E-03 0.  1.
        -12    1    3    3    0    0 -0.36702363464E+01  0.43677160971E+00 -0.61456331284E+01  0.71714859566E+01  0.00000000000E+00 0.  1.
</event>
<event>
 7    1  0.4194672E-008  0.4614232E+02  0.7816164E-02  0.1320468E+00
        -11   -1    0    0    0    0  0.00000000000E+00  0.00000000000E+00  0.45593999997E+02  0.45594000000E+02  0.51100000000E-03 0.  1.
         11   -1    0    0    0    0 -0.00000000000E+00 -0.00000000000E+00 -0.45593999997E+02  0.45594000000E+02  0.51100000000E-03 0. -1.
    9900012    2    1    2    0    0  0.72207846357E+01  0.28075711566E+02 -0.34477939048E+02  0.46142316614E+02  0.99999895414E+01 0.  0.
        -12    1    1    2    0    0 -0.72207846357E+01 -0.28075711566E+02  0.34477939048E+02  0.45045683386E+02  0.00000000000E+00 0.  1.
         11    1    3    3    0    0  0.34139482374E+01  0.12538554316E+02 -0.20479901372E+02  0.24254829362E+02  0.51100000000E-03 0. -1.
        -11    1    3    3    0    0  0.30058347571E+01  0.79294472051E+01 -0.10441884474E+02  0.13451547390E+02  0.51100000000E-03 0.  1.
        -12    1    3    3    0    0  0.80100164119E+00  0.76077100453E+01 -0.35561532021E+01  0.84359398623E+01  0.00000000000E+00 0.  1.
</event>
<event>
 7    1  0.4194672E-008  0.4614232E+02  0.7816164E-02  0.1320468E+00
        -11   -1    0    0    0    0  0.00000000000E+00  0.00000000000E+00  0.45593999997E+02  0.45594000000E+02  0.51100000000E-03 0.  1.
         11   -1    0    0    0    0 -0.00000000000E+00 -0.00000000000E+00 -0.45593999997E+02  0.45594000000E+02  0.51100000000E-03 0. -1.
    9900012    2    1    2    0    0 -0.18407959698E+01 -0.22954724049E+02 -0.38714410730E+02  0.46142317808E+02  0.10000000426E+02 0.  0.
        -12    1    1    2    0    0  0.18407959698E+01  0.22954724049E+02  0.38714410730E+02  0.45045682192E+02  0.00000000000E+00 0.  1.
         11    1    3    3    0    0 -0.69143395381E+00 -0.18314056637E+02 -0.34829653791E+02  0.39357178950E+02  0.51100000000E-03 0. -1.
        -11    1    3    3    0    0  0.68553164256E+00 -0.34174929533E+00 -0.11125399762E+01  0.13507374554E+01  0.51100000000E-03 0.  1.
         12    1    3    3    0    0 -0.18348936585E+01 -0.42989181174E+01 -0.27722169628E+01  0.54344014028E+01  0.00000000000E+00 0. -1.
</event>
<event>
 7    1  0.4194672E-008  0.4614232E+02  0.7816164E-02  0.1320468E+00
        -11   -1    0    0    0    0  0.00000000000E+00  0.00000000000E+00  0.45593999997E+02  0.45594000000E+02  0.51100000000E-03 0.  1.
         11   -1    0    0    0    0 -0.00000000000E+00 -0.00000000000E+00 -0.45593999997E+02  0.45594000000E+02  0.51100000000E-03 0. -1.
    9900012    2    1    2    0    0  0.39804116995E+02  0.76270120099E+01 -0.19661498694E+02  0.46142316823E+02  0.99999914452E+01 0.  0.
        -12    1    1    2    0    0 -0.39804116995E+02 -0.76270120099E+01  0.19661498694E+02  0.45045683177E+02  0.00000000000E+00 0.  1.
         11    1    3    3    0    0  0.54172173482E+01  0.91315760682E+00 -0.40540369272E+01  0.68275410128E+01  0.51100000000E-03 0. -1.
        -11    1    3    3    0    0  0.12853013693E+02 -0.27254115668E+00 -0.91281277281E+01  0.15766957720E+02  0.51100000000E-03 0.  1.
         12    1    3    3    0    0  0.21533885954E+02  0.69863955597E+01 -0.64793340392E+01  0.23547818090E+02  0.00000000000E+00 0. -1.
</event>
<event>
 7    1  0.4194672E-008  0.4614232E+02  0.7816164E-02  0.1320468E+00
        -11   -1    0    0    0    0  0.00000000000E+00  0.00000000000E+00  0.45593999997E+02  0.45594000000E+02  0.51100000000E-03 0. -1.
         11   -1    0    0    0    0 -0.00000000000E+00 -0.00000000000E+00 -0.45593999997E+02  0.45594000000E+02  0.51100000000E-03 0.  1.
    9900012    2    1    2    0    0  0.10264905508E+02 -0.43819824627E+02  0.18889674858E+01  0.46142317481E+02  0.99999974468E+01 0.  0.
        -12    1    1    2    0    0 -0.10264905508E+02  0.43819824627E+02 -0.18889674858E+01  0.45045682519E+02  0.00000000000E+00 0.  1.
         11    1    3    3    0    0 -0.42084643803E+00 -0.12491399618E+02 -0.49957335621E+00  0.12508467130E+02  0.51100000000E-03 0. -1.
        -11    1    3    3    0    0  0.69031432752E+01 -0.20413734907E+02 -0.10693107968E+01  0.21575851913E+02  0.51100000000E-03 0.  1.
        -12    1    3    3    0    0  0.37826086707E+01 -0.10914690102E+02  0.34578516388E+01  0.12057998438E+02  0.00000000000E+00 0.  1.
</event>
<event>
 7    1  0.4194672E-008  0.4614231E+02  0.7816164E-02  0.1320468E+00
        -11   -1    0    0    0    0  0.00000000000E+00  0.00000000000E+00  0.45593999997E+02  0.45594000000E+02  0.51100000000E-03 0.  1.
         11   -1    0    0    0    0 -0.00000000000E+00 -0.00000000000E+00 -0.45593999997E+02  0.45594000000E+02  0.51100000000E-03 0. -1.
    9900012    2    1    2    0    0 -0.37026961552E+01  0.41788831044E+02 -0.16404193073E+02  0.46142313090E+02  0.99999574052E+01 0.  0.
        -12    1    1    2    0    0  0.37026961552E+01 -0.41788831044E+02  0.16404193073E+02  0.45045686910E+02  0.00000000000E+00 0.  1.
         11    1    3    3    0    0 -0.38967700369E+01  0.86833732576E+01 -0.26384225567E+01  0.98765916034E+01  0.51100000000E-03 0. -1.
        -11    1    3    3    0    0  0.96109050675E+00  0.52803216636E+01 -0.38487582102E+00  0.53808569478E+01  0.51100000000E-03 0.  1.
        -12    1    3    3    0    0 -0.76701662507E+00  0.27825136122E+02 -0.13380894696E+02  0.30884864539E+02  0.00000000000E+00 0.  1.
</event>
<event>
 7    1  0.6218685E-008  0.4614231E+02  0.7816164E-02  0.1320468E+00
        -11   -1    0    0    0    0  0.00000000000E+00  0.00000000000E+00  0.45593999997E+02  0.45594000000E+02  0.51100000000E-03 0.  1.
         11   -1    0    0    0    0 -0.00000000000E+00 -0.00000000000E+00 -0.45593999997E+02  0.45594000000E+02  0.51100000000E-03 0. -1.
    9900012    2    1    2    0    0 -0.44409415396E+02  0.54761167800E+01  0.51894344218E+01  0.46142309191E+02  0.99999218546E+01 0.  0.
        -12    1    1    2    0    0  0.44409415396E+02 -0.54761167800E+01 -0.51894344218E+01  0.45045690809E+02  0.00000000000E+00 0.  1.
         11    1    3    3    0    0 -0.19882169505E+02  0.17376742820E+01 -0.48906097739E+00  0.19963951438E+02  0.51100000000E-03 0. -1.
        -11    1    3    3    0    0 -0.12485063852E+02 -0.10065898940E+01  0.17191648002E+01  0.12643004804E+02  0.51100000000E-03 0.  1.
        -12    1    3    3    0    0 -0.12042182039E+02  0.47450323921E+01  0.39593305990E+01  0.13535352949E+02  0.00000000000E+00 0.  1.
</event>
<event>
 7    1  0.4194672E-008  0.4614232E+02  0.7816164E-02  0.1320468E+00
        -11   -1    0    0    0    0  0.00000000000E+00  0.00000000000E+00  0.45593999997E+02  0.45594000000E+02  0.51100000000E-03 0.  1.
         11   -1    0    0    0    0 -0.00000000000E+00 -0.00000000000E+00 -0.45593999997E+02  0.45594000000E+02  0.51100000000E-03 0. -1.
    9900012    2    1    2    0    0 -0.31502143866E+02 -0.13426094339E+02 -0.29265481169E+02  0.46142318016E+02  0.10000002325E+02 0.  0.
        -12    1    1    2    0    0  0.31502143866E+02  0.13426094339E+02  0.29265481169E+02  0.45045681984E+02  0.00000000000E+00 0.  1.
         11    1    3    3    0    0 -0.12066494854E+02 -0.30716898959E+01 -0.61565367331E+01  0.13890231160E+02  0.51100000000E-03 0. -1.
        -11    1    3    3    0    0 -0.72435457832E-01 -0.84321645017E+00 -0.14721011575E+01  0.16980409172E+01  0.51100000000E-03 0.  1.
         12    1    3    3    0    0 -0.19363213554E+02 -0.95111879933E+01 -0.21636843278E+02  0.30554045939E+02  0.00000000000E+00 0. -1.
</event>
<event>
 7    1  0.4194672E-008  0.4614232E+02  0.7816164E-02  0.1320468E+00
        -11   -1    0    0    0    0  0.00000000000E+00  0.00000000000E+00  0.45593999997E+02  0.45594000000E+02  0.51100000000E-03 0. -1.
         11   -1    0    0    0    0 -0.00000000000E+00 -0.00000000000E+00 -0.45593999997E+02  0.45594000000E+02  0.51100000000E-03 0.  1.
    9900012    2    1    2    0    0 -0.17487047716E+02  0.38780538876E+02  0.14811697213E+02  0.46142318657E+02  0.10000008171E+02 0.  0.
        -12    1    1    2    0    0  0.17487047716E+02 -0.38780538876E+02 -0.14811697213E+02  0.45045681343E+02  0.00000000000E+00 0.  1.
         11    1    3    3    0    0 -0.60550458909E+01  0.14210944975E+02  0.59267619889E+01  0.16545121509E+02  0.51100000000E-03 0. -1.
        -11    1    3    3    0    0 -0.10496934971E+02  0.17152132904E+02  0.92012391101E+01  0.22114341689E+02  0.51100000000E-03 0.  1.
        -12    1    3    3    0    0 -0.93506685400E+00  0.74174609974E+01 -0.31630388594E+00  0.74828554588E+01  0.00000000000E+00 0.  1.
</event>
<event>
 7    1  0.4251921E-008  0.4614232E+02  0.7816164E-02  0.1320468E+00
        -11   -1    0    0    0    0  0.00000000000E+00  0.00000000000E+00  0.45593999997E+02  0.45594000000E+02  0.51100000000E-03 0. -1.
         11   -1    0    0    0    0 -0.00000000000E+00 -0.00000000000E+00 -0.45593999997E+02  0.45594000000E+02  0.51100000000E-03 0.  1.
    9900012    2    1    2    0    0  0.40028575410E+02  0.15534826251E+02  0.13619685844E+02  0.46142317426E+02  0.99999969468E+01 0.  0.
        -12    1    1    2    0    0 -0.40028575410E+02 -0.15534826251E+02 -0.13619685844E+02  0.45045682574E+02  0.00000000000E+00 0.  1.
         11    1    3    3    0    0  0.18163804383E+02  0.60851602333E+01  0.39876326960E+01  0.19566659896E+02  0.51100000000E-03 0.  1.
        -11    1    3    3    0    0  0.17612133602E+02  0.98568033750E+01  0.62544087957E+01  0.21129634460E+02  0.51100000000E-03 0. -1.
        -12    1    3    3    0    0  0.42526374260E+01 -0.40713735712E+00  0.33776443526E+01  0.54460230699E+01  0.00000000000E+00 0.  1.
</event>
<event>
 7    1  0.4194672E-008  0.4614232E+02  0.7816164E-02  0.1320468E+00
        -11   -1    0    0    0    0  0.00000000000E+00  0.00000000000E+00  0.45593999997E+02  0.45594000000E+02  0.51100000000E-03 0.  1.
         11   -1    0    0    0    0 -0.00000000000E+00 -0.00000000000E+00 -0.45593999997E+02  0.45594000000E+02  0.51100000000E-03 0. -1.
    9900012    2    1    2    0    0 -0.14558824638E+02 -0.22367978458E+02 -0.36288119996E+02  0.46142317765E+02  0.10000000037E+02 0.  0.
        -12    1    1    2    0    0  0.14558824638E+02  0.22367978458E+02  0.36288119996E+02  0.45045682235E+02  0.00000000000E+00 0.  1.
         11    1    3    3    0    0 -0.31980048670E+01 -0.42210061781E+01 -0.56441140224E+01  0.77395188251E+01  0.51100000000E-03 0. -1.
        -11    1    3    3    0    0 -0.53556956580E+01 -0.31265001386E+01 -0.45122304415E+01  0.76693352330E+01  0.51100000000E-03 0.  1.
        -12    1    3    3    0    0 -0.60051241131E+01 -0.15020472141E+02 -0.26131775532E+02  0.30733463707E+02  0.00000000000E+00 0.  1.
</event>
<event>
 7    1  0.4194672E-008  0.4614232E+02  0.7816164E-02  0.1320468E+00
        -11   -1    0    0    0    0  0.00000000000E+00  0.00000000000E+00  0.45593999997E+02  0.45594000000E+02  0.51100000000E-03 0.  1.
         11   -1    0    0    0    0 -0.00000000000E+00 -0.00000000000E+00 -0.45593999997E+02  0.45594000000E+02  0.51100000000E-03 0. -1.
    9900012    2    1    2    0    0  0.33918640421E+01  0.38147616833E+02 -0.23714300967E+02  0.46142317831E+02  0.10000000636E+02 0.  0.
        -12    1    1    2    0    0 -0.33918640421E+01 -0.38147616833E+02  0.23714300967E+02  0.45045682169E+02  0.00000000000E+00 0.  1.
         11    1    3    3    0    0 -0.41469883258E+00  0.11563381884E+01  0.10089497138E+00  0.12325880025E+01  0.51100000000E-03 0. -1.
        -11    1    3    3    0    0 -0.65252224166E+00  0.23247641943E+01  0.31803813087E+00  0.24354593712E+01  0.51100000000E-03 0.  1.
         12    1    3    3    0    0  0.44590851164E+01  0.34666514451E+02 -0.24133234069E+02  0.42474270457E+02  0.00000000000E+00 0. -1.
</event>
<event>
 7    1  0.4194672E-008  0.4614232E+02  0.7816164E-02  0.1320468E+00
        -11   -1    0    0    0    0  0.00000000000E+00  0.00000000000E+00  0.45593999997E+02  0.45594000000E+02  0.51100000000E-03 0. -1.
         11   -1    0    0    0    0 -0.00000000000E+00 -0.00000000000E+00 -0.45593999997E+02  0.45594000000E+02  0.51100000000E-03 0.  1.
    9900012    2    1    2    0    0  0.14084669329E+02 -0.31352618052E+02  0.29116125116E+02  0.46142319734E+02  0.10000017993E+02 0.  0.
        -12    1    1    2    0    0 -0.14084669329E+02  0.31352618052E+02 -0.29116125116E+02  0.45045680266E+02  0.00000000000E+00 0.  1.
         11    1    3    3    0    0  0.37870345680E+01 -0.14985809004E+02  0.14406331802E+02  0.21129564562E+02  0.51100000000E-03 0. -1.
        -11    1    3    3    0    0  0.27205335455E+01 -0.11924366128E+01  0.38905416893E+01  0.48948465497E+01  0.51100000000E-03 0.  1.
         12    1    3    3    0    0  0.75771012158E+01 -0.15174372435E+02  0.10819251625E+02  0.20117908623E+02  0.00000000000E+00 0. -1.
</event>
<event>
 7    1  0.4200671E-008  0.4614231E+02  0.7816164E-02  0.1320468E+00
        -11   -1    0    0    0    0  0.00000000000E+00  0.00000000000E+00  0.45593999997E+02  0.45594000000E+02  0.51100000000E-03 0. -1.
         11   -1    0    0    0    0 -0.00000000000E+00 -0.00000000000E+00 -0.45593999997E+02  0.45594000000E+02  0.51100000000E-03 0.  1.
    9900012    2    1    2    0    0 -0.27647764957E+02  0.47309722413E+01  0.35246741055E+02  0.46142314741E+02  0.99999724564E+01 0.  0.
        -12    1    1    2    0    0  0.27647764957E+02 -0.47309722413E+01 -0.35246741055E+02  0.45045685259E+02  0.00000000000E+00 0.  1.
         11    1    3    3    0    0 -0.11852917528E+02  0.10014337592E-01  0.12155743440E+02  0.16978040318E+02  0.51100000000E-03 0. -1.
        -11    1    3    3    0    0 -0.34677301197E+01 -0.14055320648E+01  0.29318880926E+01  0.47535923907E+01  0.51100000000E-03 0.  1.
        -12    1    3    3    0    0 -0.12327117310E+02  0.61264899685E+01  0.20159109523E+02  0.24410682032E+02  0.00000000000E+00 0.  1.
</event>
<event>
 7    1  0.4194672E-008  0.4614232E+02  0.7816164E-02  0.1320468E+00
        -11   -1    0    0    0    0  0.00000000000E+00  0.00000000000E+00  0.45593999997E+02  0.45594000000E+02  0.51100000000E-03 0.  1.
         11   -1    0    0    0    0 -0.00000000000E+00 -0.00000000000E+00 -0.45593999997E+02  0.45594000000E+02  0.51100000000E-03 0. -1.
    9900012    2    1    2    0    0 -0.23609987004E+02  0.29745540352E+02  0.24225704704E+02  0.46142318458E+02  0.10000006355E+02 0.  0.
        -12    1    1    2    0    0  0.23609987004E+02 -0.29745540352E+02 -0.24225704704E+02  0.45045681542E+02  0.00000000000E+00 0.  1.
         11    1    3    3    0    0 -0.16104176011E+02  0.23177307513E+02  0.16817813390E+02  0.32853780849E+02  0.51100000000E-03 0. -1.
        -11    1    3    3    0    0 -0.14976836133E+01  0.41505593255E+01  0.40687208766E+01  0.60020570435E+01  0.51100000000E-03 0.  1.
         12    1    3    3    0    0 -0.60081273798E+01  0.24176735130E+01  0.33391704373E+01  0.72864805659E+01  0.00000000000E+00 0. -1.
</event>
<event>
 7    1  0.4194672E-008  0.4614232E+02  0.7816164E-02  0.1320468E+00
        -11   -1    0    0    0    0  0.00000000000E+00  0.00000000000E+00  0.45593999997E+02  0.45594000000E+02  0.51100000000E-03 0.  1.
         11   -1    0    0    0    0 -0.00000000000E+00 -0.00000000000E+00 -0.45593999997E+02  0.45594000000E+02  0.51100000000E-03 0. -1.
    9900012    2    1    2    0    0  0.18325001272E+02  0.15837196691E+02 -0.37980139525E+02  0.46142317976E+02  0.10000001961E+02 0.  0.
        -12    1    1    2    0    0 -0.18325001272E+02 -0.15837196691E+02  0.37980139525E+02  0.45045682024E+02  0.00000000000E+00 0.  1.
         11    1    3    3    0    0  0.38197545125E+01  0.50443615328E+01 -0.11125492310E+02  0.12798933049E+02  0.51100000000E-03 0. -1.
        -11    1    3    3    0    0  0.20917273737E+01  0.61190530592E+01 -0.79137322891E+01  0.10219847981E+02  0.51100000000E-03 0.  1.
         12    1    3    3    0    0  0.12413519385E+02  0.46737820994E+01 -0.18940914926E+02  0.23123536946E+02  0.00000000000E+00 0. -1.
</event>
<event>
 7    1  0.4194672E-008  0.4614232E+02  0.7816164E-02  0.1320468E+00
        -11   -1    0    0    0    0  0.00000000000E+00  0.00000000000E+00  0.45593999997E+02  0.45594000000E+02  0.51100000000E-03 0.  1.
         11   -1    0    0    0    0 -0.00000000000E+00 -0.00000000000E+00 -0.45593999997E+02  0.45594000000E+02  0.51100000000E-03 0. -1.
    9900012    2    1    2    0    0  0.29164413055E+02  0.20341887500E+02 -0.27654261256E+02  0.46142317171E+02  0.99999946209E+01 0.  0.
        -12    1    1    2    0    0 -0.29164413055E+02 -0.20341887500E+02  0.27654261256E+02  0.45045682829E+02  0.00000000000E+00 0.  1.
         11    1    3    3    0    0  0.11820530683E+02  0.90088709070E+01 -0.12561355018E+02  0.19459505153E+02  0.51100000000E-03 0. -1.
        -11    1    3    3    0    0  0.81682341716E+01  0.29373668889E+01 -0.10004023023E+02  0.13244948117E+02  0.51100000000E-03 0.  1.
         12    1    3    3    0    0  0.91756482006E+01  0.83956497042E+01 -0.50888832151E+01  0.13437863901E+02  0.00000000000E+00 0. -1.
</event>
<event>
 7    1  0.4194672E-008  0.4614232E+02  0.7816164E-02  0.1320468E+00
        -11   -1    0    0    0    0  0.00000000000E+00  0.00000000000E+00  0.45593999997E+02  0.45594000000E+02  0.51100000000E-03 0.  1.
         11   -1    0    0    0    0 -0.00000000000E+00 -0.00000000000E+00 -0.45593999997E+02  0.45594000000E+02  0.51100000000E-03 0. -1.
    9900012    2    1    2    0    0  0.37172852858E+02  0.18830167612E+02 -0.17108974444E+02  0.46142320869E+02  0.10000028336E+02 0.  0.
        -12    1    1    2    0    0 -0.37172852858E+02 -0.18830167612E+02  0.17108974444E+02  0.45045679131E+02  0.00000000000E+00 0.  1.
         11    1    3    3    0    0  0.34633618663E+02  0.16922662518E+02 -0.14863264647E+02  0.41313202303E+02  0.51100000000E-03 0. -1.
        -11    1    3    3    0    0  0.19362626076E+01  0.25922995975E+01 -0.22055483127E+01  0.39158107346E+01  0.51100000000E-03 0.  1.
         12    1    3    3    0    0  0.60297158804E+00 -0.68479450375E+00 -0.40161484576E-01  0.91330783046E+00  0.00000000000E+00 0. -1.
</event>
<event>
 7    1  0.4194672E-008  0.4614232E+02  0.7816164E-02  0.1320468E+00
        -11   -1    0    0    0    0  0.00000000000E+00  0.00000000000E+00  0.45593999997E+02  0.45594000000E+02  0.51100000000E-03 0.  1.
         11   -1    0    0    0    0 -0.00000000000E+00 -0.00000000000E+00 -0.45593999997E+02  0.45594000000E+02  0.51100000000E-03 0. -1.
    9900012    2    1    2    0    0  0.34486630864E+01 -0.11154763605E+02 -0.43506222748E+02  0.46142318232E+02  0.10000004295E+02 0.  0.
        -12    1    1    2    0    0 -0.34486630864E+01  0.11154763605E+02  0.43506222748E+02  0.45045681768E+02  0.00000000000E+00 0.  1.
         11    1    3    3    0    0  0.26480564463E+01 -0.43030435631E+01 -0.32793358939E+02  0.33180307075E+02  0.51100000000E-03 0. -1.
        -11    1    3    3    0    0  0.16205982254E+01 -0.51947568639E+01 -0.82331556495E+01  0.98689761218E+01  0.51100000000E-03 0.  1.
         12    1    3    3    0    0 -0.81999158529E+00 -0.16569631782E+01 -0.24797081595E+01  0.30930350354E+01  0.00000000000E+00 0. -1.
</event>
<event>
 7    1  0.4194672E-008  0.4614232E+02  0.7816164E-02  0.1320468E+00
        -11   -1    0    0    0    0  0.00000000000E+00  0.00000000000E+00  0.45593999997E+02  0.45594000000E+02  0.51100000000E-03 0.  1.
         11   -1    0    0    0    0 -0.00000000000E+00 -0.00000000000E+00 -0.45593999997E+02  0.45594000000E+02  0.51100000000E-03 0. -1.
    9900012    2    1    2    0    0 -0.60028313473E+01 -0.22968681651E+02 -0.38282099717E+02  0.46142317857E+02  0.10000000871E+02 0.  0.
        -12    1    1    2    0    0  0.60028313473E+01  0.22968681651E+02  0.38282099717E+02  0.45045682143E+02  0.00000000000E+00 0.  1.
         11    1    3    3    0    0 -0.45048638410E+01 -0.70729409099E+01 -0.10860688250E+02  0.13721327955E+02  0.51100000000E-03 0. -1.
        -11    1    3    3    0    0 -0.28922329689E+01 -0.10110983052E+02 -0.21941917838E+02  0.24331969680E+02  0.51100000000E-03 0.  1.
        -12    1    3    3    0    0  0.13942654627E+01 -0.57847576892E+01 -0.54794936298E+01  0.80890202214E+01  0.00000000000E+00 0.  1.
</event>
<event>
 7    1  0.4194672E-008  0.4614232E+02  0.7816164E-02  0.1320468E+00
        -11   -1    0    0    0    0  0.00000000000E+00  0.00000000000E+00  0.45593999997E+02  0.45594000000E+02  0.51100000000E-03 0. -1.
         11   -1    0    0    0    0 -0.00000000000E+00 -0.00000000000E+00 -0.45593999997E+02  0.45594000000E+02  0.51100000000E-03 0.  1.
    9900012    2    1    2    0    0 -0.15863289090E+02  0.10268131364E+02  0.40890525582E+02  0.46142317134E+02  0.99999942819E+01 0.  0.
        -12    1    1    2    0    0  0.15863289090E+02 -0.10268131364E+02 -0.40890525582E+02  0.45045682866E+02  0.00000000000E+00 0.  1.
         11    1    3    3    0    0 -0.65411359981E+01  0.90503159790E+01  0.21451761484E+02  0.24184142542E+02  0.51100000000E-03 0. -1.
        -11    1    3    3    0    0 -0.24362114828E+01  0.19463589460E+01  0.80080582787E+01  0.85937440730E+01  0.51100000000E-03 0.  1.
        -12    1    3    3    0    0 -0.68859416088E+01 -0.72854356108E+00  0.11430705820E+02  0.13364430519E+02  0.00000000000E+00 0.  1.
</event>
<event>
 7    1  0.4194672E-008  0.4614232E+02  0.7816164E-02  0.1320468E+00
        -11   -1    0    0    0    0  0.00000000000E+00  0.00000000000E+00  0.45593999997E+02  0.45594000000E+02  0.51100000000E-03 0. -1.
         11   -1    0    0    0    0 -0.00000000000E+00 -0.00000000000E+00 -0.45593999997E+02  0.45594000000E+02  0.51100000000E-03 0.  1.
    9900012    2    1    2    0    0  0.30838888787E+02  0.12969126861E+02 -0.30164188114E+02  0.46142316991E+02  0.99999929811E+01 0.  0.
        -12    1    1    2    0    0 -0.30838888787E+02 -0.12969126861E+02  0.30164188114E+02  0.45045683009E+02  0.00000000000E+00 0.  1.
         11    1    3    3    0    0  0.50966808845E+01  0.11965956191E+01 -0.57996971097E+01  0.78130969493E+01  0.51100000000E-03 0. -1.
        -11    1    3    3    0    0  0.21409724251E+02  0.71690550308E+01 -0.15283573192E+02  0.27264615389E+02  0.51100000000E-03 0.  1.
        -12    1    3    3    0    0  0.43324836512E+01  0.46034762114E+01 -0.90809178117E+01  0.11064604653E+02  0.00000000000E+00 0.  1.
</event>
<event>
 7    1  0.4194672E-008  0.4614232E+02  0.7816164E-02  0.1320468E+00
        -11   -1    0    0    0    0  0.00000000000E+00  0.00000000000E+00  0.45593999997E+02  0.45594000000E+02  0.51100000000E-03 0.  1.
         11   -1    0    0    0    0 -0.00000000000E+00 -0.00000000000E+00 -0.45593999997E+02  0.45594000000E+02  0.51100000000E-03 0. -1.
    9900012    2    1    2    0    0 -0.21271352774E+02 -0.39353485594E+02 -0.52864198458E+01  0.46142317499E+02  0.99999976083E+01 0.  0.
        -12    1    1    2    0    0  0.21271352774E+02  0.39353485594E+02  0.52864198458E+01  0.45045682501E+02  0.00000000000E+00 0.  1.
         11    1    3    3    0    0 -0.26130295036E+01 -0.48194666497E+01  0.15456104661E+01  0.56959717300E+01  0.51100000000E-03 0. -1.
        -11    1    3    3    0    0 -0.74220298894E+01 -0.15899203943E+02  0.29468166514E+00  0.17548733608E+02  0.51100000000E-03 0.  1.
         12    1    3    3    0    0 -0.11236293381E+02 -0.18634815001E+02 -0.71267119771E+01  0.22897612161E+02  0.00000000000E+00 0. -1.
</event>
<event>
 7    1  0.4194672E-008  0.4614232E+02  0.7816164E-02  0.1320468E+00
        -11   -1    0    0    0    0  0.00000000000E+00  0.00000000000E+00  0.45593999997E+02  0.45594000000E+02  0.51100000000E-03 0. -1.
         11   -1    0    0    0    0 -0.00000000000E+00 -0.00000000000E+00 -0.45593999997E+02  0.45594000000E+02  0.51100000000E-03 0.  1.
    9900012    2    1    2    0    0  0.15779002698E+02  0.16193562057E+02  0.38960300958E+02  0.46142318420E+02  0.10000006012E+02 0.  0.
        -12    1    1    2    0    0 -0.15779002698E+02 -0.16193562057E+02 -0.38960300958E+02  0.45045681580E+02  0.00000000000E+00 0.  1.
         11    1    3    3    0    0  0.13675648955E+02  0.11050461311E+02  0.33196575842E+02  0.37565259448E+02  0.51100000000E-03 0. -1.
        -11    1    3    3    0    0  0.19277074503E+01  0.11544302077E+01  0.13318634444E+01  0.26120156229E+01  0.51100000000E-03 0.  1.
        -12    1    3    3    0    0  0.17564629314E+00  0.39886705385E+01  0.44318616715E+01  0.59650433494E+01  0.00000000000E+00 0.  1.
</event>
<event>
 7    1  0.4194672E-008  0.4614232E+02  0.7816164E-02  0.1320468E+00
        -11   -1    0    0    0    0  0.00000000000E+00  0.00000000000E+00  0.45593999997E+02  0.45594000000E+02  0.51100000000E-03 0.  1.
         11   -1    0    0    0    0 -0.00000000000E+00 -0.00000000000E+00 -0.45593999997E+02  0.45594000000E+02  0.51100000000E-03 0. -1.
    9900012    2    1    2    0    0  0.13909638151E+02  0.13872405378E+01 -0.42821852418E+02  0.46142317473E+02  0.99999973755E+01 0.  0.
        -12    1    1    2    0    0 -0.13909638151E+02 -0.13872405378E+01  0.42821852418E+02  0.45045682527E+02  0.00000000000E+00 0.  1.
         11    1    3    3    0    0 -0.38722446316E+00 -0.48643438022E+00 -0.11084671214E+00  0.63154449237E+00  0.51100000000E-03 0. -1.
        -11    1    3    3    0    0  0.93989694162E-01  0.13812146251E+01 -0.56841543047E+01  0.58503160875E+01  0.51100000000E-03 0.  1.
         12    1    3    3    0    0  0.14202872920E+02  0.49246029290E+00 -0.37026851401E+02  0.39660456893E+02  0.00000000000E+00 0. -1.
</event>
<event>
 7    1  0.4194672E-008  0.4614232E+02  0.7816164E-02  0.1320468E+00
        -11   -1    0    0    0    0  0.00000000000E+00  0.00000000000E+00  0.45593999997E+02  0.45594000000E+02  0.51100000000E-03 0.  1.
         11   -1    0    0    0    0 -0.00000000000E+00 -0.00000000000E+00 -0.45593999997E+02  0.45594000000E+02  0.51100000000E-03 0. -1.
    9900012    2    1    2    0    0  0.19672878073E+02  0.52264414824E+01 -0.40184272956E+02  0.46142316353E+02  0.99999871553E+01 0.  0.
        -12    1    1    2    0    0 -0.19672878073E+02 -0.52264414824E+01  0.40184272956E+02  0.45045683647E+02  0.00000000000E+00 0.  1.
         11    1    3    3    0    0  0.14701851654E+02  0.30090020469E+01 -0.34085702002E+02  0.37242900218E+02  0.51100000000E-03 0. -1.
        -11    1    3    3    0    0  0.34480049961E+00 -0.70368938758E+00 -0.17259211345E+01  0.18954867877E+01  0.51100000000E-03 0.  1.
        -12    1    3    3    0    0  0.46262259190E+01  0.29211288230E+01 -0.43726498197E+01  0.70039293472E+01  0.00000000000E+00 0.  1.
</event>
<event>
 7    1  0.4194672E-008  0.4614232E+02  0.7816164E-02  0.1320468E+00
        -11   -1    0    0    0    0  0.00000000000E+00  0.00000000000E+00  0.45593999997E+02  0.45594000000E+02  0.51100000000E-03 0.  1.
         11   -1    0    0    0    0 -0.00000000000E+00 -0.00000000000E+00 -0.45593999997E+02  0.45594000000E+02  0.51100000000E-03 0. -1.
    9900012    2    1    2    0    0 -0.92325426790E+01  0.38638113029E+02 -0.21236049997E+02  0.46142318273E+02  0.10000004668E+02 0.  0.
        -12    1    1    2    0    0  0.92325426790E+01 -0.38638113029E+02  0.21236049997E+02  0.45045681727E+02  0.00000000000E+00 0.  1.
         11    1    3    3    0    0 -0.46226223292E+01  0.21570874641E+02 -0.83236763715E+01  0.23578695014E+02  0.51100000000E-03 0. -1.
        -11    1    3    3    0    0 -0.18498731400E+01  0.13630983633E+02 -0.77992892034E+01  0.15813116637E+02  0.51100000000E-03 0.  1.
        -12    1    3    3    0    0 -0.27600472098E+01  0.34362547553E+01 -0.51130844219E+01  0.67505066216E+01  0.00000000000E+00 0.  1.
</event>
<event>
 7    1  0.4194672E-008  0.4614232E+02  0.7816164E-02  0.1320468E+00
        -11   -1    0    0    0    0  0.00000000000E+00  0.00000000000E+00  0.45593999997E+02  0.45594000000E+02  0.51100000000E-03 0.  1.
         11   -1    0    0    0    0 -0.00000000000E+00 -0.00000000000E+00 -0.45593999997E+02  0.45594000000E+02  0.51100000000E-03 0. -1.
    9900012    2    1    2    0    0 -0.35616781482E+02  0.15908079293E+02 -0.22527568968E+02  0.46142317926E+02  0.10000001505E+02 0.  0.
        -12    1    1    2    0    0  0.35616781482E+02 -0.15908079293E+02  0.22527568968E+02  0.45045682074E+02  0.00000000000E+00 0.  1.
         11    1    3    3    0    0 -0.28167685372E+02  0.12670546719E+02 -0.17599639138E+02  0.35548678617E+02  0.51100000000E-03 0. -1.
        -11    1    3    3    0    0 -0.80873922142E+01  0.32811607428E+01 -0.47119165580E+01  0.99183711645E+01  0.51100000000E-03 0.  1.
        -12    1    3    3    0    0  0.63829610431E+00 -0.43628168510E-01 -0.21601327200E+00  0.67526814492E+00  0.00000000000E+00 0.  1.
</event>
<event>
 7    1  0.4194672E-008  0.4614232E+02  0.7816164E-02  0.1320468E+00
        -11   -1    0    0    0    0  0.00000000000E+00  0.00000000000E+00  0.45593999997E+02  0.45594000000E+02  0.51100000000E-03 0. -1.
         11   -1    0    0    0    0 -0.00000000000E+00 -0.00000000000E+00 -0.45593999997E+02  0.45594000000E+02  0.51100000000E-03 0.  1.
    9900012    2    1    2    0    0  0.31141882251E+02  0.56855211299E+01  0.32046396657E+02  0.46142317417E+02  0.99999968635E+01 0.  0.
        -12    1    1    2    0    0 -0.31141882251E+02 -0.56855211299E+01 -0.32046396657E+02  0.45045682583E+02  0.00000000000E+00 0.  1.
         11    1    3    3    0    0  0.20122525084E+01  0.57624397159E+00  0.60894291175E+00  0.21799149073E+01  0.51100000000E-03 0. -1.
        -11    1    3    3    0    0  0.22775905498E+02  0.19333420759E+01  0.19377897885E+02  0.29966357963E+02  0.51100000000E-03 0.  1.
         12    1    3    3    0    0  0.63537242448E+01  0.31759350825E+01  0.12059555860E+02  0.13996044547E+02  0.00000000000E+00 0. -1.
</event>
<event>
 7    1  0.4194672E-008  0.4614232E+02  0.7816164E-02  0.1320468E+00
        -11   -1    0    0    0    0  0.00000000000E+00  0.00000000000E+00  0.45593999997E+02  0.45594000000E+02  0.51100000000E-03 0.  1.
         11   -1    0    0    0    0 -0.00000000000E+00 -0.00000000000E+00 -0.45593999997E+02  0.45594000000E+02  0.51100000000E-03 0. -1.
    9900012    2    1    2    0    0 -0.56192221024E+01 -0.39737050149E+02 -0.20457385412E+02  0.46142318415E+02  0.10000005958E+02 0.  0.
        -12    1    1    2    0    0  0.56192221024E+01  0.39737050149E+02  0.20457385412E+02  0.45045681585E+02  0.00000000000E+00 0.  1.
         11    1    3    3    0    0 -0.95137828629E+00 -0.16126744791E+02 -0.54978816459E+01  0.17064692234E+02  0.51100000000E-03 0. -1.
        -11    1    3    3    0    0  0.69553778428E+00 -0.11267028361E+01 -0.24753926263E+01  0.28072764391E+01  0.51100000000E-03 0.  1.
         12    1    3    3    0    0 -0.53633816004E+01 -0.22483602522E+02 -0.12484111140E+02  0.26270349741E+02  0.00000000000E+00 0. -1.
</event>
<event>
 7    1  0.4194672E-008  0.4614232E+02  0.7816164E-02  0.1320468E+00
        -11   -1    0    0    0    0  0.00000000000E+00  0.00000000000E+00  0.45593999997E+02  0.45594000000E+02  0.51100000000E-03 0.  1.
         11   -1    0    0    0    0 -0.00000000000E+00 -0.00000000000E+00 -0.45593999997E+02  0.45594000000E+02  0.51100000000E-03 0. -1.
    9900012    2    1    2    0    0 -0.23894235854E+02 -0.36873217328E+02 -0.99269757204E+01  0.46142317520E+02  0.99999978025E+01 0.  0.
        -12    1    1    2    0    0  0.23894235854E+02  0.36873217328E+02  0.99269757204E+01  0.45045682480E+02  0.00000000000E+00 0.  1.
         11    1    3    3    0    0 -0.81487111838E+00 -0.37745493656E+01  0.41914364620E+00  0.38841883979E+01  0.51100000000E-03 0. -1.
        -11    1    3    3    0    0 -0.12200625265E+02 -0.11539100349E+02 -0.34464744283E+01  0.17143053403E+02  0.51100000000E-03 0.  1.
         12    1    3    3    0    0 -0.10878739470E+02 -0.21559567613E+02 -0.68996449383E+01  0.25115075719E+02  0.00000000000E+00 0. -1.
</event>
<event>
 7    1  0.4194672E-008  0.4614232E+02  0.7816164E-02  0.1320468E+00
        -11   -1    0    0    0    0  0.00000000000E+00  0.00000000000E+00  0.45593999997E+02  0.45594000000E+02  0.51100000000E-03 0. -1.
         11   -1    0    0    0    0 -0.00000000000E+00 -0.00000000000E+00 -0.45593999997E+02  0.45594000000E+02  0.51100000000E-03 0.  1.
    9900012    2    1    2    0    0  0.40055750364E+02  0.19552215615E+02  0.65085561577E+01  0.46142316789E+02  0.99999911350E+01 0.  0.
        -12    1    1    2    0    0 -0.40055750364E+02 -0.19552215615E+02 -0.65085561577E+01  0.45045683211E+02  0.00000000000E+00 0.  1.
         11    1    3    3    0    0  0.15563287481E+02  0.50056117906E+01  0.43688911718E+00  0.16354294206E+02  0.51100000000E-03 0. -1.
        -11    1    3    3    0    0  0.51662499407E-01 -0.34870236896E+00  0.52671080774E+00  0.63378773424E+00  0.51100000000E-03 0.  1.
        -12    1    3    3    0    0  0.24440800384E+02  0.14895306193E+02  0.55449562328E+01  0.29154234849E+02  0.00000000000E+00 0.  1.
</event>
<event>
 7    1  0.4194672E-008  0.4614232E+02  0.7816164E-02  0.1320468E+00
        -11   -1    0    0    0    0  0.00000000000E+00  0.00000000000E+00  0.45593999997E+02  0.45594000000E+02  0.51100000000E-03 0.  1.
         11   -1    0    0    0    0 -0.00000000000E+00 -0.00000000000E+00 -0.45593999997E+02  0.45594000000E+02  0.51100000000E-03 0. -1.
    9900012    2    1    2    0    0 -0.14267061603E+02  0.42613300134E+02 -0.31098401793E+01  0.46142317620E+02  0.99999987160E+01 0.  0.
        -12    1    1    2    0    0  0.14267061603E+02 -0.42613300134E+02  0.31098401793E+01  0.45045682380E+02  0.00000000000E+00 0.  1.
         11    1    3    3    0    0 -0.71011741882E+01  0.21120943585E+02  0.13641665315E+01  0.22324468266E+02  0.51100000000E-03 0. -1.
        -11    1    3    3    0    0 -0.51687482146E+01  0.69304786321E+01 -0.90765765825E+00  0.86931774894E+01  0.51100000000E-03 0.  1.
        -12    1    3    3    0    0 -0.19971392002E+01  0.14561877917E+02 -0.35663490526E+01  0.15124671865E+02  0.00000000000E+00 0.  1.
</event>
<event>
 7    1  0.4194672E-008  0.4614232E+02  0.7816164E-02  0.1320468E+00
        -11   -1    0    0    0    0  0.00000000000E+00  0.00000000000E+00  0.45593999997E+02  0.45594000000E+02  0.51100000000E-03 0. -1.
         11   -1    0    0    0    0 -0.00000000000E+00 -0.00000000000E+00 -0.45593999997E+02  0.45594000000E+02  0.51100000000E-03 0.  1.
    9900012    2    1    2    0    0  0.29057306307E+02  0.33125042479E+02  0.93551097316E+01  0.46142316887E+02  0.99999920263E+01 0.  0.
        -12    1    1    2    0    0 -0.29057306307E+02 -0.33125042479E+02 -0.93551097316E+01  0.45045683113E+02  0.00000000000E+00 0.  1.
         11    1    3    3    0    0  0.86267558207E+01  0.15110198387E+02  0.28514713870E+01  0.17631503074E+02  0.51100000000E-03 0.  1.
        -11    1    3    3    0    0  0.17890002216E+02  0.17170300337E+02  0.45846779981E+01  0.25216872636E+02  0.51100000000E-03 0. -1.
        -12    1    3    3    0    0  0.25405482696E+01  0.84454375508E+00  0.19189603465E+01  0.32939411768E+01  0.00000000000E+00 0.  1.
</event>
<event>
 7    1  0.4879482E-008  0.4614232E+02  0.7816164E-02  0.1320468E+00
        -11   -1    0    0    0    0  0.00000000000E+00  0.00000000000E+00  0.45593999997E+02  0.45594000000E+02  0.51100000000E-03 0.  1.
         11   -1    0    0    0    0 -0.00000000000E+00 -0.00000000000E+00 -0.45593999997E+02  0.45594000000E+02  0.51100000000E-03 0. -1.
    9900012    2    1    2    0    0 -0.31635971118E+02  0.31927170116E+02  0.29890754300E+01  0.46142318385E+02  0.10000005688E+02 0.  0.
        -12    1    1    2    0    0  0.31635971118E+02 -0.31927170116E+02 -0.29890754300E+01  0.45045681615E+02  0.00000000000E+00 0.  1.
         11    1    3    3    0    0 -0.44552062395E+01  0.80215796615E+01  0.91671239009E+00  0.92214404932E+01  0.51100000000E-03 0. -1.
        -11    1    3    3    0    0 -0.11354754696E+01  0.26379672598E+01 -0.12490408606E+01  0.31318172263E+01  0.51100000000E-03 0.  1.
        -12    1    3    3    0    0 -0.26045289409E+02  0.21267623195E+02  0.33214039006E+01  0.33789060665E+02  0.00000000000E+00 0.  1.
</event>
<event>
 7    1  0.4194672E-008  0.4614232E+02  0.7816164E-02  0.1320468E+00
        -11   -1    0    0    0    0  0.00000000000E+00  0.00000000000E+00  0.45593999997E+02  0.45594000000E+02  0.51100000000E-03 0. -1.
         11   -1    0    0    0    0 -0.00000000000E+00 -0.00000000000E+00 -0.45593999997E+02  0.45594000000E+02  0.51100000000E-03 0.  1.
    9900012    2    1    2    0    0  0.32181479792E+02  0.31117498552E+02  0.50166885160E+01  0.46142317395E+02  0.99999966603E+01 0.  0.
        -12    1    1    2    0    0 -0.32181479792E+02 -0.31117498552E+02 -0.50166885160E+01  0.45045682605E+02  0.00000000000E+00 0.  1.
         11    1    3    3    0    0  0.19649779100E+02  0.14087022153E+02  0.14791722364E+01  0.24222839689E+02  0.51100000000E-03 0. -1.
        -11    1    3    3    0    0  0.86541639478E+01  0.14430795413E+02  0.37749583369E+01  0.17245078156E+02  0.51100000000E-03 0.  1.
         12    1    3    3    0    0  0.38775367441E+01  0.25996809851E+01 -0.23744205729E+00  0.46743995504E+01  0.00000000000E+00 0. -1.
</event>
<event>
 7    1  0.4194672E-008  0.4614232E+02  0.7816164E-02  0.1320468E+00
        -11   -1    0    0    0    0  0.00000000000E+00  0.00000000000E+00  0.45593999997E+02  0.45594000000E+02  0.51100000000E-03 0. -1.
         11   -1    0    0    0    0 -0.00000000000E+00 -0.00000000000E+00 -0.45593999997E+02  0.45594000000E+02  0.51100000000E-03 0.  1.
    9900012    2    1    2    0    0  0.15501029601E+02  0.32697995339E+02  0.26826715554E+02  0.46142317795E+02  0.10000000308E+02 0.  0.
        -12    1    1    2    0    0 -0.15501029601E+02 -0.32697995339E+02 -0.26826715554E+02  0.45045682205E+02  0.00000000000E+00 0.  1.
         11    1    3    3    0    0  0.16353138446E+00  0.55166373207E+01  0.27576412794E+01  0.61696527883E+01  0.51100000000E-03 0. -1.
        -11    1    3    3    0    0  0.23430345143E+01  0.68719462460E+01  0.26715671009E+01  0.77363251598E+01  0.51100000000E-03 0.  1.
        -12    1    3    3    0    0  0.12994463702E+02  0.20309411773E+02  0.21397507174E+02  0.32236339847E+02  0.00000000000E+00 0.  1.
</event>
<event>
 7    1  0.4194672E-008  0.4614232E+02  0.7816164E-02  0.1320468E+00
        -11   -1    0    0    0    0  0.00000000000E+00  0.00000000000E+00  0.45593999997E+02  0.45594000000E+02  0.51100000000E-03 0.  1.
         11   -1    0    0    0    0 -0.00000000000E+00 -0.00000000000E+00 -0.45593999997E+02  0.45594000000E+02  0.51100000000E-03 0. -1.
    9900012    2    1    2    0    0  0.62743025416E+01  0.34222042236E+00 -0.44605263439E+02  0.46142317480E+02  0.99999974375E+01 0.  0.
        -12    1    1    2    0    0 -0.62743025416E+01 -0.34222042236E+00  0.44605263439E+02  0.45045682520E+02  0.00000000000E+00 0.  1.
         11    1    3    3    0    0  0.40547757593E+01  0.15350308185E+01 -0.18350979067E+02  0.18856191530E+02  0.51100000000E-03 0. -1.
        -11    1    3    3    0    0  0.31188836160E+01 -0.12317300859E+01 -0.26167802090E+02  0.26381782740E+02  0.51100000000E-03 0.  1.
         12    1    3    3    0    0 -0.89935683369E+00  0.38919689706E-01 -0.86482282353E-01  0.90434321013E+00  0.00000000000E+00 0. -1.
</event>
<event>
 7    1  0.4194672E-008  0.4614232E+02  0.7816164E-02  0.1320468E+00
        -11   -1    0    0    0    0  0.00000000000E+00  0.00000000000E+00  0.45593999997E+02  0.45594000000E+02  0.51100000000E-03 0.  1.
         11   -1    0    0    0    0 -0.00000000000E+00 -0.00000000000E+00 -0.45593999997E+02  0.45594000000E+02  0.51100000000E-03 0. -1.
    9900012    2    1    2    0    0 -0.76491138258E+01 -0.44604469131E+01 -0.44166831260E+02  0.46142317492E+02  0.99999975505E+01 0.  0.
        -12    1    1    2    0    0  0.76491138258E+01  0.44604469131E+01  0.44166831260E+02  0.45045682508E+02  0.00000000000E+00 0.  1.
         11    1    3    3    0    0  0.59972139336E+00 -0.19518364827E+01 -0.63444186949E+01  0.66649066192E+01  0.51100000000E-03 0. -1.
        -11    1    3    3    0    0 -0.26638056004E+00 -0.31002492661E+01 -0.14158842868E+02  0.14496735347E+02  0.51100000000E-03 0.  1.
         12    1    3    3    0    0 -0.79824546592E+01  0.59163883568E+00 -0.23663569698E+02  0.24980675526E+02  0.00000000000E+00 0. -1.
</event>
<event>
 7    1  0.4194672E-008  0.4614232E+02  0.7816164E-02  0.1320468E+00
        -11   -1    0    0    0    0  0.00000000000E+00  0.00000000000E+00  0.45593999997E+02  0.45594000000E+02  0.51100000000E-03 0.  1.
         11   -1    0    0    0    0 -0.00000000000E+00 -0.00000000000E+00 -0.45593999997E+02  0.45594000000E+02  0.51100000000E-03 0. -1.
    9900012    2    1    2    0    0 -0.67128226725E+01  0.13714333986E+02 -0.42378870079E+02  0.46142316810E+02  0.99999913265E+01 0.  0.
        -12    1    1    2    0    0  0.67128226725E+01 -0.13714333986E+02  0.42378870079E+02  0.45045683190E+02  0.00000000000E+00 0.  1.
         11    1    3    3    0    0 -0.29196523654E+01  0.15057820850E+01 -0.14830676704E+02  0.15190152118E+02  0.51100000000E-03 0. -1.
        -11    1    3    3    0    0 -0.69401784331E+00  0.28663986559E+01 -0.13375936664E+02  0.13697210808E+02  0.51100000000E-03 0.  1.
         12    1    3    3    0    0 -0.30991524638E+01  0.93421532449E+01 -0.14172256712E+02  0.17254953884E+02  0.00000000000E+00 0. -1.
</event>
<event>
 7    1  0.4194672E-008  0.4614232E+02  0.7816164E-02  0.1320468E+00
        -11   -1    0    0    0    0  0.00000000000E+00  0.00000000000E+00  0.45593999997E+02  0.45594000000E+02  0.51100000000E-03 0.  1.
         11   -1    0    0    0    0 -0.00000000000E+00 -0.00000000000E+00 -0.45593999997E+02  0.45594000000E+02  0.51100000000E-03 0. -1.
    9900012    2    1    2    0    0 -0.23448636605E+02  0.27291777535E+02 -0.27100435432E+02  0.46142320071E+02  0.10000021063E+02 0.  0.
        -12    1    1    2    0    0  0.23448636605E+02 -0.27291777535E+02  0.27100435432E+02  0.45045679929E+02  0.00000000000E+00 0.  1.
         11    1    3    3    0    0 -0.14624825288E+02  0.15173540872E+02 -0.12491748686E+02  0.24498278364E+02  0.51100000000E-03 0. -1.
        -11    1    3    3    0    0 -0.40474248509E+01  0.17554845678E+01 -0.28115734285E+01  0.52314739220E+01  0.51100000000E-03 0.  1.
        -12    1    3    3    0    0 -0.47763864659E+01  0.10362752095E+02 -0.11797113318E+02  0.16412567785E+02  0.00000000000E+00 0.  1.
</event>
<event>
 7    1  0.4194672E-008  0.4614232E+02  0.7816164E-02  0.1320468E+00
        -11   -1    0    0    0    0  0.00000000000E+00  0.00000000000E+00  0.45593999997E+02  0.45594000000E+02  0.51100000000E-03 0.  1.
         11   -1    0    0    0    0 -0.00000000000E+00 -0.00000000000E+00 -0.45593999997E+02  0.45594000000E+02  0.51100000000E-03 0. -1.
    9900012    2    1    2    0    0 -0.10258670422E+02  0.95448143931E+01 -0.42810860068E+02  0.46142317183E+02  0.99999947321E+01 0.  0.
        -12    1    1    2    0    0  0.10258670422E+02 -0.95448143931E+01  0.42810860068E+02  0.45045682817E+02  0.00000000000E+00 0.  1.
         11    1    3    3    0    0 -0.38773159677E+01  0.21768533423E+01 -0.24949355940E+02  0.25342506420E+02  0.51100000000E-03 0. -1.
        -11    1    3    3    0    0 -0.35599849336E+01  0.33518232345E+01 -0.13010467523E+02  0.13898937987E+02  0.51100000000E-03 0.  1.
        -12    1    3    3    0    0 -0.28213695209E+01  0.40161378163E+01 -0.48510366053E+01  0.69008727766E+01  0.00000000000E+00 0.  1.
</event>
<event>
 7    1  0.4194672E-008  0.4614232E+02  0.7816164E-02  0.1320468E+00
        -11   -1    0    0    0    0  0.00000000000E+00  0.00000000000E+00  0.45593999997E+02  0.45594000000E+02  0.51100000000E-03 0.  1.
         11   -1    0    0    0    0 -0.00000000000E+00 -0.00000000000E+00 -0.45593999997E+02  0.45594000000E+02  0.51100000000E-03 0. -1.
    9900012    2    1    2    0    0  0.14641466982E+02  0.17714949826E+02 -0.38741727351E+02  0.46142318288E+02  0.10000004806E+02 0.  0.
        -12    1    1    2    0    0 -0.14641466982E+02 -0.17714949826E+02  0.38741727351E+02  0.45045681712E+02  0.00000000000E+00 0.  1.
         11    1    3    3    0    0  0.73463842747E+01  0.95159783160E+01 -0.12836264272E+02  0.17586724708E+02  0.51100000000E-03 0. -1.
        -11    1    3    3    0    0  0.41880174485E+01  0.61905669292E+01 -0.11758536342E+02  0.13932903008E+02  0.51100000000E-03 0.  1.
        -12    1    3    3    0    0  0.31070652591E+01  0.20084045809E+01 -0.14146926736E+02  0.14622690572E+02  0.00000000000E+00 0.  1.
</event>
<event>
 7    1  0.4194672E-008  0.4614231E+02  0.7816164E-02  0.1320468E+00
        -11   -1    0    0    0    0  0.00000000000E+00  0.00000000000E+00  0.45593999997E+02  0.45594000000E+02  0.51100000000E-03 0. -1.
         11   -1    0    0    0    0 -0.00000000000E+00 -0.00000000000E+00 -0.45593999997E+02  0.45594000000E+02  0.51100000000E-03 0.  1.
    9900012    2    1    2    0    0 -0.76748979765E+01 -0.22114350713E+02  0.38485913753E+02  0.46142310708E+02  0.99999356869E+01 0.  0.
        -12    1    1    2    0    0  0.76748979765E+01  0.22114350713E+02 -0.38485913753E+02  0.45045689292E+02  0.00000000000E+00 0.  1.
         11    1    3    3    0    0 -0.57367943381E+01 -0.93175888668E+01  0.22176570650E+02  0.24729103454E+02  0.51100000000E-03 0. -1.
        -11    1    3    3    0    0  0.55949249745E-01 -0.30844492738E+01  0.11356198066E+01  0.32873378664E+01  0.51100000000E-03 0.  1.
         12    1    3    3    0    0 -0.19940528881E+01 -0.97123125718E+01  0.15173723296E+02  0.18125869388E+02  0.00000000000E+00 0. -1.
</event>
<event>
 7    1  0.4194672E-008  0.4614232E+02  0.7816164E-02  0.1320468E+00
        -11   -1    0    0    0    0  0.00000000000E+00  0.00000000000E+00  0.45593999997E+02  0.45594000000E+02  0.51100000000E-03 0.  1.
         11   -1    0    0    0    0 -0.00000000000E+00 -0.00000000000E+00 -0.45593999997E+02  0.45594000000E+02  0.51100000000E-03 0. -1.
    9900012    2    1    2    0    0  0.20093304616E+02 -0.39481047002E+02 -0.81620768096E+01  0.46142318069E+02  0.10000002810E+02 0.  0.
        -12    1    1    2    0    0 -0.20093304616E+02  0.39481047002E+02  0.81620768096E+01  0.45045681931E+02  0.00000000000E+00 0.  1.
         11    1    3    3    0    0  0.80123840125E+01 -0.14765655054E+02 -0.14718975669E+01  0.16863847409E+02  0.51100000000E-03 0. -1.
        -11    1    3    3    0    0  0.12221691615E+02 -0.20388722351E+02 -0.73897812775E+01  0.24893344746E+02  0.51100000000E-03 0.  1.
         12    1    3    3    0    0 -0.14077101131E+00 -0.43266695965E+01  0.69960203476E+00  0.43851259140E+01  0.00000000000E+00 0. -1.
</event>
<event>
 7    1  0.4194672E-008  0.4614232E+02  0.7816164E-02  0.1320468E+00
        -11   -1    0    0    0    0  0.00000000000E+00  0.00000000000E+00  0.45593999997E+02  0.45594000000E+02  0.51100000000E-03 0.  1.
         11   -1    0    0    0    0 -0.00000000000E+00 -0.00000000000E+00 -0.45593999997E+02  0.45594000000E+02  0.51100000000E-03 0. -1.
    9900012    2    1    2    0    0 -0.24437525182E+02 -0.32123926679E+02 -0.19999350769E+02  0.46142319480E+02  0.10000015676E+02 0.  0.
        -12    1    1    2    0    0  0.24437525182E+02  0.32123926679E+02  0.19999350769E+02  0.45045680520E+02  0.00000000000E+00 0.  1.
         11    1    3    3    0    0 -0.13877599280E+02 -0.19094679911E+02 -0.79875629589E+01  0.24919785813E+02  0.51100000000E-03 0. -1.
        -11    1    3    3    0    0 -0.93188849083E+01 -0.11768837829E+02 -0.84026558099E+01  0.17203249248E+02  0.51100000000E-03 0.  1.
        -12    1    3    3    0    0 -0.12410409932E+01 -0.12604089387E+01 -0.36091320005E+01  0.40192844185E+01  0.00000000000E+00 0.  1.
</event>
<event>
 7    1  0.4194672E-008  0.4614231E+02  0.7816164E-02  0.1320468E+00
        -11   -1    0    0    0    0  0.00000000000E+00  0.00000000000E+00  0.45593999997E+02  0.45594000000E+02  0.51100000000E-03 0. -1.
         11   -1    0    0    0    0 -0.00000000000E+00 -0.00000000000E+00 -0.45593999997E+02  0.45594000000E+02  0.51100000000E-03 0.  1.
    9900012    2    1    2    0    0 -0.10270203520E+02 -0.42815153999E+02 -0.95131109078E+01  0.46142314619E+02  0.99999713480E+01 0.  0.
        -12    1    1    2    0    0  0.10270203520E+02  0.42815153999E+02  0.95131109078E+01  0.45045685381E+02  0.00000000000E+00 0.  1.
         11    1    3    3    0    0 -0.54938960247E+01 -0.13618745221E+02 -0.35803466952E+01  0.15115290194E+02  0.51100000000E-03 0. -1.
        -11    1    3    3    0    0 -0.17167481212E+01 -0.14458196265E+02  0.70321650572E+00  0.14576734102E+02  0.51100000000E-03 0.  1.
        -12    1    3    3    0    0 -0.30595593738E+01 -0.14738212512E+02 -0.66359807183E+01  0.16450290323E+02  0.00000000000E+00 0.  1.
</event>
<event>
 7    1  0.4194672E-008  0.4614232E+02  0.7816164E-02  0.1320468E+00
        -11   -1    0    0    0    0  0.00000000000E+00  0.00000000000E+00  0.45593999997E+02  0.45594000000E+02  0.51100000000E-03 0.  1.
         11   -1    0    0    0    0 -0.00000000000E+00 -0.00000000000E+00 -0.45593999997E+02  0.45594000000E+02  0.51100000000E-03 0. -1.
    9900012    2    1    2    0    0  0.10000798485E+01 -0.10946466073E+02 -0.43683957659E+02  0.46142318343E+02  0.10000005302E+02 0.  0.
        -12    1    1    2    0    0 -0.10000798485E+01  0.10946466073E+02  0.43683957659E+02  0.45045681657E+02  0.00000000000E+00 0.  1.
         11    1    3    3    0    0  0.15272078360E+01  0.85961078309E-01 -0.36926960717E+01  0.39969685538E+01  0.51100000000E-03 0.  1.
        -11    1    3    3    0    0 -0.14041688503E+01 -0.11115556025E+02 -0.28541947983E+02  0.30662192857E+02  0.51100000000E-03 0. -1.
         12    1    3    3    0    0  0.87704086274E+00  0.83128874118E-01 -0.11449313605E+02  0.11483156931E+02  0.00000000000E+00 0. -1.
</event>
<event>
 7    1  0.4194672E-008  0.4614232E+02  0.7816164E-02  0.1320468E+00
        -11   -1    0    0    0    0  0.00000000000E+00  0.00000000000E+00  0.45593999997E+02  0.45594000000E+02  0.51100000000E-03 0.  1.
         11   -1    0    0    0    0 -0.00000000000E+00 -0.00000000000E+00 -0.45593999997E+02  0.45594000000E+02  0.51100000000E-03 0. -1.
    9900012    2    1    2    0    0 -0.44546096365E+01 -0.24515133598E+02 -0.37527033460E+02  0.46142316936E+02  0.99999924782E+01 0.  0.
        -12    1    1    2    0    0  0.44546096365E+01  0.24515133598E+02  0.37527033460E+02  0.45045683064E+02  0.00000000000E+00 0.  1.
         11    1    3    3    0    0 -0.50434252044E+01 -0.48249245358E+01 -0.10500216700E+02  0.12608353801E+02  0.51100000000E-03 0. -1.
        -11    1    3    3    0    0  0.14171064293E+01 -0.92584262967E+01 -0.12005319946E+02  0.15226764442E+02  0.51100000000E-03 0.  1.
         12    1    3    3    0    0 -0.82829086141E+00 -0.10431782766E+02 -0.15021496815E+02  0.18307198693E+02  0.00000000000E+00 0. -1.
</event>
<event>
 7    1  0.4194672E-008  0.4614232E+02  0.7816164E-02  0.1320468E+00
        -11   -1    0    0    0    0  0.00000000000E+00  0.00000000000E+00  0.45593999997E+02  0.45594000000E+02  0.51100000000E-03 0.  1.
         11   -1    0    0    0    0 -0.00000000000E+00 -0.00000000000E+00 -0.45593999997E+02  0.45594000000E+02  0.51100000000E-03 0. -1.
    9900012    2    1    2    0    0 -0.18852612814E+02  0.33141283971E+01 -0.40776330955E+02  0.46142316266E+02  0.99999863661E+01 0.  0.
        -12    1    1    2    0    0  0.18852612814E+02 -0.33141283971E+01  0.40776330955E+02  0.45045683734E+02  0.00000000000E+00 0.  1.
         11    1    3    3    0    0 -0.70059010560E+01 -0.16323706357E+01 -0.12908044786E+02  0.14777175101E+02  0.51100000000E-03 0. -1.
        -11    1    3    3    0    0 -0.58578867335E+01  0.37345138429E+01 -0.21253755153E+02  0.22360311693E+02  0.51100000000E-03 0.  1.
        -12    1    3    3    0    0 -0.59888250243E+01  0.12119851899E+01 -0.66145310151E+01  0.90048294721E+01  0.00000000000E+00 0.  1.
</event>
<event>
 7    1  0.4194672E-008  0.4614232E+02  0.7816164E-02  0.1320468E+00
        -11   -1    0    0    0    0  0.00000000000E+00  0.00000000000E+00  0.45593999997E+02  0.45594000000E+02  0.51100000000E-03 0.  1.
         11   -1    0    0    0    0 -0.00000000000E+00 -0.00000000000E+00 -0.45593999997E+02  0.45594000000E+02  0.51100000000E-03 0. -1.
    9900012    2    1    2    0    0  0.13904595798E+02 -0.34541684800E+02 -0.25350497337E+02  0.46142317761E+02  0.10000000001E+02 0.  0.
        -12    1    1    2    0    0 -0.13904595798E+02  0.34541684800E+02  0.25350497337E+02  0.45045682239E+02  0.00000000000E+00 0.  1.
         11    1    3    3    0    0  0.10462196399E+02 -0.18061957670E+02 -0.92911973601E+01  0.22847717982E+02  0.51100000000E-03 0. -1.
        -11    1    3    3    0    0  0.87901190682E+00 -0.29020117194E+01 -0.33860536761E+01  0.45452935780E+01  0.51100000000E-03 0.  1.
         12    1    3    3    0    0  0.25633874917E+01 -0.13577715411E+02 -0.12673246301E+02  0.18749306201E+02  0.00000000000E+00 0. -1.
</event>
<event>
 7    1  0.4194672E-008  0.4614232E+02  0.7816164E-02  0.1320468E+00
        -11   -1    0    0    0    0  0.00000000000E+00  0.00000000000E+00  0.45593999997E+02  0.45594000000E+02  0.51100000000E-03 0. -1.
         11   -1    0    0    0    0 -0.00000000000E+00 -0.00000000000E+00 -0.45593999997E+02  0.45594000000E+02  0.51100000000E-03 0.  1.
    9900012    2    1    2    0    0 -0.20588093585E+01 -0.44662604551E+02  0.54887673518E+01  0.46142317539E+02  0.99999979791E+01 0.  0.
        -12    1    1    2    0    0  0.20588093585E+01  0.44662604551E+02 -0.54887673518E+01  0.45045682461E+02  0.00000000000E+00 0.  1.
         11    1    3    3    0    0  0.16140986236E+01 -0.36608759280E+01  0.21033852531E+01  0.45201279530E+01  0.51100000000E-03 0. -1.
        -11    1    3    3    0    0 -0.12430141084E+01 -0.89652504923E+01  0.28504136738E+01  0.94892391073E+01  0.51100000000E-03 0.  1.
        -12    1    3    3    0    0 -0.24298938736E+01 -0.32036478131E+02  0.53496842491E+00  0.32132950479E+02  0.00000000000E+00 0.  1.
</event>
<event>
 7    1  0.4194672E-008  0.4614232E+02  0.7816164E-02  0.1320468E+00
        -11   -1    0    0    0    0  0.00000000000E+00  0.00000000000E+00  0.45593999997E+02  0.45594000000E+02  0.51100000000E-03 0.  1.
         11   -1    0    0    0    0 -0.00000000000E+00 -0.00000000000E+00 -0.45593999997E+02  0.45594000000E+02  0.51100000000E-03 0. -1.
    9900012    2    1    2    0    0  0.20957114934E+02 -0.39560903839E+02 -0.49847131308E+01  0.46142321584E+02  0.10000034864E+02 0.  0.
        -12    1    1    2    0    0 -0.20957114934E+02  0.39560903839E+02  0.49847131308E+01  0.45045678416E+02  0.00000000000E+00 0.  1.
         11    1    3    3    0    0  0.14115101712E+01 -0.22069437983E+01  0.38918344160E+00  0.26484761477E+01  0.51100000000E-03 0. -1.
        -11    1    3    3    0    0  0.15770288217E+01  0.14002092832E+00 -0.18028291444E+00  0.15934641368E+01  0.51100000000E-03 0.  1.
         12    1    3    3    0    0  0.17968575941E+02 -0.37493980969E+02 -0.51936136579E+01  0.41900381300E+02  0.00000000000E+00 0. -1.
</event>
<event>
 7    1  0.4194672E-008  0.4614232E+02  0.7816164E-02  0.1320468E+00
        -11   -1    0    0    0    0  0.00000000000E+00  0.00000000000E+00  0.45593999997E+02  0.45594000000E+02  0.51100000000E-03 0.  1.
         11   -1    0    0    0    0 -0.00000000000E+00 -0.00000000000E+00 -0.45593999997E+02  0.45594000000E+02  0.51100000000E-03 0. -1.
    9900012    2    1    2    0    0  0.28391912791E+01  0.33436745523E+02 -0.30050559000E+02  0.46142322577E+02  0.10000043913E+02 0.  0.
        -12    1    1    2    0    0 -0.28391912791E+01 -0.33436745523E+02  0.30050559000E+02  0.45045677423E+02  0.00000000000E+00 0.  1.
         11    1    3    3    0    0  0.46472865070E+00  0.10652879675E+01 -0.34465231184E+01  0.36372150114E+01  0.51100000000E-03 0. -1.
        -11    1    3    3    0    0 -0.33168526418E+00 -0.13321172618E+00 -0.92794370773E+00  0.99440447721E+00  0.51100000000E-03 0.  1.
        -12    1    3    3    0    0  0.27061478926E+01  0.32504669282E+02 -0.25676092174E+02  0.41510703088E+02  0.00000000000E+00 0.  1.
</event>
<event>
 7    1  0.4194672E-008  0.4614232E+02  0.7816164E-02  0.1320468E+00
        -11   -1    0    0    0    0  0.00000000000E+00  0.00000000000E+00  0.45593999997E+02  0.45594000000E+02  0.51100000000E-03 0.  1.
         11   -1    0    0    0    0 -0.00000000000E+00 -0.00000000000E+00 -0.45593999997E+02  0.45594000000E+02  0.51100000000E-03 0. -1.
    9900012    2    1    2    0    0 -0.10498764548E+02 -0.20327524063E+02 -0.38803104409E+02  0.46142320925E+02  0.10000028853E+02 0.  0.
        -12    1    1    2    0    0  0.10498764548E+02  0.20327524063E+02  0.38803104409E+02  0.45045679075E+02  0.00000000000E+00 0.  1.
         11    1    3    3    0    0 -0.29916563089E+01 -0.13670205124E+02 -0.20591526105E+02  0.24896494998E+02  0.51100000000E-03 0. -1.
        -11    1    3    3    0    0 -0.19601067684E+01 -0.39913088300E+01 -0.10327101925E+02  0.11243735996E+02  0.51100000000E-03 0.  1.
        -12    1    3    3    0    0 -0.55470014711E+01 -0.26660101088E+01 -0.78844763790E+01  0.10002089931E+02  0.00000000000E+00 0.  1.
</event>
<event>
 7    1  0.4194672E-008  0.4614232E+02  0.7816164E-02  0.1320468E+00
        -11   -1    0    0    0    0  0.00000000000E+00  0.00000000000E+00  0.45593999997E+02  0.45594000000E+02  0.51100000000E-03 0. -1.
         11   -1    0    0    0    0 -0.00000000000E+00 -0.00000000000E+00 -0.45593999997E+02  0.45594000000E+02  0.51100000000E-03 0.  1.
    9900012    2    1    2    0    0  0.20159072133E+02 -0.10602283626E+02  0.38862795526E+02  0.46142317815E+02  0.10000000494E+02 0.  0.
        -12    1    1    2    0    0 -0.20159072133E+02  0.10602283626E+02 -0.38862795526E+02  0.45045682185E+02  0.00000000000E+00 0.  1.
         11    1    3    3    0    0  0.24965574292E+01 -0.21157318359E+01  0.27907299557E+01  0.43008480728E+01  0.51100000000E-03 0. -1.
        -11    1    3    3    0    0  0.12949144013E+02 -0.71442997229E+01  0.18985430726E+02  0.24065908030E+02  0.51100000000E-03 0.  1.
         12    1    3    3    0    0  0.47133706914E+01 -0.13422520678E+01  0.17086634845E+02  0.17775561713E+02  0.00000000000E+00 0. -1.
</event>
<event>
 7    1  0.4194672E-008  0.4614232E+02  0.7816164E-02  0.1320468E+00
        -11   -1    0    0    0    0  0.00000000000E+00  0.00000000000E+00  0.45593999997E+02  0.45594000000E+02  0.51100000000E-03 0.  1.
         11   -1    0    0    0    0 -0.00000000000E+00 -0.00000000000E+00 -0.45593999997E+02  0.45594000000E+02  0.51100000000E-03 0. -1.
    9900012    2    1    2    0    0  0.23937650497E+02 -0.20673242016E+02 -0.32073655885E+02  0.46142318203E+02  0.10000004028E+02 0.  0.
        -12    1    1    2    0    0 -0.23937650497E+02  0.20673242016E+02  0.32073655885E+02  0.45045681797E+02  0.00000000000E+00 0.  1.
         11    1    3    3    0    0  0.26842989982E+01 -0.11684116307E+01 -0.25310349832E+01  0.38699851676E+01  0.51100000000E-03 0. -1.
        -11    1    3    3    0    0  0.80060507805E+01 -0.34824203348E+01 -0.48285721280E+01  0.99769338749E+01  0.51100000000E-03 0.  1.
        -12    1    3    3    0    0  0.13247300719E+02 -0.16022410050E+02 -0.24714048773E+02  0.32295399160E+02  0.00000000000E+00 0.  1.
</event>
<event>
 7    1  0.4194672E-008  0.4614232E+02  0.7816164E-02  0.1320468E+00
        -11   -1    0    0    0    0  0.00000000000E+00  0.00000000000E+00  0.45593999997E+02  0.45594000000E+02  0.51100000000E-03 0. -1.
         11   -1    0    0    0    0 -0.00000000000E+00 -0.00000000000E+00 -0.45593999997E+02  0.45594000000E+02  0.51100000000E-03 0.  1.
    9900012    2    1    2    0    0  0.42972401861E+02  0.13261592199E+02 -0.25722179458E+01  0.46142318137E+02  0.10000003428E+02 0.  0.
        -12    1    1    2    0    0 -0.42972401861E+02 -0.13261592199E+02  0.25722179458E+01  0.45045681863E+02  0.00000000000E+00 0.  1.
         11    1    3    3    0    0  0.16608918936E+02  0.25604784936E+01 -0.11010700961E+00  0.16805486073E+02  0.51100000000E-03 0. -1.
        -11    1    3    3    0    0  0.19564973847E+02  0.71408721434E+01 -0.46834917248E+01  0.21347490522E+02  0.51100000000E-03 0.  1.
        -12    1    3    3    0    0  0.67985090777E+01  0.35602415618E+01  0.22213807886E+01  0.79893415414E+01  0.00000000000E+00 0.  1.
</event>
<event>
 7    1  0.4194672E-008  0.4614232E+02  0.7816164E-02  0.1320468E+00
        -11   -1    0    0    0    0  0.00000000000E+00  0.00000000000E+00  0.45593999997E+02  0.45594000000E+02  0.51100000000E-03 0. -1.
         11   -1    0    0    0    0 -0.00000000000E+00 -0.00000000000E+00 -0.45593999997E+02  0.45594000000E+02  0.51100000000E-03 0.  1.
    9900012    2    1    2    0    0  0.91980017072E+01 -0.23552513507E+02  0.37279878336E+02  0.46142318113E+02  0.10000003210E+02 0.  0.
        -12    1    1    2    0    0 -0.91980017072E+01  0.23552513507E+02 -0.37279878336E+02  0.45045681887E+02  0.00000000000E+00 0.  1.
         11    1    3    3    0    0  0.21525678475E+01 -0.66107025155E+01  0.13966362192E+02  0.15601096411E+02  0.51100000000E-03 0. -1.
        -11    1    3    3    0    0 -0.23164726470E+00  0.14207246256E+00 -0.36176202006E+00  0.45245669421E+00  0.51100000000E-03 0.  1.
        -12    1    3    3    0    0  0.72770811244E+01 -0.17083883454E+02  0.23675278165E+02  0.30088765008E+02  0.00000000000E+00 0.  1.
</event>
<event>
 7    1  0.5636415E-008  0.4614232E+02  0.7816164E-02  0.1320468E+00
        -11   -1    0    0    0    0  0.00000000000E+00  0.00000000000E+00  0.45593999997E+02  0.45594000000E+02  0.51100000000E-03 0. -1.
         11   -1    0    0    0    0 -0.00000000000E+00 -0.00000000000E+00 -0.45593999997E+02  0.45594000000E+02  0.51100000000E-03 0.  1.
    9900012    2    1    2    0    0  0.48238963181E+01  0.14343159506E+01  0.44763671445E+02  0.46142317420E+02  0.99999968855E+01 0.  0.
        -12    1    1    2    0    0 -0.48238963181E+01 -0.14343159506E+01 -0.44763671445E+02  0.45045682580E+02  0.00000000000E+00 0.  1.
         11    1    3    3    0    0  0.20217082477E+01  0.44533726329E+01  0.25343710315E+02  0.25811305368E+02  0.51100000000E-03 0.  1.
        -11    1    3    3    0    0  0.20000192514E+01  0.34634755055E+00  0.11651607158E+02  0.11827086846E+02  0.51100000000E-03 0. -1.
        -12    1    3    3    0    0  0.80216881899E+00 -0.33654042329E+01  0.77683539718E+01  0.85039252052E+01  0.00000000000E+00 0.  1.
</event>
<event>
 7    1  0.4194672E-008  0.4614232E+02  0.7816164E-02  0.1320468E+00
        -11   -1    0    0    0    0  0.00000000000E+00  0.00000000000E+00  0.45593999997E+02  0.45594000000E+02  0.51100000000E-03 0.  1.
         11   -1    0    0    0    0 -0.00000000000E+00 -0.00000000000E+00 -0.45593999997E+02  0.45594000000E+02  0.51100000000E-03 0. -1.
    9900012    2    1    2    0    0 -0.10569058796E+02 -0.11677755472E+02 -0.42202351005E+02  0.46142318664E+02  0.10000008233E+02 0.  0.
        -12    1    1    2    0    0  0.10569058796E+02  0.11677755472E+02  0.42202351005E+02  0.45045681336E+02  0.00000000000E+00 0.  1.
         11    1    3    3    0    0 -0.30069465471E+01 -0.41053437126E+01 -0.15458355630E+02  0.16274407319E+02  0.51100000000E-03 0. -1.
        -11    1    3    3    0    0 -0.67743803874E+01 -0.57632600584E+01 -0.11709153025E+02  0.14704137545E+02  0.51100000000E-03 0.  1.
        -12    1    3    3    0    0 -0.78773186148E+00 -0.18091517011E+01 -0.15034842350E+02  0.15163773800E+02  0.00000000000E+00 0.  1.
</event>
<event>
 7    1  0.4194672E-008  0.4614232E+02  0.7816164E-02  0.1320468E+00
        -11   -1    0    0    0    0  0.00000000000E+00  0.00000000000E+00  0.45593999997E+02  0.45594000000E+02  0.51100000000E-03 0.  1.
         11   -1    0    0    0    0 -0.00000000000E+00 -0.00000000000E+00 -0.45593999997E+02  0.45594000000E+02  0.51100000000E-03 0. -1.
    9900012    2    1    2    0    0  0.41953239973E+02  0.90266797843E+01  0.13695190012E+02  0.46142317392E+02  0.99999966339E+01 0.  0.
        -12    1    1    2    0    0 -0.41953239973E+02 -0.90266797843E+01 -0.13695190012E+02  0.45045682608E+02  0.00000000000E+00 0.  1.
         11    1    3    3    0    0  0.26535491378E+02  0.42387524564E+01  0.11342656143E+02  0.29167707721E+02  0.51100000000E-03 0. -1.
        -11    1    3    3    0    0  0.13359365266E+02  0.57332443090E+01  0.18546287509E+01  0.14655455594E+02  0.51100000000E-03 0.  1.
        -12    1    3    3    0    0  0.20583833293E+01 -0.94531698116E+00  0.49790511797E+00  0.23191540768E+01  0.00000000000E+00 0.  1.
</event>
<event>
 7    1  0.4194672E-008  0.4614232E+02  0.7816164E-02  0.1320468E+00
        -11   -1    0    0    0    0  0.00000000000E+00  0.00000000000E+00  0.45593999997E+02  0.45594000000E+02  0.51100000000E-03 0.  1.
         11   -1    0    0    0    0 -0.00000000000E+00 -0.00000000000E+00 -0.45593999997E+02  0.45594000000E+02  0.51100000000E-03 0. -1.
    9900012    2    1    2    0    0  0.14674074259E+02  0.14682621021E+02 -0.39977564997E+02  0.46142317427E+02  0.99999969516E+01 0.  0.
        -12    1    1    2    0    0 -0.14674074259E+02 -0.14682621021E+02  0.39977564997E+02  0.45045682573E+02  0.00000000000E+00 0.  1.
         11    1    3    3    0    0  0.95651274330E+01  0.69915032951E+01 -0.20488767214E+02  0.23667749435E+02  0.51100000000E-03 0. -1.
        -11    1    3    3    0    0  0.36167813782E+01  0.25323282943E+01 -0.35812421030E+01  0.56849880730E+01  0.51100000000E-03 0.  1.
        -12    1    3    3    0    0  0.14921654478E+01  0.51587894316E+01 -0.15907555680E+02  0.16789579919E+02  0.00000000000E+00 0.  1.
</event>
<event>
 7    1  0.4194672E-008  0.4614232E+02  0.7816164E-02  0.1320468E+00
        -11   -1    0    0    0    0  0.00000000000E+00  0.00000000000E+00  0.45593999997E+02  0.45594000000E+02  0.51100000000E-03 0.  1.
         11   -1    0    0    0    0 -0.00000000000E+00 -0.00000000000E+00 -0.45593999997E+02  0.45594000000E+02  0.51100000000E-03 0. -1.
    9900012    2    1    2    0    0  0.89875502293E+01  0.43398744040E+02 -0.80552124865E+01  0.46142317725E+02  0.99999996741E+01 0.  0.
        -12    1    1    2    0    0 -0.89875502293E+01 -0.43398744040E+02  0.80552124865E+01  0.45045682275E+02  0.00000000000E+00 0.  1.
         11    1    3    3    0    0  0.54636661039E+01  0.16892526951E+02 -0.63686477458E+01  0.18861834176E+02  0.51100000000E-03 0. -1.
        -11    1    3    3    0    0  0.23525095792E+01  0.20320245563E+02 -0.34440841539E+01  0.20743876132E+02  0.51100000000E-03 0.  1.
        -12    1    3    3    0    0  0.11713745463E+01  0.61859715254E+01  0.17575194133E+01  0.65366074173E+01  0.00000000000E+00 0.  1.
</event>
<event>
 7    1  0.4194672E-008  0.4614232E+02  0.7816164E-02  0.1320468E+00
        -11   -1    0    0    0    0  0.00000000000E+00  0.00000000000E+00  0.45593999997E+02  0.45594000000E+02  0.51100000000E-03 0.  1.
         11   -1    0    0    0    0 -0.00000000000E+00 -0.00000000000E+00 -0.45593999997E+02  0.45594000000E+02  0.51100000000E-03 0. -1.
    9900012    2    1    2    0    0 -0.26923596866E+02 -0.65830536052E+01 -0.35509110281E+02  0.46142316789E+02  0.99999911397E+01 0.  0.
        -12    1    1    2    0    0  0.26923596866E+02  0.65830536052E+01  0.35509110281E+02  0.45045683211E+02  0.00000000000E+00 0.  1.
         11    1    3    3    0    0 -0.10863258937E+02  0.10782357576E+00 -0.98379891460E+01  0.14656331442E+02  0.51100000000E-03 0. -1.
        -11    1    3    3    0    0  0.30524756911E+00 -0.61020148579E+00 -0.47144218988E+00  0.82932498529E+00  0.51100000000E-03 0.  1.
        -12    1    3    3    0    0 -0.16365585498E+02 -0.60806756952E+01 -0.25199678945E+02  0.30656660362E+02  0.00000000000E+00 0.  1.
</event>
<event>
 7    1  0.4194672E-008  0.4614232E+02  0.7816164E-02  0.1320468E+00
        -11   -1    0    0    0    0  0.00000000000E+00  0.00000000000E+00  0.45593999997E+02  0.45594000000E+02  0.51100000000E-03 0.  1.
         11   -1    0    0    0    0 -0.00000000000E+00 -0.00000000000E+00 -0.45593999997E+02  0.45594000000E+02  0.51100000000E-03 0. -1.
    9900012    2    1    2    0    0 -0.20470343068E+02  0.56320386423E+00 -0.40121831465E+02  0.46142317587E+02  0.99999984143E+01 0.  0.
        -12    1    1    2    0    0  0.20470343068E+02 -0.56320386423E+00  0.40121831465E+02  0.45045682413E+02  0.00000000000E+00 0.  1.
         11    1    3    3    0    0 -0.15492523368E+02  0.40341281550E+01 -0.25472784921E+02  0.30085798015E+02  0.51100000000E-03 0.  1.
        -11    1    3    3    0    0 -0.22357204531E+01 -0.37782558455E+00 -0.70544077503E+01  0.74098493294E+01  0.51100000000E-03 0. -1.
        -12    1    3    3    0    0 -0.27420992471E+01 -0.30930987063E+01 -0.75946387937E+01  0.86466702432E+01  0.00000000000E+00 0.  1.
</event>
<event>
 7    1  0.4194672E-008  0.4614232E+02  0.7816164E-02  0.1320468E+00
        -11   -1    0    0    0    0  0.00000000000E+00  0.00000000000E+00  0.45593999997E+02  0.45594000000E+02  0.51100000000E-03 0.  1.
         11   -1    0    0    0    0 -0.00000000000E+00 -0.00000000000E+00 -0.45593999997E+02  0.45594000000E+02  0.51100000000E-03 0. -1.
    9900012    2    1    2    0    0  0.24407680684E+02  0.23227011959E+02 -0.29897904658E+02  0.46142315813E+02  0.99999822383E+01 0.  0.
        -12    1    1    2    0    0 -0.24407680684E+02 -0.23227011959E+02  0.29897904658E+02  0.45045684187E+02  0.00000000000E+00 0.  1.
         11    1    3    3    0    0  0.17420226931E+02  0.15900989090E+02 -0.21605443101E+02  0.31985948981E+02  0.51100000000E-03 0. -1.
        -11    1    3    3    0    0  0.41783895020E+01  0.27658021065E+01 -0.70649470918E+01  0.86615286061E+01  0.51100000000E-03 0.  1.
        -12    1    3    3    0    0  0.28090642510E+01  0.45602207627E+01 -0.12275144651E+01  0.54948382263E+01  0.00000000000E+00 0.  1.
</event>
<event>
 7    1  0.4194672E-008  0.4614232E+02  0.7816164E-02  0.1320468E+00
        -11   -1    0    0    0    0  0.00000000000E+00  0.00000000000E+00  0.45593999997E+02  0.45594000000E+02  0.51100000000E-03 0.  1.
         11   -1    0    0    0    0 -0.00000000000E+00 -0.00000000000E+00 -0.45593999997E+02  0.45594000000E+02  0.51100000000E-03 0. -1.
    9900012    2    1    2    0    0  0.10395404587E+02 -0.14853900376E+02 -0.41236036142E+02  0.46142317970E+02  0.10000001900E+02 0.  0.
        -12    1    1    2    0    0 -0.10395404587E+02  0.14853900376E+02  0.41236036142E+02  0.45045682030E+02  0.00000000000E+00 0.  1.
         11    1    3    3    0    0  0.18991766446E+01 -0.20266703090E+01 -0.17239595729E+01  0.32689908747E+01  0.51100000000E-03 0. -1.
        -11    1    3    3    0    0  0.73102912346E+01 -0.54156139463E+01 -0.23067577221E+02  0.24796821399E+02  0.51100000000E-03 0.  1.
         12    1    3    3    0    0  0.11859367081E+01 -0.74116161209E+01 -0.16444499347E+02  0.18076505696E+02  0.00000000000E+00 0. -1.
</event>
<event>
 7    1  0.4194672E-008  0.4614232E+02  0.7816164E-02  0.1320468E+00
        -11   -1    0    0    0    0  0.00000000000E+00  0.00000000000E+00  0.45593999997E+02  0.45594000000E+02  0.51100000000E-03 0. -1.
         11   -1    0    0    0    0 -0.00000000000E+00 -0.00000000000E+00 -0.45593999997E+02  0.45594000000E+02  0.51100000000E-03 0.  1.
    9900012    2    1    2    0    0 -0.98464912682E+01 -0.34298980655E+02  0.27490728575E+02  0.46142316280E+02  0.99999864910E+01 0.  0.
        -12    1    1    2    0    0  0.98464912682E+01  0.34298980655E+02 -0.27490728575E+02  0.45045683720E+02  0.00000000000E+00 0.  1.
         11    1    3    3    0    0 -0.69281407402E+01 -0.20930802920E+02  0.22564028359E+02  0.31547314007E+02  0.51100000000E-03 0. -1.
        -11    1    3    3    0    0 -0.18059096763E+01 -0.67007163502E+01  0.30442614996E+01  0.75781552969E+01  0.51100000000E-03 0.  1.
         12    1    3    3    0    0 -0.11124408517E+01 -0.66674613842E+01  0.18824387159E+01  0.70168469755E+01  0.00000000000E+00 0. -1.
</event>
<event>
 7    1  0.4194672E-008  0.4614232E+02  0.7816164E-02  0.1320468E+00
        -11   -1    0    0    0    0  0.00000000000E+00  0.00000000000E+00  0.45593999997E+02  0.45594000000E+02  0.51100000000E-03 0. -1.
         11   -1    0    0    0    0 -0.00000000000E+00 -0.00000000000E+00 -0.45593999997E+02  0.45594000000E+02  0.51100000000E-03 0.  1.
    9900012    2    1    2    0    0  0.19762069079E+02 -0.17035077244E+02  0.36720298383E+02  0.46142317140E+02  0.99999943364E+01 0.  0.
        -12    1    1    2    0    0 -0.19762069079E+02  0.17035077244E+02 -0.36720298383E+02  0.45045682860E+02  0.00000000000E+00 0.  1.
         11    1    3    3    0    0  0.41359514906E+01 -0.13298181443E+01  0.75033914396E+01  0.86703745240E+01  0.51100000000E-03 0. -1.
        -11    1    3    3    0    0  0.15961155797E+02 -0.13160753930E+02  0.24203542355E+02  0.31839839842E+02  0.51100000000E-03 0.  1.
         12    1    3    3    0    0 -0.33503820855E+00 -0.25445051692E+01  0.50133645889E+01  0.56321027741E+01  0.00000000000E+00 0. -1.
</event>
<event>
 7    1  0.4194672E-008  0.4614232E+02  0.7816164E-02  0.1320468E+00
        -11   -1    0    0    0    0  0.00000000000E+00  0.00000000000E+00  0.45593999997E+02  0.45594000000E+02  0.51100000000E-03 0.  1.
         11   -1    0    0    0    0 -0.00000000000E+00 -0.00000000000E+00 -0.45593999997E+02  0.45594000000E+02  0.51100000000E-03 0. -1.
    9900012    2    1    2    0    0 -0.14544878233E+02 -0.12509013888E+01 -0.42614497354E+02  0.46142316280E+02  0.99999864933E+01 0.  0.
        -12    1    1    2    0    0  0.14544878233E+02  0.12509013888E+01  0.42614497354E+02  0.45045683720E+02  0.00000000000E+00 0.  1.
         11    1    3    3    0    0 -0.13276152401E+02 -0.85465971460E+00 -0.38936450227E+02  0.41146492224E+02  0.51100000000E-03 0. -1.
        -11    1    3    3    0    0 -0.74607576743E+00  0.12556439881E+01 -0.25173206863E+01  0.29103564342E+01  0.51100000000E-03 0.  1.
        -12    1    3    3    0    0 -0.52265006462E+00 -0.16518856622E+01 -0.11607264403E+01  0.20854676215E+01  0.00000000000E+00 0.  1.
</event>
<event>
 7    1  0.4194672E-008  0.4614232E+02  0.7816164E-02  0.1320468E+00
        -11   -1    0    0    0    0  0.00000000000E+00  0.00000000000E+00  0.45593999997E+02  0.45594000000E+02  0.51100000000E-03 0.  1.
         11   -1    0    0    0    0 -0.00000000000E+00 -0.00000000000E+00 -0.45593999997E+02  0.45594000000E+02  0.51100000000E-03 0. -1.
    9900012    2    1    2    0    0 -0.26875112667E+02 -0.62354311645E+01 -0.35608442526E+02  0.46142318056E+02  0.10000002689E+02 0.  0.
        -12    1    1    2    0    0  0.26875112667E+02  0.62354311645E+01  0.35608442526E+02  0.45045681944E+02  0.00000000000E+00 0.  1.
         11    1    3    3    0    0 -0.11100201350E+02 -0.24402873633E+01 -0.17519824861E+02  0.20883336319E+02  0.51100000000E-03 0. -1.
        -11    1    3    3    0    0 -0.16455085657E+02 -0.37374164601E+01 -0.16861231703E+02  0.23854543814E+02  0.51100000000E-03 0.  1.
        -12    1    3    3    0    0  0.68017433938E+00 -0.57727341180E-01 -0.12273859629E+01  0.14044379231E+01  0.00000000000E+00 0.  1.
</event>
<event>
 7    1  0.4194672E-008  0.4614232E+02  0.7816164E-02  0.1320468E+00
        -11   -1    0    0    0    0  0.00000000000E+00  0.00000000000E+00  0.45593999997E+02  0.45594000000E+02  0.51100000000E-03 0.  1.
         11   -1    0    0    0    0 -0.00000000000E+00 -0.00000000000E+00 -0.45593999997E+02  0.45594000000E+02  0.51100000000E-03 0. -1.
    9900012    2    1    2    0    0 -0.37729588062E+02 -0.23071262035E+02 -0.85620283238E+01  0.46142320116E+02  0.10000021475E+02 0.  0.
        -12    1    1    2    0    0  0.37729588062E+02  0.23071262035E+02  0.85620283238E+01  0.45045679884E+02  0.00000000000E+00 0.  1.
         11    1    3    3    0    0 -0.11400888294E+02 -0.64286359707E+01 -0.24071421680E+01  0.13307965585E+02  0.51100000000E-03 0. -1.
        -11    1    3    3    0    0 -0.17598944855E+02 -0.14401606775E+02 -0.17638196426E+01  0.22808774577E+02  0.51100000000E-03 0.  1.
         12    1    3    3    0    0 -0.87297549126E+01 -0.22410192886E+01 -0.43910665132E+01  0.10025579954E+02  0.00000000000E+00 0. -1.
</event>
<event>
 7    1  0.4194672E-008  0.4614232E+02  0.7816164E-02  0.1320468E+00
        -11   -1    0    0    0    0  0.00000000000E+00  0.00000000000E+00  0.45593999997E+02  0.45594000000E+02  0.51100000000E-03 0.  1.
         11   -1    0    0    0    0 -0.00000000000E+00 -0.00000000000E+00 -0.45593999997E+02  0.45594000000E+02  0.51100000000E-03 0. -1.
    9900012    2    1    2    0    0 -0.29346173604E+02  0.31506221245E+02 -0.13239093712E+02  0.46142317802E+02  0.10000000376E+02 0.  0.
        -12    1    1    2    0    0  0.29346173604E+02 -0.31506221245E+02  0.13239093712E+02  0.45045682198E+02  0.00000000000E+00 0.  1.
         11    1    3    3    0    0 -0.62170695302E+01  0.71456721755E+01 -0.60425391539E+01  0.11234983937E+02  0.51100000000E-03 0. -1.
        -11    1    3    3    0    0 -0.40403978201E+01  0.67028195921E+01  0.34018451937E+00  0.78337941509E+01  0.51100000000E-03 0.  1.
        -12    1    3    3    0    0 -0.19088706254E+02  0.17657729477E+02 -0.75367390773E+01  0.27073539714E+02  0.00000000000E+00 0.  1.
</event>
<event>
 7    1  0.4194672E-008  0.4614232E+02  0.7816164E-02  0.1320468E+00
        -11   -1    0    0    0    0  0.00000000000E+00  0.00000000000E+00  0.45593999997E+02  0.45594000000E+02  0.51100000000E-03 0.  1.
         11   -1    0    0    0    0 -0.00000000000E+00 -0.00000000000E+00 -0.45593999997E+02  0.45594000000E+02  0.51100000000E-03 0. -1.
    9900012    2    1    2    0    0 -0.21406525444E+02 -0.18603200206E+02 -0.34997073051E+02  0.46142317503E+02  0.99999976425E+01 0.  0.
        -12    1    1    2    0    0  0.21406525444E+02  0.18603200206E+02  0.34997073051E+02  0.45045682497E+02  0.00000000000E+00 0.  1.
         11    1    3    3    0    0 -0.60891796729E+01 -0.18003952527E+01 -0.10626689858E+02  0.12379259661E+02  0.51100000000E-03 0. -1.
        -11    1    3    3    0    0 -0.99985592380E+01 -0.13547748703E+02 -0.15266850794E+02  0.22728603459E+02  0.51100000000E-03 0.  1.
        -12    1    3    3    0    0 -0.53187865333E+01 -0.32550562501E+01 -0.91035323998E+01  0.11034454383E+02  0.00000000000E+00 0.  1.
</event>
<event>
 7    1  0.4194672E-008  0.4614232E+02  0.7816164E-02  0.1320468E+00
        -11   -1    0    0    0    0  0.00000000000E+00  0.00000000000E+00  0.45593999997E+02  0.45594000000E+02  0.51100000000E-03 0.  1.
         11   -1    0    0    0    0 -0.00000000000E+00 -0.00000000000E+00 -0.45593999997E+02  0.45594000000E+02  0.51100000000E-03 0. -1.
    9900012    2    1    2    0    0  0.31336228256E+02  0.29856986345E+02 -0.12478568299E+02  0.46142317613E+02  0.99999986524E+01 0.  0.
        -12    1    1    2    0    0 -0.31336228256E+02 -0.29856986345E+02  0.12478568299E+02  0.45045682387E+02  0.00000000000E+00 0.  1.
         11    1    3    3    0    0  0.24869694189E+01  0.43732907513E+01  0.12708766916E+00  0.50325779102E+01  0.51100000000E-03 0. -1.
        -11    1    3    3    0    0  0.99781901761E+00 -0.41104910360E+00 -0.57433844676E+00  0.12224847934E+01  0.51100000000E-03 0.  1.
         12    1    3    3    0    0  0.27851439819E+02  0.25894744697E+02 -0.12031317522E+02  0.39887254910E+02  0.00000000000E+00 0. -1.
</event>
<event>
 7    1  0.4194672E-008  0.4614232E+02  0.7816164E-02  0.1320468E+00
        -11   -1    0    0    0    0  0.00000000000E+00  0.00000000000E+00  0.45593999997E+02  0.45594000000E+02  0.51100000000E-03 0. -1.
         11   -1    0    0    0    0 -0.00000000000E+00 -0.00000000000E+00 -0.45593999997E+02  0.45594000000E+02  0.51100000000E-03 0.  1.
    9900012    2    1    2    0    0  0.15042170909E+02 -0.13388625139E+02  0.40293809455E+02  0.46142320194E+02  0.10000022188E+02 0.  0.
        -12    1    1    2    0    0 -0.15042170909E+02  0.13388625139E+02 -0.40293809455E+02  0.45045679806E+02  0.00000000000E+00 0.  1.
         11    1    3    3    0    0  0.81303086888E+01 -0.10549989493E+02  0.25930897195E+02  0.29151597336E+02  0.51100000000E-03 0. -1.
        -11    1    3    3    0    0  0.24058610029E+01 -0.37485491756E+01  0.64284677842E+01  0.78208047157E+01  0.51100000000E-03 0.  1.
        -12    1    3    3    0    0  0.45060012168E+01  0.90991352883E+00  0.79344444761E+01  0.91699181425E+01  0.00000000000E+00 0.  1.
</event>
<event>
 7    1  0.4194672E-008  0.4614232E+02  0.7816164E-02  0.1320468E+00
        -11   -1    0    0    0    0  0.00000000000E+00  0.00000000000E+00  0.45593999997E+02  0.45594000000E+02  0.51100000000E-03 0. -1.
         11   -1    0    0    0    0 -0.00000000000E+00 -0.00000000000E+00 -0.45593999997E+02  0.45594000000E+02  0.51100000000E-03 0.  1.
    9900012    2    1    2    0    0 -0.78634764875E+01  0.39269303953E+02  0.20620404032E+02  0.46142316990E+02  0.99999929656E+01 0.  0.
        -12    1    1    2    0    0  0.78634764875E+01 -0.39269303953E+02 -0.20620404032E+02  0.45045683010E+02  0.00000000000E+00 0.  1.
         11    1    3    3    0    0 -0.68538368419E+01  0.18229678821E+02  0.97905425482E+01  0.21797958460E+02  0.51100000000E-03 0. -1.
        -11    1    3    3    0    0 -0.24863539191E+01  0.64862817142E+01  0.18831475555E+01  0.71972252475E+01  0.51100000000E-03 0.  1.
         12    1    3    3    0    0  0.14767142735E+01  0.14553343417E+02  0.89467139285E+01  0.17147133282E+02  0.00000000000E+00 0. -1.
</event>
<event>
 7    1  0.4194672E-008  0.4614232E+02  0.7816164E-02  0.1320468E+00
        -11   -1    0    0    0    0  0.00000000000E+00  0.00000000000E+00  0.45593999997E+02  0.45594000000E+02  0.51100000000E-03 0. -1.
         11   -1    0    0    0    0 -0.00000000000E+00 -0.00000000000E+00 -0.45593999997E+02  0.45594000000E+02  0.51100000000E-03 0.  1.
    9900012    2    1    2    0    0  0.90271168958E+01  0.64432199254E+01  0.43659009849E+02  0.46142322478E+02  0.10000043010E+02 0.  0.
        -12    1    1    2    0    0 -0.90271168958E+01 -0.64432199254E+01 -0.43659009849E+02  0.45045677522E+02  0.00000000000E+00 0.  1.
         11    1    3    3    0    0  0.36030257865E+01  0.66904400696E+01  0.21849890818E+02  0.23133558139E+02  0.51100000000E-03 0. -1.
        -11    1    3    3    0    0  0.21913035530E-02 -0.86728564624E+00  0.95565695300E+01  0.95958434042E+01  0.51100000000E-03 0.  1.
        -12    1    3    3    0    0  0.54218998057E+01  0.62006550203E+00  0.12252549501E+02  0.13412920935E+02  0.00000000000E+00 0.  1.
</event>
<event>
 7    1  0.4194672E-008  0.4614232E+02  0.7816164E-02  0.1320468E+00
        -11   -1    0    0    0    0  0.00000000000E+00  0.00000000000E+00  0.45593999997E+02  0.45594000000E+02  0.51100000000E-03 0. -1.
         11   -1    0    0    0    0 -0.00000000000E+00 -0.00000000000E+00 -0.45593999997E+02  0.45594000000E+02  0.51100000000E-03 0.  1.
    9900012    2    1    2    0    0  0.31458571016E+02  0.30835335654E+02  0.94156030619E+01  0.46142321003E+02  0.10000029562E+02 0.  0.
        -12    1    1    2    0    0 -0.31458571016E+02 -0.30835335654E+02 -0.94156030619E+01  0.45045678997E+02  0.00000000000E+00 0.  1.
         11    1    3    3    0    0  0.16142156495E+02  0.17019090145E+02  0.79296973590E+01  0.24760830885E+02  0.51100000000E-03 0. -1.
        -11    1    3    3    0    0  0.37711400837E+01  0.52708924129E+01 -0.16318084419E+01  0.66833078197E+01  0.51100000000E-03 0.  1.
        -12    1    3    3    0    0  0.11545274438E+02  0.85453530962E+01  0.31177141449E+01  0.14698182298E+02  0.00000000000E+00 0.  1.
</event>
<event>
 7    1  0.4194672E-008  0.4614232E+02  0.7816164E-02  0.1320468E+00
        -11   -1    0    0    0    0  0.00000000000E+00  0.00000000000E+00  0.45593999997E+02  0.45594000000E+02  0.51100000000E-03 0.  1.
         11   -1    0    0    0    0 -0.00000000000E+00 -0.00000000000E+00 -0.45593999997E+02  0.45594000000E+02  0.51100000000E-03 0. -1.
    9900012    2    1    2    0    0 -0.20782043452E+02 -0.37392876676E+02 -0.14106484708E+02  0.46142317999E+02  0.10000002165E+02 0.  0.
        -12    1    1    2    0    0  0.20782043452E+02  0.37392876676E+02  0.14106484708E+02  0.45045682001E+02  0.00000000000E+00 0.  1.
         11    1    3    3    0    0 -0.45298585727E+01 -0.98891447752E+01 -0.68897225976E+01  0.12875677878E+02  0.51100000000E-03 0. -1.
        -11    1    3    3    0    0 -0.12174228669E+02 -0.19209862818E+02 -0.77026403560E+01  0.24011691775E+02  0.51100000000E-03 0.  1.
         12    1    3    3    0    0 -0.40779562096E+01 -0.82938690830E+01  0.48587824594E+00  0.92549483458E+01  0.00000000000E+00 0. -1.
</event>
<event>
 7    1  0.4194672E-008  0.4614232E+02  0.7816164E-02  0.1320468E+00
        -11   -1    0    0    0    0  0.00000000000E+00  0.00000000000E+00  0.45593999997E+02  0.45594000000E+02  0.51100000000E-03 0.  1.
         11   -1    0    0    0    0 -0.00000000000E+00 -0.00000000000E+00 -0.45593999997E+02  0.45594000000E+02  0.51100000000E-03 0. -1.
    9900012    2    1    2    0    0  0.42134717548E+02  0.20335668627E+01 -0.15800115504E+02  0.46142317998E+02  0.10000002165E+02 0.  0.
        -12    1    1    2    0    0 -0.42134717548E+02 -0.20335668627E+01  0.15800115504E+02  0.45045682002E+02  0.00000000000E+00 0.  1.
         11    1    3    3    0    0  0.97354551714E+01  0.12130428307E+00 -0.26697342758E+00  0.97398704917E+01  0.51100000000E-03 0. -1.
        -11    1    3    3    0    0  0.26323334483E+01 -0.99880437660E-01  0.25702047237E+00  0.26467367207E+01  0.51100000000E-03 0.  1.
        -12    1    3    3    0    0  0.29766928928E+02  0.20121430173E+01 -0.15790162549E+02  0.33755710786E+02  0.00000000000E+00 0.  1.
</event>
<event>
 7    1  0.4194672E-008  0.4614232E+02  0.7816164E-02  0.1320468E+00
        -11   -1    0    0    0    0  0.00000000000E+00  0.00000000000E+00  0.45593999997E+02  0.45594000000E+02  0.51100000000E-03 0.  1.
         11   -1    0    0    0    0 -0.00000000000E+00 -0.00000000000E+00 -0.45593999997E+02  0.45594000000E+02  0.51100000000E-03 0. -1.
    9900012    2    1    2    0    0  0.74324236999E+01  0.19117603072E+02 -0.40104735486E+02  0.46142317880E+02  0.10000001083E+02 0.  0.
        -12    1    1    2    0    0 -0.74324236999E+01 -0.19117603072E+02  0.40104735486E+02  0.45045682120E+02  0.00000000000E+00 0.  1.
         11    1    3    3    0    0  0.37362913257E+01  0.14503673550E+02 -0.29590229240E+02  0.33164711457E+02  0.51100000000E-03 0. -1.
        -11    1    3    3    0    0 -0.51488697641E+00  0.30820410119E+01 -0.42141117972E+01  0.52462199628E+01  0.51100000000E-03 0.  1.
        -12    1    3    3    0    0  0.42110193506E+01  0.15318885101E+01 -0.63003944487E+01  0.77313864597E+01  0.00000000000E+00 0.  1.
</event>
<event>
 7    1  0.4194672E-008  0.4614232E+02  0.7816164E-02  0.1320468E+00
        -11   -1    0    0    0    0  0.00000000000E+00  0.00000000000E+00  0.45593999997E+02  0.45594000000E+02  0.51100000000E-03 0.  1.
         11   -1    0    0    0    0 -0.00000000000E+00 -0.00000000000E+00 -0.45593999997E+02  0.45594000000E+02  0.51100000000E-03 0. -1.
    9900012    2    1    2    0    0 -0.42982494289E+02  0.12086104341E+02  0.59619458387E+01  0.46142317281E+02  0.99999956218E+01 0.  0.
        -12    1    1    2    0    0  0.42982494289E+02 -0.12086104341E+02 -0.59619458387E+01  0.45045682719E+02  0.00000000000E+00 0.  1.
         11    1    3    3    0    0 -0.84368416594E+01  0.38280929670E+01 -0.32732846008E+00  0.92704766399E+01  0.51100000000E-03 0. -1.
        -11    1    3    3    0    0 -0.29414874305E+02  0.86238926781E+01  0.30761881701E+01  0.30806968193E+02  0.51100000000E-03 0.  1.
        -12    1    3    3    0    0 -0.51307783243E+01 -0.36588130432E+00  0.32130861287E+01  0.60648724482E+01  0.00000000000E+00 0.  1.
</event>
<event>
 7    1  0.4194672E-008  0.4614232E+02  0.7816164E-02  0.1320468E+00
        -11   -1    0    0    0    0  0.00000000000E+00  0.00000000000E+00  0.45593999997E+02  0.45594000000E+02  0.51100000000E-03 0.  1.
         11   -1    0    0    0    0 -0.00000000000E+00 -0.00000000000E+00 -0.45593999997E+02  0.45594000000E+02  0.51100000000E-03 0. -1.
    9900012    2    1    2    0    0 -0.25487827053E+02 -0.20455227173E+02 -0.31001092880E+02  0.46142318672E+02  0.10000008305E+02 0.  0.
        -12    1    1    2    0    0  0.25487827053E+02  0.20455227173E+02  0.31001092880E+02  0.45045681328E+02  0.00000000000E+00 0.  1.
         11    1    3    3    0    0 -0.12175305524E+02 -0.87664966204E+01 -0.14014740966E+02  0.20530525863E+02  0.51100000000E-03 0. -1.
        -11    1    3    3    0    0 -0.99419506726E+01 -0.12040583718E+02 -0.12572886412E+02  0.20047331803E+02  0.51100000000E-03 0.  1.
         12    1    3    3    0    0 -0.33705708564E+01  0.35185316558E+00 -0.44134655016E+01  0.55644610055E+01  0.00000000000E+00 0. -1.
</event>
<event>
 7    1  0.4194672E-008  0.4614232E+02  0.7816164E-02  0.1320468E+00
        -11   -1    0    0    0    0  0.00000000000E+00  0.00000000000E+00  0.45593999997E+02  0.45594000000E+02  0.51100000000E-03 0. -1.
         11   -1    0    0    0    0 -0.00000000000E+00 -0.00000000000E+00 -0.45593999997E+02  0.45594000000E+02  0.51100000000E-03 0.  1.
    9900012    2    1    2    0    0  0.19000189221E+02  0.40593942627E+02  0.44986703205E+01  0.46142318707E+02  0.10000008627E+02 0.  0.
        -12    1    1    2    0    0 -0.19000189221E+02 -0.40593942627E+02 -0.44986703205E+01  0.45045681293E+02  0.00000000000E+00 0.  1.
         11    1    3    3    0    0  0.29510233818E+01  0.72344764165E+01 -0.24209861622E+01  0.81796920651E+01  0.51100000000E-03 0.  1.
        -11    1    3    3    0    0  0.48041336069E+01  0.11382414700E+02  0.45354099061E+01  0.13160889309E+02  0.51100000000E-03 0. -1.
         12    1    3    3    0    0  0.11245032233E+02  0.21977051510E+02  0.23842465765E+01  0.24801737333E+02  0.00000000000E+00 0. -1.
</event>
<event>
 7    1  0.4194672E-008  0.4614233E+02  0.7816164E-02  0.1320468E+00
        -11   -1    0    0    0    0  0.00000000000E+00  0.00000000000E+00  0.45593999997E+02  0.45594000000E+02  0.51100000000E-03 0.  1.
         11   -1    0    0    0    0 -0.00000000000E+00 -0.00000000000E+00 -0.45593999997E+02  0.45594000000E+02  0.51100000000E-03 0. -1.
    9900012    2    1    2    0    0 -0.39265877351E+02 -0.21465471706E+02  0.51513676673E+01  0.46142332189E+02  0.10000131562E+02 0.  0.
        -12    1    1    2    0    0  0.39265877351E+02  0.21465471706E+02 -0.51513676673E+01  0.45045667811E+02  0.00000000000E+00 0.  1.
         11    1    3    3    0    0 -0.14663367699E+02 -0.51407266794E+01  0.16205558113E+00  0.15539230526E+02  0.51100000000E-03 0. -1.
        -11    1    3    3    0    0 -0.53968340063E+01 -0.99001287360E+00  0.20236018227E+01  0.58481541857E+01  0.51100000000E-03 0.  1.
         12    1    3    3    0    0 -0.19205675645E+02 -0.15334732154E+02  0.29657102634E+01  0.24754947477E+02  0.00000000000E+00 0. -1.
</event>
<event>
 7    1  0.4194672E-008  0.4614232E+02  0.7816164E-02  0.1320468E+00
        -11   -1    0    0    0    0  0.00000000000E+00  0.00000000000E+00  0.45593999997E+02  0.45594000000E+02  0.51100000000E-03 0. -1.
         11   -1    0    0    0    0 -0.00000000000E+00 -0.00000000000E+00 -0.45593999997E+02  0.45594000000E+02  0.51100000000E-03 0.  1.
    9900012    2    1    2    0    0 -0.10969484286E+02  0.42128567434E+02  0.11574442822E+02  0.46142317563E+02  0.99999981975E+01 0.  0.
        -12    1    1    2    0    0  0.10969484286E+02 -0.42128567434E+02 -0.11574442822E+02  0.45045682437E+02  0.00000000000E+00 0.  1.
         11    1    3    3    0    0 -0.71214582917E+00  0.73562138120E+01  0.12498176561E+01  0.74955371898E+01  0.51100000000E-03 0. -1.
        -11    1    3    3    0    0 -0.65599889301E+01  0.28219804873E+02  0.49295099078E+01  0.29388618716E+02  0.51100000000E-03 0.  1.
        -12    1    3    3    0    0 -0.36973495268E+01  0.65525487487E+01  0.53951152584E+01  0.92581616576E+01  0.00000000000E+00 0.  1.
</event>
<event>
 7    1  0.4194672E-008  0.4614232E+02  0.7816164E-02  0.1320468E+00
        -11   -1    0    0    0    0  0.00000000000E+00  0.00000000000E+00  0.45593999997E+02  0.45594000000E+02  0.51100000000E-03 0.  1.
         11   -1    0    0    0    0 -0.00000000000E+00 -0.00000000000E+00 -0.45593999997E+02  0.45594000000E+02  0.51100000000E-03 0. -1.
    9900012    2    1    2    0    0  0.31127294190E+02  0.10529960016E+01 -0.32543759380E+02  0.46142317424E+02  0.99999969246E+01 0.  0.
        -12    1    1    2    0    0 -0.31127294190E+02 -0.10529960016E+01  0.32543759380E+02  0.45045682576E+02  0.00000000000E+00 0.  1.
         11    1    3    3    0    0  0.26662825647E+02  0.20102016197E+01 -0.24516259704E+02  0.36276633969E+02  0.51100000000E-03 0. -1.
        -11    1    3    3    0    0  0.23405140448E+01  0.24985917960E+00 -0.12580811602E+01  0.26689331333E+01  0.51100000000E-03 0.  1.
        -12    1    3    3    0    0  0.21239544982E+01 -0.12070647977E+01 -0.67694185165E+01  0.71967503213E+01  0.00000000000E+00 0.  1.
</event>
<event>
 7    1  0.4194672E-008  0.4614232E+02  0.7816164E-02  0.1320468E+00
        -11   -1    0    0    0    0  0.00000000000E+00  0.00000000000E+00  0.45593999997E+02  0.45594000000E+02  0.51100000000E-03 0.  1.
         11   -1    0    0    0    0 -0.00000000000E+00 -0.00000000000E+00 -0.45593999997E+02  0.45594000000E+02  0.51100000000E-03 0. -1.
    9900012    2    1    2    0    0 -0.45188837944E-02  0.15590759394E+02 -0.42261586683E+02  0.46142317544E+02  0.99999980237E+01 0.  0.
        -12    1    1    2    0    0  0.45188837944E-02 -0.15590759394E+02  0.42261586683E+02  0.45045682456E+02  0.00000000000E+00 0.  1.
         11    1    3    3    0    0  0.33329926174E+01  0.92357569458E+01 -0.19639604517E+02  0.21957279248E+02  0.51100000000E-03 0. -1.
        -11    1    3    3    0    0  0.10662163195E+01  0.40212073667E+00 -0.26521963651E+01  0.28866354371E+01  0.51100000000E-03 0.  1.
        -12    1    3    3    0    0 -0.44037278206E+01  0.59528817119E+01 -0.19969785802E+02  0.21298402859E+02  0.00000000000E+00 0.  1.
</event>
<event>
 7    1  0.4194672E-008  0.4614232E+02  0.7816164E-02  0.1320468E+00
        -11   -1    0    0    0    0  0.00000000000E+00  0.00000000000E+00  0.45593999997E+02  0.45594000000E+02  0.51100000000E-03 0.  1.
         11   -1    0    0    0    0 -0.00000000000E+00 -0.00000000000E+00 -0.45593999997E+02  0.45594000000E+02  0.51100000000E-03 0. -1.
    9900012    2    1    2    0    0 -0.34440378780E+01  0.43162657201E+02  0.12419224252E+02  0.46142317582E+02  0.99999983622E+01 0.  0.
        -12    1    1    2    0    0  0.34440378780E+01 -0.43162657201E+02 -0.12419224252E+02  0.45045682418E+02  0.00000000000E+00 0.  1.
         11    1    3    3    0    0 -0.44756040387E+01  0.22074014658E+02  0.29648738691E+01  0.22717474155E+02  0.51100000000E-03 0. -1.
        -11    1    3    3    0    0  0.99912307916E-01  0.15585875447E+01  0.19107402213E+01  0.24678140243E+01  0.51100000000E-03 0.  1.
         12    1    3    3    0    0  0.93165385276E+00  0.19530054998E+02  0.75436101614E+01  0.20957029403E+02  0.00000000000E+00 0. -1.
</event>
<event>
 7    1  0.4194672E-008  0.4614232E+02  0.7816164E-02  0.1320468E+00
        -11   -1    0    0    0    0  0.00000000000E+00  0.00000000000E+00  0.45593999997E+02  0.45594000000E+02  0.51100000000E-03 0. -1.
         11   -1    0    0    0    0 -0.00000000000E+00 -0.00000000000E+00 -0.45593999997E+02  0.45594000000E+02  0.51100000000E-03 0.  1.
    9900012    2    1    2    0    0 -0.29351422614E+02  0.28493425868E+02  0.18860865046E+02  0.46142316994E+02  0.99999930087E+01 0.  0.
        -12    1    1    2    0    0  0.29351422614E+02 -0.28493425868E+02 -0.18860865046E+02  0.45045683006E+02  0.00000000000E+00 0.  1.
         11    1    3    3    0    0 -0.11213164862E+02  0.16337710540E+02  0.68776973381E+01  0.20975189459E+02  0.51100000000E-03 0. -1.
        -11    1    3    3    0    0 -0.35017966907E+00 -0.25501459854E+00  0.14311961242E+00  0.45622552611E+00  0.51100000000E-03 0.  1.
         12    1    3    3    0    0 -0.17788078084E+02  0.12410729926E+02  0.11840048095E+02  0.24710902009E+02  0.00000000000E+00 0. -1.
</event>
<event>
 7    1  0.4194672E-008  0.4614232E+02  0.7816164E-02  0.1320468E+00
        -11   -1    0    0    0    0  0.00000000000E+00  0.00000000000E+00  0.45593999997E+02  0.45594000000E+02  0.51100000000E-03 0. -1.
         11   -1    0    0    0    0 -0.00000000000E+00 -0.00000000000E+00 -0.45593999997E+02  0.45594000000E+02  0.51100000000E-03 0.  1.
    9900012    2    1    2    0    0  0.31991298990E+02 -0.31585373334E+02 -0.28344564868E+01  0.46142321369E+02  0.10000032904E+02 0.  0.
        -12    1    1    2    0    0 -0.31991298990E+02  0.31585373334E+02  0.28344564868E+01  0.45045678631E+02  0.00000000000E+00 0.  1.
         11    1    3    3    0    0  0.17464033006E+02 -0.19473746374E+02 -0.74848331948E+00  0.26168291389E+02  0.51100000000E-03 0. -1.
        -11    1    3    3    0    0  0.94850463833E+00  0.40736671753E+00 -0.10552263407E+01  0.14761814193E+01  0.51100000000E-03 0.  1.
        -12    1    3    3    0    0  0.13578761345E+02 -0.12518993678E+02 -0.10307468267E+01  0.18497848561E+02  0.00000000000E+00 0.  1.
</event>
<event>
 7    1  0.4194672E-008  0.4614232E+02  0.7816164E-02  0.1320468E+00
        -11   -1    0    0    0    0  0.00000000000E+00  0.00000000000E+00  0.45593999997E+02  0.45594000000E+02  0.51100000000E-03 0.  1.
         11   -1    0    0    0    0 -0.00000000000E+00 -0.00000000000E+00 -0.45593999997E+02  0.45594000000E+02  0.51100000000E-03 0. -1.
    9900012    2    1    2    0    0  0.14586802973E+02  0.10131807565E+02 -0.41396679655E+02  0.46142318387E+02  0.10000005710E+02 0.  0.
        -12    1    1    2    0    0 -0.14586802973E+02 -0.10131807565E+02  0.41396679655E+02  0.45045681613E+02  0.00000000000E+00 0.  1.
         11    1    3    3    0    0  0.70739925554E+01  0.58691849049E+01 -0.12780400706E+02  0.15742532979E+02  0.51100000000E-03 0. -1.
        -11    1    3    3    0    0  0.21663493703E+01 -0.56698440731E+00 -0.13129458197E+02  0.13319054536E+02  0.51100000000E-03 0.  1.
         12    1    3    3    0    0  0.53464610469E+01  0.48296070675E+01 -0.15486820752E+02  0.17080730873E+02  0.00000000000E+00 0. -1.
</event>
<event>
 7    1  0.4194672E-008  0.4614232E+02  0.7816164E-02  0.1320468E+00
        -11   -1    0    0    0    0  0.00000000000E+00  0.00000000000E+00  0.45593999997E+02  0.45594000000E+02  0.51100000000E-03 0.  1.
         11   -1    0    0    0    0 -0.00000000000E+00 -0.00000000000E+00 -0.45593999997E+02  0.45594000000E+02  0.51100000000E-03 0. -1.
    9900012    2    1    2    0    0 -0.40416918462E+02 -0.14681866525E+02 -0.13417488468E+02  0.46142317639E+02  0.99999988842E+01 0.  0.
        -12    1    1    2    0    0  0.40416918462E+02  0.14681866525E+02  0.13417488468E+02  0.45045682361E+02  0.00000000000E+00 0.  1.
         11    1    3    3    0    0 -0.14623554670E+02 -0.71389584956E+01 -0.29955788251E+01  0.16546497283E+02  0.51100000000E-03 0. -1.
        -11    1    3    3    0    0 -0.10405420652E+02 -0.15774067243E+01 -0.95004339049E+00  0.10567098638E+02  0.51100000000E-03 0.  1.
         12    1    3    3    0    0 -0.15387943139E+02 -0.59655013047E+01 -0.94718662526E+01  0.19028721717E+02  0.00000000000E+00 0. -1.
</event>
<event>
 7    1  0.4194672E-008  0.4614232E+02  0.7816164E-02  0.1320468E+00
        -11   -1    0    0    0    0  0.00000000000E+00  0.00000000000E+00  0.45593999997E+02  0.45594000000E+02  0.51100000000E-03 0. -1.
         11   -1    0    0    0    0 -0.00000000000E+00 -0.00000000000E+00 -0.45593999997E+02  0.45594000000E+02  0.51100000000E-03 0.  1.
    9900012    2    1    2    0    0  0.37291291331E+02 -0.90555061416E+01  0.23589633632E+02  0.46142318570E+02  0.10000007374E+02 0.  0.
        -12    1    1    2    0    0 -0.37291291331E+02  0.90555061416E+01 -0.23589633632E+02  0.45045681430E+02  0.00000000000E+00 0.  1.
         11    1    3    3    0    0  0.10418661839E+02 -0.31983580616E+01  0.69679252162E+01  0.12935609413E+02  0.51100000000E-03 0. -1.
        -11    1    3    3    0    0  0.27080418756E+02 -0.46631334719E+01  0.15467699119E+02  0.31533214395E+02  0.51100000000E-03 0.  1.
        -12    1    3    3    0    0 -0.20778926342E+00 -0.11940146080E+01  0.11540092968E+01  0.16734947623E+01  0.00000000000E+00 0.  1.
</event>
<event>
 7    1  0.4194672E-008  0.4614232E+02  0.7816164E-02  0.1320468E+00
        -11   -1    0    0    0    0  0.00000000000E+00  0.00000000000E+00  0.45593999997E+02  0.45594000000E+02  0.51100000000E-03 0. -1.
         11   -1    0    0    0    0 -0.00000000000E+00 -0.00000000000E+00 -0.45593999997E+02  0.45594000000E+02  0.51100000000E-03 0.  1.
    9900012    2    1    2    0    0 -0.67177721313E+01  0.44138446303E+02  0.59818507527E+01  0.46142318266E+02  0.10000004600E+02 0.  0.
        -12    1    1    2    0    0  0.67177721313E+01 -0.44138446303E+02 -0.59818507527E+01  0.45045681734E+02  0.00000000000E+00 0.  1.
         11    1    3    3    0    0 -0.31759210811E+01  0.11346139359E+02  0.10071534664E+01  0.11825215070E+02  0.51100000000E-03 0. -1.
        -11    1    3    3    0    0  0.23002727531E+01  0.48595575499E+01  0.17645484801E+00  0.53793764410E+01  0.51100000000E-03 0.  1.
        -12    1    3    3    0    0 -0.58421238034E+01  0.27932749394E+02  0.47982424383E+01  0.28937726755E+02  0.00000000000E+00 0.  1.
</event>
<event>
 7    1  0.4194672E-008  0.4614232E+02  0.7816164E-02  0.1320468E+00
        -11   -1    0    0    0    0  0.00000000000E+00  0.00000000000E+00  0.45593999997E+02  0.45594000000E+02  0.51100000000E-03 0.  1.
         11   -1    0    0    0    0 -0.00000000000E+00 -0.00000000000E+00 -0.45593999997E+02  0.45594000000E+02  0.51100000000E-03 0. -1.
    9900012    2    1    2    0    0  0.29432005134E+02  0.52284228134E+01 -0.33697688545E+02  0.46142317136E+02  0.99999943028E+01 0.  0.
        -12    1    1    2    0    0 -0.29432005134E+02 -0.52284228134E+01  0.33697688545E+02  0.45045682864E+02  0.00000000000E+00 0.  1.
         11    1    3    3    0    0  0.10353255602E+01 -0.85545918656E+00 -0.10829709487E+01  0.17252639718E+01  0.51100000000E-03 0. -1.
        -11    1    3    3    0    0  0.78369095966E+01  0.54578246207E+01 -0.93908485997E+01  0.13393768674E+02  0.51100000000E-03 0.  1.
         12    1    3    3    0    0  0.20559769978E+02  0.62605737928E+00 -0.23223868997E+02  0.31023284490E+02  0.00000000000E+00 0. -1.
</event>
<event>
 7    1  0.4194672E-008  0.4614232E+02  0.7816164E-02  0.1320468E+00
        -11   -1    0    0    0    0  0.00000000000E+00  0.00000000000E+00  0.45593999997E+02  0.45594000000E+02  0.51100000000E-03 0. -1.
         11   -1    0    0    0    0 -0.00000000000E+00 -0.00000000000E+00 -0.45593999997E+02  0.45594000000E+02  0.51100000000E-03 0.  1.
    9900012    2    1    2    0    0  0.22658737045E+01 -0.31028049945E+02  0.32576671497E+02  0.46142316601E+02  0.99999894213E+01 0.  0.
        -12    1    1    2    0    0 -0.22658737045E+01  0.31028049945E+02 -0.32576671497E+02  0.45045683399E+02  0.00000000000E+00 0.  1.
         11    1    3    3    0    0  0.72240256804E+00 -0.19426365381E+02  0.14737418406E+02  0.24394610858E+02  0.51100000000E-03 0. -1.
        -11    1    3    3    0    0  0.31858105407E+00 -0.51015221896E+01  0.43020790061E+01  0.66809360553E+01  0.51100000000E-03 0.  1.
        -12    1    3    3    0    0  0.12248900824E+01 -0.65001623745E+01  0.13537174085E+02  0.15066769687E+02  0.00000000000E+00 0.  1.
</event>
<event>
 7    1  0.4194672E-008  0.4614232E+02  0.7816164E-02  0.1320468E+00
        -11   -1    0    0    0    0  0.00000000000E+00  0.00000000000E+00  0.45593999997E+02  0.45594000000E+02  0.51100000000E-03 0.  1.
         11   -1    0    0    0    0 -0.00000000000E+00 -0.00000000000E+00 -0.45593999997E+02  0.45594000000E+02  0.51100000000E-03 0. -1.
    9900012    2    1    2    0    0 -0.36310573904E+02  0.12512350371E+02  0.23539256950E+02  0.46142319777E+02  0.10000018383E+02 0.  0.
        -12    1    1    2    0    0  0.36310573904E+02 -0.12512350371E+02 -0.23539256950E+02  0.45045680223E+02  0.00000000000E+00 0.  1.
         11    1    3    3    0    0 -0.80479575348E+01  0.61174459282E+01  0.46074524308E+01  0.11109517691E+02  0.51100000000E-03 0. -1.
        -11    1    3    3    0    0 -0.95971874439E+01 -0.28565163897E+00  0.71493955440E+01  0.11970858808E+02  0.51100000000E-03 0.  1.
         12    1    3    3    0    0 -0.18665428925E+02  0.66805560813E+01  0.11782408975E+02  0.23061943278E+02  0.00000000000E+00 0. -1.
</event>
<event>
 7    1  0.4194672E-008  0.4614232E+02  0.7816164E-02  0.1320468E+00
        -11   -1    0    0    0    0  0.00000000000E+00  0.00000000000E+00  0.45593999997E+02  0.45594000000E+02  0.51100000000E-03 0.  1.
         11   -1    0    0    0    0 -0.00000000000E+00 -0.00000000000E+00 -0.45593999997E+02  0.45594000000E+02  0.51100000000E-03 0. -1.
    9900012    2    1    2    0    0 -0.44699952353E+02  0.32815953361E+01  0.45009823609E+01  0.46142318181E+02  0.10000003829E+02 0.  0.
        -12    1    1    2    0    0  0.44699952353E+02 -0.32815953361E+01 -0.45009823609E+01  0.45045681819E+02  0.00000000000E+00 0.  1.
         11    1    3    3    0    0 -0.65074618911E+01 -0.13344450567E+01  0.24659893671E+01  0.70858244188E+01  0.51100000000E-03 0. -1.
        -11    1    3    3    0    0 -0.55616149944E+01 -0.13143685511E+01  0.14055306914E+01  0.58851204592E+01  0.51100000000E-03 0.  1.
         12    1    3    3    0    0 -0.32630875468E+02  0.59304089439E+01  0.62946230250E+00  0.33171373303E+02  0.00000000000E+00 0. -1.
</event>
<event>
 7    1  0.4194672E-008  0.4614232E+02  0.7816164E-02  0.1320468E+00
        -11   -1    0    0    0    0  0.00000000000E+00  0.00000000000E+00  0.45593999997E+02  0.45594000000E+02  0.51100000000E-03 0. -1.
         11   -1    0    0    0    0 -0.00000000000E+00 -0.00000000000E+00 -0.45593999997E+02  0.45594000000E+02  0.51100000000E-03 0.  1.
    9900012    2    1    2    0    0 -0.12430077301E+02 -0.30457610541E+02  0.30772399705E+02  0.46142318240E+02  0.10000004369E+02 0.  0.
        -12    1    1    2    0    0  0.12430077301E+02  0.30457610541E+02 -0.30772399705E+02  0.45045681760E+02  0.00000000000E+00 0.  1.
         11    1    3    3    0    0 -0.13051450094E+02 -0.20033980307E+02  0.20763081889E+02  0.31667116798E+02  0.51100000000E-03 0. -1.
        -11    1    3    3    0    0 -0.41415504346E-01 -0.37701354333E+01  0.35927962096E+01  0.52080535034E+01  0.51100000000E-03 0.  1.
         12    1    3    3    0    0  0.66278829764E+00 -0.66534948013E+01  0.64165216061E+01  0.92671479389E+01  0.00000000000E+00 0. -1.
</event>
<event>
 7    1  0.4194672E-008  0.4614232E+02  0.7816164E-02  0.1320468E+00
        -11   -1    0    0    0    0  0.00000000000E+00  0.00000000000E+00  0.45593999997E+02  0.45594000000E+02  0.51100000000E-03 0.  1.
         11   -1    0    0    0    0 -0.00000000000E+00 -0.00000000000E+00 -0.45593999997E+02  0.45594000000E+02  0.51100000000E-03 0. -1.
    9900012    2    1    2    0    0 -0.37733257052E+02 -0.16420606710E+02  0.18321526284E+02  0.46142319432E+02  0.10000015239E+02 0.  0.
        -12    1    1    2    0    0  0.37733257052E+02  0.16420606710E+02 -0.18321526284E+02  0.45045680568E+02  0.00000000000E+00 0.  1.
         11    1    3    3    0    0 -0.16315713936E+02 -0.36506799808E+01  0.86559055084E+01  0.18826966989E+02  0.51100000000E-03 0. -1.
        -11    1    3    3    0    0 -0.13429941956E+02 -0.56726322755E+01  0.35538985792E+01  0.15005742009E+02  0.51100000000E-03 0.  1.
         12    1    3    3    0    0 -0.79876011597E+01 -0.70972944533E+01  0.61117221964E+01  0.12309610435E+02  0.00000000000E+00 0. -1.
</event>
<event>
 7    1  0.4194672E-008  0.4614232E+02  0.7816164E-02  0.1320468E+00
        -11   -1    0    0    0    0  0.00000000000E+00  0.00000000000E+00  0.45593999997E+02  0.45594000000E+02  0.51100000000E-03 0. -1.
         11   -1    0    0    0    0 -0.00000000000E+00 -0.00000000000E+00 -0.45593999997E+02  0.45594000000E+02  0.51100000000E-03 0.  1.
    9900012    2    1    2    0    0  0.55728409070E+01  0.18670636996E+02  0.40613596883E+02  0.46142317706E+02  0.99999994944E+01 0.  0.
        -12    1    1    2    0    0 -0.55728409070E+01 -0.18670636996E+02 -0.40613596883E+02  0.45045682294E+02  0.00000000000E+00 0.  1.
         11    1    3    3    0    0  0.21951148658E+01  0.58573927902E+01  0.13405920535E+02  0.14793454135E+02  0.51100000000E-03 0. -1.
        -11    1    3    3    0    0  0.60551377361E+01  0.92049142835E+01  0.20540914711E+02  0.23309318253E+02  0.51100000000E-03 0.  1.
         12    1    3    3    0    0 -0.26774116950E+01  0.36083299219E+01  0.66667616363E+01  0.80395453183E+01  0.00000000000E+00 0. -1.
</event>
<event>
 7    1  0.4194672E-008  0.4614232E+02  0.7816164E-02  0.1320468E+00
        -11   -1    0    0    0    0  0.00000000000E+00  0.00000000000E+00  0.45593999997E+02  0.45594000000E+02  0.51100000000E-03 0.  1.
         11   -1    0    0    0    0 -0.00000000000E+00 -0.00000000000E+00 -0.45593999997E+02  0.45594000000E+02  0.51100000000E-03 0. -1.
    9900012    2    1    2    0    0  0.17273601409E+02  0.41535328881E+02 -0.23564022787E+01  0.46142317825E+02  0.10000000581E+02 0.  0.
        -12    1    1    2    0    0 -0.17273601409E+02 -0.41535328881E+02  0.23564022787E+01  0.45045682175E+02  0.00000000000E+00 0.  1.
         11    1    3    3    0    0 -0.50390795522E+00  0.57121225681E+01 -0.14306081973E+01  0.59100683191E+01  0.51100000000E-03 0. -1.
        -11    1    3    3    0    0  0.27479789265E+01  0.43889592036E+01  0.12327359863E+01  0.53229680953E+01  0.51100000000E-03 0.  1.
         12    1    3    3    0    0  0.15029530438E+02  0.31434247110E+02 -0.21585300677E+01  0.34909281410E+02  0.00000000000E+00 0. -1.
</event>
<event>
 7    1  0.4194672E-008  0.4614232E+02  0.7816164E-02  0.1320468E+00
        -11   -1    0    0    0    0  0.00000000000E+00  0.00000000000E+00  0.45593999997E+02  0.45594000000E+02  0.51100000000E-03 0.  1.
         11   -1    0    0    0    0 -0.00000000000E+00 -0.00000000000E+00 -0.45593999997E+02  0.45594000000E+02  0.51100000000E-03 0. -1.
    9900012    2    1    2    0    0 -0.42342552423E+02  0.91886161147E+01  0.12320352134E+02  0.46142317760E+02  0.99999999876E+01 0.  0.
        -12    1    1    2    0    0  0.42342552423E+02 -0.91886161147E+01 -0.12320352134E+02  0.45045682240E+02  0.00000000000E+00 0.  1.
         11    1    3    3    0    0 -0.45284257209E+01  0.13781107117E+01 -0.15383935226E+01  0.49771963529E+01  0.51100000000E-03 0.  1.
        -11    1    3    3    0    0 -0.41590876337E+01  0.88997755115E+00  0.42999294289E+00  0.42749227103E+01  0.51100000000E-03 0. -1.
        -12    1    3    3    0    0 -0.33655039068E+02  0.69205278518E+01  0.13428752714E+02  0.36890198697E+02  0.00000000000E+00 0.  1.
</event>
<event>
 7    1  0.4194672E-008  0.4614232E+02  0.7816164E-02  0.1320468E+00
        -11   -1    0    0    0    0  0.00000000000E+00  0.00000000000E+00  0.45593999997E+02  0.45594000000E+02  0.51100000000E-03 0.  1.
         11   -1    0    0    0    0 -0.00000000000E+00 -0.00000000000E+00 -0.45593999997E+02  0.45594000000E+02  0.51100000000E-03 0. -1.
    9900012    2    1    2    0    0  0.40450679411E+02  0.12941726924E+02 -0.15012251470E+02  0.46142318134E+02  0.10000003400E+02 0.  0.
        -12    1    1    2    0    0 -0.40450679411E+02 -0.12941726924E+02  0.15012251470E+02  0.45045681866E+02  0.00000000000E+00 0.  1.
         11    1    3    3    0    0  0.13750147743E+02  0.51021443670E+01 -0.17202210955E+01  0.14766773547E+02  0.51100000000E-03 0. -1.
        -11    1    3    3    0    0  0.21323812782E+02  0.62123194145E+01 -0.78569225630E+01  0.23559056359E+02  0.51100000000E-03 0.  1.
        -12    1    3    3    0    0  0.53767188854E+01  0.16272631426E+01 -0.54351078113E+01  0.78164882287E+01  0.00000000000E+00 0.  1.
</event>
<event>
 7    1  0.4194672E-008  0.4614232E+02  0.7816164E-02  0.1320468E+00
        -11   -1    0    0    0    0  0.00000000000E+00  0.00000000000E+00  0.45593999997E+02  0.45594000000E+02  0.51100000000E-03 0.  1.
         11   -1    0    0    0    0 -0.00000000000E+00 -0.00000000000E+00 -0.45593999997E+02  0.45594000000E+02  0.51100000000E-03 0. -1.
    9900012    2    1    2    0    0 -0.96595004303E+01  0.34009943050E+02 -0.27912924573E+02  0.46142317266E+02  0.99999954808E+01 0.  0.
        -12    1    1    2    0    0  0.96595004303E+01 -0.34009943050E+02  0.27912924573E+02  0.45045682734E+02  0.00000000000E+00 0.  1.
         11    1    3    3    0    0 -0.53705427454E+01  0.19656461984E+02 -0.15275848967E+02  0.25467053010E+02  0.51100000000E-03 0. -1.
        -11    1    3    3    0    0 -0.37951643924E+00  0.52102671910E+01 -0.91505491530E+00  0.53036065737E+01  0.51100000000E-03 0.  1.
         12    1    3    3    0    0 -0.39094412457E+01  0.91432138753E+01 -0.11722020690E+02  0.15371657682E+02  0.00000000000E+00 0. -1.
</event>
<event>
 7    1  0.4194672E-008  0.4614232E+02  0.7816164E-02  0.1320468E+00
        -11   -1    0    0    0    0  0.00000000000E+00  0.00000000000E+00  0.45593999997E+02  0.45594000000E+02  0.51100000000E-03 0.  1.
         11   -1    0    0    0    0 -0.00000000000E+00 -0.00000000000E+00 -0.45593999997E+02  0.45594000000E+02  0.51100000000E-03 0. -1.
    9900012    2    1    2    0    0 -0.19134887649E+02 -0.18403383323E+02 -0.36390724937E+02  0.46142319802E+02  0.10000018606E+02 0.  0.
        -12    1    1    2    0    0  0.19134887649E+02  0.18403383323E+02  0.36390724937E+02  0.45045680198E+02  0.00000000000E+00 0.  1.
         11    1    3    3    0    0  0.94116134111E-01  0.28363091274E+00 -0.12726244907E+01  0.13072404893E+01  0.51100000000E-03 0. -1.
        -11    1    3    3    0    0 -0.68465246314E+01 -0.23436921872E+01 -0.73236671491E+01  0.10295819218E+02  0.51100000000E-03 0.  1.
         12    1    3    3    0    0 -0.12382479152E+02 -0.16343322049E+02 -0.27794433297E+02  0.34539260094E+02  0.00000000000E+00 0. -1.
</event>
<event>
 7    1  0.4194672E-008  0.4614232E+02  0.7816164E-02  0.1320468E+00
        -11   -1    0    0    0    0  0.00000000000E+00  0.00000000000E+00  0.45593999997E+02  0.45594000000E+02  0.51100000000E-03 0.  1.
         11   -1    0    0    0    0 -0.00000000000E+00 -0.00000000000E+00 -0.45593999997E+02  0.45594000000E+02  0.51100000000E-03 0. -1.
    9900012    2    1    2    0    0 -0.35302212066E+02 -0.27419663657E+02 -0.55704076110E+01  0.46142316824E+02  0.99999914580E+01 0.  0.
        -12    1    1    2    0    0  0.35302212066E+02  0.27419663657E+02  0.55704076110E+01  0.45045683176E+02  0.00000000000E+00 0.  1.
         11    1    3    3    0    0 -0.23111963178E+02 -0.13493762804E+02 -0.49986637990E+01  0.27225559987E+02  0.51100000000E-03 0. -1.
        -11    1    3    3    0    0 -0.14357545007E+01 -0.39339109424E+01 -0.64234056035E+00  0.42367024849E+01  0.51100000000E-03 0.  1.
         12    1    3    3    0    0 -0.10754494387E+02 -0.99919899108E+01  0.70596748301E-01  0.14680054352E+02  0.00000000000E+00 0. -1.
</event>
<event>
 7    1  0.4194672E-008  0.4614232E+02  0.7816164E-02  0.1320468E+00
        -11   -1    0    0    0    0  0.00000000000E+00  0.00000000000E+00  0.45593999997E+02  0.45594000000E+02  0.51100000000E-03 0.  1.
         11   -1    0    0    0    0 -0.00000000000E+00 -0.00000000000E+00 -0.45593999997E+02  0.45594000000E+02  0.51100000000E-03 0. -1.
    9900012    2    1    2    0    0 -0.23410098739E+02 -0.30517963535E+02 -0.23446421288E+02  0.46142317715E+02  0.99999995794E+01 0.  0.
        -12    1    1    2    0    0  0.23410098739E+02  0.30517963535E+02  0.23446421288E+02  0.45045682285E+02  0.00000000000E+00 0.  1.
         11    1    3    3    0    0 -0.13756285983E+01 -0.18062932510E+01 -0.23564523718E+01  0.32722954315E+01  0.51100000000E-03 0. -1.
        -11    1    3    3    0    0 -0.85860287163E+01 -0.46861914731E+01 -0.51247868308E+01  0.11042813046E+02  0.51100000000E-03 0.  1.
        -12    1    3    3    0    0 -0.13448441424E+02 -0.24025478811E+02 -0.15965182085E+02  0.31827209238E+02  0.00000000000E+00 0.  1.
</event>
<event>
 7    1  0.4194672E-008  0.4614232E+02  0.7816164E-02  0.1320468E+00
        -11   -1    0    0    0    0  0.00000000000E+00  0.00000000000E+00  0.45593999997E+02  0.45594000000E+02  0.51100000000E-03 0.  1.
         11   -1    0    0    0    0 -0.00000000000E+00 -0.00000000000E+00 -0.45593999997E+02  0.45594000000E+02  0.51100000000E-03 0. -1.
    9900012    2    1    2    0    0  0.38970978425E+02 -0.53374592673E+01 -0.21951945879E+02  0.46142316980E+02  0.99999928799E+01 0.  0.
        -12    1    1    2    0    0 -0.38970978425E+02  0.53374592673E+01  0.21951945879E+02  0.45045683020E+02  0.00000000000E+00 0.  1.
         11    1    3    3    0    0  0.42916076134E+01 -0.13081335417E+01 -0.62363049654E+00  0.45296826078E+01  0.51100000000E-03 0. -1.
        -11    1    3    3    0    0  0.14741348400E+02  0.15532163998E+01 -0.11105159751E+02  0.18521458020E+02  0.51100000000E-03 0.  1.
         12    1    3    3    0    0  0.19938022412E+02 -0.55825421254E+01 -0.10223155631E+02  0.23091176352E+02  0.00000000000E+00 0. -1.
</event>
<event>
 7    1  0.4194672E-008  0.4614232E+02  0.7816164E-02  0.1320468E+00
        -11   -1    0    0    0    0  0.00000000000E+00  0.00000000000E+00  0.45593999997E+02  0.45594000000E+02  0.51100000000E-03 0.  1.
         11   -1    0    0    0    0 -0.00000000000E+00 -0.00000000000E+00 -0.45593999997E+02  0.45594000000E+02  0.51100000000E-03 0. -1.
    9900012    2    1    2    0    0  0.20000789240E+02 -0.14652172496E+01 -0.40335283169E+02  0.46142317631E+02  0.99999988123E+01 0.  0.
        -12    1    1    2    0    0 -0.20000789240E+02  0.14652172496E+01  0.40335283169E+02  0.45045682369E+02  0.00000000000E+00 0.  1.
         11    1    3    3    0    0  0.11243160223E+02 -0.10467971365E+01 -0.16874050653E+02  0.20303645528E+02  0.51100000000E-03 0. -1.
        -11    1    3    3    0    0  0.17424004884E+01  0.14340716831E+01 -0.14995601928E+01  0.27094652770E+01  0.51100000000E-03 0.  1.
         12    1    3    3    0    0  0.70152285290E+01 -0.18524917962E+01 -0.21961672323E+02  0.23129206826E+02  0.00000000000E+00 0. -1.
</event>
<event>
 7    1  0.4194672E-008  0.4614232E+02  0.7816164E-02  0.1320468E+00
        -11   -1    0    0    0    0  0.00000000000E+00  0.00000000000E+00  0.45593999997E+02  0.45594000000E+02  0.51100000000E-03 0. -1.
         11   -1    0    0    0    0 -0.00000000000E+00 -0.00000000000E+00 -0.45593999997E+02  0.45594000000E+02  0.51100000000E-03 0.  1.
    9900012    2    1    2    0    0 -0.24159916808E+02 -0.24104043805E+02  0.29400797352E+02  0.46142318821E+02  0.10000009667E+02 0.  0.
        -12    1    1    2    0    0  0.24159916808E+02  0.24104043805E+02 -0.29400797352E+02  0.45045681179E+02  0.00000000000E+00 0.  1.
         11    1    3    3    0    0 -0.63652170357E+00 -0.24055641848E+01  0.39862298330E+00  0.25200792587E+01  0.51100000000E-03 0.  1.
        -11    1    3    3    0    0 -0.17677179347E+01 -0.25434413631E+01  0.84359541636E+00  0.32102296105E+01  0.51100000000E-03 0. -1.
         12    1    3    3    0    0 -0.21755677170E+02 -0.19155038257E+02  0.28158578952E+02  0.40412009952E+02  0.00000000000E+00 0. -1.
</event>
<event>
 7    1  0.4194672E-008  0.4614232E+02  0.7816164E-02  0.1320468E+00
        -11   -1    0    0    0    0  0.00000000000E+00  0.00000000000E+00  0.45593999997E+02  0.45594000000E+02  0.51100000000E-03 0. -1.
         11   -1    0    0    0    0 -0.00000000000E+00 -0.00000000000E+00 -0.45593999997E+02  0.45594000000E+02  0.51100000000E-03 0.  1.
    9900012    2    1    2    0    0  0.10083895397E+02 -0.43202037736E+02  0.78110439214E+01  0.46142318541E+02  0.10000007115E+02 0.  0.
        -12    1    1    2    0    0 -0.10083895397E+02  0.43202037736E+02 -0.78110439214E+01  0.45045681459E+02  0.00000000000E+00 0.  1.
         11    1    3    3    0    0  0.33532953164E+01 -0.13113921212E+02  0.41615656656E+01  0.14161149250E+02  0.51100000000E-03 0.  1.
        -11    1    3    3    0    0 -0.41002488423E+00 -0.69921913572E+01  0.34453640966E+01  0.78057283068E+01  0.51100000000E-03 0. -1.
         12    1    3    3    0    0  0.71406249652E+01 -0.23095925167E+02  0.20411415924E+00  0.24175440984E+02  0.00000000000E+00 0. -1.
</event>
<event>
 7    1  0.4194672E-008  0.4614232E+02  0.7816164E-02  0.1320468E+00
        -11   -1    0    0    0    0  0.00000000000E+00  0.00000000000E+00  0.45593999997E+02  0.45594000000E+02  0.51100000000E-03 0.  1.
         11   -1    0    0    0    0 -0.00000000000E+00 -0.00000000000E+00 -0.45593999997E+02  0.45594000000E+02  0.51100000000E-03 0. -1.
    9900012    2    1    2    0    0 -0.32836076206E+02 -0.20506998131E+01 -0.30768493353E+02  0.46142318148E+02  0.10000003524E+02 0.  0.
        -12    1    1    2    0    0  0.32836076206E+02  0.20506998131E+01  0.30768493353E+02  0.45045681852E+02  0.00000000000E+00 0.  1.
         11    1    3    3    0    0 -0.35351958111E+01  0.20112726764E+01 -0.11924292599E+01  0.42384802704E+01  0.51100000000E-03 0.  1.
        -11    1    3    3    0    0 -0.21661058588E+02 -0.22370626839E+01 -0.22824198006E+02  0.31545996949E+02  0.51100000000E-03 0. -1.
        -12    1    3    3    0    0 -0.76398218073E+01 -0.18249098056E+01 -0.67518660867E+01  0.10357840928E+02  0.00000000000E+00 0.  1.
</event>
<event>
 7    1  0.4194672E-008  0.4614232E+02  0.7816164E-02  0.1320468E+00
        -11   -1    0    0    0    0  0.00000000000E+00  0.00000000000E+00  0.45593999997E+02  0.45594000000E+02  0.51100000000E-03 0.  1.
         11   -1    0    0    0    0 -0.00000000000E+00 -0.00000000000E+00 -0.45593999997E+02  0.45594000000E+02  0.51100000000E-03 0. -1.
    9900012    2    1    2    0    0 -0.14960328958E+02  0.26685020832E+02 -0.33063752107E+02  0.46142317824E+02  0.10000000571E+02 0.  0.
        -12    1    1    2    0    0  0.14960328958E+02 -0.26685020832E+02  0.33063752107E+02  0.45045682176E+02  0.00000000000E+00 0.  1.
         11    1    3    3    0    0 -0.36248456574E+01  0.12464556753E+02 -0.10927900933E+02  0.16968314594E+02  0.51100000000E-03 0. -1.
        -11    1    3    3    0    0 -0.63962744026E+01  0.88203310811E+01 -0.89779959754E+01  0.14117895686E+02  0.51100000000E-03 0.  1.
         12    1    3    3    0    0 -0.49392088975E+01  0.54001329976E+01 -0.13157855199E+02  0.15056107544E+02  0.00000000000E+00 0. -1.
</event>
<event>
 7    1  0.4194672E-008  0.4614232E+02  0.7816164E-02  0.1320468E+00
        -11   -1    0    0    0    0  0.00000000000E+00  0.00000000000E+00  0.45593999997E+02  0.45594000000E+02  0.51100000000E-03 0. -1.
         11   -1    0    0    0    0 -0.00000000000E+00 -0.00000000000E+00 -0.45593999997E+02  0.45594000000E+02  0.51100000000E-03 0.  1.
    9900012    2    1    2    0    0 -0.61932588973E+01  0.36491174869E+02  0.25673939501E+02  0.46142317981E+02  0.10000002004E+02 0.  0.
        -12    1    1    2    0    0  0.61932588973E+01 -0.36491174869E+02 -0.25673939501E+02  0.45045682019E+02  0.00000000000E+00 0.  1.
         11    1    3    3    0    0 -0.21473566665E+01  0.61450639400E+01  0.72355137018E+01  0.97327082700E+01  0.51100000000E-03 0. -1.
        -11    1    3    3    0    0  0.63469936077E+00  0.26966967239E+01  0.40066119364E+01  0.48711349775E+01  0.51100000000E-03 0.  1.
         12    1    3    3    0    0 -0.46806015916E+01  0.27649414205E+02  0.14431813863E+02  0.31538474733E+02  0.00000000000E+00 0. -1.
</event>
<event>
 7    1  0.4194672E-008  0.4614232E+02  0.7816164E-02  0.1320468E+00
        -11   -1    0    0    0    0  0.00000000000E+00  0.00000000000E+00  0.45593999997E+02  0.45594000000E+02  0.51100000000E-03 0.  1.
         11   -1    0    0    0    0 -0.00000000000E+00 -0.00000000000E+00 -0.45593999997E+02  0.45594000000E+02  0.51100000000E-03 0. -1.
    9900012    2    1    2    0    0 -0.41206472302E+02  0.87521261852E+01 -0.15954322141E+02  0.46142317994E+02  0.10000002128E+02 0.  0.
        -12    1    1    2    0    0  0.41206472302E+02 -0.87521261852E+01  0.15954322141E+02  0.45045682006E+02  0.00000000000E+00 0.  1.
         11    1    3    3    0    0 -0.19382234826E+02  0.38639574683E+01 -0.36811631957E+01  0.20103535931E+02  0.51100000000E-03 0. -1.
        -11    1    3    3    0    0 -0.20428887886E+02  0.57093476871E+01 -0.10608359101E+02  0.23716521548E+02  0.51100000000E-03 0.  1.
        -12    1    3    3    0    0 -0.13953495900E+01 -0.82117897026E+00 -0.16647998447E+01  0.23222605156E+01  0.00000000000E+00 0.  1.
</event>
<event>
 7    1  0.4194672E-008  0.4614232E+02  0.7816164E-02  0.1320468E+00
        -11   -1    0    0    0    0  0.00000000000E+00  0.00000000000E+00  0.45593999997E+02  0.45594000000E+02  0.51100000000E-03 0.  1.
         11   -1    0    0    0    0 -0.00000000000E+00 -0.00000000000E+00 -0.45593999997E+02  0.45594000000E+02  0.51100000000E-03 0. -1.
    9900012    2    1    2    0    0  0.84291547090E+01 -0.20759479056E+02 -0.39078214481E+02  0.46142318001E+02  0.10000002185E+02 0.  0.
        -12    1    1    2    0    0 -0.84291547090E+01  0.20759479056E+02  0.39078214481E+02  0.45045681999E+02  0.00000000000E+00 0.  1.
         11    1    3    3    0    0  0.52475685225E+01 -0.91483062218E+01 -0.21787670306E+02  0.24206012884E+02  0.51100000000E-03 0. -1.
        -11    1    3    3    0    0  0.31302686316E+01 -0.32490228378E+01 -0.31302909829E+01  0.54912159861E+01  0.51100000000E-03 0.  1.
         12    1    3    3    0    0  0.51317554840E-01 -0.83621499962E+01 -0.14160253192E+02  0.16445089130E+02  0.00000000000E+00 0. -1.
</event>
<event>
 7    1  0.4194672E-008  0.4614232E+02  0.7816164E-02  0.1320468E+00
        -11   -1    0    0    0    0  0.00000000000E+00  0.00000000000E+00  0.45593999997E+02  0.45594000000E+02  0.51100000000E-03 0.  1.
         11   -1    0    0    0    0 -0.00000000000E+00 -0.00000000000E+00 -0.45593999997E+02  0.45594000000E+02  0.51100000000E-03 0. -1.
    9900012    2    1    2    0    0  0.30747969895E+02 -0.14834170979E+02 -0.29387468256E+02  0.46142316835E+02  0.99999915555E+01 0.  0.
        -12    1    1    2    0    0 -0.30747969895E+02  0.14834170979E+02  0.29387468256E+02  0.45045683165E+02  0.00000000000E+00 0.  1.
         11    1    3    3    0    0  0.77025317757E+01 -0.54832862318E+01 -0.11723273356E+02  0.15060895129E+02  0.51100000000E-03 0.  1.
        -11    1    3    3    0    0  0.20563965177E+02 -0.68178505901E+01 -0.16842755514E+02  0.27441540846E+02  0.51100000000E-03 0. -1.
        -12    1    3    3    0    0  0.24814729424E+01 -0.25330341575E+01 -0.82143938647E+00  0.36398808597E+01  0.00000000000E+00 0.  1.
</event>
<event>
 7    1  0.4194672E-008  0.4614232E+02  0.7816164E-02  0.1320468E+00
        -11   -1    0    0    0    0  0.00000000000E+00  0.00000000000E+00  0.45593999997E+02  0.45594000000E+02  0.51100000000E-03 0. -1.
         11   -1    0    0    0    0 -0.00000000000E+00 -0.00000000000E+00 -0.45593999997E+02  0.45594000000E+02  0.51100000000E-03 0.  1.
    9900012    2    1    2    0    0 -0.24052403246E+02  0.38034409605E+02 -0.19947514022E+01  0.46142318198E+02  0.10000003984E+02 0.  0.
        -12    1    1    2    0    0  0.24052403246E+02 -0.38034409605E+02  0.19947514022E+01  0.45045681802E+02  0.00000000000E+00 0.  1.
         11    1    3    3    0    0 -0.14105376889E+02  0.15616562752E+02  0.16523558289E+01  0.21108504670E+02  0.51100000000E-03 0. -1.
        -11    1    3    3    0    0 -0.34787563765E+01  0.10170250372E+02 -0.30374925109E+01  0.11169695590E+02  0.51100000000E-03 0.  1.
        -12    1    3    3    0    0 -0.64682699796E+01  0.12247596481E+02 -0.60961472025E+00  0.13864117938E+02  0.00000000000E+00 0.  1.
</event>
<event>
 7    1  0.4194672E-008  0.4614232E+02  0.7816164E-02  0.1320468E+00
        -11   -1    0    0    0    0  0.00000000000E+00  0.00000000000E+00  0.45593999997E+02  0.45594000000E+02  0.51100000000E-03 0. -1.
         11   -1    0    0    0    0 -0.00000000000E+00 -0.00000000000E+00 -0.45593999997E+02  0.45594000000E+02  0.51100000000E-03 0.  1.
    9900012    2    1    2    0    0 -0.44689702469E+02 -0.12726095733E+01 -0.55067613635E+01  0.46142318047E+02  0.10000002607E+02 0.  0.
        -12    1    1    2    0    0  0.44689702469E+02  0.12726095733E+01  0.55067613635E+01  0.45045681953E+02  0.00000000000E+00 0.  1.
         11    1    3    3    0    0 -0.97358268097E+01 -0.77235661886E+00  0.19611249775E+01  0.99613688745E+01  0.51100000000E-03 0. -1.
        -11    1    3    3    0    0 -0.37660197107E+00 -0.71232923767E+00  0.14420353014E-03  0.80575571321E+00  0.51100000000E-03 0.  1.
         12    1    3    3    0    0 -0.34577273688E+02  0.21207628326E+00 -0.74680305445E+01  0.35375193459E+02  0.00000000000E+00 0. -1.
</event>
<event>
 7    1  0.4194672E-008  0.4614232E+02  0.7816164E-02  0.1320468E+00
        -11   -1    0    0    0    0  0.00000000000E+00  0.00000000000E+00  0.45593999997E+02  0.45594000000E+02  0.51100000000E-03 0. -1.
         11   -1    0    0    0    0 -0.00000000000E+00 -0.00000000000E+00 -0.45593999997E+02  0.45594000000E+02  0.51100000000E-03 0.  1.
    9900012    2    1    2    0    0 -0.18434750067E+02  0.36625110745E+02 -0.18651398741E+02  0.46142318497E+02  0.10000006709E+02 0.  0.
        -12    1    1    2    0    0  0.18434750067E+02 -0.36625110745E+02  0.18651398741E+02  0.45045681503E+02  0.00000000000E+00 0.  1.
         11    1    3    3    0    0 -0.88206980498E+01  0.21228578687E+02 -0.84652863534E+01  0.24497312923E+02  0.51100000000E-03 0. -1.
        -11    1    3    3    0    0 -0.97957945369E+01  0.14388102285E+02 -0.10767000826E+02  0.20467129379E+02  0.51100000000E-03 0.  1.
         12    1    3    3    0    0  0.18174252017E+00  0.10084297729E+01  0.58088843884E+00  0.11778761942E+01  0.00000000000E+00 0. -1.
</event>
<event>
 7    1  0.4194672E-008  0.4614232E+02  0.7816164E-02  0.1320468E+00
        -11   -1    0    0    0    0  0.00000000000E+00  0.00000000000E+00  0.45593999997E+02  0.45594000000E+02  0.51100000000E-03 0.  1.
         11   -1    0    0    0    0 -0.00000000000E+00 -0.00000000000E+00 -0.45593999997E+02  0.45594000000E+02  0.51100000000E-03 0. -1.
    9900012    2    1    2    0    0  0.18715500084E+02 -0.17061180694E+02 -0.37252647561E+02  0.46142316740E+02  0.99999906863E+01 0.  0.
        -12    1    1    2    0    0 -0.18715500084E+02  0.17061180694E+02  0.37252647561E+02  0.45045683260E+02  0.00000000000E+00 0.  1.
         11    1    3    3    0    0  0.10395125482E+02 -0.83634521416E+01 -0.20096417351E+02  0.24122022223E+02  0.51100000000E-03 0. -1.
        -11    1    3    3    0    0  0.96902548705E+00 -0.26194477566E+01 -0.91503600606E+01  0.95671106633E+01  0.51100000000E-03 0.  1.
        -12    1    3    3    0    0  0.73513491151E+01 -0.60782807955E+01 -0.80058701500E+01  0.12453183854E+02  0.00000000000E+00 0.  1.
</event>
<event>
 7    1  0.4194672E-008  0.4614232E+02  0.7816164E-02  0.1320468E+00
        -11   -1    0    0    0    0  0.00000000000E+00  0.00000000000E+00  0.45593999997E+02  0.45594000000E+02  0.51100000000E-03 0.  1.
         11   -1    0    0    0    0 -0.00000000000E+00 -0.00000000000E+00 -0.45593999997E+02  0.45594000000E+02  0.51100000000E-03 0. -1.
    9900012    2    1    2    0    0 -0.18655035745E+02 -0.28065550856E+02 -0.29890266464E+02  0.46142317268E+02  0.99999955040E+01 0.  0.
        -12    1    1    2    0    0  0.18655035745E+02  0.28065550856E+02  0.29890266464E+02  0.45045682732E+02  0.00000000000E+00 0.  1.
         11    1    3    3    0    0 -0.10153796594E+01 -0.96062618309E+00  0.36939308205E+00  0.14457697004E+01  0.51100000000E-03 0. -1.
        -11    1    3    3    0    0 -0.22121039406E+01 -0.42815381563E+01 -0.77271339289E+01  0.91067871307E+01  0.51100000000E-03 0.  1.
         12    1    3    3    0    0 -0.15427552145E+02 -0.22823386517E+02 -0.22532525617E+02  0.35589760437E+02  0.00000000000E+00 0. -1.
</event>
<event>
 7    1  0.4194672E-008  0.4614232E+02  0.7816164E-02  0.1320468E+00
        -11   -1    0    0    0    0  0.00000000000E+00  0.00000000000E+00  0.45593999997E+02  0.45594000000E+02  0.51100000000E-03 0. -1.
         11   -1    0    0    0    0 -0.00000000000E+00 -0.00000000000E+00 -0.45593999997E+02  0.45594000000E+02  0.51100000000E-03 0.  1.
    9900012    2    1    2    0    0  0.26886759113E+01  0.29201257611E+02  0.34193143899E+02  0.46142317478E+02  0.99999974139E+01 0.  0.
        -12    1    1    2    0    0 -0.26886759113E+01 -0.29201257611E+02 -0.34193143899E+02  0.45045682522E+02  0.00000000000E+00 0.  1.
         11    1    3    3    0    0  0.27441368238E+01  0.74486011389E+01  0.10435325552E+02  0.13111367795E+02  0.51100000000E-03 0. -1.
        -11    1    3    3    0    0 -0.29768705807E+01  0.85533178901E+01  0.12514282175E+02  0.15447597354E+02  0.51100000000E-03 0.  1.
        -12    1    3    3    0    0  0.29214096682E+01  0.13199338582E+02  0.11243536172E+02  0.17583352328E+02  0.00000000000E+00 0.  1.
</event>
<event>
 7    1  0.4194672E-008  0.4614232E+02  0.7816164E-02  0.1320468E+00
        -11   -1    0    0    0    0  0.00000000000E+00  0.00000000000E+00  0.45593999997E+02  0.45594000000E+02  0.51100000000E-03 0. -1.
         11   -1    0    0    0    0 -0.00000000000E+00 -0.00000000000E+00 -0.45593999997E+02  0.45594000000E+02  0.51100000000E-03 0.  1.
    9900012    2    1    2    0    0  0.25727513994E+02 -0.36895179662E+02  0.24401158702E+01  0.46142318475E+02  0.10000006509E+02 0.  0.
        -12    1    1    2    0    0 -0.25727513994E+02  0.36895179662E+02 -0.24401158702E+01  0.45045681525E+02  0.00000000000E+00 0.  1.
         11    1    3    3    0    0  0.18768241011E+02 -0.26437341317E+02  0.41985827194E+00  0.32424622863E+02  0.51100000000E-03 0. -1.
        -11    1    3    3    0    0  0.40225358703E+01 -0.91889713244E+01  0.28207864177E+01  0.10419924429E+02  0.51100000000E-03 0.  1.
        -12    1    3    3    0    0  0.29367371126E+01 -0.12688670200E+01 -0.80052881948E+00  0.32977711828E+01  0.00000000000E+00 0.  1.
</event>
<event>
 7    1  0.4194672E-008  0.4614232E+02  0.7816164E-02  0.1320468E+00
        -11   -1    0    0    0    0  0.00000000000E+00  0.00000000000E+00  0.45593999997E+02  0.45594000000E+02  0.51100000000E-03 0.  1.
         11   -1    0    0    0    0 -0.00000000000E+00 -0.00000000000E+00 -0.45593999997E+02  0.45594000000E+02  0.51100000000E-03 0. -1.
    9900012    2    1    2    0    0  0.24794211271E+02  0.20249476869E+02 -0.31690996451E+02  0.46142317831E+02  0.10000000636E+02 0.  0.
        -12    1    1    2    0    0 -0.24794211271E+02 -0.20249476869E+02  0.31690996451E+02  0.45045682169E+02  0.00000000000E+00 0.  1.
         11    1    3    3    0    0  0.89847947377E+01  0.97536186075E+01 -0.16362975541E+02  0.21061970023E+02  0.51100000000E-03 0. -1.
        -11    1    3    3    0    0  0.28059525571E+01  0.69219030510E+00 -0.50638747597E+01  0.58305510043E+01  0.51100000000E-03 0.  1.
        -12    1    3    3    0    0  0.13003463977E+02  0.98036679567E+01 -0.10264146150E+02  0.19249796804E+02  0.00000000000E+00 0.  1.
</event>
<event>
 7    1  0.4194672E-008  0.4614232E+02  0.7816164E-02  0.1320468E+00
        -11   -1    0    0    0    0  0.00000000000E+00  0.00000000000E+00  0.45593999997E+02  0.45594000000E+02  0.51100000000E-03 0.  1.
         11   -1    0    0    0    0 -0.00000000000E+00 -0.00000000000E+00 -0.45593999997E+02  0.45594000000E+02  0.51100000000E-03 0. -1.
    9900012    2    1    2    0    0 -0.17020865141E+02 -0.10677491404E+02 -0.40316185558E+02  0.46142317735E+02  0.99999997577E+01 0.  0.
        -12    1    1    2    0    0  0.17020865141E+02  0.10677491404E+02  0.40316185558E+02  0.45045682265E+02  0.00000000000E+00 0.  1.
         11    1    3    3    0    0 -0.43594559872E+01 -0.18340497752E+01 -0.10492543414E+02  0.11509216421E+02  0.51100000000E-03 0. -1.
        -11    1    3    3    0    0 -0.13874106286E+02 -0.74977036323E+01 -0.26156038308E+02  0.30542506859E+02  0.51100000000E-03 0.  1.
        -12    1    3    3    0    0  0.12126971326E+01 -0.13457379962E+01 -0.36676038363E+01  0.40905944543E+01  0.00000000000E+00 0.  1.
</event>
<event>
 7    1  0.4194672E-008  0.4614232E+02  0.7816164E-02  0.1320468E+00
        -11   -1    0    0    0    0  0.00000000000E+00  0.00000000000E+00  0.45593999997E+02  0.45594000000E+02  0.51100000000E-03 0. -1.
         11   -1    0    0    0    0 -0.00000000000E+00 -0.00000000000E+00 -0.45593999997E+02  0.45594000000E+02  0.51100000000E-03 0.  1.
    9900012    2    1    2    0    0 -0.25982588458E+02 -0.34610047843E+02  0.12496520612E+02  0.46142319384E+02  0.10000014803E+02 0.  0.
        -12    1    1    2    0    0  0.25982588458E+02  0.34610047843E+02 -0.12496520612E+02  0.45045680616E+02  0.00000000000E+00 0.  1.
         11    1    3    3    0    0 -0.73015654287E+01 -0.16278302923E+02  0.44020991909E+01  0.18375921237E+02  0.51100000000E-03 0. -1.
        -11    1    3    3    0    0 -0.70036721273E+01 -0.62331391808E+01  0.51459891553E+01  0.10695076061E+02  0.51100000000E-03 0.  1.
        -12    1    3    3    0    0 -0.11677350902E+02 -0.12098605740E+02  0.29484322657E+01  0.17071322086E+02  0.00000000000E+00 0.  1.
</event>
<event>
 7    1  0.4194672E-008  0.4614232E+02  0.7816164E-02  0.1320468E+00
        -11   -1    0    0    0    0  0.00000000000E+00  0.00000000000E+00  0.45593999997E+02  0.45594000000E+02  0.51100000000E-03 0.  1.
         11   -1    0    0    0    0 -0.00000000000E+00 -0.00000000000E+00 -0.45593999997E+02  0.45594000000E+02  0.51100000000E-03 0. -1.
    9900012    2    1    2    0    0 -0.92288208751E+01  0.95984475837E+01 -0.43032687627E+02  0.46142317242E+02  0.99999952646E+01 0.  0.
        -12    1    1    2    0    0  0.92288208751E+01 -0.95984475837E+01  0.43032687627E+02  0.45045682758E+02  0.00000000000E+00 0.  1.
         11    1    3    3    0    0 -0.84709447675E+00  0.79523445947E+00 -0.12391327772E+02  0.12445680821E+02  0.51100000000E-03 0. -1.
        -11    1    3    3    0    0 -0.12618236706E+01 -0.66656762356E+00 -0.91239145863E+00  0.16938033556E+01  0.51100000000E-03 0.  1.
         12    1    3    3    0    0 -0.71199027277E+01  0.94697807478E+01 -0.29728968397E+02  0.32002833065E+02  0.00000000000E+00 0. -1.
</event>
<event>
 7    1  0.4194672E-008  0.4614232E+02  0.7816164E-02  0.1320468E+00
        -11   -1    0    0    0    0  0.00000000000E+00  0.00000000000E+00  0.45593999997E+02  0.45594000000E+02  0.51100000000E-03 0.  1.
         11   -1    0    0    0    0 -0.00000000000E+00 -0.00000000000E+00 -0.45593999997E+02  0.45594000000E+02  0.51100000000E-03 0. -1.
    9900012    2    1    2    0    0  0.84137347084E+01  0.27268574169E+02 -0.34853228938E+02  0.46142316118E+02  0.99999850204E+01 0.  0.
        -12    1    1    2    0    0 -0.84137347084E+01 -0.27268574169E+02  0.34853228938E+02  0.45045683882E+02  0.00000000000E+00 0.  1.
         11    1    3    3    0    0  0.28482328238E+01  0.13380041399E+02 -0.16256188775E+02  0.21246214058E+02  0.51100000000E-03 0. -1.
        -11    1    3    3    0    0  0.32887706873E+01  0.16054159460E+01 -0.67565043766E+01  0.76839914527E+01  0.51100000000E-03 0.  1.
        -12    1    3    3    0    0  0.22767311974E+01  0.12283116824E+02 -0.11840535787E+02  0.17212110608E+02  0.00000000000E+00 0.  1.
</event>
<event>
 7    1  0.4194672E-008  0.4614232E+02  0.7816164E-02  0.1320468E+00
        -11   -1    0    0    0    0  0.00000000000E+00  0.00000000000E+00  0.45593999997E+02  0.45594000000E+02  0.51100000000E-03 0.  1.
         11   -1    0    0    0    0 -0.00000000000E+00 -0.00000000000E+00 -0.45593999997E+02  0.45594000000E+02  0.51100000000E-03 0. -1.
    9900012    2    1    2    0    0  0.72984325765E+01  0.12413937168E+02 -0.42681854067E+02  0.46142316293E+02  0.99999866109E+01 0.  0.
        -12    1    1    2    0    0 -0.72984325765E+01 -0.12413937168E+02  0.42681854067E+02  0.45045683707E+02  0.00000000000E+00 0.  1.
         11    1    3    3    0    0 -0.18114370517E+00  0.39291545173E+01 -0.16125978022E+02  0.16598741991E+02  0.51100000000E-03 0. -1.
        -11    1    3    3    0    0 -0.16806583049E+00  0.35545923076E+01 -0.10526056107E+02  0.11111310905E+02  0.51100000000E-03 0.  1.
        -12    1    3    3    0    0  0.76476421122E+01  0.49301903434E+01 -0.16029819938E+02  0.18432263397E+02  0.00000000000E+00 0.  1.
</event>
<event>
 7    1  0.4194672E-008  0.4614232E+02  0.7816164E-02  0.1320468E+00
        -11   -1    0    0    0    0  0.00000000000E+00  0.00000000000E+00  0.45593999997E+02  0.45594000000E+02  0.51100000000E-03 0. -1.
         11   -1    0    0    0    0 -0.00000000000E+00 -0.00000000000E+00 -0.45593999997E+02  0.45594000000E+02  0.51100000000E-03 0.  1.
    9900012    2    1    2    0    0 -0.20740912900E+02 -0.35915214494E+02  0.17579122158E+02  0.46142316123E+02  0.99999850628E+01 0.  0.
        -12    1    1    2    0    0  0.20740912900E+02  0.35915214494E+02 -0.17579122158E+02  0.45045683877E+02  0.00000000000E+00 0.  1.
         11    1    3    3    0    0 -0.12728474472E+02 -0.13364638525E+02  0.75966794481E+01  0.19958385811E+02  0.51100000000E-03 0. -1.
        -11    1    3    3    0    0 -0.43775264930E+01 -0.72206526765E+01  0.31746478820E+01  0.90210283619E+01  0.51100000000E-03 0.  1.
        -12    1    3    3    0    0 -0.36349119359E+01 -0.15329923292E+02  0.68077948281E+01  0.17162901950E+02  0.00000000000E+00 0.  1.
</event>
<event>
 7    1  0.4194672E-008  0.4614232E+02  0.7816164E-02  0.1320468E+00
        -11   -1    0    0    0    0  0.00000000000E+00  0.00000000000E+00  0.45593999997E+02  0.45594000000E+02  0.51100000000E-03 0. -1.
         11   -1    0    0    0    0 -0.00000000000E+00 -0.00000000000E+00 -0.45593999997E+02  0.45594000000E+02  0.51100000000E-03 0.  1.
    9900012    2    1    2    0    0 -0.15978022031E+02  0.38495439870E+02  0.17085589784E+02  0.46142318108E+02  0.10000003166E+02 0.  0.
        -12    1    1    2    0    0  0.15978022031E+02 -0.38495439870E+02 -0.17085589784E+02  0.45045681892E+02  0.00000000000E+00 0.  1.
         11    1    3    3    0    0 -0.34961366795E+01  0.16531742231E+02  0.33151173576E+01  0.17219508594E+02  0.51100000000E-03 0.  1.
        -11    1    3    3    0    0 -0.46000604048E+01  0.10337783318E+02  0.72398012076E+01  0.13432983341E+02  0.51100000000E-03 0. -1.
        -12    1    3    3    0    0 -0.78818249469E+01  0.11625914322E+02  0.65306712183E+01  0.15489826173E+02  0.00000000000E+00 0.  1.
</event>
<event>
 7    1  0.4194672E-008  0.4614232E+02  0.7816164E-02  0.1320468E+00
        -11   -1    0    0    0    0  0.00000000000E+00  0.00000000000E+00  0.45593999997E+02  0.45594000000E+02  0.51100000000E-03 0.  1.
         11   -1    0    0    0    0 -0.00000000000E+00 -0.00000000000E+00 -0.45593999997E+02  0.45594000000E+02  0.51100000000E-03 0. -1.
    9900012    2    1    2    0    0  0.19332027837E+02  0.13365173469E+01 -0.40664479606E+02  0.46142317848E+02  0.10000000795E+02 0.  0.
        -12    1    1    2    0    0 -0.19332027837E+02 -0.13365173469E+01  0.40664479606E+02  0.45045682152E+02  0.00000000000E+00 0.  1.
         11    1    3    3    0    0  0.10579850980E+02 -0.57307155667E+00 -0.25663264968E+02  0.27764452576E+02  0.51100000000E-03 0. -1.
        -11    1    3    3    0    0 -0.62399951201E+00 -0.37554706774E+00 -0.29042827376E+00  0.78406621812E+00  0.51100000000E-03 0.  1.
         12    1    3    3    0    0  0.93761763689E+01  0.22851359713E+01 -0.14710786364E+02  0.17593799054E+02  0.00000000000E+00 0. -1.
</event>
<event>
 7    1  0.4194672E-008  0.4614231E+02  0.7816164E-02  0.1320468E+00
        -11   -1    0    0    0    0  0.00000000000E+00  0.00000000000E+00  0.45593999997E+02  0.45594000000E+02  0.51100000000E-03 0.  1.
         11   -1    0    0    0    0 -0.00000000000E+00 -0.00000000000E+00 -0.45593999997E+02  0.45594000000E+02  0.51100000000E-03 0. -1.
    9900012    2    1    2    0    0 -0.25188254966E+02 -0.20798964261E+02 -0.31017237148E+02  0.46142310940E+02  0.99999378005E+01 0.  0.
        -12    1    1    2    0    0  0.25188254966E+02  0.20798964261E+02  0.31017237148E+02  0.45045689060E+02  0.00000000000E+00 0.  1.
         11    1    3    3    0    0 -0.31119011726E+01 -0.17528615828E+01 -0.46398199085E+01  0.58552866438E+01  0.51100000000E-03 0. -1.
        -11    1    3    3    0    0 -0.19084493963E+02 -0.11733564857E+02 -0.17699270602E+02  0.28550983069E+02  0.51100000000E-03 0.  1.
         12    1    3    3    0    0 -0.29918598302E+01 -0.73125378213E+01 -0.86781466370E+01  0.11736041227E+02  0.00000000000E+00 0. -1.
</event>
<event>
 7    1  0.4194672E-008  0.4614232E+02  0.7816164E-02  0.1320468E+00
        -11   -1    0    0    0    0  0.00000000000E+00  0.00000000000E+00  0.45593999997E+02  0.45594000000E+02  0.51100000000E-03 0.  1.
         11   -1    0    0    0    0 -0.00000000000E+00 -0.00000000000E+00 -0.45593999997E+02  0.45594000000E+02  0.51100000000E-03 0. -1.
    9900012    2    1    2    0    0  0.23449184903E+02  0.27583637077E+02 -0.26802838784E+02  0.46142317922E+02  0.10000001467E+02 0.  0.
        -12    1    1    2    0    0 -0.23449184903E+02 -0.27583637077E+02  0.26802838784E+02  0.45045682078E+02  0.00000000000E+00 0.  1.
         11    1    3    3    0    0  0.15522922081E+02  0.11567183136E+02 -0.15705516215E+02  0.24928378918E+02  0.51100000000E-03 0. -1.
        -11    1    3    3    0    0  0.35971856634E+01  0.46193753158E+01 -0.42119790086E+01  0.72124295792E+01  0.51100000000E-03 0.  1.
        -12    1    3    3    0    0  0.43290771586E+01  0.11397078625E+02 -0.68853435603E+01  0.14001509425E+02  0.00000000000E+00 0.  1.
</event>
<event>
 7    1  0.4194672E-008  0.4614232E+02  0.7816164E-02  0.1320468E+00
        -11   -1    0    0    0    0  0.00000000000E+00  0.00000000000E+00  0.45593999997E+02  0.45594000000E+02  0.51100000000E-03 0.  1.
         11   -1    0    0    0    0 -0.00000000000E+00 -0.00000000000E+00 -0.45593999997E+02  0.45594000000E+02  0.51100000000E-03 0. -1.
    9900012    2    1    2    0    0 -0.18061554937E+02  0.20814300417E+02 -0.35632271798E+02  0.46142315833E+02  0.99999824222E+01 0.  0.
        -12    1    1    2    0    0  0.18061554937E+02 -0.20814300417E+02  0.35632271798E+02  0.45045684167E+02  0.00000000000E+00 0.  1.
         11    1    3    3    0    0 -0.30273488711E+00  0.26641004380E+01 -0.60600945768E+01  0.66267507949E+01  0.51100000000E-03 0.  1.
        -11    1    3    3    0    0 -0.64921927152E+01  0.11214466586E+02 -0.13830638695E+02  0.18952556398E+02  0.51100000000E-03 0. -1.
         12    1    3    3    0    0 -0.11266627334E+02  0.69357333934E+01 -0.15741538526E+02  0.20563008640E+02  0.00000000000E+00 0. -1.
</event>
<event>
 7    1  0.4194672E-008  0.4614232E+02  0.7816164E-02  0.1320468E+00
        -11   -1    0    0    0    0  0.00000000000E+00  0.00000000000E+00  0.45593999997E+02  0.45594000000E+02  0.51100000000E-03 0. -1.
         11   -1    0    0    0    0 -0.00000000000E+00 -0.00000000000E+00 -0.45593999997E+02  0.45594000000E+02  0.51100000000E-03 0.  1.
    9900012    2    1    2    0    0  0.39792417898E+02  0.40012986898E+01  0.20728402664E+02  0.46142316629E+02  0.99999896775E+01 0.  0.
        -12    1    1    2    0    0 -0.39792417898E+02 -0.40012986898E+01 -0.20728402664E+02  0.45045683371E+02  0.00000000000E+00 0.  1.
         11    1    3    3    0    0  0.61006615891E+01  0.51466175027E+00  0.11170770286E+01  0.62234082214E+01  0.51100000000E-03 0. -1.
        -11    1    3    3    0    0  0.84245368663E+01 -0.15723039670E+01  0.22933034202E+01  0.88715388752E+01  0.51100000000E-03 0.  1.
         12    1    3    3    0    0  0.25267219443E+02  0.50589409066E+01  0.17318022215E+02  0.31047369532E+02  0.00000000000E+00 0. -1.
</event>
<event>
 7    1  0.4194672E-008  0.4614232E+02  0.7816164E-02  0.1320468E+00
        -11   -1    0    0    0    0  0.00000000000E+00  0.00000000000E+00  0.45593999997E+02  0.45594000000E+02  0.51100000000E-03 0. -1.
         11   -1    0    0    0    0 -0.00000000000E+00 -0.00000000000E+00 -0.45593999997E+02  0.45594000000E+02  0.51100000000E-03 0.  1.
    9900012    2    1    2    0    0  0.33058828160E+02  0.25528662066E+02  0.16867571044E+02  0.46142315866E+02  0.99999827202E+01 0.  0.
        -12    1    1    2    0    0 -0.33058828160E+02 -0.25528662066E+02 -0.16867571044E+02  0.45045684134E+02  0.00000000000E+00 0.  1.
         11    1    3    3    0    0  0.47687847294E+01  0.19333142226E+01  0.14252518583E+01  0.53395088537E+01  0.51100000000E-03 0. -1.
        -11    1    3    3    0    0  0.25814570055E+02  0.21446340433E+02  0.11073006438E+02  0.35340472789E+02  0.51100000000E-03 0.  1.
        -12    1    3    3    0    0  0.24754733756E+01  0.21490074098E+01  0.43693127483E+01  0.54623342239E+01  0.00000000000E+00 0.  1.
</event>
<event>
 7    1  0.4194672E-008  0.4614233E+02  0.7816164E-02  0.1320468E+00
        -11   -1    0    0    0    0  0.00000000000E+00  0.00000000000E+00  0.45593999997E+02  0.45594000000E+02  0.51100000000E-03 0. -1.
         11   -1    0    0    0    0 -0.00000000000E+00 -0.00000000000E+00 -0.45593999997E+02  0.45594000000E+02  0.51100000000E-03 0.  1.
    9900012    2    1    2    0    0  0.34796490317E+02  0.26203266815E+02 -0.11476315748E+02  0.46142325920E+02  0.10000074397E+02 0.  0.
        -12    1    1    2    0    0 -0.34796490317E+02 -0.26203266815E+02  0.11476315748E+02  0.45045674080E+02  0.00000000000E+00 0.  1.
         11    1    3    3    0    0  0.22055620470E+02  0.18574613875E+02 -0.71939469440E+01  0.29719009873E+02  0.51100000000E-03 0. -1.
        -11    1    3    3    0    0  0.66297166527E+01  0.18061429626E+01 -0.40566526747E+01  0.79794565279E+01  0.51100000000E-03 0.  1.
        -12    1    3    3    0    0  0.61111531942E+01  0.58225099774E+01 -0.22571612959E+00  0.84438595187E+01  0.00000000000E+00 0.  1.
</event>
<event>
 7    1  0.4194672E-008  0.4614232E+02  0.7816164E-02  0.1320468E+00
        -11   -1    0    0    0    0  0.00000000000E+00  0.00000000000E+00  0.45593999997E+02  0.45594000000E+02  0.51100000000E-03 0. -1.
         11   -1    0    0    0    0 -0.00000000000E+00 -0.00000000000E+00 -0.45593999997E+02  0.45594000000E+02  0.51100000000E-03 0.  1.
    9900012    2    1    2    0    0  0.26851842827E+02 -0.81070579727E+01  0.35247236255E+02  0.46142317457E+02  0.99999972253E+01 0.  0.
        -12    1    1    2    0    0 -0.26851842827E+02  0.81070579727E+01 -0.35247236255E+02  0.45045682543E+02  0.00000000000E+00 0.  1.
         11    1    3    3    0    0  0.98205797675E+01 -0.36293520308E+00  0.13459357022E+02  0.16665227290E+02  0.51100000000E-03 0. -1.
        -11    1    3    3    0    0  0.72729359498E+01 -0.59776167556E+00  0.52571555132E+01  0.89939202077E+01  0.51100000000E-03 0.  1.
        -12    1    3    3    0    0  0.97583271093E+01 -0.71463610940E+01  0.16530723720E+02  0.20483169959E+02  0.00000000000E+00 0.  1.
</event>
<event>
 7    1  0.4194672E-008  0.4614232E+02  0.7816164E-02  0.1320468E+00
        -11   -1    0    0    0    0  0.00000000000E+00  0.00000000000E+00  0.45593999997E+02  0.45594000000E+02  0.51100000000E-03 0.  1.
         11   -1    0    0    0    0 -0.00000000000E+00 -0.00000000000E+00 -0.45593999997E+02  0.45594000000E+02  0.51100000000E-03 0. -1.
    9900012    2    1    2    0    0  0.69825896920E+00 -0.19496366028E+02 -0.40601941203E+02  0.46142317817E+02  0.10000000512E+02 0.  0.
        -12    1    1    2    0    0 -0.69825896920E+00  0.19496366028E+02  0.40601941203E+02  0.45045682183E+02  0.00000000000E+00 0.  1.
         11    1    3    3    0    0  0.66168211131E+00 -0.88541908024E+01 -0.21547752420E+02  0.23305367464E+02  0.51100000000E-03 0. -1.
        -11    1    3    3    0    0  0.31557823242E+01 -0.48336284248E+01 -0.11050305338E+02  0.12467244048E+02  0.51100000000E-03 0.  1.
        -12    1    3    3    0    0 -0.31192054663E+01 -0.58085468009E+01 -0.80038834438E+01  0.10369706305E+02  0.00000000000E+00 0.  1.
</event>
<event>
 7    1  0.4194672E-008  0.4614232E+02  0.7816164E-02  0.1320468E+00
        -11   -1    0    0    0    0  0.00000000000E+00  0.00000000000E+00  0.45593999997E+02  0.45594000000E+02  0.51100000000E-03 0.  1.
         11   -1    0    0    0    0 -0.00000000000E+00 -0.00000000000E+00 -0.45593999997E+02  0.45594000000E+02  0.51100000000E-03 0. -1.
    9900012    2    1    2    0    0  0.22564804899E+02 -0.26242464336E+02 -0.28831859901E+02  0.46142317633E+02  0.99999988301E+01 0.  0.
        -12    1    1    2    0    0 -0.22564804899E+02  0.26242464336E+02  0.28831859901E+02  0.45045682367E+02  0.00000000000E+00 0.  1.
         11    1    3    3    0    0  0.12171109244E+02 -0.20675127402E+02 -0.17485098097E+02  0.29687125981E+02  0.51100000000E-03 0.  1.
        -11    1    3    3    0    0  0.82856705669E+01 -0.50866573783E+01 -0.87911549359E+01  0.13107662850E+02  0.51100000000E-03 0. -1.
        -12    1    3    3    0    0  0.21080250883E+01 -0.48067955560E+00 -0.25556068686E+01  0.33475288012E+01  0.00000000000E+00 0.  1.
</event>
<event>
 7    1  0.4194672E-008  0.4614232E+02  0.7816164E-02  0.1320468E+00
        -11   -1    0    0    0    0  0.00000000000E+00  0.00000000000E+00  0.45593999997E+02  0.45594000000E+02  0.51100000000E-03 0.  1.
         11   -1    0    0    0    0 -0.00000000000E+00 -0.00000000000E+00 -0.45593999997E+02  0.45594000000E+02  0.51100000000E-03 0. -1.
    9900012    2    1    2    0    0  0.32846054252E+02  0.12386809962E+02 -0.28227948315E+02  0.46142318664E+02  0.10000008231E+02 0.  0.
        -12    1    1    2    0    0 -0.32846054252E+02 -0.12386809962E+02  0.28227948315E+02  0.45045681336E+02  0.00000000000E+00 0.  1.
         11    1    3    3    0    0  0.16296071915E+02  0.61584793907E+01 -0.16983977682E+02  0.24329906009E+02  0.51100000000E-03 0. -1.
        -11    1    3    3    0    0  0.15532225001E+02  0.72783049394E+01 -0.97892108070E+01  0.19749743916E+02  0.51100000000E-03 0.  1.
         12    1    3    3    0    0  0.10177573358E+01 -0.10499743687E+01 -0.14547598266E+01  0.20626687380E+01  0.00000000000E+00 0. -1.
</event>
<event>
 7    1  0.4194672E-008  0.4614232E+02  0.7816164E-02  0.1320468E+00
        -11   -1    0    0    0    0  0.00000000000E+00  0.00000000000E+00  0.45593999997E+02  0.45594000000E+02  0.51100000000E-03 0.  1.
         11   -1    0    0    0    0 -0.00000000000E+00 -0.00000000000E+00 -0.45593999997E+02  0.45594000000E+02  0.51100000000E-03 0. -1.
    9900012    2    1    2    0    0 -0.21953281889E+02  0.29981354381E+02 -0.25461446621E+02  0.46142318073E+02  0.10000002845E+02 0.  0.
        -12    1    1    2    0    0  0.21953281889E+02 -0.29981354381E+02  0.25461446621E+02  0.45045681927E+02  0.00000000000E+00 0.  1.
         11    1    3    3    0    0 -0.29965342802E+01  0.17297465756E+01 -0.30113506820E+00  0.34730280014E+01  0.51100000000E-03 0. -1.
        -11    1    3    3    0    0 -0.13919665800E+01  0.33024356808E+01 -0.91898367047E+00  0.36997545369E+01  0.51100000000E-03 0.  1.
         12    1    3    3    0    0 -0.17564781029E+02  0.24949172124E+02 -0.24241327882E+02  0.38969535535E+02  0.00000000000E+00 0. -1.
</event>
<event>
 7    1  0.4194672E-008  0.4614232E+02  0.7816164E-02  0.1320468E+00
        -11   -1    0    0    0    0  0.00000000000E+00  0.00000000000E+00  0.45593999997E+02  0.45594000000E+02  0.51100000000E-03 0. -1.
         11   -1    0    0    0    0 -0.00000000000E+00 -0.00000000000E+00 -0.45593999997E+02  0.45594000000E+02  0.51100000000E-03 0.  1.
    9900012    2    1    2    0    0 -0.29135242066E+02 -0.11754874454E+02  0.32281172457E+02  0.46142317644E+02  0.99999989353E+01 0.  0.
        -12    1    1    2    0    0  0.29135242066E+02  0.11754874454E+02 -0.32281172457E+02  0.45045682356E+02  0.00000000000E+00 0.  1.
         11    1    3    3    0    0 -0.41153996965E+01 -0.32583985262E+01  0.33444892341E+01  0.62240890190E+01  0.51100000000E-03 0. -1.
        -11    1    3    3    0    0 -0.71091889516E+01 -0.27332924233E+00  0.40968092642E+01  0.82096968782E+01  0.51100000000E-03 0.  1.
         12    1    3    3    0    0 -0.17910653418E+02 -0.82231466856E+01  0.24839873959E+02  0.31708531747E+02  0.00000000000E+00 0. -1.
</event>
<event>
 7    1  0.4194672E-008  0.4614233E+02  0.7816164E-02  0.1320468E+00
        -11   -1    0    0    0    0  0.00000000000E+00  0.00000000000E+00  0.45593999997E+02  0.45594000000E+02  0.51100000000E-03 0.  1.
         11   -1    0    0    0    0 -0.00000000000E+00 -0.00000000000E+00 -0.45593999997E+02  0.45594000000E+02  0.51100000000E-03 0. -1.
    9900012    2    1    2    0    0  0.34962554681E+02 -0.19343890290E+02 -0.20797749794E+02  0.46142326313E+02  0.10000077986E+02 0.  0.
        -12    1    1    2    0    0 -0.34962554681E+02  0.19343890290E+02  0.20797749794E+02  0.45045673687E+02  0.00000000000E+00 0.  1.
         11    1    3    3    0    0  0.18503694874E+02 -0.13217336031E+02 -0.14934736267E+02  0.27205349535E+02  0.51100000000E-03 0. -1.
        -11    1    3    3    0    0  0.14244194550E+02 -0.50438204738E+01 -0.64061625093E+01  0.16412681734E+02  0.51100000000E-03 0.  1.
         12    1    3    3    0    0  0.22146652574E+01 -0.10827337852E+01  0.54314898143E+00  0.25242950438E+01  0.00000000000E+00 0. -1.
</event>
<event>
 7    1  0.4194672E-008  0.4614232E+02  0.7816164E-02  0.1320468E+00
        -11   -1    0    0    0    0  0.00000000000E+00  0.00000000000E+00  0.45593999997E+02  0.45594000000E+02  0.51100000000E-03 0.  1.
         11   -1    0    0    0    0 -0.00000000000E+00 -0.00000000000E+00 -0.45593999997E+02  0.45594000000E+02  0.51100000000E-03 0. -1.
    9900012    2    1    2    0    0 -0.16044235478E+02  0.22633266009E+02 -0.35488467171E+02  0.46142317361E+02  0.99999963508E+01 0.  0.
        -12    1    1    2    0    0  0.16044235478E+02 -0.22633266009E+02  0.35488467171E+02  0.45045682639E+02  0.00000000000E+00 0.  1.
         11    1    3    3    0    0 -0.38009155546E+00  0.95035770003E+00 -0.29543686741E+00  0.10653321324E+01  0.51100000000E-03 0.  1.
        -11    1    3    3    0    0 -0.51486476112E+00  0.67250162456E+01 -0.66797327800E+01  0.94926160514E+01  0.51100000000E-03 0. -1.
         12    1    3    3    0    0 -0.15149279162E+02  0.14957892063E+02 -0.28513297523E+02  0.35584369177E+02  0.00000000000E+00 0. -1.
</event>
<event>
 7    1  0.4194672E-008  0.4614232E+02  0.7816164E-02  0.1320468E+00
        -11   -1    0    0    0    0  0.00000000000E+00  0.00000000000E+00  0.45593999997E+02  0.45594000000E+02  0.51100000000E-03 0.  1.
         11   -1    0    0    0    0 -0.00000000000E+00 -0.00000000000E+00 -0.45593999997E+02  0.45594000000E+02  0.51100000000E-03 0. -1.
    9900012    2    1    2    0    0  0.40968715281E+01 -0.20910483194E+02 -0.39687287744E+02  0.46142317941E+02  0.10000001640E+02 0.  0.
        -12    1    1    2    0    0 -0.40968715281E+01  0.20910483194E+02  0.39687287744E+02  0.45045682059E+02  0.00000000000E+00 0.  1.
         11    1    3    3    0    0  0.55229008833E+01 -0.91027817887E+01 -0.18710619290E+02  0.21527896900E+02  0.51100000000E-03 0. -1.
        -11    1    3    3    0    0  0.31488725381E+00 -0.10530515877E+02 -0.15638596722E+02  0.18856209224E+02  0.51100000000E-03 0.  1.
         12    1    3    3    0    0 -0.17409166090E+01 -0.12771855279E+01 -0.53380717323E+01  0.57582118172E+01  0.00000000000E+00 0. -1.
</event>
<event>
 7    1  0.4194672E-008  0.4614232E+02  0.7816164E-02  0.1320468E+00
        -11   -1    0    0    0    0  0.00000000000E+00  0.00000000000E+00  0.45593999997E+02  0.45594000000E+02  0.51100000000E-03 0.  1.
         11   -1    0    0    0    0 -0.00000000000E+00 -0.00000000000E+00 -0.45593999997E+02  0.45594000000E+02  0.51100000000E-03 0. -1.
    9900012    2    1    2    0    0  0.26054912216E+02 -0.27720487551E+02 -0.24121144141E+02  0.46142317906E+02  0.10000001320E+02 0.  0.
        -12    1    1    2    0    0 -0.26054912216E+02  0.27720487551E+02  0.24121144141E+02  0.45045682094E+02  0.00000000000E+00 0.  1.
         11    1    3    3    0    0  0.55672642048E+00 -0.24138117756E+01 -0.23125196204E+01  0.33888314875E+01  0.51100000000E-03 0.  1.
        -11    1    3    3    0    0  0.59069652443E+01 -0.23558132141E+01 -0.57379725955E+01  0.85654202503E+01  0.51100000000E-03 0. -1.
         12    1    3    3    0    0  0.19591220552E+02 -0.22950862562E+02 -0.16070651925E+02  0.34188066168E+02  0.00000000000E+00 0. -1.
</event>
<event>
 7    1  0.4194672E-008  0.4614232E+02  0.7816164E-02  0.1320468E+00
        -11   -1    0    0    0    0  0.00000000000E+00  0.00000000000E+00  0.45593999997E+02  0.45594000000E+02  0.51100000000E-03 0.  1.
         11   -1    0    0    0    0 -0.00000000000E+00 -0.00000000000E+00 -0.45593999997E+02  0.45594000000E+02  0.51100000000E-03 0. -1.
    9900012    2    1    2    0    0  0.15312473928E+02 -0.14260140531E+02 -0.39890976779E+02  0.46142317697E+02  0.99999994191E+01 0.  0.
        -12    1    1    2    0    0 -0.15312473928E+02  0.14260140531E+02  0.39890976779E+02  0.45045682303E+02  0.00000000000E+00 0.  1.
         11    1    3    3    0    0  0.12092873129E+01 -0.32487317461E+00 -0.73568087958E+01  0.74626104216E+01  0.51100000000E-03 0. -1.
        -11    1    3    3    0    0  0.11540937375E+02 -0.81726069783E+01 -0.26009034918E+02  0.29604976574E+02  0.51100000000E-03 0.  1.
         12    1    3    3    0    0  0.25622492405E+01 -0.57626603780E+01 -0.65251330648E+01  0.90747307021E+01  0.00000000000E+00 0. -1.
</event>
<event>
 7    1  0.4194672E-008  0.4614232E+02  0.7816164E-02  0.1320468E+00
        -11   -1    0    0    0    0  0.00000000000E+00  0.00000000000E+00  0.45593999997E+02  0.45594000000E+02  0.51100000000E-03 0. -1.
         11   -1    0    0    0    0 -0.00000000000E+00 -0.00000000000E+00 -0.45593999997E+02  0.45594000000E+02  0.51100000000E-03 0.  1.
    9900012    2    1    2    0    0 -0.42774244811E+02  0.11375149879E+02  0.83715837644E+01  0.46142317980E+02  0.10000001996E+02 0.  0.
        -12    1    1    2    0    0  0.42774244811E+02 -0.11375149879E+02 -0.83715837644E+01  0.45045682020E+02  0.00000000000E+00 0.  1.
         11    1    3    3    0    0  0.12146833928E-01  0.49029403594E+00 -0.26379473696E+00  0.55688752152E+00  0.51100000000E-03 0. -1.
        -11    1    3    3    0    0 -0.31123834391E+02  0.65640820990E+01  0.30588110544E+01  0.31955227528E+02  0.51100000000E-03 0.  1.
         12    1    3    3    0    0 -0.11662557254E+02  0.43207737443E+01  0.55765674469E+01  0.13630202931E+02  0.00000000000E+00 0. -1.
</event>
<event>
 7    1  0.4194672E-008  0.4614232E+02  0.7816164E-02  0.1320468E+00
        -11   -1    0    0    0    0  0.00000000000E+00  0.00000000000E+00  0.45593999997E+02  0.45594000000E+02  0.51100000000E-03 0.  1.
         11   -1    0    0    0    0 -0.00000000000E+00 -0.00000000000E+00 -0.45593999997E+02  0.45594000000E+02  0.51100000000E-03 0. -1.
    9900012    2    1    2    0    0 -0.53764575925E+01  0.23692892743E+02 -0.37932228038E+02  0.46142318889E+02  0.10000010287E+02 0.  0.
        -12    1    1    2    0    0  0.53764575925E+01 -0.23692892743E+02  0.37932228038E+02  0.45045681111E+02  0.00000000000E+00 0.  1.
         11    1    3    3    0    0  0.32209665928E+00  0.11469812548E+02 -0.14067539830E+02  0.18153677955E+02  0.51100000000E-03 0. -1.
        -11    1    3    3    0    0 -0.46304119697E+01  0.12451674577E+02 -0.23125481103E+02  0.26669697998E+02  0.51100000000E-03 0.  1.
        -12    1    3    3    0    0 -0.10681422821E+01 -0.22859438181E+00 -0.73920710497E+00  0.13189429367E+01  0.00000000000E+00 0.  1.
</event>
<event>
 7    1  0.4194672E-008  0.4614232E+02  0.7816164E-02  0.1320468E+00
        -11   -1    0    0    0    0  0.00000000000E+00  0.00000000000E+00  0.45593999997E+02  0.45594000000E+02  0.51100000000E-03 0.  1.
         11   -1    0    0    0    0 -0.00000000000E+00 -0.00000000000E+00 -0.45593999997E+02  0.45594000000E+02  0.51100000000E-03 0. -1.
    9900012    2    1    2    0    0  0.14852113128E+02 -0.57894519322E+01 -0.42130873154E+02  0.46142317735E+02  0.99999997588E+01 0.  0.
        -12    1    1    2    0    0 -0.14852113128E+02  0.57894519322E+01  0.42130873154E+02  0.45045682265E+02  0.00000000000E+00 0.  1.
         11    1    3    3    0    0  0.18055229716E+01  0.76856006731E+00 -0.38173957891E+01  0.42922148886E+01  0.51100000000E-03 0. -1.
        -11    1    3    3    0    0  0.11330384811E+02 -0.42634231853E+01 -0.20500114264E+02  0.23807752567E+02  0.51100000000E-03 0.  1.
        -12    1    3    3    0    0  0.17162053459E+01 -0.22945888142E+01 -0.17813363101E+02  0.18042350279E+02  0.00000000000E+00 0.  1.
</event>
<event>
 7    1  0.4194672E-008  0.4614232E+02  0.7816164E-02  0.1320468E+00
        -11   -1    0    0    0    0  0.00000000000E+00  0.00000000000E+00  0.45593999997E+02  0.45594000000E+02  0.51100000000E-03 0.  1.
         11   -1    0    0    0    0 -0.00000000000E+00 -0.00000000000E+00 -0.45593999997E+02  0.45594000000E+02  0.51100000000E-03 0. -1.
    9900012    2    1    2    0    0 -0.20223462105E+01  0.37969505821E+02 -0.24152437070E+02  0.46142317933E+02  0.10000001565E+02 0.  0.
        -12    1    1    2    0    0  0.20223462105E+01 -0.37969505821E+02  0.24152437070E+02  0.45045682067E+02  0.00000000000E+00 0.  1.
         11    1    3    3    0    0 -0.23015707212E+01  0.13204989090E+02 -0.66645180057E+01  0.14969461085E+02  0.51100000000E-03 0. -1.
        -11    1    3    3    0    0 -0.87918706866E+00  0.14403350025E+02 -0.59124564991E+01  0.15594441444E+02  0.51100000000E-03 0.  1.
        -12    1    3    3    0    0  0.11584115793E+01  0.10361166706E+02 -0.11575462565E+02  0.15578415404E+02  0.00000000000E+00 0.  1.
</event>
<event>
 7    1  0.4194672E-008  0.4614232E+02  0.7816164E-02  0.1320468E+00
        -11   -1    0    0    0    0  0.00000000000E+00  0.00000000000E+00  0.45593999997E+02  0.45594000000E+02  0.51100000000E-03 0.  1.
         11   -1    0    0    0    0 -0.00000000000E+00 -0.00000000000E+00 -0.45593999997E+02  0.45594000000E+02  0.51100000000E-03 0. -1.
    9900012    2    1    2    0    0 -0.14033123211E+02 -0.41530966873E+02 -0.10361647360E+02  0.46142317716E+02  0.99999995871E+01 0.  0.
        -12    1    1    2    0    0  0.14033123211E+02  0.41530966873E+02  0.10361647360E+02  0.45045682284E+02  0.00000000000E+00 0.  1.
         11    1    3    3    0    0 -0.46261362601E+01 -0.21200374898E+02 -0.41883440957E+01  0.22099756991E+02  0.51100000000E-03 0. -1.
        -11    1    3    3    0    0 -0.60228583699E+00 -0.66206451850E+01 -0.85037749096E-01  0.66485278502E+01  0.51100000000E-03 0.  1.
         12    1    3    3    0    0 -0.88047011135E+01 -0.13709946790E+02 -0.60882655149E+01  0.17394032875E+02  0.00000000000E+00 0. -1.
</event>
<event>
 7    1  0.4194672E-008  0.4614232E+02  0.7816164E-02  0.1320468E+00
        -11   -1    0    0    0    0  0.00000000000E+00  0.00000000000E+00  0.45593999997E+02  0.45594000000E+02  0.51100000000E-03 0.  1.
         11   -1    0    0    0    0 -0.00000000000E+00 -0.00000000000E+00 -0.45593999997E+02  0.45594000000E+02  0.51100000000E-03 0. -1.
    9900012    2    1    2    0    0  0.28579818936E+02 -0.18113503988E+02 -0.29735641434E+02  0.46142318202E+02  0.10000004020E+02 0.  0.
        -12    1    1    2    0    0 -0.28579818936E+02  0.18113503988E+02  0.29735641434E+02  0.45045681798E+02  0.00000000000E+00 0.  1.
         11    1    3    3    0    0  0.56694280568E+01 -0.47143241993E+01 -0.76376786148E+01  0.10616091655E+02  0.51100000000E-03 0. -1.
        -11    1    3    3    0    0  0.60335438168E+01 -0.78722640875E+01 -0.62435748649E+01  0.11720000862E+02  0.51100000000E-03 0.  1.
         12    1    3    3    0    0  0.16876847062E+02 -0.55269157017E+01 -0.15854387955E+02  0.23806225685E+02  0.00000000000E+00 0. -1.
</event>
<event>
 7    1  0.4194672E-008  0.4614232E+02  0.7816164E-02  0.1320468E+00
        -11   -1    0    0    0    0  0.00000000000E+00  0.00000000000E+00  0.45593999997E+02  0.45594000000E+02  0.51100000000E-03 0. -1.
         11   -1    0    0    0    0 -0.00000000000E+00 -0.00000000000E+00 -0.45593999997E+02  0.45594000000E+02  0.51100000000E-03 0.  1.
    9900012    2    1    2    0    0  0.10306849433E+02 -0.43422247672E+02  0.61148166212E+01  0.46142315185E+02  0.99999765108E+01 0.  0.
        -12    1    1    2    0    0 -0.10306849433E+02  0.43422247672E+02 -0.61148166212E+01  0.45045684815E+02  0.00000000000E+00 0.  1.
         11    1    3    3    0    0  0.65197139460E+00 -0.48220959716E+01  0.92776158222E-01  0.48668556518E+01  0.51100000000E-03 0. -1.
        -11    1    3    3    0    0  0.57900113224E+01 -0.20298578653E+02 -0.13930306061E+01  0.21154126334E+02  0.51100000000E-03 0.  1.
        -12    1    3    3    0    0  0.38648667160E+01 -0.18301573048E+02  0.74150710691E+01  0.20121333199E+02  0.00000000000E+00 0.  1.
</event>
<event>
 7    1  0.4194672E-008  0.4614232E+02  0.7816164E-02  0.1320468E+00
        -11   -1    0    0    0    0  0.00000000000E+00  0.00000000000E+00  0.45593999997E+02  0.45594000000E+02  0.51100000000E-03 0.  1.
         11   -1    0    0    0    0 -0.00000000000E+00 -0.00000000000E+00 -0.45593999997E+02  0.45594000000E+02  0.51100000000E-03 0. -1.
    9900012    2    1    2    0    0 -0.32185985771E+02  0.26605839475E+02 -0.16890977077E+02  0.46142317845E+02  0.10000000761E+02 0.  0.
        -12    1    1    2    0    0  0.32185985771E+02 -0.26605839475E+02  0.16890977077E+02  0.45045682155E+02  0.00000000000E+00 0.  1.
         11    1    3    3    0    0 -0.17698180410E+02  0.17449803173E+02 -0.76540201339E+01  0.26005869435E+02  0.51100000000E-03 0. -1.
        -11    1    3    3    0    0 -0.96469642375E+00  0.12961598593E+01  0.52483472320E+00  0.16988588284E+01  0.51100000000E-03 0.  1.
         12    1    3    3    0    0 -0.13523108937E+02  0.78598764431E+01 -0.97617916666E+01  0.18437589581E+02  0.00000000000E+00 0. -1.
</event>
<event>
 7    1  0.4194672E-008  0.4614232E+02  0.7816164E-02  0.1320468E+00
        -11   -1    0    0    0    0  0.00000000000E+00  0.00000000000E+00  0.45593999997E+02  0.45594000000E+02  0.51100000000E-03 0. -1.
         11   -1    0    0    0    0 -0.00000000000E+00 -0.00000000000E+00 -0.45593999997E+02  0.45594000000E+02  0.51100000000E-03 0.  1.
    9900012    2    1    2    0    0 -0.24423355975E+02 -0.26817758949E+01  0.37754750805E+02  0.46142318216E+02  0.10000004147E+02 0.  0.
        -12    1    1    2    0    0  0.24423355975E+02  0.26817758949E+01 -0.37754750805E+02  0.45045681784E+02  0.00000000000E+00 0.  1.
         11    1    3    3    0    0 -0.26884543970E+01  0.14033791351E+01  0.73672194321E+01  0.79670058656E+01  0.51100000000E-03 0. -1.
        -11    1    3    3    0    0 -0.38066363938E+01  0.17432088610E+01  0.44426771179E+01  0.61046406940E+01  0.51100000000E-03 0.  1.
         12    1    3    3    0    0 -0.17928265184E+02 -0.58283638910E+01  0.25944854255E+02  0.32070671656E+02  0.00000000000E+00 0. -1.
</event>
<event>
 7    1  0.4194672E-008  0.4614232E+02  0.7816164E-02  0.1320468E+00
        -11   -1    0    0    0    0  0.00000000000E+00  0.00000000000E+00  0.45593999997E+02  0.45594000000E+02  0.51100000000E-03 0.  1.
         11   -1    0    0    0    0 -0.00000000000E+00 -0.00000000000E+00 -0.45593999997E+02  0.45594000000E+02  0.51100000000E-03 0. -1.
    9900012    2    1    2    0    0  0.41925720358E+02  0.11514903140E+02 -0.11779415282E+02  0.46142316008E+02  0.99999840181E+01 0.  0.
        -12    1    1    2    0    0 -0.41925720358E+02 -0.11514903140E+02  0.11779415282E+02  0.45045683992E+02  0.00000000000E+00 0.  1.
         11    1    3    3    0    0  0.30945558918E+02  0.95964024085E+01 -0.11481879182E+02  0.34373712423E+02  0.51100000000E-03 0. -1.
        -11    1    3    3    0    0  0.90309893707E+01  0.24629214913E+01 -0.13985633480E+01  0.94647097676E+01  0.51100000000E-03 0.  1.
         12    1    3    3    0    0  0.19491720696E+01 -0.54442076005E+00  0.11010272485E+01  0.23038938176E+01  0.00000000000E+00 0. -1.
</event>
<event>
 7    1  0.4194672E-008  0.4614232E+02  0.7816164E-02  0.1320468E+00
        -11   -1    0    0    0    0  0.00000000000E+00  0.00000000000E+00  0.45593999997E+02  0.45594000000E+02  0.51100000000E-03 0. -1.
         11   -1    0    0    0    0 -0.00000000000E+00 -0.00000000000E+00 -0.45593999997E+02  0.45594000000E+02  0.51100000000E-03 0.  1.
    9900012    2    1    2    0    0 -0.13451548793E+02  0.41507985452E+02  0.11191796690E+02  0.46142319470E+02  0.10000015586E+02 0.  0.
        -12    1    1    2    0    0  0.13451548793E+02 -0.41507985452E+02 -0.11191796690E+02  0.45045680530E+02  0.00000000000E+00 0.  1.
         11    1    3    3    0    0 -0.10999782445E+01  0.11947516604E+02  0.51881473714E+01  0.13071724391E+02  0.51100000000E-03 0. -1.
        -11    1    3    3    0    0 -0.67770903203E+01  0.18649135765E+02  0.62867839020E+01  0.20814487024E+02  0.51100000000E-03 0.  1.
        -12    1    3    3    0    0 -0.55744802282E+01  0.10911333083E+02 -0.28313458369E+00  0.12256108055E+02  0.00000000000E+00 0.  1.
</event>
<event>
 7    1  0.4194672E-008  0.4614232E+02  0.7816164E-02  0.1320468E+00
        -11   -1    0    0    0    0  0.00000000000E+00  0.00000000000E+00  0.45593999997E+02  0.45594000000E+02  0.51100000000E-03 0. -1.
         11   -1    0    0    0    0 -0.00000000000E+00 -0.00000000000E+00 -0.45593999997E+02  0.45594000000E+02  0.51100000000E-03 0.  1.
    9900012    2    1    2    0    0 -0.16014642499E+02 -0.49820049654E+01  0.41806988752E+02  0.46142318116E+02  0.10000003238E+02 0.  0.
        -12    1    1    2    0    0  0.16014642499E+02  0.49820049654E+01 -0.41806988752E+02  0.45045681884E+02  0.00000000000E+00 0.  1.
         11    1    3    3    0    0 -0.10549664732E+02 -0.42893419319E+00  0.20037963122E+02  0.22649489549E+02  0.51100000000E-03 0. -1.
        -11    1    3    3    0    0  0.84165097741E-01  0.59623162224E+00  0.56796681730E+01  0.57114977657E+01  0.51100000000E-03 0.  1.
         12    1    3    3    0    0 -0.55491428652E+01 -0.51493023944E+01  0.16089357457E+02  0.17781330801E+02  0.00000000000E+00 0. -1.
</event>
<event>
 7    1  0.4194672E-008  0.4614232E+02  0.7816164E-02  0.1320468E+00
        -11   -1    0    0    0    0  0.00000000000E+00  0.00000000000E+00  0.45593999997E+02  0.45594000000E+02  0.51100000000E-03 0.  1.
         11   -1    0    0    0    0 -0.00000000000E+00 -0.00000000000E+00 -0.45593999997E+02  0.45594000000E+02  0.51100000000E-03 0. -1.
    9900012    2    1    2    0    0 -0.27066172065E+02 -0.11501694629E+02 -0.34121060759E+02  0.46142318332E+02  0.10000005204E+02 0.  0.
        -12    1    1    2    0    0  0.27066172065E+02  0.11501694629E+02  0.34121060759E+02  0.45045681668E+02  0.00000000000E+00 0.  1.
         11    1    3    3    0    0 -0.22759483540E+02 -0.72275629603E+01 -0.27240410288E+02  0.36225291031E+02  0.51100000000E-03 0. -1.
        -11    1    3    3    0    0 -0.16198450402E+01 -0.44161921372E+00 -0.42001499791E+01  0.45232936663E+01  0.51100000000E-03 0.  1.
        -12    1    3    3    0    0 -0.26868434847E+01 -0.38325124553E+01 -0.26805004926E+01  0.53937336347E+01  0.00000000000E+00 0.  1.
</event>
<event>
 7    1  0.4880774E-008  0.4614232E+02  0.7816164E-02  0.1320468E+00
        -11   -1    0    0    0    0  0.00000000000E+00  0.00000000000E+00  0.45593999997E+02  0.45594000000E+02  0.51100000000E-03 0. -1.
         11   -1    0    0    0    0 -0.00000000000E+00 -0.00000000000E+00 -0.45593999997E+02  0.45594000000E+02  0.51100000000E-03 0.  1.
    9900012    2    1    2    0    0 -0.35095390312E+02 -0.24385260660E+02  0.14240298436E+02  0.46142318097E+02  0.10000003059E+02 0.  0.
        -12    1    1    2    0    0  0.35095390312E+02  0.24385260660E+02 -0.14240298436E+02  0.45045681903E+02  0.00000000000E+00 0.  1.
         11    1    3    3    0    0 -0.19843921685E+02 -0.15477826179E+02  0.69573507695E+01  0.26110324798E+02  0.51100000000E-03 0. -1.
        -11    1    3    3    0    0 -0.68336876930E+01 -0.74245672053E+01  0.34466417119E+01  0.10663152678E+02  0.51100000000E-03 0.  1.
        -12    1    3    3    0    0 -0.84177809339E+01 -0.14828672760E+01  0.38363059541E+01  0.93688406211E+01  0.00000000000E+00 0.  1.
</event>
<event>
 7    1  0.4194672E-008  0.4614232E+02  0.7816164E-02  0.1320468E+00
        -11   -1    0    0    0    0  0.00000000000E+00  0.00000000000E+00  0.45593999997E+02  0.45594000000E+02  0.51100000000E-03 0.  1.
         11   -1    0    0    0    0 -0.00000000000E+00 -0.00000000000E+00 -0.45593999997E+02  0.45594000000E+02  0.51100000000E-03 0. -1.
    9900012    2    1    2    0    0 -0.36552931409E+02 -0.25907497973E+02 -0.46688537130E+01  0.46142318289E+02  0.10000004813E+02 0.  0.
        -12    1    1    2    0    0  0.36552931409E+02  0.25907497973E+02  0.46688537130E+01  0.45045681711E+02  0.00000000000E+00 0.  1.
         11    1    3    3    0    0 -0.20675691892E+02 -0.16219111607E+02 -0.33018913831E+01  0.26484831574E+02  0.51100000000E-03 0. -1.
        -11    1    3    3    0    0 -0.43638716760E+01 -0.11055146880E+01 -0.26767247453E+01  0.52374033980E+01  0.51100000000E-03 0.  1.
        -12    1    3    3    0    0 -0.11513367842E+02 -0.85828716775E+01  0.13097624154E+01  0.14420083317E+02  0.00000000000E+00 0.  1.
</event>
<event>
 7    1  0.4194672E-008  0.4614232E+02  0.7816164E-02  0.1320468E+00
        -11   -1    0    0    0    0  0.00000000000E+00  0.00000000000E+00  0.45593999997E+02  0.45594000000E+02  0.51100000000E-03 0.  1.
         11   -1    0    0    0    0 -0.00000000000E+00 -0.00000000000E+00 -0.45593999997E+02  0.45594000000E+02  0.51100000000E-03 0. -1.
    9900012    2    1    2    0    0  0.39613113522E+00 -0.13483828304E+02 -0.42978401002E+02  0.46142317651E+02  0.99999989929E+01 0.  0.
        -12    1    1    2    0    0 -0.39613113522E+00  0.13483828304E+02  0.42978401002E+02  0.45045682349E+02  0.00000000000E+00 0.  1.
         11    1    3    3    0    0 -0.16445367073E+01 -0.12154203318E+00 -0.14023764821E+01  0.21647017130E+01  0.51100000000E-03 0.  1.
        -11    1    3    3    0    0  0.88962287358E+00 -0.10662022008E+02 -0.25793607101E+02  0.27924546723E+02  0.51100000000E-03 0. -1.
         12    1    3    3    0    0  0.11510449689E+01 -0.27002642624E+01 -0.15782417419E+02  0.16053069214E+02  0.00000000000E+00 0. -1.
</event>
<event>
 7    1  0.4194672E-008  0.4614232E+02  0.7816164E-02  0.1320468E+00
        -11   -1    0    0    0    0  0.00000000000E+00  0.00000000000E+00  0.45593999997E+02  0.45594000000E+02  0.51100000000E-03 0. -1.
         11   -1    0    0    0    0 -0.00000000000E+00 -0.00000000000E+00 -0.45593999997E+02  0.45594000000E+02  0.51100000000E-03 0.  1.
    9900012    2    1    2    0    0  0.35195824433E+02  0.27346091865E+02  0.65237010249E+01  0.46142317933E+02  0.10000001563E+02 0.  0.
        -12    1    1    2    0    0 -0.35195824433E+02 -0.27346091865E+02 -0.65237010249E+01  0.45045682067E+02  0.00000000000E+00 0.  1.
         11    1    3    3    0    0  0.18486193183E+02  0.12033218285E+02  0.35964191876E+01  0.22348868247E+02  0.51100000000E-03 0. -1.
        -11    1    3    3    0    0  0.86785454944E+01  0.60388049123E+01  0.43709225973E+01  0.11440685350E+02  0.51100000000E-03 0.  1.
         12    1    3    3    0    0  0.80310857566E+01  0.92740686681E+01 -0.14436407599E+01  0.12352764336E+02  0.00000000000E+00 0. -1.
</event>
<event>
 7    1  0.4194672E-008  0.4614232E+02  0.7816164E-02  0.1320468E+00
        -11   -1    0    0    0    0  0.00000000000E+00  0.00000000000E+00  0.45593999997E+02  0.45594000000E+02  0.51100000000E-03 0.  1.
         11   -1    0    0    0    0 -0.00000000000E+00 -0.00000000000E+00 -0.45593999997E+02  0.45594000000E+02  0.51100000000E-03 0. -1.
    9900012    2    1    2    0    0 -0.20403405891E+02  0.11223673633E+02 -0.38559611651E+02  0.46142317938E+02  0.10000001610E+02 0.  0.
        -12    1    1    2    0    0  0.20403405891E+02 -0.11223673633E+02  0.38559611651E+02  0.45045682062E+02  0.00000000000E+00 0.  1.
         11    1    3    3    0    0 -0.15027785404E+02  0.41039371129E+01 -0.20796170124E+02  0.25983789678E+02  0.51100000000E-03 0. -1.
        -11    1    3    3    0    0 -0.27166099296E+01  0.22685911327E+01 -0.10135744167E+02  0.10735911015E+02  0.51100000000E-03 0.  1.
        -12    1    3    3    0    0 -0.26590105578E+01  0.48511453878E+01 -0.76276973604E+01  0.94226172448E+01  0.00000000000E+00 0.  1.
</event>
<event>
 7    1  0.4194672E-008  0.4614232E+02  0.7816164E-02  0.1320468E+00
        -11   -1    0    0    0    0  0.00000000000E+00  0.00000000000E+00  0.45593999997E+02  0.45594000000E+02  0.51100000000E-03 0. -1.
         11   -1    0    0    0    0 -0.00000000000E+00 -0.00000000000E+00 -0.45593999997E+02  0.45594000000E+02  0.51100000000E-03 0.  1.
    9900012    2    1    2    0    0  0.33187434747E+02  0.24529713588E+02  0.18055492312E+02  0.46142317894E+02  0.10000001213E+02 0.  0.
        -12    1    1    2    0    0 -0.33187434747E+02 -0.24529713588E+02 -0.18055492312E+02  0.45045682106E+02  0.00000000000E+00 0.  1.
         11    1    3    3    0    0  0.36700667161E+01  0.44342119251E+01  0.36281523866E+01  0.68040513740E+01  0.51100000000E-03 0. -1.
        -11    1    3    3    0    0  0.22480715866E+02  0.19062084575E+02  0.11993585981E+02  0.31821246976E+02  0.51100000000E-03 0.  1.
        -12    1    3    3    0    0  0.70366521651E+01  0.10334170881E+01  0.24337539441E+01  0.75170195444E+01  0.00000000000E+00 0.  1.
</event>
<event>
 7    1  0.4194672E-008  0.4614232E+02  0.7816164E-02  0.1320468E+00
        -11   -1    0    0    0    0  0.00000000000E+00  0.00000000000E+00  0.45593999997E+02  0.45594000000E+02  0.51100000000E-03 0.  1.
         11   -1    0    0    0    0 -0.00000000000E+00 -0.00000000000E+00 -0.45593999997E+02  0.45594000000E+02  0.51100000000E-03 0. -1.
    9900012    2    1    2    0    0  0.14522273689E+02 -0.16043483902E+02 -0.39507261508E+02  0.46142317403E+02  0.99999967338E+01 0.  0.
        -12    1    1    2    0    0 -0.14522273689E+02  0.16043483902E+02  0.39507261508E+02  0.45045682597E+02  0.00000000000E+00 0.  1.
         11    1    3    3    0    0  0.65188330876E+01 -0.73490049163E+01 -0.27802330340E+02  0.29486821305E+02  0.51100000000E-03 0. -1.
        -11    1    3    3    0    0  0.58405783162E+01 -0.68510616903E+01 -0.90893134622E+01  0.12793163050E+02  0.51100000000E-03 0.  1.
         12    1    3    3    0    0  0.21628622855E+01 -0.18434172951E+01 -0.26156177049E+01  0.38623330473E+01  0.00000000000E+00 0. -1.
</event>
<event>
 7    1  0.4194672E-008  0.4614231E+02  0.7816164E-02  0.1320468E+00
        -11   -1    0    0    0    0  0.00000000000E+00  0.00000000000E+00  0.45593999997E+02  0.45594000000E+02  0.51100000000E-03 0.  1.
         11   -1    0    0    0    0 -0.00000000000E+00 -0.00000000000E+00 -0.45593999997E+02  0.45594000000E+02  0.51100000000E-03 0. -1.
    9900012    2    1    2    0    0 -0.20469884132E+02  0.41439299479E+01 -0.39911479653E+02  0.46142306312E+02  0.99998955970E+01 0.  0.
        -12    1    1    2    0    0  0.20469884132E+02 -0.41439299479E+01  0.39911479653E+02  0.45045693688E+02  0.00000000000E+00 0.  1.
         11    1    3    3    0    0 -0.10416724125E+02  0.42074837545E+01 -0.19704855245E+02  0.22682424508E+02  0.51100000000E-03 0. -1.
        -11    1    3    3    0    0 -0.70820738045E+01  0.66055801812E+00 -0.72857532544E+01  0.10182058093E+02  0.51100000000E-03 0.  1.
         12    1    3    3    0    0 -0.29710862018E+01 -0.72411182475E+00 -0.12920871153E+02  0.13277823711E+02  0.00000000000E+00 0. -1.
</event>
<event>
 7    1  0.4194672E-008  0.4614232E+02  0.7816164E-02  0.1320468E+00
        -11   -1    0    0    0    0  0.00000000000E+00  0.00000000000E+00  0.45593999997E+02  0.45594000000E+02  0.51100000000E-03 0. -1.
         11   -1    0    0    0    0 -0.00000000000E+00 -0.00000000000E+00 -0.45593999997E+02  0.45594000000E+02  0.51100000000E-03 0.  1.
    9900012    2    1    2    0    0 -0.13864103665E+02  0.32589518144E+02  0.27835650877E+02  0.46142317376E+02  0.99999964898E+01 0.  0.
        -12    1    1    2    0    0  0.13864103665E+02 -0.32589518144E+02 -0.27835650877E+02  0.45045682624E+02  0.00000000000E+00 0.  1.
         11    1    3    3    0    0 -0.27510014088E+01  0.12150332725E+02  0.10925264953E+02  0.16569852402E+02  0.51100000000E-03 0. -1.
        -11    1    3    3    0    0  0.21911660710E+00  0.11042367248E+00 -0.46649625744E+00  0.52709059399E+00  0.51100000000E-03 0.  1.
        -12    1    3    3    0    0 -0.11332218863E+02  0.20328761746E+02  0.17376882181E+02  0.29045374380E+02  0.00000000000E+00 0.  1.
</event>
<event>
 7    1  0.4194672E-008  0.4614232E+02  0.7816164E-02  0.1320468E+00
        -11   -1    0    0    0    0  0.00000000000E+00  0.00000000000E+00  0.45593999997E+02  0.45594000000E+02  0.51100000000E-03 0.  1.
         11   -1    0    0    0    0 -0.00000000000E+00 -0.00000000000E+00 -0.45593999997E+02  0.45594000000E+02  0.51100000000E-03 0. -1.
    9900012    2    1    2    0    0 -0.37133884165E+02 -0.41169306224E+01 -0.25164234458E+02  0.46142321331E+02  0.10000032554E+02 0.  0.
        -12    1    1    2    0    0  0.37133884165E+02  0.41169306224E+01  0.25164234458E+02  0.45045678669E+02  0.00000000000E+00 0.  1.
         11    1    3    3    0    0 -0.83218426555E+01 -0.34922185733E+01 -0.97997428525E+01  0.13322297699E+02  0.51100000000E-03 0. -1.
        -11    1    3    3    0    0 -0.47852344852E+01  0.46168191487E+00 -0.13934898311E+01  0.50053404918E+01  0.51100000000E-03 0.  1.
        -12    1    3    3    0    0 -0.24026807024E+02 -0.10863939639E+01 -0.13971001774E+02  0.27814683140E+02  0.00000000000E+00 0.  1.
</event>
<event>
 7    1  0.4194672E-008  0.4614232E+02  0.7816164E-02  0.1320468E+00
        -11   -1    0    0    0    0  0.00000000000E+00  0.00000000000E+00  0.45593999997E+02  0.45594000000E+02  0.51100000000E-03 0.  1.
         11   -1    0    0    0    0 -0.00000000000E+00 -0.00000000000E+00 -0.45593999997E+02  0.45594000000E+02  0.51100000000E-03 0. -1.
    9900012    2    1    2    0    0 -0.79380538054E+01  0.26245729732E+02 -0.35738809022E+02  0.46142317658E+02  0.99999990553E+01 0.  0.
        -12    1    1    2    0    0  0.79380538054E+01 -0.26245729732E+02  0.35738809022E+02  0.45045682342E+02  0.00000000000E+00 0.  1.
         11    1    3    3    0    0 -0.60195795686E+01  0.18361444888E+02 -0.17614194987E+02  0.26146469395E+02  0.51100000000E-03 0. -1.
        -11    1    3    3    0    0 -0.11570661561E+01  0.38689048156E+01 -0.62831833992E+01  0.74689772025E+01  0.51100000000E-03 0.  1.
        -12    1    3    3    0    0 -0.76140808073E+00  0.40153800289E+01 -0.11841430636E+02  0.12526871060E+02  0.00000000000E+00 0.  1.
</event>
<event>
 7    1  0.4194672E-008  0.4614232E+02  0.7816164E-02  0.1320468E+00
        -11   -1    0    0    0    0  0.00000000000E+00  0.00000000000E+00  0.45593999997E+02  0.45594000000E+02  0.51100000000E-03 0.  1.
         11   -1    0    0    0    0 -0.00000000000E+00 -0.00000000000E+00 -0.45593999997E+02  0.45594000000E+02  0.51100000000E-03 0. -1.
    9900012    2    1    2    0    0  0.15019462697E+02 -0.35339672791E+02 -0.23550726363E+02  0.46142318244E+02  0.10000004401E+02 0.  0.
        -12    1    1    2    0    0 -0.15019462697E+02  0.35339672791E+02  0.23550726363E+02  0.45045681756E+02  0.00000000000E+00 0.  1.
         11    1    3    3    0    0  0.60365317148E+01 -0.18514306813E+02 -0.15413524744E+02  0.24835378338E+02  0.51100000000E-03 0. -1.
        -11    1    3    3    0    0  0.47835368744E+01 -0.13538379209E+02 -0.58688059352E+01  0.15511699456E+02  0.51100000000E-03 0.  1.
        -12    1    3    3    0    0  0.41993941081E+01 -0.32869867681E+01 -0.22683956841E+01  0.57952404495E+01  0.00000000000E+00 0.  1.
</event>
<event>
 7    1  0.4194672E-008  0.4614232E+02  0.7816164E-02  0.1320468E+00
        -11   -1    0    0    0    0  0.00000000000E+00  0.00000000000E+00  0.45593999997E+02  0.45594000000E+02  0.51100000000E-03 0. -1.
         11   -1    0    0    0    0 -0.00000000000E+00 -0.00000000000E+00 -0.45593999997E+02  0.45594000000E+02  0.51100000000E-03 0.  1.
    9900012    2    1    2    0    0 -0.16408811675E+02 -0.49123226121E+01  0.41662133988E+02  0.46142318493E+02  0.10000006673E+02 0.  0.
        -12    1    1    2    0    0  0.16408811675E+02  0.49123226121E+01 -0.41662133988E+02  0.45045681507E+02  0.00000000000E+00 0.  1.
         11    1    3    3    0    0 -0.34792662123E+01  0.39428919307E+00  0.15511456548E+02  0.15901762224E+02  0.51100000000E-03 0. -1.
        -11    1    3    3    0    0 -0.15614464062E+00 -0.83035278447E+00  0.58771986441E-01  0.84694822922E+00  0.51100000000E-03 0.  1.
        -12    1    3    3    0    0 -0.12773400822E+02 -0.44762590207E+01  0.26091905454E+02  0.29393608039E+02  0.00000000000E+00 0.  1.
</event>
<event>
 7    1  0.4194672E-008  0.4614232E+02  0.7816164E-02  0.1320468E+00
        -11   -1    0    0    0    0  0.00000000000E+00  0.00000000000E+00  0.45593999997E+02  0.45594000000E+02  0.51100000000E-03 0.  1.
         11   -1    0    0    0    0 -0.00000000000E+00 -0.00000000000E+00 -0.45593999997E+02  0.45594000000E+02  0.51100000000E-03 0. -1.
    9900012    2    1    2    0    0  0.10306674999E+02  0.26418802438E+02 -0.34999040142E+02  0.46142317825E+02  0.10000000579E+02 0.  0.
        -12    1    1    2    0    0 -0.10306674999E+02 -0.26418802438E+02  0.34999040142E+02  0.45045682175E+02  0.00000000000E+00 0.  1.
         11    1    3    3    0    0  0.14248591359E+01  0.55996322438E+01 -0.10878474940E+02  0.12317764493E+02  0.51100000000E-03 0. -1.
        -11    1    3    3    0    0 -0.12100035204E+00  0.69566839595E+01 -0.93685978500E+01  0.11669649469E+02  0.51100000000E-03 0.  1.
        -12    1    3    3    0    0  0.90028162151E+01  0.13862486234E+02 -0.14751967353E+02  0.22154903863E+02  0.00000000000E+00 0.  1.
</event>
<event>
 7    1  0.5164065E-008  0.4614232E+02  0.7816164E-02  0.1320468E+00
        -11   -1    0    0    0    0  0.00000000000E+00  0.00000000000E+00  0.45593999997E+02  0.45594000000E+02  0.51100000000E-03 0.  1.
         11   -1    0    0    0    0 -0.00000000000E+00 -0.00000000000E+00 -0.45593999997E+02  0.45594000000E+02  0.51100000000E-03 0. -1.
    9900012    2    1    2    0    0 -0.27440410226E+02 -0.25623297295E+02 -0.24891445630E+02  0.46142317153E+02  0.99999944510E+01 0.  0.
        -12    1    1    2    0    0  0.27440410226E+02  0.25623297295E+02  0.24891445630E+02  0.45045682847E+02  0.00000000000E+00 0.  1.
         11    1    3    3    0    0 -0.22411065188E+02 -0.21121644199E+02 -0.18783396162E+02  0.36072089878E+02  0.51100000000E-03 0. -1.
        -11    1    3    3    0    0 -0.57307992869E+01 -0.44762359642E+01 -0.58094419058E+01  0.93074359730E+01  0.51100000000E-03 0.  1.
        -12    1    3    3    0    0  0.70145424859E+00 -0.25417131492E-01 -0.29860756194E+00  0.76279130140E+00  0.00000000000E+00 0.  1.
</event>
<event>
 7    1  0.4194672E-008  0.4614232E+02  0.7816164E-02  0.1320468E+00
        -11   -1    0    0    0    0  0.00000000000E+00  0.00000000000E+00  0.45593999997E+02  0.45594000000E+02  0.51100000000E-03 0.  1.
         11   -1    0    0    0    0 -0.00000000000E+00 -0.00000000000E+00 -0.45593999997E+02  0.45594000000E+02  0.51100000000E-03 0. -1.
    9900012    2    1    2    0    0 -0.12848261635E+02 -0.98519448280E+01 -0.42035399577E+02  0.46142318059E+02  0.10000002718E+02 0.  0.
        -12    1    1    2    0    0  0.12848261635E+02  0.98519448280E+01  0.42035399577E+02  0.45045681941E+02  0.00000000000E+00 0.  1.
         11    1    3    3    0    0 -0.41100077429E+01 -0.59247162360E+01 -0.18024306534E+02  0.19413141230E+02  0.51100000000E-03 0.  1.
        -11    1    3    3    0    0 -0.72132108726E+01 -0.57706711486E+01 -0.20443452283E+02  0.22433586386E+02  0.51100000000E-03 0. -1.
         12    1    3    3    0    0 -0.15250430197E+01  0.18434425566E+01 -0.35676407591E+01  0.42955904434E+01  0.00000000000E+00 0. -1.
</event>
<event>
 7    1  0.4194672E-008  0.4614232E+02  0.7816164E-02  0.1320468E+00
        -11   -1    0    0    0    0  0.00000000000E+00  0.00000000000E+00  0.45593999997E+02  0.45594000000E+02  0.51100000000E-03 0. -1.
         11   -1    0    0    0    0 -0.00000000000E+00 -0.00000000000E+00 -0.45593999997E+02  0.45594000000E+02  0.51100000000E-03 0.  1.
    9900012    2    1    2    0    0 -0.20580652863E+02 -0.40045586114E+02 -0.13788385495E+01  0.46142318351E+02  0.10000005376E+02 0.  0.
        -12    1    1    2    0    0  0.20580652863E+02  0.40045586114E+02  0.13788385495E+01  0.45045681649E+02  0.00000000000E+00 0.  1.
         11    1    3    3    0    0 -0.26036779453E+01 -0.34549261154E+01  0.14645308225E+01  0.45673300841E+01  0.51100000000E-03 0. -1.
        -11    1    3    3    0    0 -0.75784652195E+00  0.21076864699E+00  0.25379969751E+00  0.82654057430E+00  0.51100000000E-03 0.  1.
        -12    1    3    3    0    0 -0.17219128395E+02 -0.36801428646E+02 -0.30971690696E+01  0.40748447692E+02  0.00000000000E+00 0.  1.
</event>
<event>
 7    1  0.4194672E-008  0.4614232E+02  0.7816164E-02  0.1320468E+00
        -11   -1    0    0    0    0  0.00000000000E+00  0.00000000000E+00  0.45593999997E+02  0.45594000000E+02  0.51100000000E-03 0.  1.
         11   -1    0    0    0    0 -0.00000000000E+00 -0.00000000000E+00 -0.45593999997E+02  0.45594000000E+02  0.51100000000E-03 0. -1.
    9900012    2    1    2    0    0  0.36066911766E+02  0.26671252731E+02 -0.41152855292E+01  0.46142318503E+02  0.10000006763E+02 0.  0.
        -12    1    1    2    0    0 -0.36066911766E+02 -0.26671252731E+02  0.41152855292E+01  0.45045681497E+02  0.00000000000E+00 0.  1.
         11    1    3    3    0    0  0.15181881661E+02  0.13376995666E+02 -0.25423238106E+01  0.20393551785E+02  0.51100000000E-03 0. -1.
        -11    1    3    3    0    0  0.12877673865E+01  0.14497817482E+01  0.17479304273E+01  0.26106460884E+01  0.51100000000E-03 0.  1.
         12    1    3    3    0    0  0.19597262718E+02  0.11844475317E+02 -0.33208921459E+01  0.23138120629E+02  0.00000000000E+00 0. -1.
</event>
<event>
 7    1  0.4194672E-008  0.4614232E+02  0.7816164E-02  0.1320468E+00
        -11   -1    0    0    0    0  0.00000000000E+00  0.00000000000E+00  0.45593999997E+02  0.45594000000E+02  0.51100000000E-03 0.  1.
         11   -1    0    0    0    0 -0.00000000000E+00 -0.00000000000E+00 -0.45593999997E+02  0.45594000000E+02  0.51100000000E-03 0. -1.
    9900012    2    1    2    0    0 -0.42691690920E+02  0.78891858742E+01  0.12012237925E+02  0.46142316662E+02  0.99999899775E+01 0.  0.
        -12    1    1    2    0    0  0.42691690920E+02 -0.78891858742E+01 -0.12012237925E+02  0.45045683338E+02  0.00000000000E+00 0.  1.
         11    1    3    3    0    0 -0.54099788730E+01  0.30034279560E+01  0.31099257737E+01  0.69253223370E+01  0.51100000000E-03 0. -1.
        -11    1    3    3    0    0  0.22929737554E+00 -0.22681157804E+00 -0.15933852093E-01  0.32291628502E+00  0.51100000000E-03 0.  1.
         12    1    3    3    0    0 -0.37511009423E+02  0.51125694962E+01  0.89182460039E+01  0.38894078040E+02  0.00000000000E+00 0. -1.
</event>
<event>
 7    1  0.4194672E-008  0.4614232E+02  0.7816164E-02  0.1320468E+00
        -11   -1    0    0    0    0  0.00000000000E+00  0.00000000000E+00  0.45593999997E+02  0.45594000000E+02  0.51100000000E-03 0.  1.
         11   -1    0    0    0    0 -0.00000000000E+00 -0.00000000000E+00 -0.45593999997E+02  0.45594000000E+02  0.51100000000E-03 0. -1.
    9900012    2    1    2    0    0 -0.16712833822E+02 -0.62841354380E+01 -0.41355822737E+02  0.46142320442E+02  0.10000024448E+02 0.  0.
        -12    1    1    2    0    0  0.16712833822E+02  0.62841354380E+01  0.41355822737E+02  0.45045679558E+02  0.00000000000E+00 0.  1.
         11    1    3    3    0    0 -0.38820196500E+01  0.28138713696E+00 -0.63312865006E+01  0.74319879102E+01  0.51100000000E-03 0. -1.
        -11    1    3    3    0    0  0.44952122846E+00  0.52863475698E-01  0.19490886639E+00  0.49280179507E+00  0.51100000000E-03 0.  1.
         12    1    3    3    0    0 -0.13280335401E+02 -0.66183860506E+01 -0.35219445103E+02  0.38217530737E+02  0.00000000000E+00 0. -1.
</event>
<event>
 7    1  0.4194672E-008  0.4614232E+02  0.7816164E-02  0.1320468E+00
        -11   -1    0    0    0    0  0.00000000000E+00  0.00000000000E+00  0.45593999997E+02  0.45594000000E+02  0.51100000000E-03 0. -1.
         11   -1    0    0    0    0 -0.00000000000E+00 -0.00000000000E+00 -0.45593999997E+02  0.45594000000E+02  0.51100000000E-03 0.  1.
    9900012    2    1    2    0    0  0.12430605072E+02 -0.34897364192E+02  0.25627479603E+02  0.46142315625E+02  0.99999805223E+01 0.  0.
        -12    1    1    2    0    0 -0.12430605072E+02  0.34897364192E+02 -0.25627479603E+02  0.45045684375E+02  0.00000000000E+00 0.  1.
         11    1    3    3    0    0  0.51104878383E+01 -0.15830722640E+02  0.73717239684E+01  0.18195361491E+02  0.51100000000E-03 0. -1.
        -11    1    3    3    0    0  0.16924861146E+01 -0.30152980301E+01  0.61982068813E+01  0.70974854887E+01  0.51100000000E-03 0.  1.
         12    1    3    3    0    0  0.56276311193E+01 -0.16051343521E+02  0.12057548753E+02  0.20849468645E+02  0.00000000000E+00 0. -1.
</event>
<event>
 7    1  0.4194672E-008  0.4614231E+02  0.7816164E-02  0.1320468E+00
        -11   -1    0    0    0    0  0.00000000000E+00  0.00000000000E+00  0.45593999997E+02  0.45594000000E+02  0.51100000000E-03 0. -1.
         11   -1    0    0    0    0 -0.00000000000E+00 -0.00000000000E+00 -0.45593999997E+02  0.45594000000E+02  0.51100000000E-03 0.  1.
    9900012    2    1    2    0    0  0.32388285096E+02 -0.17144974475E+02  0.26194705978E+02  0.46142314496E+02  0.99999702292E+01 0.  0.
        -12    1    1    2    0    0 -0.32388285096E+02  0.17144974475E+02 -0.26194705978E+02  0.45045685504E+02  0.00000000000E+00 0.  1.
         11    1    3    3    0    0  0.47282345349E+01 -0.19669286327E+00  0.28357597433E+01  0.55169215585E+01  0.51100000000E-03 0. -1.
        -11    1    3    3    0    0  0.46038885398E+01 -0.63637110414E+01  0.50240222119E+01  0.93238086291E+01  0.51100000000E-03 0.  1.
         12    1    3    3    0    0  0.23056162021E+02 -0.10584570571E+02  0.18334924023E+02  0.31301584309E+02  0.00000000000E+00 0. -1.
</event>
<event>
 7    1  0.4194672E-008  0.4614232E+02  0.7816164E-02  0.1320468E+00
        -11   -1    0    0    0    0  0.00000000000E+00  0.00000000000E+00  0.45593999997E+02  0.45594000000E+02  0.51100000000E-03 0. -1.
         11   -1    0    0    0    0 -0.00000000000E+00 -0.00000000000E+00 -0.45593999997E+02  0.45594000000E+02  0.51100000000E-03 0.  1.
    9900012    2    1    2    0    0 -0.11707358610E+02  0.17246193645E+02  0.39932692166E+02  0.46142319358E+02  0.10000014565E+02 0.  0.
        -12    1    1    2    0    0  0.11707358610E+02 -0.17246193645E+02 -0.39932692166E+02  0.45045680642E+02  0.00000000000E+00 0.  1.
         11    1    3    3    0    0 -0.27911010955E+01  0.10813796817E+02  0.17510300057E+02  0.20768703746E+02  0.51100000000E-03 0. -1.
        -11    1    3    3    0    0 -0.45860787011E+01  0.11116795137E+01  0.64638698301E+01  0.80030970653E+01  0.51100000000E-03 0.  1.
         12    1    3    3    0    0 -0.43301788132E+01  0.53207173138E+01  0.15958522278E+02  0.17370518547E+02  0.00000000000E+00 0. -1.
</event>
<event>
 7    1  0.4194672E-008  0.4614232E+02  0.7816164E-02  0.1320468E+00
        -11   -1    0    0    0    0  0.00000000000E+00  0.00000000000E+00  0.45593999997E+02  0.45594000000E+02  0.51100000000E-03 0. -1.
         11   -1    0    0    0    0 -0.00000000000E+00 -0.00000000000E+00 -0.45593999997E+02  0.45594000000E+02  0.51100000000E-03 0.  1.
    9900012    2    1    2    0    0  0.13152592516E+02  0.42969486088E+02 -0.31218556007E+01  0.46142318665E+02  0.10000008244E+02 0.  0.
        -12    1    1    2    0    0 -0.13152592516E+02 -0.42969486088E+02  0.31218556007E+01  0.45045681335E+02  0.00000000000E+00 0.  1.
         11    1    3    3    0    0  0.14358030603E+01  0.94316501275E+00  0.44930224767E+00  0.17756585933E+01  0.51100000000E-03 0. -1.
        -11    1    3    3    0    0  0.36323913163E+01  0.63473353976E+01  0.14031508998E+01  0.74465942573E+01  0.51100000000E-03 0.  1.
         12    1    3    3    0    0  0.80843981396E+01  0.35678985677E+02 -0.49743087481E+01  0.36920065815E+02  0.00000000000E+00 0. -1.
</event>
<event>
 7    1  0.4194672E-008  0.4614231E+02  0.7816164E-02  0.1320468E+00
        -11   -1    0    0    0    0  0.00000000000E+00  0.00000000000E+00  0.45593999997E+02  0.45594000000E+02  0.51100000000E-03 0. -1.
         11   -1    0    0    0    0 -0.00000000000E+00 -0.00000000000E+00 -0.45593999997E+02  0.45594000000E+02  0.51100000000E-03 0.  1.
    9900012    2    1    2    0    0  0.21309415438E+02 -0.35905467298E+02  0.16906212179E+02  0.46142314541E+02  0.99999706370E+01 0.  0.
        -12    1    1    2    0    0 -0.21309415438E+02  0.35905467298E+02 -0.16906212179E+02  0.45045685459E+02  0.00000000000E+00 0.  1.
         11    1    3    3    0    0  0.49778571700E+01 -0.49560440122E+01  0.25455231914E+01  0.74713534808E+01  0.51100000000E-03 0. -1.
        -11    1    3    3    0    0  0.13635727619E+02 -0.30088326908E+02  0.12709850907E+02  0.35394643580E+02  0.51100000000E-03 0.  1.
         12    1    3    3    0    0  0.26958306492E+01 -0.86109637789E+00  0.16508380813E+01  0.32763174803E+01  0.00000000000E+00 0. -1.
</event>
<event>
 7    1  0.4194672E-008  0.4614232E+02  0.7816164E-02  0.1320468E+00
        -11   -1    0    0    0    0  0.00000000000E+00  0.00000000000E+00  0.45593999997E+02  0.45594000000E+02  0.51100000000E-03 0.  1.
         11   -1    0    0    0    0 -0.00000000000E+00 -0.00000000000E+00 -0.45593999997E+02  0.45594000000E+02  0.51100000000E-03 0. -1.
    9900012    2    1    2    0    0  0.31057673764E+02 -0.13313417016E+02 -0.29787364170E+02  0.46142320557E+02  0.10000025493E+02 0.  0.
        -12    1    1    2    0    0 -0.31057673764E+02  0.13313417016E+02  0.29787364170E+02  0.45045679443E+02  0.00000000000E+00 0.  1.
         11    1    3    3    0    0  0.13698251239E+02 -0.78557337358E+01 -0.12668433626E+02  0.20244600523E+02  0.51100000000E-03 0. -1.
        -11    1    3    3    0    0  0.40221104100E+01 -0.19655347103E+01 -0.82235826474E+00  0.45515900765E+01  0.51100000000E-03 0.  1.
         12    1    3    3    0    0  0.13337312115E+02 -0.34921485700E+01 -0.16296572279E+02  0.21346129957E+02  0.00000000000E+00 0. -1.
</event>
<event>
 7    1  0.4194672E-008  0.4614232E+02  0.7816164E-02  0.1320468E+00
        -11   -1    0    0    0    0  0.00000000000E+00  0.00000000000E+00  0.45593999997E+02  0.45594000000E+02  0.51100000000E-03 0.  1.
         11   -1    0    0    0    0 -0.00000000000E+00 -0.00000000000E+00 -0.45593999997E+02  0.45594000000E+02  0.51100000000E-03 0. -1.
    9900012    2    1    2    0    0 -0.22477504851E+02 -0.98999263719E+01 -0.37760649952E+02  0.46142318173E+02  0.10000003752E+02 0.  0.
        -12    1    1    2    0    0  0.22477504851E+02  0.98999263719E+01  0.37760649952E+02  0.45045681827E+02  0.00000000000E+00 0.  1.
         11    1    3    3    0    0 -0.91980941861E+01 -0.20089553921E+01 -0.98442152558E+01  0.13621652348E+02  0.51100000000E-03 0. -1.
        -11    1    3    3    0    0 -0.76923819756E+00  0.10438805292E+01 -0.18650949816E+01  0.22715619109E+01  0.51100000000E-03 0.  1.
         12    1    3    3    0    0 -0.12510172467E+02 -0.89348515090E+01 -0.26051339715E+02  0.30249103914E+02  0.00000000000E+00 0. -1.
</event>
<event>
 7    1  0.4194672E-008  0.4614232E+02  0.7816164E-02  0.1320468E+00
        -11   -1    0    0    0    0  0.00000000000E+00  0.00000000000E+00  0.45593999997E+02  0.45594000000E+02  0.51100000000E-03 0.  1.
         11   -1    0    0    0    0 -0.00000000000E+00 -0.00000000000E+00 -0.45593999997E+02  0.45594000000E+02  0.51100000000E-03 0. -1.
    9900012    2    1    2    0    0 -0.30408864835E+02 -0.22575576914E+02 -0.24387656087E+02  0.46142317599E+02  0.99999985244E+01 0.  0.
        -12    1    1    2    0    0  0.30408864835E+02  0.22575576914E+02  0.24387656087E+02  0.45045682401E+02  0.00000000000E+00 0.  1.
         11    1    3    3    0    0 -0.15358060206E+02 -0.96422435000E+01 -0.93219055103E+01  0.20389722794E+02  0.51100000000E-03 0. -1.
        -11    1    3    3    0    0 -0.51871152004E+01 -0.69350000044E+01 -0.32960789974E+01  0.92663113579E+01  0.51100000000E-03 0.  1.
         12    1    3    3    0    0 -0.98636894282E+01 -0.59983334094E+01 -0.11769671579E+02  0.16486283447E+02  0.00000000000E+00 0. -1.
</event>
<event>
 7    1  0.4194672E-008  0.4614232E+02  0.7816164E-02  0.1320468E+00
        -11   -1    0    0    0    0  0.00000000000E+00  0.00000000000E+00  0.45593999997E+02  0.45594000000E+02  0.51100000000E-03 0.  1.
         11   -1    0    0    0    0 -0.00000000000E+00 -0.00000000000E+00 -0.45593999997E+02  0.45594000000E+02  0.51100000000E-03 0. -1.
    9900012    2    1    2    0    0 -0.26831355011E+02 -0.35084192424E+02  0.88482375965E+01  0.46142317872E+02  0.10000001014E+02 0.  0.
        -12    1    1    2    0    0  0.26831355011E+02  0.35084192424E+02 -0.88482375965E+01  0.45045682128E+02  0.00000000000E+00 0.  1.
         11    1    3    3    0    0 -0.45976297354E+01 -0.81663128826E+01  0.34259796806E+01  0.99781863238E+01  0.51100000000E-03 0. -1.
        -11    1    3    3    0    0 -0.26582693605E+01 -0.81470028572E+01  0.37759645310E+00  0.85780318774E+01  0.51100000000E-03 0.  1.
        -12    1    3    3    0    0 -0.19575455915E+02 -0.18770876685E+02  0.50446614628E+01  0.27586099671E+02  0.00000000000E+00 0.  1.
</event>
<event>
 7    1  0.4266267E-008  0.4614232E+02  0.7816164E-02  0.1320468E+00
        -11   -1    0    0    0    0  0.00000000000E+00  0.00000000000E+00  0.45593999997E+02  0.45594000000E+02  0.51100000000E-03 0.  1.
         11   -1    0    0    0    0 -0.00000000000E+00 -0.00000000000E+00 -0.45593999997E+02  0.45594000000E+02  0.51100000000E-03 0. -1.
    9900012    2    1    2    0    0 -0.30809564334E+02 -0.24808392738E+02 -0.21550589825E+02  0.46142317338E+02  0.99999961418E+01 0.  0.
        -12    1    1    2    0    0  0.30809564334E+02  0.24808392738E+02  0.21550589825E+02  0.45045682662E+02  0.00000000000E+00 0.  1.
         11    1    3    3    0    0 -0.18859624414E+02 -0.14980432378E+02 -0.13596490601E+02  0.27657970717E+02  0.51100000000E-03 0. -1.
        -11    1    3    3    0    0 -0.11282000660E+02 -0.64511218309E+01 -0.49216638555E+01  0.13896880482E+02  0.51100000000E-03 0.  1.
        -12    1    3    3    0    0 -0.66793925935E+00 -0.33768385294E+01 -0.30324353680E+01  0.45874661382E+01  0.00000000000E+00 0.  1.
</event>
<event>
 7    1  0.4194672E-008  0.4614232E+02  0.7816164E-02  0.1320468E+00
        -11   -1    0    0    0    0  0.00000000000E+00  0.00000000000E+00  0.45593999997E+02  0.45594000000E+02  0.51100000000E-03 0. -1.
         11   -1    0    0    0    0 -0.00000000000E+00 -0.00000000000E+00 -0.45593999997E+02  0.45594000000E+02  0.51100000000E-03 0.  1.
    9900012    2    1    2    0    0  0.31915046162E+02 -0.25709301900E+02  0.18696928803E+02  0.46142317383E+02  0.99999965564E+01 0.  0.
        -12    1    1    2    0    0 -0.31915046162E+02  0.25709301900E+02 -0.18696928803E+02  0.45045682617E+02  0.00000000000E+00 0.  1.
         11    1    3    3    0    0  0.48144585462E+01 -0.25391510245E+01  0.35510813306E+01  0.64989597549E+01  0.51100000000E-03 0. -1.
        -11    1    3    3    0    0  0.14522335397E+02 -0.17738745782E+02  0.90290067643E+01  0.24639080558E+02  0.51100000000E-03 0.  1.
        -12    1    3    3    0    0  0.12578252219E+02 -0.54314050931E+01  0.61168407081E+01  0.15004277071E+02  0.00000000000E+00 0.  1.
</event>
<event>
 7    1  0.4194672E-008  0.4614232E+02  0.7816164E-02  0.1320468E+00
        -11   -1    0    0    0    0  0.00000000000E+00  0.00000000000E+00  0.45593999997E+02  0.45594000000E+02  0.51100000000E-03 0.  1.
         11   -1    0    0    0    0 -0.00000000000E+00 -0.00000000000E+00 -0.45593999997E+02  0.45594000000E+02  0.51100000000E-03 0. -1.
    9900012    2    1    2    0    0  0.19663354573E+01 -0.23216667014E+02 -0.38551698123E+02  0.46142317293E+02  0.99999957329E+01 0.  0.
        -12    1    1    2    0    0 -0.19663354573E+01  0.23216667014E+02  0.38551698123E+02  0.45045682707E+02  0.00000000000E+00 0.  1.
         11    1    3    3    0    0 -0.82174680709E+00 -0.11333703469E+02 -0.21670877839E+02  0.24469471770E+02  0.51100000000E-03 0. -1.
        -11    1    3    3    0    0 -0.62055688622E+00 -0.48124447704E+01 -0.29380241069E+01  0.56724510955E+01  0.51100000000E-03 0.  1.
         12    1    3    3    0    0  0.34086391506E+01 -0.70705187739E+01 -0.13942796177E+02  0.16000394428E+02  0.00000000000E+00 0. -1.
</event>
<event>
 7    1  0.4194672E-008  0.4614232E+02  0.7816164E-02  0.1320468E+00
        -11   -1    0    0    0    0  0.00000000000E+00  0.00000000000E+00  0.45593999997E+02  0.45594000000E+02  0.51100000000E-03 0.  1.
         11   -1    0    0    0    0 -0.00000000000E+00 -0.00000000000E+00 -0.45593999997E+02  0.45594000000E+02  0.51100000000E-03 0. -1.
    9900012    2    1    2    0    0 -0.30302562416E+02 -0.15369440244E+02 -0.29574456697E+02  0.46142317950E+02  0.10000001722E+02 0.  0.
        -12    1    1    2    0    0  0.30302562416E+02  0.15369440244E+02  0.29574456697E+02  0.45045682050E+02  0.00000000000E+00 0.  1.
         11    1    3    3    0    0 -0.15118006399E+02 -0.76968942650E+01 -0.15521373950E+02  0.22993680618E+02  0.51100000000E-03 0. -1.
        -11    1    3    3    0    0 -0.79429409610E-01 -0.77851994402E+00  0.61367951803E+00  0.99448737866E+00  0.51100000000E-03 0.  1.
        -12    1    3    3    0    0 -0.15105126608E+02 -0.68940260352E+01 -0.14666762265E+02  0.22154149953E+02  0.00000000000E+00 0.  1.
</event>
<event>
 7    1  0.4194672E-008  0.4614232E+02  0.7816164E-02  0.1320468E+00
        -11   -1    0    0    0    0  0.00000000000E+00  0.00000000000E+00  0.45593999997E+02  0.45594000000E+02  0.51100000000E-03 0.  1.
         11   -1    0    0    0    0 -0.00000000000E+00 -0.00000000000E+00 -0.45593999997E+02  0.45594000000E+02  0.51100000000E-03 0. -1.
    9900012    2    1    2    0    0  0.24442174138E+02 -0.20815870524E+02 -0.31597360195E+02  0.46142317482E+02  0.99999974523E+01 0.  0.
        -12    1    1    2    0    0 -0.24442174138E+02  0.20815870524E+02  0.31597360195E+02  0.45045682518E+02  0.00000000000E+00 0.  1.
         11    1    3    3    0    0  0.35515389241E+01 -0.48985228931E+01 -0.36443937304E+01  0.70633250801E+01  0.51100000000E-03 0. -1.
        -11    1    3    3    0    0  0.13005105372E+02 -0.12484462562E+02 -0.22751635862E+02  0.29028115782E+02  0.51100000000E-03 0.  1.
        -12    1    3    3    0    0  0.78855298425E+01 -0.34328850684E+01 -0.52013306025E+01  0.10050876620E+02  0.00000000000E+00 0.  1.
</event>
<event>
 7    1  0.4194672E-008  0.4614232E+02  0.7816164E-02  0.1320468E+00
        -11   -1    0    0    0    0  0.00000000000E+00  0.00000000000E+00  0.45593999997E+02  0.45594000000E+02  0.51100000000E-03 0. -1.
         11   -1    0    0    0    0 -0.00000000000E+00 -0.00000000000E+00 -0.45593999997E+02  0.45594000000E+02  0.51100000000E-03 0.  1.
    9900012    2    1    2    0    0 -0.28684664455E+02 -0.25381379431E+02  0.23708416504E+02  0.46142318633E+02  0.10000007947E+02 0.  0.
        -12    1    1    2    0    0  0.28684664455E+02  0.25381379431E+02 -0.23708416504E+02  0.45045681367E+02  0.00000000000E+00 0.  1.
         11    1    3    3    0    0 -0.14728784879E+02 -0.13276674878E+02  0.11502477126E+02  0.22924096059E+02  0.51100000000E-03 0. -1.
        -11    1    3    3    0    0 -0.57279216627E+01 -0.94612574411E+00  0.26622458301E+01  0.63868453574E+01  0.51100000000E-03 0.  1.
         12    1    3    3    0    0 -0.82279579134E+01 -0.11158578809E+02  0.95436935480E+01  0.16831377216E+02  0.00000000000E+00 0. -1.
</event>
<event>
 7    1  0.4194672E-008  0.4614232E+02  0.7816164E-02  0.1320468E+00
        -11   -1    0    0    0    0  0.00000000000E+00  0.00000000000E+00  0.45593999997E+02  0.45594000000E+02  0.51100000000E-03 0. -1.
         11   -1    0    0    0    0 -0.00000000000E+00 -0.00000000000E+00 -0.45593999997E+02  0.45594000000E+02  0.51100000000E-03 0.  1.
    9900012    2    1    2    0    0  0.21228430767E+02  0.39133947479E+02  0.68557586535E+01  0.46142317134E+02  0.99999942819E+01 0.  0.
        -12    1    1    2    0    0 -0.21228430767E+02 -0.39133947479E+02 -0.68557586535E+01  0.45045682866E+02  0.00000000000E+00 0.  1.
         11    1    3    3    0    0  0.31883756870E+01  0.99578727055E+01  0.30369357738E+01  0.10887972607E+02  0.51100000000E-03 0. -1.
        -11    1    3    3    0    0  0.12609339935E+01  0.76463665922E+01  0.71631899580E+00  0.77826724050E+01  0.51100000000E-03 0.  1.
         12    1    3    3    0    0  0.16779121086E+02  0.21529708182E+02  0.31025038839E+01  0.27471672122E+02  0.00000000000E+00 0. -1.
</event>
<event>
 7    1  0.4194672E-008  0.4614233E+02  0.7816164E-02  0.1320468E+00
        -11   -1    0    0    0    0  0.00000000000E+00  0.00000000000E+00  0.45593999997E+02  0.45594000000E+02  0.51100000000E-03 0. -1.
         11   -1    0    0    0    0 -0.00000000000E+00 -0.00000000000E+00 -0.45593999997E+02  0.45594000000E+02  0.51100000000E-03 0.  1.
    9900012    2    1    2    0    0  0.32627918222E+02 -0.13120797554E+02  0.28149169934E+02  0.46142332684E+02  0.10000136081E+02 0.  0.
        -12    1    1    2    0    0 -0.32627918222E+02  0.13120797554E+02 -0.28149169934E+02  0.45045667316E+02  0.00000000000E+00 0.  1.
         11    1    3    3    0    0  0.51608239934E+01 -0.31455427416E+01  0.64182917202E+01  0.88160655792E+01  0.51100000000E-03 0. -1.
        -11    1    3    3    0    0  0.22294059044E+02 -0.98395703756E+01  0.14248457350E+02  0.28228722092E+02  0.51100000000E-03 0.  1.
         12    1    3    3    0    0  0.51730351851E+01 -0.13568443639E+00  0.74824208634E+01  0.90975450133E+01  0.00000000000E+00 0. -1.
</event>
<event>
 7    1  0.4194672E-008  0.4614232E+02  0.7816164E-02  0.1320468E+00
        -11   -1    0    0    0    0  0.00000000000E+00  0.00000000000E+00  0.45593999997E+02  0.45594000000E+02  0.51100000000E-03 0.  1.
         11   -1    0    0    0    0 -0.00000000000E+00 -0.00000000000E+00 -0.45593999997E+02  0.45594000000E+02  0.51100000000E-03 0. -1.
    9900012    2    1    2    0    0  0.25161486876E+02  0.37015541179E+02  0.50855469897E+01  0.46142317645E+02  0.99999989428E+01 0.  0.
        -12    1    1    2    0    0 -0.25161486876E+02 -0.37015541179E+02 -0.50855469897E+01  0.45045682355E+02  0.00000000000E+00 0.  1.
         11    1    3    3    0    0  0.72593455426E+01  0.11189594782E+02  0.92126708091E+00  0.13369886402E+02  0.51100000000E-03 0. -1.
        -11    1    3    3    0    0  0.16843820921E+01  0.83091313963E+01  0.25177577604E+01  0.88440890992E+01  0.51100000000E-03 0.  1.
         12    1    3    3    0    0  0.16217759241E+02  0.17516815001E+02  0.16465221484E+01  0.23928342144E+02  0.00000000000E+00 0. -1.
</event>
<event>
 7    1  0.4194672E-008  0.4614232E+02  0.7816164E-02  0.1320468E+00
        -11   -1    0    0    0    0  0.00000000000E+00  0.00000000000E+00  0.45593999997E+02  0.45594000000E+02  0.51100000000E-03 0. -1.
         11   -1    0    0    0    0 -0.00000000000E+00 -0.00000000000E+00 -0.45593999997E+02  0.45594000000E+02  0.51100000000E-03 0.  1.
    9900012    2    1    2    0    0 -0.28709783857E+02 -0.16120305626E+02  0.30740812074E+02  0.46142317969E+02  0.10000001899E+02 0.  0.
        -12    1    1    2    0    0  0.28709783857E+02  0.16120305626E+02 -0.30740812074E+02  0.45045682031E+02  0.00000000000E+00 0.  1.
         11    1    3    3    0    0 -0.18128164617E+02 -0.83166868842E+01  0.16138521089E+02  0.25656373405E+02  0.51100000000E-03 0. -1.
        -11    1    3    3    0    0 -0.31550298663E+01 -0.59995717883E+00  0.93649714786E+00  0.33453234885E+01  0.51100000000E-03 0.  1.
         12    1    3    3    0    0 -0.74265893742E+01 -0.72036615631E+01  0.13665793838E+02  0.17140621076E+02  0.00000000000E+00 0. -1.
</event>
<event>
 7    1  0.4194672E-008  0.4614232E+02  0.7816164E-02  0.1320468E+00
        -11   -1    0    0    0    0  0.00000000000E+00  0.00000000000E+00  0.45593999997E+02  0.45594000000E+02  0.51100000000E-03 0.  1.
         11   -1    0    0    0    0 -0.00000000000E+00 -0.00000000000E+00 -0.45593999997E+02  0.45594000000E+02  0.51100000000E-03 0. -1.
    9900012    2    1    2    0    0 -0.37926891924E+02 -0.23093839058E+02 -0.75722497513E+01  0.46142317635E+02  0.99999988464E+01 0.  0.
        -12    1    1    2    0    0  0.37926891924E+02  0.23093839058E+02  0.75722497513E+01  0.45045682365E+02  0.00000000000E+00 0.  1.
         11    1    3    3    0    0 -0.25453546681E+00 -0.99356898572E+00 -0.29658687192E+00  0.10676758249E+01  0.51100000000E-03 0. -1.
        -11    1    3    3    0    0 -0.67425609635E+01 -0.77043638914E+01 -0.31409451391E+01  0.10709103041E+02  0.51100000000E-03 0.  1.
        -12    1    3    3    0    0 -0.30929795494E+02 -0.14395906181E+02 -0.41347177403E+01  0.34365538769E+02  0.00000000000E+00 0.  1.
</event>
<event>
 7    1  0.4194672E-008  0.4614232E+02  0.7816164E-02  0.1320468E+00
        -11   -1    0    0    0    0  0.00000000000E+00  0.00000000000E+00  0.45593999997E+02  0.45594000000E+02  0.51100000000E-03 0.  1.
         11   -1    0    0    0    0 -0.00000000000E+00 -0.00000000000E+00 -0.45593999997E+02  0.45594000000E+02  0.51100000000E-03 0. -1.
    9900012    2    1    2    0    0 -0.74308292984E+01 -0.55738970135E+01 -0.44077521978E+02  0.46142317680E+02  0.99999992602E+01 0.  0.
        -12    1    1    2    0    0  0.74308292984E+01  0.55738970135E+01  0.44077521978E+02  0.45045682320E+02  0.00000000000E+00 0.  1.
         11    1    3    3    0    0 -0.34309955848E+01 -0.48850426140E+01 -0.10006595069E+02  0.11651923325E+02  0.51100000000E-03 0. -1.
        -11    1    3    3    0    0 -0.13951237914E+00  0.75962177058E+00 -0.12815946959E+02  0.12839197236E+02  0.51100000000E-03 0.  1.
         12    1    3    3    0    0 -0.38603213344E+01 -0.14484761701E+01 -0.21254979950E+02  0.21651197119E+02  0.00000000000E+00 0. -1.
</event>
<event>
 7    1  0.4194672E-008  0.4614231E+02  0.7816164E-02  0.1320468E+00
        -11   -1    0    0    0    0  0.00000000000E+00  0.00000000000E+00  0.45593999997E+02  0.45594000000E+02  0.51100000000E-03 0.  1.
         11   -1    0    0    0    0 -0.00000000000E+00 -0.00000000000E+00 -0.45593999997E+02  0.45594000000E+02  0.51100000000E-03 0. -1.
    9900012    2    1    2    0    0 -0.33811098930E+02  0.14927144333E+02 -0.25750803469E+02  0.46142312880E+02  0.99999554936E+01 0.  0.
        -12    1    1    2    0    0  0.33811098930E+02 -0.14927144333E+02  0.25750803469E+02  0.45045687120E+02  0.00000000000E+00 0.  1.
         11    1    3    3    0    0 -0.91454277341E+01  0.26224870100E+01 -0.10317174573E+02  0.14034257301E+02  0.51100000000E-03 0. -1.
        -11    1    3    3    0    0 -0.17332971655E+02  0.56957049372E+01 -0.10816584386E+02  0.21210173482E+02  0.51100000000E-03 0.  1.
        -12    1    3    3    0    0 -0.73326995410E+01  0.66089523854E+01 -0.46170445103E+01  0.10897882097E+02  0.00000000000E+00 0.  1.
</event>
<event>
 7    1  0.4194672E-008  0.4614232E+02  0.7816164E-02  0.1320468E+00
        -11   -1    0    0    0    0  0.00000000000E+00  0.00000000000E+00  0.45593999997E+02  0.45594000000E+02  0.51100000000E-03 0.  1.
         11   -1    0    0    0    0 -0.00000000000E+00 -0.00000000000E+00 -0.45593999997E+02  0.45594000000E+02  0.51100000000E-03 0. -1.
    9900012    2    1    2    0    0 -0.39775763600E+02 -0.30970437183E+01 -0.20914359872E+02  0.46142317648E+02  0.99999989688E+01 0.  0.
        -12    1    1    2    0    0  0.39775763600E+02  0.30970437183E+01  0.20914359872E+02  0.45045682352E+02  0.00000000000E+00 0.  1.
         11    1    3    3    0    0 -0.15901716226E+02  0.63233012544E+00 -0.10569251157E+02  0.19104279379E+02  0.51100000000E-03 0. -1.
        -11    1    3    3    0    0 -0.49939940431E+00 -0.22109466622E+00  0.74940615984E+00  0.92730387144E+00  0.51100000000E-03 0.  1.
         12    1    3    3    0    0 -0.23374647969E+02 -0.35082791776E+01 -0.11094514875E+02  0.26110734398E+02  0.00000000000E+00 0. -1.
</event>
<event>
 7    1  0.4194672E-008  0.4614232E+02  0.7816164E-02  0.1320468E+00
        -11   -1    0    0    0    0  0.00000000000E+00  0.00000000000E+00  0.45593999997E+02  0.45594000000E+02  0.51100000000E-03 0. -1.
         11   -1    0    0    0    0 -0.00000000000E+00 -0.00000000000E+00 -0.45593999997E+02  0.45594000000E+02  0.51100000000E-03 0.  1.
    9900012    2    1    2    0    0  0.16822555945E+02  0.23900203760E+02  0.34276746908E+02  0.46142317555E+02  0.99999981230E+01 0.  0.
        -12    1    1    2    0    0 -0.16822555945E+02 -0.23900203760E+02 -0.34276746908E+02  0.45045682445E+02  0.00000000000E+00 0.  1.
         11    1    3    3    0    0  0.30536643560E+01  0.66292080468E+00  0.34421518513E+01  0.46489503784E+01  0.51100000000E-03 0. -1.
        -11    1    3    3    0    0  0.81631519539E+01  0.14814343026E+02  0.14499421770E+02  0.22278578075E+02  0.51100000000E-03 0.  1.
         12    1    3    3    0    0  0.56057396355E+01  0.84229399285E+01  0.16335173287E+02  0.19214789102E+02  0.00000000000E+00 0. -1.
</event>
<event>
 7    1  0.4194672E-008  0.4614232E+02  0.7816164E-02  0.1320468E+00
        -11   -1    0    0    0    0  0.00000000000E+00  0.00000000000E+00  0.45593999997E+02  0.45594000000E+02  0.51100000000E-03 0.  1.
         11   -1    0    0    0    0 -0.00000000000E+00 -0.00000000000E+00 -0.45593999997E+02  0.45594000000E+02  0.51100000000E-03 0. -1.
    9900012    2    1    2    0    0 -0.89242735049E+01  0.17762257239E+02 -0.40422432594E+02  0.46142317670E+02  0.99999991664E+01 0.  0.
        -12    1    1    2    0    0  0.89242735049E+01 -0.17762257239E+02  0.40422432594E+02  0.45045682330E+02  0.00000000000E+00 0.  1.
         11    1    3    3    0    0 -0.83146344216E+00  0.11760901295E+01 -0.12424488902E+01  0.19021563958E+01  0.51100000000E-03 0. -1.
        -11    1    3    3    0    0 -0.18712477541E+01  0.11193116245E+02 -0.15803630256E+02  0.19456159667E+02  0.51100000000E-03 0.  1.
         12    1    3    3    0    0 -0.62215623087E+01  0.53930508645E+01 -0.23376353447E+02  0.24784001607E+02  0.00000000000E+00 0. -1.
</event>
<event>
 7    1  0.4194672E-008  0.4614232E+02  0.7816164E-02  0.1320468E+00
        -11   -1    0    0    0    0  0.00000000000E+00  0.00000000000E+00  0.45593999997E+02  0.45594000000E+02  0.51100000000E-03 0.  1.
         11   -1    0    0    0    0 -0.00000000000E+00 -0.00000000000E+00 -0.45593999997E+02  0.45594000000E+02  0.51100000000E-03 0. -1.
    9900012    2    1    2    0    0 -0.28818616186E+02 -0.21983946594E+02 -0.26745223017E+02  0.46142317622E+02  0.99999987291E+01 0.  0.
        -12    1    1    2    0    0  0.28818616186E+02  0.21983946594E+02  0.26745223017E+02  0.45045682378E+02  0.00000000000E+00 0.  1.
         11    1    3    3    0    0 -0.11255681752E+02 -0.37956096863E+01 -0.91672028741E+01  0.15004487109E+02  0.51100000000E-03 0.  1.
        -11    1    3    3    0    0 -0.17541980570E+02 -0.18354699423E+02 -0.17682693846E+02  0.30940163786E+02  0.51100000000E-03 0. -1.
         12    1    3    3    0    0 -0.20953863802E-01  0.16636251524E+00  0.10467370290E+00  0.19766672700E+00  0.00000000000E+00 0. -1.
</event>
<event>
 7    1  0.4194672E-008  0.4614231E+02  0.7816164E-02  0.1320468E+00
        -11   -1    0    0    0    0  0.00000000000E+00  0.00000000000E+00  0.45593999997E+02  0.45594000000E+02  0.51100000000E-03 0.  1.
         11   -1    0    0    0    0 -0.00000000000E+00 -0.00000000000E+00 -0.45593999997E+02  0.45594000000E+02  0.51100000000E-03 0. -1.
    9900012    2    1    2    0    0 -0.10079157531E+02  0.83036029163E+01 -0.43111190678E+02  0.46142312087E+02  0.99999482575E+01 0.  0.
        -12    1    1    2    0    0  0.10079157531E+02 -0.83036029163E+01  0.43111190678E+02  0.45045687913E+02  0.00000000000E+00 0.  1.
         11    1    3    3    0    0 -0.42360964562E+01  0.29706221160E+01 -0.20790732570E+02  0.21424837689E+02  0.51100000000E-03 0. -1.
        -11    1    3    3    0    0 -0.53464606383E+01  0.38521457921E+01 -0.82411034827E+01  0.10551751297E+02  0.51100000000E-03 0.  1.
         12    1    3    3    0    0 -0.49660043647E+00  0.14808350082E+01 -0.14079354625E+02  0.14165723100E+02  0.00000000000E+00 0. -1.
</event>
<event>
 7    1  0.4194672E-008  0.4614232E+02  0.7816164E-02  0.1320468E+00
        -11   -1    0    0    0    0  0.00000000000E+00  0.00000000000E+00  0.45593999997E+02  0.45594000000E+02  0.51100000000E-03 0. -1.
         11   -1    0    0    0    0 -0.00000000000E+00 -0.00000000000E+00 -0.45593999997E+02  0.45594000000E+02  0.51100000000E-03 0.  1.
    9900012    2    1    2    0    0  0.36044752916E+02  0.24688270100E+02  0.10971718732E+02  0.46142317574E+02  0.99999982897E+01 0.  0.
        -12    1    1    2    0    0 -0.36044752916E+02 -0.24688270100E+02 -0.10971718732E+02  0.45045682426E+02  0.00000000000E+00 0.  1.
         11    1    3    3    0    0  0.30131006603E+02  0.22202488267E+02  0.64511116836E+01  0.37979532466E+02  0.51100000000E-03 0. -1.
        -11    1    3    3    0    0  0.45010598137E+01  0.24292165733E+01  0.24904753377E+01  0.56888575545E+01  0.51100000000E-03 0.  1.
         12    1    3    3    0    0  0.14126864997E+01  0.56565260166E-01  0.20301317104E+01  0.24739275529E+01  0.00000000000E+00 0. -1.
</event>
<event>
 7    1  0.4194672E-008  0.4614232E+02  0.7816164E-02  0.1320468E+00
        -11   -1    0    0    0    0  0.00000000000E+00  0.00000000000E+00  0.45593999997E+02  0.45594000000E+02  0.51100000000E-03 0.  1.
         11   -1    0    0    0    0 -0.00000000000E+00 -0.00000000000E+00 -0.45593999997E+02  0.45594000000E+02  0.51100000000E-03 0. -1.
    9900012    2    1    2    0    0 -0.20547510871E+01  0.38774638863E+02 -0.22834600991E+02  0.46142316262E+02  0.99999863304E+01 0.  0.
        -12    1    1    2    0    0  0.20547510871E+01 -0.38774638863E+02  0.22834600991E+02  0.45045683738E+02  0.00000000000E+00 0.  1.
         11    1    3    3    0    0  0.16925874752E+01  0.26534541378E+02 -0.17856660396E+02  0.32028222856E+02  0.51100000000E-03 0. -1.
        -11    1    3    3    0    0 -0.21810604023E+01  0.90038378221E+01 -0.20766694139E+01  0.94941390405E+01  0.51100000000E-03 0.  1.
        -12    1    3    3    0    0 -0.15662781600E+01  0.32362596630E+01 -0.29012711805E+01  0.46199543659E+01  0.00000000000E+00 0.  1.
</event>
<event>
 7    1  0.4194672E-008  0.4614232E+02  0.7816164E-02  0.1320468E+00
        -11   -1    0    0    0    0  0.00000000000E+00  0.00000000000E+00  0.45593999997E+02  0.45594000000E+02  0.51100000000E-03 0.  1.
         11   -1    0    0    0    0 -0.00000000000E+00 -0.00000000000E+00 -0.45593999997E+02  0.45594000000E+02  0.51100000000E-03 0. -1.
    9900012    2    1    2    0    0 -0.34375628616E+02  0.24200942374E+02 -0.16178506725E+02  0.46142317251E+02  0.99999953444E+01 0.  0.
        -12    1    1    2    0    0  0.34375628616E+02 -0.24200942374E+02  0.16178506725E+02  0.45045682749E+02  0.00000000000E+00 0.  1.
         11    1    3    3    0    0 -0.99630933849E+01  0.54588711326E+01 -0.91567072995E+00  0.11397410100E+02  0.51100000000E-03 0. -1.
        -11    1    3    3    0    0 -0.75682462704E+01  0.59903726029E+01 -0.75506659237E+01  0.12254610222E+02  0.51100000000E-03 0.  1.
         12    1    3    3    0    0 -0.16844288960E+02  0.12751698639E+02 -0.77121700713E+01  0.22490296929E+02  0.00000000000E+00 0. -1.
</event>
<event>
 7    1  0.4194672E-008  0.4614232E+02  0.7816164E-02  0.1320468E+00
        -11   -1    0    0    0    0  0.00000000000E+00  0.00000000000E+00  0.45593999997E+02  0.45594000000E+02  0.51100000000E-03 0.  1.
         11   -1    0    0    0    0 -0.00000000000E+00 -0.00000000000E+00 -0.45593999997E+02  0.45594000000E+02  0.51100000000E-03 0. -1.
    9900012    2    1    2    0    0  0.10773343977E+02  0.93694428485E+01 -0.42723086547E+02  0.46142317368E+02  0.99999964122E+01 0.  0.
        -12    1    1    2    0    0 -0.10773343977E+02 -0.93694428485E+01  0.42723086547E+02  0.45045682632E+02  0.00000000000E+00 0.  1.
         11    1    3    3    0    0  0.40100600436E+01  0.67737784531E+01 -0.21376010231E+02  0.22779343049E+02  0.51100000000E-03 0.  1.
        -11    1    3    3    0    0  0.71973609826E+01  0.17635872727E+01 -0.21141024963E+02  0.22402124496E+02  0.51100000000E-03 0. -1.
        -12    1    3    3    0    0 -0.43407704895E+00  0.83207712270E+00 -0.20605135297E+00  0.96084982313E+00  0.00000000000E+00 0.  1.
</event>
<event>
 7    1  0.4194672E-008  0.4614232E+02  0.7816164E-02  0.1320468E+00
        -11   -1    0    0    0    0  0.00000000000E+00  0.00000000000E+00  0.45593999997E+02  0.45594000000E+02  0.51100000000E-03 0.  1.
         11   -1    0    0    0    0 -0.00000000000E+00 -0.00000000000E+00 -0.45593999997E+02  0.45594000000E+02  0.51100000000E-03 0. -1.
    9900012    2    1    2    0    0 -0.23529963817E+02  0.12571541571E+02 -0.36296151447E+02  0.46142318026E+02  0.10000002414E+02 0.  0.
        -12    1    1    2    0    0  0.23529963817E+02 -0.12571541571E+02  0.36296151447E+02  0.45045681974E+02  0.00000000000E+00 0.  1.
         11    1    3    3    0    0 -0.12741231537E+02  0.28122829878E+01 -0.22269568607E+02  0.25810494046E+02  0.51100000000E-03 0.  1.
        -11    1    3    3    0    0 -0.49890705029E+01  0.44612205594E+01 -0.80041884686E+01  0.10433616184E+02  0.51100000000E-03 0. -1.
        -12    1    3    3    0    0 -0.57996617769E+01  0.52980380234E+01 -0.60223943712E+01  0.98982077967E+01  0.00000000000E+00 0.  1.
</event>
<event>
 7    1  0.4194672E-008  0.4614232E+02  0.7816164E-02  0.1320468E+00
        -11   -1    0    0    0    0  0.00000000000E+00  0.00000000000E+00  0.45593999997E+02  0.45594000000E+02  0.51100000000E-03 0.  1.
         11   -1    0    0    0    0 -0.00000000000E+00 -0.00000000000E+00 -0.45593999997E+02  0.45594000000E+02  0.51100000000E-03 0. -1.
    9900012    2    1    2    0    0 -0.16288280699E+02 -0.41964680434E+02 -0.16646154374E+01  0.46142318336E+02  0.10000005241E+02 0.  0.
        -12    1    1    2    0    0  0.16288280699E+02  0.41964680434E+02  0.16646154374E+01  0.45045681664E+02  0.00000000000E+00 0.  1.
         11    1    3    3    0    0 -0.58423771849E+01 -0.10685036489E+02 -0.29229250880E+01  0.12523851934E+02  0.51100000000E-03 0. -1.
        -11    1    3    3    0    0 -0.92200755591E+01 -0.23115603045E+02 -0.14533777363E+01  0.24928963167E+02  0.51100000000E-03 0.  1.
        -12    1    3    3    0    0 -0.12258279549E+01 -0.81640408993E+01  0.27116873870E+01  0.86895032347E+01  0.00000000000E+00 0.  1.
</event>
<event>
 7    1  0.4194672E-008  0.4614232E+02  0.7816164E-02  0.1320468E+00
        -11   -1    0    0    0    0  0.00000000000E+00  0.00000000000E+00  0.45593999997E+02  0.45594000000E+02  0.51100000000E-03 0. -1.
         11   -1    0    0    0    0 -0.00000000000E+00 -0.00000000000E+00 -0.45593999997E+02  0.45594000000E+02  0.51100000000E-03 0.  1.
    9900012    2    1    2    0    0 -0.11823201909E+02  0.40845431500E+02  0.14865272251E+02  0.46142315447E+02  0.99999788952E+01 0.  0.
        -12    1    1    2    0    0  0.11823201909E+02 -0.40845431500E+02 -0.14865272251E+02  0.45045684553E+02  0.00000000000E+00 0.  1.
         11    1    3    3    0    0 -0.55505668602E+01  0.14905005061E+02  0.43448069811E+01  0.16487732297E+02  0.51100000000E-03 0. -1.
        -11    1    3    3    0    0 -0.46484173345E+01  0.91146046424E+01  0.10677351036E+01  0.10287072471E+02  0.51100000000E-03 0.  1.
         12    1    3    3    0    0 -0.16242177145E+01  0.16825821796E+02  0.94527301660E+01  0.19367510679E+02  0.00000000000E+00 0. -1.
</event>
<event>
 7    1  0.4194672E-008  0.4614232E+02  0.7816164E-02  0.1320468E+00
        -11   -1    0    0    0    0  0.00000000000E+00  0.00000000000E+00  0.45593999997E+02  0.45594000000E+02  0.51100000000E-03 0. -1.
         11   -1    0    0    0    0 -0.00000000000E+00 -0.00000000000E+00 -0.45593999997E+02  0.45594000000E+02  0.51100000000E-03 0.  1.
    9900012    2    1    2    0    0 -0.29442769329E+02  0.11920249874E+02  0.31939700135E+02  0.46142317992E+02  0.10000002109E+02 0.  0.
        -12    1    1    2    0    0  0.29442769329E+02 -0.11920249874E+02 -0.31939700135E+02  0.45045682008E+02  0.00000000000E+00 0.  1.
         11    1    3    3    0    0 -0.90297757705E+01  0.12465232602E+01  0.59734186640E+01  0.10898275162E+02  0.51100000000E-03 0. -1.
        -11    1    3    3    0    0 -0.30214488257E+01  0.34240558323E+01  0.26999215344E+01  0.53049870784E+01  0.51100000000E-03 0.  1.
         12    1    3    3    0    0 -0.17391544733E+02  0.72496707819E+01  0.23266359937E+02  0.29939055752E+02  0.00000000000E+00 0. -1.
</event>
<event>
 7    1  0.4194672E-008  0.4614232E+02  0.7816164E-02  0.1320468E+00
        -11   -1    0    0    0    0  0.00000000000E+00  0.00000000000E+00  0.45593999997E+02  0.45594000000E+02  0.51100000000E-03 0. -1.
         11   -1    0    0    0    0 -0.00000000000E+00 -0.00000000000E+00 -0.45593999997E+02  0.45594000000E+02  0.51100000000E-03 0.  1.
    9900012    2    1    2    0    0  0.21148031894E+02 -0.39141099347E+02  0.70603448915E+01  0.46142318952E+02  0.10000010856E+02 0.  0.
        -12    1    1    2    0    0 -0.21148031894E+02  0.39141099347E+02 -0.70603448915E+01  0.45045681048E+02  0.00000000000E+00 0.  1.
         11    1    3    3    0    0  0.12209539302E+02 -0.23938439621E+02  0.58169402589E+01  0.27494700138E+02  0.51100000000E-03 0. -1.
        -11    1    3    3    0    0  0.97516830425E+01 -0.12957579084E+02  0.10127204755E+01  0.16248685513E+02  0.51100000000E-03 0.  1.
        -12    1    3    3    0    0 -0.81319045026E+00 -0.22450806426E+01  0.23068415711E+00  0.23989333005E+01  0.00000000000E+00 0.  1.
</event>
<event>
 7    1  0.4194672E-008  0.4614232E+02  0.7816164E-02  0.1320468E+00
        -11   -1    0    0    0    0  0.00000000000E+00  0.00000000000E+00  0.45593999997E+02  0.45594000000E+02  0.51100000000E-03 0.  1.
         11   -1    0    0    0    0 -0.00000000000E+00 -0.00000000000E+00 -0.45593999997E+02  0.45594000000E+02  0.51100000000E-03 0. -1.
    9900012    2    1    2    0    0 -0.74691879669E+01  0.32441572516E+02 -0.30345825292E+02  0.46142317533E+02  0.99999979216E+01 0.  0.
        -12    1    1    2    0    0  0.74691879669E+01 -0.32441572516E+02  0.30345825292E+02  0.45045682467E+02  0.00000000000E+00 0.  1.
         11    1    3    3    0    0 -0.12277628034E+01  0.70835190692E+01 -0.11518603257E+02  0.13577991941E+02  0.51100000000E-03 0. -1.
        -11    1    3    3    0    0 -0.17241352384E+01  0.16727580869E+02 -0.12404511321E+02  0.20896327558E+02  0.51100000000E-03 0.  1.
         12    1    3    3    0    0 -0.45172899251E+01  0.86304725782E+01 -0.64227107147E+01  0.11667998034E+02  0.00000000000E+00 0. -1.
</event>
<event>
 7    1  0.4194672E-008  0.4614232E+02  0.7816164E-02  0.1320468E+00
        -11   -1    0    0    0    0  0.00000000000E+00  0.00000000000E+00  0.45593999997E+02  0.45594000000E+02  0.51100000000E-03 0. -1.
         11   -1    0    0    0    0 -0.00000000000E+00 -0.00000000000E+00 -0.45593999997E+02  0.45594000000E+02  0.51100000000E-03 0.  1.
    9900012    2    1    2    0    0  0.22943271397E+02 -0.60765853037E+01  0.38285700842E+02  0.46142317850E+02  0.10000000814E+02 0.  0.
        -12    1    1    2    0    0 -0.22943271397E+02  0.60765853037E+01 -0.38285700842E+02  0.45045682150E+02  0.00000000000E+00 0.  1.
         11    1    3    3    0    0  0.12504728815E+01 -0.18343326554E+01  0.12993354697E+01  0.25723008459E+01  0.51100000000E-03 0.  1.
        -11    1    3    3    0    0  0.74420410664E+01  0.11960922666E+01  0.94138712057E+01  0.12059667627E+02  0.51100000000E-03 0. -1.
         12    1    3    3    0    0  0.14250757449E+02 -0.54383449148E+01  0.27572494167E+02  0.31510349377E+02  0.00000000000E+00 0. -1.
</event>
<event>
 7    1  0.4194672E-008  0.4614232E+02  0.7816164E-02  0.1320468E+00
        -11   -1    0    0    0    0  0.00000000000E+00  0.00000000000E+00  0.45593999997E+02  0.45594000000E+02  0.51100000000E-03 0.  1.
         11   -1    0    0    0    0 -0.00000000000E+00 -0.00000000000E+00 -0.45593999997E+02  0.45594000000E+02  0.51100000000E-03 0. -1.
    9900012    2    1    2    0    0  0.29186168206E+00  0.16982381930E+01 -0.45012712663E+02  0.46142317660E+02  0.99999990780E+01 0.  0.
        -12    1    1    2    0    0 -0.29186168206E+00 -0.16982381930E+01  0.45012712663E+02  0.45045682340E+02  0.00000000000E+00 0.  1.
         11    1    3    3    0    0  0.14424209119E+01 -0.20709703594E+01 -0.21653255755E+02  0.21799839022E+02  0.51100000000E-03 0. -1.
        -11    1    3    3    0    0  0.22388444813E+01  0.20765803463E+01 -0.99374481150E+01  0.10396032216E+02  0.51100000000E-03 0.  1.
        -12    1    3    3    0    0 -0.33894037112E+01  0.16926282062E+01 -0.13422008793E+02  0.13946446422E+02  0.00000000000E+00 0.  1.
</event>
<event>
 7    1  0.4194672E-008  0.4614232E+02  0.7816164E-02  0.1320468E+00
        -11   -1    0    0    0    0  0.00000000000E+00  0.00000000000E+00  0.45593999997E+02  0.45594000000E+02  0.51100000000E-03 0. -1.
         11   -1    0    0    0    0 -0.00000000000E+00 -0.00000000000E+00 -0.45593999997E+02  0.45594000000E+02  0.51100000000E-03 0.  1.
    9900012    2    1    2    0    0 -0.91800687926E+01 -0.30453135041E+02  0.31897433300E+02  0.46142319319E+02  0.10000014208E+02 0.  0.
        -12    1    1    2    0    0  0.91800687926E+01  0.30453135041E+02 -0.31897433300E+02  0.45045680681E+02  0.00000000000E+00 0.  1.
         11    1    3    3    0    0  0.15907724025E+00 -0.26537715119E+01  0.29017459455E+01  0.39354718395E+01  0.51100000000E-03 0. -1.
        -11    1    3    3    0    0 -0.36294535153E+01 -0.22781869358E+02  0.21762322852E+02  0.31714116737E+02  0.51100000000E-03 0.  1.
         12    1    3    3    0    0 -0.57096925176E+01 -0.50174941712E+01  0.72333645027E+01  0.10492730742E+02  0.00000000000E+00 0. -1.
</event>
<event>
 7    1  0.4194672E-008  0.4614232E+02  0.7816164E-02  0.1320468E+00
        -11   -1    0    0    0    0  0.00000000000E+00  0.00000000000E+00  0.45593999997E+02  0.45594000000E+02  0.51100000000E-03 0.  1.
         11   -1    0    0    0    0 -0.00000000000E+00 -0.00000000000E+00 -0.45593999997E+02  0.45594000000E+02  0.51100000000E-03 0. -1.
    9900012    2    1    2    0    0 -0.26902667206E+01 -0.28453974083E+02 -0.34817342180E+02  0.46142317714E+02  0.99999995705E+01 0.  0.
        -12    1    1    2    0    0  0.26902667206E+01  0.28453974083E+02  0.34817342180E+02  0.45045682286E+02  0.00000000000E+00 0.  1.
         11    1    3    3    0    0 -0.12481752460E+01 -0.25977098409E+01 -0.28206030692E+01  0.40325971529E+01  0.51100000000E-03 0. -1.
        -11    1    3    3    0    0 -0.39801039353E+01 -0.20331480912E+02 -0.20733002870E+02  0.29309857586E+02  0.51100000000E-03 0.  1.
         12    1    3    3    0    0  0.25380124607E+01 -0.55247833296E+01 -0.11263736241E+02  0.12799862975E+02  0.00000000000E+00 0. -1.
</event>
<event>
 7    1  0.4194672E-008  0.4614232E+02  0.7816164E-02  0.1320468E+00
        -11   -1    0    0    0    0  0.00000000000E+00  0.00000000000E+00  0.45593999997E+02  0.45594000000E+02  0.51100000000E-03 0.  1.
         11   -1    0    0    0    0 -0.00000000000E+00 -0.00000000000E+00 -0.45593999997E+02  0.45594000000E+02  0.51100000000E-03 0. -1.
    9900012    2    1    2    0    0 -0.67143520832E+01 -0.41520545976E+02 -0.16126841370E+02  0.46142320134E+02  0.10000021637E+02 0.  0.
        -12    1    1    2    0    0  0.67143520832E+01  0.41520545976E+02  0.16126841370E+02  0.45045679866E+02  0.00000000000E+00 0.  1.
         11    1    3    3    0    0 -0.68163110484E+01 -0.26775724997E+02 -0.11066954441E+02  0.29763719968E+02  0.51100000000E-03 0. -1.
        -11    1    3    3    0    0 -0.15961641476E+01 -0.68192095167E+01 -0.36821022899E+00  0.70131973773E+01  0.51100000000E-03 0.  1.
         12    1    3    3    0    0  0.16981231127E+01 -0.79256114618E+01 -0.46916766997E+01  0.93654027892E+01  0.00000000000E+00 0. -1.
</event>
<event>
 7    1  0.4194672E-008  0.4614232E+02  0.7816164E-02  0.1320468E+00
        -11   -1    0    0    0    0  0.00000000000E+00  0.00000000000E+00  0.45593999997E+02  0.45594000000E+02  0.51100000000E-03 0. -1.
         11   -1    0    0    0    0 -0.00000000000E+00 -0.00000000000E+00 -0.45593999997E+02  0.45594000000E+02  0.51100000000E-03 0.  1.
    9900012    2    1    2    0    0  0.10732924567E+02  0.43738024169E+02 -0.95031317303E+00  0.46142317376E+02  0.99999964862E+01 0.  0.
        -12    1    1    2    0    0 -0.10732924567E+02 -0.43738024169E+02  0.95031317303E+00  0.45045682624E+02  0.00000000000E+00 0.  1.
         11    1    3    3    0    0  0.47696603831E+01  0.11857691360E+02 -0.31980041404E+01  0.13175042137E+02  0.51100000000E-03 0. -1.
        -11    1    3    3    0    0  0.14903943461E+01  0.21933830392E+02  0.15588031662E+01  0.22039602051E+02  0.51100000000E-03 0.  1.
         12    1    3    3    0    0  0.44728698380E+01  0.99465024166E+01  0.68888780119E+00  0.10927673188E+02  0.00000000000E+00 0. -1.
</event>
<event>
 7    1  0.4194672E-008  0.4614232E+02  0.7816164E-02  0.1320468E+00
        -11   -1    0    0    0    0  0.00000000000E+00  0.00000000000E+00  0.45593999997E+02  0.45594000000E+02  0.51100000000E-03 0.  1.
         11   -1    0    0    0    0 -0.00000000000E+00 -0.00000000000E+00 -0.45593999997E+02  0.45594000000E+02  0.51100000000E-03 0. -1.
    9900012    2    1    2    0    0 -0.94903034628E+01 -0.42621019589E+02 -0.11067806930E+02  0.46142317400E+02  0.99999967109E+01 0.  0.
        -12    1    1    2    0    0  0.94903034628E+01  0.42621019589E+02  0.11067806930E+02  0.45045682600E+02  0.00000000000E+00 0.  1.
         11    1    3    3    0    0 -0.57452085166E+01 -0.15977350447E+02 -0.45033931261E+01  0.17565981274E+02  0.51100000000E-03 0. -1.
        -11    1    3    3    0    0 -0.30332703616E+01 -0.67425654119E+01  0.58851327083E+00  0.74168231441E+01  0.51100000000E-03 0.  1.
        -12    1    3    3    0    0 -0.71182458461E+00 -0.19901103730E+02 -0.71529270746E+01  0.21159512982E+02  0.00000000000E+00 0.  1.
</event>
<event>
 7    1  0.4194672E-008  0.4614232E+02  0.7816164E-02  0.1320468E+00
        -11   -1    0    0    0    0  0.00000000000E+00  0.00000000000E+00  0.45593999997E+02  0.45594000000E+02  0.51100000000E-03 0.  1.
         11   -1    0    0    0    0 -0.00000000000E+00 -0.00000000000E+00 -0.45593999997E+02  0.45594000000E+02  0.51100000000E-03 0. -1.
    9900012    2    1    2    0    0  0.18371783583E+02  0.94763111417E+00 -0.41118038160E+02  0.46142317645E+02  0.99999989372E+01 0.  0.
        -12    1    1    2    0    0 -0.18371783583E+02 -0.94763111417E+00  0.41118038160E+02  0.45045682355E+02  0.00000000000E+00 0.  1.
         11    1    3    3    0    0  0.25175259668E+01 -0.16433412973E+01 -0.36513352878E+01  0.47297734891E+01  0.51100000000E-03 0. -1.
        -11    1    3    3    0    0  0.21199777649E+01 -0.92956592273E+00 -0.15161588910E+01  0.27671531530E+01  0.51100000000E-03 0.  1.
         12    1    3    3    0    0  0.13734279851E+02  0.35205383342E+01 -0.35950543981E+02  0.38645391002E+02  0.00000000000E+00 0. -1.
</event>
<event>
 7    1  0.4194672E-008  0.4614232E+02  0.7816164E-02  0.1320468E+00
        -11   -1    0    0    0    0  0.00000000000E+00  0.00000000000E+00  0.45593999997E+02  0.45594000000E+02  0.51100000000E-03 0.  1.
         11   -1    0    0    0    0 -0.00000000000E+00 -0.00000000000E+00 -0.45593999997E+02  0.45594000000E+02  0.51100000000E-03 0. -1.
    9900012    2    1    2    0    0 -0.11109831920E+02 -0.42144240976E+02 -0.11381912944E+02  0.46142319241E+02  0.10000013498E+02 0.  0.
        -12    1    1    2    0    0  0.11109831920E+02  0.42144240976E+02  0.11381912944E+02  0.45045680759E+02  0.00000000000E+00 0.  1.
         11    1    3    3    0    0 -0.77209067093E+01 -0.15829237588E+02 -0.43271071236E+01  0.18135628452E+02  0.51100000000E-03 0. -1.
        -11    1    3    3    0    0 -0.21853870962E+01 -0.68630911739E+01  0.21498926856E+00  0.72058419264E+01  0.51100000000E-03 0.  1.
        -12    1    3    3    0    0 -0.12035381143E+01 -0.19451912214E+02 -0.72697950885E+01  0.20800848863E+02  0.00000000000E+00 0.  1.
</event>
<event>
 7    1  0.4194672E-008  0.4614232E+02  0.7816164E-02  0.1320468E+00
        -11   -1    0    0    0    0  0.00000000000E+00  0.00000000000E+00  0.45593999997E+02  0.45594000000E+02  0.51100000000E-03 0.  1.
         11   -1    0    0    0    0 -0.00000000000E+00 -0.00000000000E+00 -0.45593999997E+02  0.45594000000E+02  0.51100000000E-03 0. -1.
    9900012    2    1    2    0    0 -0.21661712586E+02 -0.38512209095E+02 -0.87574790412E+01  0.46142317846E+02  0.10000000778E+02 0.  0.
        -12    1    1    2    0    0  0.21661712586E+02  0.38512209095E+02  0.87574790412E+01  0.45045682154E+02  0.00000000000E+00 0.  1.
         11    1    3    3    0    0 -0.15985225086E+02 -0.32662799408E+02 -0.55268002725E+01  0.36782215916E+02  0.51100000000E-03 0. -1.
        -11    1    3    3    0    0 -0.42119811581E+01 -0.59050926774E+01 -0.22408750649E+01  0.75916023422E+01  0.51100000000E-03 0.  1.
        -12    1    3    3    0    0 -0.14645063420E+01  0.55682990105E-01 -0.98980370381E+00  0.17684995881E+01  0.00000000000E+00 0.  1.
</event>
<event>
 7    1  0.4194672E-008  0.4614232E+02  0.7816164E-02  0.1320468E+00
        -11   -1    0    0    0    0  0.00000000000E+00  0.00000000000E+00  0.45593999997E+02  0.45594000000E+02  0.51100000000E-03 0.  1.
         11   -1    0    0    0    0 -0.00000000000E+00 -0.00000000000E+00 -0.45593999997E+02  0.45594000000E+02  0.51100000000E-03 0. -1.
    9900012    2    1    2    0    0 -0.37773300446E+02 -0.23590774055E+02  0.67651093999E+01  0.46142317052E+02  0.99999935300E+01 0.  0.
        -12    1    1    2    0    0  0.37773300446E+02  0.23590774055E+02 -0.67651093999E+01  0.45045682948E+02  0.00000000000E+00 0.  1.
         11    1    3    3    0    0 -0.10237120350E+02 -0.62513641561E+01  0.26942415718E+01  0.12293783990E+02  0.51100000000E-03 0. -1.
        -11    1    3    3    0    0 -0.58641503350E+01 -0.46500991240E+01  0.44970352576E+01  0.87312660814E+01  0.51100000000E-03 0.  1.
         12    1    3    3    0    0 -0.21672029760E+02 -0.12689310775E+02 -0.42616742952E+00  0.25117266980E+02  0.00000000000E+00 0. -1.
</event>
<event>
 7    1  0.4194672E-008  0.4614232E+02  0.7816164E-02  0.1320468E+00
        -11   -1    0    0    0    0  0.00000000000E+00  0.00000000000E+00  0.45593999997E+02  0.45594000000E+02  0.51100000000E-03 0.  1.
         11   -1    0    0    0    0 -0.00000000000E+00 -0.00000000000E+00 -0.45593999997E+02  0.45594000000E+02  0.51100000000E-03 0. -1.
    9900012    2    1    2    0    0  0.22858484324E+00  0.30380426793E+02 -0.33257946304E+02  0.46142316794E+02  0.99999911796E+01 0.  0.
        -12    1    1    2    0    0 -0.22858484324E+00 -0.30380426793E+02  0.33257946304E+02  0.45045683206E+02  0.00000000000E+00 0.  1.
         11    1    3    3    0    0  0.35150442689E+01  0.12179441850E+02 -0.93230679617E+01  0.15735753444E+02  0.51100000000E-03 0. -1.
        -11    1    3    3    0    0 -0.12702955815E+01  0.17928693074E+01 -0.23324170892E+01  0.32044033699E+01  0.51100000000E-03 0.  1.
         12    1    3    3    0    0 -0.20161638442E+01  0.16408115636E+02 -0.21602461253E+02  0.27202159979E+02  0.00000000000E+00 0. -1.
</event>
<event>
 7    1  0.4194672E-008  0.4614232E+02  0.7816164E-02  0.1320468E+00
        -11   -1    0    0    0    0  0.00000000000E+00  0.00000000000E+00  0.45593999997E+02  0.45594000000E+02  0.51100000000E-03 0.  1.
         11   -1    0    0    0    0 -0.00000000000E+00 -0.00000000000E+00 -0.45593999997E+02  0.45594000000E+02  0.51100000000E-03 0. -1.
    9900012    2    1    2    0    0 -0.34825039051E+02 -0.13717273695E+02 -0.25063250496E+02  0.46142317987E+02  0.10000002063E+02 0.  0.
        -12    1    1    2    0    0  0.34825039051E+02  0.13717273695E+02  0.25063250496E+02  0.45045682013E+02  0.00000000000E+00 0.  1.
         11    1    3    3    0    0 -0.21097881910E+02 -0.74456518653E+01 -0.19176860354E+02  0.29467105831E+02  0.51100000000E-03 0. -1.
        -11    1    3    3    0    0 -0.78435954795E+01 -0.32760333844E+01 -0.12131501162E+01  0.85863914567E+01  0.51100000000E-03 0.  1.
        -12    1    3    3    0    0 -0.58835616618E+01 -0.29955884456E+01 -0.46732400266E+01  0.80888206995E+01  0.00000000000E+00 0.  1.
</event>
<event>
 7    1  0.4194672E-008  0.4614232E+02  0.7816164E-02  0.1320468E+00
        -11   -1    0    0    0    0  0.00000000000E+00  0.00000000000E+00  0.45593999997E+02  0.45594000000E+02  0.51100000000E-03 0.  1.
         11   -1    0    0    0    0 -0.00000000000E+00 -0.00000000000E+00 -0.45593999997E+02  0.45594000000E+02  0.51100000000E-03 0. -1.
    9900012    2    1    2    0    0 -0.94637233318E+01 -0.18551258521E+02 -0.39942485651E+02  0.46142318609E+02  0.10000007728E+02 0.  0.
        -12    1    1    2    0    0  0.94637233318E+01  0.18551258521E+02  0.39942485651E+02  0.45045681391E+02  0.00000000000E+00 0.  1.
         11    1    3    3    0    0 -0.78680179973E+01 -0.84591183250E+01 -0.22733712721E+02  0.25500668313E+02  0.51100000000E-03 0.  1.
        -11    1    3    3    0    0 -0.32887411511E+01 -0.52593743912E+01 -0.82374660173E+01  0.10311774047E+02  0.51100000000E-03 0. -1.
        -12    1    3    3    0    0  0.16930358166E+01 -0.48327658045E+01 -0.89713069126E+01  0.10329876249E+02  0.00000000000E+00 0.  1.
</event>
<event>
 7    1  0.4194672E-008  0.4614232E+02  0.7816164E-02  0.1320468E+00
        -11   -1    0    0    0    0  0.00000000000E+00  0.00000000000E+00  0.45593999997E+02  0.45594000000E+02  0.51100000000E-03 0.  1.
         11   -1    0    0    0    0 -0.00000000000E+00 -0.00000000000E+00 -0.45593999997E+02  0.45594000000E+02  0.51100000000E-03 0. -1.
    9900012    2    1    2    0    0  0.10428662124E+02 -0.26465833348E+02 -0.34927299413E+02  0.46142316824E+02  0.99999914558E+01 0.  0.
        -12    1    1    2    0    0 -0.10428662124E+02  0.26465833348E+02  0.34927299413E+02  0.45045683176E+02  0.00000000000E+00 0.  1.
         11    1    3    3    0    0  0.14486605802E+01 -0.53899647065E+01 -0.10694596179E+02  0.12063362911E+02  0.51100000000E-03 0. -1.
        -11    1    3    3    0    0  0.20754896542E+01 -0.11622727636E+02 -0.88840958022E+01  0.14775744093E+02  0.51100000000E-03 0.  1.
        -12    1    3    3    0    0  0.69045118899E+01 -0.94531410051E+01 -0.15348607432E+02  0.19303209821E+02  0.00000000000E+00 0.  1.
</event>
<event>
 7    1  0.4194672E-008  0.4614232E+02  0.7816164E-02  0.1320468E+00
        -11   -1    0    0    0    0  0.00000000000E+00  0.00000000000E+00  0.45593999997E+02  0.45594000000E+02  0.51100000000E-03 0. -1.
         11   -1    0    0    0    0 -0.00000000000E+00 -0.00000000000E+00 -0.45593999997E+02  0.45594000000E+02  0.51100000000E-03 0.  1.
    9900012    2    1    2    0    0  0.10735890485E+02  0.28397006622E+02  0.33278583954E+02  0.46142317859E+02  0.10000000889E+02 0.  0.
        -12    1    1    2    0    0 -0.10735890485E+02 -0.28397006622E+02 -0.33278583954E+02  0.45045682141E+02  0.00000000000E+00 0.  1.
         11    1    3    3    0    0  0.11209557922E+01  0.29304650047E+01  0.28791678840E+01  0.42583770380E+01  0.51100000000E-03 0. -1.
        -11    1    3    3    0    0  0.39202203477E+01  0.13848448731E+02  0.93083314641E+01  0.17140381989E+02  0.51100000000E-03 0.  1.
        -12    1    3    3    0    0  0.56947143452E+01  0.11618092886E+02  0.21091084606E+02  0.24743558831E+02  0.00000000000E+00 0.  1.
</event>
<event>
 7    1  0.4194672E-008  0.4614232E+02  0.7816164E-02  0.1320468E+00
        -11   -1    0    0    0    0  0.00000000000E+00  0.00000000000E+00  0.45593999997E+02  0.45594000000E+02  0.51100000000E-03 0.  1.
         11   -1    0    0    0    0 -0.00000000000E+00 -0.00000000000E+00 -0.45593999997E+02  0.45594000000E+02  0.51100000000E-03 0. -1.
    9900012    2    1    2    0    0  0.15437381956E+02 -0.14928222442E+02 -0.39597332287E+02  0.46142319728E+02  0.10000017934E+02 0.  0.
        -12    1    1    2    0    0 -0.15437381956E+02  0.14928222442E+02  0.39597332287E+02  0.45045680272E+02  0.00000000000E+00 0.  1.
         11    1    3    3    0    0  0.16086605930E+01 -0.26366146258E+01 -0.50991837520E+01  0.59616441345E+01  0.51100000000E-03 0. -1.
        -11    1    3    3    0    0  0.11690542725E+02 -0.13297546515E+02 -0.32789927116E+02  0.37264901087E+02  0.51100000000E-03 0.  1.
        -12    1    3    3    0    0  0.21381786378E+01  0.10059386988E+01 -0.17082214193E+01  0.29157745061E+01  0.00000000000E+00 0.  1.
</event>
<event>
 7    1  0.4194672E-008  0.4614232E+02  0.7816164E-02  0.1320468E+00
        -11   -1    0    0    0    0  0.00000000000E+00  0.00000000000E+00  0.45593999997E+02  0.45594000000E+02  0.51100000000E-03 0.  1.
         11   -1    0    0    0    0 -0.00000000000E+00 -0.00000000000E+00 -0.45593999997E+02  0.45594000000E+02  0.51100000000E-03 0. -1.
    9900012    2    1    2    0    0 -0.42253967165E+02 -0.15546191663E+02  0.14253625018E+01  0.46142317913E+02  0.10000001385E+02 0.  0.
        -12    1    1    2    0    0  0.42253967165E+02  0.15546191663E+02 -0.14253625018E+01  0.45045682087E+02  0.00000000000E+00 0.  1.
         11    1    3    3    0    0 -0.19252472121E+02 -0.75270969720E+01 -0.24943916977E+01  0.20821548016E+02  0.51100000000E-03 0. -1.
        -11    1    3    3    0    0 -0.14017791985E+02 -0.43814079334E+01 -0.43989725521E+00  0.14693152741E+02  0.51100000000E-03 0.  1.
        -12    1    3    3    0    0 -0.89837030598E+01 -0.36376867578E+01  0.43596514547E+01  0.10627617156E+02  0.00000000000E+00 0.  1.
</event>
<event>
 7    1  0.4194672E-008  0.4614231E+02  0.7816164E-02  0.1320468E+00
        -11   -1    0    0    0    0  0.00000000000E+00  0.00000000000E+00  0.45593999997E+02  0.45594000000E+02  0.51100000000E-03 0.  1.
         11   -1    0    0    0    0 -0.00000000000E+00 -0.00000000000E+00 -0.45593999997E+02  0.45594000000E+02  0.51100000000E-03 0. -1.
    9900012    2    1    2    0    0  0.11165155869E+02  0.21516520262E+02 -0.37967002293E+02  0.46142305279E+02  0.99998861793E+01 0.  0.
        -12    1    1    2    0    0 -0.11165155869E+02 -0.21516520262E+02  0.37967002293E+02  0.45045694721E+02  0.00000000000E+00 0.  1.
         11    1    3    3    0    0 -0.18123227776E-01  0.54035110831E+01 -0.44464022009E+01  0.69977677348E+01  0.51100000000E-03 0. -1.
        -11    1    3    3    0    0  0.40570270539E+01  0.67671796655E+01 -0.91087131018E+01  0.12050844110E+02  0.51100000000E-03 0.  1.
         12    1    3    3    0    0  0.71262520433E+01  0.93458295136E+01 -0.24411886990E+02  0.27093693434E+02  0.00000000000E+00 0. -1.
</event>
<event>
 7    1  0.4194672E-008  0.4614232E+02  0.7816164E-02  0.1320468E+00
        -11   -1    0    0    0    0  0.00000000000E+00  0.00000000000E+00  0.45593999997E+02  0.45594000000E+02  0.51100000000E-03 0.  1.
         11   -1    0    0    0    0 -0.00000000000E+00 -0.00000000000E+00 -0.45593999997E+02  0.45594000000E+02  0.51100000000E-03 0. -1.
    9900012    2    1    2    0    0 -0.25249125339E+02 -0.94234831290E+01 -0.36094225719E+02  0.46142317689E+02  0.99999993385E+01 0.  0.
        -12    1    1    2    0    0  0.25249125339E+02  0.94234831290E+01  0.36094225719E+02  0.45045682311E+02  0.00000000000E+00 0.  1.
         11    1    3    3    0    0 -0.49326039098E+01 -0.58852800715E+01 -0.93380400799E+01  0.12089917107E+02  0.51100000000E-03 0. -1.
        -11    1    3    3    0    0 -0.24590481716E+01  0.88378848728E+00 -0.25746070381E+01  0.36683240945E+01  0.51100000000E-03 0.  1.
        -12    1    3    3    0    0 -0.17857473257E+02 -0.44219915447E+01 -0.24181578601E+02  0.30384076487E+02  0.00000000000E+00 0.  1.
</event>
<event>
 7    1  0.4194672E-008  0.4614232E+02  0.7816164E-02  0.1320468E+00
        -11   -1    0    0    0    0  0.00000000000E+00  0.00000000000E+00  0.45593999997E+02  0.45594000000E+02  0.51100000000E-03 0.  1.
         11   -1    0    0    0    0 -0.00000000000E+00 -0.00000000000E+00 -0.45593999997E+02  0.45594000000E+02  0.51100000000E-03 0. -1.
    9900012    2    1    2    0    0 -0.15905458920E+02  0.10384956097E+02 -0.40844614999E+02  0.46142317510E+02  0.99999977064E+01 0.  0.
        -12    1    1    2    0    0  0.15905458920E+02 -0.10384956097E+02  0.40844614999E+02  0.45045682490E+02  0.00000000000E+00 0.  1.
         11    1    3    3    0    0 -0.68123868921E+01 -0.73253718598E+00 -0.13058160461E+02  0.14746551488E+02  0.51100000000E-03 0. -1.
        -11    1    3    3    0    0 -0.16841057202E+01  0.24918196536E+01 -0.83808302592E+01  0.89041391138E+01  0.51100000000E-03 0.  1.
         12    1    3    3    0    0 -0.74089663077E+01  0.86256736295E+01 -0.19405624279E+02  0.22491626908E+02  0.00000000000E+00 0. -1.
</event>
<event>
 7    1  0.4194672E-008  0.4614232E+02  0.7816164E-02  0.1320468E+00
        -11   -1    0    0    0    0  0.00000000000E+00  0.00000000000E+00  0.45593999997E+02  0.45594000000E+02  0.51100000000E-03 0.  1.
         11   -1    0    0    0    0 -0.00000000000E+00 -0.00000000000E+00 -0.45593999997E+02  0.45594000000E+02  0.51100000000E-03 0. -1.
    9900012    2    1    2    0    0  0.55692578636E+01 -0.11604894892E+02 -0.43167387211E+02  0.46142317219E+02  0.99999950524E+01 0.  0.
        -12    1    1    2    0    0 -0.55692578636E+01  0.11604894892E+02  0.43167387211E+02  0.45045682781E+02  0.00000000000E+00 0.  1.
         11    1    3    3    0    0 -0.13763502248E+00 -0.39466369381E+01 -0.10893990930E+02  0.11587662627E+02  0.51100000000E-03 0. -1.
        -11    1    3    3    0    0  0.21265701663E+01  0.92506369675E-01 -0.14621613408E+01  0.25823969773E+01  0.51100000000E-03 0.  1.
        -12    1    3    3    0    0  0.35803227197E+01 -0.77507643240E+01 -0.30811234940E+02  0.31972257614E+02  0.00000000000E+00 0.  1.
</event>
<event>
 7    1  0.4194672E-008  0.4614232E+02  0.7816164E-02  0.1320468E+00
        -11   -1    0    0    0    0  0.00000000000E+00  0.00000000000E+00  0.45593999997E+02  0.45594000000E+02  0.51100000000E-03 0. -1.
         11   -1    0    0    0    0 -0.00000000000E+00 -0.00000000000E+00 -0.45593999997E+02  0.45594000000E+02  0.51100000000E-03 0.  1.
    9900012    2    1    2    0    0  0.28244233139E+02 -0.64202842641E+00  0.35085102511E+02  0.46142319582E+02  0.10000016604E+02 0.  0.
        -12    1    1    2    0    0 -0.28244233139E+02  0.64202842641E+00 -0.35085102511E+02  0.45045680418E+02  0.00000000000E+00 0.  1.
         11    1    3    3    0    0  0.16423463199E+01  0.17567522968E-01 -0.16596243566E+00  0.16508039991E+01  0.51100000000E-03 0.  1.
        -11    1    3    3    0    0  0.14245301218E+02  0.23123236257E+01  0.18343736641E+02  0.23340268241E+02  0.51100000000E-03 0. -1.
         12    1    3    3    0    0  0.12356585601E+02 -0.29719195751E+01  0.16907328306E+02  0.21151247342E+02  0.00000000000E+00 0. -1.
</event>
<event>
 7    1  0.4194672E-008  0.4614232E+02  0.7816164E-02  0.1320468E+00
        -11   -1    0    0    0    0  0.00000000000E+00  0.00000000000E+00  0.45593999997E+02  0.45594000000E+02  0.51100000000E-03 0.  1.
         11   -1    0    0    0    0 -0.00000000000E+00 -0.00000000000E+00 -0.45593999997E+02  0.45594000000E+02  0.51100000000E-03 0. -1.
    9900012    2    1    2    0    0 -0.22511546211E+02 -0.29566508627E+02 -0.25459089704E+02  0.46142318811E+02  0.10000009574E+02 0.  0.
        -12    1    1    2    0    0  0.22511546211E+02  0.29566508627E+02  0.25459089704E+02  0.45045681189E+02  0.00000000000E+00 0.  1.
         11    1    3    3    0    0 -0.10581867532E+02 -0.13082179479E+02 -0.84459794373E+01  0.18826946361E+02  0.51100000000E-03 0. -1.
        -11    1    3    3    0    0 -0.19279335235E+00  0.13708998952E+00 -0.20367142073E+01  0.20504067804E+01  0.51100000000E-03 0.  1.
         12    1    3    3    0    0 -0.11736885326E+02 -0.16621419138E+02 -0.14976396060E+02  0.25264965669E+02  0.00000000000E+00 0. -1.
</event>
<event>
 7    1  0.4597428E-008  0.4614232E+02  0.7816164E-02  0.1320468E+00
        -11   -1    0    0    0    0  0.00000000000E+00  0.00000000000E+00  0.45593999997E+02  0.45594000000E+02  0.51100000000E-03 0. -1.
         11   -1    0    0    0    0 -0.00000000000E+00 -0.00000000000E+00 -0.45593999997E+02  0.45594000000E+02  0.51100000000E-03 0.  1.
    9900012    2    1    2    0    0 -0.29825023300E+02  0.26285772609E+00  0.33756666577E+02  0.46142315996E+02  0.99999839008E+01 0.  0.
        -12    1    1    2    0    0  0.29825023300E+02 -0.26285772609E+00 -0.33756666577E+02  0.45045684004E+02  0.00000000000E+00 0.  1.
         11    1    3    3    0    0 -0.18661299065E+02 -0.21876810825E+01  0.20847575811E+02  0.28065128697E+02  0.51100000000E-03 0. -1.
        -11    1    3    3    0    0 -0.95710801642E+01  0.91626605104E+00  0.12592042686E+02  0.15843126531E+02  0.51100000000E-03 0.  1.
        -12    1    3    3    0    0 -0.15926440710E+01  0.15342727575E+01  0.31704807938E+00  0.22340607682E+01  0.00000000000E+00 0.  1.
</event>
<event>
 7    1  0.4194672E-008  0.4614232E+02  0.7816164E-02  0.1320468E+00
        -11   -1    0    0    0    0  0.00000000000E+00  0.00000000000E+00  0.45593999997E+02  0.45594000000E+02  0.51100000000E-03 0. -1.
         11   -1    0    0    0    0 -0.00000000000E+00 -0.00000000000E+00 -0.45593999997E+02  0.45594000000E+02  0.51100000000E-03 0.  1.
    9900012    2    1    2    0    0 -0.68307288522E+01 -0.23967654981E+01  0.44460209100E+02  0.46142317247E+02  0.99999953076E+01 0.  0.
        -12    1    1    2    0    0  0.68307288522E+01  0.23967654981E+01 -0.44460209100E+02  0.45045682753E+02  0.00000000000E+00 0.  1.
         11    1    3    3    0    0 -0.53390129944E+00  0.10132420864E+01  0.96423107770E+01  0.97100910142E+01  0.51100000000E-03 0. -1.
        -11    1    3    3    0    0 -0.38976740564E+01  0.21865460659E+01  0.11658768395E+02  0.12485981239E+02  0.51100000000E-03 0.  1.
        -12    1    3    3    0    0 -0.23991534964E+01 -0.55965536504E+01  0.23159129928E+02  0.23946244994E+02  0.00000000000E+00 0.  1.
</event>
<event>
 7    1  0.4194672E-008  0.4614232E+02  0.7816164E-02  0.1320468E+00
        -11   -1    0    0    0    0  0.00000000000E+00  0.00000000000E+00  0.45593999997E+02  0.45594000000E+02  0.51100000000E-03 0.  1.
         11   -1    0    0    0    0 -0.00000000000E+00 -0.00000000000E+00 -0.45593999997E+02  0.45594000000E+02  0.51100000000E-03 0. -1.
    9900012    2    1    2    0    0 -0.26518117867E+02 -0.19422755109E+02 -0.30800317649E+02  0.46142316982E+02  0.99999928981E+01 0.  0.
        -12    1    1    2    0    0  0.26518117867E+02  0.19422755109E+02  0.30800317649E+02  0.45045683018E+02  0.00000000000E+00 0.  1.
         11    1    3    3    0    0 -0.11662455437E+02 -0.62450805600E+01 -0.15260024249E+02  0.20196094632E+02  0.51100000000E-03 0. -1.
        -11    1    3    3    0    0 -0.18950568298E+01  0.28382182664E+00 -0.56010729794E+00  0.19963756319E+01  0.51100000000E-03 0.  1.
         12    1    3    3    0    0 -0.12960605600E+02 -0.13461496375E+02 -0.14980186102E+02  0.23949846718E+02  0.00000000000E+00 0. -1.
</event>
<event>
 7    1  0.4194672E-008  0.4614232E+02  0.7816164E-02  0.1320468E+00
        -11   -1    0    0    0    0  0.00000000000E+00  0.00000000000E+00  0.45593999997E+02  0.45594000000E+02  0.51100000000E-03 0. -1.
         11   -1    0    0    0    0 -0.00000000000E+00 -0.00000000000E+00 -0.45593999997E+02  0.45594000000E+02  0.51100000000E-03 0.  1.
    9900012    2    1    2    0    0 -0.35451489886E+02  0.25513339044E+02  0.11017027286E+02  0.46142317693E+02  0.99999993765E+01 0.  0.
        -12    1    1    2    0    0  0.35451489886E+02 -0.25513339044E+02 -0.11017027286E+02  0.45045682307E+02  0.00000000000E+00 0.  1.
         11    1    3    3    0    0 -0.16361131431E+02  0.16351896493E+02  0.32355272226E+01  0.23356792958E+02  0.51100000000E-03 0.  1.
        -11    1    3    3    0    0 -0.15228249672E+02  0.84749542172E+01  0.70266558455E+01  0.18790910827E+02  0.51100000000E-03 0. -1.
        -12    1    3    3    0    0 -0.38621087829E+01  0.68648833433E+00  0.75484421826E+00  0.39946139085E+01  0.00000000000E+00 0.  1.
</event>
<event>
 7    1  0.4194672E-008  0.4614232E+02  0.7816164E-02  0.1320468E+00
        -11   -1    0    0    0    0  0.00000000000E+00  0.00000000000E+00  0.45593999997E+02  0.45594000000E+02  0.51100000000E-03 0. -1.
         11   -1    0    0    0    0 -0.00000000000E+00 -0.00000000000E+00 -0.45593999997E+02  0.45594000000E+02  0.51100000000E-03 0.  1.
    9900012    2    1    2    0    0  0.70710568394E+00 -0.27289194692E+02  0.35831736487E+02  0.46142317797E+02  0.10000000331E+02 0.  0.
        -12    1    1    2    0    0 -0.70710568394E+00  0.27289194692E+02 -0.35831736487E+02  0.45045682203E+02  0.00000000000E+00 0.  1.
         11    1    3    3    0    0  0.16033002622E+01 -0.88394239918E+01  0.15336355312E+02  0.17773851095E+02  0.51100000000E-03 0. -1.
        -11    1    3    3    0    0 -0.16706903559E+01 -0.15414734107E+02  0.19819948307E+02  0.25164172647E+02  0.51100000000E-03 0.  1.
        -12    1    3    3    0    0  0.77449577760E+00 -0.30350365931E+01  0.67543286843E+00  0.32042940550E+01  0.00000000000E+00 0.  1.
</event>
<event>
 7    1  0.4194672E-008  0.4614232E+02  0.7816164E-02  0.1320468E+00
        -11   -1    0    0    0    0  0.00000000000E+00  0.00000000000E+00  0.45593999997E+02  0.45594000000E+02  0.51100000000E-03 0.  1.
         11   -1    0    0    0    0 -0.00000000000E+00 -0.00000000000E+00 -0.45593999997E+02  0.45594000000E+02  0.51100000000E-03 0. -1.
    9900012    2    1    2    0    0 -0.34221119468E+02 -0.11003037290E+02 -0.27147038393E+02  0.46142317180E+02  0.99999946968E+01 0.  0.
        -12    1    1    2    0    0  0.34221119468E+02  0.11003037290E+02  0.27147038393E+02  0.45045682820E+02  0.00000000000E+00 0.  1.
         11    1    3    3    0    0 -0.15583418107E+02 -0.88222618183E+01 -0.13022958069E+02  0.22142101540E+02  0.51100000000E-03 0.  1.
        -11    1    3    3    0    0 -0.29371537920E+01 -0.13128673149E+01 -0.46095189924E+01  0.56212239403E+01  0.51100000000E-03 0. -1.
         12    1    3    3    0    0 -0.15700547570E+02 -0.86790815661E+00 -0.95145613311E+01  0.18378991699E+02  0.00000000000E+00 0. -1.
</event>
<event>
 7    1  0.4194672E-008  0.4614232E+02  0.7816164E-02  0.1320468E+00
        -11   -1    0    0    0    0  0.00000000000E+00  0.00000000000E+00  0.45593999997E+02  0.45594000000E+02  0.51100000000E-03 0. -1.
         11   -1    0    0    0    0 -0.00000000000E+00 -0.00000000000E+00 -0.45593999997E+02  0.45594000000E+02  0.51100000000E-03 0.  1.
    9900012    2    1    2    0    0  0.24770020736E+02 -0.26838887928E+02 -0.26367288253E+02  0.46142315164E+02  0.99999763202E+01 0.  0.
        -12    1    1    2    0    0 -0.24770020736E+02  0.26838887928E+02  0.26367288253E+02  0.45045684836E+02  0.00000000000E+00 0.  1.
         11    1    3    3    0    0 -0.10172223769E+00  0.24101164156E+00 -0.12929031464E+01  0.13191030408E+01  0.51100000000E-03 0. -1.
        -11    1    3    3    0    0  0.12396039281E+02 -0.10662723795E+02 -0.88963967752E+01  0.18614546581E+02  0.51100000000E-03 0.  1.
         12    1    3    3    0    0  0.12475703693E+02 -0.16417175775E+02 -0.16177988332E+02  0.26208665542E+02  0.00000000000E+00 0. -1.
</event>
<event>
 7    1  0.4194672E-008  0.4614232E+02  0.7816164E-02  0.1320468E+00
        -11   -1    0    0    0    0  0.00000000000E+00  0.00000000000E+00  0.45593999997E+02  0.45594000000E+02  0.51100000000E-03 0. -1.
         11   -1    0    0    0    0 -0.00000000000E+00 -0.00000000000E+00 -0.45593999997E+02  0.45594000000E+02  0.51100000000E-03 0.  1.
    9900012    2    1    2    0    0 -0.71513848353E+01  0.16392989150E+02 -0.41342970888E+02  0.46142316076E+02  0.99999846347E+01 0.  0.
        -12    1    1    2    0    0  0.71513848353E+01 -0.16392989150E+02  0.41342970888E+02  0.45045683924E+02  0.00000000000E+00 0.  1.
         11    1    3    3    0    0 -0.59694619254E+01  0.70896610222E+01 -0.22157182270E+02  0.24017462303E+02  0.51100000000E-03 0. -1.
        -11    1    3    3    0    0 -0.11616801749E+01  0.93866450417E+01 -0.13753197766E+02  0.16691586354E+02  0.51100000000E-03 0.  1.
        -12    1    3    3    0    0 -0.20242734920E-01 -0.83316913621E-01 -0.54325908527E+01  0.54332674193E+01  0.00000000000E+00 0.  1.
</event>
<event>
 7    1  0.4194672E-008  0.4614232E+02  0.7816164E-02  0.1320468E+00
        -11   -1    0    0    0    0  0.00000000000E+00  0.00000000000E+00  0.45593999997E+02  0.45594000000E+02  0.51100000000E-03 0.  1.
         11   -1    0    0    0    0 -0.00000000000E+00 -0.00000000000E+00 -0.45593999997E+02  0.45594000000E+02  0.51100000000E-03 0. -1.
    9900012    2    1    2    0    0 -0.31812938543E+01 -0.21281331244E+02 -0.39573952760E+02  0.46142318441E+02  0.10000006197E+02 0.  0.
        -12    1    1    2    0    0  0.31812938543E+01  0.21281331244E+02  0.39573952760E+02  0.45045681559E+02  0.00000000000E+00 0.  1.
         11    1    3    3    0    0  0.12250644083E+01 -0.63114665807E+01 -0.14134393302E+02  0.15527925409E+02  0.51100000000E-03 0. -1.
        -11    1    3    3    0    0 -0.28708148799E+01 -0.39453858992E+01 -0.13187144420E+02  0.14060882838E+02  0.51100000000E-03 0.  1.
         12    1    3    3    0    0 -0.15355433827E+01 -0.11024478764E+02 -0.12252415037E+02  0.16553510194E+02  0.00000000000E+00 0. -1.
</event>
<event>
 7    1  0.4194672E-008  0.4614232E+02  0.7816164E-02  0.1320468E+00
        -11   -1    0    0    0    0  0.00000000000E+00  0.00000000000E+00  0.45593999997E+02  0.45594000000E+02  0.51100000000E-03 0. -1.
         11   -1    0    0    0    0 -0.00000000000E+00 -0.00000000000E+00 -0.45593999997E+02  0.45594000000E+02  0.51100000000E-03 0.  1.
    9900012    2    1    2    0    0  0.41915053647E+02 -0.11585862862E+02  0.11747736996E+02  0.46142320241E+02  0.10000022611E+02 0.  0.
        -12    1    1    2    0    0 -0.41915053647E+02  0.11585862862E+02 -0.11747736996E+02  0.45045679759E+02  0.00000000000E+00 0.  1.
         11    1    3    3    0    0  0.94659743551E+01 -0.49538325911E+01  0.47258564160E+01  0.11682416144E+02  0.51100000000E-03 0. -1.
        -11    1    3    3    0    0  0.24079974169E+02 -0.25615179000E+01  0.33122670362E+01  0.24441310176E+02  0.51100000000E-03 0.  1.
        -12    1    3    3    0    0  0.83691051222E+01 -0.40705123707E+01  0.37096135437E+01  0.10018593921E+02  0.00000000000E+00 0.  1.
</event>
<event>
 7    1  0.4194672E-008  0.4614232E+02  0.7816164E-02  0.1320468E+00
        -11   -1    0    0    0    0  0.00000000000E+00  0.00000000000E+00  0.45593999997E+02  0.45594000000E+02  0.51100000000E-03 0.  1.
         11   -1    0    0    0    0 -0.00000000000E+00 -0.00000000000E+00 -0.45593999997E+02  0.45594000000E+02  0.51100000000E-03 0. -1.
    9900012    2    1    2    0    0 -0.34782208930E+02  0.10931667246E+02 -0.26453923523E+02  0.46142317892E+02  0.10000001194E+02 0.  0.
        -12    1    1    2    0    0  0.34782208930E+02 -0.10931667246E+02  0.26453923523E+02  0.45045682108E+02  0.00000000000E+00 0.  1.
         11    1    3    3    0    0 -0.14794692684E+02  0.32227514354E+01 -0.12250458086E+02  0.19476724108E+02  0.51100000000E-03 0. -1.
        -11    1    3    3    0    0 -0.11891808165E+01 -0.12660793588E+01 -0.11142634952E+01  0.20636596994E+01  0.51100000000E-03 0.  1.
        -12    1    3    3    0    0 -0.18798335430E+02  0.89749951696E+01 -0.13089201941E+02  0.24601934084E+02  0.00000000000E+00 0.  1.
</event>
<event>
 7    1  0.4194672E-008  0.4614232E+02  0.7816164E-02  0.1320468E+00
        -11   -1    0    0    0    0  0.00000000000E+00  0.00000000000E+00  0.45593999997E+02  0.45594000000E+02  0.51100000000E-03 0. -1.
         11   -1    0    0    0    0 -0.00000000000E+00 -0.00000000000E+00 -0.45593999997E+02  0.45594000000E+02  0.51100000000E-03 0.  1.
    9900012    2    1    2    0    0 -0.38099166041E+02  0.17290909503E+02  0.16691060361E+02  0.46142317627E+02  0.99999987784E+01 0.  0.
        -12    1    1    2    0    0  0.38099166041E+02 -0.17290909503E+02 -0.16691060361E+02  0.45045682373E+02  0.00000000000E+00 0.  1.
         11    1    3    3    0    0 -0.40023885477E+01  0.25401342910E+01 -0.58779683788E+00  0.47767040610E+01  0.51100000000E-03 0. -1.
        -11    1    3    3    0    0 -0.16416318540E+02  0.88598224947E+01  0.11222924844E+02  0.21770301132E+02  0.51100000000E-03 0.  1.
         12    1    3    3    0    0 -0.17680458953E+02  0.58909527174E+01  0.60559323544E+01  0.19595312434E+02  0.00000000000E+00 0. -1.
</event>
<event>
 7    1  0.4194672E-008  0.4614232E+02  0.7816164E-02  0.1320468E+00
        -11   -1    0    0    0    0  0.00000000000E+00  0.00000000000E+00  0.45593999997E+02  0.45594000000E+02  0.51100000000E-03 0. -1.
         11   -1    0    0    0    0 -0.00000000000E+00 -0.00000000000E+00 -0.45593999997E+02  0.45594000000E+02  0.51100000000E-03 0.  1.
    9900012    2    1    2    0    0 -0.42838367300E+02 -0.24704402373E+01 -0.13707104465E+02  0.46142317624E+02  0.99999987492E+01 0.  0.
        -12    1    1    2    0    0  0.42838367300E+02  0.24704402373E+01  0.13707104465E+02  0.45045682376E+02  0.00000000000E+00 0.  1.
         11    1    3    3    0    0 -0.28882706177E+02  0.27943076516E+00 -0.13253502671E+02  0.31779618169E+02  0.51100000000E-03 0. -1.
        -11    1    3    3    0    0 -0.61078957975E+00 -0.28462371902E+00 -0.41612063009E+00  0.79197930028E+00  0.51100000000E-03 0.  1.
         12    1    3    3    0    0 -0.13344871543E+02 -0.24652472834E+01 -0.37481164063E-01  0.13570720154E+02  0.00000000000E+00 0. -1.
</event>
<event>
 7    1  0.4194672E-008  0.4614232E+02  0.7816164E-02  0.1320468E+00
        -11   -1    0    0    0    0  0.00000000000E+00  0.00000000000E+00  0.45593999997E+02  0.45594000000E+02  0.51100000000E-03 0.  1.
         11   -1    0    0    0    0 -0.00000000000E+00 -0.00000000000E+00 -0.45593999997E+02  0.45594000000E+02  0.51100000000E-03 0. -1.
    9900012    2    1    2    0    0  0.98403507876E+01 -0.38920288185E+02 -0.20432625118E+02  0.46142317574E+02  0.99999982909E+01 0.  0.
        -12    1    1    2    0    0 -0.98403507876E+01  0.38920288185E+02  0.20432625118E+02  0.45045682426E+02  0.00000000000E+00 0.  1.
         11    1    3    3    0    0  0.50095747515E+00 -0.11678279227E+02 -0.36511976139E+01  0.12245995606E+02  0.51100000000E-03 0. -1.
        -11    1    3    3    0    0 -0.25281371321E+00 -0.61953703179E+01 -0.23328470721E+01  0.66248550077E+01  0.51100000000E-03 0.  1.
         12    1    3    3    0    0  0.95922070256E+01 -0.21046638640E+02 -0.14448580432E+02  0.27271466960E+02  0.00000000000E+00 0. -1.
</event>
<event>
 7    1  0.4194672E-008  0.4614232E+02  0.7816164E-02  0.1320468E+00
        -11   -1    0    0    0    0  0.00000000000E+00  0.00000000000E+00  0.45593999997E+02  0.45594000000E+02  0.51100000000E-03 0.  1.
         11   -1    0    0    0    0 -0.00000000000E+00 -0.00000000000E+00 -0.45593999997E+02  0.45594000000E+02  0.51100000000E-03 0. -1.
    9900012    2    1    2    0    0  0.43183608642E+02  0.61389888747E+01  0.11251775279E+02  0.46142315560E+02  0.99999799247E+01 0.  0.
        -12    1    1    2    0    0 -0.43183608642E+02 -0.61389888747E+01 -0.11251775279E+02  0.45045684440E+02  0.00000000000E+00 0.  1.
         11    1    3    3    0    0  0.26958379822E+02  0.73734530536E+01  0.52654060546E+01  0.28440227737E+02  0.51100000000E-03 0. -1.
        -11    1    3    3    0    0  0.65987966760E+01 -0.13013238772E+01  0.41460548034E+01  0.79010968921E+01  0.51100000000E-03 0.  1.
        -12    1    3    3    0    0  0.96264321442E+01  0.66859698293E-01  0.18403144214E+01  0.98009909303E+01  0.00000000000E+00 0.  1.
</event>
<event>
 7    1  0.4194672E-008  0.4614232E+02  0.7816164E-02  0.1320468E+00
        -11   -1    0    0    0    0  0.00000000000E+00  0.00000000000E+00  0.45593999997E+02  0.45594000000E+02  0.51100000000E-03 0.  1.
         11   -1    0    0    0    0 -0.00000000000E+00 -0.00000000000E+00 -0.45593999997E+02  0.45594000000E+02  0.51100000000E-03 0. -1.
    9900012    2    1    2    0    0 -0.27043446034E+02 -0.14816563843E+02 -0.32836491711E+02  0.46142315130E+02  0.99999760084E+01 0.  0.
        -12    1    1    2    0    0  0.27043446034E+02  0.14816563843E+02  0.32836491711E+02  0.45045684870E+02  0.00000000000E+00 0.  1.
         11    1    3    3    0    0 -0.10242897232E+02 -0.76280909753E+01 -0.74487071886E+01  0.14784720311E+02  0.51100000000E-03 0. -1.
        -11    1    3    3    0    0 -0.60542769097E+01 -0.14611225504E+01 -0.86369382607E+01  0.10648279241E+02  0.51100000000E-03 0.  1.
         12    1    3    3    0    0 -0.10746271892E+02 -0.57273503168E+01 -0.16750846262E+02  0.20709315578E+02  0.00000000000E+00 0. -1.
</event>
<event>
 7    1  0.4194672E-008  0.4614232E+02  0.7816164E-02  0.1320468E+00
        -11   -1    0    0    0    0  0.00000000000E+00  0.00000000000E+00  0.45593999997E+02  0.45594000000E+02  0.51100000000E-03 0.  1.
         11   -1    0    0    0    0 -0.00000000000E+00 -0.00000000000E+00 -0.45593999997E+02  0.45594000000E+02  0.51100000000E-03 0. -1.
    9900012    2    1    2    0    0 -0.33310056864E+02  0.24491036266E+02  0.17881351109E+02  0.46142318041E+02  0.10000002553E+02 0.  0.
        -12    1    1    2    0    0  0.33310056864E+02 -0.24491036266E+02 -0.17881351109E+02  0.45045681959E+02  0.00000000000E+00 0.  1.
         11    1    3    3    0    0 -0.53169819601E+01  0.49366785698E+01  0.72022855814E-01  0.72557756318E+01  0.51100000000E-03 0.  1.
        -11    1    3    3    0    0 -0.11835066007E+02  0.75134735167E+01  0.44443064946E+01  0.14706220866E+02  0.51100000000E-03 0. -1.
         12    1    3    3    0    0 -0.16158008897E+02  0.12040884180E+02  0.13365021758E+02  0.24180321543E+02  0.00000000000E+00 0. -1.
</event>
<event>
 7    1  0.4194672E-008  0.4614232E+02  0.7816164E-02  0.1320468E+00
        -11   -1    0    0    0    0  0.00000000000E+00  0.00000000000E+00  0.45593999997E+02  0.45594000000E+02  0.51100000000E-03 0. -1.
         11   -1    0    0    0    0 -0.00000000000E+00 -0.00000000000E+00 -0.45593999997E+02  0.45594000000E+02  0.51100000000E-03 0.  1.
    9900012    2    1    2    0    0 -0.86449544666E+01  0.50810358636E+01  0.43915388969E+02  0.46142317060E+02  0.99999936089E+01 0.  0.
        -12    1    1    2    0    0  0.86449544666E+01 -0.50810358636E+01 -0.43915388969E+02  0.45045682940E+02  0.00000000000E+00 0.  1.
         11    1    3    3    0    0 -0.19676746810E+00 -0.61930732942E+00  0.36632781476E+01  0.37204658381E+01  0.51100000000E-03 0. -1.
        -11    1    3    3    0    0 -0.35699673601E+01  0.49672659750E+01  0.96552835609E+01  0.11429912472E+02  0.51100000000E-03 0.  1.
        -12    1    3    3    0    0 -0.48782196384E+01  0.73307721803E+00  0.30596827261E+02  0.30991938750E+02  0.00000000000E+00 0.  1.
</event>
<event>
 7    1  0.4194672E-008  0.4614232E+02  0.7816164E-02  0.1320468E+00
        -11   -1    0    0    0    0  0.00000000000E+00  0.00000000000E+00  0.45593999997E+02  0.45594000000E+02  0.51100000000E-03 0. -1.
         11   -1    0    0    0    0 -0.00000000000E+00 -0.00000000000E+00 -0.45593999997E+02  0.45594000000E+02  0.51100000000E-03 0.  1.
    9900012    2    1    2    0    0  0.19151024645E+02  0.76124553646E+01  0.40054993185E+02  0.46142315404E+02  0.99999785073E+01 0.  0.
        -12    1    1    2    0    0 -0.19151024645E+02 -0.76124553646E+01 -0.40054993185E+02  0.45045684596E+02  0.00000000000E+00 0.  1.
         11    1    3    3    0    0  0.11973281230E+02  0.34853491048E+01  0.28300816399E+02  0.30926418010E+02  0.51100000000E-03 0. -1.
        -11    1    3    3    0    0 -0.17383385152E+00  0.97929677714E+00 -0.55131712596E-02  0.99462105439E+00  0.51100000000E-03 0.  1.
        -12    1    3    3    0    0  0.73515772663E+01  0.31478094827E+01  0.11759689958E+02  0.14221276340E+02  0.00000000000E+00 0.  1.
</event>
<event>
 7    1  0.4194672E-008  0.4614232E+02  0.7816164E-02  0.1320468E+00
        -11   -1    0    0    0    0  0.00000000000E+00  0.00000000000E+00  0.45593999997E+02  0.45594000000E+02  0.51100000000E-03 0. -1.
         11   -1    0    0    0    0 -0.00000000000E+00 -0.00000000000E+00 -0.45593999997E+02  0.45594000000E+02  0.51100000000E-03 0.  1.
    9900012    2    1    2    0    0  0.95032446955E+01 -0.16375295453E+02  0.40873604125E+02  0.46142317908E+02  0.10000001344E+02 0.  0.
        -12    1    1    2    0    0 -0.95032446955E+01  0.16375295453E+02 -0.40873604125E+02  0.45045682092E+02  0.00000000000E+00 0.  1.
         11    1    3    3    0    0  0.22306012809E+00 -0.24893142962E+01  0.21523125417E+01  0.32983163924E+01  0.51100000000E-03 0. -1.
        -11    1    3    3    0    0  0.49257868958E+00  0.39381070147E+00 -0.18976565221E-01  0.63093660947E+00  0.51100000000E-03 0.  1.
         12    1    3    3    0    0  0.87876058779E+01 -0.14279791859E+02  0.38740268149E+02  0.42213064907E+02  0.00000000000E+00 0. -1.
</event>
<event>
 7    1  0.4194672E-008  0.4614232E+02  0.7816164E-02  0.1320468E+00
        -11   -1    0    0    0    0  0.00000000000E+00  0.00000000000E+00  0.45593999997E+02  0.45594000000E+02  0.51100000000E-03 0.  1.
         11   -1    0    0    0    0 -0.00000000000E+00 -0.00000000000E+00 -0.45593999997E+02  0.45594000000E+02  0.51100000000E-03 0. -1.
    9900012    2    1    2    0    0  0.53252252695E+01  0.29894572957E+02 -0.33272660783E+02  0.46142317943E+02  0.10000001655E+02 0.  0.
        -12    1    1    2    0    0 -0.53252252695E+01 -0.29894572957E+02  0.33272660783E+02  0.45045682057E+02  0.00000000000E+00 0.  1.
         11    1    3    3    0    0  0.19485110999E+01  0.44585805493E+01 -0.42466341169E+01  0.64582921585E+01  0.51100000000E-03 0. -1.
        -11    1    3    3    0    0  0.31825647905E+01  0.23108409834E+02 -0.21214040356E+02  0.31530347797E+02  0.51100000000E-03 0.  1.
         12    1    3    3    0    0  0.19414937908E+00  0.23275825740E+01 -0.78119863096E+01  0.81536779874E+01  0.00000000000E+00 0. -1.
</event>
<event>
 7    1  0.4194672E-008  0.4614232E+02  0.7816164E-02  0.1320468E+00
        -11   -1    0    0    0    0  0.00000000000E+00  0.00000000000E+00  0.45593999997E+02  0.45594000000E+02  0.51100000000E-03 0.  1.
         11   -1    0    0    0    0 -0.00000000000E+00 -0.00000000000E+00 -0.45593999997E+02  0.45594000000E+02  0.51100000000E-03 0. -1.
    9900012    2    1    2    0    0  0.37485693783E+02 -0.14581811141E+02 -0.20280706740E+02  0.46142317405E+02  0.99999967508E+01 0.  0.
        -12    1    1    2    0    0 -0.37485693783E+02  0.14581811141E+02  0.20280706740E+02  0.45045682595E+02  0.00000000000E+00 0.  1.
         11    1    3    3    0    0  0.11769327254E+02 -0.92956637743E+01 -0.70781557413E+01  0.16583929510E+02  0.51100000000E-03 0. -1.
        -11    1    3    3    0    0  0.11382247206E+02 -0.20110439773E+01 -0.40939470513E+01  0.12262147123E+02  0.51100000000E-03 0.  1.
         12    1    3    3    0    0  0.14334119323E+02 -0.32751033899E+01 -0.91086039478E+01  0.17296240772E+02  0.00000000000E+00 0. -1.
</event>
<event>
 7    1  0.4194672E-008  0.4614232E+02  0.7816164E-02  0.1320468E+00
        -11   -1    0    0    0    0  0.00000000000E+00  0.00000000000E+00  0.45593999997E+02  0.45594000000E+02  0.51100000000E-03 0.  1.
         11   -1    0    0    0    0 -0.00000000000E+00 -0.00000000000E+00 -0.45593999997E+02  0.45594000000E+02  0.51100000000E-03 0. -1.
    9900012    2    1    2    0    0 -0.41608692284E+02 -0.16962771823E+02 -0.31771900990E+01  0.46142318315E+02  0.10000005053E+02 0.  0.
        -12    1    1    2    0    0  0.41608692284E+02  0.16962771823E+02  0.31771900990E+01  0.45045681685E+02  0.00000000000E+00 0.  1.
         11    1    3    3    0    0 -0.16124103709E+02 -0.10141731483E+02 -0.10791773246E+01  0.19078942891E+02  0.51100000000E-03 0. -1.
        -11    1    3    3    0    0 -0.13437833583E+01 -0.19280575360E+01 -0.16103282563E+00  0.23556509521E+01  0.51100000000E-03 0.  1.
         12    1    3    3    0    0 -0.24140805217E+02 -0.48929828038E+01 -0.19369799488E+01  0.24707724472E+02  0.00000000000E+00 0. -1.
</event>
<event>
 7    1  0.4194672E-008  0.4614232E+02  0.7816164E-02  0.1320468E+00
        -11   -1    0    0    0    0  0.00000000000E+00  0.00000000000E+00  0.45593999997E+02  0.45594000000E+02  0.51100000000E-03 0.  1.
         11   -1    0    0    0    0 -0.00000000000E+00 -0.00000000000E+00 -0.45593999997E+02  0.45594000000E+02  0.51100000000E-03 0. -1.
    9900012    2    1    2    0    0  0.36112258748E+02  0.21575555034E+02 -0.16109430339E+02  0.46142317046E+02  0.99999934830E+01 0.  0.
        -12    1    1    2    0    0 -0.36112258748E+02 -0.21575555034E+02  0.16109430339E+02  0.45045682954E+02  0.00000000000E+00 0.  1.
         11    1    3    3    0    0  0.28543881081E+02  0.16717037947E+02 -0.15312991035E+02  0.36451340162E+02  0.51100000000E-03 0. -1.
        -11    1    3    3    0    0  0.67396232165E+01  0.26143825207E+01 -0.96356965792E+00  0.72928721236E+01  0.51100000000E-03 0.  1.
         12    1    3    3    0    0  0.82875445050E+00  0.22441345662E+01  0.16713035355E+00  0.23981047611E+01  0.00000000000E+00 0. -1.
</event>
<event>
 7    1  0.4194672E-008  0.4614232E+02  0.7816164E-02  0.1320468E+00
        -11   -1    0    0    0    0  0.00000000000E+00  0.00000000000E+00  0.45593999997E+02  0.45594000000E+02  0.51100000000E-03 0.  1.
         11   -1    0    0    0    0 -0.00000000000E+00 -0.00000000000E+00 -0.45593999997E+02  0.45594000000E+02  0.51100000000E-03 0. -1.
    9900012    2    1    2    0    0 -0.27464346805E+02 -0.12246537124E+02 -0.33538715703E+02  0.46142317987E+02  0.10000002061E+02 0.  0.
        -12    1    1    2    0    0  0.27464346805E+02  0.12246537124E+02  0.33538715703E+02  0.45045682013E+02  0.00000000000E+00 0.  1.
         11    1    3    3    0    0 -0.20384961179E+02 -0.93394187226E+01 -0.22068274878E+02  0.31460771457E+02  0.51100000000E-03 0. -1.
        -11    1    3    3    0    0 -0.16930877250E+01 -0.31702682331E+01 -0.60396251675E+01  0.70281021008E+01  0.51100000000E-03 0.  1.
         12    1    3    3    0    0 -0.53862979015E+01  0.26314983191E+00 -0.54308156581E+01  0.76534444292E+01  0.00000000000E+00 0. -1.
</event>
<event>
 7    1  0.4194672E-008  0.4614232E+02  0.7816164E-02  0.1320468E+00
        -11   -1    0    0    0    0  0.00000000000E+00  0.00000000000E+00  0.45593999997E+02  0.45594000000E+02  0.51100000000E-03 0. -1.
         11   -1    0    0    0    0 -0.00000000000E+00 -0.00000000000E+00 -0.45593999997E+02  0.45594000000E+02  0.51100000000E-03 0.  1.
    9900012    2    1    2    0    0  0.81133066577E+01 -0.27628119854E+02  0.34640652277E+02  0.46142317168E+02  0.99999945925E+01 0.  0.
        -12    1    1    2    0    0 -0.81133066577E+01  0.27628119854E+02 -0.34640652277E+02  0.45045682832E+02  0.00000000000E+00 0.  1.
         11    1    3    3    0    0 -0.60555979386E+00 -0.29418152442E+01  0.19038120578E+01  0.35560483978E+01  0.51100000000E-03 0. -1.
        -11    1    3    3    0    0  0.78518921731E+01 -0.13521669467E+02  0.15393988873E+02  0.21942257166E+02  0.51100000000E-03 0.  1.
         12    1    3    3    0    0  0.86697427849E+00 -0.11164635143E+02  0.17342851347E+02  0.20644011604E+02  0.00000000000E+00 0. -1.
</event>
<event>
 7    1  0.4194672E-008  0.4614232E+02  0.7816164E-02  0.1320468E+00
        -11   -1    0    0    0    0  0.00000000000E+00  0.00000000000E+00  0.45593999997E+02  0.45594000000E+02  0.51100000000E-03 0.  1.
         11   -1    0    0    0    0 -0.00000000000E+00 -0.00000000000E+00 -0.45593999997E+02  0.45594000000E+02  0.51100000000E-03 0. -1.
    9900012    2    1    2    0    0 -0.14200982036E+02  0.14797955075E+02 -0.40105684209E+02  0.46142320173E+02  0.10000021993E+02 0.  0.
        -12    1    1    2    0    0  0.14200982036E+02 -0.14797955075E+02  0.40105684209E+02  0.45045679827E+02  0.00000000000E+00 0.  1.
         11    1    3    3    0    0 -0.11987279520E+02  0.96921580602E+01 -0.29203165314E+02  0.33022078414E+02  0.51100000000E-03 0. -1.
        -11    1    3    3    0    0 -0.21498806929E+01  0.39025405743E-01 -0.24003203201E+01  0.32225840372E+01  0.51100000000E-03 0.  1.
         12    1    3    3    0    0 -0.63821822583E-01  0.50667716095E+01 -0.85021985750E+01  0.98976577217E+01  0.00000000000E+00 0. -1.
</event>
<event>
 7    1  0.4194672E-008  0.4614233E+02  0.7816164E-02  0.1320468E+00
        -11   -1    0    0    0    0  0.00000000000E+00  0.00000000000E+00  0.45593999997E+02  0.45594000000E+02  0.51100000000E-03 0.  1.
         11   -1    0    0    0    0 -0.00000000000E+00 -0.00000000000E+00 -0.45593999997E+02  0.45594000000E+02  0.51100000000E-03 0. -1.
    9900012    2    1    2    0    0  0.41278140341E+01  0.28035182016E+01 -0.44768451155E+02  0.46142325604E+02  0.10000071514E+02 0.  0.
        -12    1    1    2    0    0 -0.41278140341E+01 -0.28035182016E+01  0.44768451155E+02  0.45045674396E+02  0.00000000000E+00 0.  1.
         11    1    3    3    0    0 -0.11856151225E+01 -0.10166703348E+01 -0.11237069354E+02  0.11345088352E+02  0.51100000000E-03 0. -1.
        -11    1    3    3    0    0  0.42591505435E+01 -0.59175424633E+00 -0.21786526820E+02  0.22206829750E+02  0.51100000000E-03 0.  1.
        -12    1    3    3    0    0  0.10542786131E+01  0.44119427827E+01 -0.11744854982E+02  0.12590407502E+02  0.00000000000E+00 0.  1.
</event>
<event>
 7    1  0.4194672E-008  0.4614232E+02  0.7816164E-02  0.1320468E+00
        -11   -1    0    0    0    0  0.00000000000E+00  0.00000000000E+00  0.45593999997E+02  0.45594000000E+02  0.51100000000E-03 0.  1.
         11   -1    0    0    0    0 -0.00000000000E+00 -0.00000000000E+00 -0.45593999997E+02  0.45594000000E+02  0.51100000000E-03 0. -1.
    9900012    2    1    2    0    0  0.25740817491E+02  0.34596570694E+02 -0.13023098869E+02  0.46142317710E+02  0.99999995318E+01 0.  0.
        -12    1    1    2    0    0 -0.25740817491E+02 -0.34596570694E+02  0.13023098869E+02  0.45045682290E+02  0.00000000000E+00 0.  1.
         11    1    3    3    0    0 -0.43378009808E+00  0.17546211536E+01 -0.18484014308E+00  0.18168727819E+01  0.51100000000E-03 0. -1.
        -11    1    3    3    0    0  0.13044958512E+02  0.19974624329E+02 -0.92935470806E+01  0.25603253255E+02  0.51100000000E-03 0.  1.
        -12    1    3    3    0    0  0.13129639077E+02  0.12867325211E+02 -0.35447116450E+01  0.18722191673E+02  0.00000000000E+00 0.  1.
</event>
<event>
 7    1  0.4194672E-008  0.4614232E+02  0.7816164E-02  0.1320468E+00
        -11   -1    0    0    0    0  0.00000000000E+00  0.00000000000E+00  0.45593999997E+02  0.45594000000E+02  0.51100000000E-03 0.  1.
         11   -1    0    0    0    0 -0.00000000000E+00 -0.00000000000E+00 -0.45593999997E+02  0.45594000000E+02  0.51100000000E-03 0. -1.
    9900012    2    1    2    0    0 -0.17310716911E+02 -0.25131884141E+02 -0.33133682457E+02  0.46142318369E+02  0.10000005541E+02 0.  0.
        -12    1    1    2    0    0  0.17310716911E+02  0.25131884141E+02  0.33133682457E+02  0.45045681631E+02  0.00000000000E+00 0.  1.
         11    1    3    3    0    0 -0.55287259295E-01 -0.19144785510E+01 -0.43437078193E+01  0.47472184154E+01  0.51100000000E-03 0. -1.
        -11    1    3    3    0    0 -0.40809234749E+01 -0.16578476325E+01 -0.32923953678E+01  0.54992965641E+01  0.51100000000E-03 0.  1.
         12    1    3    3    0    0 -0.13174506177E+02 -0.21559557957E+02 -0.25497579270E+02  0.35895803389E+02  0.00000000000E+00 0. -1.
</event>
<event>
 7    1  0.4194672E-008  0.4614232E+02  0.7816164E-02  0.1320468E+00
        -11   -1    0    0    0    0  0.00000000000E+00  0.00000000000E+00  0.45593999997E+02  0.45594000000E+02  0.51100000000E-03 0.  1.
         11   -1    0    0    0    0 -0.00000000000E+00 -0.00000000000E+00 -0.45593999997E+02  0.45594000000E+02  0.51100000000E-03 0. -1.
    9900012    2    1    2    0    0  0.40119382451E+02  0.18264705572E+02 -0.92708840693E+01  0.46142316419E+02  0.99999877593E+01 0.  0.
        -12    1    1    2    0    0 -0.40119382451E+02 -0.18264705572E+02  0.92708840693E+01  0.45045683581E+02  0.00000000000E+00 0.  1.
         11    1    3    3    0    0  0.52165859281E+01  0.32103618573E+01 -0.24896819978E+01  0.66119368351E+01  0.51100000000E-03 0. -1.
        -11    1    3    3    0    0  0.32262340158E+02  0.15599907799E+02 -0.47388020758E+01  0.36147917799E+02  0.51100000000E-03 0.  1.
        -12    1    3    3    0    0  0.26404563649E+01 -0.54556408422E+00 -0.20423999957E+01  0.33824617850E+01  0.00000000000E+00 0.  1.
</event>
<event>
 7    1  0.4194672E-008  0.4614232E+02  0.7816164E-02  0.1320468E+00
        -11   -1    0    0    0    0  0.00000000000E+00  0.00000000000E+00  0.45593999997E+02  0.45594000000E+02  0.51100000000E-03 0. -1.
         11   -1    0    0    0    0 -0.00000000000E+00 -0.00000000000E+00 -0.45593999997E+02  0.45594000000E+02  0.51100000000E-03 0.  1.
    9900012    2    1    2    0    0 -0.36283523922E+02 -0.33686078131E+01  0.26481538308E+02  0.46142317655E+02  0.99999990289E+01 0.  0.
        -12    1    1    2    0    0  0.36283523922E+02  0.33686078131E+01 -0.26481538308E+02  0.45045682345E+02  0.00000000000E+00 0.  1.
         11    1    3    3    0    0 -0.25585105662E+01 -0.20443080124E+01  0.21608622162E+01  0.39235822083E+01  0.51100000000E-03 0.  1.
        -11    1    3    3    0    0 -0.53212658022E+01 -0.27415795626E+01  0.31453107460E+01  0.67620343231E+01  0.51100000000E-03 0. -1.
         12    1    3    3    0    0 -0.28403747554E+02  0.14172797619E+01  0.21175365346E+02  0.35456701123E+02  0.00000000000E+00 0. -1.
</event>
<event>
 7    1  0.4194672E-008  0.4614232E+02  0.7816164E-02  0.1320468E+00
        -11   -1    0    0    0    0  0.00000000000E+00  0.00000000000E+00  0.45593999997E+02  0.45594000000E+02  0.51100000000E-03 0.  1.
         11   -1    0    0    0    0 -0.00000000000E+00 -0.00000000000E+00 -0.45593999997E+02  0.45594000000E+02  0.51100000000E-03 0. -1.
    9900012    2    1    2    0    0 -0.21597126159E+02  0.30756998672E+02 -0.24833136918E+02  0.46142317467E+02  0.99999973182E+01 0.  0.
        -12    1    1    2    0    0  0.21597126159E+02 -0.30756998672E+02  0.24833136918E+02  0.45045682533E+02  0.00000000000E+00 0.  1.
         11    1    3    3    0    0 -0.44169812729E+01  0.83830566588E+01 -0.39579298175E+01  0.10268912854E+02  0.51100000000E-03 0. -1.
        -11    1    3    3    0    0 -0.19264955171E+00  0.44458410921E+01 -0.26543297567E+01  0.51815136383E+01  0.51100000000E-03 0.  1.
         12    1    3    3    0    0 -0.16987495335E+02  0.17928100921E+02 -0.18220877344E+02  0.30691890974E+02  0.00000000000E+00 0. -1.
</event>
<event>
 7    1  0.4194672E-008  0.4614232E+02  0.7816164E-02  0.1320468E+00
        -11   -1    0    0    0    0  0.00000000000E+00  0.00000000000E+00  0.45593999997E+02  0.45594000000E+02  0.51100000000E-03 0.  1.
         11   -1    0    0    0    0 -0.00000000000E+00 -0.00000000000E+00 -0.45593999997E+02  0.45594000000E+02  0.51100000000E-03 0. -1.
    9900012    2    1    2    0    0 -0.35715036108E+02  0.27259787729E+02  0.32331977539E+01  0.46142318754E+02  0.10000009053E+02 0.  0.
        -12    1    1    2    0    0  0.35715036108E+02 -0.27259787729E+02 -0.32331977539E+01  0.45045681246E+02  0.00000000000E+00 0.  1.
         11    1    3    3    0    0 -0.12721731020E+02  0.14961014770E+02 -0.11561631960E+01  0.19672598118E+02  0.51100000000E-03 0. -1.
        -11    1    3    3    0    0 -0.14560130838E+02  0.72233010733E+01  0.30333582632E+01  0.16534048234E+02  0.51100000000E-03 0.  1.
         12    1    3    3    0    0 -0.84331742497E+01  0.50754718856E+01  0.13560026868E+01  0.99356724017E+01  0.00000000000E+00 0. -1.
</event>
<event>
 7    1  0.4194672E-008  0.4614232E+02  0.7816164E-02  0.1320468E+00
        -11   -1    0    0    0    0  0.00000000000E+00  0.00000000000E+00  0.45593999997E+02  0.45594000000E+02  0.51100000000E-03 0. -1.
         11   -1    0    0    0    0 -0.00000000000E+00 -0.00000000000E+00 -0.45593999997E+02  0.45594000000E+02  0.51100000000E-03 0.  1.
    9900012    2    1    2    0    0  0.40285981324E+02  0.20077970184E+02  0.17402043950E+01  0.46142317751E+02  0.99999999052E+01 0.  0.
        -12    1    1    2    0    0 -0.40285981324E+02 -0.20077970184E+02 -0.17402043950E+01  0.45045682249E+02  0.00000000000E+00 0.  1.
         11    1    3    3    0    0  0.91287834415E+01  0.27310171171E+01  0.44787983212E+00  0.95390638022E+01  0.51100000000E-03 0. -1.
        -11    1    3    3    0    0  0.32789194824E+01 -0.67622589818E+00 -0.34736327705E+00  0.33658960092E+01  0.51100000000E-03 0.  1.
         12    1    3    3    0    0  0.27878278400E+02  0.18023178965E+02  0.16396878399E+01  0.33237357939E+02  0.00000000000E+00 0. -1.
</event>
<event>
 7    1  0.4194672E-008  0.4614232E+02  0.7816164E-02  0.1320468E+00
        -11   -1    0    0    0    0  0.00000000000E+00  0.00000000000E+00  0.45593999997E+02  0.45594000000E+02  0.51100000000E-03 0.  1.
         11   -1    0    0    0    0 -0.00000000000E+00 -0.00000000000E+00 -0.45593999997E+02  0.45594000000E+02  0.51100000000E-03 0. -1.
    9900012    2    1    2    0    0  0.22190981764E+02  0.47323482128E+01 -0.38913735876E+02  0.46142316177E+02  0.99999855561E+01 0.  0.
        -12    1    1    2    0    0 -0.22190981764E+02 -0.47323482128E+01  0.38913735876E+02  0.45045683823E+02  0.00000000000E+00 0.  1.
         11    1    3    3    0    0  0.74331184345E+01  0.14675815195E+01 -0.11640224586E+02  0.13888839903E+02  0.51100000000E-03 0. -1.
        -11    1    3    3    0    0  0.65397559880E+01 -0.22066355182E+00 -0.49301240980E+01  0.81928764588E+01  0.51100000000E-03 0.  1.
         12    1    3    3    0    0  0.82181073412E+01  0.34854302451E+01 -0.22343387192E+02  0.24060599815E+02  0.00000000000E+00 0. -1.
</event>
<event>
 7    1  0.4194672E-008  0.4614232E+02  0.7816164E-02  0.1320468E+00
        -11   -1    0    0    0    0  0.00000000000E+00  0.00000000000E+00  0.45593999997E+02  0.45594000000E+02  0.51100000000E-03 0. -1.
         11   -1    0    0    0    0 -0.00000000000E+00 -0.00000000000E+00 -0.45593999997E+02  0.45594000000E+02  0.51100000000E-03 0.  1.
    9900012    2    1    2    0    0  0.30750499555E+02  0.27970129119E+02 -0.17354884078E+02  0.46142319328E+02  0.10000014288E+02 0.  0.
        -12    1    1    2    0    0 -0.30750499555E+02 -0.27970129119E+02  0.17354884078E+02  0.45045680672E+02  0.00000000000E+00 0.  1.
         11    1    3    3    0    0  0.83164372814E+01  0.52889470593E+01 -0.57283268432E+01  0.11399553445E+02  0.51100000000E-03 0.  1.
        -11    1    3    3    0    0  0.18887624282E+02  0.21788941764E+02 -0.11611434002E+02  0.31085780255E+02  0.51100000000E-03 0. -1.
         12    1    3    3    0    0  0.35464379916E+01  0.89224029540E+00 -0.15123233187E-01  0.36569856282E+01  0.00000000000E+00 0. -1.
</event>
<event>
 7    1  0.4194672E-008  0.4614232E+02  0.7816164E-02  0.1320468E+00
        -11   -1    0    0    0    0  0.00000000000E+00  0.00000000000E+00  0.45593999997E+02  0.45594000000E+02  0.51100000000E-03 0.  1.
         11   -1    0    0    0    0 -0.00000000000E+00 -0.00000000000E+00 -0.45593999997E+02  0.45594000000E+02  0.51100000000E-03 0. -1.
    9900012    2    1    2    0    0  0.25326173007E+02 -0.11656337166E+02 -0.35381185171E+02  0.46142317638E+02  0.99999988797E+01 0.  0.
        -12    1    1    2    0    0 -0.25326173007E+02  0.11656337166E+02  0.35381185171E+02  0.45045682362E+02  0.00000000000E+00 0.  1.
         11    1    3    3    0    0  0.42896979077E+01 -0.16342706289E+01 -0.44227572103E+01  0.63744121479E+01  0.51100000000E-03 0. -1.
        -11    1    3    3    0    0  0.99735611291E-01 -0.11396713930E+01 -0.55538259328E+01  0.56704303919E+01  0.51100000000E-03 0.  1.
        -12    1    3    3    0    0  0.20936739488E+02 -0.88823951442E+01 -0.25404602028E+02  0.34097475098E+02  0.00000000000E+00 0.  1.
</event>
<event>
 7    1  0.4194672E-008  0.4614232E+02  0.7816164E-02  0.1320468E+00
        -11   -1    0    0    0    0  0.00000000000E+00  0.00000000000E+00  0.45593999997E+02  0.45594000000E+02  0.51100000000E-03 0. -1.
         11   -1    0    0    0    0 -0.00000000000E+00 -0.00000000000E+00 -0.45593999997E+02  0.45594000000E+02  0.51100000000E-03 0.  1.
    9900012    2    1    2    0    0  0.33343813797E+02 -0.19518731593E+02  0.23158641062E+02  0.46142318105E+02  0.10000003135E+02 0.  0.
        -12    1    1    2    0    0 -0.33343813797E+02  0.19518731593E+02 -0.23158641062E+02  0.45045681895E+02  0.00000000000E+00 0.  1.
         11    1    3    3    0    0  0.77786415558E+01 -0.47320339152E+01  0.86733899612E+01  0.12574859964E+02  0.51100000000E-03 0. -1.
        -11    1    3    3    0    0  0.71047992981E+01 -0.97441835203E+00  0.25954939218E+01  0.76265492295E+01  0.51100000000E-03 0.  1.
        -12    1    3    3    0    0  0.18460372943E+02 -0.13812279326E+02  0.11889757179E+02  0.25940908912E+02  0.00000000000E+00 0.  1.
</event>
<event>
 7    1  0.4194672E-008  0.4614232E+02  0.7816164E-02  0.1320468E+00
        -11   -1    0    0    0    0  0.00000000000E+00  0.00000000000E+00  0.45593999997E+02  0.45594000000E+02  0.51100000000E-03 0.  1.
         11   -1    0    0    0    0 -0.00000000000E+00 -0.00000000000E+00 -0.45593999997E+02  0.45594000000E+02  0.51100000000E-03 0. -1.
    9900012    2    1    2    0    0  0.48483398410E+00 -0.12410616335E+01 -0.45025971803E+02  0.46142318356E+02  0.10000005428E+02 0.  0.
        -12    1    1    2    0    0 -0.48483398410E+00  0.12410616335E+01  0.45025971803E+02  0.45045681644E+02  0.00000000000E+00 0.  1.
         11    1    3    3    0    0  0.44148558380E+00 -0.36921828668E+00  0.25278678437E+00  0.62859612104E+00  0.51100000000E-03 0.  1.
        -11    1    3    3    0    0 -0.17990703712E+01  0.23454957480E+00 -0.95769402559E+01  0.97472792424E+01  0.51100000000E-03 0. -1.
        -12    1    3    3    0    0  0.18424187715E+01 -0.11063929216E+01 -0.35701818331E+02  0.35766442993E+02  0.00000000000E+00 0.  1.
</event>
<event>
 7    1  0.4194672E-008  0.4614232E+02  0.7816164E-02  0.1320468E+00
        -11   -1    0    0    0    0  0.00000000000E+00  0.00000000000E+00  0.45593999997E+02  0.45594000000E+02  0.51100000000E-03 0.  1.
         11   -1    0    0    0    0 -0.00000000000E+00 -0.00000000000E+00 -0.45593999997E+02  0.45594000000E+02  0.51100000000E-03 0. -1.
    9900012    2    1    2    0    0  0.26279849289E+02  0.34493928262E+02  0.12192284677E+02  0.46142319061E+02  0.10000011857E+02 0.  0.
        -12    1    1    2    0    0 -0.26279849289E+02 -0.34493928262E+02 -0.12192284677E+02  0.45045680939E+02  0.00000000000E+00 0.  1.
         11    1    3    3    0    0  0.20039171812E+02  0.24204531841E+02  0.97160874258E+01  0.32891186109E+02  0.51100000000E-03 0. -1.
        -11    1    3    3    0    0  0.39601106571E+01  0.20335209091E+01  0.77139021559E+00  0.45180445804E+01  0.51100000000E-03 0.  1.
         12    1    3    3    0    0  0.22805668201E+01  0.82558755113E+01  0.17048070357E+01  0.87330883717E+01  0.00000000000E+00 0. -1.
</event>
<event>
 7    1  0.4194672E-008  0.4614232E+02  0.7816164E-02  0.1320468E+00
        -11   -1    0    0    0    0  0.00000000000E+00  0.00000000000E+00  0.45593999997E+02  0.45594000000E+02  0.51100000000E-03 0. -1.
         11   -1    0    0    0    0 -0.00000000000E+00 -0.00000000000E+00 -0.45593999997E+02  0.45594000000E+02  0.51100000000E-03 0.  1.
    9900012    2    1    2    0    0  0.24044842381E+02  0.18767436919E+02  0.33147278009E+02  0.46142321261E+02  0.10000031917E+02 0.  0.
        -12    1    1    2    0    0 -0.24044842381E+02 -0.18767436919E+02 -0.33147278009E+02  0.45045678739E+02  0.00000000000E+00 0.  1.
         11    1    3    3    0    0  0.13731256433E+02  0.77447001095E+01  0.16062813692E+02  0.22506482776E+02  0.51100000000E-03 0. -1.
        -11    1    3    3    0    0  0.42386976985E+01  0.50636141128E+01  0.12070672340E+02  0.13758919909E+02  0.51100000000E-03 0.  1.
        -12    1    3    3    0    0  0.60748882498E+01  0.59591226967E+01  0.50137919766E+01  0.98769185755E+01  0.00000000000E+00 0.  1.
</event>
<event>
 7    1  0.4194672E-008  0.4614232E+02  0.7816164E-02  0.1320468E+00
        -11   -1    0    0    0    0  0.00000000000E+00  0.00000000000E+00  0.45593999997E+02  0.45594000000E+02  0.51100000000E-03 0.  1.
         11   -1    0    0    0    0 -0.00000000000E+00 -0.00000000000E+00 -0.45593999997E+02  0.45594000000E+02  0.51100000000E-03 0. -1.
    9900012    2    1    2    0    0  0.31760977559E+02  0.13086208274E+02 -0.29139405497E+02  0.46142317686E+02  0.99999993114E+01 0.  0.
        -12    1    1    2    0    0 -0.31760977559E+02 -0.13086208274E+02  0.29139405497E+02  0.45045682314E+02  0.00000000000E+00 0.  1.
         11    1    3    3    0    0  0.13690226820E+02  0.29838003421E+01 -0.10451077345E+02  0.17479999794E+02  0.51100000000E-03 0. -1.
        -11    1    3    3    0    0  0.11141368956E+01 -0.37524711801E+00 -0.32320465811E+01  0.34392203746E+01  0.51100000000E-03 0.  1.
        -12    1    3    3    0    0  0.16956613843E+02  0.10477655050E+02 -0.15456281571E+02  0.25223097517E+02  0.00000000000E+00 0.  1.
</event>
<event>
 7    1  0.4194672E-008  0.4614232E+02  0.7816164E-02  0.1320468E+00
        -11   -1    0    0    0    0  0.00000000000E+00  0.00000000000E+00  0.45593999997E+02  0.45594000000E+02  0.51100000000E-03 0. -1.
         11   -1    0    0    0    0 -0.00000000000E+00 -0.00000000000E+00 -0.45593999997E+02  0.45594000000E+02  0.51100000000E-03 0.  1.
    9900012    2    1    2    0    0 -0.39219394967E+02  0.21391133861E+02  0.57768420221E+01  0.46142318151E+02  0.10000003558E+02 0.  0.
        -12    1    1    2    0    0  0.39219394967E+02 -0.21391133861E+02 -0.57768420221E+01  0.45045681849E+02  0.00000000000E+00 0.  1.
         11    1    3    3    0    0 -0.18089508591E+02  0.56131723938E+01  0.48378523690E+01  0.19548474140E+02  0.51100000000E-03 0. -1.
        -11    1    3    3    0    0 -0.80537285852E+01  0.42337120798E+01  0.97558833616E+00  0.91508816494E+01  0.51100000000E-03 0.  1.
        -12    1    3    3    0    0 -0.13076157791E+02  0.11544249388E+02 -0.36598683047E-01  0.17442962362E+02  0.00000000000E+00 0.  1.
</event>
<event>
 7    1  0.4194672E-008  0.4614232E+02  0.7816164E-02  0.1320468E+00
        -11   -1    0    0    0    0  0.00000000000E+00  0.00000000000E+00  0.45593999997E+02  0.45594000000E+02  0.51100000000E-03 0. -1.
         11   -1    0    0    0    0 -0.00000000000E+00 -0.00000000000E+00 -0.45593999997E+02  0.45594000000E+02  0.51100000000E-03 0.  1.
    9900012    2    1    2    0    0 -0.32054851831E+02 -0.17077436265E+00  0.31647603499E+02  0.46142317665E+02  0.99999991227E+01 0.  0.
        -12    1    1    2    0    0  0.32054851831E+02  0.17077436265E+00 -0.31647603499E+02  0.45045682335E+02  0.00000000000E+00 0.  1.
         11    1    3    3    0    0 -0.15298377660E+02 -0.15582012897E+01  0.18169996579E+02  0.23803720848E+02  0.51100000000E-03 0. -1.
        -11    1    3    3    0    0 -0.19048272449E+01  0.22364138876E+01  0.23207871400E+01  0.37437904749E+01  0.51100000000E-03 0.  1.
         12    1    3    3    0    0 -0.14851646926E+02 -0.84898696050E+00  0.11156819781E+02  0.18594806342E+02  0.00000000000E+00 0. -1.
</event>
<event>
 7    1  0.4194672E-008  0.4614232E+02  0.7816164E-02  0.1320468E+00
        -11   -1    0    0    0    0  0.00000000000E+00  0.00000000000E+00  0.45593999997E+02  0.45594000000E+02  0.51100000000E-03 0.  1.
         11   -1    0    0    0    0 -0.00000000000E+00 -0.00000000000E+00 -0.45593999997E+02  0.45594000000E+02  0.51100000000E-03 0. -1.
    9900012    2    1    2    0    0  0.19964047790E+02  0.11755011361E+02 -0.38631204270E+02  0.46142318302E+02  0.10000004934E+02 0.  0.
        -12    1    1    2    0    0 -0.19964047790E+02 -0.11755011361E+02  0.38631204270E+02  0.45045681698E+02  0.00000000000E+00 0.  1.
         11    1    3    3    0    0  0.94247260551E+01  0.80855910918E+01 -0.21823759292E+02  0.25109335205E+02  0.51100000000E-03 0. -1.
        -11    1    3    3    0    0  0.34669160517E+01  0.17923187887E+01 -0.11059932918E+02  0.11728343019E+02  0.51100000000E-03 0.  1.
        -12    1    3    3    0    0  0.70724056829E+01  0.18771014800E+01 -0.57475120596E+01  0.93046400782E+01  0.00000000000E+00 0.  1.
</event>
<event>
 7    1  0.4194672E-008  0.4614232E+02  0.7816164E-02  0.1320468E+00
        -11   -1    0    0    0    0  0.00000000000E+00  0.00000000000E+00  0.45593999997E+02  0.45594000000E+02  0.51100000000E-03 0.  1.
         11   -1    0    0    0    0 -0.00000000000E+00 -0.00000000000E+00 -0.45593999997E+02  0.45594000000E+02  0.51100000000E-03 0. -1.
    9900012    2    1    2    0    0  0.29146444703E+02 -0.33367747907E+02 -0.81358232537E+01  0.46142318084E+02  0.10000002949E+02 0.  0.
        -12    1    1    2    0    0 -0.29146444703E+02  0.33367747907E+02  0.81358232537E+01  0.45045681916E+02  0.00000000000E+00 0.  1.
         11    1    3    3    0    0  0.15388971869E+02 -0.14787645798E+02 -0.45933780628E+01  0.21831034005E+02  0.51100000000E-03 0. -1.
        -11    1    3    3    0    0 -0.33594182794E+00  0.19130688807E+00 -0.51458542348E+00  0.64362540065E+00  0.51100000000E-03 0.  1.
         12    1    3    3    0    0  0.14093414662E+02 -0.18771408997E+02 -0.30278597674E+01  0.23667658679E+02  0.00000000000E+00 0. -1.
</event>
<event>
 7    1  0.4194672E-008  0.4614232E+02  0.7816164E-02  0.1320468E+00
        -11   -1    0    0    0    0  0.00000000000E+00  0.00000000000E+00  0.45593999997E+02  0.45594000000E+02  0.51100000000E-03 0. -1.
         11   -1    0    0    0    0 -0.00000000000E+00 -0.00000000000E+00 -0.45593999997E+02  0.45594000000E+02  0.51100000000E-03 0.  1.
    9900012    2    1    2    0    0 -0.42287512090E+02 -0.16632248601E+01 -0.15430933211E+02  0.46142315463E+02  0.99999790396E+01 0.  0.
        -12    1    1    2    0    0  0.42287512090E+02  0.16632248601E+01  0.15430933211E+02  0.45045684537E+02  0.00000000000E+00 0.  1.
         11    1    3    3    0    0 -0.38797119217E+01  0.91598543102E+00  0.43573091497E+00  0.40101191499E+01  0.51100000000E-03 0. -1.
        -11    1    3    3    0    0 -0.82091470537E+01 -0.29983780768E+01 -0.23917923674E+01  0.90609622795E+01  0.51100000000E-03 0.  1.
         12    1    3    3    0    0 -0.30198653114E+02  0.41916778568E+00 -0.13474871758E+02  0.33071234033E+02  0.00000000000E+00 0. -1.
</event>
<event>
 7    1  0.4194672E-008  0.4614232E+02  0.7816164E-02  0.1320468E+00
        -11   -1    0    0    0    0  0.00000000000E+00  0.00000000000E+00  0.45593999997E+02  0.45594000000E+02  0.51100000000E-03 0.  1.
         11   -1    0    0    0    0 -0.00000000000E+00 -0.00000000000E+00 -0.45593999997E+02  0.45594000000E+02  0.51100000000E-03 0. -1.
    9900012    2    1    2    0    0  0.33442644290E+02 -0.25053173283E+02 -0.16823838163E+02  0.46142317863E+02  0.10000000931E+02 0.  0.
        -12    1    1    2    0    0 -0.33442644290E+02  0.25053173283E+02  0.16823838163E+02  0.45045682137E+02  0.00000000000E+00 0.  1.
         11    1    3    3    0    0  0.45701721067E+01 -0.39780231087E+01 -0.10227718235E+01  0.61446890403E+01  0.51100000000E-03 0. -1.
        -11    1    3    3    0    0  0.53481109158E+01 -0.31433556132E+00 -0.19531981152E+01  0.57022872911E+01  0.51100000000E-03 0.  1.
         12    1    3    3    0    0  0.23524361267E+02 -0.20760814613E+02 -0.13847868224E+02  0.34295341532E+02  0.00000000000E+00 0. -1.
</event>
<event>
 7    1  0.4194672E-008  0.4614232E+02  0.7816164E-02  0.1320468E+00
        -11   -1    0    0    0    0  0.00000000000E+00  0.00000000000E+00  0.45593999997E+02  0.45594000000E+02  0.51100000000E-03 0. -1.
         11   -1    0    0    0    0 -0.00000000000E+00 -0.00000000000E+00 -0.45593999997E+02  0.45594000000E+02  0.51100000000E-03 0.  1.
    9900012    2    1    2    0    0 -0.40005255890E+02  0.20428605349E+01  0.20603878113E+02  0.46142316841E+02  0.99999916066E+01 0.  0.
        -12    1    1    2    0    0  0.40005255890E+02 -0.20428605349E+01 -0.20603878113E+02  0.45045683159E+02  0.00000000000E+00 0.  1.
         11    1    3    3    0    0 -0.20021754740E+02  0.61847905680E+00  0.12831048322E+02  0.23788421144E+02  0.51100000000E-03 0. -1.
        -11    1    3    3    0    0 -0.94153260363E+01 -0.54794684537E+00  0.66601311285E+01  0.11545819894E+02  0.51100000000E-03 0.  1.
         12    1    3    3    0    0 -0.10568175113E+02  0.19723283235E+01  0.11126986630E+01  0.10808075803E+02  0.00000000000E+00 0. -1.
</event>
<event>
 7    1  0.4194672E-008  0.4614232E+02  0.7816164E-02  0.1320468E+00
        -11   -1    0    0    0    0  0.00000000000E+00  0.00000000000E+00  0.45593999997E+02  0.45594000000E+02  0.51100000000E-03 0.  1.
         11   -1    0    0    0    0 -0.00000000000E+00 -0.00000000000E+00 -0.45593999997E+02  0.45594000000E+02  0.51100000000E-03 0. -1.
    9900012    2    1    2    0    0 -0.27784963789E+02  0.20465224026E+02 -0.28953131980E+02  0.46142318091E+02  0.10000003009E+02 0.  0.
        -12    1    1    2    0    0  0.27784963789E+02 -0.20465224026E+02  0.28953131980E+02  0.45045681909E+02  0.00000000000E+00 0.  1.
         11    1    3    3    0    0 -0.15385497542E+01  0.16524542411E+01 -0.32977065293E+01  0.39965746558E+01  0.51100000000E-03 0. -1.
        -11    1    3    3    0    0 -0.16654492116E+02  0.80069262976E+01 -0.10713206590E+02  0.21360144477E+02  0.51100000000E-03 0.  1.
        -12    1    3    3    0    0 -0.95919219183E+01  0.10805843487E+02 -0.14942218861E+02  0.20785598958E+02  0.00000000000E+00 0.  1.
</event>
<event>
 7    1  0.4194672E-008  0.4614232E+02  0.7816164E-02  0.1320468E+00
        -11   -1    0    0    0    0  0.00000000000E+00  0.00000000000E+00  0.45593999997E+02  0.45594000000E+02  0.51100000000E-03 0.  1.
         11   -1    0    0    0    0 -0.00000000000E+00 -0.00000000000E+00 -0.45593999997E+02  0.45594000000E+02  0.51100000000E-03 0. -1.
    9900012    2    1    2    0    0 -0.45522928758E+01 -0.44468896795E+02 -0.55594268380E+01  0.46142318971E+02  0.10000011031E+02 0.  0.
        -12    1    1    2    0    0  0.45522928758E+01  0.44468896795E+02  0.55594268380E+01  0.45045681029E+02  0.00000000000E+00 0.  1.
         11    1    3    3    0    0 -0.36865427111E+01 -0.22404505627E+02 -0.19170323595E+01  0.22786563648E+02  0.51100000000E-03 0. -1.
        -11    1    3    3    0    0 -0.18505715580E+01 -0.52072563432E+01  0.14598186968E+01  0.57158730395E+01  0.51100000000E-03 0.  1.
        -12    1    3    3    0    0  0.98482139325E+00 -0.16857134825E+02 -0.51022131753E+01  0.17639882283E+02  0.00000000000E+00 0.  1.
</event>
<event>
 7    1  0.4194672E-008  0.4614232E+02  0.7816164E-02  0.1320468E+00
        -11   -1    0    0    0    0  0.00000000000E+00  0.00000000000E+00  0.45593999997E+02  0.45594000000E+02  0.51100000000E-03 0. -1.
         11   -1    0    0    0    0 -0.00000000000E+00 -0.00000000000E+00 -0.45593999997E+02  0.45594000000E+02  0.51100000000E-03 0.  1.
    9900012    2    1    2    0    0  0.15225423203E+02 -0.40134462792E+02  0.13657409910E+02  0.46142318068E+02  0.10000002795E+02 0.  0.
        -12    1    1    2    0    0 -0.15225423203E+02  0.40134462792E+02 -0.13657409910E+02  0.45045681932E+02  0.00000000000E+00 0.  1.
         11    1    3    3    0    0  0.13999348157E+02 -0.36689898255E+02  0.11710981361E+02  0.40978988122E+02  0.51100000000E-03 0. -1.
        -11    1    3    3    0    0  0.10769287244E+00 -0.51465353493E+00  0.19578276312E+01  0.20272038157E+01  0.51100000000E-03 0.  1.
        -12    1    3    3    0    0  0.11183821735E+01 -0.29299110021E+01 -0.11399082073E-01  0.31361261304E+01  0.00000000000E+00 0.  1.
</event>
<event>
 7    1  0.4194672E-008  0.4614232E+02  0.7816164E-02  0.1320468E+00
        -11   -1    0    0    0    0  0.00000000000E+00  0.00000000000E+00  0.45593999997E+02  0.45594000000E+02  0.51100000000E-03 0.  1.
         11   -1    0    0    0    0 -0.00000000000E+00 -0.00000000000E+00 -0.45593999997E+02  0.45594000000E+02  0.51100000000E-03 0. -1.
    9900012    2    1    2    0    0 -0.93955373099E+01 -0.30738599827E+02  0.31559084952E+02  0.46142317813E+02  0.10000000472E+02 0.  0.
        -12    1    1    2    0    0  0.93955373099E+01  0.30738599827E+02 -0.31559084952E+02  0.45045682187E+02  0.00000000000E+00 0.  1.
         11    1    3    3    0    0 -0.64071151935E+01 -0.13629703478E+02  0.16236614994E+02  0.22146051763E+02  0.51100000000E-03 0. -1.
        -11    1    3    3    0    0 -0.47351770420E-01 -0.49757662403E+01  0.11461210514E+01  0.51062790361E+01  0.51100000000E-03 0.  1.
         12    1    3    3    0    0 -0.29410703460E+01 -0.12133130109E+02  0.14176348907E+02  0.18889987013E+02  0.00000000000E+00 0. -1.
</event>
<event>
 7    1  0.4194672E-008  0.4614232E+02  0.7816164E-02  0.1320468E+00
        -11   -1    0    0    0    0  0.00000000000E+00  0.00000000000E+00  0.45593999997E+02  0.45594000000E+02  0.51100000000E-03 0.  1.
         11   -1    0    0    0    0 -0.00000000000E+00 -0.00000000000E+00 -0.45593999997E+02  0.45594000000E+02  0.51100000000E-03 0. -1.
    9900012    2    1    2    0    0 -0.16021739526E+02 -0.13519630440E+02 -0.39870251274E+02  0.46142317839E+02  0.10000000711E+02 0.  0.
        -12    1    1    2    0    0  0.16021739526E+02  0.13519630440E+02  0.39870251274E+02  0.45045682161E+02  0.00000000000E+00 0.  1.
         11    1    3    3    0    0 -0.33834313562E+01 -0.14868327362E+01 -0.10894186982E+02  0.11503981467E+02  0.51100000000E-03 0. -1.
        -11    1    3    3    0    0 -0.41694198971E+01 -0.17129246624E+01 -0.13326564520E+02  0.14068244217E+02  0.51100000000E-03 0.  1.
        -12    1    3    3    0    0 -0.84688882724E+01 -0.10319873042E+02 -0.15649499772E+02  0.20570092155E+02  0.00000000000E+00 0.  1.
</event>
<event>
 7    1  0.4194672E-008  0.4614232E+02  0.7816164E-02  0.1320468E+00
        -11   -1    0    0    0    0  0.00000000000E+00  0.00000000000E+00  0.45593999997E+02  0.45594000000E+02  0.51100000000E-03 0.  1.
         11   -1    0    0    0    0 -0.00000000000E+00 -0.00000000000E+00 -0.45593999997E+02  0.45594000000E+02  0.51100000000E-03 0. -1.
    9900012    2    1    2    0    0  0.36659666549E+02 -0.75038621019E+01 -0.25077369914E+02  0.46142316747E+02  0.99999907539E+01 0.  0.
        -12    1    1    2    0    0 -0.36659666549E+02  0.75038621019E+01  0.25077369914E+02  0.45045683253E+02  0.00000000000E+00 0.  1.
         11    1    3    3    0    0  0.67556803865E+01 -0.29468329289E+01 -0.87121746838E+01  0.11411618193E+02  0.51100000000E-03 0. -1.
        -11    1    3    3    0    0  0.24749668141E+01 -0.15112753197E+01 -0.25811556030E+01  0.38822388297E+01  0.51100000000E-03 0.  1.
        -12    1    3    3    0    0  0.27429019348E+02 -0.30457538533E+01 -0.13784039627E+02  0.30848459725E+02  0.00000000000E+00 0.  1.
</event>
<event>
 7    1  0.4194672E-008  0.4614232E+02  0.7816164E-02  0.1320468E+00
        -11   -1    0    0    0    0  0.00000000000E+00  0.00000000000E+00  0.45593999997E+02  0.45594000000E+02  0.51100000000E-03 0.  1.
         11   -1    0    0    0    0 -0.00000000000E+00 -0.00000000000E+00 -0.45593999997E+02  0.45594000000E+02  0.51100000000E-03 0. -1.
    9900012    2    1    2    0    0  0.21877110110E+02 -0.39042087623E+02  0.51206348505E+01  0.46142318143E+02  0.10000003479E+02 0.  0.
        -12    1    1    2    0    0 -0.21877110110E+02  0.39042087623E+02 -0.51206348505E+01  0.45045681857E+02  0.00000000000E+00 0.  1.
         11    1    3    3    0    0  0.57261069638E+01 -0.98575401014E+01  0.12175147089E+01  0.11464804409E+02  0.51100000000E-03 0. -1.
        -11    1    3    3    0    0  0.12493753521E+02 -0.13681924463E+02  0.22252824359E+01  0.18661211543E+02  0.51100000000E-03 0.  1.
         12    1    3    3    0    0  0.36572496255E+01 -0.15502623058E+02  0.16778377057E+01  0.16016302191E+02  0.00000000000E+00 0. -1.
</event>
<event>
 7    1  0.4194672E-008  0.4614232E+02  0.7816164E-02  0.1320468E+00
        -11   -1    0    0    0    0  0.00000000000E+00  0.00000000000E+00  0.45593999997E+02  0.45594000000E+02  0.51100000000E-03 0.  1.
         11   -1    0    0    0    0 -0.00000000000E+00 -0.00000000000E+00 -0.45593999997E+02  0.45594000000E+02  0.51100000000E-03 0. -1.
    9900012    2    1    2    0    0 -0.36343139751E+02  0.22326591587E+02 -0.14484922400E+02  0.46142317901E+02  0.10000001278E+02 0.  0.
        -12    1    1    2    0    0  0.36343139751E+02 -0.22326591587E+02  0.14484922400E+02  0.45045682099E+02  0.00000000000E+00 0.  1.
         11    1    3    3    0    0 -0.75837350658E+01  0.35871425951E+01 -0.55031763384E+01  0.10033223790E+02  0.51100000000E-03 0. -1.
        -11    1    3    3    0    0 -0.13018364557E+02  0.47688101641E+01 -0.25077649381E+01  0.14089295630E+02  0.51100000000E-03 0.  1.
         12    1    3    3    0    0 -0.15741040128E+02  0.13970638827E+02 -0.64739811234E+01  0.22019798481E+02  0.00000000000E+00 0. -1.
</event>
<event>
 7    1  0.4194672E-008  0.4614232E+02  0.7816164E-02  0.1320468E+00
        -11   -1    0    0    0    0  0.00000000000E+00  0.00000000000E+00  0.45593999997E+02  0.45594000000E+02  0.51100000000E-03 0.  1.
         11   -1    0    0    0    0 -0.00000000000E+00 -0.00000000000E+00 -0.45593999997E+02  0.45594000000E+02  0.51100000000E-03 0. -1.
    9900012    2    1    2    0    0  0.23237133671E+02  0.31388051663E+02 -0.22448590558E+02  0.46142318892E+02  0.10000010311E+02 0.  0.
        -12    1    1    2    0    0 -0.23237133671E+02 -0.31388051663E+02  0.22448590558E+02  0.45045681108E+02  0.00000000000E+00 0.  1.
         11    1    3    3    0    0  0.15210785588E+02  0.23878123356E+02 -0.13895758674E+02  0.31537674020E+02  0.51100000000E-03 0. -1.
        -11    1    3    3    0    0 -0.26520348116E+00  0.23991938418E+00 -0.14366924420E+01  0.14805335630E+01  0.51100000000E-03 0.  1.
        -12    1    3    3    0    0  0.82915515647E+01  0.72700089224E+01 -0.71161394427E+01  0.13124111309E+02  0.00000000000E+00 0.  1.
</event>
<event>
 7    1  0.4194672E-008  0.4614232E+02  0.7816164E-02  0.1320468E+00
        -11   -1    0    0    0    0  0.00000000000E+00  0.00000000000E+00  0.45593999997E+02  0.45594000000E+02  0.51100000000E-03 0.  1.
         11   -1    0    0    0    0 -0.00000000000E+00 -0.00000000000E+00 -0.45593999997E+02  0.45594000000E+02  0.51100000000E-03 0. -1.
    9900012    2    1    2    0    0 -0.45992479329E+00  0.26264404922E+02 -0.36593483126E+02  0.46142317587E+02  0.99999984126E+01 0.  0.
        -12    1    1    2    0    0  0.45992479329E+00 -0.26264404922E+02  0.36593483126E+02  0.45045682413E+02  0.00000000000E+00 0.  1.
         11    1    3    3    0    0  0.19324540228E+01  0.87073695759E+01 -0.16196403847E+02  0.18489893491E+02  0.51100000000E-03 0. -1.
        -11    1    3    3    0    0  0.96380045353E+00  0.11448605005E+02 -0.10621106771E+02  0.15646321523E+02  0.51100000000E-03 0.  1.
        -12    1    3    3    0    0 -0.33561792696E+01  0.61084303414E+01 -0.97759725083E+01  0.12006102574E+02  0.00000000000E+00 0.  1.
</event>
<event>
 7    1  0.4194672E-008  0.4614232E+02  0.7816164E-02  0.1320468E+00
        -11   -1    0    0    0    0  0.00000000000E+00  0.00000000000E+00  0.45593999997E+02  0.45594000000E+02  0.51100000000E-03 0.  1.
         11   -1    0    0    0    0 -0.00000000000E+00 -0.00000000000E+00 -0.45593999997E+02  0.45594000000E+02  0.51100000000E-03 0. -1.
    9900012    2    1    2    0    0  0.26857310243E+02 -0.32704464897E+02 -0.15434263698E+02  0.46142316150E+02  0.99999853047E+01 0.  0.
        -12    1    1    2    0    0 -0.26857310243E+02  0.32704464897E+02  0.15434263698E+02  0.45045683850E+02  0.00000000000E+00 0.  1.
         11    1    3    3    0    0  0.90997776949E+01 -0.10453487530E+02 -0.31743492135E+01  0.14218222421E+02  0.51100000000E-03 0. -1.
        -11    1    3    3    0    0  0.33897643873E+01 -0.27577293793E+01  0.75119015956E+00  0.44339441638E+01  0.51100000000E-03 0.  1.
         12    1    3    3    0    0  0.14367768161E+02 -0.19493247988E+02 -0.13011104644E+02  0.27490149565E+02  0.00000000000E+00 0. -1.
</event>
<event>
 7    1  0.4194672E-008  0.4614231E+02  0.7816164E-02  0.1320468E+00
        -11   -1    0    0    0    0  0.00000000000E+00  0.00000000000E+00  0.45593999997E+02  0.45594000000E+02  0.51100000000E-03 0.  1.
         11   -1    0    0    0    0 -0.00000000000E+00 -0.00000000000E+00 -0.45593999997E+02  0.45594000000E+02  0.51100000000E-03 0. -1.
    9900012    2    1    2    0    0 -0.16977662903E+02  0.39363745420E+02  0.13833594857E+02  0.46142313883E+02  0.99999646352E+01 0.  0.
        -12    1    1    2    0    0  0.16977662903E+02 -0.39363745420E+02 -0.13833594857E+02  0.45045686117E+02  0.00000000000E+00 0.  1.
         11    1    3    3    0    0 -0.93251527773E+01  0.13353922741E+02  0.88229787725E+01  0.18523786912E+02  0.51100000000E-03 0. -1.
        -11    1    3    3    0    0 -0.23045737664E+01  0.57617119908E+01  0.79837608844E+00  0.62566596478E+01  0.51100000000E-03 0.  1.
         12    1    3    3    0    0 -0.53479363591E+01  0.20248110688E+02  0.42122399959E+01  0.21361867323E+02  0.00000000000E+00 0. -1.
</event>
<event>
 7    1  0.4194672E-008  0.4614232E+02  0.7816164E-02  0.1320468E+00
        -11   -1    0    0    0    0  0.00000000000E+00  0.00000000000E+00  0.45593999997E+02  0.45594000000E+02  0.51100000000E-03 0.  1.
         11   -1    0    0    0    0 -0.00000000000E+00 -0.00000000000E+00 -0.45593999997E+02  0.45594000000E+02  0.51100000000E-03 0. -1.
    9900012    2    1    2    0    0  0.11281882072E+02  0.21252339467E+01 -0.43558193469E+02  0.46142315404E+02  0.99999785055E+01 0.  0.
        -12    1    1    2    0    0 -0.11281882072E+02 -0.21252339467E+01  0.43558193469E+02  0.45045684596E+02  0.00000000000E+00 0.  1.
         11    1    3    3    0    0  0.27801288844E+01 -0.24546369465E+01 -0.16758186992E+02  0.17163659012E+02  0.51100000000E-03 0. -1.
        -11    1    3    3    0    0  0.39150703399E+01  0.38832768838E+00 -0.53116084712E+01  0.66099742036E+01  0.51100000000E-03 0.  1.
        -12    1    3    3    0    0  0.45866828482E+01  0.41915432049E+01 -0.21488398006E+02  0.22368682188E+02  0.00000000000E+00 0.  1.
</event>
<event>
 7    1  0.4194672E-008  0.4614232E+02  0.7816164E-02  0.1320468E+00
        -11   -1    0    0    0    0  0.00000000000E+00  0.00000000000E+00  0.45593999997E+02  0.45594000000E+02  0.51100000000E-03 0.  1.
         11   -1    0    0    0    0 -0.00000000000E+00 -0.00000000000E+00 -0.45593999997E+02  0.45594000000E+02  0.51100000000E-03 0. -1.
    9900012    2    1    2    0    0 -0.32165110475E+02  0.30628088462E+02  0.75126080328E+01  0.46142318584E+02  0.10000007507E+02 0.  0.
        -12    1    1    2    0    0  0.32165110475E+02 -0.30628088462E+02 -0.75126080328E+01  0.45045681416E+02  0.00000000000E+00 0.  1.
         11    1    3    3    0    0 -0.16035086137E+02  0.21110882619E+02  0.61663740875E+01  0.27217963223E+02  0.51100000000E-03 0. -1.
        -11    1    3    3    0    0 -0.48032967253E+01  0.24101494246E+01 -0.61640340737E+00  0.54092913678E+01  0.51100000000E-03 0.  1.
         12    1    3    3    0    0 -0.11326727613E+02  0.71070564183E+01  0.19626373527E+01  0.13515063993E+02  0.00000000000E+00 0. -1.
</event>
<event>
 7    1  0.4194672E-008  0.4614232E+02  0.7816164E-02  0.1320468E+00
        -11   -1    0    0    0    0  0.00000000000E+00  0.00000000000E+00  0.45593999997E+02  0.45594000000E+02  0.51100000000E-03 0.  1.
         11   -1    0    0    0    0 -0.00000000000E+00 -0.00000000000E+00 -0.45593999997E+02  0.45594000000E+02  0.51100000000E-03 0. -1.
    9900012    2    1    2    0    0 -0.28943782610E+01  0.20941686409E+02 -0.39776651373E+02  0.46142315971E+02  0.99999836743E+01 0.  0.
        -12    1    1    2    0    0  0.28943782610E+01 -0.20941686409E+02  0.39776651373E+02  0.45045684029E+02  0.00000000000E+00 0.  1.
         11    1    3    3    0    0  0.83415868013E+00  0.79020030333E+01 -0.10817926689E+02  0.13422556044E+02  0.51100000000E-03 0. -1.
        -11    1    3    3    0    0 -0.88226464579E+00  0.19654435086E+01 -0.74906862751E+00  0.22808908699E+01  0.51100000000E-03 0.  1.
        -12    1    3    3    0    0 -0.28462722954E+01  0.11074239867E+02 -0.28209656057E+02  0.30438869057E+02  0.00000000000E+00 0.  1.
</event>
<event>
 7    1  0.4194672E-008  0.4614232E+02  0.7816164E-02  0.1320468E+00
        -11   -1    0    0    0    0  0.00000000000E+00  0.00000000000E+00  0.45593999997E+02  0.45594000000E+02  0.51100000000E-03 0.  1.
         11   -1    0    0    0    0 -0.00000000000E+00 -0.00000000000E+00 -0.45593999997E+02  0.45594000000E+02  0.51100000000E-03 0. -1.
    9900012    2    1    2    0    0  0.33277453628E+02 -0.14557752581E+01 -0.30324995491E+02  0.46142317043E+02  0.99999934535E+01 0.  0.
        -12    1    1    2    0    0 -0.33277453628E+02  0.14557752581E+01  0.30324995491E+02  0.45045682957E+02  0.00000000000E+00 0.  1.
         11    1    3    3    0    0  0.15121211948E+02 -0.64233795379E+00 -0.13272727390E+02  0.20130299090E+02  0.51100000000E-03 0. -1.
        -11    1    3    3    0    0  0.15160771452E+02  0.64258443194E+00 -0.16849494932E+02  0.22675259326E+02  0.51100000000E-03 0.  1.
         12    1    3    3    0    0  0.29954702271E+01 -0.14560217362E+01 -0.20277316894E+00  0.33367586272E+01  0.00000000000E+00 0. -1.
</event>
<event>
 7    1  0.4303289E-008  0.4614232E+02  0.7816164E-02  0.1320468E+00
        -11   -1    0    0    0    0  0.00000000000E+00  0.00000000000E+00  0.45593999997E+02  0.45594000000E+02  0.51100000000E-03 0.  1.
         11   -1    0    0    0    0 -0.00000000000E+00 -0.00000000000E+00 -0.45593999997E+02  0.45594000000E+02  0.51100000000E-03 0. -1.
    9900012    2    1    2    0    0  0.26478566205E+02  0.35135854298E+02 -0.96680316133E+01  0.46142316957E+02  0.99999926693E+01 0.  0.
        -12    1    1    2    0    0 -0.26478566205E+02 -0.35135854298E+02  0.96680316133E+01  0.45045683043E+02  0.00000000000E+00 0.  1.
         11    1    3    3    0    0  0.51907792636E+01  0.11749519470E+02 -0.15908055651E+01  0.12943185842E+02  0.51100000000E-03 0. -1.
        -11    1    3    3    0    0  0.83266071574E+00  0.14615919342E+00 -0.12275966206E+01  0.14905301410E+01  0.51100000000E-03 0.  1.
         12    1    3    3    0    0  0.20455126226E+02  0.23240175635E+02 -0.68496294277E+01  0.31708600974E+02  0.00000000000E+00 0. -1.
</event>
<event>
 7    1  0.4194672E-008  0.4614232E+02  0.7816164E-02  0.1320468E+00
        -11   -1    0    0    0    0  0.00000000000E+00  0.00000000000E+00  0.45593999997E+02  0.45594000000E+02  0.51100000000E-03 0.  1.
         11   -1    0    0    0    0 -0.00000000000E+00 -0.00000000000E+00 -0.45593999997E+02  0.45594000000E+02  0.51100000000E-03 0. -1.
    9900012    2    1    2    0    0  0.34462864922E+01 -0.19191057426E+01 -0.44872638088E+02  0.46142317561E+02  0.99999981746E+01 0.  0.
        -12    1    1    2    0    0 -0.34462864922E+01  0.19191057426E+01  0.44872638088E+02  0.45045682439E+02  0.00000000000E+00 0.  1.
         11    1    3    3    0    0 -0.30614286039E+00 -0.10331908153E+01 -0.18432582515E+01  0.21351365189E+01  0.51100000000E-03 0. -1.
        -11    1    3    3    0    0  0.27791421685E+01  0.35298401682E+00 -0.36737509143E+01  0.46200297564E+01  0.51100000000E-03 0.  1.
        -12    1    3    3    0    0  0.97328718404E+00 -0.12388989441E+01 -0.39355628922E+02  0.39387151286E+02  0.00000000000E+00 0.  1.
</event>
<event>
 7    1  0.4194672E-008  0.4614232E+02  0.7816164E-02  0.1320468E+00
        -11   -1    0    0    0    0  0.00000000000E+00  0.00000000000E+00  0.45593999997E+02  0.45594000000E+02  0.51100000000E-03 0.  1.
         11   -1    0    0    0    0 -0.00000000000E+00 -0.00000000000E+00 -0.45593999997E+02  0.45594000000E+02  0.51100000000E-03 0. -1.
    9900012    2    1    2    0    0  0.34864379930E+02  0.72027282139E+01 -0.27599079528E+02  0.46142317938E+02  0.10000001615E+02 0.  0.
        -12    1    1    2    0    0 -0.34864379930E+02 -0.72027282139E+01  0.27599079528E+02  0.45045682062E+02  0.00000000000E+00 0.  1.
         11    1    3    3    0    0  0.16729171331E+02  0.32390861578E+01 -0.16561614911E+02  0.23762237716E+02  0.51100000000E-03 0. -1.
        -11    1    3    3    0    0  0.12035783487E+02  0.29881866311E+01 -0.10372996954E+02  0.16167510927E+02  0.51100000000E-03 0.  1.
        -12    1    3    3    0    0  0.60994251116E+01  0.97545542497E+00 -0.66446766345E+00  0.62125692957E+01  0.00000000000E+00 0.  1.
</event>
<event>
 7    1  0.4194672E-008  0.4614232E+02  0.7816164E-02  0.1320468E+00
        -11   -1    0    0    0    0  0.00000000000E+00  0.00000000000E+00  0.45593999997E+02  0.45594000000E+02  0.51100000000E-03 0.  1.
         11   -1    0    0    0    0 -0.00000000000E+00 -0.00000000000E+00 -0.45593999997E+02  0.45594000000E+02  0.51100000000E-03 0. -1.
    9900012    2    1    2    0    0 -0.36885493141E+02 -0.10622832823E+02 -0.23573911784E+02  0.46142317651E+02  0.99999989983E+01 0.  0.
        -12    1    1    2    0    0  0.36885493141E+02  0.10622832823E+02  0.23573911784E+02  0.45045682349E+02  0.00000000000E+00 0.  1.
         11    1    3    3    0    0 -0.20921994423E+01 -0.10869493317E+01 -0.18865779117E+01  0.30195916668E+01  0.51100000000E-03 0. -1.
        -11    1    3    3    0    0 -0.12980829103E+02 -0.20250004486E+01 -0.31041553944E+01  0.13499567845E+02  0.51100000000E-03 0.  1.
         12    1    3    3    0    0 -0.21812464596E+02 -0.75108830425E+01 -0.18583178478E+02  0.29623158140E+02  0.00000000000E+00 0. -1.
</event>
<event>
 7    1  0.4194672E-008  0.4614232E+02  0.7816164E-02  0.1320468E+00
        -11   -1    0    0    0    0  0.00000000000E+00  0.00000000000E+00  0.45593999997E+02  0.45594000000E+02  0.51100000000E-03 0.  1.
         11   -1    0    0    0    0 -0.00000000000E+00 -0.00000000000E+00 -0.45593999997E+02  0.45594000000E+02  0.51100000000E-03 0. -1.
    9900012    2    1    2    0    0  0.31094721849E+02 -0.28161776792E+02 -0.16405671448E+02  0.46142318135E+02  0.10000003411E+02 0.  0.
        -12    1    1    2    0    0 -0.31094721849E+02  0.28161776792E+02  0.16405671448E+02  0.45045681865E+02  0.00000000000E+00 0.  1.
         11    1    3    3    0    0  0.13538435314E+01 -0.45398890640E+01 -0.94792336256E+00  0.48313604692E+01  0.51100000000E-03 0. -1.
        -11    1    3    3    0    0  0.47199611785E+01 -0.46339965259E+01 -0.46823621087E+01  0.81041022024E+01  0.51100000000E-03 0.  1.
         12    1    3    3    0    0  0.25020917139E+02 -0.18987891203E+02 -0.10775385977E+02  0.33206855464E+02  0.00000000000E+00 0. -1.
</event>
<event>
 7    1  0.4194672E-008  0.4614232E+02  0.7816164E-02  0.1320468E+00
        -11   -1    0    0    0    0  0.00000000000E+00  0.00000000000E+00  0.45593999997E+02  0.45594000000E+02  0.51100000000E-03 0.  1.
         11   -1    0    0    0    0 -0.00000000000E+00 -0.00000000000E+00 -0.45593999997E+02  0.45594000000E+02  0.51100000000E-03 0. -1.
    9900012    2    1    2    0    0  0.79633716189E+01  0.43800808397E+02  0.68693037258E+01  0.46142318326E+02  0.10000005150E+02 0.  0.
        -12    1    1    2    0    0 -0.79633716189E+01 -0.43800808397E+02 -0.68693037258E+01  0.45045681674E+02  0.00000000000E+00 0.  1.
         11    1    3    3    0    0 -0.64268161323E+00  0.59493570126E+01  0.40079514048E+00  0.59973765536E+01  0.51100000000E-03 0. -1.
        -11    1    3    3    0    0  0.23749864899E+01  0.18589919345E+01  0.11690855096E+01  0.32346828330E+01  0.51100000000E-03 0.  1.
         12    1    3    3    0    0  0.62310667422E+01  0.35992459450E+02  0.52994230757E+01  0.36910258939E+02  0.00000000000E+00 0. -1.
</event>
<event>
 7    1  0.4194672E-008  0.4614232E+02  0.7816164E-02  0.1320468E+00
        -11   -1    0    0    0    0  0.00000000000E+00  0.00000000000E+00  0.45593999997E+02  0.45594000000E+02  0.51100000000E-03 0. -1.
         11   -1    0    0    0    0 -0.00000000000E+00 -0.00000000000E+00 -0.45593999997E+02  0.45594000000E+02  0.51100000000E-03 0.  1.
    9900012    2    1    2    0    0  0.21434835535E+02  0.32152434630E+02  0.23149131951E+02  0.46142317220E+02  0.99999950657E+01 0.  0.
        -12    1    1    2    0    0 -0.21434835535E+02 -0.32152434630E+02 -0.23149131951E+02  0.45045682780E+02  0.00000000000E+00 0.  1.
         11    1    3    3    0    0  0.94612978118E+01  0.14181504296E+02  0.12888161453E+02  0.21371381010E+02  0.51100000000E-03 0. -1.
        -11    1    3    3    0    0  0.19344203009E+01  0.84595401763E+01  0.46650267006E+01  0.98523233947E+01  0.51100000000E-03 0.  1.
         12    1    3    3    0    0  0.10039117422E+02  0.95113901578E+01  0.55959437974E+01  0.14918612815E+02  0.00000000000E+00 0. -1.
</event>
<event>
 7    1  0.4194672E-008  0.4614232E+02  0.7816164E-02  0.1320468E+00
        -11   -1    0    0    0    0  0.00000000000E+00  0.00000000000E+00  0.45593999997E+02  0.45594000000E+02  0.51100000000E-03 0.  1.
         11   -1    0    0    0    0 -0.00000000000E+00 -0.00000000000E+00 -0.45593999997E+02  0.45594000000E+02  0.51100000000E-03 0. -1.
    9900012    2    1    2    0    0 -0.92037245234E+01 -0.27802171574E+02 -0.34226368148E+02  0.46142316900E+02  0.99999921480E+01 0.  0.
        -12    1    1    2    0    0  0.92037245234E+01  0.27802171574E+02  0.34226368148E+02  0.45045683100E+02  0.00000000000E+00 0.  1.
         11    1    3    3    0    0 -0.18230601254E+01 -0.33929554834E+01 -0.15584560534E+01  0.41550548329E+01  0.51100000000E-03 0. -1.
        -11    1    3    3    0    0 -0.45707791446E+01 -0.91529432872E+01 -0.86617525338E+01  0.13405012123E+02  0.51100000000E-03 0.  1.
         12    1    3    3    0    0 -0.28098852534E+01 -0.15256272803E+02 -0.24006159561E+02  0.28582249944E+02  0.00000000000E+00 0. -1.
</event>
<event>
 7    1  0.4194672E-008  0.4614232E+02  0.7816164E-02  0.1320468E+00
        -11   -1    0    0    0    0  0.00000000000E+00  0.00000000000E+00  0.45593999997E+02  0.45594000000E+02  0.51100000000E-03 0.  1.
         11   -1    0    0    0    0 -0.00000000000E+00 -0.00000000000E+00 -0.45593999997E+02  0.45594000000E+02  0.51100000000E-03 0. -1.
    9900012    2    1    2    0    0 -0.22615305712E+02  0.34096812034E+02 -0.18843268512E+02  0.46142318614E+02  0.10000007778E+02 0.  0.
        -12    1    1    2    0    0  0.22615305712E+02 -0.34096812034E+02  0.18843268512E+02  0.45045681386E+02  0.00000000000E+00 0.  1.
         11    1    3    3    0    0 -0.77166584596E+01  0.93815917666E+01 -0.93320696324E+01  0.15318244212E+02  0.51100000000E-03 0. -1.
        -11    1    3    3    0    0 -0.32328500543E+01  0.20741093346E+01 -0.98829865039E+00  0.39661043214E+01  0.51100000000E-03 0.  1.
        -12    1    3    3    0    0 -0.11665797198E+02  0.22641110933E+02 -0.85229002291E+01  0.26857970081E+02  0.00000000000E+00 0.  1.
</event>
<event>
 7    1  0.4194672E-008  0.4614232E+02  0.7816164E-02  0.1320468E+00
        -11   -1    0    0    0    0  0.00000000000E+00  0.00000000000E+00  0.45593999997E+02  0.45594000000E+02  0.51100000000E-03 0. -1.
         11   -1    0    0    0    0 -0.00000000000E+00 -0.00000000000E+00 -0.45593999997E+02  0.45594000000E+02  0.51100000000E-03 0.  1.
    9900012    2    1    2    0    0  0.29839105482E+02  0.23795046669E+02  0.23927745996E+02  0.46142317738E+02  0.99999997929E+01 0.  0.
        -12    1    1    2    0    0 -0.29839105482E+02 -0.23795046669E+02 -0.23927745996E+02  0.45045682262E+02  0.00000000000E+00 0.  1.
         11    1    3    3    0    0  0.12525220992E+02  0.10820249800E+02  0.11060497208E+02  0.19907123483E+02  0.51100000000E-03 0. -1.
        -11    1    3    3    0    0  0.15685917842E+01 -0.25613293131E+00  0.30646008391E+01  0.34522257788E+01  0.51100000000E-03 0.  1.
        -12    1    3    3    0    0  0.15745292706E+02  0.13230929800E+02  0.98026479496E+01  0.22782968476E+02  0.00000000000E+00 0.  1.
</event>
<event>
 7    1  0.4194672E-008  0.4614232E+02  0.7816164E-02  0.1320468E+00
        -11   -1    0    0    0    0  0.00000000000E+00  0.00000000000E+00  0.45593999997E+02  0.45594000000E+02  0.51100000000E-03 0.  1.
         11   -1    0    0    0    0 -0.00000000000E+00 -0.00000000000E+00 -0.45593999997E+02  0.45594000000E+02  0.51100000000E-03 0. -1.
    9900012    2    1    2    0    0 -0.30199729514E+02 -0.18526601163E+02 -0.27818248247E+02  0.46142317089E+02  0.99999938716E+01 0.  0.
        -12    1    1    2    0    0  0.30199729514E+02  0.18526601163E+02  0.27818248247E+02  0.45045682911E+02  0.00000000000E+00 0.  1.
         11    1    3    3    0    0 -0.47696493949E+01 -0.16198759332E+01 -0.17072734328E+01  0.53186780524E+01  0.51100000000E-03 0. -1.
        -11    1    3    3    0    0 -0.88562237323E+01 -0.27065941981E+01 -0.10438731347E+02  0.13954406592E+02  0.51100000000E-03 0.  1.
         12    1    3    3    0    0 -0.16573856387E+02 -0.14200131032E+02 -0.15672243468E+02  0.26869232444E+02  0.00000000000E+00 0. -1.
</event>
<event>
 7    1  0.4194672E-008  0.4614233E+02  0.7816164E-02  0.1320468E+00
        -11   -1    0    0    0    0  0.00000000000E+00  0.00000000000E+00  0.45593999997E+02  0.45594000000E+02  0.51100000000E-03 0.  1.
         11   -1    0    0    0    0 -0.00000000000E+00 -0.00000000000E+00 -0.45593999997E+02  0.45594000000E+02  0.51100000000E-03 0. -1.
    9900012    2    1    2    0    0  0.54865353111E+01 -0.39109238658E+02 -0.21667431922E+02  0.46142331793E+02  0.10000127954E+02 0.  0.
        -12    1    1    2    0    0 -0.54865353111E+01  0.39109238658E+02  0.21667431922E+02  0.45045668207E+02  0.00000000000E+00 0.  1.
         11    1    3    3    0    0  0.29940274845E+01 -0.15669188421E+02 -0.82204037400E+01  0.17946105546E+02  0.51100000000E-03 0. -1.
        -11    1    3    3    0    0  0.25177637156E+01 -0.93616863396E+01 -0.16609541619E+01  0.98356023831E+01  0.51100000000E-03 0.  1.
        -12    1    3    3    0    0 -0.25255888983E-01 -0.14078363897E+02 -0.11786074020E+02  0.18360623864E+02  0.00000000000E+00 0.  1.
</event>
<event>
 7    1  0.4194672E-008  0.4614232E+02  0.7816164E-02  0.1320468E+00
        -11   -1    0    0    0    0  0.00000000000E+00  0.00000000000E+00  0.45593999997E+02  0.45594000000E+02  0.51100000000E-03 0.  1.
         11   -1    0    0    0    0 -0.00000000000E+00 -0.00000000000E+00 -0.45593999997E+02  0.45594000000E+02  0.51100000000E-03 0. -1.
    9900012    2    1    2    0    0 -0.43867950080E+02 -0.63134042428E+01  0.80534096809E+01  0.46142317356E+02  0.99999963082E+01 0.  0.
        -12    1    1    2    0    0  0.43867950080E+02  0.63134042428E+01 -0.80534096809E+01  0.45045682644E+02  0.00000000000E+00 0.  1.
         11    1    3    3    0    0 -0.13884622899E+02 -0.19952401986E+01  0.23878444616E+01  0.14229038546E+02  0.51100000000E-03 0. -1.
        -11    1    3    3    0    0 -0.29146675837E+02 -0.50355310616E+01  0.67803896730E+01  0.30345658170E+02  0.51100000000E-03 0.  1.
        -12    1    3    3    0    0 -0.83665134394E+00  0.71736701741E+00 -0.11148244537E+01  0.15676206402E+01  0.00000000000E+00 0.  1.
</event>
<event>
 7    1  0.4194672E-008  0.4614233E+02  0.7816164E-02  0.1320468E+00
        -11   -1    0    0    0    0  0.00000000000E+00  0.00000000000E+00  0.45593999997E+02  0.45594000000E+02  0.51100000000E-03 0.  1.
         11   -1    0    0    0    0 -0.00000000000E+00 -0.00000000000E+00 -0.45593999997E+02  0.45594000000E+02  0.51100000000E-03 0. -1.
    9900012    2    1    2    0    0 -0.21761415034E+02  0.38497745032E+02 -0.85718423758E+01  0.46142333854E+02  0.10000146749E+02 0.  0.
        -12    1    1    2    0    0  0.21761415034E+02 -0.38497745032E+02  0.85718423758E+01  0.45045666146E+02  0.00000000000E+00 0.  1.
         11    1    3    3    0    0 -0.90766313805E+01  0.13069028604E+02 -0.13877833152E+01  0.15972184843E+02  0.51100000000E-03 0. -1.
        -11    1    3    3    0    0 -0.10301939219E+02  0.23039394761E+02 -0.40420131506E+01  0.25559372707E+02  0.51100000000E-03 0.  1.
        -12    1    3    3    0    0 -0.23828444338E+01  0.23893216671E+01 -0.31420459099E+01  0.46107763039E+01  0.00000000000E+00 0.  1.
</event>
<event>
 7    1  0.4194672E-008  0.4614232E+02  0.7816164E-02  0.1320468E+00
        -11   -1    0    0    0    0  0.00000000000E+00  0.00000000000E+00  0.45593999997E+02  0.45594000000E+02  0.51100000000E-03 0.  1.
         11   -1    0    0    0    0 -0.00000000000E+00 -0.00000000000E+00 -0.45593999997E+02  0.45594000000E+02  0.51100000000E-03 0. -1.
    9900012    2    1    2    0    0 -0.39784435240E+02  0.83560850426E+01 -0.19403300554E+02  0.46142317443E+02  0.99999970993E+01 0.  0.
        -12    1    1    2    0    0  0.39784435240E+02 -0.83560850426E+01  0.19403300554E+02  0.45045682557E+02  0.00000000000E+00 0.  1.
         11    1    3    3    0    0 -0.16232949924E+02  0.13915379854E+01 -0.92732118167E+01  0.18746666340E+02  0.51100000000E-03 0. -1.
        -11    1    3    3    0    0 -0.11505203536E+02  0.38844441580E+01 -0.14450845619E+01  0.12228936359E+02  0.51100000000E-03 0.  1.
        -12    1    3    3    0    0 -0.12046281781E+02  0.30801028992E+01 -0.86850041756E+01  0.15166714744E+02  0.00000000000E+00 0.  1.
</event>
<event>
 7    1  0.4194672E-008  0.4614232E+02  0.7816164E-02  0.1320468E+00
        -11   -1    0    0    0    0  0.00000000000E+00  0.00000000000E+00  0.45593999997E+02  0.45594000000E+02  0.51100000000E-03 0.  1.
         11   -1    0    0    0    0 -0.00000000000E+00 -0.00000000000E+00 -0.45593999997E+02  0.45594000000E+02  0.51100000000E-03 0. -1.
    9900012    2    1    2    0    0  0.10370474670E+02 -0.33578642484E+02 -0.28178739237E+02  0.46142319620E+02  0.10000016951E+02 0.  0.
        -12    1    1    2    0    0 -0.10370474670E+02  0.33578642484E+02  0.28178739237E+02  0.45045680380E+02  0.00000000000E+00 0.  1.
         11    1    3    3    0    0 -0.97071941049E+00 -0.25492506870E+01 -0.35621823698E+01  0.44866600870E+01  0.51100000000E-03 0. -1.
        -11    1    3    3    0    0  0.23512629100E+01 -0.19065067110E+01 -0.13663315535E+01  0.33211545110E+01  0.51100000000E-03 0.  1.
         12    1    3    3    0    0  0.89899311708E+01 -0.29122885086E+02 -0.23250225313E+02  0.38334505022E+02  0.00000000000E+00 0. -1.
</event>
<event>
 7    1  0.4194672E-008  0.4614232E+02  0.7816164E-02  0.1320468E+00
        -11   -1    0    0    0    0  0.00000000000E+00  0.00000000000E+00  0.45593999997E+02  0.45594000000E+02  0.51100000000E-03 0. -1.
         11   -1    0    0    0    0 -0.00000000000E+00 -0.00000000000E+00 -0.45593999997E+02  0.45594000000E+02  0.51100000000E-03 0.  1.
    9900012    2    1    2    0    0 -0.22281506490E+02  0.23974540567E+02  0.30949465013E+02  0.46142317505E+02  0.99999976602E+01 0.  0.
        -12    1    1    2    0    0  0.22281506490E+02 -0.23974540567E+02 -0.30949465013E+02  0.45045682495E+02  0.00000000000E+00 0.  1.
         11    1    3    3    0    0 -0.10178439175E+02  0.11014853254E+02  0.19865195732E+02  0.24890834016E+02  0.51100000000E-03 0. -1.
        -11    1    3    3    0    0 -0.10866481471E+01  0.15082304147E+01 -0.31661420731E-01  0.18591841991E+01  0.51100000000E-03 0.  1.
         12    1    3    3    0    0 -0.11016419168E+02  0.11451456898E+02  0.11115930702E+02  0.19392299290E+02  0.00000000000E+00 0. -1.
</event>
<event>
 7    1  0.4194672E-008  0.4614232E+02  0.7816164E-02  0.1320468E+00
        -11   -1    0    0    0    0  0.00000000000E+00  0.00000000000E+00  0.45593999997E+02  0.45594000000E+02  0.51100000000E-03 0.  1.
         11   -1    0    0    0    0 -0.00000000000E+00 -0.00000000000E+00 -0.45593999997E+02  0.45594000000E+02  0.51100000000E-03 0. -1.
    9900012    2    1    2    0    0  0.43670811413E+02 -0.30887593307E+01 -0.10603451951E+02  0.46142318776E+02  0.10000009256E+02 0.  0.
        -12    1    1    2    0    0 -0.43670811413E+02  0.30887593307E+01  0.10603451951E+02  0.45045681224E+02  0.00000000000E+00 0.  1.
         11    1    3    3    0    0  0.17053693813E+02  0.13708212525E+01 -0.83469118130E+01  0.19036243344E+02  0.51100000000E-03 0.  1.
        -11    1    3    3    0    0  0.15271285498E+02 -0.25299338587E+01 -0.18566193795E+01  0.15590374013E+02  0.51100000000E-03 0. -1.
        -12    1    3    3    0    0  0.11345832101E+02 -0.19296467245E+01 -0.39992075825E+00  0.11515701419E+02  0.00000000000E+00 0.  1.
</event>
<event>
 7    1  0.4194672E-008  0.4614232E+02  0.7816164E-02  0.1320468E+00
        -11   -1    0    0    0    0  0.00000000000E+00  0.00000000000E+00  0.45593999997E+02  0.45594000000E+02  0.51100000000E-03 0.  1.
         11   -1    0    0    0    0 -0.00000000000E+00 -0.00000000000E+00 -0.45593999997E+02  0.45594000000E+02  0.51100000000E-03 0. -1.
    9900012    2    1    2    0    0  0.43813978661E+01  0.93163162029E+01 -0.43853426998E+02  0.46142318139E+02  0.10000003450E+02 0.  0.
        -12    1    1    2    0    0 -0.43813978661E+01 -0.93163162029E+01  0.43853426998E+02  0.45045681861E+02  0.00000000000E+00 0.  1.
         11    1    3    3    0    0 -0.48478897438E+00 -0.53634457209E+00 -0.14329848810E+02  0.14348074889E+02  0.51100000000E-03 0. -1.
        -11    1    3    3    0    0 -0.52251389592E+00  0.61236978815E+00 -0.46344439622E+01  0.47038376491E+01  0.51100000000E-03 0.  1.
        -12    1    3    3    0    0  0.53887007364E+01  0.92402909869E+01 -0.24889134225E+02  0.27090405601E+02  0.00000000000E+00 0.  1.
</event>
<event>
 7    1  0.4194672E-008  0.4614232E+02  0.7816164E-02  0.1320468E+00
        -11   -1    0    0    0    0  0.00000000000E+00  0.00000000000E+00  0.45593999997E+02  0.45594000000E+02  0.51100000000E-03 0.  1.
         11   -1    0    0    0    0 -0.00000000000E+00 -0.00000000000E+00 -0.45593999997E+02  0.45594000000E+02  0.51100000000E-03 0. -1.
    9900012    2    1    2    0    0  0.25437811695E+02 -0.18285092713E+02 -0.32367988564E+02  0.46142316933E+02  0.99999924465E+01 0.  0.
        -12    1    1    2    0    0 -0.25437811695E+02  0.18285092713E+02  0.32367988564E+02  0.45045683067E+02  0.00000000000E+00 0.  1.
         11    1    3    3    0    0  0.59040872506E+01 -0.53235497001E+01 -0.98376759058E+01  0.12648252653E+02  0.51100000000E-03 0.  1.
        -11    1    3    3    0    0  0.37171092225E+01 -0.26831007711E+00 -0.70731703202E+01  0.79949127518E+01  0.51100000000E-03 0. -1.
         12    1    3    3    0    0  0.15816615221E+02 -0.12693232935E+02 -0.15457142338E+02  0.25499151528E+02  0.00000000000E+00 0. -1.
</event>
<event>
 7    1  0.4194672E-008  0.4614232E+02  0.7816164E-02  0.1320468E+00
        -11   -1    0    0    0    0  0.00000000000E+00  0.00000000000E+00  0.45593999997E+02  0.45594000000E+02  0.51100000000E-03 0. -1.
         11   -1    0    0    0    0 -0.00000000000E+00 -0.00000000000E+00 -0.45593999997E+02  0.45594000000E+02  0.51100000000E-03 0.  1.
    9900012    2    1    2    0    0  0.13069476622E+02 -0.39949701410E+02  0.16196407903E+02  0.46142317734E+02  0.99999997487E+01 0.  0.
        -12    1    1    2    0    0 -0.13069476622E+02  0.39949701410E+02 -0.16196407903E+02  0.45045682266E+02  0.00000000000E+00 0.  1.
         11    1    3    3    0    0  0.36459364901E+01 -0.18441044079E+02  0.73769113846E+01  0.20193656961E+02  0.51100000000E-03 0. -1.
        -11    1    3    3    0    0  0.88394998684E+01 -0.21399224575E+02  0.95166966109E+01  0.25032600444E+02  0.51100000000E-03 0.  1.
        -12    1    3    3    0    0  0.58404026308E+00 -0.10943275533E+00 -0.69720009237E+00  0.91606032860E+00  0.00000000000E+00 0.  1.
</event>
<event>
 7    1  0.4194672E-008  0.4614232E+02  0.7816164E-02  0.1320468E+00
        -11   -1    0    0    0    0  0.00000000000E+00  0.00000000000E+00  0.45593999997E+02  0.45594000000E+02  0.51100000000E-03 0.  1.
         11   -1    0    0    0    0 -0.00000000000E+00 -0.00000000000E+00 -0.45593999997E+02  0.45594000000E+02  0.51100000000E-03 0. -1.
    9900012    2    1    2    0    0 -0.23049130519E+02 -0.20207071777E+02 -0.33007957452E+02  0.46142318491E+02  0.10000006652E+02 0.  0.
        -12    1    1    2    0    0  0.23049130519E+02  0.20207071777E+02  0.33007957452E+02  0.45045681509E+02  0.00000000000E+00 0.  1.
         11    1    3    3    0    0 -0.13755302407E+02 -0.72640619739E+01 -0.15630287528E+02  0.22051776099E+02  0.51100000000E-03 0. -1.
        -11    1    3    3    0    0 -0.13476957387E+01 -0.39655739468E+00 -0.26035975468E+00  0.14287508650E+01  0.51100000000E-03 0.  1.
         12    1    3    3    0    0 -0.79461323732E+01 -0.12546452409E+02 -0.17117310170E+02  0.22661791526E+02  0.00000000000E+00 0. -1.
</event>
<event>
 7    1  0.4194672E-008  0.4614232E+02  0.7816164E-02  0.1320468E+00
        -11   -1    0    0    0    0  0.00000000000E+00  0.00000000000E+00  0.45593999997E+02  0.45594000000E+02  0.51100000000E-03 0. -1.
         11   -1    0    0    0    0 -0.00000000000E+00 -0.00000000000E+00 -0.45593999997E+02  0.45594000000E+02  0.51100000000E-03 0.  1.
    9900012    2    1    2    0    0 -0.25985809463E+02  0.33981769226E+02  0.14109944993E+02  0.46142317844E+02  0.10000000758E+02 0.  0.
        -12    1    1    2    0    0  0.25985809463E+02 -0.33981769226E+02 -0.14109944993E+02  0.45045682156E+02  0.00000000000E+00 0.  1.
         11    1    3    3    0    0 -0.60292340768E+01  0.10290116241E+02  0.26493914442E+01  0.12217095853E+02  0.51100000000E-03 0. -1.
        -11    1    3    3    0    0 -0.20226381480E+02  0.22728381934E+02  0.12094583831E+02  0.32740873712E+02  0.51100000000E-03 0.  1.
        -12    1    3    3    0    0  0.26980609354E+00  0.96327105199E+00 -0.63403028285E+00  0.11843482796E+01  0.00000000000E+00 0.  1.
</event>
<event>
 7    1  0.4194672E-008  0.4614231E+02  0.7816164E-02  0.1320468E+00
        -11   -1    0    0    0    0  0.00000000000E+00  0.00000000000E+00  0.45593999997E+02  0.45594000000E+02  0.51100000000E-03 0.  1.
         11   -1    0    0    0    0 -0.00000000000E+00 -0.00000000000E+00 -0.45593999997E+02  0.45594000000E+02  0.51100000000E-03 0. -1.
    9900012    2    1    2    0    0 -0.20282537939E+01 -0.44999873626E+02  0.10677394959E+00  0.46142313853E+02  0.99999643615E+01 0.  0.
        -12    1    1    2    0    0  0.20282537939E+01  0.44999873626E+02 -0.10677394959E+00  0.45045686147E+02  0.00000000000E+00 0.  1.
         11    1    3    3    0    0 -0.10053302596E+00 -0.54226807157E+01  0.23778309569E+01  0.59219636401E+01  0.51100000000E-03 0. -1.
        -11    1    3    3    0    0  0.42648900245E-01 -0.15507333373E+02 -0.39787588243E+01  0.16009676115E+02  0.51100000000E-03 0.  1.
        -12    1    3    3    0    0 -0.19703696682E+01 -0.24069859537E+02  0.17077018170E+01  0.24210674098E+02  0.00000000000E+00 0.  1.
</event>
<event>
 7    1  0.4194672E-008  0.4614232E+02  0.7816164E-02  0.1320468E+00
        -11   -1    0    0    0    0  0.00000000000E+00  0.00000000000E+00  0.45593999997E+02  0.45594000000E+02  0.51100000000E-03 0.  1.
         11   -1    0    0    0    0 -0.00000000000E+00 -0.00000000000E+00 -0.45593999997E+02  0.45594000000E+02  0.51100000000E-03 0. -1.
    9900012    2    1    2    0    0 -0.28843497092E+02 -0.18379140455E+02 -0.29315070669E+02  0.46142317669E+02  0.99999991567E+01 0.  0.
        -12    1    1    2    0    0  0.28843497092E+02  0.18379140455E+02  0.29315070669E+02  0.45045682331E+02  0.00000000000E+00 0.  1.
         11    1    3    3    0    0  0.28867118700E-01  0.50053301872E+00  0.27151094392E+00  0.57016231651E+00  0.51100000000E-03 0.  1.
        -11    1    3    3    0    0 -0.77156513893E+01 -0.68886300450E+01 -0.87690675858E+01  0.13560274586E+02  0.51100000000E-03 0. -1.
        -12    1    3    3    0    0 -0.21156712822E+02 -0.11991043428E+02 -0.20817514027E+02  0.32011880766E+02  0.00000000000E+00 0.  1.
</event>
<event>
 7    1  0.4194672E-008  0.4614232E+02  0.7816164E-02  0.1320468E+00
        -11   -1    0    0    0    0  0.00000000000E+00  0.00000000000E+00  0.45593999997E+02  0.45594000000E+02  0.51100000000E-03 0.  1.
         11   -1    0    0    0    0 -0.00000000000E+00 -0.00000000000E+00 -0.45593999997E+02  0.45594000000E+02  0.51100000000E-03 0. -1.
    9900012    2    1    2    0    0 -0.43521413584E+02  0.95167225106E+01 -0.66657413269E+01  0.46142317020E+02  0.99999932399E+01 0.  0.
        -12    1    1    2    0    0  0.43521413584E+02 -0.95167225106E+01  0.66657413269E+01  0.45045682980E+02  0.00000000000E+00 0.  1.
         11    1    3    3    0    0 -0.76586939135E+01  0.25025417884E+00  0.18509074273E+01  0.78831515385E+01  0.51100000000E-03 0. -1.
        -11    1    3    3    0    0 -0.18791847479E+02  0.65620428052E+01 -0.60264892515E+01  0.20796935121E+02  0.51100000000E-03 0.  1.
         12    1    3    3    0    0 -0.17070872192E+02  0.27044255265E+01 -0.24901595027E+01  0.17462230361E+02  0.00000000000E+00 0. -1.
</event>
<event>
 7    1  0.4194672E-008  0.4614232E+02  0.7816164E-02  0.1320468E+00
        -11   -1    0    0    0    0  0.00000000000E+00  0.00000000000E+00  0.45593999997E+02  0.45594000000E+02  0.51100000000E-03 0.  1.
         11   -1    0    0    0    0 -0.00000000000E+00 -0.00000000000E+00 -0.45593999997E+02  0.45594000000E+02  0.51100000000E-03 0. -1.
    9900012    2    1    2    0    0  0.46620900703E+01 -0.28943372754E+02 -0.34200284885E+02  0.46142318782E+02  0.10000009309E+02 0.  0.
        -12    1    1    2    0    0 -0.46620900703E+01  0.28943372754E+02  0.34200284885E+02  0.45045681218E+02  0.00000000000E+00 0.  1.
         11    1    3    3    0    0  0.11702825038E+01 -0.44053581395E+00 -0.48926527118E+01  0.50499191837E+01  0.51100000000E-03 0. -1.
        -11    1    3    3    0    0 -0.14215378944E+00 -0.63017666102E+01 -0.61433351448E+01  0.88018769062E+01  0.51100000000E-03 0.  1.
         12    1    3    3    0    0  0.36339613559E+01 -0.22201070330E+02 -0.23164297028E+02  0.32290522692E+02  0.00000000000E+00 0. -1.
</event>
<event>
 7    1  0.4194672E-008  0.4614232E+02  0.7816164E-02  0.1320468E+00
        -11   -1    0    0    0    0  0.00000000000E+00  0.00000000000E+00  0.45593999997E+02  0.45594000000E+02  0.51100000000E-03 0. -1.
         11   -1    0    0    0    0 -0.00000000000E+00 -0.00000000000E+00 -0.45593999997E+02  0.45594000000E+02  0.51100000000E-03 0.  1.
    9900012    2    1    2    0    0  0.63218315088E+01 -0.41544479520E+02  0.16223566387E+02  0.46142318315E+02  0.10000005048E+02 0.  0.
        -12    1    1    2    0    0 -0.63218315088E+01  0.41544479520E+02 -0.16223566387E+02  0.45045681685E+02  0.00000000000E+00 0.  1.
         11    1    3    3    0    0  0.49728516976E+00 -0.56885570935E+01  0.56589678347E+01  0.80393340248E+01  0.51100000000E-03 0. -1.
        -11    1    3    3    0    0  0.15959198686E+01 -0.14678826940E+02  0.21258604420E+01  0.14917580348E+02  0.51100000000E-03 0.  1.
         12    1    3    3    0    0  0.42286264704E+01 -0.21177095486E+02  0.84387381102E+01  0.23185403942E+02  0.00000000000E+00 0. -1.
</event>
<event>
 7    1  0.4194672E-008  0.4614232E+02  0.7816164E-02  0.1320468E+00
        -11   -1    0    0    0    0  0.00000000000E+00  0.00000000000E+00  0.45593999997E+02  0.45594000000E+02  0.51100000000E-03 0. -1.
         11   -1    0    0    0    0 -0.00000000000E+00 -0.00000000000E+00 -0.45593999997E+02  0.45594000000E+02  0.51100000000E-03 0.  1.
    9900012    2    1    2    0    0  0.17860947680E+02  0.41224254286E+02  0.32650300777E+01  0.46142323016E+02  0.10000047922E+02 0.  0.
        -12    1    1    2    0    0 -0.17860947680E+02 -0.41224254286E+02 -0.32650300777E+01  0.45045676984E+02  0.00000000000E+00 0.  1.
         11    1    3    3    0    0  0.52198989351E+01  0.58879902263E+01 -0.59810062245E+00  0.78913559300E+01  0.51100000000E-03 0. -1.
        -11    1    3    3    0    0  0.85839768142E+00  0.51212614277E+01 -0.14410688904E+01  0.53889558356E+01  0.51100000000E-03 0.  1.
         12    1    3    3    0    0  0.11782651064E+02  0.30215002632E+02  0.53041995906E+01  0.32862011251E+02  0.00000000000E+00 0. -1.
</event>
<event>
 7    1  0.4194672E-008  0.4614232E+02  0.7816164E-02  0.1320468E+00
        -11   -1    0    0    0    0  0.00000000000E+00  0.00000000000E+00  0.45593999997E+02  0.45594000000E+02  0.51100000000E-03 0. -1.
         11   -1    0    0    0    0 -0.00000000000E+00 -0.00000000000E+00 -0.45593999997E+02  0.45594000000E+02  0.51100000000E-03 0.  1.
    9900012    2    1    2    0    0 -0.26146077134E+02  0.19484684061E+02  0.31078019013E+02  0.46142317319E+02  0.99999959676E+01 0.  0.
        -12    1    1    2    0    0  0.26146077134E+02 -0.19484684061E+02 -0.31078019013E+02  0.45045682681E+02  0.00000000000E+00 0.  1.
         11    1    3    3    0    0 -0.60308770834E+01  0.58924995766E+01  0.88406536861E+01  0.12216799397E+02  0.51100000000E-03 0. -1.
        -11    1    3    3    0    0 -0.10152180851E+02  0.60389182228E+01  0.16179245116E+02  0.20032555557E+02  0.51100000000E-03 0.  1.
        -12    1    3    3    0    0 -0.99630192003E+01  0.75532662612E+01  0.60581202101E+01  0.13892962365E+02  0.00000000000E+00 0.  1.
</event>
<event>
 7    1  0.4194672E-008  0.4614232E+02  0.7816164E-02  0.1320468E+00
        -11   -1    0    0    0    0  0.00000000000E+00  0.00000000000E+00  0.45593999997E+02  0.45594000000E+02  0.51100000000E-03 0. -1.
         11   -1    0    0    0    0 -0.00000000000E+00 -0.00000000000E+00 -0.45593999997E+02  0.45594000000E+02  0.51100000000E-03 0.  1.
    9900012    2    1    2    0    0 -0.25812786017E+02  0.36726438842E+02  0.37392875508E+01  0.46142317595E+02  0.99999984813E+01 0.  0.
        -12    1    1    2    0    0  0.25812786017E+02 -0.36726438842E+02 -0.37392875508E+01  0.45045682405E+02  0.00000000000E+00 0.  1.
         11    1    3    3    0    0 -0.14528758311E+02  0.26016710502E+02  0.44362461477E+01  0.30126970036E+02  0.51100000000E-03 0. -1.
        -11    1    3    3    0    0 -0.97343871724E+01  0.90917594612E+01 -0.19286171086E+01  0.13458749865E+02  0.51100000000E-03 0.  1.
        -12    1    3    3    0    0 -0.15496405334E+01  0.16179688792E+01  0.12316585117E+01  0.25565976935E+01  0.00000000000E+00 0.  1.
</event>
<event>
 7    1  0.4194672E-008  0.4614232E+02  0.7816164E-02  0.1320468E+00
        -11   -1    0    0    0    0  0.00000000000E+00  0.00000000000E+00  0.45593999997E+02  0.45594000000E+02  0.51100000000E-03 0. -1.
         11   -1    0    0    0    0 -0.00000000000E+00 -0.00000000000E+00 -0.45593999997E+02  0.45594000000E+02  0.51100000000E-03 0.  1.
    9900012    2    1    2    0    0  0.15425709864E+02 -0.42158642113E+01  0.42111606841E+02  0.46142318003E+02  0.10000002205E+02 0.  0.
        -12    1    1    2    0    0 -0.15425709864E+02  0.42158642113E+01 -0.42111606841E+02  0.45045681997E+02  0.00000000000E+00 0.  1.
         11    1    3    3    0    0  0.99003863624E+01 -0.21461250746E+01  0.30408864014E+02  0.32051872237E+02  0.51100000000E-03 0. -1.
        -11    1    3    3    0    0 -0.77795813585E+00 -0.28668766247E+00  0.34799866050E+01  0.35773895104E+01  0.51100000000E-03 0.  1.
        -12    1    3    3    0    0  0.63032816375E+01 -0.17830514743E+01  0.82227562216E+01  0.10513056256E+02  0.00000000000E+00 0.  1.
</event>
<event>
 7    1  0.4194672E-008  0.4614232E+02  0.7816164E-02  0.1320468E+00
        -11   -1    0    0    0    0  0.00000000000E+00  0.00000000000E+00  0.45593999997E+02  0.45594000000E+02  0.51100000000E-03 0. -1.
         11   -1    0    0    0    0 -0.00000000000E+00 -0.00000000000E+00 -0.45593999997E+02  0.45594000000E+02  0.51100000000E-03 0.  1.
    9900012    2    1    2    0    0 -0.99872558656E+01  0.36054349157E+02  0.25088884208E+02  0.46142317813E+02  0.10000000475E+02 0.  0.
        -12    1    1    2    0    0  0.99872558656E+01 -0.36054349157E+02 -0.25088884208E+02  0.45045682187E+02  0.00000000000E+00 0.  1.
         11    1    3    3    0    0 -0.17935848568E+01  0.14930520629E+02  0.12286794645E+02  0.19419132725E+02  0.51100000000E-03 0. -1.
        -11    1    3    3    0    0 -0.59553435324E+01  0.75388781851E+01  0.41734068300E+01  0.10474642032E+02  0.51100000000E-03 0.  1.
        -12    1    3    3    0    0 -0.22383274764E+01  0.13584950343E+02  0.86286827328E+01  0.16248543055E+02  0.00000000000E+00 0.  1.
</event>
<event>
 7    1  0.4194672E-008  0.4614232E+02  0.7816164E-02  0.1320468E+00
        -11   -1    0    0    0    0  0.00000000000E+00  0.00000000000E+00  0.45593999997E+02  0.45594000000E+02  0.51100000000E-03 0.  1.
         11   -1    0    0    0    0 -0.00000000000E+00 -0.00000000000E+00 -0.45593999997E+02  0.45594000000E+02  0.51100000000E-03 0. -1.
    9900012    2    1    2    0    0  0.63820518250E+00 -0.15825880906E+02 -0.42169274241E+02  0.46142317607E+02  0.99999985911E+01 0.  0.
        -12    1    1    2    0    0 -0.63820518250E+00  0.15825880906E+02  0.42169274241E+02  0.45045682393E+02  0.00000000000E+00 0.  1.
         11    1    3    3    0    0 -0.22991333838E+01 -0.54630626055E+01 -0.14860312683E+02  0.15998748721E+02  0.51100000000E-03 0. -1.
        -11    1    3    3    0    0  0.32867559892E+01 -0.12031761049E+01 -0.59911507061E+01  0.69386082694E+01  0.51100000000E-03 0.  1.
         12    1    3    3    0    0 -0.34941742291E+00 -0.91596421952E+01 -0.21317810852E+02  0.23204960616E+02  0.00000000000E+00 0. -1.
</event>
<event>
 7    1  0.4194672E-008  0.4614232E+02  0.7816164E-02  0.1320468E+00
        -11   -1    0    0    0    0  0.00000000000E+00  0.00000000000E+00  0.45593999997E+02  0.45594000000E+02  0.51100000000E-03 0.  1.
         11   -1    0    0    0    0 -0.00000000000E+00 -0.00000000000E+00 -0.45593999997E+02  0.45594000000E+02  0.51100000000E-03 0. -1.
    9900012    2    1    2    0    0 -0.28637191925E+00 -0.20271816956E+02 -0.40225426548E+02  0.46142317492E+02  0.99999975493E+01 0.  0.
        -12    1    1    2    0    0  0.28637191925E+00  0.20271816956E+02  0.40225426548E+02  0.45045682508E+02  0.00000000000E+00 0.  1.
         11    1    3    3    0    0  0.11523110853E+01 -0.54048445227E+01 -0.11618517567E+02  0.12865850764E+02  0.51100000000E-03 0. -1.
        -11    1    3    3    0    0 -0.33655599846E+01 -0.13920515953E+02 -0.27106602741E+02  0.30657391782E+02  0.51100000000E-03 0.  1.
        -12    1    3    3    0    0  0.19268769800E+01 -0.94645647987E+00 -0.15003062399E+01  0.26190749470E+01  0.00000000000E+00 0.  1.
</event>
<event>
 7    1  0.4194672E-008  0.4614232E+02  0.7816164E-02  0.1320468E+00
        -11   -1    0    0    0    0  0.00000000000E+00  0.00000000000E+00  0.45593999997E+02  0.45594000000E+02  0.51100000000E-03 0.  1.
         11   -1    0    0    0    0 -0.00000000000E+00 -0.00000000000E+00 -0.45593999997E+02  0.45594000000E+02  0.51100000000E-03 0. -1.
    9900012    2    1    2    0    0  0.17342870942E+02  0.21207961675E+02 -0.35756969896E+02  0.46142315334E+02  0.99999778670E+01 0.  0.
        -12    1    1    2    0    0 -0.17342870942E+02 -0.21207961675E+02  0.35756969896E+02  0.45045684666E+02  0.00000000000E+00 0.  1.
         11    1    3    3    0    0  0.21201789959E+01  0.88669980041E-01 -0.28525350513E+01  0.35552746476E+01  0.51100000000E-03 0. -1.
        -11    1    3    3    0    0  0.29056186745E+00  0.24317632114E+01 -0.85279051213E+00  0.25932895006E+01  0.51100000000E-03 0.  1.
         12    1    3    3    0    0  0.14932130079E+02  0.18687528483E+02 -0.32051644332E+02  0.39993751186E+02  0.00000000000E+00 0. -1.
</event>
<event>
 7    1  0.4194672E-008  0.4614232E+02  0.7816164E-02  0.1320468E+00
        -11   -1    0    0    0    0  0.00000000000E+00  0.00000000000E+00  0.45593999997E+02  0.45594000000E+02  0.51100000000E-03 0.  1.
         11   -1    0    0    0    0 -0.00000000000E+00 -0.00000000000E+00 -0.45593999997E+02  0.45594000000E+02  0.51100000000E-03 0. -1.
    9900012    2    1    2    0    0  0.10867871391E+02  0.43658746650E+02 -0.22173075548E+01  0.46142320513E+02  0.10000025093E+02 0.  0.
        -12    1    1    2    0    0 -0.10867871391E+02 -0.43658746650E+02  0.22173075548E+01  0.45045679487E+02  0.00000000000E+00 0.  1.
         11    1    3    3    0    0  0.97177579570E+00  0.29996670836E+01  0.97485197316E+00  0.33004071628E+01  0.51100000000E-03 0.  1.
        -11    1    3    3    0    0 -0.24854159641E+00  0.16320240380E+02 -0.20303253706E+01  0.16447925108E+02  0.51100000000E-03 0. -1.
         12    1    3    3    0    0  0.10144637192E+02  0.24338839187E+02 -0.11618341573E+01  0.26393988242E+02  0.00000000000E+00 0. -1.
</event>
<event>
 7    1  0.4194672E-008  0.4614232E+02  0.7816164E-02  0.1320468E+00
        -11   -1    0    0    0    0  0.00000000000E+00  0.00000000000E+00  0.45593999997E+02  0.45594000000E+02  0.51100000000E-03 0. -1.
         11   -1    0    0    0    0 -0.00000000000E+00 -0.00000000000E+00 -0.45593999997E+02  0.45594000000E+02  0.51100000000E-03 0.  1.
    9900012    2    1    2    0    0  0.11591447281E+02 -0.43459980327E+02  0.24458228163E+01  0.46142316640E+02  0.99999897776E+01 0.  0.
        -12    1    1    2    0    0 -0.11591447281E+02  0.43459980327E+02 -0.24458228163E+01  0.45045683360E+02  0.00000000000E+00 0.  1.
         11    1    3    3    0    0  0.10029505702E+01 -0.83644267893E+01 -0.38958452757E+00  0.84333458203E+01  0.51100000000E-03 0. -1.
        -11    1    3    3    0    0  0.46534758289E+01 -0.14120718543E+02 -0.29463822298E+01  0.15156869663E+02  0.51100000000E-03 0.  1.
        -12    1    3    3    0    0  0.59350208816E+01 -0.20974834995E+02  0.57817895737E+01  0.22552101157E+02  0.00000000000E+00 0.  1.
</event>
<event>
 7    1  0.4194672E-008  0.4614232E+02  0.7816164E-02  0.1320468E+00
        -11   -1    0    0    0    0  0.00000000000E+00  0.00000000000E+00  0.45593999997E+02  0.45594000000E+02  0.51100000000E-03 0. -1.
         11   -1    0    0    0    0 -0.00000000000E+00 -0.00000000000E+00 -0.45593999997E+02  0.45594000000E+02  0.51100000000E-03 0.  1.
    9900012    2    1    2    0    0  0.14615063046E+02  0.42607347275E+02  0.35681837592E+00  0.46142318420E+02  0.10000006011E+02 0.  0.
        -12    1    1    2    0    0 -0.14615063046E+02 -0.42607347275E+02 -0.35681837592E+00  0.45045681580E+02  0.00000000000E+00 0.  1.
         11    1    3    3    0    0  0.94720788528E+01  0.34664431684E+02  0.13608701718E+00  0.35935520334E+02  0.51100000000E-03 0. -1.
        -11    1    3    3    0    0  0.74964801538E-01  0.44759648450E+00 -0.97959790981E+00  0.10796178307E+01  0.51100000000E-03 0.  1.
        -12    1    3    3    0    0  0.50680193916E+01  0.74953191062E+01  0.12003292686E+01  0.91271802552E+01  0.00000000000E+00 0.  1.
</event>
<event>
 7    1  0.4194672E-008  0.4614232E+02  0.7816164E-02  0.1320468E+00
        -11   -1    0    0    0    0  0.00000000000E+00  0.00000000000E+00  0.45593999997E+02  0.45594000000E+02  0.51100000000E-03 0.  1.
         11   -1    0    0    0    0 -0.00000000000E+00 -0.00000000000E+00 -0.45593999997E+02  0.45594000000E+02  0.51100000000E-03 0. -1.
    9900012    2    1    2    0    0 -0.42072767351E+02  0.15699695119E+02 -0.35376910920E+01  0.46142318324E+02  0.10000005130E+02 0.  0.
        -12    1    1    2    0    0  0.42072767351E+02 -0.15699695119E+02  0.35376910920E+01  0.45045681676E+02  0.00000000000E+00 0.  1.
         11    1    3    3    0    0 -0.38164565996E+02  0.13232638269E+02 -0.12886194355E+01  0.40414073707E+02  0.51100000000E-03 0. -1.
        -11    1    3    3    0    0 -0.91089552734E+00  0.50237119096E+00  0.55384923268E+00  0.11784976491E+01  0.51100000000E-03 0.  1.
         12    1    3    3    0    0 -0.29973058276E+01  0.19646856586E+01 -0.28029208891E+01  0.45497469679E+01  0.00000000000E+00 0. -1.
</event>
<event>
 7    1  0.4194672E-008  0.4614232E+02  0.7816164E-02  0.1320468E+00
        -11   -1    0    0    0    0  0.00000000000E+00  0.00000000000E+00  0.45593999997E+02  0.45594000000E+02  0.51100000000E-03 0.  1.
         11   -1    0    0    0    0 -0.00000000000E+00 -0.00000000000E+00 -0.45593999997E+02  0.45594000000E+02  0.51100000000E-03 0. -1.
    9900012    2    1    2    0    0 -0.24255210565E+02  0.37426621497E+02  0.63282146267E+01  0.46142317225E+02  0.99999951135E+01 0.  0.
        -12    1    1    2    0    0  0.24255210565E+02 -0.37426621497E+02 -0.63282146267E+01  0.45045682775E+02  0.00000000000E+00 0.  1.
         11    1    3    3    0    0 -0.88636601410E+01  0.19523199214E+02  0.47412825518E+01  0.21959042309E+02  0.51100000000E-03 0. -1.
        -11    1    3    3    0    0 -0.47498509693E+01  0.32101045333E+01  0.18965348084E+01  0.60384352183E+01  0.51100000000E-03 0.  1.
         12    1    3    3    0    0 -0.10641699455E+02  0.14693317750E+02 -0.30960273354E+00  0.18144839698E+02  0.00000000000E+00 0. -1.
</event>
<event>
 7    1  0.4194672E-008  0.4614232E+02  0.7816164E-02  0.1320468E+00
        -11   -1    0    0    0    0  0.00000000000E+00  0.00000000000E+00  0.45593999997E+02  0.45594000000E+02  0.51100000000E-03 0.  1.
         11   -1    0    0    0    0 -0.00000000000E+00 -0.00000000000E+00 -0.45593999997E+02  0.45594000000E+02  0.51100000000E-03 0. -1.
    9900012    2    1    2    0    0  0.70124517417E+01  0.37201937463E+02 -0.24412185936E+02  0.46142318158E+02  0.10000003615E+02 0.  0.
        -12    1    1    2    0    0 -0.70124517417E+01 -0.37201937463E+02  0.24412185936E+02  0.45045681842E+02  0.00000000000E+00 0.  1.
         11    1    3    3    0    0  0.44462011541E+01  0.23454473952E+02 -0.13728786256E+02  0.27538348269E+02  0.51100000000E-03 0. -1.
        -11    1    3    3    0    0  0.27581110853E+01  0.10939029773E+02 -0.51617638256E+01  0.12406182136E+02  0.51100000000E-03 0.  1.
        -12    1    3    3    0    0 -0.19186049767E+00  0.28084337384E+01 -0.55216358550E+01  0.61977877528E+01  0.00000000000E+00 0.  1.
</event>
<event>
 7    1  0.4194672E-008  0.4614232E+02  0.7816164E-02  0.1320468E+00
        -11   -1    0    0    0    0  0.00000000000E+00  0.00000000000E+00  0.45593999997E+02  0.45594000000E+02  0.51100000000E-03 0.  1.
         11   -1    0    0    0    0 -0.00000000000E+00 -0.00000000000E+00 -0.45593999997E+02  0.45594000000E+02  0.51100000000E-03 0. -1.
    9900012    2    1    2    0    0  0.74811447509E+01  0.22276591864E+02 -0.38430449886E+02  0.46142317074E+02  0.99999937310E+01 0.  0.
        -12    1    1    2    0    0 -0.74811447509E+01 -0.22276591864E+02  0.38430449886E+02  0.45045682926E+02  0.00000000000E+00 0.  1.
         11    1    3    3    0    0  0.30508571941E+01  0.13739463780E+02 -0.20756999426E+02  0.25078549001E+02  0.51100000000E-03 0. -1.
        -11    1    3    3    0    0  0.19255695682E+00  0.55104501928E+01 -0.53391989509E+01  0.76752319319E+01  0.51100000000E-03 0.  1.
        -12    1    3    3    0    0  0.42377306001E+01  0.30266778914E+01 -0.12334251509E+02  0.13388536141E+02  0.00000000000E+00 0.  1.
</event>
<event>
 7    1  0.4194672E-008  0.4614232E+02  0.7816164E-02  0.1320468E+00
        -11   -1    0    0    0    0  0.00000000000E+00  0.00000000000E+00  0.45593999997E+02  0.45594000000E+02  0.51100000000E-03 0.  1.
         11   -1    0    0    0    0 -0.00000000000E+00 -0.00000000000E+00 -0.45593999997E+02  0.45594000000E+02  0.51100000000E-03 0. -1.
    9900012    2    1    2    0    0  0.12918149089E+01 -0.20373504190E+02 -0.40154266579E+02  0.46142316708E+02  0.99999904006E+01 0.  0.
        -12    1    1    2    0    0 -0.12918149089E+01  0.20373504190E+02  0.40154266579E+02  0.45045683292E+02  0.00000000000E+00 0.  1.
         11    1    3    3    0    0 -0.12294953973E+01 -0.12716255922E+01 -0.17327064786E+01  0.24760780643E+01  0.51100000000E-03 0. -1.
        -11    1    3    3    0    0  0.13177740175E+01 -0.19444332540E+02 -0.35785374849E+02  0.40748149033E+02  0.51100000000E-03 0.  1.
        -12    1    3    3    0    0  0.12035362887E+01  0.34245394169E+00 -0.26361852514E+01  0.29180896114E+01  0.00000000000E+00 0.  1.
</event>
<event>
 7    1  0.4194672E-008  0.4614232E+02  0.7816164E-02  0.1320468E+00
        -11   -1    0    0    0    0  0.00000000000E+00  0.00000000000E+00  0.45593999997E+02  0.45594000000E+02  0.51100000000E-03 0.  1.
         11   -1    0    0    0    0 -0.00000000000E+00 -0.00000000000E+00 -0.45593999997E+02  0.45594000000E+02  0.51100000000E-03 0. -1.
    9900012    2    1    2    0    0 -0.11750879503E+01  0.29171968056E+01 -0.44935762337E+02  0.46142316458E+02  0.99999881201E+01 0.  0.
        -12    1    1    2    0    0  0.11750879503E+01 -0.29171968056E+01  0.44935762337E+02  0.45045683542E+02  0.00000000000E+00 0.  1.
         11    1    3    3    0    0 -0.10147752296E+01  0.63500733472E+00 -0.25322468989E+01  0.28009422878E+01  0.51100000000E-03 0. -1.
        -11    1    3    3    0    0  0.24550657306E+01  0.47394134262E+01 -0.27356909966E+02  0.27872744941E+02  0.51100000000E-03 0.  1.
         12    1    3    3    0    0 -0.26153784513E+01 -0.24572239554E+01 -0.15046605472E+02  0.15468629230E+02  0.00000000000E+00 0. -1.
</event>
<event>
 7    1  0.4194672E-008  0.4614232E+02  0.7816164E-02  0.1320468E+00
        -11   -1    0    0    0    0  0.00000000000E+00  0.00000000000E+00  0.45593999997E+02  0.45594000000E+02  0.51100000000E-03 0.  1.
         11   -1    0    0    0    0 -0.00000000000E+00 -0.00000000000E+00 -0.45593999997E+02  0.45594000000E+02  0.51100000000E-03 0. -1.
    9900012    2    1    2    0    0 -0.21385560572E+02 -0.37367325083E+02 -0.13245915845E+02  0.46142317949E+02  0.10000001717E+02 0.  0.
        -12    1    1    2    0    0  0.21385560572E+02  0.37367325083E+02  0.13245915845E+02  0.45045682051E+02  0.00000000000E+00 0.  1.
         11    1    3    3    0    0 -0.12375531531E+02 -0.23402988070E+02 -0.78492786925E+01  0.27612765300E+02  0.51100000000E-03 0. -1.
        -11    1    3    3    0    0  0.37947197485E+00  0.35666132214E+00  0.12711848424E+00  0.53606496674E+00  0.51100000000E-03 0.  1.
        -12    1    3    3    0    0 -0.93895010159E+01 -0.14320998335E+02 -0.55237556372E+01  0.17993487682E+02  0.00000000000E+00 0.  1.
</event>
<event>
 7    1  0.4194672E-008  0.4614232E+02  0.7816164E-02  0.1320468E+00
        -11   -1    0    0    0    0  0.00000000000E+00  0.00000000000E+00  0.45593999997E+02  0.45594000000E+02  0.51100000000E-03 0. -1.
         11   -1    0    0    0    0 -0.00000000000E+00 -0.00000000000E+00 -0.45593999997E+02  0.45594000000E+02  0.51100000000E-03 0.  1.
    9900012    2    1    2    0    0  0.24005247476E+02  0.67500319013E+01  0.37513982147E+02  0.46142315484E+02  0.99999792334E+01 0.  0.
        -12    1    1    2    0    0 -0.24005247476E+02 -0.67500319013E+01 -0.37513982147E+02  0.45045684516E+02  0.00000000000E+00 0.  1.
         11    1    3    3    0    0  0.85956140846E+01  0.55221488257E+01  0.20311603289E+02  0.22736313192E+02  0.51100000000E-03 0. -1.
        -11    1    3    3    0    0  0.12888422186E+01 -0.66165104933E+00  0.71343491268E+00  0.16148950465E+01  0.51100000000E-03 0.  1.
         12    1    3    3    0    0  0.14120791173E+02  0.18895341249E+01  0.16488943945E+02  0.21791107245E+02  0.00000000000E+00 0. -1.
</event>
<event>
 7    1  0.4194672E-008  0.4614232E+02  0.7816164E-02  0.1320468E+00
        -11   -1    0    0    0    0  0.00000000000E+00  0.00000000000E+00  0.45593999997E+02  0.45594000000E+02  0.51100000000E-03 0.  1.
         11   -1    0    0    0    0 -0.00000000000E+00 -0.00000000000E+00 -0.45593999997E+02  0.45594000000E+02  0.51100000000E-03 0. -1.
    9900012    2    1    2    0    0  0.16768422574E+02 -0.37667124221E+02  0.18141698257E+02  0.46142318094E+02  0.10000003039E+02 0.  0.
        -12    1    1    2    0    0 -0.16768422574E+02  0.37667124221E+02 -0.18141698257E+02  0.45045681906E+02  0.00000000000E+00 0.  1.
         11    1    3    3    0    0  0.44875425085E+01 -0.62968653752E+01  0.12289066202E+01  0.78293526591E+01  0.51100000000E-03 0. -1.
        -11    1    3    3    0    0  0.49571363870E+01 -0.56196592392E+01  0.50119250375E+01  0.90151630028E+01  0.51100000000E-03 0.  1.
         12    1    3    3    0    0  0.73237436789E+01 -0.25750599606E+02  0.11900866600E+02  0.29297802432E+02  0.00000000000E+00 0. -1.
</event>
<event>
 7    1  0.4194672E-008  0.4614232E+02  0.7816164E-02  0.1320468E+00
        -11   -1    0    0    0    0  0.00000000000E+00  0.00000000000E+00  0.45593999997E+02  0.45594000000E+02  0.51100000000E-03 0.  1.
         11   -1    0    0    0    0 -0.00000000000E+00 -0.00000000000E+00 -0.45593999997E+02  0.45594000000E+02  0.51100000000E-03 0. -1.
    9900012    2    1    2    0    0 -0.26115985531E+02  0.17006651406E+02 -0.32524482758E+02  0.46142324614E+02  0.10000062489E+02 0.  0.
        -12    1    1    2    0    0  0.26115985531E+02 -0.17006651406E+02  0.32524482758E+02  0.45045675386E+02  0.00000000000E+00 0.  1.
         11    1    3    3    0    0 -0.10043284612E+02  0.40740375316E+01 -0.13180392894E+02  0.17064234665E+02  0.51100000000E-03 0. -1.
        -11    1    3    3    0    0 -0.12037816276E+02  0.95514299478E+01 -0.17956134425E+02  0.23633907813E+02  0.51100000000E-03 0.  1.
        -12    1    3    3    0    0 -0.40348846429E+01  0.33811839263E+01 -0.13879554386E+01  0.54441821355E+01  0.00000000000E+00 0.  1.
</event>
<event>
 7    1  0.4194672E-008  0.4614230E+02  0.7816164E-02  0.1320468E+00
        -11   -1    0    0    0    0  0.00000000000E+00  0.00000000000E+00  0.45593999997E+02  0.45594000000E+02  0.51100000000E-03 0.  1.
         11   -1    0    0    0    0 -0.00000000000E+00 -0.00000000000E+00 -0.45593999997E+02  0.45594000000E+02  0.51100000000E-03 0. -1.
    9900012    2    1    2    0    0 -0.25837599365E+02 -0.26967500592E+02  0.25185055279E+02  0.46142304994E+02  0.99998835809E+01 0.  0.
        -12    1    1    2    0    0  0.25837599365E+02  0.26967500592E+02 -0.25185055279E+02  0.45045695006E+02  0.00000000000E+00 0.  1.
         11    1    3    3    0    0 -0.72683918553E+01 -0.63535336823E+01  0.44125191148E+01  0.10614482353E+02  0.51100000000E-03 0. -1.
        -11    1    3    3    0    0 -0.14331781268E+02 -0.15251676854E+02  0.19440457480E+02  0.28564750803E+02  0.51100000000E-03 0.  1.
        -12    1    3    3    0    0 -0.42374262421E+01 -0.53622900563E+01  0.13320786838E+01  0.69630718382E+01  0.00000000000E+00 0.  1.
</event>
<event>
 7    1  0.4194672E-008  0.4614232E+02  0.7816164E-02  0.1320468E+00
        -11   -1    0    0    0    0  0.00000000000E+00  0.00000000000E+00  0.45593999997E+02  0.45594000000E+02  0.51100000000E-03 0.  1.
         11   -1    0    0    0    0 -0.00000000000E+00 -0.00000000000E+00 -0.45593999997E+02  0.45594000000E+02  0.51100000000E-03 0. -1.
    9900012    2    1    2    0    0 -0.39740394017E+02 -0.89260456651E+01 -0.19239031648E+02  0.46142317114E+02  0.99999941024E+01 0.  0.
        -12    1    1    2    0    0  0.39740394017E+02  0.89260456651E+01  0.19239031648E+02  0.45045682886E+02  0.00000000000E+00 0.  1.
         11    1    3    3    0    0 -0.14737977614E+02 -0.30228619759E+01 -0.77936629327E+01  0.16943637769E+02  0.51100000000E-03 0. -1.
        -11    1    3    3    0    0 -0.82149838635E+01  0.16985551459E+01 -0.28049206670E+01  0.88452602941E+01  0.51100000000E-03 0.  1.
        -12    1    3    3    0    0 -0.16787432540E+02 -0.76017388352E+01 -0.86404480484E+01  0.20353419052E+02  0.00000000000E+00 0.  1.
</event>
<event>
 7    1  0.4194672E-008  0.4614232E+02  0.7816164E-02  0.1320468E+00
        -11   -1    0    0    0    0  0.00000000000E+00  0.00000000000E+00  0.45593999997E+02  0.45594000000E+02  0.51100000000E-03 0.  1.
         11   -1    0    0    0    0 -0.00000000000E+00 -0.00000000000E+00 -0.45593999997E+02  0.45594000000E+02  0.51100000000E-03 0. -1.
    9900012    2    1    2    0    0  0.31787341937E+02 -0.10495654613E+02 -0.30141659663E+02  0.46142317406E+02  0.99999967578E+01 0.  0.
        -12    1    1    2    0    0 -0.31787341937E+02  0.10495654613E+02  0.30141659663E+02  0.45045682594E+02  0.00000000000E+00 0.  1.
         11    1    3    3    0    0  0.25612282372E+02 -0.85619327615E+01 -0.25713919318E+02  0.37289426757E+02  0.51100000000E-03 0. -1.
        -11    1    3    3    0    0  0.65002228429E+01 -0.87697233485E+00 -0.37307358333E+01  0.75458841498E+01  0.51100000000E-03 0.  1.
         12    1    3    3    0    0 -0.32516327783E+00 -0.10567495169E+01 -0.69700451090E+00  0.13070064984E+01  0.00000000000E+00 0. -1.
</event>
<event>
 7    1  0.4194672E-008  0.4614232E+02  0.7816164E-02  0.1320468E+00
        -11   -1    0    0    0    0  0.00000000000E+00  0.00000000000E+00  0.45593999997E+02  0.45594000000E+02  0.51100000000E-03 0. -1.
         11   -1    0    0    0    0 -0.00000000000E+00 -0.00000000000E+00 -0.45593999997E+02  0.45594000000E+02  0.51100000000E-03 0.  1.
    9900012    2    1    2    0    0 -0.17013707317E+02 -0.25462265211E+02  0.33035137278E+02  0.46142317840E+02  0.10000000716E+02 0.  0.
        -12    1    1    2    0    0  0.17013707317E+02  0.25462265211E+02 -0.33035137278E+02  0.45045682160E+02  0.00000000000E+00 0.  1.
         11    1    3    3    0    0 -0.29153083937E+01 -0.66402092851E+01  0.98009003523E+01  0.12192171683E+02  0.51100000000E-03 0.  1.
        -11    1    3    3    0    0 -0.11504916013E+02 -0.99781330895E+01  0.16997211623E+02  0.22821731652E+02  0.51100000000E-03 0. -1.
        -12    1    3    3    0    0 -0.25934829103E+01 -0.88439228363E+01  0.62370253029E+01  0.11128414504E+02  0.00000000000E+00 0.  1.
</event>
<event>
 7    1  0.4194672E-008  0.4614232E+02  0.7816164E-02  0.1320468E+00
        -11   -1    0    0    0    0  0.00000000000E+00  0.00000000000E+00  0.45593999997E+02  0.45594000000E+02  0.51100000000E-03 0.  1.
         11   -1    0    0    0    0 -0.00000000000E+00 -0.00000000000E+00 -0.45593999997E+02  0.45594000000E+02  0.51100000000E-03 0. -1.
    9900012    2    1    2    0    0  0.16307955829E+00  0.11699881561E+02 -0.43499421516E+02  0.46142317679E+02  0.99999992524E+01 0.  0.
        -12    1    1    2    0    0 -0.16307955829E+00 -0.11699881561E+02  0.43499421516E+02  0.45045682321E+02  0.00000000000E+00 0.  1.
         11    1    3    3    0    0 -0.25052669206E+01  0.28385457617E+00 -0.33684045315E+01  0.42075034300E+01  0.51100000000E-03 0.  1.
        -11    1    3    3    0    0 -0.55999657704E+00  0.26643399934E+01 -0.11701816373E+02  0.12014358512E+02  0.51100000000E-03 0. -1.
        -12    1    3    3    0    0  0.32283430559E+01  0.87516869917E+01 -0.28429200611E+02  0.29920455737E+02  0.00000000000E+00 0.  1.
</event>
<event>
 7    1  0.4194672E-008  0.4614232E+02  0.7816164E-02  0.1320468E+00
        -11   -1    0    0    0    0  0.00000000000E+00  0.00000000000E+00  0.45593999997E+02  0.45594000000E+02  0.51100000000E-03 0. -1.
         11   -1    0    0    0    0 -0.00000000000E+00 -0.00000000000E+00 -0.45593999997E+02  0.45594000000E+02  0.51100000000E-03 0.  1.
    9900012    2    1    2    0    0 -0.38768075957E+02 -0.20479852461E+02  0.10330807794E+02  0.46142315857E+02  0.99999826379E+01 0.  0.
        -12    1    1    2    0    0  0.38768075957E+02  0.20479852461E+02 -0.10330807794E+02  0.45045684143E+02  0.00000000000E+00 0.  1.
         11    1    3    3    0    0 -0.11521585305E+02 -0.32368967910E+01 -0.45212630342E+00  0.11976178323E+02  0.51100000000E-03 0. -1.
        -11    1    3    3    0    0 -0.10971588406E+02 -0.75458047737E+01  0.27950826394E+01  0.13606153353E+02  0.51100000000E-03 0.  1.
         12    1    3    3    0    0 -0.16274902246E+02 -0.96971508962E+01  0.79878514580E+01  0.20559984181E+02  0.00000000000E+00 0. -1.
</event>
<event>
 7    1  0.4194672E-008  0.4614231E+02  0.7816164E-02  0.1320468E+00
        -11   -1    0    0    0    0  0.00000000000E+00  0.00000000000E+00  0.45593999997E+02  0.45594000000E+02  0.51100000000E-03 0.  1.
         11   -1    0    0    0    0 -0.00000000000E+00 -0.00000000000E+00 -0.45593999997E+02  0.45594000000E+02  0.51100000000E-03 0. -1.
    9900012    2    1    2    0    0  0.23232100850E+02  0.38573597359E+02  0.12086590228E+01  0.46142314527E+02  0.99999705086E+01 0.  0.
        -12    1    1    2    0    0 -0.23232100850E+02 -0.38573597359E+02 -0.12086590228E+01  0.45045685473E+02  0.00000000000E+00 0.  1.
         11    1    3    3    0    0  0.78527420878E+01  0.21902366486E+02 -0.13325514061E+00  0.23267938739E+02  0.51100000000E-03 0. -1.
        -11    1    3    3    0    0  0.11342416219E+02  0.13534299287E+02  0.17528566032E+01  0.17745426718E+02  0.51100000000E-03 0.  1.
        -12    1    3    3    0    0  0.40369425432E+01  0.31369315865E+01 -0.41094243977E+00  0.51289490701E+01  0.00000000000E+00 0.  1.
</event>
<event>
 7    1  0.4194672E-008  0.4614232E+02  0.7816164E-02  0.1320468E+00
        -11   -1    0    0    0    0  0.00000000000E+00  0.00000000000E+00  0.45593999997E+02  0.45594000000E+02  0.51100000000E-03 0.  1.
         11   -1    0    0    0    0 -0.00000000000E+00 -0.00000000000E+00 -0.45593999997E+02  0.45594000000E+02  0.51100000000E-03 0. -1.
    9900012    2    1    2    0    0  0.38438230439E+02  0.22203669518E+02 -0.76559145390E+01  0.46142317335E+02  0.99999961112E+01 0.  0.
        -12    1    1    2    0    0 -0.38438230439E+02 -0.22203669518E+02  0.76559145390E+01  0.45045682665E+02  0.00000000000E+00 0.  1.
         11    1    3    3    0    0  0.57544706006E+01  0.28057767017E+01 -0.12447924059E+01  0.65219493395E+01  0.51100000000E-03 0. -1.
        -11    1    3    3    0    0  0.25079871010E+02  0.12772123561E+02 -0.97190666256E+00  0.28161528242E+02  0.51100000000E-03 0.  1.
         12    1    3    3    0    0  0.76038888291E+01  0.66257692550E+01 -0.54392154706E+01  0.11458839753E+02  0.00000000000E+00 0. -1.
</event>
<event>
 7    1  0.4194672E-008  0.4614232E+02  0.7816164E-02  0.1320468E+00
        -11   -1    0    0    0    0  0.00000000000E+00  0.00000000000E+00  0.45593999997E+02  0.45594000000E+02  0.51100000000E-03 0. -1.
         11   -1    0    0    0    0 -0.00000000000E+00 -0.00000000000E+00 -0.45593999997E+02  0.45594000000E+02  0.51100000000E-03 0.  1.
    9900012    2    1    2    0    0 -0.26875878150E+02  0.62005566424E+01  0.35613954616E+02  0.46142317716E+02  0.99999995880E+01 0.  0.
        -12    1    1    2    0    0  0.26875878150E+02 -0.62005566424E+01 -0.35613954616E+02  0.45045682284E+02  0.00000000000E+00 0.  1.
         11    1    3    3    0    0 -0.25179098949E+01  0.10019957774E+01  0.26256287620E+01  0.37732999396E+01  0.51100000000E-03 0. -1.
        -11    1    3    3    0    0 -0.12780825788E+02  0.71765493030E+01  0.15809496205E+02  0.21559047711E+02  0.51100000000E-03 0.  1.
         12    1    3    3    0    0 -0.11577142468E+02 -0.19779884379E+01  0.17178829649E+02  0.20809970065E+02  0.00000000000E+00 0. -1.
</event>
<event>
 7    1  0.4194672E-008  0.4614232E+02  0.7816164E-02  0.1320468E+00
        -11   -1    0    0    0    0  0.00000000000E+00  0.00000000000E+00  0.45593999997E+02  0.45594000000E+02  0.51100000000E-03 0.  1.
         11   -1    0    0    0    0 -0.00000000000E+00 -0.00000000000E+00 -0.45593999997E+02  0.45594000000E+02  0.51100000000E-03 0. -1.
    9900012    2    1    2    0    0 -0.22013157589E+01  0.38320604141E+02 -0.23575389751E+02  0.46142317691E+02  0.99999993584E+01 0.  0.
        -12    1    1    2    0    0  0.22013157589E+01 -0.38320604141E+02  0.23575389751E+02  0.45045682309E+02  0.00000000000E+00 0.  1.
         11    1    3    3    0    0 -0.33832085382E+01  0.11220380001E+02 -0.68494702246E+01  0.13574176587E+02  0.51100000000E-03 0. -1.
        -11    1    3    3    0    0  0.32398780316E+01  0.22901387275E+02 -0.12637037097E+02  0.26356499306E+02  0.51100000000E-03 0.  1.
        -12    1    3    3    0    0 -0.20579852522E+01  0.41988368643E+01 -0.40888824297E+01  0.62116417987E+01  0.00000000000E+00 0.  1.
</event>
<event>
 7    1  0.4194672E-008  0.4614232E+02  0.7816164E-02  0.1320468E+00
        -11   -1    0    0    0    0  0.00000000000E+00  0.00000000000E+00  0.45593999997E+02  0.45594000000E+02  0.51100000000E-03 0.  1.
         11   -1    0    0    0    0 -0.00000000000E+00 -0.00000000000E+00 -0.45593999997E+02  0.45594000000E+02  0.51100000000E-03 0. -1.
    9900012    2    1    2    0    0  0.14930129803E+02 -0.49440745609E+01 -0.42210909272E+02  0.46142317512E+02  0.99999977324E+01 0.  0.
        -12    1    1    2    0    0 -0.14930129803E+02  0.49440745609E+01  0.42210909272E+02  0.45045682488E+02  0.00000000000E+00 0.  1.
         11    1    3    3    0    0  0.11913223777E+02 -0.18721009315E+01 -0.23344612942E+02  0.26275475569E+02  0.51100000000E-03 0. -1.
        -11    1    3    3    0    0  0.60060014359E+00  0.10528153713E+01 -0.64333335266E+01  0.65465197826E+01  0.51100000000E-03 0.  1.
         12    1    3    3    0    0  0.24163058821E+01 -0.41247890007E+01 -0.12432962803E+02  0.13320322161E+02  0.00000000000E+00 0. -1.
</event>
<event>
 7    1  0.4194672E-008  0.4614232E+02  0.7816164E-02  0.1320468E+00
        -11   -1    0    0    0    0  0.00000000000E+00  0.00000000000E+00  0.45593999997E+02  0.45594000000E+02  0.51100000000E-03 0.  1.
         11   -1    0    0    0    0 -0.00000000000E+00 -0.00000000000E+00 -0.45593999997E+02  0.45594000000E+02  0.51100000000E-03 0. -1.
    9900012    2    1    2    0    0 -0.12193513203E+02 -0.16212745664E+02 -0.40219130417E+02  0.46142319434E+02  0.10000015252E+02 0.  0.
        -12    1    1    2    0    0  0.12193513203E+02  0.16212745664E+02  0.40219130417E+02  0.45045680566E+02  0.00000000000E+00 0.  1.
         11    1    3    3    0    0 -0.68999287634E+01 -0.12686632138E+02 -0.20106060579E+02  0.24755066637E+02  0.51100000000E-03 0. -1.
        -11    1    3    3    0    0  0.16406623862E+00  0.25235352019E-01  0.69767311264E-01  0.18006191293E+00  0.51100000000E-03 0.  1.
        -12    1    3    3    0    0 -0.54576506781E+01 -0.35513488777E+01 -0.20182837149E+02  0.21207190883E+02  0.00000000000E+00 0.  1.
</event>
<event>
 7    1  0.4194672E-008  0.4614232E+02  0.7816164E-02  0.1320468E+00
        -11   -1    0    0    0    0  0.00000000000E+00  0.00000000000E+00  0.45593999997E+02  0.45594000000E+02  0.51100000000E-03 0. -1.
         11   -1    0    0    0    0 -0.00000000000E+00 -0.00000000000E+00 -0.45593999997E+02  0.45594000000E+02  0.51100000000E-03 0.  1.
    9900012    2    1    2    0    0  0.97824646421E+01 -0.22280524767E+02  0.37907717597E+02  0.46142318167E+02  0.10000003705E+02 0.  0.
        -12    1    1    2    0    0 -0.97824646421E+01  0.22280524767E+02 -0.37907717597E+02  0.45045681833E+02  0.00000000000E+00 0.  1.
         11    1    3    3    0    0  0.30938053778E+01 -0.81114791578E+01  0.17236998578E+02  0.19299788757E+02  0.51100000000E-03 0. -1.
        -11    1    3    3    0    0  0.61780081655E+01 -0.96063234191E+01  0.18552278040E+02  0.21786148243E+02  0.51100000000E-03 0.  1.
        -12    1    3    3    0    0  0.51065109878E+00 -0.45627221900E+01  0.21184409790E+01  0.50563811673E+01  0.00000000000E+00 0.  1.
</event>
<event>
 7    1  0.4194672E-008  0.4614232E+02  0.7816164E-02  0.1320468E+00
        -11   -1    0    0    0    0  0.00000000000E+00  0.00000000000E+00  0.45593999997E+02  0.45594000000E+02  0.51100000000E-03 0.  1.
         11   -1    0    0    0    0 -0.00000000000E+00 -0.00000000000E+00 -0.45593999997E+02  0.45594000000E+02  0.51100000000E-03 0. -1.
    9900012    2    1    2    0    0 -0.22837601630E+02  0.10621735974E+02 -0.37346166464E+02  0.46142317933E+02  0.10000001566E+02 0.  0.
        -12    1    1    2    0    0  0.22837601630E+02 -0.10621735974E+02  0.37346166464E+02  0.45045682067E+02  0.00000000000E+00 0.  1.
         11    1    3    3    0    0 -0.15106998363E+02  0.43815226504E+01 -0.19886647453E+02  0.25355431123E+02  0.51100000000E-03 0. -1.
        -11    1    3    3    0    0 -0.57639556640E+01  0.68249953145E+01 -0.12041428864E+02  0.14993323691E+02  0.51100000000E-03 0.  1.
        -12    1    3    3    0    0 -0.19666476040E+01 -0.58478199073E+00 -0.54180901472E+01  0.57935631194E+01  0.00000000000E+00 0.  1.
</event>
<event>
 7    1  0.4194672E-008  0.4614232E+02  0.7816164E-02  0.1320468E+00
        -11   -1    0    0    0    0  0.00000000000E+00  0.00000000000E+00  0.45593999997E+02  0.45594000000E+02  0.51100000000E-03 0.  1.
         11   -1    0    0    0    0 -0.00000000000E+00 -0.00000000000E+00 -0.45593999997E+02  0.45594000000E+02  0.51100000000E-03 0. -1.
    9900012    2    1    2    0    0 -0.68481754569E+01 -0.39486284692E+02 -0.20568162053E+02  0.46142317898E+02  0.10000001244E+02 0.  0.
        -12    1    1    2    0    0  0.68481754569E+01  0.39486284692E+02  0.20568162053E+02  0.45045682102E+02  0.00000000000E+00 0.  1.
         11    1    3    3    0    0 -0.52433269393E+01 -0.32457752838E+02 -0.20761499879E+02  0.38884933768E+02  0.51100000000E-03 0. -1.
        -11    1    3    3    0    0 -0.26463485038E+00 -0.26224433245E+01  0.28451276256E+00  0.26510730596E+01  0.51100000000E-03 0.  1.
         12    1    3    3    0    0 -0.13402136672E+01 -0.44060885292E+01 -0.91174936678E-01  0.46063110696E+01  0.00000000000E+00 0. -1.
</event>
<event>
 7    1  0.4194672E-008  0.4614232E+02  0.7816164E-02  0.1320468E+00
        -11   -1    0    0    0    0  0.00000000000E+00  0.00000000000E+00  0.45593999997E+02  0.45594000000E+02  0.51100000000E-03 0.  1.
         11   -1    0    0    0    0 -0.00000000000E+00 -0.00000000000E+00 -0.45593999997E+02  0.45594000000E+02  0.51100000000E-03 0. -1.
    9900012    2    1    2    0    0  0.47191128720E+01 -0.44637295655E+02  0.37888562180E+01  0.46142316287E+02  0.99999865612E+01 0.  0.
        -12    1    1    2    0    0 -0.47191128720E+01  0.44637295655E+02 -0.37888562180E+01  0.45045683713E+02  0.00000000000E+00 0.  1.
         11    1    3    3    0    0  0.34054192093E+01 -0.15627258720E+02  0.24182067357E+01  0.16175778781E+02  0.51100000000E-03 0. -1.
        -11    1    3    3    0    0  0.89361664384E+00 -0.33434387129E+00 -0.74400680698E+00  0.12099102944E+01  0.51100000000E-03 0.  1.
         12    1    3    3    0    0  0.42007701884E+00 -0.28675693064E+02  0.21146562893E+01  0.28756627212E+02  0.00000000000E+00 0. -1.
</event>
<event>
 7    1  0.4194672E-008  0.4614232E+02  0.7816164E-02  0.1320468E+00
        -11   -1    0    0    0    0  0.00000000000E+00  0.00000000000E+00  0.45593999997E+02  0.45594000000E+02  0.51100000000E-03 0.  1.
         11   -1    0    0    0    0 -0.00000000000E+00 -0.00000000000E+00 -0.45593999997E+02  0.45594000000E+02  0.51100000000E-03 0. -1.
    9900012    2    1    2    0    0  0.28427787571E+02  0.31262657134E+02 -0.15608354010E+02  0.46142317053E+02  0.99999935392E+01 0.  0.
        -12    1    1    2    0    0 -0.28427787571E+02 -0.31262657134E+02  0.15608354010E+02  0.45045682947E+02  0.00000000000E+00 0.  1.
         11    1    3    3    0    0  0.11872036299E+02  0.15488171100E+02 -0.49768428666E+01  0.20139455183E+02  0.51100000000E-03 0. -1.
        -11    1    3    3    0    0  0.38060584387E+01  0.11105404665E+01 -0.25173175351E+00  0.39727509491E+01  0.51100000000E-03 0.  1.
         12    1    3    3    0    0  0.12749692833E+02  0.14663945568E+02 -0.10379779390E+02  0.22030110920E+02  0.00000000000E+00 0. -1.
</event>
<event>
 7    1  0.4194672E-008  0.4614232E+02  0.7816164E-02  0.1320468E+00
        -11   -1    0    0    0    0  0.00000000000E+00  0.00000000000E+00  0.45593999997E+02  0.45594000000E+02  0.51100000000E-03 0.  1.
         11   -1    0    0    0    0 -0.00000000000E+00 -0.00000000000E+00 -0.45593999997E+02  0.45594000000E+02  0.51100000000E-03 0. -1.
    9900012    2    1    2    0    0  0.34858452642E+02 -0.16380291976E+02 -0.23359961110E+02  0.46142317978E+02  0.10000001974E+02 0.  0.
        -12    1    1    2    0    0 -0.34858452642E+02  0.16380291976E+02  0.23359961110E+02  0.45045682022E+02  0.00000000000E+00 0.  1.
         11    1    3    3    0    0  0.13886168384E+02 -0.69711618447E+01 -0.81586052404E+01  0.17549518785E+02  0.51100000000E-03 0. -1.
        -11    1    3    3    0    0  0.14096053314E+02 -0.51554607276E+01 -0.55508783535E+01  0.16002804289E+02  0.51100000000E-03 0.  1.
        -12    1    3    3    0    0  0.68762309438E+01 -0.42536694034E+01 -0.96504775163E+01  0.12589994904E+02  0.00000000000E+00 0.  1.
</event>
<event>
 7    1  0.4194672E-008  0.4614232E+02  0.7816164E-02  0.1320468E+00
        -11   -1    0    0    0    0  0.00000000000E+00  0.00000000000E+00  0.45593999997E+02  0.45594000000E+02  0.51100000000E-03 0.  1.
         11   -1    0    0    0    0 -0.00000000000E+00 -0.00000000000E+00 -0.45593999997E+02  0.45594000000E+02  0.51100000000E-03 0. -1.
    9900012    2    1    2    0    0  0.22856256131E+02 -0.29639509270E+02 -0.25064009631E+02  0.46142317267E+02  0.99999954920E+01 0.  0.
        -12    1    1    2    0    0 -0.22856256131E+02  0.29639509270E+02  0.25064009631E+02  0.45045682733E+02  0.00000000000E+00 0.  1.
         11    1    3    3    0    0  0.21299389925E+00 -0.56010552411E+00 -0.25472827007E+01  0.26168175361E+01  0.51100000000E-03 0. -1.
        -11    1    3    3    0    0  0.24408895187E+01 -0.15247972777E+01 -0.62013715475E+00  0.29440650014E+01  0.51100000000E-03 0.  1.
         12    1    3    3    0    0  0.20202372714E+02 -0.27554606468E+02 -0.21896589776E+02  0.40581434729E+02  0.00000000000E+00 0. -1.
</event>
<event>
 7    1  0.4194672E-008  0.4614233E+02  0.7816164E-02  0.1320468E+00
        -11   -1    0    0    0    0  0.00000000000E+00  0.00000000000E+00  0.45593999997E+02  0.45594000000E+02  0.51100000000E-03 0.  1.
         11   -1    0    0    0    0 -0.00000000000E+00 -0.00000000000E+00 -0.45593999997E+02  0.45594000000E+02  0.51100000000E-03 0. -1.
    9900012    2    1    2    0    0 -0.83371265678E+01  0.29618896614E+01 -0.44168223653E+02  0.46142329282E+02  0.10000105054E+02 0.  0.
        -12    1    1    2    0    0  0.83371265678E+01 -0.29618896614E+01  0.44168223653E+02  0.45045670718E+02  0.00000000000E+00 0.  1.
         11    1    3    3    0    0  0.16224712792E+01  0.25722869403E+01 -0.13117266609E+02  0.13465205409E+02  0.51100000000E-03 0. -1.
        -11    1    3    3    0    0 -0.54612698681E+01  0.25345346595E+00 -0.13663456843E+02  0.14716649088E+02  0.51100000000E-03 0.  1.
         12    1    3    3    0    0 -0.44983279789E+01  0.13614925512E+00 -0.17387500202E+02  0.17960474785E+02  0.00000000000E+00 0. -1.
</event>
<event>
 7    1  0.4194672E-008  0.4614232E+02  0.7816164E-02  0.1320468E+00
        -11   -1    0    0    0    0  0.00000000000E+00  0.00000000000E+00  0.45593999997E+02  0.45594000000E+02  0.51100000000E-03 0.  1.
         11   -1    0    0    0    0 -0.00000000000E+00 -0.00000000000E+00 -0.45593999997E+02  0.45594000000E+02  0.51100000000E-03 0. -1.
    9900012    2    1    2    0    0  0.28646213864E+02  0.15399856988E+02 -0.31166516585E+02  0.46142324070E+02  0.10000057528E+02 0.  0.
        -12    1    1    2    0    0 -0.28646213864E+02 -0.15399856988E+02  0.31166516585E+02  0.45045675930E+02  0.00000000000E+00 0.  1.
         11    1    3    3    0    0  0.15308297533E+02  0.99944724608E+01 -0.12271259753E+02  0.22018566468E+02  0.51100000000E-03 0. -1.
        -11    1    3    3    0    0  0.11916281662E+02  0.39188405865E+01 -0.13909868305E+02  0.18730710523E+02  0.51100000000E-03 0.  1.
         12    1    3    3    0    0  0.14216346681E+01  0.14865439411E+01 -0.49853885276E+01  0.53930470784E+01  0.00000000000E+00 0. -1.
</event>
<event>
 7    1  0.4194672E-008  0.4614232E+02  0.7816164E-02  0.1320468E+00
        -11   -1    0    0    0    0  0.00000000000E+00  0.00000000000E+00  0.45593999997E+02  0.45594000000E+02  0.51100000000E-03 0.  1.
         11   -1    0    0    0    0 -0.00000000000E+00 -0.00000000000E+00 -0.45593999997E+02  0.45594000000E+02  0.51100000000E-03 0. -1.
    9900012    2    1    2    0    0 -0.32141089809E+02 -0.28925068418E+02  0.12625538296E+02  0.46142318138E+02  0.10000003438E+02 0.  0.
        -12    1    1    2    0    0  0.32141089809E+02  0.28925068418E+02 -0.12625538296E+02  0.45045681862E+02  0.00000000000E+00 0.  1.
         11    1    3    3    0    0 -0.13267029115E+02 -0.10980789012E+02  0.13657310375E+01  0.17275908382E+02  0.51100000000E-03 0. -1.
        -11    1    3    3    0    0 -0.15711996507E+00 -0.17397598413E+01  0.13157668306E+01  0.21869370366E+01  0.51100000000E-03 0.  1.
        -12    1    3    3    0    0 -0.18716940729E+02 -0.16204519565E+02  0.99440404282E+01  0.26679472720E+02  0.00000000000E+00 0.  1.
</event>
<event>
 7    1  0.4194672E-008  0.4614232E+02  0.7816164E-02  0.1320468E+00
        -11   -1    0    0    0    0  0.00000000000E+00  0.00000000000E+00  0.45593999997E+02  0.45594000000E+02  0.51100000000E-03 0.  1.
         11   -1    0    0    0    0 -0.00000000000E+00 -0.00000000000E+00 -0.45593999997E+02  0.45594000000E+02  0.51100000000E-03 0. -1.
    9900012    2    1    2    0    0  0.35434746102E+02  0.14123123241E+02 -0.23958916528E+02  0.46142317381E+02  0.99999965369E+01 0.  0.
        -12    1    1    2    0    0 -0.35434746102E+02 -0.14123123241E+02  0.23958916528E+02  0.45045682619E+02  0.00000000000E+00 0.  1.
         11    1    3    3    0    0  0.10976612958E+02  0.70438945895E+01 -0.84494890454E+01  0.15540152779E+02  0.51100000000E-03 0. -1.
        -11    1    3    3    0    0  0.19201524438E+02  0.83195459035E+01 -0.13096865425E+02  0.24686864301E+02  0.51100000000E-03 0.  1.
        -12    1    3    3    0    0  0.52566087057E+01 -0.12403172519E+01 -0.24125620579E+01  0.59153003012E+01  0.00000000000E+00 0.  1.
</event>
<event>
 7    1  0.4194672E-008  0.4614232E+02  0.7816164E-02  0.1320468E+00
        -11   -1    0    0    0    0  0.00000000000E+00  0.00000000000E+00  0.45593999997E+02  0.45594000000E+02  0.51100000000E-03 0.  1.
         11   -1    0    0    0    0 -0.00000000000E+00 -0.00000000000E+00 -0.45593999997E+02  0.45594000000E+02  0.51100000000E-03 0. -1.
    9900012    2    1    2    0    0 -0.12609006260E+02  0.43095925639E+02  0.35871404086E+01  0.46142318499E+02  0.10000006733E+02 0.  0.
        -12    1    1    2    0    0  0.12609006260E+02 -0.43095925639E+02 -0.35871404086E+01  0.45045681501E+02  0.00000000000E+00 0.  1.
         11    1    3    3    0    0 -0.27512743055E+01  0.21422387482E+01 -0.44493906873E+00  0.35152052848E+01  0.51100000000E-03 0. -1.
        -11    1    3    3    0    0 -0.28510148572E+01  0.10688454990E+02  0.33336510396E+01  0.11553552929E+02  0.51100000000E-03 0.  1.
         12    1    3    3    0    0 -0.70067170978E+01  0.30265231901E+02  0.69842843774E+00  0.31073560285E+02  0.00000000000E+00 0. -1.
</event>
<event>
 7    1  0.4194672E-008  0.4614232E+02  0.7816164E-02  0.1320468E+00
        -11   -1    0    0    0    0  0.00000000000E+00  0.00000000000E+00  0.45593999997E+02  0.45594000000E+02  0.51100000000E-03 0. -1.
         11   -1    0    0    0    0 -0.00000000000E+00 -0.00000000000E+00 -0.45593999997E+02  0.45594000000E+02  0.51100000000E-03 0.  1.
    9900012    2    1    2    0    0  0.16415169734E+02 -0.14247774057E+02  0.39454487535E+02  0.46142318191E+02  0.10000003922E+02 0.  0.
        -12    1    1    2    0    0 -0.16415169734E+02  0.14247774057E+02 -0.39454487535E+02  0.45045681809E+02  0.00000000000E+00 0.  1.
         11    1    3    3    0    0  0.10488910541E+01 -0.15016136971E+00  0.58513916187E+00  0.12104168622E+01  0.51100000000E-03 0. -1.
        -11    1    3    3    0    0 -0.16866278622E+00 -0.23678141508E+00  0.61076245071E+01  0.61145392267E+01  0.51100000000E-03 0.  1.
         12    1    3    3    0    0  0.15534941467E+02 -0.13860831272E+02  0.32761723866E+02  0.38817362102E+02  0.00000000000E+00 0. -1.
</event>
<event>
 7    1  0.4194672E-008  0.4614232E+02  0.7816164E-02  0.1320468E+00
        -11   -1    0    0    0    0  0.00000000000E+00  0.00000000000E+00  0.45593999997E+02  0.45594000000E+02  0.51100000000E-03 0. -1.
         11   -1    0    0    0    0 -0.00000000000E+00 -0.00000000000E+00 -0.45593999997E+02  0.45594000000E+02  0.51100000000E-03 0.  1.
    9900012    2    1    2    0    0  0.30118977518E+02  0.31980526178E+02  0.99602544226E+01  0.46142317304E+02  0.99999958343E+01 0.  0.
        -12    1    1    2    0    0 -0.30118977518E+02 -0.31980526178E+02 -0.99602544226E+01  0.45045682696E+02  0.00000000000E+00 0.  1.
         11    1    3    3    0    0  0.15764370982E+02  0.14409453683E+02  0.74714393303E+01  0.22626757475E+02  0.51100000000E-03 0. -1.
        -11    1    3    3    0    0  0.70843362911E+01  0.12926409392E+02  0.19866629171E+01  0.14873691884E+02  0.51100000000E-03 0.  1.
        -12    1    3    3    0    0  0.72702702450E+01  0.46446631028E+01  0.50215217530E+00  0.86418679452E+01  0.00000000000E+00 0.  1.
</event>
<event>
 7    1  0.4194672E-008  0.4614231E+02  0.7816164E-02  0.1320468E+00
        -11   -1    0    0    0    0  0.00000000000E+00  0.00000000000E+00  0.45593999997E+02  0.45594000000E+02  0.51100000000E-03 0.  1.
         11   -1    0    0    0    0 -0.00000000000E+00 -0.00000000000E+00 -0.45593999997E+02  0.45594000000E+02  0.51100000000E-03 0. -1.
    9900012    2    1    2    0    0 -0.15558474796E+02  0.42129912270E+02  0.34811107769E+01  0.46142314546E+02  0.99999706775E+01 0.  0.
        -12    1    1    2    0    0  0.15558474796E+02 -0.42129912270E+02 -0.34811107769E+01  0.45045685454E+02  0.00000000000E+00 0.  1.
         11    1    3    3    0    0 -0.57801675880E+01  0.20725903564E+02 -0.13105454855E+01  0.21556691435E+02  0.51100000000E-03 0. -1.
        -11    1    3    3    0    0 -0.28432026067E+01  0.37522143626E+01 -0.88244426838E+00  0.47897413118E+01  0.51100000000E-03 0.  1.
         12    1    3    3    0    0 -0.69351046016E+01  0.17651794343E+02  0.56741005307E+01  0.19795881799E+02  0.00000000000E+00 0. -1.
</event>
<event>
 7    1  0.4194672E-008  0.4614232E+02  0.7816164E-02  0.1320468E+00
        -11   -1    0    0    0    0  0.00000000000E+00  0.00000000000E+00  0.45593999997E+02  0.45594000000E+02  0.51100000000E-03 0.  1.
         11   -1    0    0    0    0 -0.00000000000E+00 -0.00000000000E+00 -0.45593999997E+02  0.45594000000E+02  0.51100000000E-03 0. -1.
    9900012    2    1    2    0    0 -0.25919905861E+02  0.18378210407E+02 -0.31929819925E+02  0.46142317209E+02  0.99999949659E+01 0.  0.
        -12    1    1    2    0    0  0.25919905861E+02 -0.18378210407E+02  0.31929819925E+02  0.45045682791E+02  0.00000000000E+00 0.  1.
         11    1    3    3    0    0 -0.54114141994E+01  0.68128317406E+01 -0.87856478966E+01  0.12364695273E+02  0.51100000000E-03 0. -1.
        -11    1    3    3    0    0 -0.14288170095E+02  0.89884487584E+01 -0.11834574198E+02  0.20615556322E+02  0.51100000000E-03 0.  1.
        -12    1    3    3    0    0 -0.62203215670E+01  0.25769299084E+01 -0.11309597831E+02  0.13162065615E+02  0.00000000000E+00 0.  1.
</event>
<event>
 7    1  0.4194672E-008  0.4614232E+02  0.7816164E-02  0.1320468E+00
        -11   -1    0    0    0    0  0.00000000000E+00  0.00000000000E+00  0.45593999997E+02  0.45594000000E+02  0.51100000000E-03 0.  1.
         11   -1    0    0    0    0 -0.00000000000E+00 -0.00000000000E+00 -0.45593999997E+02  0.45594000000E+02  0.51100000000E-03 0. -1.
    9900012    2    1    2    0    0  0.31663562755E+02  0.28743927986E+01 -0.31910345393E+02  0.46142317816E+02  0.10000000500E+02 0.  0.
        -12    1    1    2    0    0 -0.31663562755E+02 -0.28743927986E+01  0.31910345393E+02  0.45045682184E+02  0.00000000000E+00 0.  1.
         11    1    3    3    0    0  0.11159616834E+02  0.30461193121E+01 -0.13353367354E+02  0.17667153440E+02  0.51100000000E-03 0. -1.
        -11    1    3    3    0    0  0.15822678831E+02  0.20799942698E+01 -0.11316173860E+02  0.19563724917E+02  0.51100000000E-03 0.  1.
        -12    1    3    3    0    0  0.46812670913E+01 -0.22517207833E+01 -0.72408041790E+01  0.89114394586E+01  0.00000000000E+00 0.  1.
</event>
<event>
 7    1  0.4194672E-008  0.4614232E+02  0.7816164E-02  0.1320468E+00
        -11   -1    0    0    0    0  0.00000000000E+00  0.00000000000E+00  0.45593999997E+02  0.45594000000E+02  0.51100000000E-03 0.  1.
         11   -1    0    0    0    0 -0.00000000000E+00 -0.00000000000E+00 -0.45593999997E+02  0.45594000000E+02  0.51100000000E-03 0. -1.
    9900012    2    1    2    0    0  0.13355717032E+02 -0.41844355061E+02 -0.99894018239E+01  0.46142319001E+02  0.10000011305E+02 0.  0.
        -12    1    1    2    0    0 -0.13355717032E+02  0.41844355061E+02  0.99894018239E+01  0.45045680999E+02  0.00000000000E+00 0.  1.
         11    1    3    3    0    0  0.48611189529E+01 -0.14665891467E+02 -0.24854122138E+01  0.15649157297E+02  0.51100000000E-03 0. -1.
        -11    1    3    3    0    0  0.62916691178E+01 -0.15548716268E+02 -0.58692601224E+00  0.16783687326E+02  0.51100000000E-03 0.  1.
        -12    1    3    3    0    0  0.22029289612E+01 -0.11629747326E+02 -0.69170635978E+01  0.13709474377E+02  0.00000000000E+00 0.  1.
</event>
<event>
 7    1  0.4194672E-008  0.4614232E+02  0.7816164E-02  0.1320468E+00
        -11   -1    0    0    0    0  0.00000000000E+00  0.00000000000E+00  0.45593999997E+02  0.45594000000E+02  0.51100000000E-03 0. -1.
         11   -1    0    0    0    0 -0.00000000000E+00 -0.00000000000E+00 -0.45593999997E+02  0.45594000000E+02  0.51100000000E-03 0.  1.
    9900012    2    1    2    0    0 -0.26424563199E+01 -0.61592340731E+01  0.44544301153E+02  0.46142317577E+02  0.99999983220E+01 0.  0.
        -12    1    1    2    0    0  0.26424563199E+01  0.61592340731E+01 -0.44544301153E+02  0.45045682423E+02  0.00000000000E+00 0.  1.
         11    1    3    3    0    0 -0.43287631327E+00  0.11519772371E+01  0.19174772519E+02  0.19214222203E+02  0.51100000000E-03 0. -1.
        -11    1    3    3    0    0  0.12495198650E+01 -0.21708725074E+01  0.44069455960E+01  0.50690390691E+01  0.51100000000E-03 0.  1.
         12    1    3    3    0    0 -0.34590998716E+01 -0.51403388027E+01  0.20962583037E+02  0.21859056305E+02  0.00000000000E+00 0. -1.
</event>
<event>
 7    1  0.4194672E-008  0.4614232E+02  0.7816164E-02  0.1320468E+00
        -11   -1    0    0    0    0  0.00000000000E+00  0.00000000000E+00  0.45593999997E+02  0.45594000000E+02  0.51100000000E-03 0.  1.
         11   -1    0    0    0    0 -0.00000000000E+00 -0.00000000000E+00 -0.45593999997E+02  0.45594000000E+02  0.51100000000E-03 0. -1.
    9900012    2    1    2    0    0  0.20205791496E+02 -0.35525325474E+02 -0.18941771259E+02  0.46142318093E+02  0.10000003026E+02 0.  0.
        -12    1    1    2    0    0 -0.20205791496E+02  0.35525325474E+02  0.18941771259E+02  0.45045681907E+02  0.00000000000E+00 0.  1.
         11    1    3    3    0    0  0.13351513685E+02 -0.20633310295E+02 -0.13777186798E+02  0.28174585848E+02  0.51100000000E-03 0. -1.
        -11    1    3    3    0    0  0.70184891251E+01 -0.15251783730E+02 -0.48917960546E+01  0.17487302978E+02  0.51100000000E-03 0.  1.
        -12    1    3    3    0    0 -0.16421131466E+00  0.35976854993E+00 -0.27278840692E+00  0.48042926673E+00  0.00000000000E+00 0.  1.
</event>
<event>
 7    1  0.4194672E-008  0.4614232E+02  0.7816164E-02  0.1320468E+00
        -11   -1    0    0    0    0  0.00000000000E+00  0.00000000000E+00  0.45593999997E+02  0.45594000000E+02  0.51100000000E-03 0.  1.
         11   -1    0    0    0    0 -0.00000000000E+00 -0.00000000000E+00 -0.45593999997E+02  0.45594000000E+02  0.51100000000E-03 0. -1.
    9900012    2    1    2    0    0 -0.39216548635E+02 -0.21104037191E+02  0.67672475801E+01  0.46142315274E+02  0.99999773217E+01 0.  0.
        -12    1    1    2    0    0  0.39216548635E+02  0.21104037191E+02 -0.67672475801E+01  0.45045684726E+02  0.00000000000E+00 0.  1.
         11    1    3    3    0    0 -0.15897537579E+02 -0.41093797875E+01  0.26066027029E+01  0.16625675362E+02  0.51100000000E-03 0.  1.
        -11    1    3    3    0    0 -0.12749847291E+02 -0.88241199340E+01 -0.63176464001E-01  0.15505730879E+02  0.51100000000E-03 0. -1.
        -12    1    3    3    0    0 -0.10569163765E+02 -0.81705374692E+01  0.42238213413E+01  0.14010909033E+02  0.00000000000E+00 0.  1.
</event>
<event>
 7    1  0.4194672E-008  0.4614232E+02  0.7816164E-02  0.1320468E+00
        -11   -1    0    0    0    0  0.00000000000E+00  0.00000000000E+00  0.45593999997E+02  0.45594000000E+02  0.51100000000E-03 0.  1.
         11   -1    0    0    0    0 -0.00000000000E+00 -0.00000000000E+00 -0.45593999997E+02  0.45594000000E+02  0.51100000000E-03 0. -1.
    9900012    2    1    2    0    0  0.69167909371E+01 -0.49034771764E+01 -0.44240565294E+02  0.46142315381E+02  0.99999782925E+01 0.  0.
        -12    1    1    2    0    0 -0.69167909371E+01  0.49034771764E+01  0.44240565294E+02  0.45045684619E+02  0.00000000000E+00 0.  1.
         11    1    3    3    0    0  0.67708997631E+01 -0.72675721480E+01 -0.39984421599E+02  0.41199716739E+02  0.51100000000E-03 0. -1.
        -11    1    3    3    0    0  0.24102165500E+00  0.79308989537E+00 -0.83388699070E+00  0.11757766772E+01  0.51100000000E-03 0.  1.
         12    1    3    3    0    0 -0.95130481036E-01  0.15710050763E+01 -0.34222567043E+01  0.37668219640E+01  0.00000000000E+00 0. -1.
</event>
<event>
 7    1  0.4194672E-008  0.4614232E+02  0.7816164E-02  0.1320468E+00
        -11   -1    0    0    0    0  0.00000000000E+00  0.00000000000E+00  0.45593999997E+02  0.45594000000E+02  0.51100000000E-03 0.  1.
         11   -1    0    0    0    0 -0.00000000000E+00 -0.00000000000E+00 -0.45593999997E+02  0.45594000000E+02  0.51100000000E-03 0. -1.
    9900012    2    1    2    0    0 -0.40010821816E+02  0.20291137927E+02 -0.40641517535E+01  0.46142317962E+02  0.10000001835E+02 0.  0.
        -12    1    1    2    0    0  0.40010821816E+02 -0.20291137927E+02  0.40641517535E+01  0.45045682038E+02  0.00000000000E+00 0.  1.
         11    1    3    3    0    0 -0.70837546338E+00  0.82954530963E+00 -0.58333891301E+00  0.12370229450E+01  0.51100000000E-03 0. -1.
        -11    1    3    3    0    0 -0.22163144752E+02  0.14336154874E+02 -0.53043037787E+01  0.26923334874E+02  0.51100000000E-03 0.  1.
         12    1    3    3    0    0 -0.17139301600E+02  0.51254377433E+01  0.18234909382E+01  0.17981960143E+02  0.00000000000E+00 0. -1.
</event>
<event>
 7    1  0.4194672E-008  0.4614232E+02  0.7816164E-02  0.1320468E+00
        -11   -1    0    0    0    0  0.00000000000E+00  0.00000000000E+00  0.45593999997E+02  0.45594000000E+02  0.51100000000E-03 0.  1.
         11   -1    0    0    0    0 -0.00000000000E+00 -0.00000000000E+00 -0.45593999997E+02  0.45594000000E+02  0.51100000000E-03 0. -1.
    9900012    2    1    2    0    0 -0.44782841039E+02  0.48142575319E+01 -0.65843965939E+00  0.46142317966E+02  0.10000001872E+02 0.  0.
        -12    1    1    2    0    0  0.44782841039E+02 -0.48142575319E+01  0.65843965939E+00  0.45045682034E+02  0.00000000000E+00 0.  1.
         11    1    3    3    0    0 -0.89777248114E+01  0.44272560581E+01 -0.83856692016E+00  0.10045065143E+02  0.51100000000E-03 0. -1.
        -11    1    3    3    0    0 -0.10479076357E+02 -0.12870189462E+01  0.15897561908E+01  0.10676833991E+02  0.51100000000E-03 0.  1.
         12    1    3    3    0    0 -0.25326039871E+02  0.16740204200E+01 -0.14096289300E+01  0.25420418833E+02  0.00000000000E+00 0. -1.
</event>
<event>
 7    1  0.4194672E-008  0.4614232E+02  0.7816164E-02  0.1320468E+00
        -11   -1    0    0    0    0  0.00000000000E+00  0.00000000000E+00  0.45593999997E+02  0.45594000000E+02  0.51100000000E-03 0.  1.
         11   -1    0    0    0    0 -0.00000000000E+00 -0.00000000000E+00 -0.45593999997E+02  0.45594000000E+02  0.51100000000E-03 0. -1.
    9900012    2    1    2    0    0 -0.42703102153E+02  0.22209701350E+01 -0.14164245797E+02  0.46142317623E+02  0.99999987377E+01 0.  0.
        -12    1    1    2    0    0  0.42703102153E+02 -0.22209701350E+01  0.14164245797E+02  0.45045682377E+02  0.00000000000E+00 0.  1.
         11    1    3    3    0    0 -0.31006016682E+02 -0.68144089590E+00 -0.95011236833E+01  0.32436226409E+02  0.51100000000E-03 0. -1.
        -11    1    3    3    0    0 -0.11957821872E+02  0.32824562386E+01 -0.43185886971E+01  0.13130659979E+02  0.51100000000E-03 0.  1.
        -12    1    3    3    0    0  0.26073640083E+00 -0.38004520768E+00 -0.34453341650E+00  0.57543123454E+00  0.00000000000E+00 0.  1.
</event>
<event>
 7    1  0.4194672E-008  0.4614232E+02  0.7816164E-02  0.1320468E+00
        -11   -1    0    0    0    0  0.00000000000E+00  0.00000000000E+00  0.45593999997E+02  0.45594000000E+02  0.51100000000E-03 0.  1.
         11   -1    0    0    0    0 -0.00000000000E+00 -0.00000000000E+00 -0.45593999997E+02  0.45594000000E+02  0.51100000000E-03 0. -1.
    9900012    2    1    2    0    0  0.67013266395E+01 -0.35660779010E+02 -0.26692970760E+02  0.46142316229E+02  0.99999860332E+01 0.  0.
        -12    1    1    2    0    0 -0.67013266395E+01  0.35660779010E+02  0.26692970760E+02  0.45045683771E+02  0.00000000000E+00 0.  1.
         11    1    3    3    0    0 -0.44125198572E+00 -0.10799378268E+01 -0.78851355551E+00  0.14080919406E+01  0.51100000000E-03 0. -1.
        -11    1    3    3    0    0  0.42648635050E+01 -0.76908562230E+01 -0.29914738454E+01  0.92890928614E+01  0.51100000000E-03 0.  1.
         12    1    3    3    0    0  0.28777151202E+01 -0.26889984960E+02 -0.22912983359E+02  0.35445131427E+02  0.00000000000E+00 0. -1.
</event>
<event>
 7    1  0.4194672E-008  0.4614232E+02  0.7816164E-02  0.1320468E+00
        -11   -1    0    0    0    0  0.00000000000E+00  0.00000000000E+00  0.45593999997E+02  0.45594000000E+02  0.51100000000E-03 0.  1.
         11   -1    0    0    0    0 -0.00000000000E+00 -0.00000000000E+00 -0.45593999997E+02  0.45594000000E+02  0.51100000000E-03 0. -1.
    9900012    2    1    2    0    0  0.30730421644E+02 -0.51265030725E+01 -0.32534191430E+02  0.46142318074E+02  0.10000002857E+02 0.  0.
        -12    1    1    2    0    0 -0.30730421644E+02  0.51265030725E+01  0.32534191430E+02  0.45045681926E+02  0.00000000000E+00 0.  1.
         11    1    3    3    0    0  0.18036644784E+02 -0.17570439644E+01 -0.19265652333E+02  0.26449444581E+02  0.51100000000E-03 0. -1.
        -11    1    3    3    0    0  0.82151277817E+01 -0.36225413788E+01 -0.12082068251E+02  0.15052823788E+02  0.51100000000E-03 0.  1.
        -12    1    3    3    0    0  0.44786490782E+01  0.25308227072E+00 -0.11864708454E+01  0.46400497054E+01  0.00000000000E+00 0.  1.
</event>
<event>
 7    1  0.4194672E-008  0.4614232E+02  0.7816164E-02  0.1320468E+00
        -11   -1    0    0    0    0  0.00000000000E+00  0.00000000000E+00  0.45593999997E+02  0.45594000000E+02  0.51100000000E-03 0.  1.
         11   -1    0    0    0    0 -0.00000000000E+00 -0.00000000000E+00 -0.45593999997E+02  0.45594000000E+02  0.51100000000E-03 0. -1.
    9900012    2    1    2    0    0 -0.30291796021E+01 -0.10078728841E+02 -0.43799050262E+02  0.46142317544E+02  0.99999980204E+01 0.  0.
        -12    1    1    2    0    0  0.30291796021E+01  0.10078728841E+02  0.43799050262E+02  0.45045682456E+02  0.00000000000E+00 0.  1.
         11    1    3    3    0    0 -0.87921352432E+00 -0.33640513164E+01 -0.22699614471E+02  0.22964371428E+02  0.51100000000E-03 0. -1.
        -11    1    3    3    0    0 -0.40283055685E+01 -0.19695453572E+01 -0.94637473577E+01  0.10472290532E+02  0.51100000000E-03 0.  1.
        -12    1    3    3    0    0  0.18783394908E+01 -0.47451321672E+01 -0.11635688433E+02  0.12705655585E+02  0.00000000000E+00 0.  1.
</event>
<event>
 7    1  0.4194672E-008  0.4614232E+02  0.7816164E-02  0.1320468E+00
        -11   -1    0    0    0    0  0.00000000000E+00  0.00000000000E+00  0.45593999997E+02  0.45594000000E+02  0.51100000000E-03 0.  1.
         11   -1    0    0    0    0 -0.00000000000E+00 -0.00000000000E+00 -0.45593999997E+02  0.45594000000E+02  0.51100000000E-03 0. -1.
    9900012    2    1    2    0    0 -0.44945819382E+02 -0.22406283043E+00  0.29894241311E+01  0.46142317180E+02  0.99999946988E+01 0.  0.
        -12    1    1    2    0    0  0.44945819382E+02  0.22406283043E+00 -0.29894241311E+01  0.45045682820E+02  0.00000000000E+00 0.  1.
         11    1    3    3    0    0 -0.91091601229E+01 -0.59029450452E+00  0.58603950896E+00  0.91470589980E+01  0.51100000000E-03 0. -1.
        -11    1    3    3    0    0 -0.36058148751E+01  0.11091552636E+01  0.28898299472E+01  0.47521830454E+01  0.51100000000E-03 0.  1.
        -12    1    3    3    0    0 -0.32230844384E+02 -0.74292358949E+00 -0.48644532506E+00  0.32243075136E+02  0.00000000000E+00 0.  1.
</event>
<event>
 7    1  0.4194672E-008  0.4614232E+02  0.7816164E-02  0.1320468E+00
        -11   -1    0    0    0    0  0.00000000000E+00  0.00000000000E+00  0.45593999997E+02  0.45594000000E+02  0.51100000000E-03 0.  1.
         11   -1    0    0    0    0 -0.00000000000E+00 -0.00000000000E+00 -0.45593999997E+02  0.45594000000E+02  0.51100000000E-03 0. -1.
    9900012    2    1    2    0    0  0.11365623460E+02  0.41621195329E+02 -0.12946513140E+02  0.46142317635E+02  0.99999988506E+01 0.  0.
        -12    1    1    2    0    0 -0.11365623460E+02 -0.41621195329E+02  0.12946513140E+02  0.45045682365E+02  0.00000000000E+00 0.  1.
         11    1    3    3    0    0  0.11355974053E+01  0.17480989883E+01 -0.18426754022E+01  0.27822444966E+01  0.51100000000E-03 0. -1.
        -11    1    3    3    0    0  0.31388821857E+01  0.97743536807E+01 -0.63575987704E+01  0.12075165988E+02  0.51100000000E-03 0.  1.
        -12    1    3    3    0    0  0.70911438688E+01  0.30098742660E+02 -0.47462389673E+01  0.31284907150E+02  0.00000000000E+00 0.  1.
</event>
<event>
 7    1  0.4194672E-008  0.4614231E+02  0.7816164E-02  0.1320468E+00
        -11   -1    0    0    0    0  0.00000000000E+00  0.00000000000E+00  0.45593999997E+02  0.45594000000E+02  0.51100000000E-03 0.  1.
         11   -1    0    0    0    0 -0.00000000000E+00 -0.00000000000E+00 -0.45593999997E+02  0.45594000000E+02  0.51100000000E-03 0. -1.
    9900012    2    1    2    0    0  0.23063867250E+02 -0.16515873728E+02 -0.34991395811E+02  0.46142313877E+02  0.99999645811E+01 0.  0.
        -12    1    1    2    0    0 -0.23063867250E+02  0.16515873728E+02  0.34991395811E+02  0.45045686123E+02  0.00000000000E+00 0.  1.
         11    1    3    3    0    0  0.56471655700E+01 -0.28944442171E+01 -0.84979749350E+01  0.10605841059E+02  0.51100000000E-03 0. -1.
        -11    1    3    3    0    0  0.43157899005E+01 -0.68559427469E+01 -0.51652802137E+01  0.96078152230E+01  0.51100000000E-03 0.  1.
        -12    1    3    3    0    0  0.13100911779E+02 -0.67654867645E+01 -0.21328140662E+02  0.25928657595E+02  0.00000000000E+00 0.  1.
</event>
<event>
 7    1  0.4194672E-008  0.4614232E+02  0.7816164E-02  0.1320468E+00
        -11   -1    0    0    0    0  0.00000000000E+00  0.00000000000E+00  0.45593999997E+02  0.45594000000E+02  0.51100000000E-03 0.  1.
         11   -1    0    0    0    0 -0.00000000000E+00 -0.00000000000E+00 -0.45593999997E+02  0.45594000000E+02  0.51100000000E-03 0. -1.
    9900012    2    1    2    0    0 -0.14994361037E+02 -0.40088483799E+02 -0.14042653009E+02  0.46142317635E+02  0.99999988496E+01 0.  0.
        -12    1    1    2    0    0  0.14994361037E+02  0.40088483799E+02  0.14042653009E+02  0.45045682365E+02  0.00000000000E+00 0.  1.
         11    1    3    3    0    0 -0.42075209180E+01 -0.49923384353E+01 -0.17159999932E+01  0.67506541584E+01  0.51100000000E-03 0. -1.
        -11    1    3    3    0    0 -0.60203438795E+01 -0.11028600560E+02 -0.17972478997E+01  0.12692701486E+02  0.51100000000E-03 0.  1.
         12    1    3    3    0    0 -0.47664962395E+01 -0.24067544803E+02 -0.10529405116E+02  0.26698961990E+02  0.00000000000E+00 0. -1.
</event>
<event>
 7    1  0.4194672E-008  0.4614232E+02  0.7816164E-02  0.1320468E+00
        -11   -1    0    0    0    0  0.00000000000E+00  0.00000000000E+00  0.45593999997E+02  0.45594000000E+02  0.51100000000E-03 0. -1.
         11   -1    0    0    0    0 -0.00000000000E+00 -0.00000000000E+00 -0.45593999997E+02  0.45594000000E+02  0.51100000000E-03 0.  1.
    9900012    2    1    2    0    0 -0.12119542758E+02  0.28887167878E+02  0.32369146812E+02  0.46142318187E+02  0.10000003881E+02 0.  0.
        -12    1    1    2    0    0  0.12119542758E+02 -0.28887167878E+02 -0.32369146812E+02  0.45045681813E+02  0.00000000000E+00 0.  1.
         11    1    3    3    0    0 -0.10284089890E+02  0.28208717472E+02  0.29603095966E+02  0.42164410791E+02  0.51100000000E-03 0. -1.
        -11    1    3    3    0    0 -0.17376494341E+01  0.99179438870E+00  0.29776194005E+01  0.35873805514E+01  0.51100000000E-03 0.  1.
        -12    1    3    3    0    0 -0.97803434128E-01 -0.31334398288E+00 -0.21156855430E+00  0.39052684479E+00  0.00000000000E+00 0.  1.
</event>
<event>
 7    1  0.4194672E-008  0.4614232E+02  0.7816164E-02  0.1320468E+00
        -11   -1    0    0    0    0  0.00000000000E+00  0.00000000000E+00  0.45593999997E+02  0.45594000000E+02  0.51100000000E-03 0.  1.
         11   -1    0    0    0    0 -0.00000000000E+00 -0.00000000000E+00 -0.45593999997E+02  0.45594000000E+02  0.51100000000E-03 0. -1.
    9900012    2    1    2    0    0  0.61414512721E+01  0.10543595254E+02 -0.43361603611E+02  0.46142317718E+02  0.99999996045E+01 0.  0.
        -12    1    1    2    0    0 -0.61414512721E+01 -0.10543595254E+02  0.43361603611E+02  0.45045682282E+02  0.00000000000E+00 0.  1.
         11    1    3    3    0    0  0.30902317148E+01 -0.13616961470E+01 -0.89422099395E+01  0.95586017446E+01  0.51100000000E-03 0. -1.
        -11    1    3    3    0    0  0.27077325738E-01  0.25109920994E+01 -0.77635283637E+01  0.81595457851E+01  0.51100000000E-03 0.  1.
         12    1    3    3    0    0  0.30241422316E+01  0.93942993012E+01 -0.26655865307E+02  0.28424170188E+02  0.00000000000E+00 0. -1.
</event>
<event>
 7    1  0.4194672E-008  0.4614232E+02  0.7816164E-02  0.1320468E+00
        -11   -1    0    0    0    0  0.00000000000E+00  0.00000000000E+00  0.45593999997E+02  0.45594000000E+02  0.51100000000E-03 0.  1.
         11   -1    0    0    0    0 -0.00000000000E+00 -0.00000000000E+00 -0.45593999997E+02  0.45594000000E+02  0.51100000000E-03 0. -1.
    9900012    2    1    2    0    0 -0.28455544460E+02 -0.22920503128E+02 -0.26344756997E+02  0.46142315463E+02  0.99999790427E+01 0.  0.
        -12    1    1    2    0    0  0.28455544460E+02  0.22920503128E+02  0.26344756997E+02  0.45045684537E+02  0.00000000000E+00 0.  1.
         11    1    3    3    0    0 -0.24812728029E+02 -0.19222052072E+02 -0.24484389753E+02  0.39807588471E+02  0.51100000000E-03 0. -1.
        -11    1    3    3    0    0  0.74601778446E-01  0.27179407129E+00 -0.72595097981E+00  0.77874419981E+00  0.51100000000E-03 0.  1.
         12    1    3    3    0    0 -0.37174182100E+01 -0.39702451273E+01 -0.11344162648E+01  0.55559827917E+01  0.00000000000E+00 0. -1.
</event>
<event>
 7    1  0.4194672E-008  0.4614232E+02  0.7816164E-02  0.1320468E+00
        -11   -1    0    0    0    0  0.00000000000E+00  0.00000000000E+00  0.45593999997E+02  0.45594000000E+02  0.51100000000E-03 0.  1.
         11   -1    0    0    0    0 -0.00000000000E+00 -0.00000000000E+00 -0.45593999997E+02  0.45594000000E+02  0.51100000000E-03 0. -1.
    9900012    2    1    2    0    0  0.17760459428E+02 -0.35632454417E+02 -0.21071491122E+02  0.46142318021E+02  0.10000002366E+02 0.  0.
        -12    1    1    2    0    0 -0.17760459428E+02  0.35632454417E+02  0.21071491122E+02  0.45045681979E+02  0.00000000000E+00 0.  1.
         11    1    3    3    0    0  0.89247383200E+01 -0.15768844926E+02 -0.12347220608E+02  0.21926269208E+02  0.51100000000E-03 0. -1.
        -11    1    3    3    0    0  0.91030710271E+01 -0.15959932052E+02 -0.86369032155E+01  0.20302251862E+02  0.51100000000E-03 0.  1.
        -12    1    3    3    0    0 -0.26734991903E+00 -0.39036774391E+01 -0.87367298177E-01  0.39137969509E+01  0.00000000000E+00 0.  1.
</event>
<event>
 7    1  0.4194672E-008  0.4614232E+02  0.7816164E-02  0.1320468E+00
        -11   -1    0    0    0    0  0.00000000000E+00  0.00000000000E+00  0.45593999997E+02  0.45594000000E+02  0.51100000000E-03 0.  1.
         11   -1    0    0    0    0 -0.00000000000E+00 -0.00000000000E+00 -0.45593999997E+02  0.45594000000E+02  0.51100000000E-03 0. -1.
    9900012    2    1    2    0    0 -0.20797696775E+02 -0.24202737749E+02 -0.31793029985E+02  0.46142318061E+02  0.10000002731E+02 0.  0.
        -12    1    1    2    0    0  0.20797696775E+02  0.24202737749E+02  0.31793029985E+02  0.45045681939E+02  0.00000000000E+00 0.  1.
         11    1    3    3    0    0 -0.96409560833E+01 -0.12447168877E+02 -0.12542041253E+02  0.20129154138E+02  0.51100000000E-03 0. -1.
        -11    1    3    3    0    0 -0.88028389543E+01 -0.49687432006E+01 -0.92658638055E+01  0.13712571421E+02  0.51100000000E-03 0.  1.
        -12    1    3    3    0    0 -0.23539017377E+01 -0.67868256715E+01 -0.99851249270E+01  0.12300592502E+02  0.00000000000E+00 0.  1.
</event>
<event>
 7    1  0.4194672E-008  0.4614232E+02  0.7816164E-02  0.1320468E+00
        -11   -1    0    0    0    0  0.00000000000E+00  0.00000000000E+00  0.45593999997E+02  0.45594000000E+02  0.51100000000E-03 0.  1.
         11   -1    0    0    0    0 -0.00000000000E+00 -0.00000000000E+00 -0.45593999997E+02  0.45594000000E+02  0.51100000000E-03 0. -1.
    9900012    2    1    2    0    0 -0.82002012138E+01 -0.91326873683E+00 -0.44283587178E+02  0.46142318153E+02  0.10000003572E+02 0.  0.
        -12    1    1    2    0    0  0.82002012138E+01  0.91326873683E+00  0.44283587178E+02  0.45045681847E+02  0.00000000000E+00 0.  1.
         11    1    3    3    0    0  0.25782063985E-01  0.91774642248E+00 -0.11803924258E+02  0.11839575641E+02  0.51100000000E-03 0. -1.
        -11    1    3    3    0    0 -0.31364821346E+01 -0.38397812622E+01 -0.21118184386E+02  0.21692375443E+02  0.51100000000E-03 0.  1.
        -12    1    3    3    0    0 -0.50895011431E+01  0.20087661029E+01 -0.11361478533E+02  0.12610367069E+02  0.00000000000E+00 0.  1.
</event>
<event>
 7    1  0.4194672E-008  0.4614232E+02  0.7816164E-02  0.1320468E+00
        -11   -1    0    0    0    0  0.00000000000E+00  0.00000000000E+00  0.45593999997E+02  0.45594000000E+02  0.51100000000E-03 0.  1.
         11   -1    0    0    0    0 -0.00000000000E+00 -0.00000000000E+00 -0.45593999997E+02  0.45594000000E+02  0.51100000000E-03 0. -1.
    9900012    2    1    2    0    0 -0.20165211013E+01  0.24163470521E+02 -0.37962794198E+02  0.46142318650E+02  0.10000008105E+02 0.  0.
        -12    1    1    2    0    0  0.20165211013E+01 -0.24163470521E+02  0.37962794198E+02  0.45045681350E+02  0.00000000000E+00 0.  1.
         11    1    3    3    0    0 -0.29770000800E+01  0.97719630412E+01 -0.15485188702E+02  0.18551141758E+02  0.51100000000E-03 0. -1.
        -11    1    3    3    0    0 -0.83954081995E+00  0.14103357551E+02 -0.19160687211E+02  0.23806332301E+02  0.51100000000E-03 0.  1.
        -12    1    3    3    0    0  0.18000197986E+01  0.28814992892E+00 -0.33169182859E+01  0.37848445903E+01  0.00000000000E+00 0.  1.
</event>
<event>
 7    1  0.4194672E-008  0.4614232E+02  0.7816164E-02  0.1320468E+00
        -11   -1    0    0    0    0  0.00000000000E+00  0.00000000000E+00  0.45593999997E+02  0.45594000000E+02  0.51100000000E-03 0.  1.
         11   -1    0    0    0    0 -0.00000000000E+00 -0.00000000000E+00 -0.45593999997E+02  0.45594000000E+02  0.51100000000E-03 0. -1.
    9900012    2    1    2    0    0 -0.23016438292E+02  0.22953622557E+02 -0.31184745395E+02  0.46142316905E+02  0.99999921947E+01 0.  0.
        -12    1    1    2    0    0  0.23016438292E+02 -0.22953622557E+02  0.31184745395E+02  0.45045683095E+02  0.00000000000E+00 0.  1.
         11    1    3    3    0    0 -0.54031685692E+01  0.82266582577E+00 -0.67994191393E+01  0.87237096777E+01  0.51100000000E-03 0.  1.
        -11    1    3    3    0    0 -0.10964991680E+02  0.12058677172E+02 -0.13420672995E+02  0.21112962880E+02  0.51100000000E-03 0. -1.
        -12    1    3    3    0    0 -0.66482780425E+01  0.10072279559E+02 -0.10964653261E+02  0.16305644347E+02  0.00000000000E+00 0.  1.
</event>
<event>
 7    1  0.4194672E-008  0.4614232E+02  0.7816164E-02  0.1320468E+00
        -11   -1    0    0    0    0  0.00000000000E+00  0.00000000000E+00  0.45593999997E+02  0.45594000000E+02  0.51100000000E-03 0.  1.
         11   -1    0    0    0    0 -0.00000000000E+00 -0.00000000000E+00 -0.45593999997E+02  0.45594000000E+02  0.51100000000E-03 0. -1.
    9900012    2    1    2    0    0 -0.25360137062E+02 -0.30044273118E+02 -0.21984507637E+02  0.46142317908E+02  0.10000001343E+02 0.  0.
        -12    1    1    2    0    0  0.25360137062E+02  0.30044273118E+02  0.21984507637E+02  0.45045682092E+02  0.00000000000E+00 0.  1.
         11    1    3    3    0    0 -0.17272451288E+01 -0.31230184330E+01 -0.26299400277E+01  0.44331935079E+01  0.51100000000E-03 0. -1.
        -11    1    3    3    0    0 -0.84647362525E+01 -0.55748345020E+01 -0.89826169013E+01  0.13543188185E+02  0.51100000000E-03 0.  1.
        -12    1    3    3    0    0 -0.15168155681E+02 -0.21346420183E+02 -0.10371950708E+02  0.28165936216E+02  0.00000000000E+00 0.  1.
</event>
<event>
 7    1  0.4194672E-008  0.4614232E+02  0.7816164E-02  0.1320468E+00
        -11   -1    0    0    0    0  0.00000000000E+00  0.00000000000E+00  0.45593999997E+02  0.45594000000E+02  0.51100000000E-03 0.  1.
         11   -1    0    0    0    0 -0.00000000000E+00 -0.00000000000E+00 -0.45593999997E+02  0.45594000000E+02  0.51100000000E-03 0. -1.
    9900012    2    1    2    0    0 -0.15433511219E+02  0.64433446952E+01 -0.41825873226E+02  0.46142316183E+02  0.99999856135E+01 0.  0.
        -12    1    1    2    0    0  0.15433511219E+02 -0.64433446952E+01  0.41825873226E+02  0.45045683817E+02  0.00000000000E+00 0.  1.
         11    1    3    3    0    0 -0.38375587313E+01  0.86146703886E-01 -0.88867001070E+01  0.96802746513E+01  0.51100000000E-03 0. -1.
        -11    1    3    3    0    0 -0.34486284622E+01 -0.15417284521E+01 -0.47120937723E+01  0.60393536798E+01  0.51100000000E-03 0.  1.
         12    1    3    3    0    0 -0.81473240260E+01  0.78989264433E+01 -0.28227079346E+02  0.30422687852E+02  0.00000000000E+00 0. -1.
</event>
<event>
 7    1  0.4194672E-008  0.4614232E+02  0.7816164E-02  0.1320468E+00
        -11   -1    0    0    0    0  0.00000000000E+00  0.00000000000E+00  0.45593999997E+02  0.45594000000E+02  0.51100000000E-03 0.  1.
         11   -1    0    0    0    0 -0.00000000000E+00 -0.00000000000E+00 -0.45593999997E+02  0.45594000000E+02  0.51100000000E-03 0. -1.
    9900012    2    1    2    0    0 -0.22992421449E+02 -0.26355461655E+02 -0.28387526732E+02  0.46142317887E+02  0.10000001145E+02 0.  0.
        -12    1    1    2    0    0  0.22992421449E+02  0.26355461655E+02  0.28387526732E+02  0.45045682113E+02  0.00000000000E+00 0.  1.
         11    1    3    3    0    0 -0.72060289786E+01 -0.83832197790E+01 -0.12635726985E+02  0.16788889904E+02  0.51100000000E-03 0. -1.
        -11    1    3    3    0    0 -0.88495211917E+01 -0.14248895866E+02 -0.12053688717E+02  0.20655180238E+02  0.51100000000E-03 0.  1.
        -12    1    3    3    0    0 -0.69368712783E+01 -0.37233460100E+01 -0.36981110297E+01  0.86982477448E+01  0.00000000000E+00 0.  1.
</event>
<event>
 7    1  0.4194672E-008  0.4614232E+02  0.7816164E-02  0.1320468E+00
        -11   -1    0    0    0    0  0.00000000000E+00  0.00000000000E+00  0.45593999997E+02  0.45594000000E+02  0.51100000000E-03 0. -1.
         11   -1    0    0    0    0 -0.00000000000E+00 -0.00000000000E+00 -0.45593999997E+02  0.45594000000E+02  0.51100000000E-03 0.  1.
    9900012    2    1    2    0    0 -0.23078715355E+02  0.38683229154E+02 -0.30722377107E+00  0.46142315338E+02  0.99999779068E+01 0.  0.
        -12    1    1    2    0    0  0.23078715355E+02 -0.38683229154E+02  0.30722377107E+00  0.45045684662E+02  0.00000000000E+00 0.  1.
         11    1    3    3    0    0 -0.68508195023E+01  0.14648098719E+02 -0.21212421712E+01  0.16309512333E+02  0.51100000000E-03 0. -1.
        -11    1    3    3    0    0 -0.32100197780E+01  0.11118955850E+01  0.54490362334E+00  0.34405608536E+01  0.51100000000E-03 0.  1.
        -12    1    3    3    0    0 -0.13017876074E+02  0.22923234850E+02  0.12691147768E+01  0.26392242152E+02  0.00000000000E+00 0.  1.
</event>
<event>
 7    1  0.4194672E-008  0.4614231E+02  0.7816164E-02  0.1320468E+00
        -11   -1    0    0    0    0  0.00000000000E+00  0.00000000000E+00  0.45593999997E+02  0.45594000000E+02  0.51100000000E-03 0.  1.
         11   -1    0    0    0    0 -0.00000000000E+00 -0.00000000000E+00 -0.45593999997E+02  0.45594000000E+02  0.51100000000E-03 0. -1.
    9900012    2    1    2    0    0 -0.34079530829E+02  0.26243353708E+02 -0.13378559335E+02  0.46142313356E+02  0.99999598329E+01 0.  0.
        -12    1    1    2    0    0  0.34079530829E+02 -0.26243353708E+02  0.13378559335E+02  0.45045686644E+02  0.00000000000E+00 0.  1.
         11    1    3    3    0    0 -0.52696759002E+01  0.89049198013E+01 -0.34322043738E+01  0.10901702064E+02  0.51100000000E-03 0. -1.
        -11    1    3    3    0    0 -0.94621714961E+01  0.74062256218E+01 -0.26858778097E+01  0.12312546741E+02  0.51100000000E-03 0.  1.
         12    1    3    3    0    0 -0.19347683432E+02  0.99322082844E+01 -0.72604771519E+01  0.22928064551E+02  0.00000000000E+00 0. -1.
</event>
<event>
 7    1  0.4194672E-008  0.4614232E+02  0.7816164E-02  0.1320468E+00
        -11   -1    0    0    0    0  0.00000000000E+00  0.00000000000E+00  0.45593999997E+02  0.45594000000E+02  0.51100000000E-03 0.  1.
         11   -1    0    0    0    0 -0.00000000000E+00 -0.00000000000E+00 -0.45593999997E+02  0.45594000000E+02  0.51100000000E-03 0. -1.
    9900012    2    1    2    0    0  0.13216576798E+02  0.51798170376E+01 -0.42750498824E+02  0.46142317005E+02  0.99999931057E+01 0.  0.
        -12    1    1    2    0    0 -0.13216576798E+02 -0.51798170376E+01  0.42750498824E+02  0.45045682995E+02  0.00000000000E+00 0.  1.
         11    1    3    3    0    0  0.27043950152E+01  0.24153175293E+01 -0.59100673719E+01  0.69337152932E+01  0.51100000000E-03 0. -1.
        -11    1    3    3    0    0  0.72029555908E+01  0.40368219225E+01 -0.15370835025E+02  0.17448239742E+02  0.51100000000E-03 0.  1.
         12    1    3    3    0    0  0.33092261921E+01 -0.12723224143E+01 -0.21469596427E+02  0.21760361969E+02  0.00000000000E+00 0. -1.
</event>
<event>
 7    1  0.4194672E-008  0.4614232E+02  0.7816164E-02  0.1320468E+00
        -11   -1    0    0    0    0  0.00000000000E+00  0.00000000000E+00  0.45593999997E+02  0.45594000000E+02  0.51100000000E-03 0.  1.
         11   -1    0    0    0    0 -0.00000000000E+00 -0.00000000000E+00 -0.45593999997E+02  0.45594000000E+02  0.51100000000E-03 0. -1.
    9900012    2    1    2    0    0 -0.16906438608E+00 -0.63886196760E+01 -0.44590026678E+02  0.46142317373E+02  0.99999964639E+01 0.  0.
        -12    1    1    2    0    0  0.16906438608E+00  0.63886196760E+01  0.44590026678E+02  0.45045682627E+02  0.00000000000E+00 0.  1.
         11    1    3    3    0    0  0.19817870699E+01 -0.74462226403E+01 -0.28210316056E+02  0.29243728282E+02  0.51100000000E-03 0. -1.
        -11    1    3    3    0    0  0.59893470198E-01  0.16590357367E+01 -0.44216453847E+01  0.47230218052E+01  0.51100000000E-03 0.  1.
         12    1    3    3    0    0 -0.22107449261E+01 -0.60143277233E+00 -0.11958065238E+02  0.12175567286E+02  0.00000000000E+00 0. -1.
</event>
<event>
 7    1  0.4194672E-008  0.4614232E+02  0.7816164E-02  0.1320468E+00
        -11   -1    0    0    0    0  0.00000000000E+00  0.00000000000E+00  0.45593999997E+02  0.45594000000E+02  0.51100000000E-03 0.  1.
         11   -1    0    0    0    0 -0.00000000000E+00 -0.00000000000E+00 -0.45593999997E+02  0.45594000000E+02  0.51100000000E-03 0. -1.
    9900012    2    1    2    0    0  0.10305991132E+02 -0.14307623099E+02 -0.41451078361E+02  0.46142318418E+02  0.10000005987E+02 0.  0.
        -12    1    1    2    0    0 -0.10305991132E+02  0.14307623099E+02  0.41451078361E+02  0.45045681582E+02  0.00000000000E+00 0.  1.
         11    1    3    3    0    0  0.23109555454E+01 -0.84985416458E+01 -0.16086004605E+02  0.18339173102E+02  0.51100000000E-03 0. -1.
        -11    1    3    3    0    0  0.14978196450E+01 -0.26703164246E+01 -0.29359298404E+01  0.42419026138E+01  0.51100000000E-03 0.  1.
        -12    1    3    3    0    0  0.64972159420E+01 -0.31387650284E+01 -0.22429143915E+02  0.23561242702E+02  0.00000000000E+00 0.  1.
</event>
<event>
 7    1  0.4194672E-008  0.4614232E+02  0.7816164E-02  0.1320468E+00
        -11   -1    0    0    0    0  0.00000000000E+00  0.00000000000E+00  0.45593999997E+02  0.45594000000E+02  0.51100000000E-03 0. -1.
         11   -1    0    0    0    0 -0.00000000000E+00 -0.00000000000E+00 -0.45593999997E+02  0.45594000000E+02  0.51100000000E-03 0.  1.
    9900012    2    1    2    0    0 -0.30340614902E+02  0.22934035232E+02  0.24136913461E+02  0.46142317897E+02  0.10000001242E+02 0.  0.
        -12    1    1    2    0    0  0.30340614902E+02 -0.22934035232E+02 -0.24136913461E+02  0.45045682103E+02  0.00000000000E+00 0.  1.
         11    1    3    3    0    0 -0.15546922367E+02  0.13862979207E+02  0.11638308687E+02  0.23860830181E+02  0.51100000000E-03 0. -1.
        -11    1    3    3    0    0 -0.28321029628E+01  0.46327644125E+01  0.55035927084E+01  0.77312900770E+01  0.51100000000E-03 0.  1.
        -12    1    3    3    0    0 -0.11961589573E+02  0.44382916124E+01  0.69950120657E+01  0.14550197639E+02  0.00000000000E+00 0.  1.
</event>
<event>
 7    1  0.4194672E-008  0.4614232E+02  0.7816164E-02  0.1320468E+00
        -11   -1    0    0    0    0  0.00000000000E+00  0.00000000000E+00  0.45593999997E+02  0.45594000000E+02  0.51100000000E-03 0.  1.
         11   -1    0    0    0    0 -0.00000000000E+00 -0.00000000000E+00 -0.45593999997E+02  0.45594000000E+02  0.51100000000E-03 0. -1.
    9900012    2    1    2    0    0 -0.26108563838E+02  0.27395551744E+02 -0.24432357001E+02  0.46142318413E+02  0.10000005943E+02 0.  0.
        -12    1    1    2    0    0  0.26108563838E+02 -0.27395551744E+02  0.24432357001E+02  0.45045681587E+02  0.00000000000E+00 0.  1.
         11    1    3    3    0    0 -0.16563139049E+02  0.21202298734E+02 -0.14178001390E+02  0.30412016875E+02  0.51100000000E-03 0.  1.
        -11    1    3    3    0    0 -0.61688586890E+01  0.52893667454E+01 -0.87003579096E+01  0.11904975687E+02  0.51100000000E-03 0. -1.
        -12    1    3    3    0    0 -0.33765660999E+01  0.90388626474E+00 -0.15539977014E+01  0.38253258505E+01  0.00000000000E+00 0.  1.
</event>
<event>
 7    1  0.4194672E-008  0.4614232E+02  0.7816164E-02  0.1320468E+00
        -11   -1    0    0    0    0  0.00000000000E+00  0.00000000000E+00  0.45593999997E+02  0.45594000000E+02  0.51100000000E-03 0.  1.
         11   -1    0    0    0    0 -0.00000000000E+00 -0.00000000000E+00 -0.45593999997E+02  0.45594000000E+02  0.51100000000E-03 0. -1.
    9900012    2    1    2    0    0  0.33137707095E+02  0.27301884898E+02  0.13623983716E+02  0.46142317823E+02  0.10000000564E+02 0.  0.
        -12    1    1    2    0    0 -0.33137707095E+02 -0.27301884898E+02 -0.13623983716E+02  0.45045682177E+02  0.00000000000E+00 0.  1.
         11    1    3    3    0    0  0.91793114034E+01  0.81366249997E+01  0.59126483956E+01  0.13617042099E+02  0.51100000000E-03 0. -1.
        -11    1    3    3    0    0  0.65876697317E+00 -0.71239253801E+00  0.19364267924E+00  0.98943155473E+00  0.51100000000E-03 0.  1.
        -12    1    3    3    0    0  0.23299628718E+02  0.19877652437E+02  0.75176926410E+01  0.31535844169E+02  0.00000000000E+00 0.  1.
</event>
<event>
 7    1  0.4194672E-008  0.4614232E+02  0.7816164E-02  0.1320468E+00
        -11   -1    0    0    0    0  0.00000000000E+00  0.00000000000E+00  0.45593999997E+02  0.45594000000E+02  0.51100000000E-03 0. -1.
         11   -1    0    0    0    0 -0.00000000000E+00 -0.00000000000E+00 -0.45593999997E+02  0.45594000000E+02  0.51100000000E-03 0.  1.
    9900012    2    1    2    0    0  0.64763735325E+01  0.32697186695E+02  0.30299572458E+02  0.46142317376E+02  0.99999964878E+01 0.  0.
        -12    1    1    2    0    0 -0.64763735325E+01 -0.32697186695E+02 -0.30299572458E+02  0.45045682624E+02  0.00000000000E+00 0.  1.
         11    1    3    3    0    0  0.58327751078E+01  0.18467284345E+02  0.22748315829E+02  0.29875537315E+02  0.51100000000E-03 0. -1.
        -11    1    3    3    0    0  0.13573943574E+01  0.62289672075E+01  0.33349623132E+01  0.71947568274E+01  0.51100000000E-03 0.  1.
         12    1    3    3    0    0 -0.71379593266E+00  0.80009351429E+01  0.42162943159E+01  0.90720232337E+01  0.00000000000E+00 0. -1.
</event>
<event>
 7    1  0.4194672E-008  0.4614232E+02  0.7816164E-02  0.1320468E+00
        -11   -1    0    0    0    0  0.00000000000E+00  0.00000000000E+00  0.45593999997E+02  0.45594000000E+02  0.51100000000E-03 0. -1.
         11   -1    0    0    0    0 -0.00000000000E+00 -0.00000000000E+00 -0.45593999997E+02  0.45594000000E+02  0.51100000000E-03 0.  1.
    9900012    2    1    2    0    0 -0.73611976571E+01  0.41534051709E+02 -0.15806607467E+02  0.46142317388E+02  0.99999965982E+01 0.  0.
        -12    1    1    2    0    0  0.73611976571E+01 -0.41534051709E+02  0.15806607467E+02  0.45045682612E+02  0.00000000000E+00 0.  1.
         11    1    3    3    0    0 -0.31644893544E+01  0.20937352107E+02 -0.65724368853E+01  0.22171685390E+02  0.51100000000E-03 0. -1.
        -11    1    3    3    0    0 -0.22117368025E+01  0.15165996134E+02 -0.32849688464E+01  0.15674509211E+02  0.51100000000E-03 0.  1.
        -12    1    3    3    0    0 -0.19849715002E+01  0.54307034679E+01 -0.59492017356E+01  0.82961227874E+01  0.00000000000E+00 0.  1.
</event>
<event>
 7    1  0.4194672E-008  0.4614232E+02  0.7816164E-02  0.1320468E+00
        -11   -1    0    0    0    0  0.00000000000E+00  0.00000000000E+00  0.45593999997E+02  0.45594000000E+02  0.51100000000E-03 0. -1.
         11   -1    0    0    0    0 -0.00000000000E+00 -0.00000000000E+00 -0.45593999997E+02  0.45594000000E+02  0.51100000000E-03 0.  1.
    9900012    2    1    2    0    0 -0.29539067658E+02 -0.31451624519E+01  0.33862440853E+02  0.46142318015E+02  0.10000002318E+02 0.  0.
        -12    1    1    2    0    0  0.29539067658E+02  0.31451624519E+01 -0.33862440853E+02  0.45045681985E+02  0.00000000000E+00 0.  1.
         11    1    3    3    0    0 -0.26114905214E+01  0.20650717524E+01  0.33469857687E+01  0.47208810706E+01  0.51100000000E-03 0. -1.
        -11    1    3    3    0    0 -0.49044046640E+01  0.12114735676E+01  0.49554438721E+01  0.70765300497E+01  0.51100000000E-03 0.  1.
         12    1    3    3    0    0 -0.22023172472E+02 -0.64217077719E+01  0.25560011212E+02  0.34344906895E+02  0.00000000000E+00 0. -1.
</event>
<event>
 7    1  0.4194672E-008  0.4614232E+02  0.7816164E-02  0.1320468E+00
        -11   -1    0    0    0    0  0.00000000000E+00  0.00000000000E+00  0.45593999997E+02  0.45594000000E+02  0.51100000000E-03 0.  1.
         11   -1    0    0    0    0 -0.00000000000E+00 -0.00000000000E+00 -0.45593999997E+02  0.45594000000E+02  0.51100000000E-03 0. -1.
    9900012    2    1    2    0    0  0.11720906137E+02  0.24301449134E+02 -0.36071781572E+02  0.46142317671E+02  0.99999991816E+01 0.  0.
        -12    1    1    2    0    0 -0.11720906137E+02 -0.24301449134E+02  0.36071781572E+02  0.45045682329E+02  0.00000000000E+00 0.  1.
         11    1    3    3    0    0  0.34802077559E+01  0.56591502779E+01 -0.62958059301E+01  0.91528684282E+01  0.51100000000E-03 0. -1.
        -11    1    3    3    0    0  0.78046963676E+01  0.12594758655E+02 -0.15317924173E+02  0.21311499999E+02  0.51100000000E-03 0.  1.
        -12    1    3    3    0    0  0.43600201373E+00  0.60475402008E+01 -0.14458051469E+02  0.15677949244E+02  0.00000000000E+00 0.  1.
</event>
<event>
 7    1  0.4194672E-008  0.4614232E+02  0.7816164E-02  0.1320468E+00
        -11   -1    0    0    0    0  0.00000000000E+00  0.00000000000E+00  0.45593999997E+02  0.45594000000E+02  0.51100000000E-03 0. -1.
         11   -1    0    0    0    0 -0.00000000000E+00 -0.00000000000E+00 -0.45593999997E+02  0.45594000000E+02  0.51100000000E-03 0.  1.
    9900012    2    1    2    0    0 -0.21838925202E+02  0.38906575106E+02 -0.62010700909E+01  0.46142317513E+02  0.99999977392E+01 0.  0.
        -12    1    1    2    0    0  0.21838925202E+02 -0.38906575106E+02  0.62010700909E+01  0.45045682487E+02  0.00000000000E+00 0.  1.
         11    1    3    3    0    0 -0.50346941954E+01  0.11898392708E+02 -0.54338523669E+01  0.14015942583E+02  0.51100000000E-03 0. -1.
        -11    1    3    3    0    0 -0.52214436792E+01  0.80997793832E+01  0.18021395539E+01  0.98039587608E+01  0.51100000000E-03 0.  1.
         12    1    3    3    0    0 -0.11582787327E+02  0.18908403014E+02 -0.25693572780E+01  0.22322416169E+02  0.00000000000E+00 0. -1.
</event>
<event>
 7    1  0.4194672E-008  0.4614232E+02  0.7816164E-02  0.1320468E+00
        -11   -1    0    0    0    0  0.00000000000E+00  0.00000000000E+00  0.45593999997E+02  0.45594000000E+02  0.51100000000E-03 0.  1.
         11   -1    0    0    0    0 -0.00000000000E+00 -0.00000000000E+00 -0.45593999997E+02  0.45594000000E+02  0.51100000000E-03 0. -1.
    9900012    2    1    2    0    0 -0.83509269609E+01 -0.13149456609E+02 -0.42266621534E+02  0.46142317786E+02  0.10000000230E+02 0.  0.
        -12    1    1    2    0    0  0.83509269609E+01  0.13149456609E+02  0.42266621534E+02  0.45045682214E+02  0.00000000000E+00 0.  1.
         11    1    3    3    0    0 -0.88972765656E+00 -0.65378052040E+01 -0.16570803330E+02  0.17836088009E+02  0.51100000000E-03 0. -1.
        -11    1    3    3    0    0 -0.49137659678E+01 -0.52323447359E+01 -0.97939590012E+01  0.12142658712E+02  0.51100000000E-03 0.  1.
         12    1    3    3    0    0 -0.25474333365E+01 -0.13793066688E+01 -0.15901859203E+02  0.16163571066E+02  0.00000000000E+00 0. -1.
</event>
<event>
 7    1  0.4194672E-008  0.4614232E+02  0.7816164E-02  0.1320468E+00
        -11   -1    0    0    0    0  0.00000000000E+00  0.00000000000E+00  0.45593999997E+02  0.45594000000E+02  0.51100000000E-03 0.  1.
         11   -1    0    0    0    0 -0.00000000000E+00 -0.00000000000E+00 -0.45593999997E+02  0.45594000000E+02  0.51100000000E-03 0. -1.
    9900012    2    1    2    0    0  0.19410687155E+02 -0.37830561901E+02 -0.14872370366E+02  0.46142316634E+02  0.99999897239E+01 0.  0.
        -12    1    1    2    0    0 -0.19410687155E+02  0.37830561901E+02  0.14872370366E+02  0.45045683366E+02  0.00000000000E+00 0.  1.
         11    1    3    3    0    0  0.16246273620E+02 -0.31114296048E+02 -0.13557055772E+02  0.37627577474E+02  0.51100000000E-03 0. -1.
        -11    1    3    3    0    0  0.35036387841E+01 -0.54354519109E+01 -0.23003083304E+01  0.68637483113E+01  0.51100000000E-03 0.  1.
        -12    1    3    3    0    0 -0.33922524917E+00 -0.12808139422E+01  0.98499373563E+00  0.16509908490E+01  0.00000000000E+00 0.  1.
</event>
<event>
 7    1  0.4194672E-008  0.4614232E+02  0.7816164E-02  0.1320468E+00
        -11   -1    0    0    0    0  0.00000000000E+00  0.00000000000E+00  0.45593999997E+02  0.45594000000E+02  0.51100000000E-03 0.  1.
         11   -1    0    0    0    0 -0.00000000000E+00 -0.00000000000E+00 -0.45593999997E+02  0.45594000000E+02  0.51100000000E-03 0. -1.
    9900012    2    1    2    0    0 -0.36579053496E+02 -0.25890931858E+02 -0.45547792210E+01  0.46142317400E+02  0.99999967043E+01 0.  0.
        -12    1    1    2    0    0  0.36579053496E+02  0.25890931858E+02  0.45547792210E+01  0.45045682600E+02  0.00000000000E+00 0.  1.
         11    1    3    3    0    0 -0.29887301373E+01 -0.23078448103E+01  0.14113069652E+01  0.40311838353E+01  0.51100000000E-03 0.  1.
        -11    1    3    3    0    0 -0.22942529815E+02 -0.12470644418E+02 -0.56528793688E+01  0.26717628861E+02  0.51100000000E-03 0. -1.
         12    1    3    3    0    0 -0.10647793544E+02 -0.11112442630E+02 -0.31320681743E+00  0.15393504704E+02  0.00000000000E+00 0. -1.
</event>
<event>
 7    1  0.4194672E-008  0.4614232E+02  0.7816164E-02  0.1320468E+00
        -11   -1    0    0    0    0  0.00000000000E+00  0.00000000000E+00  0.45593999997E+02  0.45594000000E+02  0.51100000000E-03 0. -1.
         11   -1    0    0    0    0 -0.00000000000E+00 -0.00000000000E+00 -0.45593999997E+02  0.45594000000E+02  0.51100000000E-03 0.  1.
    9900012    2    1    2    0    0  0.21716854400E+02  0.13546815851E+02  0.37067173017E+02  0.46142319850E+02  0.10000019047E+02 0.  0.
        -12    1    1    2    0    0 -0.21716854400E+02 -0.13546815851E+02 -0.37067173017E+02  0.45045680150E+02  0.00000000000E+00 0.  1.
         11    1    3    3    0    0  0.23874065645E+01  0.67585109092E+00  0.20896546310E+01  0.32439392009E+01  0.51100000000E-03 0. -1.
        -11    1    3    3    0    0  0.57721351214E+01  0.24825015911E+01  0.37834891505E+01  0.73345175998E+01  0.51100000000E-03 0.  1.
        -12    1    3    3    0    0  0.13557312714E+02  0.10388463169E+02  0.31194029236E+02  0.35563863049E+02  0.00000000000E+00 0.  1.
</event>
<event>
 7    1  0.4194672E-008  0.4614232E+02  0.7816164E-02  0.1320468E+00
        -11   -1    0    0    0    0  0.00000000000E+00  0.00000000000E+00  0.45593999997E+02  0.45594000000E+02  0.51100000000E-03 0.  1.
         11   -1    0    0    0    0 -0.00000000000E+00 -0.00000000000E+00 -0.45593999997E+02  0.45594000000E+02  0.51100000000E-03 0. -1.
    9900012    2    1    2    0    0 -0.14100618212E+02  0.12310182044E+02 -0.40972496300E+02  0.46142317976E+02  0.10000001962E+02 0.  0.
        -12    1    1    2    0    0  0.14100618212E+02 -0.12310182044E+02  0.40972496300E+02  0.45045682024E+02  0.00000000000E+00 0.  1.
         11    1    3    3    0    0 -0.55583554377E+01  0.76801619606E+01 -0.13251619830E+02  0.16293729815E+02  0.51100000000E-03 0. -1.
        -11    1    3    3    0    0 -0.32533099394E+01  0.30244234374E+01 -0.61856057867E+01  0.76153057654E+01  0.51100000000E-03 0.  1.
        -12    1    3    3    0    0 -0.52889528353E+01  0.16055966462E+01 -0.21535270683E+02  0.22233282396E+02  0.00000000000E+00 0.  1.
</event>
<event>
 7    1  0.4194672E-008  0.4614232E+02  0.7816164E-02  0.1320468E+00
        -11   -1    0    0    0    0  0.00000000000E+00  0.00000000000E+00  0.45593999997E+02  0.45594000000E+02  0.51100000000E-03 0.  1.
         11   -1    0    0    0    0 -0.00000000000E+00 -0.00000000000E+00 -0.45593999997E+02  0.45594000000E+02  0.51100000000E-03 0. -1.
    9900012    2    1    2    0    0 -0.54915323117E+00 -0.22772957872E+02 -0.38861346644E+02  0.46142318270E+02  0.10000004640E+02 0.  0.
        -12    1    1    2    0    0  0.54915323117E+00  0.22772957872E+02  0.38861346644E+02  0.45045681730E+02  0.00000000000E+00 0.  1.
         11    1    3    3    0    0 -0.99047520808E+00 -0.63057080644E+01 -0.12809595900E+02  0.14311839250E+02  0.51100000000E-03 0. -1.
        -11    1    3    3    0    0 -0.10721850058E+01 -0.11555432092E+02 -0.11254645595E+02  0.16166157220E+02  0.51100000000E-03 0.  1.
         12    1    3    3    0    0  0.15135069827E+01 -0.49118177153E+01 -0.14797105150E+02  0.15664321800E+02  0.00000000000E+00 0. -1.
</event>
<event>
 7    1  0.4194672E-008  0.4614232E+02  0.7816164E-02  0.1320468E+00
        -11   -1    0    0    0    0  0.00000000000E+00  0.00000000000E+00  0.45593999997E+02  0.45594000000E+02  0.51100000000E-03 0. -1.
         11   -1    0    0    0    0 -0.00000000000E+00 -0.00000000000E+00 -0.45593999997E+02  0.45594000000E+02  0.51100000000E-03 0.  1.
    9900012    2    1    2    0    0  0.35697135896E+02 -0.83222666987E+01  0.26183350712E+02  0.46142317758E+02  0.99999999697E+01 0.  0.
        -12    1    1    2    0    0 -0.35697135896E+02  0.83222666987E+01 -0.26183350712E+02  0.45045682242E+02  0.00000000000E+00 0.  1.
         11    1    3    3    0    0  0.11164464575E+02  0.60265730786E+00  0.50972725564E+01  0.12287825391E+02  0.51100000000E-03 0. -1.
        -11    1    3    3    0    0  0.91692675346E+01 -0.56711939662E+01  0.86728309050E+01  0.13836759169E+02  0.51100000000E-03 0.  1.
         12    1    3    3    0    0  0.15363403787E+02 -0.32537300403E+01  0.12413247250E+02  0.20017733198E+02  0.00000000000E+00 0. -1.
</event>
<event>
 7    1  0.4194672E-008  0.4614232E+02  0.7816164E-02  0.1320468E+00
        -11   -1    0    0    0    0  0.00000000000E+00  0.00000000000E+00  0.45593999997E+02  0.45594000000E+02  0.51100000000E-03 0.  1.
         11   -1    0    0    0    0 -0.00000000000E+00 -0.00000000000E+00 -0.45593999997E+02  0.45594000000E+02  0.51100000000E-03 0. -1.
    9900012    2    1    2    0    0  0.16007292195E+02 -0.84262794071E+01 -0.41253822921E+02  0.46142317702E+02  0.99999994637E+01 0.  0.
        -12    1    1    2    0    0 -0.16007292195E+02  0.84262794071E+01  0.41253822921E+02  0.45045682298E+02  0.00000000000E+00 0.  1.
         11    1    3    3    0    0  0.56206557655E+01  0.10286467844E+01 -0.15363591055E+02  0.16391760607E+02  0.51100000000E-03 0. -1.
        -11    1    3    3    0    0 -0.23845961937E-02 -0.10696158168E+01 -0.37202827723E+01  0.38709931347E+01  0.51100000000E-03 0.  1.
         12    1    3    3    0    0  0.10389021026E+02 -0.83853103748E+01 -0.22169949094E+02  0.25879563960E+02  0.00000000000E+00 0. -1.
</event>
<event>
 7    1  0.4194672E-008  0.4614232E+02  0.7816164E-02  0.1320468E+00
        -11   -1    0    0    0    0  0.00000000000E+00  0.00000000000E+00  0.45593999997E+02  0.45594000000E+02  0.51100000000E-03 0. -1.
         11   -1    0    0    0    0 -0.00000000000E+00 -0.00000000000E+00 -0.45593999997E+02  0.45594000000E+02  0.51100000000E-03 0.  1.
    9900012    2    1    2    0    0  0.37743684600E+02 -0.14984718462E+02 -0.19493233275E+02  0.46142315877E+02  0.99999828200E+01 0.  0.
        -12    1    1    2    0    0 -0.37743684600E+02  0.14984718462E+02  0.19493233275E+02  0.45045684123E+02  0.00000000000E+00 0.  1.
         11    1    3    3    0    0  0.12410901251E+02 -0.56941929660E+01 -0.10200398608E+02  0.17044131994E+02  0.51100000000E-03 0.  1.
        -11    1    3    3    0    0  0.10339727359E+02 -0.66860634796E+01 -0.49717555194E+01  0.13278996947E+02  0.51100000000E-03 0. -1.
        -12    1    3    3    0    0  0.14993055991E+02 -0.26044620164E+01 -0.43210791471E+01  0.15819186937E+02  0.00000000000E+00 0.  1.
</event>
<event>
 7    1  0.4194672E-008  0.4614232E+02  0.7816164E-02  0.1320468E+00
        -11   -1    0    0    0    0  0.00000000000E+00  0.00000000000E+00  0.45593999997E+02  0.45594000000E+02  0.51100000000E-03 0.  1.
         11   -1    0    0    0    0 -0.00000000000E+00 -0.00000000000E+00 -0.45593999997E+02  0.45594000000E+02  0.51100000000E-03 0. -1.
    9900012    2    1    2    0    0  0.21113712836E+02  0.16795349643E+02 -0.36072714913E+02  0.46142318736E+02  0.10000008893E+02 0.  0.
        -12    1    1    2    0    0 -0.21113712836E+02 -0.16795349643E+02  0.36072714913E+02  0.45045681264E+02  0.00000000000E+00 0.  1.
         11    1    3    3    0    0  0.83643744448E+00  0.28641230525E-01  0.28919087317E+00  0.88548265984E+00  0.51100000000E-03 0. -1.
        -11    1    3    3    0    0  0.33688437411E+01  0.43824367850E+01 -0.45401447102E+01  0.71531653537E+01  0.51100000000E-03 0.  1.
         12    1    3    3    0    0  0.16908431650E+02  0.12384271628E+02 -0.31821761076E+02  0.38103670723E+02  0.00000000000E+00 0. -1.
</event>
<event>
 7    1  0.4194672E-008  0.4614232E+02  0.7816164E-02  0.1320468E+00
        -11   -1    0    0    0    0  0.00000000000E+00  0.00000000000E+00  0.45593999997E+02  0.45594000000E+02  0.51100000000E-03 0.  1.
         11   -1    0    0    0    0 -0.00000000000E+00 -0.00000000000E+00 -0.45593999997E+02  0.45594000000E+02  0.51100000000E-03 0. -1.
    9900012    2    1    2    0    0  0.70446430548E+01 -0.33439364655E+02 -0.29347834653E+02  0.46142317598E+02  0.99999985092E+01 0.  0.
        -12    1    1    2    0    0 -0.70446430548E+01  0.33439364655E+02  0.29347834653E+02  0.45045682402E+02  0.00000000000E+00 0.  1.
         11    1    3    3    0    0  0.72381229532E+01 -0.20250502622E+02 -0.20614081335E+02  0.29789488581E+02  0.51100000000E-03 0. -1.
        -11    1    3    3    0    0  0.19187169700E+01 -0.65029978523E+01 -0.48626495736E+01  0.83436093517E+01  0.51100000000E-03 0.  1.
        -12    1    3    3    0    0 -0.21121968684E+01 -0.66858641804E+01 -0.38711037436E+01  0.80092196651E+01  0.00000000000E+00 0.  1.
</event>
<event>
 7    1  0.4194672E-008  0.4614232E+02  0.7816164E-02  0.1320468E+00
        -11   -1    0    0    0    0  0.00000000000E+00  0.00000000000E+00  0.45593999997E+02  0.45594000000E+02  0.51100000000E-03 0.  1.
         11   -1    0    0    0    0 -0.00000000000E+00 -0.00000000000E+00 -0.45593999997E+02  0.45594000000E+02  0.51100000000E-03 0. -1.
    9900012    2    1    2    0    0  0.19785586168E+02 -0.38012660537E+02  0.13880982847E+02  0.46142318011E+02  0.10000002276E+02 0.  0.
        -12    1    1    2    0    0 -0.19785586168E+02  0.38012660537E+02 -0.13880982847E+02  0.45045681989E+02  0.00000000000E+00 0.  1.
         11    1    3    3    0    0  0.34529936711E+01 -0.11838828865E+02  0.49393978949E+01  0.13284528069E+02  0.51100000000E-03 0. -1.
        -11    1    3    3    0    0  0.11371587671E+00  0.35369462317E+00 -0.23437912292E+00  0.43927784084E+00  0.51100000000E-03 0.  1.
         12    1    3    3    0    0  0.16218876620E+02 -0.26527526295E+02  0.91759640755E+01  0.32418512101E+02  0.00000000000E+00 0. -1.
</event>
<event>
 7    1  0.4194672E-008  0.4614232E+02  0.7816164E-02  0.1320468E+00
        -11   -1    0    0    0    0  0.00000000000E+00  0.00000000000E+00  0.45593999997E+02  0.45594000000E+02  0.51100000000E-03 0. -1.
         11   -1    0    0    0    0 -0.00000000000E+00 -0.00000000000E+00 -0.45593999997E+02  0.45594000000E+02  0.51100000000E-03 0.  1.
    9900012    2    1    2    0    0  0.35618375675E+02 -0.27139846583E+02  0.48860560425E+01  0.46142317611E+02  0.99999986274E+01 0.  0.
        -12    1    1    2    0    0 -0.35618375675E+02  0.27139846583E+02 -0.48860560425E+01  0.45045682389E+02  0.00000000000E+00 0.  1.
         11    1    3    3    0    0  0.10346612561E+02 -0.72992031179E+01  0.41140387696E+01  0.13313755026E+02  0.51100000000E-03 0.  1.
        -11    1    3    3    0    0  0.16061371794E+02 -0.16172414673E+02  0.17866784218E+01  0.22862783740E+02  0.51100000000E-03 0. -1.
         12    1    3    3    0    0  0.92103913198E+01 -0.36682287916E+01 -0.10146611489E+01  0.99657788446E+01  0.00000000000E+00 0. -1.
</event>
<event>
 7    1  0.4194672E-008  0.4614232E+02  0.7816164E-02  0.1320468E+00
        -11   -1    0    0    0    0  0.00000000000E+00  0.00000000000E+00  0.45593999997E+02  0.45594000000E+02  0.51100000000E-03 0.  1.
         11   -1    0    0    0    0 -0.00000000000E+00 -0.00000000000E+00 -0.45593999997E+02  0.45594000000E+02  0.51100000000E-03 0. -1.
    9900012    2    1    2    0    0 -0.18874641590E+02 -0.36533081786E+02 -0.18390089906E+02  0.46142316892E+02  0.99999920755E+01 0.  0.
        -12    1    1    2    0    0  0.18874641590E+02  0.36533081786E+02  0.18390089906E+02  0.45045683108E+02  0.00000000000E+00 0.  1.
         11    1    3    3    0    0 -0.59662746360E+01 -0.11982591430E+02 -0.33828670774E+01  0.13806618715E+02  0.51100000000E-03 0. -1.
        -11    1    3    3    0    0 -0.85740387408E+01 -0.89442464014E+01 -0.75032476922E+01  0.14484902837E+02  0.51100000000E-03 0.  1.
        -12    1    3    3    0    0 -0.43343282133E+01 -0.15606243954E+02 -0.75039751361E+01  0.17850795340E+02  0.00000000000E+00 0.  1.
</event>
<event>
 7    1  0.4194672E-008  0.4614232E+02  0.7816164E-02  0.1320468E+00
        -11   -1    0    0    0    0  0.00000000000E+00  0.00000000000E+00  0.45593999997E+02  0.45594000000E+02  0.51100000000E-03 0.  1.
         11   -1    0    0    0    0 -0.00000000000E+00 -0.00000000000E+00 -0.45593999997E+02  0.45594000000E+02  0.51100000000E-03 0. -1.
    9900012    2    1    2    0    0  0.89375167732E+01  0.61000838915E+01 -0.43726689918E+02  0.46142316070E+02  0.99999845771E+01 0.  0.
        -12    1    1    2    0    0 -0.89375167732E+01 -0.61000838915E+01  0.43726689918E+02  0.45045683930E+02  0.00000000000E+00 0.  1.
         11    1    3    3    0    0  0.36476637620E+01  0.11162307379E+01 -0.10659937988E+02  0.11321912389E+02  0.51100000000E-03 0.  1.
        -11    1    3    3    0    0 -0.15395140831E+01  0.32388200665E+01 -0.77282409046E+01  0.85197280929E+01  0.51100000000E-03 0. -1.
         12    1    3    3    0    0  0.68293670942E+01  0.17450330871E+01 -0.25338511026E+02  0.26300675588E+02  0.00000000000E+00 0. -1.
</event>
<event>
 7    1  0.4194672E-008  0.4614232E+02  0.7816164E-02  0.1320468E+00
        -11   -1    0    0    0    0  0.00000000000E+00  0.00000000000E+00  0.45593999997E+02  0.45594000000E+02  0.51100000000E-03 0.  1.
         11   -1    0    0    0    0 -0.00000000000E+00 -0.00000000000E+00 -0.45593999997E+02  0.45594000000E+02  0.51100000000E-03 0. -1.
    9900012    2    1    2    0    0  0.97874166710E+01  0.23929949249E+02 -0.36887363067E+02  0.46142317075E+02  0.99999937432E+01 0.  0.
        -12    1    1    2    0    0 -0.97874166710E+01 -0.23929949249E+02  0.36887363067E+02  0.45045682925E+02  0.00000000000E+00 0.  1.
         11    1    3    3    0    0  0.47562810423E+01  0.15818057170E+02 -0.17576835741E+02  0.24120080782E+02  0.51100000000E-03 0. -1.
        -11    1    3    3    0    0  0.15803594002E+00  0.15443739502E+01 -0.74855812311E+01  0.76448670940E+01  0.51100000000E-03 0.  1.
         12    1    3    3    0    0  0.48730996886E+01  0.65675181287E+01 -0.11824946094E+02  0.14377369199E+02  0.00000000000E+00 0. -1.
</event>
<event>
 7    1  0.4194672E-008  0.4614232E+02  0.7816164E-02  0.1320468E+00
        -11   -1    0    0    0    0  0.00000000000E+00  0.00000000000E+00  0.45593999997E+02  0.45594000000E+02  0.51100000000E-03 0. -1.
         11   -1    0    0    0    0 -0.00000000000E+00 -0.00000000000E+00 -0.45593999997E+02  0.45594000000E+02  0.51100000000E-03 0.  1.
    9900012    2    1    2    0    0  0.38511414617E+02 -0.23055703431E+02  0.37972331205E+01  0.46142317678E+02  0.99999992445E+01 0.  0.
        -12    1    1    2    0    0 -0.38511414617E+02  0.23055703431E+02 -0.37972331205E+01  0.45045682322E+02  0.00000000000E+00 0.  1.
         11    1    3    3    0    0  0.30961989678E+02 -0.15312997166E+02 -0.20487574905E+00  0.34542360391E+02  0.51100000000E-03 0. -1.
        -11    1    3    3    0    0  0.45010641698E+01 -0.40523201090E+01  0.17123927348E+01  0.62938991147E+01  0.51100000000E-03 0.  1.
         12    1    3    3    0    0  0.30483607685E+01 -0.36903861558E+01  0.22897161347E+01  0.53060581727E+01  0.00000000000E+00 0. -1.
</event>
<event>
 7    1  0.4194672E-008  0.4614232E+02  0.7816164E-02  0.1320468E+00
        -11   -1    0    0    0    0  0.00000000000E+00  0.00000000000E+00  0.45593999997E+02  0.45594000000E+02  0.51100000000E-03 0.  1.
         11   -1    0    0    0    0 -0.00000000000E+00 -0.00000000000E+00 -0.45593999997E+02  0.45594000000E+02  0.51100000000E-03 0. -1.
    9900012    2    1    2    0    0  0.15009693192E+02 -0.45950588425E+01 -0.42222124945E+02  0.46142319959E+02  0.10000020039E+02 0.  0.
        -12    1    1    2    0    0 -0.15009693192E+02  0.45950588425E+01  0.42222124945E+02  0.45045680041E+02  0.00000000000E+00 0.  1.
         11    1    3    3    0    0  0.52247213981E+01 -0.10865075010E+01 -0.18341677114E+02  0.19102233688E+02  0.51100000000E-03 0. -1.
        -11    1    3    3    0    0  0.98889930793E+01 -0.82133734506E+00 -0.19892636603E+02  0.22230244498E+02  0.51100000000E-03 0.  1.
        -12    1    3    3    0    0 -0.10402128533E+00 -0.26872139965E+01 -0.39878112279E+01  0.48098417729E+01  0.00000000000E+00 0.  1.
</event>
<event>
 7    1  0.4194672E-008  0.4614232E+02  0.7816164E-02  0.1320468E+00
        -11   -1    0    0    0    0  0.00000000000E+00  0.00000000000E+00  0.45593999997E+02  0.45594000000E+02  0.51100000000E-03 0.  1.
         11   -1    0    0    0    0 -0.00000000000E+00 -0.00000000000E+00 -0.45593999997E+02  0.45594000000E+02  0.51100000000E-03 0. -1.
    9900012    2    1    2    0    0  0.17444262767E+02  0.30871533374E+02 -0.27780563411E+02  0.46142316746E+02  0.99999907474E+01 0.  0.
        -12    1    1    2    0    0 -0.17444262767E+02 -0.30871533374E+02  0.27780563411E+02  0.45045683254E+02  0.00000000000E+00 0.  1.
         11    1    3    3    0    0  0.86154229795E+00  0.94720897846E+01 -0.62832205035E+01  0.11399192962E+02  0.51100000000E-03 0. -1.
        -11    1    3    3    0    0  0.52522870698E+01  0.43815906601E+01 -0.50038677619E+01  0.84748775222E+01  0.51100000000E-03 0.  1.
        -12    1    3    3    0    0  0.11330433399E+02  0.17017852930E+02 -0.16493475145E+02  0.26268246263E+02  0.00000000000E+00 0.  1.
</event>
<event>
 7    1  0.4194672E-008  0.4614232E+02  0.7816164E-02  0.1320468E+00
        -11   -1    0    0    0    0  0.00000000000E+00  0.00000000000E+00  0.45593999997E+02  0.45594000000E+02  0.51100000000E-03 0.  1.
         11   -1    0    0    0    0 -0.00000000000E+00 -0.00000000000E+00 -0.45593999997E+02  0.45594000000E+02  0.51100000000E-03 0. -1.
    9900012    2    1    2    0    0 -0.13481065366E+02 -0.26534560534E+02 -0.33812593135E+02  0.46142317847E+02  0.10000000786E+02 0.  0.
        -12    1    1    2    0    0  0.13481065366E+02  0.26534560534E+02  0.33812593135E+02  0.45045682153E+02  0.00000000000E+00 0.  1.
         11    1    3    3    0    0 -0.45748112358E+01 -0.10068446005E+02 -0.11902203859E+02  0.16246998485E+02  0.51100000000E-03 0. -1.
        -11    1    3    3    0    0 -0.31795899748E+00 -0.83137342597E+01 -0.11015514432E+02  0.13804377340E+02  0.51100000000E-03 0.  1.
        -12    1    3    3    0    0 -0.85882951328E+01 -0.81523802689E+01 -0.10894874844E+02  0.16090942023E+02  0.00000000000E+00 0.  1.
</event>
<event>
 7    1  0.4194672E-008  0.4614232E+02  0.7816164E-02  0.1320468E+00
        -11   -1    0    0    0    0  0.00000000000E+00  0.00000000000E+00  0.45593999997E+02  0.45594000000E+02  0.51100000000E-03 0.  1.
         11   -1    0    0    0    0 -0.00000000000E+00 -0.00000000000E+00 -0.45593999997E+02  0.45594000000E+02  0.51100000000E-03 0. -1.
    9900012    2    1    2    0    0  0.43162548272E+02 -0.78321248346E+01 -0.10235519110E+02  0.46142316475E+02  0.99999882699E+01 0.  0.
        -12    1    1    2    0    0 -0.43162548272E+02  0.78321248346E+01  0.10235519110E+02  0.45045683525E+02  0.00000000000E+00 0.  1.
         11    1    3    3    0    0  0.92935139643E+01 -0.30436876784E+01 -0.24201444847E+01  0.10074251142E+02  0.51100000000E-03 0. -1.
        -11    1    3    3    0    0  0.17687811833E+02 -0.37381216403E+01 -0.81930734296E+01  0.19848392714E+02  0.51100000000E-03 0.  1.
        -12    1    3    3    0    0  0.16181222475E+02 -0.10503155159E+01  0.37769880388E+00  0.16219672619E+02  0.00000000000E+00 0.  1.
</event>
<event>
 7    1  0.4194672E-008  0.4614232E+02  0.7816164E-02  0.1320468E+00
        -11   -1    0    0    0    0  0.00000000000E+00  0.00000000000E+00  0.45593999997E+02  0.45594000000E+02  0.51100000000E-03 0.  1.
         11   -1    0    0    0    0 -0.00000000000E+00 -0.00000000000E+00 -0.45593999997E+02  0.45594000000E+02  0.51100000000E-03 0. -1.
    9900012    2    1    2    0    0  0.14269636197E+02  0.36454690427E+02 -0.22283326027E+02  0.46142316631E+02  0.99999896928E+01 0.  0.
        -12    1    1    2    0    0 -0.14269636197E+02 -0.36454690427E+02  0.22283326027E+02  0.45045683369E+02  0.00000000000E+00 0.  1.
         11    1    3    3    0    0  0.15243088868E+01  0.91117788820E+01 -0.53495195773E+01  0.10675457458E+02  0.51100000000E-03 0. -1.
        -11    1    3    3    0    0  0.12214349926E+02  0.20279652725E+02 -0.10500336132E+02  0.25898102593E+02  0.51100000000E-03 0.  1.
         12    1    3    3    0    0  0.53097738425E+00  0.70632588204E+01 -0.64334703175E+01  0.95687565793E+01  0.00000000000E+00 0. -1.
</event>
<event>
 7    1  0.4194672E-008  0.4614232E+02  0.7816164E-02  0.1320468E+00
        -11   -1    0    0    0    0  0.00000000000E+00  0.00000000000E+00  0.45593999997E+02  0.45594000000E+02  0.51100000000E-03 0. -1.
         11   -1    0    0    0    0 -0.00000000000E+00 -0.00000000000E+00 -0.45593999997E+02  0.45594000000E+02  0.51100000000E-03 0.  1.
    9900012    2    1    2    0    0  0.17278735333E+02 -0.21434134886E+02  0.35653001466E+02  0.46142319336E+02  0.10000014358E+02 0.  0.
        -12    1    1    2    0    0 -0.17278735333E+02  0.21434134886E+02 -0.35653001466E+02  0.45045680664E+02  0.00000000000E+00 0.  1.
         11    1    3    3    0    0  0.29900226344E+01 -0.20273698573E+01  0.39222743201E+01  0.53324197130E+01  0.51100000000E-03 0. -1.
        -11    1    3    3    0    0  0.70332886702E+01 -0.31184684158E+01  0.76865422538E+01  0.10875427663E+02  0.51100000000E-03 0.  1.
        -12    1    3    3    0    0  0.72554240280E+01 -0.16288296613E+02  0.24044184892E+02  0.29934471959E+02  0.00000000000E+00 0.  1.
</event>
<event>
 7    1  0.4194672E-008  0.4614232E+02  0.7816164E-02  0.1320468E+00
        -11   -1    0    0    0    0  0.00000000000E+00  0.00000000000E+00  0.45593999997E+02  0.45594000000E+02  0.51100000000E-03 0.  1.
         11   -1    0    0    0    0 -0.00000000000E+00 -0.00000000000E+00 -0.45593999997E+02  0.45594000000E+02  0.51100000000E-03 0. -1.
    9900012    2    1    2    0    0  0.44225385115E+02 -0.38075177563E+01 -0.76636582474E+01  0.46142317212E+02  0.99999949962E+01 0.  0.
        -12    1    1    2    0    0 -0.44225385115E+02  0.38075177563E+01  0.76636582474E+01  0.45045682788E+02  0.00000000000E+00 0.  1.
         11    1    3    3    0    0  0.37271642731E+02 -0.46952160934E+01 -0.57016678045E+01  0.37996439597E+02  0.51100000000E-03 0. -1.
        -11    1    3    3    0    0  0.13157319537E+01 -0.66023614506E+00  0.80467979038E+00  0.16776686703E+01  0.51100000000E-03 0.  1.
        -12    1    3    3    0    0  0.56380104306E+01  0.15479344822E+01 -0.27666702333E+01  0.64682089450E+01  0.00000000000E+00 0.  1.
</event>
<event>
 7    1  0.4194672E-008  0.4614232E+02  0.7816164E-02  0.1320468E+00
        -11   -1    0    0    0    0  0.00000000000E+00  0.00000000000E+00  0.45593999997E+02  0.45594000000E+02  0.51100000000E-03 0. -1.
         11   -1    0    0    0    0 -0.00000000000E+00 -0.00000000000E+00 -0.45593999997E+02  0.45594000000E+02  0.51100000000E-03 0.  1.
    9900012    2    1    2    0    0 -0.86475757227E+01 -0.19890816856E+02  0.39480227410E+02  0.46142317439E+02  0.99999970583E+01 0.  0.
        -12    1    1    2    0    0  0.86475757227E+01  0.19890816856E+02 -0.39480227410E+02  0.45045682561E+02  0.00000000000E+00 0.  1.
         11    1    3    3    0    0 -0.41992036369E+01 -0.31580889929E+01  0.12676050880E+02  0.13721847668E+02  0.51100000000E-03 0. -1.
        -11    1    3    3    0    0  0.60213985227E+00  0.28990209075E-01  0.34587290059E+00  0.69501162465E+00  0.51100000000E-03 0.  1.
         12    1    3    3    0    0 -0.50505119380E+01 -0.16761718072E+02  0.26458303630E+02  0.31725458145E+02  0.00000000000E+00 0. -1.
</event>
<event>
 7    1  0.4194672E-008  0.4614232E+02  0.7816164E-02  0.1320468E+00
        -11   -1    0    0    0    0  0.00000000000E+00  0.00000000000E+00  0.45593999997E+02  0.45594000000E+02  0.51100000000E-03 0. -1.
         11   -1    0    0    0    0 -0.00000000000E+00 -0.00000000000E+00 -0.45593999997E+02  0.45594000000E+02  0.51100000000E-03 0.  1.
    9900012    2    1    2    0    0 -0.48729904074E+01  0.40528651973E+02  0.19047184912E+02  0.46142324077E+02  0.10000057595E+02 0.  0.
        -12    1    1    2    0    0  0.48729904074E+01 -0.40528651973E+02 -0.19047184912E+02  0.45045675923E+02  0.00000000000E+00 0.  1.
         11    1    3    3    0    0 -0.11164139250E+01  0.13456201291E+02  0.81265632559E+01  0.15759338941E+02  0.51100000000E-03 0. -1.
        -11    1    3    3    0    0 -0.51703470131E+01  0.25819361562E+02  0.94055751949E+01  0.27961344115E+02  0.51100000000E-03 0.  1.
        -12    1    3    3    0    0  0.14137705307E+01  0.12530891196E+01  0.15150464617E+01  0.24216410213E+01  0.00000000000E+00 0.  1.
</event>
<event>
 7    1  0.4194672E-008  0.4614232E+02  0.7816164E-02  0.1320468E+00
        -11   -1    0    0    0    0  0.00000000000E+00  0.00000000000E+00  0.45593999997E+02  0.45594000000E+02  0.51100000000E-03 0.  1.
         11   -1    0    0    0    0 -0.00000000000E+00 -0.00000000000E+00 -0.45593999997E+02  0.45594000000E+02  0.51100000000E-03 0. -1.
    9900012    2    1    2    0    0 -0.43977946972E+02 -0.33902237147E+01 -0.91411184600E+01  0.46142317816E+02  0.10000000501E+02 0.  0.
        -12    1    1    2    0    0  0.43977946972E+02  0.33902237147E+01  0.91411184600E+01  0.45045682184E+02  0.00000000000E+00 0.  1.
         11    1    3    3    0    0 -0.25531030816E+01  0.10459898932E+01 -0.91835987902E+00  0.29078884660E+01  0.51100000000E-03 0.  1.
        -11    1    3    3    0    0 -0.17505756511E+01  0.14780569209E+01 -0.17638573940E-01  0.22911740991E+01  0.51100000000E-03 0. -1.
         12    1    3    3    0    0 -0.39674268239E+02 -0.59142705289E+01 -0.82051200071E+01  0.40943255251E+02  0.00000000000E+00 0. -1.
</event>
<event>
 7    1  0.4194672E-008  0.4614232E+02  0.7816164E-02  0.1320468E+00
        -11   -1    0    0    0    0  0.00000000000E+00  0.00000000000E+00  0.45593999997E+02  0.45594000000E+02  0.51100000000E-03 0.  1.
         11   -1    0    0    0    0 -0.00000000000E+00 -0.00000000000E+00 -0.45593999997E+02  0.45594000000E+02  0.51100000000E-03 0. -1.
    9900012    2    1    2    0    0 -0.25090941252E+02 -0.14753172264E+02 -0.34378802426E+02  0.46142317843E+02  0.10000000742E+02 0.  0.
        -12    1    1    2    0    0  0.25090941252E+02  0.14753172264E+02  0.34378802426E+02  0.45045682157E+02  0.00000000000E+00 0.  1.
         11    1    3    3    0    0 -0.18724332102E+02 -0.10305218339E+02 -0.21887513543E+02  0.30591851644E+02  0.51100000000E-03 0. -1.
        -11    1    3    3    0    0 -0.47770268021E+01 -0.38426148143E+01 -0.51260659619E+01  0.79913844974E+01  0.51100000000E-03 0.  1.
        -12    1    3    3    0    0 -0.15895823489E+01 -0.60533911041E+00 -0.73652229211E+01  0.75590817008E+01  0.00000000000E+00 0.  1.
</event>
<event>
 7    1  0.4194672E-008  0.4614232E+02  0.7816164E-02  0.1320468E+00
        -11   -1    0    0    0    0  0.00000000000E+00  0.00000000000E+00  0.45593999997E+02  0.45594000000E+02  0.51100000000E-03 0.  1.
         11   -1    0    0    0    0 -0.00000000000E+00 -0.00000000000E+00 -0.45593999997E+02  0.45594000000E+02  0.51100000000E-03 0. -1.
    9900012    2    1    2    0    0  0.21480590736E+02  0.36845156416E+02 -0.14495931403E+02  0.46142319220E+02  0.10000013302E+02 0.  0.
        -12    1    1    2    0    0 -0.21480590736E+02 -0.36845156416E+02  0.14495931403E+02  0.45045680780E+02  0.00000000000E+00 0.  1.
         11    1    3    3    0    0  0.12640022551E+02  0.18633808907E+02 -0.85339133074E+01  0.24079382905E+02  0.51100000000E-03 0. -1.
        -11    1    3    3    0    0  0.87387170338E+00  0.58843410616E+01  0.61266919471E+00  0.59803415694E+01  0.51100000000E-03 0.  1.
        -12    1    3    3    0    0  0.79666964817E+01  0.12327006447E+02 -0.65746872905E+01  0.16082594746E+02  0.00000000000E+00 0.  1.
</event>
<event>
 7    1  0.4194672E-008  0.4614232E+02  0.7816164E-02  0.1320468E+00
        -11   -1    0    0    0    0  0.00000000000E+00  0.00000000000E+00  0.45593999997E+02  0.45594000000E+02  0.51100000000E-03 0.  1.
         11   -1    0    0    0    0 -0.00000000000E+00 -0.00000000000E+00 -0.45593999997E+02  0.45594000000E+02  0.51100000000E-03 0. -1.
    9900012    2    1    2    0    0 -0.16006933824E+02  0.37636200445E+02 -0.18878769592E+02  0.46142318123E+02  0.10000003303E+02 0.  0.
        -12    1    1    2    0    0  0.16006933824E+02 -0.37636200445E+02  0.18878769592E+02  0.45045681877E+02  0.00000000000E+00 0.  1.
         11    1    3    3    0    0 -0.12277033527E+02  0.18292710001E+02 -0.10882382677E+02  0.24571834372E+02  0.51100000000E-03 0.  1.
        -11    1    3    3    0    0  0.46253168208E+00  0.64636397305E+01 -0.28809219826E+01  0.70917054263E+01  0.51100000000E-03 0. -1.
        -12    1    3    3    0    0 -0.41924319795E+01  0.12879850714E+02 -0.51154649325E+01  0.14478778325E+02  0.00000000000E+00 0.  1.
</event>
<event>
 7    1  0.4194672E-008  0.4614232E+02  0.7816164E-02  0.1320468E+00
        -11   -1    0    0    0    0  0.00000000000E+00  0.00000000000E+00  0.45593999997E+02  0.45594000000E+02  0.51100000000E-03 0. -1.
         11   -1    0    0    0    0 -0.00000000000E+00 -0.00000000000E+00 -0.45593999997E+02  0.45594000000E+02  0.51100000000E-03 0.  1.
    9900012    2    1    2    0    0 -0.37224440651E+02  0.23337308495E+02  0.99410487923E+01  0.46142318735E+02  0.10000008878E+02 0.  0.
        -12    1    1    2    0    0  0.37224440651E+02 -0.23337308495E+02 -0.99410487923E+01  0.45045681265E+02  0.00000000000E+00 0.  1.
         11    1    3    3    0    0 -0.12192076342E+02  0.53059373870E+01  0.29514663865E+01  0.13620236826E+02  0.51100000000E-03 0. -1.
        -11    1    3    3    0    0 -0.60769716554E+01  0.67080346296E+01  0.50305683527E+01  0.10355381756E+02  0.51100000000E-03 0.  1.
        -12    1    3    3    0    0 -0.18955392653E+02  0.11323336479E+02  0.19590140532E+01  0.22166700154E+02  0.00000000000E+00 0.  1.
</event>
<event>
 7    1  0.4194672E-008  0.4614232E+02  0.7816164E-02  0.1320468E+00
        -11   -1    0    0    0    0  0.00000000000E+00  0.00000000000E+00  0.45593999997E+02  0.45594000000E+02  0.51100000000E-03 0.  1.
         11   -1    0    0    0    0 -0.00000000000E+00 -0.00000000000E+00 -0.45593999997E+02  0.45594000000E+02  0.51100000000E-03 0. -1.
    9900012    2    1    2    0    0  0.10515929797E+02  0.31740647619E+02 -0.30183770617E+02  0.46142317638E+02  0.99999988793E+01 0.  0.
        -12    1    1    2    0    0 -0.10515929797E+02 -0.31740647619E+02  0.30183770617E+02  0.45045682362E+02  0.00000000000E+00 0.  1.
         11    1    3    3    0    0  0.25342801106E+01  0.14302380586E+02 -0.12370985462E+02  0.19079359205E+02  0.51100000000E-03 0. -1.
        -11    1    3    3    0    0  0.54018635883E+01  0.94215776600E+01 -0.14255074714E+02  0.17920753645E+02  0.51100000000E-03 0.  1.
        -12    1    3    3    0    0  0.25797860984E+01  0.80166893725E+01 -0.35577104410E+01  0.91422047883E+01  0.00000000000E+00 0.  1.
</event>
<event>
 7    1  0.4194672E-008  0.4614232E+02  0.7816164E-02  0.1320468E+00
        -11   -1    0    0    0    0  0.00000000000E+00  0.00000000000E+00  0.45593999997E+02  0.45594000000E+02  0.51100000000E-03 0.  1.
         11   -1    0    0    0    0 -0.00000000000E+00 -0.00000000000E+00 -0.45593999997E+02  0.45594000000E+02  0.51100000000E-03 0. -1.
    9900012    2    1    2    0    0 -0.97433970421E+01  0.12901501034E+02 -0.42044390760E+02  0.46142319750E+02  0.10000018132E+02 0.  0.
        -12    1    1    2    0    0  0.97433970421E+01 -0.12901501034E+02  0.42044390760E+02  0.45045680250E+02  0.00000000000E+00 0.  1.
         11    1    3    3    0    0 -0.22455690447E+01  0.47119216593E+01 -0.12581742214E+02  0.13621491235E+02  0.51100000000E-03 0. -1.
        -11    1    3    3    0    0 -0.38268360561E+00  0.32876121450E+01 -0.23353684104E+01  0.40507760036E+01  0.51100000000E-03 0.  1.
        -12    1    3    3    0    0 -0.71151443918E+01  0.49019672297E+01 -0.27127280136E+02  0.28470052511E+02  0.00000000000E+00 0.  1.
</event>
<event>
 7    1  0.4194672E-008  0.4614232E+02  0.7816164E-02  0.1320468E+00
        -11   -1    0    0    0    0  0.00000000000E+00  0.00000000000E+00  0.45593999997E+02  0.45594000000E+02  0.51100000000E-03 0.  1.
         11   -1    0    0    0    0 -0.00000000000E+00 -0.00000000000E+00 -0.45593999997E+02  0.45594000000E+02  0.51100000000E-03 0. -1.
    9900012    2    1    2    0    0 -0.45939070174E+01  0.33126987360E+02 -0.30176350678E+02  0.46142318592E+02  0.10000007579E+02 0.  0.
        -12    1    1    2    0    0  0.45939070174E+01 -0.33126987360E+02  0.30176350678E+02  0.45045681408E+02  0.00000000000E+00 0.  1.
         11    1    3    3    0    0 -0.32488675489E+01  0.11583740039E+02 -0.59929780664E+01  0.13440757420E+02  0.51100000000E-03 0. -1.
        -11    1    3    3    0    0 -0.14445752988E+00  0.13605951257E+02 -0.12183747970E+02  0.18264350315E+02  0.51100000000E-03 0.  1.
        -12    1    3    3    0    0 -0.12005819387E+01  0.79372960641E+01 -0.11999624642E+02  0.14437210857E+02  0.00000000000E+00 0.  1.
</event>
<event>
 7    1  0.4194672E-008  0.4614232E+02  0.7816164E-02  0.1320468E+00
        -11   -1    0    0    0    0  0.00000000000E+00  0.00000000000E+00  0.45593999997E+02  0.45594000000E+02  0.51100000000E-03 0.  1.
         11   -1    0    0    0    0 -0.00000000000E+00 -0.00000000000E+00 -0.45593999997E+02  0.45594000000E+02  0.51100000000E-03 0. -1.
    9900012    2    1    2    0    0  0.11287139947E+02 -0.21135215622E+01 -0.43557398880E+02  0.46142317646E+02  0.99999989489E+01 0.  0.
        -12    1    1    2    0    0 -0.11287139947E+02  0.21135215622E+01  0.43557398880E+02  0.45045682354E+02  0.00000000000E+00 0.  1.
         11    1    3    3    0    0  0.52311582423E+01 -0.15324286484E+01 -0.28290052639E+02  0.28810422293E+02  0.51100000000E-03 0. -1.
        -11    1    3    3    0    0  0.68086727403E+01  0.54581931524E+00 -0.13146179932E+02  0.14814789580E+02  0.51100000000E-03 0.  1.
        -12    1    3    3    0    0 -0.75269103543E+00 -0.11269122290E+01 -0.21211663083E+01  0.25171057733E+01  0.00000000000E+00 0.  1.
</event>
<event>
 7    1  0.4194672E-008  0.4614232E+02  0.7816164E-02  0.1320468E+00
        -11   -1    0    0    0    0  0.00000000000E+00  0.00000000000E+00  0.45593999997E+02  0.45594000000E+02  0.51100000000E-03 0.  1.
         11   -1    0    0    0    0 -0.00000000000E+00 -0.00000000000E+00 -0.45593999997E+02  0.45594000000E+02  0.51100000000E-03 0. -1.
    9900012    2    1    2    0    0 -0.22398392788E+02  0.34603340040E+02 -0.18166840434E+02  0.46142320598E+02  0.10000025871E+02 0.  0.
        -12    1    1    2    0    0  0.22398392788E+02 -0.34603340040E+02  0.18166840434E+02  0.45045679402E+02  0.00000000000E+00 0.  1.
         11    1    3    3    0    0 -0.11869390067E+02  0.10389548031E+02 -0.52189884179E+01  0.16615142769E+02  0.51100000000E-03 0. -1.
        -11    1    3    3    0    0 -0.43116187123E+01  0.10411673986E+02 -0.40910839813E+01  0.11988743867E+02  0.51100000000E-03 0.  1.
         12    1    3    3    0    0 -0.62173840084E+01  0.13802118023E+02 -0.88567680347E+01  0.17538433963E+02  0.00000000000E+00 0. -1.
</event>
<event>
 7    1  0.4194672E-008  0.4614232E+02  0.7816164E-02  0.1320468E+00
        -11   -1    0    0    0    0  0.00000000000E+00  0.00000000000E+00  0.45593999997E+02  0.45594000000E+02  0.51100000000E-03 0.  1.
         11   -1    0    0    0    0 -0.00000000000E+00 -0.00000000000E+00 -0.45593999997E+02  0.45594000000E+02  0.51100000000E-03 0. -1.
    9900012    2    1    2    0    0 -0.11915728629E+02  0.24695205236E+02 -0.35738994783E+02  0.46142317649E+02  0.99999989747E+01 0.  0.
        -12    1    1    2    0    0  0.11915728629E+02 -0.24695205236E+02  0.35738994783E+02  0.45045682351E+02  0.00000000000E+00 0.  1.
         11    1    3    3    0    0 -0.34672056661E+01  0.14551770900E+02 -0.16593836351E+02  0.22341238922E+02  0.51100000000E-03 0. -1.
        -11    1    3    3    0    0 -0.13647960355E+01  0.43904687254E+01 -0.38793250958E+01  0.60156501982E+01  0.51100000000E-03 0.  1.
        -12    1    3    3    0    0 -0.70837269273E+01  0.57529656100E+01 -0.15265833336E+02  0.17785428528E+02  0.00000000000E+00 0.  1.
</event>
<event>
 7    1  0.4194672E-008  0.4614232E+02  0.7816164E-02  0.1320468E+00
        -11   -1    0    0    0    0  0.00000000000E+00  0.00000000000E+00  0.45593999997E+02  0.45594000000E+02  0.51100000000E-03 0.  1.
         11   -1    0    0    0    0 -0.00000000000E+00 -0.00000000000E+00 -0.45593999997E+02  0.45594000000E+02  0.51100000000E-03 0. -1.
    9900012    2    1    2    0    0  0.15974170347E+02  0.13447690881E+01 -0.42096686911E+02  0.46142316844E+02  0.99999916353E+01 0.  0.
        -12    1    1    2    0    0 -0.15974170347E+02 -0.13447690881E+01  0.42096686911E+02  0.45045683156E+02  0.00000000000E+00 0.  1.
         11    1    3    3    0    0  0.81496095298E+01  0.72835843288E+00 -0.22136990617E+02  0.23600699044E+02  0.51100000000E-03 0. -1.
        -11    1    3    3    0    0  0.65025746580E+01 -0.25347376920E+01 -0.14647655155E+02  0.16225355902E+02  0.51100000000E-03 0.  1.
        -12    1    3    3    0    0  0.13219861587E+01  0.31511483472E+01 -0.53120411384E+01  0.63162618982E+01  0.00000000000E+00 0.  1.
</event>
<event>
 7    1  0.4194672E-008  0.4614232E+02  0.7816164E-02  0.1320468E+00
        -11   -1    0    0    0    0  0.00000000000E+00  0.00000000000E+00  0.45593999997E+02  0.45594000000E+02  0.51100000000E-03 0.  1.
         11   -1    0    0    0    0 -0.00000000000E+00 -0.00000000000E+00 -0.45593999997E+02  0.45594000000E+02  0.51100000000E-03 0. -1.
    9900012    2    1    2    0    0 -0.68892174986E+01 -0.12062363203E+02 -0.42850338965E+02  0.46142317929E+02  0.10000001531E+02 0.  0.
        -12    1    1    2    0    0  0.68892174986E+01  0.12062363203E+02  0.42850338965E+02  0.45045682071E+02  0.00000000000E+00 0.  1.
         11    1    3    3    0    0 -0.22455393216E+01 -0.84255838026E+01 -0.15418996529E+02  0.17713790207E+02  0.51100000000E-03 0. -1.
        -11    1    3    3    0    0  0.33177572005E+00  0.70978949119E+00 -0.18766547356E+01  0.20336443908E+01  0.51100000000E-03 0.  1.
         12    1    3    3    0    0 -0.49754538970E+01 -0.43465688920E+01 -0.25554687701E+02  0.26394883332E+02  0.00000000000E+00 0. -1.
</event>
<event>
 7    1  0.4194672E-008  0.4614232E+02  0.7816164E-02  0.1320468E+00
        -11   -1    0    0    0    0  0.00000000000E+00  0.00000000000E+00  0.45593999997E+02  0.45594000000E+02  0.51100000000E-03 0.  1.
         11   -1    0    0    0    0 -0.00000000000E+00 -0.00000000000E+00 -0.45593999997E+02  0.45594000000E+02  0.51100000000E-03 0. -1.
    9900012    2    1    2    0    0 -0.14838054665E+02  0.11243064306E+02 -0.41018765838E+02  0.46142317497E+02  0.99999975951E+01 0.  0.
        -12    1    1    2    0    0  0.14838054665E+02 -0.11243064306E+02  0.41018765838E+02  0.45045682503E+02  0.00000000000E+00 0.  1.
         11    1    3    3    0    0 -0.46702702129E+01  0.45193046301E+01 -0.15968220689E+02  0.17240058307E+02  0.51100000000E-03 0. -1.
        -11    1    3    3    0    0 -0.88713893847E+01  0.76180149547E+01 -0.24641269331E+02  0.27275040898E+02  0.51100000000E-03 0.  1.
        -12    1    3    3    0    0 -0.12963950676E+01 -0.89425527892E+00 -0.40927581775E+00  0.16272182921E+01  0.00000000000E+00 0.  1.
</event>
<event>
 7    1  0.4194672E-008  0.4614232E+02  0.7816164E-02  0.1320468E+00
        -11   -1    0    0    0    0  0.00000000000E+00  0.00000000000E+00  0.45593999997E+02  0.45594000000E+02  0.51100000000E-03 0. -1.
         11   -1    0    0    0    0 -0.00000000000E+00 -0.00000000000E+00 -0.45593999997E+02  0.45594000000E+02  0.51100000000E-03 0.  1.
    9900012    2    1    2    0    0 -0.19740869233E+02  0.81040742373E+01  0.39670331148E+02  0.46142321953E+02  0.10000038226E+02 0.  0.
        -12    1    1    2    0    0  0.19740869233E+02 -0.81040742373E+01 -0.39670331148E+02  0.45045678047E+02  0.00000000000E+00 0.  1.
         11    1    3    3    0    0 -0.65020982303E+01  0.38917669873E+01  0.19085977673E+02  0.20535278807E+02  0.51100000000E-03 0. -1.
        -11    1    3    3    0    0 -0.41436501942E+01 -0.88568826182E+00  0.31010156599E+01  0.52507693734E+01  0.51100000000E-03 0.  1.
         12    1    3    3    0    0 -0.90951208088E+01  0.50979955118E+01  0.17483337814E+02  0.20356273772E+02  0.00000000000E+00 0. -1.
</event>
<event>
 7    1  0.4194672E-008  0.4614232E+02  0.7816164E-02  0.1320468E+00
        -11   -1    0    0    0    0  0.00000000000E+00  0.00000000000E+00  0.45593999997E+02  0.45594000000E+02  0.51100000000E-03 0.  1.
         11   -1    0    0    0    0 -0.00000000000E+00 -0.00000000000E+00 -0.45593999997E+02  0.45594000000E+02  0.51100000000E-03 0. -1.
    9900012    2    1    2    0    0 -0.33211604341E+02 -0.27283867249E+02 -0.13479368815E+02  0.46142318091E+02  0.10000003013E+02 0.  0.
        -12    1    1    2    0    0  0.33211604341E+02  0.27283867249E+02  0.13479368815E+02  0.45045681909E+02  0.00000000000E+00 0.  1.
         11    1    3    3    0    0 -0.40751449294E+01 -0.17835277058E+01 -0.60350756726E+00  0.44890977844E+01  0.51100000000E-03 0.  1.
        -11    1    3    3    0    0 -0.20643428378E+02 -0.13835698307E+02 -0.10717622379E+02  0.27063723183E+02  0.51100000000E-03 0. -1.
        -12    1    3    3    0    0 -0.84930310336E+01 -0.11664641236E+02 -0.21582388688E+01  0.14589497124E+02  0.00000000000E+00 0.  1.
</event>
<event>
 7    1  0.4194672E-008  0.4614232E+02  0.7816164E-02  0.1320468E+00
        -11   -1    0    0    0    0  0.00000000000E+00  0.00000000000E+00  0.45593999997E+02  0.45594000000E+02  0.51100000000E-03 0.  1.
         11   -1    0    0    0    0 -0.00000000000E+00 -0.00000000000E+00 -0.45593999997E+02  0.45594000000E+02  0.51100000000E-03 0. -1.
    9900012    2    1    2    0    0 -0.24381969143E+02  0.14756147454E+02 -0.34883938241E+02  0.46142318141E+02  0.10000003462E+02 0.  0.
        -12    1    1    2    0    0  0.24381969143E+02 -0.14756147454E+02  0.34883938241E+02  0.45045681859E+02  0.00000000000E+00 0.  1.
         11    1    3    3    0    0 -0.13202173189E+02  0.87362087392E+01 -0.25008919296E+02  0.29598391252E+02  0.51100000000E-03 0. -1.
        -11    1    3    3    0    0 -0.33099850108E+00 -0.48653182314E+00 -0.21286338094E+00  0.62576697157E+00  0.51100000000E-03 0.  1.
        -12    1    3    3    0    0 -0.10848797452E+02  0.65064705378E+01 -0.96621555639E+01  0.15918159917E+02  0.00000000000E+00 0.  1.
</event>
<event>
 7    1  0.4194672E-008  0.4614232E+02  0.7816164E-02  0.1320468E+00
        -11   -1    0    0    0    0  0.00000000000E+00  0.00000000000E+00  0.45593999997E+02  0.45594000000E+02  0.51100000000E-03 0.  1.
         11   -1    0    0    0    0 -0.00000000000E+00 -0.00000000000E+00 -0.45593999997E+02  0.45594000000E+02  0.51100000000E-03 0. -1.
    9900012    2    1    2    0    0  0.22677142765E+02  0.38919940495E+02  0.31446860285E+00  0.46142318047E+02  0.10000002609E+02 0.  0.
        -12    1    1    2    0    0 -0.22677142765E+02 -0.38919940495E+02 -0.31446860285E+00  0.45045681953E+02  0.00000000000E+00 0.  1.
         11    1    3    3    0    0  0.24888245698E+01  0.10868458014E+02 -0.43314215463E+00  0.11158191598E+02  0.51100000000E-03 0. -1.
        -11    1    3    3    0    0 -0.23280441359E-01  0.80721366868E+00  0.68854119423E+00  0.10612375432E+01  0.51100000000E-03 0.  1.
         12    1    3    3    0    0  0.20211598637E+02  0.27244268812E+02  0.59069563244E-01  0.33922888906E+02  0.00000000000E+00 0. -1.
</event>
<event>
 7    1  0.4194672E-008  0.4614232E+02  0.7816164E-02  0.1320468E+00
        -11   -1    0    0    0    0  0.00000000000E+00  0.00000000000E+00  0.45593999997E+02  0.45594000000E+02  0.51100000000E-03 0.  1.
         11   -1    0    0    0    0 -0.00000000000E+00 -0.00000000000E+00 -0.45593999997E+02  0.45594000000E+02  0.51100000000E-03 0. -1.
    9900012    2    1    2    0    0  0.20462929026E+02 -0.25255479731E+01 -0.40050015131E+02  0.46142316867E+02  0.99999918477E+01 0.  0.
        -12    1    1    2    0    0 -0.20462929026E+02  0.25255479731E+01  0.40050015131E+02  0.45045683133E+02  0.00000000000E+00 0.  1.
         11    1    3    3    0    0  0.53306763995E+01  0.11879687402E+01 -0.13574020597E+02  0.14631521316E+02  0.51100000000E-03 0. -1.
        -11    1    3    3    0    0  0.14213596971E+02 -0.13950144079E+01 -0.24370356486E+02  0.28246887963E+02  0.51100000000E-03 0.  1.
        -12    1    3    3    0    0  0.91865565580E+00 -0.23185023054E+01 -0.21056380481E+01  0.32639075881E+01  0.00000000000E+00 0.  1.
</event>
<event>
 7    1  0.4194672E-008  0.4614232E+02  0.7816164E-02  0.1320468E+00
        -11   -1    0    0    0    0  0.00000000000E+00  0.00000000000E+00  0.45593999997E+02  0.45594000000E+02  0.51100000000E-03 0.  1.
         11   -1    0    0    0    0 -0.00000000000E+00 -0.00000000000E+00 -0.45593999997E+02  0.45594000000E+02  0.51100000000E-03 0. -1.
    9900012    2    1    2    0    0 -0.13280588936E+02  0.40945787780E+02  0.13273353142E+02  0.46142317820E+02  0.10000000534E+02 0.  0.
        -12    1    1    2    0    0  0.13280588936E+02 -0.40945787780E+02 -0.13273353142E+02  0.45045682180E+02  0.00000000000E+00 0.  1.
         11    1    3    3    0    0 -0.20964411494E+01  0.10829056097E+02  0.32354441647E+01  0.11494851919E+02  0.51100000000E-03 0. -1.
        -11    1    3    3    0    0 -0.40319781609E-01  0.48926511894E+01  0.42269121454E+01  0.64657905852E+01  0.51100000000E-03 0.  1.
         12    1    3    3    0    0 -0.11143828005E+02  0.25224080494E+02  0.58109968321E+01  0.28181675315E+02  0.00000000000E+00 0. -1.
</event>
<event>
 7    1  0.4194672E-008  0.4614232E+02  0.7816164E-02  0.1320468E+00
        -11   -1    0    0    0    0  0.00000000000E+00  0.00000000000E+00  0.45593999997E+02  0.45594000000E+02  0.51100000000E-03 0.  1.
         11   -1    0    0    0    0 -0.00000000000E+00 -0.00000000000E+00 -0.45593999997E+02  0.45594000000E+02  0.51100000000E-03 0. -1.
    9900012    2    1    2    0    0 -0.12061835228E+02  0.13840407511E+02 -0.41134763774E+02  0.46142317189E+02  0.99999947871E+01 0.  0.
        -12    1    1    2    0    0  0.12061835228E+02 -0.13840407511E+02  0.41134763774E+02  0.45045682811E+02  0.00000000000E+00 0.  1.
         11    1    3    3    0    0 -0.40457527067E+01  0.27549997819E+01 -0.15181082205E+02  0.15950655032E+02  0.51100000000E-03 0. -1.
        -11    1    3    3    0    0 -0.57262785332E+00  0.76653934264E+00  0.31213831873E+00  0.10064371880E+01  0.51100000000E-03 0.  1.
        -12    1    3    3    0    0 -0.74434546682E+01  0.10318868387E+02 -0.26265819887E+02  0.29185224970E+02  0.00000000000E+00 0.  1.
</event>
<event>
 7    1  0.4194672E-008  0.4614231E+02  0.7816164E-02  0.1320468E+00
        -11   -1    0    0    0    0  0.00000000000E+00  0.00000000000E+00  0.45593999997E+02  0.45594000000E+02  0.51100000000E-03 0.  1.
         11   -1    0    0    0    0 -0.00000000000E+00 -0.00000000000E+00 -0.45593999997E+02  0.45594000000E+02  0.51100000000E-03 0. -1.
    9900012    2    1    2    0    0  0.20350169292E+02 -0.31089924329E+02 -0.25463735732E+02  0.46142305173E+02  0.99998852134E+01 0.  0.
        -12    1    1    2    0    0 -0.20350169292E+02  0.31089924329E+02  0.25463735732E+02  0.45045694827E+02  0.00000000000E+00 0.  1.
         11    1    3    3    0    0  0.14442482967E+02 -0.21879904962E+02 -0.16601840526E+02  0.31031220802E+02  0.51100000000E-03 0. -1.
        -11    1    3    3    0    0  0.18930600171E+01 -0.73025853858E+01 -0.40570232582E+01  0.85656796300E+01  0.51100000000E-03 0.  1.
         12    1    3    3    0    0  0.40146263082E+01 -0.19074339816E+01 -0.48048719476E+01  0.65454047408E+01  0.00000000000E+00 0. -1.
</event>
<event>
 7    1  0.4194672E-008  0.4614232E+02  0.7816164E-02  0.1320468E+00
        -11   -1    0    0    0    0  0.00000000000E+00  0.00000000000E+00  0.45593999997E+02  0.45594000000E+02  0.51100000000E-03 0.  1.
         11   -1    0    0    0    0 -0.00000000000E+00 -0.00000000000E+00 -0.45593999997E+02  0.45594000000E+02  0.51100000000E-03 0. -1.
    9900012    2    1    2    0    0  0.19685863699E+02 -0.16097237338E+02 -0.37181437609E+02  0.46142316720E+02  0.99999905103E+01 0.  0.
        -12    1    1    2    0    0 -0.19685863699E+02  0.16097237338E+02  0.37181437609E+02  0.45045683280E+02  0.00000000000E+00 0.  1.
         11    1    3    3    0    0  0.12183849840E+02 -0.99315002069E+01 -0.20034913281E+02  0.25465243838E+02  0.51100000000E-03 0. -1.
        -11    1    3    3    0    0  0.16709540011E+01  0.42695033728E+00 -0.41815038883E+00  0.17746052725E+01  0.51100000000E-03 0.  1.
        -12    1    3    3    0    0  0.58310598580E+01 -0.65926874686E+01 -0.16728373938E+02  0.18902467610E+02  0.00000000000E+00 0.  1.
</event>
<event>
 7    1  0.4194672E-008  0.4614233E+02  0.7816164E-02  0.1320468E+00
        -11   -1    0    0    0    0  0.00000000000E+00  0.00000000000E+00  0.45593999997E+02  0.45594000000E+02  0.51100000000E-03 0.  1.
         11   -1    0    0    0    0 -0.00000000000E+00 -0.00000000000E+00 -0.45593999997E+02  0.45594000000E+02  0.51100000000E-03 0. -1.
    9900012    2    1    2    0    0  0.16160753219E+01 -0.13213745449E+02 -0.43033678583E+02  0.46142331389E+02  0.10000124266E+02 0.  0.
        -12    1    1    2    0    0 -0.16160753219E+01  0.13213745449E+02  0.43033678583E+02  0.45045668611E+02  0.00000000000E+00 0.  1.
         11    1    3    3    0    0 -0.26484841139E+01 -0.63085649697E+01 -0.20968075729E+02  0.22056125229E+02  0.51100000000E-03 0. -1.
        -11    1    3    3    0    0  0.16762828308E+01 -0.68252685908E+01 -0.15120196322E+02  0.16673768397E+02  0.51100000000E-03 0.  1.
         12    1    3    3    0    0  0.25882766050E+01 -0.79911888415E-01 -0.69454065318E+01  0.74124377627E+01  0.00000000000E+00 0. -1.
</event>
<event>
 7    1  0.4194672E-008  0.4614232E+02  0.7816164E-02  0.1320468E+00
        -11   -1    0    0    0    0  0.00000000000E+00  0.00000000000E+00  0.45593999997E+02  0.45594000000E+02  0.51100000000E-03 0.  1.
         11   -1    0    0    0    0 -0.00000000000E+00 -0.00000000000E+00 -0.45593999997E+02  0.45594000000E+02  0.51100000000E-03 0. -1.
    9900012    2    1    2    0    0  0.24187054521E+02  0.31567843424E+02 -0.21155878289E+02  0.46142317288E+02  0.99999956847E+01 0.  0.
        -12    1    1    2    0    0 -0.24187054521E+02 -0.31567843424E+02  0.21155878289E+02  0.45045682712E+02  0.00000000000E+00 0.  1.
         11    1    3    3    0    0  0.14260552861E+02  0.17244980519E+02 -0.15715958891E+02  0.27344909675E+02  0.51100000000E-03 0.  1.
        -11    1    3    3    0    0  0.25989903392E+01  0.44384600516E+01 -0.37771510537E+01  0.63813438049E+01  0.51100000000E-03 0. -1.
        -12    1    3    3    0    0  0.73275113205E+01  0.98844028533E+01 -0.16627683443E+01  0.12416063808E+02  0.00000000000E+00 0.  1.
</event>
<event>
 7    1  0.4194672E-008  0.4614232E+02  0.7816164E-02  0.1320468E+00
        -11   -1    0    0    0    0  0.00000000000E+00  0.00000000000E+00  0.45593999997E+02  0.45594000000E+02  0.51100000000E-03 0. -1.
         11   -1    0    0    0    0 -0.00000000000E+00 -0.00000000000E+00 -0.45593999997E+02  0.45594000000E+02  0.51100000000E-03 0.  1.
    9900012    2    1    2    0    0 -0.24123203411E+02 -0.16877332370E+02  0.34093108635E+02  0.46142319329E+02  0.10000014299E+02 0.  0.
        -12    1    1    2    0    0  0.24123203411E+02  0.16877332370E+02 -0.34093108635E+02  0.45045680671E+02  0.00000000000E+00 0.  1.
         11    1    3    3    0    0 -0.44530730066E+01 -0.24499261308E+01  0.11391226768E+02  0.12473654027E+02  0.51100000000E-03 0. -1.
        -11    1    3    3    0    0 -0.12913180049E+02 -0.73936303495E+01  0.11433506842E+02  0.18765422129E+02  0.51100000000E-03 0.  1.
        -12    1    3    3    0    0 -0.67569503556E+01 -0.70337758896E+01  0.11268375025E+02  0.14903243173E+02  0.00000000000E+00 0.  1.
</event>
<event>
 7    1  0.4194672E-008  0.4614232E+02  0.7816164E-02  0.1320468E+00
        -11   -1    0    0    0    0  0.00000000000E+00  0.00000000000E+00  0.45593999997E+02  0.45594000000E+02  0.51100000000E-03 0.  1.
         11   -1    0    0    0    0 -0.00000000000E+00 -0.00000000000E+00 -0.45593999997E+02  0.45594000000E+02  0.51100000000E-03 0. -1.
    9900012    2    1    2    0    0  0.41804049919E+02 -0.16534752737E+02 -0.28525254576E+01  0.46142317197E+02  0.99999948534E+01 0.  0.
        -12    1    1    2    0    0 -0.41804049919E+02  0.16534752737E+02  0.28525254576E+01  0.45045682803E+02  0.00000000000E+00 0.  1.
         11    1    3    3    0    0  0.29373382328E+02 -0.10370866976E+02 -0.64190489007E+00  0.31157062014E+02  0.51100000000E-03 0. -1.
        -11    1    3    3    0    0  0.23169941366E+01 -0.40713769376E+00  0.14769374254E+01  0.27776910106E+01  0.51100000000E-03 0.  1.
         12    1    3    3    0    0  0.10113673455E+02 -0.57567480667E+01 -0.36875579930E+01  0.12207564172E+02  0.00000000000E+00 0. -1.
</event>
<event>
 7    1  0.4194672E-008  0.4614232E+02  0.7816164E-02  0.1320468E+00
        -11   -1    0    0    0    0  0.00000000000E+00  0.00000000000E+00  0.45593999997E+02  0.45594000000E+02  0.51100000000E-03 0.  1.
         11   -1    0    0    0    0 -0.00000000000E+00 -0.00000000000E+00 -0.45593999997E+02  0.45594000000E+02  0.51100000000E-03 0. -1.
    9900012    2    1    2    0    0 -0.21548310942E+02  0.56757995444E+01 -0.39148040352E+02  0.46142317983E+02  0.10000002024E+02 0.  0.
        -12    1    1    2    0    0  0.21548310942E+02 -0.56757995444E+01  0.39148040352E+02  0.45045682017E+02  0.00000000000E+00 0.  1.
         11    1    3    3    0    0 -0.13702814887E+02  0.30795476464E+01 -0.21880989300E+02  0.26000546966E+02  0.51100000000E-03 0. -1.
        -11    1    3    3    0    0 -0.58877108510E+01 -0.82137842438E+00 -0.72336604281E+01  0.93629933799E+01  0.51100000000E-03 0.  1.
         12    1    3    3    0    0 -0.19577852040E+01  0.34176303224E+01 -0.10033390624E+02  0.10778777637E+02  0.00000000000E+00 0. -1.
</event>
<event>
 7    1  0.4194672E-008  0.4614232E+02  0.7816164E-02  0.1320468E+00
        -11   -1    0    0    0    0  0.00000000000E+00  0.00000000000E+00  0.45593999997E+02  0.45594000000E+02  0.51100000000E-03 0.  1.
         11   -1    0    0    0    0 -0.00000000000E+00 -0.00000000000E+00 -0.45593999997E+02  0.45594000000E+02  0.51100000000E-03 0. -1.
    9900012    2    1    2    0    0  0.22023211849E+02 -0.44990943265E+01 -0.39036516524E+02  0.46142319494E+02  0.10000015801E+02 0.  0.
        -12    1    1    2    0    0 -0.22023211849E+02  0.44990943265E+01  0.39036516524E+02  0.45045680506E+02  0.00000000000E+00 0.  1.
         11    1    3    3    0    0  0.75804712093E+01 -0.47689996041E+00 -0.14329476448E+02  0.16218041585E+02  0.51100000000E-03 0. -1.
        -11    1    3    3    0    0  0.13986337940E+02 -0.54911775007E+01 -0.23776802718E+02  0.28126624878E+02  0.51100000000E-03 0.  1.
         12    1    3    3    0    0  0.45640270005E+00  0.14689831346E+01 -0.93023735882E+00  0.17976530305E+01  0.00000000000E+00 0. -1.
</event>
<event>
 7    1  0.4194672E-008  0.4614232E+02  0.7816164E-02  0.1320468E+00
        -11   -1    0    0    0    0  0.00000000000E+00  0.00000000000E+00  0.45593999997E+02  0.45594000000E+02  0.51100000000E-03 0. -1.
         11   -1    0    0    0    0 -0.00000000000E+00 -0.00000000000E+00 -0.45593999997E+02  0.45594000000E+02  0.51100000000E-03 0.  1.
    9900012    2    1    2    0    0 -0.51083678983E+01 -0.42565801540E+02  0.13826445283E+02  0.46142317937E+02  0.10000001604E+02 0.  0.
        -12    1    1    2    0    0  0.51083678983E+01  0.42565801540E+02 -0.13826445283E+02  0.45045682063E+02  0.00000000000E+00 0.  1.
         11    1    3    3    0    0 -0.34178139542E+01 -0.85446749337E+01  0.15818844440E+01  0.93378413246E+01  0.51100000000E-03 0.  1.
        -11    1    3    3    0    0 -0.10122687906E+01 -0.20039962412E+02  0.36964233580E+01  0.20403145039E+02  0.51100000000E-03 0. -1.
         12    1    3    3    0    0 -0.67828515343E+00 -0.13981164195E+02  0.85481374808E+01  0.16401331573E+02  0.00000000000E+00 0. -1.
</event>
<event>
 7    1  0.4194672E-008  0.4614231E+02  0.7816164E-02  0.1320468E+00
        -11   -1    0    0    0    0  0.00000000000E+00  0.00000000000E+00  0.45593999997E+02  0.45594000000E+02  0.51100000000E-03 0.  1.
         11   -1    0    0    0    0 -0.00000000000E+00 -0.00000000000E+00 -0.45593999997E+02  0.45594000000E+02  0.51100000000E-03 0. -1.
    9900012    2    1    2    0    0 -0.35279084241E+02 -0.24864350008E+02 -0.12894372800E+02  0.46142306131E+02  0.99998939482E+01 0.  0.
        -12    1    1    2    0    0  0.35279084241E+02  0.24864350008E+02  0.12894372800E+02  0.45045693869E+02  0.00000000000E+00 0.  1.
         11    1    3    3    0    0 -0.23739286076E+01 -0.42619316424E+00 -0.48566883316E+00  0.24602951294E+01  0.51100000000E-03 0. -1.
        -11    1    3    3    0    0 -0.27426047785E+02 -0.23821514732E+02 -0.10103991652E+02  0.37706011574E+02  0.51100000000E-03 0.  1.
        -12    1    3    3    0    0 -0.54791078484E+01 -0.61664211192E+00 -0.23047123147E+01  0.59759994279E+01  0.00000000000E+00 0.  1.
</event>
<event>
 7    1  0.4194672E-008  0.4614232E+02  0.7816164E-02  0.1320468E+00
        -11   -1    0    0    0    0  0.00000000000E+00  0.00000000000E+00  0.45593999997E+02  0.45594000000E+02  0.51100000000E-03 0.  1.
         11   -1    0    0    0    0 -0.00000000000E+00 -0.00000000000E+00 -0.45593999997E+02  0.45594000000E+02  0.51100000000E-03 0. -1.
    9900012    2    1    2    0    0 -0.40734097660E+02 -0.10769543604E+02 -0.15933096208E+02  0.46142319448E+02  0.10000015385E+02 0.  0.
        -12    1    1    2    0    0  0.40734097660E+02  0.10769543604E+02  0.15933096208E+02  0.45045680552E+02  0.00000000000E+00 0.  1.
         11    1    3    3    0    0 -0.13684295978E+02 -0.45322287411E+01 -0.75338208408E+01  0.16265285442E+02  0.51100000000E-03 0. -1.
        -11    1    3    3    0    0 -0.22642330686E+01  0.17648555589E+00  0.11580685404E+01  0.25493178590E+01  0.51100000000E-03 0.  1.
        -12    1    3    3    0    0 -0.24785568613E+02 -0.64138004189E+01 -0.95573439079E+01  0.27327716147E+02  0.00000000000E+00 0.  1.
</event>
<event>
 7    1  0.4194672E-008  0.4614232E+02  0.7816164E-02  0.1320468E+00
        -11   -1    0    0    0    0  0.00000000000E+00  0.00000000000E+00  0.45593999997E+02  0.45594000000E+02  0.51100000000E-03 0.  1.
         11   -1    0    0    0    0 -0.00000000000E+00 -0.00000000000E+00 -0.45593999997E+02  0.45594000000E+02  0.51100000000E-03 0. -1.
    9900012    2    1    2    0    0  0.15519261474E+02 -0.41818907645E+02  0.62805228362E+01  0.46142317849E+02  0.10000000801E+02 0.  0.
        -12    1    1    2    0    0 -0.15519261474E+02  0.41818907645E+02 -0.62805228362E+01  0.45045682151E+02  0.00000000000E+00 0.  1.
         11    1    3    3    0    0  0.53163843446E+01 -0.11875118731E+02 -0.13434518472E+01  0.13080032511E+02  0.51100000000E-03 0. -1.
        -11    1    3    3    0    0  0.15223513780E+01 -0.12979330575E+02  0.22295437588E+01  0.13257127952E+02  0.51100000000E-03 0.  1.
        -12    1    3    3    0    0  0.86805257513E+01 -0.16964458339E+02  0.53944309246E+01  0.19805157385E+02  0.00000000000E+00 0.  1.
</event>
<event>
 7    1  0.4194672E-008  0.4614233E+02  0.7816164E-02  0.1320468E+00
        -11   -1    0    0    0    0  0.00000000000E+00  0.00000000000E+00  0.45593999997E+02  0.45594000000E+02  0.51100000000E-03 0.  1.
         11   -1    0    0    0    0 -0.00000000000E+00 -0.00000000000E+00 -0.45593999997E+02  0.45594000000E+02  0.51100000000E-03 0. -1.
    9900012    2    1    2    0    0  0.17869195994E+02 -0.26038541577E+02 -0.32121619840E+02  0.46142331239E+02  0.10000122902E+02 0.  0.
        -12    1    1    2    0    0 -0.17869195994E+02  0.26038541577E+02  0.32121619840E+02  0.45045668761E+02  0.00000000000E+00 0.  1.
         11    1    3    3    0    0  0.30974247300E+01 -0.70037467151E+01 -0.72688514693E+01  0.10558537302E+02  0.51100000000E-03 0. -1.
        -11    1    3    3    0    0  0.23981388366E+01 -0.94985488613E+01 -0.85266735532E+01  0.12987596486E+02  0.51100000000E-03 0.  1.
         12    1    3    3    0    0  0.12373632428E+02 -0.95362460008E+01 -0.16326094818E+02  0.22596197451E+02  0.00000000000E+00 0. -1.
</event>
<event>
 7    1  0.4194672E-008  0.4614232E+02  0.7816164E-02  0.1320468E+00
        -11   -1    0    0    0    0  0.00000000000E+00  0.00000000000E+00  0.45593999997E+02  0.45594000000E+02  0.51100000000E-03 0. -1.
         11   -1    0    0    0    0 -0.00000000000E+00 -0.00000000000E+00 -0.45593999997E+02  0.45594000000E+02  0.51100000000E-03 0.  1.
    9900012    2    1    2    0    0  0.25738444730E+02  0.36174607758E+02  0.76186388572E+01  0.46142318280E+02  0.10000004733E+02 0.  0.
        -12    1    1    2    0    0 -0.25738444730E+02 -0.36174607758E+02 -0.76186388572E+01  0.45045681720E+02  0.00000000000E+00 0.  1.
         11    1    3    3    0    0  0.33184038021E+01  0.62502473446E+01  0.40773465049E+01  0.81671384490E+01  0.51100000000E-03 0. -1.
        -11    1    3    3    0    0  0.73559819922E+00  0.27160872089E+01 -0.76839743849E+00  0.29169623449E+01  0.51100000000E-03 0.  1.
         12    1    3    3    0    0  0.21684442729E+02  0.27208273205E+02  0.43096897908E+01  0.35058217486E+02  0.00000000000E+00 0. -1.
</event>
<event>
 7    1  0.4194672E-008  0.4614233E+02  0.7816164E-02  0.1320468E+00
        -11   -1    0    0    0    0  0.00000000000E+00  0.00000000000E+00  0.45593999997E+02  0.45594000000E+02  0.51100000000E-03 0.  1.
         11   -1    0    0    0    0 -0.00000000000E+00 -0.00000000000E+00 -0.45593999997E+02  0.45594000000E+02  0.51100000000E-03 0. -1.
    9900012    2    1    2    0    0  0.10688835114E+01  0.11129327132E+02 -0.43636089353E+02  0.46142326197E+02  0.10000076923E+02 0.  0.
        -12    1    1    2    0    0 -0.10688835114E+01 -0.11129327132E+02  0.43636089353E+02  0.45045673803E+02  0.00000000000E+00 0.  1.
         11    1    3    3    0    0  0.90159525515E+00  0.11038312053E+02 -0.37719868875E+02  0.39312157346E+02  0.51100000000E-03 0.  1.
        -11    1    3    3    0    0  0.12235790236E+01  0.40591298512E+00 -0.55046745482E+01  0.56536141645E+01  0.51100000000E-03 0. -1.
        -12    1    3    3    0    0 -0.10562907673E+01 -0.31489790688E+00 -0.41154592946E+00  0.11765546859E+01  0.00000000000E+00 0.  1.
</event>
<event>
 7    1  0.4194672E-008  0.4614232E+02  0.7816164E-02  0.1320468E+00
        -11   -1    0    0    0    0  0.00000000000E+00  0.00000000000E+00  0.45593999997E+02  0.45594000000E+02  0.51100000000E-03 0.  1.
         11   -1    0    0    0    0 -0.00000000000E+00 -0.00000000000E+00 -0.45593999997E+02  0.45594000000E+02  0.51100000000E-03 0. -1.
    9900012    2    1    2    0    0  0.22707634684E+02 -0.37473759328E+02 -0.10449602569E+02  0.46142317577E+02  0.99999983172E+01 0.  0.
        -12    1    1    2    0    0 -0.22707634684E+02  0.37473759328E+02  0.10449602569E+02  0.45045682423E+02  0.00000000000E+00 0.  1.
         11    1    3    3    0    0  0.59738154099E+01 -0.13741628464E+02 -0.74272445928E+01  0.16723719261E+02  0.51100000000E-03 0. -1.
        -11    1    3    3    0    0  0.66865198819E+01 -0.10723122317E+02 -0.29696515139E+01  0.12981283863E+02  0.51100000000E-03 0.  1.
        -12    1    3    3    0    0  0.10047299392E+02 -0.13009008547E+02 -0.52706461962E-01  0.16437314453E+02  0.00000000000E+00 0.  1.
</event>
<event>
 7    1  0.4194672E-008  0.4614232E+02  0.7816164E-02  0.1320468E+00
        -11   -1    0    0    0    0  0.00000000000E+00  0.00000000000E+00  0.45593999997E+02  0.45594000000E+02  0.51100000000E-03 0. -1.
         11   -1    0    0    0    0 -0.00000000000E+00 -0.00000000000E+00 -0.45593999997E+02  0.45594000000E+02  0.51100000000E-03 0.  1.
    9900012    2    1    2    0    0  0.38061519885E+02 -0.75312843557E+01  0.22884798923E+02  0.46142316946E+02  0.99999925689E+01 0.  0.
        -12    1    1    2    0    0 -0.38061519885E+02  0.75312843557E+01 -0.22884798923E+02  0.45045683054E+02  0.00000000000E+00 0.  1.
         11    1    3    3    0    0  0.18049290803E+02 -0.38018987215E+00  0.13292251571E+02  0.22418862481E+02  0.51100000000E-03 0. -1.
        -11    1    3    3    0    0  0.51094871864E+01 -0.85331386471E+00  0.42021043042E+01  0.66702837049E+01  0.51100000000E-03 0.  1.
        -12    1    3    3    0    0  0.14902741896E+02 -0.62977806188E+01  0.53904430477E+01  0.17053170761E+02  0.00000000000E+00 0.  1.
</event>
<event>
 7    1  0.4194672E-008  0.4614232E+02  0.7816164E-02  0.1320468E+00
        -11   -1    0    0    0    0  0.00000000000E+00  0.00000000000E+00  0.45593999997E+02  0.45594000000E+02  0.51100000000E-03 0.  1.
         11   -1    0    0    0    0 -0.00000000000E+00 -0.00000000000E+00 -0.45593999997E+02  0.45594000000E+02  0.51100000000E-03 0. -1.
    9900012    2    1    2    0    0  0.29758520318E+02 -0.30852183391E+02  0.13845095704E+02  0.46142318447E+02  0.10000006254E+02 0.  0.
        -12    1    1    2    0    0 -0.29758520318E+02  0.30852183391E+02 -0.13845095704E+02  0.45045681553E+02  0.00000000000E+00 0.  1.
         11    1    3    3    0    0  0.82125488094E+01 -0.64899287163E+01  0.32712658549E+01  0.10966599894E+02  0.51100000000E-03 0. -1.
        -11    1    3    3    0    0  0.17397417683E+02 -0.13920332086E+02  0.77503555912E+01  0.23590544705E+02  0.51100000000E-03 0.  1.
        -12    1    3    3    0    0  0.41485538256E+01 -0.10441922589E+02  0.28234742582E+01  0.11585173848E+02  0.00000000000E+00 0.  1.
</event>
<event>
 7    1  0.4194672E-008  0.4614231E+02  0.7816164E-02  0.1320468E+00
        -11   -1    0    0    0    0  0.00000000000E+00  0.00000000000E+00  0.45593999997E+02  0.45594000000E+02  0.51100000000E-03 0.  1.
         11   -1    0    0    0    0 -0.00000000000E+00 -0.00000000000E+00 -0.45593999997E+02  0.45594000000E+02  0.51100000000E-03 0. -1.
    9900012    2    1    2    0    0 -0.14418466218E+02  0.15813774189E+02 -0.39637687449E+02  0.46142313320E+02  0.99999595030E+01 0.  0.
        -12    1    1    2    0    0  0.14418466218E+02 -0.15813774189E+02  0.39637687449E+02  0.45045686680E+02  0.00000000000E+00 0.  1.
         11    1    3    3    0    0 -0.27969685182E+01  0.94771937239E+01 -0.20998986409E+02  0.23207707001E+02  0.51100000000E-03 0. -1.
        -11    1    3    3    0    0 -0.43820515708E+01  0.32370568986E+01 -0.85131705815E+01  0.10107175023E+02  0.51100000000E-03 0.  1.
        -12    1    3    3    0    0 -0.72394461294E+01  0.30995235666E+01 -0.10125530458E+02  0.12827431296E+02  0.00000000000E+00 0.  1.
</event>
<event>
 7    1  0.4194672E-008  0.4614232E+02  0.7816164E-02  0.1320468E+00
        -11   -1    0    0    0    0  0.00000000000E+00  0.00000000000E+00  0.45593999997E+02  0.45594000000E+02  0.51100000000E-03 0.  1.
         11   -1    0    0    0    0 -0.00000000000E+00 -0.00000000000E+00 -0.45593999997E+02  0.45594000000E+02  0.51100000000E-03 0. -1.
    9900012    2    1    2    0    0  0.29347999935E+02  0.16266739021E+02 -0.30053312389E+02  0.46142317808E+02  0.10000000427E+02 0.  0.
        -12    1    1    2    0    0 -0.29347999935E+02 -0.16266739021E+02  0.30053312389E+02  0.45045682192E+02  0.00000000000E+00 0.  1.
         11    1    3    3    0    0  0.13516717043E+02  0.10966339972E+02 -0.15400918917E+02  0.23241139295E+02  0.51100000000E-03 0. -1.
        -11    1    3    3    0    0  0.73371097954E+01  0.15607123341E+01 -0.10052609637E+02  0.12542884992E+02  0.51100000000E-03 0.  1.
        -12    1    3    3    0    0  0.84941730974E+01  0.37396867153E+01 -0.45997838348E+01  0.10358293521E+02  0.00000000000E+00 0.  1.
</event>
<event>
 7    1  0.4194672E-008  0.4614232E+02  0.7816164E-02  0.1320468E+00
        -11   -1    0    0    0    0  0.00000000000E+00  0.00000000000E+00  0.45593999997E+02  0.45594000000E+02  0.51100000000E-03 0.  1.
         11   -1    0    0    0    0 -0.00000000000E+00 -0.00000000000E+00 -0.45593999997E+02  0.45594000000E+02  0.51100000000E-03 0. -1.
    9900012    2    1    2    0    0  0.72030822371E+01  0.35030346487E+02 -0.27388025417E+02  0.46142317577E+02  0.99999983172E+01 0.  0.
        -12    1    1    2    0    0 -0.72030822371E+01 -0.35030346487E+02  0.27388025417E+02  0.45045682423E+02  0.00000000000E+00 0.  1.
         11    1    3    3    0    0  0.18376904710E+01  0.58939822822E+01 -0.81719127679E+01  0.10241889081E+02  0.51100000000E-03 0. -1.
        -11    1    3    3    0    0  0.36859122447E+01  0.16561650490E+02 -0.14652886891E+02  0.22418325328E+02  0.51100000000E-03 0.  1.
        -12    1    3    3    0    0  0.16794795213E+01  0.12574713715E+02 -0.45632257590E+01  0.13482103167E+02  0.00000000000E+00 0.  1.
</event>
<event>
 7    1  0.4194672E-008  0.4614232E+02  0.7816164E-02  0.1320468E+00
        -11   -1    0    0    0    0  0.00000000000E+00  0.00000000000E+00  0.45593999997E+02  0.45594000000E+02  0.51100000000E-03 0.  1.
         11   -1    0    0    0    0 -0.00000000000E+00 -0.00000000000E+00 -0.45593999997E+02  0.45594000000E+02  0.51100000000E-03 0. -1.
    9900012    2    1    2    0    0 -0.16872594076E+02  0.30097189445E+02 -0.28958389257E+02  0.46142317059E+02  0.99999935941E+01 0.  0.
        -12    1    1    2    0    0  0.16872594076E+02 -0.30097189445E+02  0.28958389257E+02  0.45045682941E+02  0.00000000000E+00 0.  1.
         11    1    3    3    0    0 -0.50423817413E+01  0.12248263865E+02 -0.77737985927E+01  0.15358304794E+02  0.51100000000E-03 0.  1.
        -11    1    3    3    0    0 -0.23850425174E+01  0.25527444629E+01 -0.76110893274E+00  0.35755026460E+01  0.51100000000E-03 0. -1.
         12    1    3    3    0    0 -0.94451698171E+01  0.15296181117E+02 -0.20423481731E+02  0.27208509618E+02  0.00000000000E+00 0. -1.
</event>
<event>
 7    1  0.4194672E-008  0.4614232E+02  0.7816164E-02  0.1320468E+00
        -11   -1    0    0    0    0  0.00000000000E+00  0.00000000000E+00  0.45593999997E+02  0.45594000000E+02  0.51100000000E-03 0.  1.
         11   -1    0    0    0    0 -0.00000000000E+00 -0.00000000000E+00 -0.45593999997E+02  0.45594000000E+02  0.51100000000E-03 0. -1.
    9900012    2    1    2    0    0  0.23426862266E-01  0.25655372793E+02 -0.37025865967E+02  0.46142318158E+02  0.10000003622E+02 0.  0.
        -12    1    1    2    0    0 -0.23426862266E-01 -0.25655372793E+02  0.37025865967E+02  0.45045681842E+02  0.00000000000E+00 0.  1.
         11    1    3    3    0    0  0.11483984785E+01  0.13459003237E+02 -0.15951592852E+02  0.20902557307E+02  0.51100000000E-03 0.  1.
        -11    1    3    3    0    0  0.24440207020E+01  0.49072861826E+01 -0.60560823691E+01  0.81688939760E+01  0.51100000000E-03 0. -1.
        -12    1    3    3    0    0 -0.35689923183E+01  0.72890833739E+01 -0.15018190745E+02  0.17070866875E+02  0.00000000000E+00 0.  1.
</event>
<event>
 7    1  0.4194672E-008  0.4614232E+02  0.7816164E-02  0.1320468E+00
        -11   -1    0    0    0    0  0.00000000000E+00  0.00000000000E+00  0.45593999997E+02  0.45594000000E+02  0.51100000000E-03 0. -1.
         11   -1    0    0    0    0 -0.00000000000E+00 -0.00000000000E+00 -0.45593999997E+02  0.45594000000E+02  0.51100000000E-03 0.  1.
    9900012    2    1    2    0    0 -0.21318159504E+02  0.36433956399E+02  0.15723117128E+02  0.46142317457E+02  0.99999972310E+01 0.  0.
        -12    1    1    2    0    0  0.21318159504E+02 -0.36433956399E+02 -0.15723117128E+02  0.45045682543E+02  0.00000000000E+00 0.  1.
         11    1    3    3    0    0 -0.80891824698E+01  0.18726560745E+02  0.91627482334E+01  0.22362354657E+02  0.51100000000E-03 0. -1.
        -11    1    3    3    0    0 -0.16167519278E+01  0.43001649248E+00 -0.58255416101E+00  0.17714882420E+01  0.51100000000E-03 0.  1.
         12    1    3    3    0    0 -0.11612225106E+02  0.17277379162E+02  0.71429230552E+01  0.22008474558E+02  0.00000000000E+00 0. -1.
</event>
<event>
 7    1  0.4194672E-008  0.4614232E+02  0.7816164E-02  0.1320468E+00
        -11   -1    0    0    0    0  0.00000000000E+00  0.00000000000E+00  0.45593999997E+02  0.45594000000E+02  0.51100000000E-03 0.  1.
         11   -1    0    0    0    0 -0.00000000000E+00 -0.00000000000E+00 -0.45593999997E+02  0.45594000000E+02  0.51100000000E-03 0. -1.
    9900012    2    1    2    0    0 -0.47571575348E+00 -0.37151069228E+02 -0.25469300047E+02  0.46142317686E+02  0.99999993169E+01 0.  0.
        -12    1    1    2    0    0  0.47571575348E+00  0.37151069228E+02  0.25469300047E+02  0.45045682314E+02  0.00000000000E+00 0.  1.
         11    1    3    3    0    0 -0.14063728712E+01 -0.10458931778E+02 -0.11193218029E+02  0.15383603891E+02  0.51100000000E-03 0. -1.
        -11    1    3    3    0    0 -0.19132756117E+01 -0.12148099512E+02 -0.79614591141E+01  0.14649975318E+02  0.51100000000E-03 0.  1.
         12    1    3    3    0    0  0.28439327294E+01 -0.14544037938E+02 -0.63146229038E+01  0.16108738477E+02  0.00000000000E+00 0. -1.
</event>
<event>
 7    1  0.4194672E-008  0.4614232E+02  0.7816164E-02  0.1320468E+00
        -11   -1    0    0    0    0  0.00000000000E+00  0.00000000000E+00  0.45593999997E+02  0.45594000000E+02  0.51100000000E-03 0.  1.
         11   -1    0    0    0    0 -0.00000000000E+00 -0.00000000000E+00 -0.45593999997E+02  0.45594000000E+02  0.51100000000E-03 0. -1.
    9900012    2    1    2    0    0  0.97884202410E+01  0.16761283996E+02 -0.40649228238E+02  0.46142316873E+02  0.99999919015E+01 0.  0.
        -12    1    1    2    0    0 -0.97884202410E+01 -0.16761283996E+02  0.40649228238E+02  0.45045683127E+02  0.00000000000E+00 0.  1.
         11    1    3    3    0    0  0.86380700469E+01  0.15144817230E+02 -0.32614946824E+02  0.36982651333E+02  0.51100000000E-03 0. -1.
        -11    1    3    3    0    0  0.25074427692E+00  0.15247707408E+01 -0.81065531761E+01  0.82525149599E+01  0.51100000000E-03 0.  1.
        -12    1    3    3    0    0  0.89960591715E+00  0.91696024751E-01  0.72271761283E-01  0.90715057990E+00  0.00000000000E+00 0.  1.
</event>
<event>
 7    1  0.4194672E-008  0.4614231E+02  0.7816164E-02  0.1320468E+00
        -11   -1    0    0    0    0  0.00000000000E+00  0.00000000000E+00  0.45593999997E+02  0.45594000000E+02  0.51100000000E-03 0.  1.
         11   -1    0    0    0    0 -0.00000000000E+00 -0.00000000000E+00 -0.45593999997E+02  0.45594000000E+02  0.51100000000E-03 0. -1.
    9900012    2    1    2    0    0  0.39958247696E+02 -0.16205585212E+02 -0.13031930292E+02  0.46142314766E+02  0.99999726916E+01 0.  0.
        -12    1    1    2    0    0 -0.39958247696E+02  0.16205585212E+02  0.13031930292E+02  0.45045685234E+02  0.00000000000E+00 0.  1.
         11    1    3    3    0    0  0.71072210488E+01 -0.98969361499E+00 -0.24627987547E+01  0.75866634600E+01  0.51100000000E-03 0. -1.
        -11    1    3    3    0    0  0.27658950274E+02 -0.97066527237E+01 -0.99692281132E+01  0.30961623775E+02  0.51100000000E-03 0.  1.
        -12    1    3    3    0    0  0.51920763740E+01 -0.55092388728E+01 -0.59990342452E+00  0.75940275315E+01  0.00000000000E+00 0.  1.
</event>
<event>
 7    1  0.4194672E-008  0.4614232E+02  0.7816164E-02  0.1320468E+00
        -11   -1    0    0    0    0  0.00000000000E+00  0.00000000000E+00  0.45593999997E+02  0.45594000000E+02  0.51100000000E-03 0.  1.
         11   -1    0    0    0    0 -0.00000000000E+00 -0.00000000000E+00 -0.45593999997E+02  0.45594000000E+02  0.51100000000E-03 0. -1.
    9900012    2    1    2    0    0 -0.96952448734E+01 -0.36701719628E+01 -0.43836578184E+02  0.46142317385E+02  0.99999965724E+01 0.  0.
        -12    1    1    2    0    0  0.96952448734E+01  0.36701719628E+01  0.43836578184E+02  0.45045682615E+02  0.00000000000E+00 0.  1.
         11    1    3    3    0    0 -0.26170659871E+00 -0.25783271485E+01 -0.17250998733E+02  0.17444575626E+02  0.51100000000E-03 0. -1.
        -11    1    3    3    0    0 -0.46135119224E+00  0.11811158114E+01 -0.59178971771E+01  0.60522216369E+01  0.51100000000E-03 0.  1.
         12    1    3    3    0    0 -0.89721870824E+01 -0.22729606256E+01 -0.20667682273E+02  0.22645520122E+02  0.00000000000E+00 0. -1.
</event>
<event>
 7    1  0.4194672E-008  0.4614232E+02  0.7816164E-02  0.1320468E+00
        -11   -1    0    0    0    0  0.00000000000E+00  0.00000000000E+00  0.45593999997E+02  0.45594000000E+02  0.51100000000E-03 0.  1.
         11   -1    0    0    0    0 -0.00000000000E+00 -0.00000000000E+00 -0.45593999997E+02  0.45594000000E+02  0.51100000000E-03 0. -1.
    9900012    2    1    2    0    0  0.43851980858E+02  0.88225401540E+01 -0.53178997433E+01  0.46142317659E+02  0.99999990671E+01 0.  0.
        -12    1    1    2    0    0 -0.43851980858E+02 -0.88225401540E+01  0.53178997433E+01  0.45045682341E+02  0.00000000000E+00 0.  1.
         11    1    3    3    0    0  0.33728861299E+02  0.70234519866E+01 -0.33983113677E+01  0.34619553474E+02  0.51100000000E-03 0. -1.
        -11    1    3    3    0    0  0.38027649829E+01  0.29947592152E+01 -0.15384740908E+01  0.50790261923E+01  0.51100000000E-03 0.  1.
         12    1    3    3    0    0  0.63203545756E+01 -0.11956710478E+01 -0.38111428478E+00  0.64437379924E+01  0.00000000000E+00 0. -1.
</event>
<event>
 7    1  0.4194672E-008  0.4614232E+02  0.7816164E-02  0.1320468E+00
        -11   -1    0    0    0    0  0.00000000000E+00  0.00000000000E+00  0.45593999997E+02  0.45594000000E+02  0.51100000000E-03 0. -1.
         11   -1    0    0    0    0 -0.00000000000E+00 -0.00000000000E+00 -0.45593999997E+02  0.45594000000E+02  0.51100000000E-03 0.  1.
    9900012    2    1    2    0    0 -0.28672343311E+02  0.51331451842E+01  0.34360746550E+02  0.46142319254E+02  0.10000013611E+02 0.  0.
        -12    1    1    2    0    0  0.28672343311E+02 -0.51331451842E+01 -0.34360746550E+02  0.45045680746E+02  0.00000000000E+00 0.  1.
         11    1    3    3    0    0 -0.18987133822E+02  0.29113833852E+01  0.17959987428E+02  0.26297310750E+02  0.51100000000E-03 0. -1.
        -11    1    3    3    0    0 -0.28022744990E+01 -0.16708760007E+01  0.50058626324E+01  0.59752179820E+01  0.51100000000E-03 0.  1.
        -12    1    3    3    0    0 -0.68829349895E+01  0.38926377998E+01  0.11394896490E+02  0.13869790522E+02  0.00000000000E+00 0.  1.
</event>
<event>
 7    1  0.4194672E-008  0.4614232E+02  0.7816164E-02  0.1320468E+00
        -11   -1    0    0    0    0  0.00000000000E+00  0.00000000000E+00  0.45593999997E+02  0.45594000000E+02  0.51100000000E-03 0.  1.
         11   -1    0    0    0    0 -0.00000000000E+00 -0.00000000000E+00 -0.45593999997E+02  0.45594000000E+02  0.51100000000E-03 0. -1.
    9900012    2    1    2    0    0 -0.79333147375E+01  0.42137395433E+02  0.13806369290E+02  0.46142318636E+02  0.10000007978E+02 0.  0.
        -12    1    1    2    0    0  0.79333147375E+01 -0.42137395433E+02 -0.13806369290E+02  0.45045681364E+02  0.00000000000E+00 0.  1.
         11    1    3    3    0    0 -0.23126508461E+01  0.53033836797E+01  0.13677174301E+01  0.59451563158E+01  0.51100000000E-03 0. -1.
        -11    1    3    3    0    0  0.22303930798E+01  0.64947856343E+01  0.17587017241E+01  0.70887182016E+01  0.51100000000E-03 0.  1.
         12    1    3    3    0    0 -0.78510569711E+01  0.30339226119E+02  0.10679950136E+02  0.33108444119E+02  0.00000000000E+00 0. -1.
</event>
<event>
 7    1  0.4194672E-008  0.4614232E+02  0.7816164E-02  0.1320468E+00
        -11   -1    0    0    0    0  0.00000000000E+00  0.00000000000E+00  0.45593999997E+02  0.45594000000E+02  0.51100000000E-03 0.  1.
         11   -1    0    0    0    0 -0.00000000000E+00 -0.00000000000E+00 -0.45593999997E+02  0.45594000000E+02  0.51100000000E-03 0. -1.
    9900012    2    1    2    0    0  0.42829556518E+02 -0.20694046504E+01 -0.13800728003E+02  0.46142318292E+02  0.10000004839E+02 0.  0.
        -12    1    1    2    0    0 -0.42829556518E+02  0.20694046504E+01  0.13800728003E+02  0.45045681708E+02  0.00000000000E+00 0.  1.
         11    1    3    3    0    0  0.17281855713E+02 -0.32473854508E+01 -0.66733393809E+01  0.18808017118E+02  0.51100000000E-03 0. -1.
        -11    1    3    3    0    0  0.27617010350E+01 -0.96306895856E+00 -0.27869187396E+01  0.40399765777E+01  0.51100000000E-03 0.  1.
         12    1    3    3    0    0  0.22785999770E+02  0.21410497589E+01 -0.43404698823E+01  0.23294324596E+02  0.00000000000E+00 0. -1.
</event>
<event>
 7    1  0.4194672E-008  0.4614232E+02  0.7816164E-02  0.1320468E+00
        -11   -1    0    0    0    0  0.00000000000E+00  0.00000000000E+00  0.45593999997E+02  0.45594000000E+02  0.51100000000E-03 0.  1.
         11   -1    0    0    0    0 -0.00000000000E+00 -0.00000000000E+00 -0.45593999997E+02  0.45594000000E+02  0.51100000000E-03 0. -1.
    9900012    2    1    2    0    0  0.43890835729E+01 -0.17064311258E+02 -0.41456709086E+02  0.46142317614E+02  0.99999986618E+01 0.  0.
        -12    1    1    2    0    0 -0.43890835729E+01  0.17064311258E+02  0.41456709086E+02  0.45045682386E+02  0.00000000000E+00 0.  1.
         11    1    3    3    0    0  0.10854806922E+01 -0.10201550009E+02 -0.18527007260E+02  0.21177815968E+02  0.51100000000E-03 0. -1.
        -11    1    3    3    0    0 -0.10673721362E+01 -0.18277414704E+01 -0.11816451735E+02  0.12004518067E+02  0.51100000000E-03 0.  1.
        -12    1    3    3    0    0  0.43709750169E+01 -0.50350197784E+01 -0.11113250091E+02  0.12959983579E+02  0.00000000000E+00 0.  1.
</event>
<event>
 7    1  0.4194672E-008  0.4614232E+02  0.7816164E-02  0.1320468E+00
        -11   -1    0    0    0    0  0.00000000000E+00  0.00000000000E+00  0.45593999997E+02  0.45594000000E+02  0.51100000000E-03 0.  1.
         11   -1    0    0    0    0 -0.00000000000E+00 -0.00000000000E+00 -0.45593999997E+02  0.45594000000E+02  0.51100000000E-03 0. -1.
    9900012    2    1    2    0    0 -0.16956482326E+01 -0.22059806900E+02 -0.39237770672E+02  0.46142323729E+02  0.10000054416E+02 0.  0.
        -12    1    1    2    0    0  0.16956482326E+01  0.22059806900E+02  0.39237770672E+02  0.45045676271E+02  0.00000000000E+00 0.  1.
         11    1    3    3    0    0  0.60775821508E+00 -0.48399807530E+01 -0.11799388554E+02  0.12767942444E+02  0.51100000000E-03 0. -1.
        -11    1    3    3    0    0 -0.51138227903E+01 -0.10853280011E+02 -0.16272001204E+02  0.20216896250E+02  0.51100000000E-03 0.  1.
         12    1    3    3    0    0  0.28104163426E+01 -0.63665461361E+01 -0.11166380915E+02  0.13157485035E+02  0.00000000000E+00 0. -1.
</event>
<event>
 7    1  0.4194672E-008  0.4614232E+02  0.7816164E-02  0.1320468E+00
        -11   -1    0    0    0    0  0.00000000000E+00  0.00000000000E+00  0.45593999997E+02  0.45594000000E+02  0.51100000000E-03 0.  1.
         11   -1    0    0    0    0 -0.00000000000E+00 -0.00000000000E+00 -0.45593999997E+02  0.45594000000E+02  0.51100000000E-03 0. -1.
    9900012    2    1    2    0    0  0.44338415308E+01  0.15617390671E+02 -0.42018467467E+02  0.46142318183E+02  0.10000003847E+02 0.  0.
        -12    1    1    2    0    0 -0.44338415308E+01 -0.15617390671E+02  0.42018467467E+02  0.45045681817E+02  0.00000000000E+00 0.  1.
         11    1    3    3    0    0  0.38403695167E+01  0.12936778214E+02 -0.24174889610E+02  0.27686349642E+02  0.51100000000E-03 0. -1.
        -11    1    3    3    0    0  0.21182766658E+01  0.83395724760E+00 -0.74502162529E+01  0.77902697771E+01  0.51100000000E-03 0.  1.
         12    1    3    3    0    0 -0.15248046518E+01  0.18466552093E+01 -0.10393361604E+02  0.10665698763E+02  0.00000000000E+00 0. -1.
</event>
<event>
 7    1  0.4194672E-008  0.4614232E+02  0.7816164E-02  0.1320468E+00
        -11   -1    0    0    0    0  0.00000000000E+00  0.00000000000E+00  0.45593999997E+02  0.45594000000E+02  0.51100000000E-03 0. -1.
         11   -1    0    0    0    0 -0.00000000000E+00 -0.00000000000E+00 -0.45593999997E+02  0.45594000000E+02  0.51100000000E-03 0.  1.
    9900012    2    1    2    0    0  0.16473113094E+02  0.39998619318E+02  0.12564253118E+02  0.46142318090E+02  0.10000002997E+02 0.  0.
        -12    1    1    2    0    0 -0.16473113094E+02 -0.39998619318E+02 -0.12564253118E+02  0.45045681910E+02  0.00000000000E+00 0.  1.
         11    1    3    3    0    0  0.11024551801E+02  0.22197710896E+02  0.85065195719E+01  0.26203816266E+02  0.51100000000E-03 0. -1.
        -11    1    3    3    0    0  0.46904748495E+01  0.60303433302E+01  0.25151384304E+01  0.80431036658E+01  0.51100000000E-03 0.  1.
         12    1    3    3    0    0  0.75808644334E+00  0.11770565092E+02  0.15425951153E+01  0.11895398158E+02  0.00000000000E+00 0. -1.
</event>
<event>
 7    1  0.4194672E-008  0.4614231E+02  0.7816164E-02  0.1320468E+00
        -11   -1    0    0    0    0  0.00000000000E+00  0.00000000000E+00  0.45593999997E+02  0.45594000000E+02  0.51100000000E-03 0.  1.
         11   -1    0    0    0    0 -0.00000000000E+00 -0.00000000000E+00 -0.45593999997E+02  0.45594000000E+02  0.51100000000E-03 0. -1.
    9900012    2    1    2    0    0 -0.18670070319E+02  0.38088788472E+01 -0.40817090262E+02  0.46142312734E+02  0.99999541608E+01 0.  0.
        -12    1    1    2    0    0  0.18670070319E+02 -0.38088788472E+01  0.40817090262E+02  0.45045687266E+02  0.00000000000E+00 0.  1.
         11    1    3    3    0    0 -0.59688184940E+01  0.30619682723E+01 -0.23059635183E+02  0.24015603656E+02  0.51100000000E-03 0. -1.
        -11    1    3    3    0    0 -0.76171878285E+00  0.70734925984E+00 -0.53143514059E+00  0.11674682220E+01  0.51100000000E-03 0.  1.
         12    1    3    3    0    0 -0.11939533042E+02  0.39561314994E-01 -0.17226019938E+02  0.20959240857E+02  0.00000000000E+00 0. -1.
</event>
<event>
 7    1  0.4194672E-008  0.4614232E+02  0.7816164E-02  0.1320468E+00
        -11   -1    0    0    0    0  0.00000000000E+00  0.00000000000E+00  0.45593999997E+02  0.45594000000E+02  0.51100000000E-03 0.  1.
         11   -1    0    0    0    0 -0.00000000000E+00 -0.00000000000E+00 -0.45593999997E+02  0.45594000000E+02  0.51100000000E-03 0. -1.
    9900012    2    1    2    0    0 -0.12026446020E+02  0.21795525577E+02 -0.37542416623E+02  0.46142318909E+02  0.10000010464E+02 0.  0.
        -12    1    1    2    0    0  0.12026446020E+02 -0.21795525577E+02  0.37542416623E+02  0.45045681091E+02  0.00000000000E+00 0.  1.
         11    1    3    3    0    0 -0.20015732749E+01  0.48879449241E+01 -0.13978581659E+02  0.14943193989E+02  0.51100000000E-03 0. -1.
        -11    1    3    3    0    0 -0.11388317336E+01  0.56879392099E+01 -0.95155281343E+01  0.11144275037E+02  0.51100000000E-03 0.  1.
        -12    1    3    3    0    0 -0.88860410117E+01  0.11219641444E+02 -0.14048306830E+02  0.20054849882E+02  0.00000000000E+00 0.  1.
</event>
<event>
 7    1  0.4194672E-008  0.4614232E+02  0.7816164E-02  0.1320468E+00
        -11   -1    0    0    0    0  0.00000000000E+00  0.00000000000E+00  0.45593999997E+02  0.45594000000E+02  0.51100000000E-03 0. -1.
         11   -1    0    0    0    0 -0.00000000000E+00 -0.00000000000E+00 -0.45593999997E+02  0.45594000000E+02  0.51100000000E-03 0.  1.
    9900012    2    1    2    0    0  0.19428246761E+02  0.33691089335E+02  0.22728114063E+02  0.46142318280E+02  0.10000004733E+02 0.  0.
        -12    1    1    2    0    0 -0.19428246761E+02 -0.33691089335E+02 -0.22728114063E+02  0.45045681720E+02  0.00000000000E+00 0.  1.
         11    1    3    3    0    0  0.37625230555E+01  0.85063440042E+01  0.45644469790E+01  0.10360919098E+02  0.51100000000E-03 0. -1.
        -11    1    3    3    0    0  0.15131414467E+02  0.17744898893E+02  0.12882620352E+02  0.26642129192E+02  0.51100000000E-03 0.  1.
        -12    1    3    3    0    0  0.53430923848E+00  0.74398464380E+01  0.52810467321E+01  0.91392699910E+01  0.00000000000E+00 0.  1.
</event>
<event>
 7    1  0.4194672E-008  0.4614232E+02  0.7816164E-02  0.1320468E+00
        -11   -1    0    0    0    0  0.00000000000E+00  0.00000000000E+00  0.45593999997E+02  0.45594000000E+02  0.51100000000E-03 0.  1.
         11   -1    0    0    0    0 -0.00000000000E+00 -0.00000000000E+00 -0.45593999997E+02  0.45594000000E+02  0.51100000000E-03 0. -1.
    9900012    2    1    2    0    0  0.61018211199E+01 -0.14527682755E+02 -0.42199854951E+02  0.46142317132E+02  0.99999942630E+01 0.  0.
        -12    1    1    2    0    0 -0.61018211199E+01  0.14527682755E+02  0.42199854951E+02  0.45045682868E+02  0.00000000000E+00 0.  1.
         11    1    3    3    0    0  0.28410395816E+01 -0.13915283064E+02 -0.34623308358E+02  0.37422988798E+02  0.51100000000E-03 0.  1.
        -11    1    3    3    0    0  0.10829269608E+01 -0.11387570377E+01 -0.52881100343E+01  0.55166662387E+01  0.51100000000E-03 0. -1.
        -12    1    3    3    0    0  0.21778545775E+01  0.52635734655E+00 -0.22884365585E+01  0.32026620957E+01  0.00000000000E+00 0.  1.
</event>
<event>
 7    1  0.4194672E-008  0.4614232E+02  0.7816164E-02  0.1320468E+00
        -11   -1    0    0    0    0  0.00000000000E+00  0.00000000000E+00  0.45593999997E+02  0.45594000000E+02  0.51100000000E-03 0.  1.
         11   -1    0    0    0    0 -0.00000000000E+00 -0.00000000000E+00 -0.45593999997E+02  0.45594000000E+02  0.51100000000E-03 0. -1.
    9900012    2    1    2    0    0 -0.79261563331E-01  0.20754323748E+02 -0.39979560578E+02  0.46142317625E+02  0.99999987557E+01 0.  0.
        -12    1    1    2    0    0  0.79261563331E-01 -0.20754323748E+02  0.39979560578E+02  0.45045682375E+02  0.00000000000E+00 0.  1.
         11    1    3    3    0    0  0.20244220618E+01  0.45136625289E+01 -0.89924865779E+01  0.10263344933E+02  0.51100000000E-03 0.  1.
        -11    1    3    3    0    0 -0.42338481220E+01  0.11675000836E+02 -0.25877685350E+02  0.28703409446E+02  0.51100000000E-03 0. -1.
         12    1    3    3    0    0  0.21301644968E+01  0.45656603828E+01 -0.51093886499E+01  0.71755632455E+01  0.00000000000E+00 0. -1.
</event>
<event>
 7    1  0.4194672E-008  0.4614232E+02  0.7816164E-02  0.1320468E+00
        -11   -1    0    0    0    0  0.00000000000E+00  0.00000000000E+00  0.45593999997E+02  0.45594000000E+02  0.51100000000E-03 0.  1.
         11   -1    0    0    0    0 -0.00000000000E+00 -0.00000000000E+00 -0.45593999997E+02  0.45594000000E+02  0.51100000000E-03 0. -1.
    9900012    2    1    2    0    0  0.11076124782E+02  0.42601957155E+02 -0.95658778359E+01  0.46142319715E+02  0.10000017814E+02 0.  0.
        -12    1    1    2    0    0 -0.11076124782E+02 -0.42601957155E+02  0.95658778359E+01  0.45045680285E+02  0.00000000000E+00 0.  1.
         11    1    3    3    0    0  0.10625381466E+01  0.90293473681E+01  0.13058495840E+01  0.91849520741E+01  0.51100000000E-03 0. -1.
        -11    1    3    3    0    0  0.64856532891E+01  0.14562621516E+02 -0.39762215142E+01  0.16429972057E+02  0.51100000000E-03 0.  1.
         12    1    3    3    0    0  0.35279333466E+01  0.19009988270E+02 -0.68955059057E+01  0.20527395583E+02  0.00000000000E+00 0. -1.
</event>
<event>
 7    1  0.4194672E-008  0.4614232E+02  0.7816164E-02  0.1320468E+00
        -11   -1    0    0    0    0  0.00000000000E+00  0.00000000000E+00  0.45593999997E+02  0.45594000000E+02  0.51100000000E-03 0.  1.
         11   -1    0    0    0    0 -0.00000000000E+00 -0.00000000000E+00 -0.45593999997E+02  0.45594000000E+02  0.51100000000E-03 0. -1.
    9900012    2    1    2    0    0  0.68525439195E+01 -0.29093591636E+02 -0.33700431705E+02  0.46142317304E+02  0.99999958278E+01 0.  0.
        -12    1    1    2    0    0 -0.68525439195E+01  0.29093591636E+02  0.33700431705E+02  0.45045682696E+02  0.00000000000E+00 0.  1.
         11    1    3    3    0    0  0.29741671687E+00 -0.17410493791E+02 -0.22759486546E+02  0.28656726590E+02  0.51100000000E-03 0. -1.
        -11    1    3    3    0    0  0.20605095765E+01 -0.37142985639E+01 -0.20058951011E+01  0.46973746874E+01  0.51100000000E-03 0.  1.
        -12    1    3    3    0    0  0.44946176261E+01 -0.79687992811E+01 -0.89350500581E+01  0.12788216026E+02  0.00000000000E+00 0.  1.
</event>
<event>
 7    1  0.4194672E-008  0.4614232E+02  0.7816164E-02  0.1320468E+00
        -11   -1    0    0    0    0  0.00000000000E+00  0.00000000000E+00  0.45593999997E+02  0.45594000000E+02  0.51100000000E-03 0.  1.
         11   -1    0    0    0    0 -0.00000000000E+00 -0.00000000000E+00 -0.45593999997E+02  0.45594000000E+02  0.51100000000E-03 0. -1.
    9900012    2    1    2    0    0  0.26609346559E+02  0.10984679996E+02 -0.34646688623E+02  0.46142317061E+02  0.99999936148E+01 0.  0.
        -12    1    1    2    0    0 -0.26609346559E+02 -0.10984679996E+02  0.34646688623E+02  0.45045682939E+02  0.00000000000E+00 0.  1.
         11    1    3    3    0    0  0.51045656284E+01 -0.67645835885E+00 -0.90486546021E+01  0.10411164034E+02  0.51100000000E-03 0. -1.
        -11    1    3    3    0    0  0.17038733652E+02  0.10047992554E+02 -0.17851091296E+02  0.26644737934E+02  0.51100000000E-03 0.  1.
        -12    1    3    3    0    0  0.44660472781E+01  0.16131458010E+01 -0.77469427250E+01  0.90864150935E+01  0.00000000000E+00 0.  1.
</event>
<event>
 7    1  0.4194672E-008  0.4614232E+02  0.7816164E-02  0.1320468E+00
        -11   -1    0    0    0    0  0.00000000000E+00  0.00000000000E+00  0.45593999997E+02  0.45594000000E+02  0.51100000000E-03 0.  1.
         11   -1    0    0    0    0 -0.00000000000E+00 -0.00000000000E+00 -0.45593999997E+02  0.45594000000E+02  0.51100000000E-03 0. -1.
    9900012    2    1    2    0    0 -0.15545511921E+02 -0.12148446073E+02 -0.40495256842E+02  0.46142317526E+02  0.99999978557E+01 0.  0.
        -12    1    1    2    0    0  0.15545511921E+02  0.12148446073E+02  0.40495256842E+02  0.45045682474E+02  0.00000000000E+00 0.  1.
         11    1    3    3    0    0 -0.13654699053E+01 -0.15298855165E+01 -0.97236664274E+00  0.22694834004E+01  0.51100000000E-03 0. -1.
        -11    1    3    3    0    0 -0.50466084653E+01 -0.56131180846E+01 -0.24165124100E+02  0.25316567197E+02  0.51100000000E-03 0.  1.
        -12    1    3    3    0    0 -0.91334335500E+01 -0.50054424720E+01 -0.15357766100E+02  0.18556266928E+02  0.00000000000E+00 0.  1.
</event>
<event>
 7    1  0.4194672E-008  0.4614232E+02  0.7816164E-02  0.1320468E+00
        -11   -1    0    0    0    0  0.00000000000E+00  0.00000000000E+00  0.45593999997E+02  0.45594000000E+02  0.51100000000E-03 0.  1.
         11   -1    0    0    0    0 -0.00000000000E+00 -0.00000000000E+00 -0.45593999997E+02  0.45594000000E+02  0.51100000000E-03 0. -1.
    9900012    2    1    2    0    0  0.21039676859E+02  0.11700614554E+02 -0.38072839287E+02  0.46142317913E+02  0.10000001386E+02 0.  0.
        -12    1    1    2    0    0 -0.21039676859E+02 -0.11700614554E+02  0.38072839287E+02  0.45045682087E+02  0.00000000000E+00 0.  1.
         11    1    3    3    0    0  0.12306604082E+02  0.70441065693E+01 -0.14374785997E+02  0.20191741235E+02  0.51100000000E-03 0. -1.
        -11    1    3    3    0    0  0.42885934400E+01  0.15195466328E+01 -0.15148584377E+02  0.15817100384E+02  0.51100000000E-03 0.  1.
         12    1    3    3    0    0  0.44444793370E+01  0.31369613520E+01 -0.85494689131E+01  0.10133476294E+02  0.00000000000E+00 0. -1.
</event>
<event>
 7    1  0.4194672E-008  0.4614232E+02  0.7816164E-02  0.1320468E+00
        -11   -1    0    0    0    0  0.00000000000E+00  0.00000000000E+00  0.45593999997E+02  0.45594000000E+02  0.51100000000E-03 0.  1.
         11   -1    0    0    0    0 -0.00000000000E+00 -0.00000000000E+00 -0.45593999997E+02  0.45594000000E+02  0.51100000000E-03 0. -1.
    9900012    2    1    2    0    0 -0.22434757552E+02  0.26933561664E+02 -0.28290959058E+02  0.46142318134E+02  0.10000003397E+02 0.  0.
        -12    1    1    2    0    0  0.22434757552E+02 -0.26933561664E+02  0.28290959058E+02  0.45045681866E+02  0.00000000000E+00 0.  1.
         11    1    3    3    0    0 -0.14915611837E+02  0.19492344571E+02 -0.16441170655E+02  0.29542157439E+02  0.51100000000E-03 0. -1.
        -11    1    3    3    0    0 -0.44407956552E+01  0.72863261500E+01 -0.83946571724E+01  0.11970024399E+02  0.51100000000E-03 0.  1.
        -12    1    3    3    0    0 -0.30783500596E+01  0.15489094340E+00 -0.34551312305E+01  0.46301362954E+01  0.00000000000E+00 0.  1.
</event>
<event>
 7    1  0.4194672E-008  0.4614232E+02  0.7816164E-02  0.1320468E+00
        -11   -1    0    0    0    0  0.00000000000E+00  0.00000000000E+00  0.45593999997E+02  0.45594000000E+02  0.51100000000E-03 0.  1.
         11   -1    0    0    0    0 -0.00000000000E+00 -0.00000000000E+00 -0.45593999997E+02  0.45594000000E+02  0.51100000000E-03 0. -1.
    9900012    2    1    2    0    0 -0.11559207161E+02  0.40714542091E+02  0.15421553906E+02  0.46142317268E+02  0.99999955034E+01 0.  0.
        -12    1    1    2    0    0  0.11559207161E+02 -0.40714542091E+02 -0.15421553906E+02  0.45045682732E+02  0.00000000000E+00 0.  1.
         11    1    3    3    0    0 -0.34895828828E+01  0.23314011824E+02  0.90587329423E+01  0.25254325942E+02  0.51100000000E-03 0. -1.
        -11    1    3    3    0    0 -0.61660674952E+01  0.14943107415E+02  0.71583893819E+01  0.17679349150E+02  0.51100000000E-03 0.  1.
         12    1    3    3    0    0 -0.19035567831E+01  0.24574228521E+01 -0.79556841777E+00  0.32086421751E+01  0.00000000000E+00 0. -1.
</event>
<event>
 7    1  0.4194672E-008  0.4614232E+02  0.7816164E-02  0.1320468E+00
        -11   -1    0    0    0    0  0.00000000000E+00  0.00000000000E+00  0.45593999997E+02  0.45594000000E+02  0.51100000000E-03 0. -1.
         11   -1    0    0    0    0 -0.00000000000E+00 -0.00000000000E+00 -0.45593999997E+02  0.45594000000E+02  0.51100000000E-03 0.  1.
    9900012    2    1    2    0    0 -0.80791563012E+01 -0.29108695628E+02  0.33414434018E+02  0.46142319536E+02  0.10000016186E+02 0.  0.
        -12    1    1    2    0    0  0.80791563012E+01  0.29108695628E+02 -0.33414434018E+02  0.45045680464E+02  0.00000000000E+00 0.  1.
         11    1    3    3    0    0  0.10377048324E+01 -0.11284234322E+01  0.16156327932E+01  0.22272046033E+01  0.51100000000E-03 0. -1.
        -11    1    3    3    0    0 -0.33010021536E+01 -0.30072526236E+01  0.65658018581E+01  0.79403990996E+01  0.51100000000E-03 0.  1.
        -12    1    3    3    0    0 -0.58158589800E+01 -0.24973019572E+02  0.25232999367E+02  0.35974715833E+02  0.00000000000E+00 0.  1.
</event>
<event>
 7    1  0.4194672E-008  0.4614232E+02  0.7816164E-02  0.1320468E+00
        -11   -1    0    0    0    0  0.00000000000E+00  0.00000000000E+00  0.45593999997E+02  0.45594000000E+02  0.51100000000E-03 0.  1.
         11   -1    0    0    0    0 -0.00000000000E+00 -0.00000000000E+00 -0.45593999997E+02  0.45594000000E+02  0.51100000000E-03 0. -1.
    9900012    2    1    2    0    0  0.43082871980E+02  0.12097756897E+02  0.51598371777E+01  0.46142317636E+02  0.99999988567E+01 0.  0.
        -12    1    1    2    0    0 -0.43082871980E+02 -0.12097756897E+02 -0.51598371777E+01  0.45045682364E+02  0.00000000000E+00 0.  1.
         11    1    3    3    0    0  0.25118436683E+02  0.67102332524E+01  0.22589559656E+01  0.26097240736E+02  0.51100000000E-03 0. -1.
        -11    1    3    3    0    0  0.17783434841E+02  0.37471117101E+01  0.28322070442E+01  0.18393281326E+02  0.51100000000E-03 0.  1.
        -12    1    3    3    0    0  0.18100045566E+00  0.16404119342E+01  0.68674167867E-01  0.16517955745E+01  0.00000000000E+00 0.  1.
</event>
<event>
 7    1  0.4194672E-008  0.4614232E+02  0.7816164E-02  0.1320468E+00
        -11   -1    0    0    0    0  0.00000000000E+00  0.00000000000E+00  0.45593999997E+02  0.45594000000E+02  0.51100000000E-03 0. -1.
         11   -1    0    0    0    0 -0.00000000000E+00 -0.00000000000E+00 -0.45593999997E+02  0.45594000000E+02  0.51100000000E-03 0.  1.
    9900012    2    1    2    0    0  0.38663994230E+02  0.17948129646E+02 -0.14562742116E+02  0.46142320234E+02  0.10000022552E+02 0.  0.
        -12    1    1    2    0    0 -0.38663994230E+02 -0.17948129646E+02  0.14562742116E+02  0.45045679766E+02  0.00000000000E+00 0.  1.
         11    1    3    3    0    0  0.21618977947E+02  0.75509393002E+01 -0.41594903886E+01  0.23274411966E+02  0.51100000000E-03 0. -1.
        -11    1    3    3    0    0  0.75851616686E+01  0.28594079354E+01 -0.27768951791E+01  0.85686660792E+01  0.51100000000E-03 0.  1.
        -12    1    3    3    0    0  0.94598546146E+01  0.75377824105E+01 -0.76263565480E+01  0.14299242190E+02  0.00000000000E+00 0.  1.
</event>
<event>
 7    1  0.4194672E-008  0.4614232E+02  0.7816164E-02  0.1320468E+00
        -11   -1    0    0    0    0  0.00000000000E+00  0.00000000000E+00  0.45593999997E+02  0.45594000000E+02  0.51100000000E-03 0.  1.
         11   -1    0    0    0    0 -0.00000000000E+00 -0.00000000000E+00 -0.45593999997E+02  0.45594000000E+02  0.51100000000E-03 0. -1.
    9900012    2    1    2    0    0  0.35181373151E+02 -0.81637681613E+01  0.26920950894E+02  0.46142315141E+02  0.99999761104E+01 0.  0.
        -12    1    1    2    0    0 -0.35181373151E+02  0.81637681613E+01 -0.26920950894E+02  0.45045684859E+02  0.00000000000E+00 0.  1.
         11    1    3    3    0    0  0.17696833603E+02  0.60067204418E+00  0.11150093771E+02  0.20925183819E+02  0.51100000000E-03 0. -1.
        -11    1    3    3    0    0  0.29322250099E+00 -0.11050847693E+00  0.71710029327E+00  0.78257565148E+00  0.51100000000E-03 0.  1.
         12    1    3    3    0    0  0.17191317046E+02 -0.86539317286E+01  0.15053756830E+02  0.24434555671E+02  0.00000000000E+00 0. -1.
</event>
<event>
 7    1  0.4194672E-008  0.4614232E+02  0.7816164E-02  0.1320468E+00
        -11   -1    0    0    0    0  0.00000000000E+00  0.00000000000E+00  0.45593999997E+02  0.45594000000E+02  0.51100000000E-03 0. -1.
         11   -1    0    0    0    0 -0.00000000000E+00 -0.00000000000E+00 -0.45593999997E+02  0.45594000000E+02  0.51100000000E-03 0.  1.
    9900012    2    1    2    0    0  0.32810613688E+02  0.21563608032E+02  0.22081392005E+02  0.46142318356E+02  0.10000005422E+02 0.  0.
        -12    1    1    2    0    0 -0.32810613688E+02 -0.21563608032E+02 -0.22081392005E+02  0.45045681644E+02  0.00000000000E+00 0.  1.
         11    1    3    3    0    0  0.22333146329E+02  0.14071398647E+02  0.10720415843E+02  0.28490366809E+02  0.51100000000E-03 0. -1.
        -11    1    3    3    0    0  0.31021341545E+01  0.87144107102E+00  0.11483512316E+01  0.34207245818E+01  0.51100000000E-03 0.  1.
         12    1    3    3    0    0  0.73753332046E+01  0.66207683144E+01  0.10212624930E+02  0.14231226965E+02  0.00000000000E+00 0. -1.
</event>
<event>
 7    1  0.4194672E-008  0.4614232E+02  0.7816164E-02  0.1320468E+00
        -11   -1    0    0    0    0  0.00000000000E+00  0.00000000000E+00  0.45593999997E+02  0.45594000000E+02  0.51100000000E-03 0.  1.
         11   -1    0    0    0    0 -0.00000000000E+00 -0.00000000000E+00 -0.45593999997E+02  0.45594000000E+02  0.51100000000E-03 0. -1.
    9900012    2    1    2    0    0  0.24158603414E+02 -0.38947841072E+01 -0.37819387055E+02  0.46142317639E+02  0.99999988870E+01 0.  0.
        -12    1    1    2    0    0 -0.24158603414E+02  0.38947841072E+01  0.37819387055E+02  0.45045682361E+02  0.00000000000E+00 0.  1.
         11    1    3    3    0    0  0.71605068536E+01  0.26746486460E+00 -0.12772657684E+02  0.14645312575E+02  0.51100000000E-03 0. -1.
        -11    1    3    3    0    0  0.61197778238E+01  0.13741629116E+01 -0.12539816726E+02  0.14020948901E+02  0.51100000000E-03 0.  1.
         12    1    3    3    0    0  0.10878318736E+02 -0.55364118835E+01 -0.12506912645E+02  0.17476056163E+02  0.00000000000E+00 0. -1.
</event>
<event>
 7    1  0.4194672E-008  0.4614232E+02  0.7816164E-02  0.1320468E+00
        -11   -1    0    0    0    0  0.00000000000E+00  0.00000000000E+00  0.45593999997E+02  0.45594000000E+02  0.51100000000E-03 0. -1.
         11   -1    0    0    0    0 -0.00000000000E+00 -0.00000000000E+00 -0.45593999997E+02  0.45594000000E+02  0.51100000000E-03 0.  1.
    9900012    2    1    2    0    0 -0.37672611210E+02 -0.10397286046E+02  0.22400544219E+02  0.46142316812E+02  0.99999913465E+01 0.  0.
        -12    1    1    2    0    0  0.37672611210E+02  0.10397286046E+02 -0.22400544219E+02  0.45045683188E+02  0.00000000000E+00 0.  1.
         11    1    3    3    0    0 -0.14728910362E+02 -0.53388975555E+01  0.54861864103E+01  0.16599484002E+02  0.51100000000E-03 0. -1.
        -11    1    3    3    0    0 -0.12838478342E+01  0.92105580234E+00  0.32693118160E+00  0.16135344158E+01  0.51100000000E-03 0.  1.
         12    1    3    3    0    0 -0.21659853014E+02 -0.59794442934E+01  0.16587426627E+02  0.27929298394E+02  0.00000000000E+00 0. -1.
</event>
<event>
 7    1  0.4194672E-008  0.4614232E+02  0.7816164E-02  0.1320468E+00
        -11   -1    0    0    0    0  0.00000000000E+00  0.00000000000E+00  0.45593999997E+02  0.45594000000E+02  0.51100000000E-03 0. -1.
         11   -1    0    0    0    0 -0.00000000000E+00 -0.00000000000E+00 -0.45593999997E+02  0.45594000000E+02  0.51100000000E-03 0.  1.
    9900012    2    1    2    0    0  0.12704620409E+02  0.40944090701E+02  0.13830664563E+02  0.46142320681E+02  0.10000026623E+02 0.  0.
        -12    1    1    2    0    0 -0.12704620409E+02 -0.40944090701E+02 -0.13830664563E+02  0.45045679319E+02  0.00000000000E+00 0.  1.
         11    1    3    3    0    0  0.15169280165E+01  0.73624647587E+01  0.42497671745E+01  0.86352463328E+01  0.51100000000E-03 0.  1.
        -11    1    3    3    0    0  0.74958983001E+01  0.28044166831E+02  0.50725302417E+01  0.29468531485E+02  0.51100000000E-03 0. -1.
         12    1    3    3    0    0  0.36917940920E+01  0.55374591121E+01  0.45083671466E+01  0.80385428633E+01  0.00000000000E+00 0. -1.
</event>
<event>
 7    1  0.4194672E-008  0.4614232E+02  0.7816164E-02  0.1320468E+00
        -11   -1    0    0    0    0  0.00000000000E+00  0.00000000000E+00  0.45593999997E+02  0.45594000000E+02  0.51100000000E-03 0.  1.
         11   -1    0    0    0    0 -0.00000000000E+00 -0.00000000000E+00 -0.45593999997E+02  0.45594000000E+02  0.51100000000E-03 0. -1.
    9900012    2    1    2    0    0  0.18208962519E+02  0.40582353101E+02 -0.71147523540E+01  0.46142318739E+02  0.10000008918E+02 0.  0.
        -12    1    1    2    0    0 -0.18208962519E+02 -0.40582353101E+02  0.71147523540E+01  0.45045681261E+02  0.00000000000E+00 0.  1.
         11    1    3    3    0    0  0.11731818434E+00  0.22616465208E+01 -0.75078930018E+00  0.23858946699E+01  0.51100000000E-03 0. -1.
        -11    1    3    3    0    0  0.16660871209E+02  0.29218025403E+02 -0.75341654088E+01  0.34467974796E+02  0.51100000000E-03 0.  1.
        -12    1    3    3    0    0  0.14307731258E+01  0.91026811767E+01  0.11702023550E+01  0.92884492729E+01  0.00000000000E+00 0.  1.
</event>
<event>
 7    1  0.4194672E-008  0.4614232E+02  0.7816164E-02  0.1320468E+00
        -11   -1    0    0    0    0  0.00000000000E+00  0.00000000000E+00  0.45593999997E+02  0.45594000000E+02  0.51100000000E-03 0.  1.
         11   -1    0    0    0    0 -0.00000000000E+00 -0.00000000000E+00 -0.45593999997E+02  0.45594000000E+02  0.51100000000E-03 0. -1.
    9900012    2    1    2    0    0 -0.35599723429E+02 -0.11511354889E+02  0.25085091979E+02  0.46142318307E+02  0.10000004976E+02 0.  0.
        -12    1    1    2    0    0  0.35599723429E+02  0.11511354889E+02 -0.25085091979E+02  0.45045681693E+02  0.00000000000E+00 0.  1.
         11    1    3    3    0    0 -0.16805127273E+01 -0.12592914210E+01  0.29323731342E+01  0.36067645292E+01  0.51100000000E-03 0. -1.
        -11    1    3    3    0    0 -0.95588006177E+01 -0.63215153752E+00  0.28328989364E+01  0.99897748453E+01  0.51100000000E-03 0.  1.
         12    1    3    3    0    0 -0.24360410084E+02 -0.96199119307E+01  0.19319819908E+02  0.32545778932E+02  0.00000000000E+00 0. -1.
</event>
<event>
 7    1  0.4194672E-008  0.4614232E+02  0.7816164E-02  0.1320468E+00
        -11   -1    0    0    0    0  0.00000000000E+00  0.00000000000E+00  0.45593999997E+02  0.45594000000E+02  0.51100000000E-03 0. -1.
         11   -1    0    0    0    0 -0.00000000000E+00 -0.00000000000E+00 -0.45593999997E+02  0.45594000000E+02  0.51100000000E-03 0.  1.
    9900012    2    1    2    0    0  0.39954893979E+02 -0.19764537305E+02 -0.64871311217E+01  0.46142319209E+02  0.10000013199E+02 0.  0.
        -12    1    1    2    0    0 -0.39954893979E+02  0.19764537305E+02  0.64871311217E+01  0.45045680791E+02  0.00000000000E+00 0.  1.
         11    1    3    3    0    0  0.22545255189E+02 -0.10679794296E+02 -0.31501804003E+01  0.25144983089E+02  0.51100000000E-03 0. -1.
        -11    1    3    3    0    0  0.50253104154E+01 -0.39726321796E+01 -0.40527696522E+01  0.75802700031E+01  0.51100000000E-03 0.  1.
         12    1    3    3    0    0  0.12384328375E+02 -0.51121108297E+01  0.71581893073E+00  0.13417066117E+02  0.00000000000E+00 0. -1.
</event>
<event>
 7    1  0.4194672E-008  0.4614232E+02  0.7816164E-02  0.1320468E+00
        -11   -1    0    0    0    0  0.00000000000E+00  0.00000000000E+00  0.45593999997E+02  0.45594000000E+02  0.51100000000E-03 0. -1.
         11   -1    0    0    0    0 -0.00000000000E+00 -0.00000000000E+00 -0.45593999997E+02  0.45594000000E+02  0.51100000000E-03 0.  1.
    9900012    2    1    2    0    0  0.25567503536E+02 -0.39696666263E+01  0.36873536490E+02  0.46142321145E+02  0.10000030859E+02 0.  0.
        -12    1    1    2    0    0 -0.25567503536E+02  0.39696666263E+01 -0.36873536490E+02  0.45045678855E+02  0.00000000000E+00 0.  1.
         11    1    3    3    0    0  0.16336381663E+02 -0.41889035081E+01  0.20467119650E+02  0.26520317975E+02  0.51100000000E-03 0. -1.
        -11    1    3    3    0    0  0.56099138082E+01 -0.24534490609E+01  0.10981725387E+02  0.12573338378E+02  0.51100000000E-03 0.  1.
        -12    1    3    3    0    0  0.36212080648E+01  0.26726859427E+01  0.54246914531E+01  0.70486647925E+01  0.00000000000E+00 0.  1.
</event>
<event>
 7    1  0.4194672E-008  0.4614232E+02  0.7816164E-02  0.1320468E+00
        -11   -1    0    0    0    0  0.00000000000E+00  0.00000000000E+00  0.45593999997E+02  0.45594000000E+02  0.51100000000E-03 0.  1.
         11   -1    0    0    0    0 -0.00000000000E+00 -0.00000000000E+00 -0.45593999997E+02  0.45594000000E+02  0.51100000000E-03 0. -1.
    9900012    2    1    2    0    0  0.13227894103E+02  0.13386983182E+02 -0.40925846293E+02  0.46142318788E+02  0.10000009361E+02 0.  0.
        -12    1    1    2    0    0 -0.13227894103E+02 -0.13386983182E+02  0.40925846293E+02  0.45045681212E+02  0.00000000000E+00 0.  1.
         11    1    3    3    0    0  0.61784364157E+01  0.27251275440E+01 -0.17961415804E+02  0.19188847142E+02  0.51100000000E-03 0.  1.
        -11    1    3    3    0    0  0.73609399976E+00  0.83362887522E+00  0.82596762410E-01  0.11151654426E+01  0.51100000000E-03 0. -1.
         12    1    3    3    0    0  0.63133636872E+01  0.98282267632E+01 -0.23047027251E+02  0.25838306203E+02  0.00000000000E+00 0. -1.
</event>
<event>
 7    1  0.4194672E-008  0.4614232E+02  0.7816164E-02  0.1320468E+00
        -11   -1    0    0    0    0  0.00000000000E+00  0.00000000000E+00  0.45593999997E+02  0.45594000000E+02  0.51100000000E-03 0.  1.
         11   -1    0    0    0    0 -0.00000000000E+00 -0.00000000000E+00 -0.45593999997E+02  0.45594000000E+02  0.51100000000E-03 0. -1.
    9900012    2    1    2    0    0 -0.36713979985E+02  0.97070495137E+01 -0.24227471010E+02  0.46142317764E+02  0.10000000022E+02 0.  0.
        -12    1    1    2    0    0  0.36713979985E+02 -0.97070495137E+01  0.24227471010E+02  0.45045682236E+02  0.00000000000E+00 0.  1.
         11    1    3    3    0    0 -0.76280932407E+01  0.44170114664E+01 -0.86950671114E+01  0.12381518046E+02  0.51100000000E-03 0. -1.
        -11    1    3    3    0    0 -0.56214684535E+00  0.88733530760E+00 -0.16586962094E+00  0.10634312465E+01  0.51100000000E-03 0.  1.
        -12    1    3    3    0    0 -0.28523739899E+02  0.44027027397E+01 -0.15366534278E+02  0.32697368471E+02  0.00000000000E+00 0.  1.
</event>
<event>
 7    1  0.4194672E-008  0.4614232E+02  0.7816164E-02  0.1320468E+00
        -11   -1    0    0    0    0  0.00000000000E+00  0.00000000000E+00  0.45593999997E+02  0.45594000000E+02  0.51100000000E-03 0.  1.
         11   -1    0    0    0    0 -0.00000000000E+00 -0.00000000000E+00 -0.45593999997E+02  0.45594000000E+02  0.51100000000E-03 0. -1.
    9900012    2    1    2    0    0 -0.37248237663E+02  0.16144435564E+02 -0.19520233865E+02  0.46142317201E+02  0.99999948883E+01 0.  0.
        -12    1    1    2    0    0  0.37248237663E+02 -0.16144435564E+02  0.19520233865E+02  0.45045682799E+02  0.00000000000E+00 0.  1.
         11    1    3    3    0    0 -0.14733884880E+02  0.37473212123E+01 -0.51960977064E+01  0.16066400081E+02  0.51100000000E-03 0. -1.
        -11    1    3    3    0    0 -0.13546279635E+02  0.55227764324E+01 -0.10982221039E+02  0.18292400900E+02  0.51100000000E-03 0.  1.
        -12    1    3    3    0    0 -0.89680731478E+01  0.68743379196E+01 -0.33419151194E+01  0.11783516219E+02  0.00000000000E+00 0.  1.
</event>
<event>
 7    1  0.4194672E-008  0.4614232E+02  0.7816164E-02  0.1320468E+00
        -11   -1    0    0    0    0  0.00000000000E+00  0.00000000000E+00  0.45593999997E+02  0.45594000000E+02  0.51100000000E-03 0.  1.
         11   -1    0    0    0    0 -0.00000000000E+00 -0.00000000000E+00 -0.45593999997E+02  0.45594000000E+02  0.51100000000E-03 0. -1.
    9900012    2    1    2    0    0 -0.15282715937E+02 -0.29217092800E+02 -0.30690609914E+02  0.46142318132E+02  0.10000003380E+02 0.  0.
        -12    1    1    2    0    0  0.15282715937E+02  0.29217092800E+02  0.30690609914E+02  0.45045681868E+02  0.00000000000E+00 0.  1.
         11    1    3    3    0    0 -0.11758720286E+01 -0.42899236004E+01 -0.23687464558E+01  0.50395515235E+01  0.51100000000E-03 0. -1.
        -11    1    3    3    0    0 -0.11794527145E+01 -0.49695426696E+01 -0.94631528785E+01  0.10753544798E+02  0.51100000000E-03 0.  1.
         12    1    3    3    0    0 -0.12927391194E+02 -0.19957626530E+02 -0.18858710579E+02  0.30349221811E+02  0.00000000000E+00 0. -1.
</event>
<event>
 7    1  0.4194672E-008  0.4614232E+02  0.7816164E-02  0.1320468E+00
        -11   -1    0    0    0    0  0.00000000000E+00  0.00000000000E+00  0.45593999997E+02  0.45594000000E+02  0.51100000000E-03 0. -1.
         11   -1    0    0    0    0 -0.00000000000E+00 -0.00000000000E+00 -0.45593999997E+02  0.45594000000E+02  0.51100000000E-03 0.  1.
    9900012    2    1    2    0    0  0.15883865302E+02  0.39900881916E+02  0.13591760036E+02  0.46142317682E+02  0.99999992786E+01 0.  0.
        -12    1    1    2    0    0 -0.15883865302E+02 -0.39900881916E+02 -0.13591760036E+02  0.45045682318E+02  0.00000000000E+00 0.  1.
         11    1    3    3    0    0  0.19899485380E+01  0.85394626499E+01  0.25549039530E+01  0.91328994302E+01  0.51100000000E-03 0. -1.
        -11    1    3    3    0    0  0.18004041342E+01  0.65467306426E+01 -0.10572124403E+01  0.68715962889E+01  0.51100000000E-03 0.  1.
         12    1    3    3    0    0  0.12093512629E+02  0.24814688624E+02  0.12094068524E+02  0.30137821963E+02  0.00000000000E+00 0. -1.
</event>
<event>
 7    1  0.4194672E-008  0.4614232E+02  0.7816164E-02  0.1320468E+00
        -11   -1    0    0    0    0  0.00000000000E+00  0.00000000000E+00  0.45593999997E+02  0.45594000000E+02  0.51100000000E-03 0.  1.
         11   -1    0    0    0    0 -0.00000000000E+00 -0.00000000000E+00 -0.45593999997E+02  0.45594000000E+02  0.51100000000E-03 0. -1.
    9900012    2    1    2    0    0 -0.63756193012E+01 -0.37281625972E+02 -0.24465186295E+02  0.46142317664E+02  0.99999991185E+01 0.  0.
        -12    1    1    2    0    0  0.63756193012E+01  0.37281625972E+02  0.24465186295E+02  0.45045682336E+02  0.00000000000E+00 0.  1.
         11    1    3    3    0    0 -0.44158529324E+01 -0.18662215361E+02 -0.15550537657E+02  0.24690023512E+02  0.51100000000E-03 0. -1.
        -11    1    3    3    0    0 -0.97309836481E+00 -0.15182226589E+02 -0.46953931196E+01  0.15921483645E+02  0.51100000000E-03 0.  1.
        -12    1    3    3    0    0 -0.98666800401E+00 -0.34371840217E+01 -0.42192555180E+01  0.55308105081E+01  0.00000000000E+00 0.  1.
</event>
<event>
 7    1  0.4194672E-008  0.4614232E+02  0.7816164E-02  0.1320468E+00
        -11   -1    0    0    0    0  0.00000000000E+00  0.00000000000E+00  0.45593999997E+02  0.45594000000E+02  0.51100000000E-03 0.  1.
         11   -1    0    0    0    0 -0.00000000000E+00 -0.00000000000E+00 -0.45593999997E+02  0.45594000000E+02  0.51100000000E-03 0. -1.
    9900012    2    1    2    0    0  0.37959789715E+02 -0.72823867804E+01 -0.23132977131E+02  0.46142318482E+02  0.10000006577E+02 0.  0.
        -12    1    1    2    0    0 -0.37959789715E+02  0.72823867804E+01  0.23132977131E+02  0.45045681518E+02  0.00000000000E+00 0.  1.
         11    1    3    3    0    0  0.26894693045E+02 -0.59164440555E+01 -0.14553386204E+02  0.31146907945E+02  0.51100000000E-03 0. -1.
        -11    1    3    3    0    0  0.98406124382E+01 -0.29199218417E+01 -0.76922688992E+01  0.12827104030E+02  0.51100000000E-03 0.  1.
        -12    1    3    3    0    0  0.12244842320E+01  0.15539791169E+01 -0.88732202796E+00  0.21683065077E+01  0.00000000000E+00 0.  1.
</event>
<event>
 7    1  0.4194672E-008  0.4614232E+02  0.7816164E-02  0.1320468E+00
        -11   -1    0    0    0    0  0.00000000000E+00  0.00000000000E+00  0.45593999997E+02  0.45594000000E+02  0.51100000000E-03 0.  1.
         11   -1    0    0    0    0 -0.00000000000E+00 -0.00000000000E+00 -0.45593999997E+02  0.45594000000E+02  0.51100000000E-03 0. -1.
    9900012    2    1    2    0    0 -0.12632991233E+01  0.12233213603E+02 -0.43334352008E+02  0.46142317591E+02  0.99999984523E+01 0.  0.
        -12    1    1    2    0    0  0.12632991233E+01 -0.12233213603E+02  0.43334352008E+02  0.45045682409E+02  0.00000000000E+00 0.  1.
         11    1    3    3    0    0 -0.18888178858E+01  0.72650055794E+01 -0.12843245715E+02  0.14876051218E+02  0.51100000000E-03 0. -1.
        -11    1    3    3    0    0 -0.67576371905E+00 -0.24784466713E+00 -0.11677279716E+02  0.11699442098E+02  0.51100000000E-03 0.  1.
        -12    1    3    3    0    0  0.13012824816E+01  0.52160526910E+01 -0.18813826576E+02  0.19566824275E+02  0.00000000000E+00 0.  1.
</event>
<event>
 7    1  0.4194672E-008  0.4614232E+02  0.7816164E-02  0.1320468E+00
        -11   -1    0    0    0    0  0.00000000000E+00  0.00000000000E+00  0.45593999997E+02  0.45594000000E+02  0.51100000000E-03 0.  1.
         11   -1    0    0    0    0 -0.00000000000E+00 -0.00000000000E+00 -0.45593999997E+02  0.45594000000E+02  0.51100000000E-03 0. -1.
    9900012    2    1    2    0    0  0.16791943950E+02 -0.31876686389E+02 -0.27037399426E+02  0.46142317804E+02  0.10000000391E+02 0.  0.
        -12    1    1    2    0    0 -0.16791943950E+02  0.31876686389E+02  0.27037399426E+02  0.45045682196E+02  0.00000000000E+00 0.  1.
         11    1    3    3    0    0  0.19421099785E+01 -0.59191283992E+01 -0.16225645236E+01  0.64374364517E+01  0.51100000000E-03 0. -1.
        -11    1    3    3    0    0  0.42948292968E+01 -0.12982018809E+02 -0.13075648189E+02  0.18919591615E+02  0.51100000000E-03 0.  1.
         12    1    3    3    0    0  0.10555004675E+02 -0.12975539181E+02 -0.12339186714E+02  0.20785289738E+02  0.00000000000E+00 0. -1.
</event>
<event>
 7    1  0.4194672E-008  0.4614232E+02  0.7816164E-02  0.1320468E+00
        -11   -1    0    0    0    0  0.00000000000E+00  0.00000000000E+00  0.45593999997E+02  0.45594000000E+02  0.51100000000E-03 0.  1.
         11   -1    0    0    0    0 -0.00000000000E+00 -0.00000000000E+00 -0.45593999997E+02  0.45594000000E+02  0.51100000000E-03 0. -1.
    9900012    2    1    2    0    0  0.41249208512E+02  0.52182958544E+01 -0.17331638667E+02  0.46142317483E+02  0.99999974659E+01 0.  0.
        -12    1    1    2    0    0 -0.41249208512E+02 -0.52182958544E+01  0.17331638667E+02  0.45045682517E+02  0.00000000000E+00 0.  1.
         11    1    3    3    0    0  0.20591025046E+01  0.23872241238E+01 -0.25750194478E+01  0.40705610865E+01  0.51100000000E-03 0.  1.
        -11    1    3    3    0    0  0.23916038982E+02  0.24912055174E+01 -0.77469207448E+01  0.25262577200E+02  0.51100000000E-03 0. -1.
        -12    1    3    3    0    0  0.15274067026E+02  0.33986621321E+00 -0.70096984747E+01  0.16809179196E+02  0.00000000000E+00 0.  1.
</event>
<event>
 7    1  0.4194672E-008  0.4614232E+02  0.7816164E-02  0.1320468E+00
        -11   -1    0    0    0    0  0.00000000000E+00  0.00000000000E+00  0.45593999997E+02  0.45594000000E+02  0.51100000000E-03 0.  1.
         11   -1    0    0    0    0 -0.00000000000E+00 -0.00000000000E+00 -0.45593999997E+02  0.45594000000E+02  0.51100000000E-03 0. -1.
    9900012    2    1    2    0    0 -0.32218785189E+02  0.14513028247E+02 -0.27936273777E+02  0.46142317627E+02  0.99999987740E+01 0.  0.
        -12    1    1    2    0    0  0.32218785189E+02 -0.14513028247E+02  0.27936273777E+02  0.45045682373E+02  0.00000000000E+00 0.  1.
         11    1    3    3    0    0 -0.17228096672E+02  0.43237689263E+01 -0.10701565707E+02  0.20737063473E+02  0.51100000000E-03 0. -1.
        -11    1    3    3    0    0 -0.17966055528E+01  0.42277184294E+00 -0.39323216289E+00  0.18871034255E+01  0.51100000000E-03 0.  1.
         12    1    3    3    0    0 -0.13194082964E+02  0.97664874781E+01 -0.16841475907E+02  0.23518150728E+02  0.00000000000E+00 0. -1.
</event>
<event>
 7    1  0.4194672E-008  0.4614232E+02  0.7816164E-02  0.1320468E+00
        -11   -1    0    0    0    0  0.00000000000E+00  0.00000000000E+00  0.45593999997E+02  0.45594000000E+02  0.51100000000E-03 0.  1.
         11   -1    0    0    0    0 -0.00000000000E+00 -0.00000000000E+00 -0.45593999997E+02  0.45594000000E+02  0.51100000000E-03 0. -1.
    9900012    2    1    2    0    0  0.34634121849E+02 -0.21351604825E+02 -0.19331325722E+02  0.46142316755E+02  0.99999908255E+01 0.  0.
        -12    1    1    2    0    0 -0.34634121849E+02  0.21351604825E+02  0.19331325722E+02  0.45045683245E+02  0.00000000000E+00 0.  1.
         11    1    3    3    0    0  0.15851430759E+02 -0.14647482229E+02 -0.95497247830E+01  0.23601140575E+02  0.51100000000E-03 0. -1.
        -11    1    3    3    0    0  0.13850719430E+02 -0.51956621894E+01 -0.90240875726E+01  0.17328343576E+02  0.51100000000E-03 0.  1.
         12    1    3    3    0    0  0.49319716604E+01 -0.15084604061E+01 -0.75751336641E+00  0.52128326039E+01  0.00000000000E+00 0. -1.
</event>
<event>
 7    1  0.4194672E-008  0.4614231E+02  0.7816164E-02  0.1320468E+00
        -11   -1    0    0    0    0  0.00000000000E+00  0.00000000000E+00  0.45593999997E+02  0.45594000000E+02  0.51100000000E-03 0. -1.
         11   -1    0    0    0    0 -0.00000000000E+00 -0.00000000000E+00 -0.45593999997E+02  0.45594000000E+02  0.51100000000E-03 0.  1.
    9900012    2    1    2    0    0  0.14308638454E+02 -0.39049458507E+02  0.17306550222E+02  0.46142311808E+02  0.99999457141E+01 0.  0.
        -12    1    1    2    0    0 -0.14308638454E+02  0.39049458507E+02 -0.17306550222E+02  0.45045688192E+02  0.00000000000E+00 0.  1.
         11    1    3    3    0    0  0.33978292710E+01 -0.61703446202E+01  0.47580905234E+01  0.85004601156E+01  0.51100000000E-03 0. -1.
        -11    1    3    3    0    0  0.11219396078E+02 -0.24403369331E+02  0.10980718727E+02  0.29016813524E+02  0.51100000000E-03 0.  1.
        -12    1    3    3    0    0 -0.30858689521E+00 -0.84757445563E+01  0.15677409714E+01  0.86250381686E+01  0.00000000000E+00 0.  1.
</event>
<event>
 7    1  0.4194672E-008  0.4614232E+02  0.7816164E-02  0.1320468E+00
        -11   -1    0    0    0    0  0.00000000000E+00  0.00000000000E+00  0.45593999997E+02  0.45594000000E+02  0.51100000000E-03 0. -1.
         11   -1    0    0    0    0 -0.00000000000E+00 -0.00000000000E+00 -0.45593999997E+02  0.45594000000E+02  0.51100000000E-03 0.  1.
    9900012    2    1    2    0    0  0.43820591977E+02  0.99692600490E+01 -0.30794820852E+01  0.46142316111E+02  0.99999849538E+01 0.  0.
        -12    1    1    2    0    0 -0.43820591977E+02 -0.99692600490E+01  0.30794820852E+01  0.45045683889E+02  0.00000000000E+00 0.  1.
         11    1    3    3    0    0  0.31201496269E+02  0.64569885416E+01 -0.12021681590E+01  0.31885283109E+02  0.51100000000E-03 0. -1.
        -11    1    3    3    0    0  0.54719586051E+01 -0.43638840931E+00  0.10384084251E+01  0.55866857920E+01  0.51100000000E-03 0.  1.
        -12    1    3    3    0    0  0.71471371029E+01  0.39486599167E+01 -0.29157223514E+01  0.86703472097E+01  0.00000000000E+00 0.  1.
</event>
<event>
 7    1  0.4194672E-008  0.4614232E+02  0.7816164E-02  0.1320468E+00
        -11   -1    0    0    0    0  0.00000000000E+00  0.00000000000E+00  0.45593999997E+02  0.45594000000E+02  0.51100000000E-03 0. -1.
         11   -1    0    0    0    0 -0.00000000000E+00 -0.00000000000E+00 -0.45593999997E+02  0.45594000000E+02  0.51100000000E-03 0.  1.
    9900012    2    1    2    0    0  0.60677556313E+01 -0.32787242679E+02  0.30286837677E+02  0.46142317883E+02  0.10000001114E+02 0.  0.
        -12    1    1    2    0    0 -0.60677556313E+01  0.32787242679E+02 -0.30286837677E+02  0.45045682117E+02  0.00000000000E+00 0.  1.
         11    1    3    3    0    0  0.16227332658E+01 -0.12161728710E+02  0.16071367114E+02  0.20219538809E+02  0.51100000000E-03 0. -1.
        -11    1    3    3    0    0  0.21636754820E+01 -0.21212462365E+01  0.18388085673E+01  0.35443468221E+01  0.51100000000E-03 0.  1.
        -12    1    3    3    0    0  0.22813468836E+01 -0.18504267732E+02  0.12376661995E+02  0.22378432252E+02  0.00000000000E+00 0.  1.
</event>
<event>
 7    1  0.4194672E-008  0.4614232E+02  0.7816164E-02  0.1320468E+00
        -11   -1    0    0    0    0  0.00000000000E+00  0.00000000000E+00  0.45593999997E+02  0.45594000000E+02  0.51100000000E-03 0.  1.
         11   -1    0    0    0    0 -0.00000000000E+00 -0.00000000000E+00 -0.45593999997E+02  0.45594000000E+02  0.51100000000E-03 0. -1.
    9900012    2    1    2    0    0 -0.47746256581E+01 -0.40703712959E+02 -0.18695567308E+02  0.46142317235E+02  0.99999951991E+01 0.  0.
        -12    1    1    2    0    0  0.47746256581E+01  0.40703712959E+02  0.18695567308E+02  0.45045682765E+02  0.00000000000E+00 0.  1.
         11    1    3    3    0    0  0.76108568678E+00 -0.99005203622E-01 -0.13022258000E+01  0.15115706230E+01  0.51100000000E-03 0.  1.
        -11    1    3    3    0    0 -0.96240450601E+00 -0.28493690383E+01 -0.19447870923E+01  0.35815252959E+01  0.51100000000E-03 0. -1.
         12    1    3    3    0    0 -0.45733068388E+01 -0.37755338717E+02 -0.15448554415E+02  0.41049221316E+02  0.00000000000E+00 0. -1.
</event>
<event>
 7    1  0.4194672E-008  0.4614232E+02  0.7816164E-02  0.1320468E+00
        -11   -1    0    0    0    0  0.00000000000E+00  0.00000000000E+00  0.45593999997E+02  0.45594000000E+02  0.51100000000E-03 0.  1.
         11   -1    0    0    0    0 -0.00000000000E+00 -0.00000000000E+00 -0.45593999997E+02  0.45594000000E+02  0.51100000000E-03 0. -1.
    9900012    2    1    2    0    0 -0.22647347723E+02 -0.38784224840E+02 -0.34633838710E+01  0.46142317819E+02  0.10000000529E+02 0.  0.
        -12    1    1    2    0    0  0.22647347723E+02  0.38784224840E+02  0.34633838710E+01  0.45045682181E+02  0.00000000000E+00 0.  1.
         11    1    3    3    0    0 -0.18997505622E+01 -0.38466655969E+01 -0.23572032781E+01  0.48951298214E+01  0.51100000000E-03 0. -1.
        -11    1    3    3    0    0 -0.35059432496E+01 -0.87061457679E+01  0.23264510489E+01  0.96695908365E+01  0.51100000000E-03 0.  1.
         12    1    3    3    0    0 -0.17241653911E+02 -0.26231413475E+02 -0.34326316418E+01  0.31577597161E+02  0.00000000000E+00 0. -1.
</event>
<event>
 7    1  0.4194672E-008  0.4614232E+02  0.7816164E-02  0.1320468E+00
        -11   -1    0    0    0    0  0.00000000000E+00  0.00000000000E+00  0.45593999997E+02  0.45594000000E+02  0.51100000000E-03 0.  1.
         11   -1    0    0    0    0 -0.00000000000E+00 -0.00000000000E+00 -0.45593999997E+02  0.45594000000E+02  0.51100000000E-03 0. -1.
    9900012    2    1    2    0    0  0.19735088745E+02 -0.33763440438E+02 -0.22353297104E+02  0.46142317306E+02  0.99999958469E+01 0.  0.
        -12    1    1    2    0    0 -0.19735088745E+02  0.33763440438E+02  0.22353297104E+02  0.45045682694E+02  0.00000000000E+00 0.  1.
         11    1    3    3    0    0  0.12873208674E+02 -0.24619551850E+02 -0.11846952141E+02  0.30202518275E+02  0.51100000000E-03 0. -1.
        -11    1    3    3    0    0  0.27638666452E+01 -0.11302102133E+01 -0.26809140305E+01  0.40129333733E+01  0.51100000000E-03 0.  1.
         12    1    3    3    0    0  0.40980134257E+01 -0.80136783753E+01 -0.78254309323E+01  0.11926865658E+02  0.00000000000E+00 0. -1.
</event>
<event>
 7    1  0.4194672E-008  0.4614232E+02  0.7816164E-02  0.1320468E+00
        -11   -1    0    0    0    0  0.00000000000E+00  0.00000000000E+00  0.45593999997E+02  0.45594000000E+02  0.51100000000E-03 0.  1.
         11   -1    0    0    0    0 -0.00000000000E+00 -0.00000000000E+00 -0.45593999997E+02  0.45594000000E+02  0.51100000000E-03 0. -1.
    9900012    2    1    2    0    0 -0.15894212463E+01  0.37527643256E+02  0.24864898456E+02  0.46142318259E+02  0.10000004540E+02 0.  0.
        -12    1    1    2    0    0  0.15894212463E+01 -0.37527643256E+02 -0.24864898456E+02  0.45045681741E+02  0.00000000000E+00 0.  1.
         11    1    3    3    0    0 -0.13640286492E+01  0.22754671599E+02  0.16206636782E+02  0.27969460663E+02  0.51100000000E-03 0. -1.
        -11    1    3    3    0    0  0.25291345435E+01  0.63087281461E+01  0.20908506812E+01  0.71111341707E+01  0.51100000000E-03 0.  1.
         12    1    3    3    0    0 -0.27545271406E+01  0.84642435115E+01  0.65674109931E+01  0.11061723426E+02  0.00000000000E+00 0. -1.
</event>
<event>
 7    1  0.4194672E-008  0.4614232E+02  0.7816164E-02  0.1320468E+00
        -11   -1    0    0    0    0  0.00000000000E+00  0.00000000000E+00  0.45593999997E+02  0.45594000000E+02  0.51100000000E-03 0. -1.
         11   -1    0    0    0    0 -0.00000000000E+00 -0.00000000000E+00 -0.45593999997E+02  0.45594000000E+02  0.51100000000E-03 0.  1.
    9900012    2    1    2    0    0  0.21875214160E+02  0.37132319384E+02  0.13106467207E+02  0.46142316300E+02  0.99999866750E+01 0.  0.
        -12    1    1    2    0    0 -0.21875214160E+02 -0.37132319384E+02 -0.13106467207E+02  0.45045683700E+02  0.00000000000E+00 0.  1.
         11    1    3    3    0    0  0.79282518105E+01  0.18567910504E+02  0.23898543942E+01  0.20330663579E+02  0.51100000000E-03 0. -1.
        -11    1    3    3    0    0  0.75290781337E+01  0.71312942947E+01  0.47957542342E+01  0.11425481819E+02  0.51100000000E-03 0.  1.
         12    1    3    3    0    0  0.64178842155E+01  0.11433114585E+02  0.59208585781E+01  0.14386170902E+02  0.00000000000E+00 0. -1.
</event>
<event>
 7    1  0.4194672E-008  0.4614232E+02  0.7816164E-02  0.1320468E+00
        -11   -1    0    0    0    0  0.00000000000E+00  0.00000000000E+00  0.45593999997E+02  0.45594000000E+02  0.51100000000E-03 0.  1.
         11   -1    0    0    0    0 -0.00000000000E+00 -0.00000000000E+00 -0.45593999997E+02  0.45594000000E+02  0.51100000000E-03 0. -1.
    9900012    2    1    2    0    0  0.55175613158E+01 -0.16706450598E+02 -0.41467634560E+02  0.46142315518E+02  0.99999795418E+01 0.  0.
        -12    1    1    2    0    0 -0.55175613158E+01  0.16706450598E+02  0.41467634560E+02  0.45045684482E+02  0.00000000000E+00 0.  1.
         11    1    3    3    0    0  0.12172340266E+00 -0.79306184945E+01 -0.26369724830E+02  0.27536737537E+02  0.51100000000E-03 0. -1.
        -11    1    3    3    0    0  0.21721933108E+00  0.24086858988E-01  0.14250610746E+00  0.26090739039E+00  0.51100000000E-03 0.  1.
         12    1    3    3    0    0  0.51786185820E+01 -0.87999189625E+01 -0.15240415837E+02  0.18344670590E+02  0.00000000000E+00 0. -1.
</event>
<event>
 7    1  0.4194672E-008  0.4614232E+02  0.7816164E-02  0.1320468E+00
        -11   -1    0    0    0    0  0.00000000000E+00  0.00000000000E+00  0.45593999997E+02  0.45594000000E+02  0.51100000000E-03 0. -1.
         11   -1    0    0    0    0 -0.00000000000E+00 -0.00000000000E+00 -0.45593999997E+02  0.45594000000E+02  0.51100000000E-03 0.  1.
    9900012    2    1    2    0    0  0.39095592929E+02 -0.19871682250E+02  0.10284179442E+02  0.46142317758E+02  0.99999999679E+01 0.  0.
        -12    1    1    2    0    0 -0.39095592929E+02  0.19871682250E+02 -0.10284179442E+02  0.45045682242E+02  0.00000000000E+00 0.  1.
         11    1    3    3    0    0  0.16763354915E+02 -0.48586954734E+01  0.47982459095E+01  0.18100832958E+02  0.51100000000E-03 0. -1.
        -11    1    3    3    0    0  0.18398927548E+02 -0.11582740559E+02  0.65677622471E+01  0.22711581076E+02  0.51100000000E-03 0.  1.
        -12    1    3    3    0    0  0.39333104659E+01 -0.34302462180E+01 -0.10818287148E+01  0.53299037238E+01  0.00000000000E+00 0.  1.
</event>
<event>
 7    1  0.4766435E-008  0.4614232E+02  0.7816164E-02  0.1320468E+00
        -11   -1    0    0    0    0  0.00000000000E+00  0.00000000000E+00  0.45593999997E+02  0.45594000000E+02  0.51100000000E-03 0.  1.
         11   -1    0    0    0    0 -0.00000000000E+00 -0.00000000000E+00 -0.45593999997E+02  0.45594000000E+02  0.51100000000E-03 0. -1.
    9900012    2    1    2    0    0  0.39219167690E+02 -0.64436519908E+01 -0.21200226220E+02  0.46142319219E+02  0.10000013291E+02 0.  0.
        -12    1    1    2    0    0 -0.39219167690E+02  0.64436519908E+01  0.21200226220E+02  0.45045680781E+02  0.00000000000E+00 0.  1.
         11    1    3    3    0    0  0.22296637297E+02 -0.46493997006E+01 -0.13685984419E+02  0.26571848301E+02  0.51100000000E-03 0. -1.
        -11    1    3    3    0    0  0.15028539430E+02 -0.34739524462E+01 -0.56518361977E+01  0.16427677732E+02  0.51100000000E-03 0.  1.
        -12    1    3    3    0    0  0.18939909640E+01  0.16797001560E+01 -0.18624056025E+01  0.31427931866E+01  0.00000000000E+00 0.  1.
</event>
<event>
 7    1  0.4194672E-008  0.4614232E+02  0.7816164E-02  0.1320468E+00
        -11   -1    0    0    0    0  0.00000000000E+00  0.00000000000E+00  0.45593999997E+02  0.45594000000E+02  0.51100000000E-03 0. -1.
         11   -1    0    0    0    0 -0.00000000000E+00 -0.00000000000E+00 -0.45593999997E+02  0.45594000000E+02  0.51100000000E-03 0.  1.
    9900012    2    1    2    0    0 -0.16360964798E+02 -0.45684644271E+01  0.41720036465E+02  0.46142317865E+02  0.10000000950E+02 0.  0.
        -12    1    1    2    0    0  0.16360964798E+02  0.45684644271E+01 -0.41720036465E+02  0.45045682135E+02  0.00000000000E+00 0.  1.
         11    1    3    3    0    0 -0.86498949662E+01 -0.45498675315E+01  0.24786015151E+02  0.26643357986E+02  0.51100000000E-03 0. -1.
        -11    1    3    3    0    0 -0.20552550176E+01  0.11899332697E+01  0.10841272387E+02  0.11098342291E+02  0.51100000000E-03 0.  1.
         12    1    3    3    0    0 -0.56558148138E+01 -0.12085301653E+01  0.60927489275E+01  0.84006175881E+01  0.00000000000E+00 0. -1.
</event>
<event>
 7    1  0.4194672E-008  0.4614232E+02  0.7816164E-02  0.1320468E+00
        -11   -1    0    0    0    0  0.00000000000E+00  0.00000000000E+00  0.45593999997E+02  0.45594000000E+02  0.51100000000E-03 0. -1.
         11   -1    0    0    0    0 -0.00000000000E+00 -0.00000000000E+00 -0.45593999997E+02  0.45594000000E+02  0.51100000000E-03 0.  1.
    9900012    2    1    2    0    0  0.44393726111E+02  0.14862313553E+01 -0.74901063304E+01  0.46142317693E+02  0.99999993798E+01 0.  0.
        -12    1    1    2    0    0 -0.44393726111E+02 -0.14862313553E+01  0.74901063304E+01  0.45045682307E+02  0.00000000000E+00 0.  1.
         11    1    3    3    0    0  0.24768571989E+02  0.12526402891E+01 -0.61820656147E+01  0.25559131472E+02  0.51100000000E-03 0. -1.
        -11    1    3    3    0    0  0.14955214609E+02 -0.38758321642E+00  0.16020707529E+01  0.15045773350E+02  0.51100000000E-03 0.  1.
        -12    1    3    3    0    0  0.46699395128E+01  0.62117428254E+00 -0.29101114686E+01  0.55374128708E+01  0.00000000000E+00 0.  1.
</event>
<event>
 7    1  0.4194672E-008  0.4614232E+02  0.7816164E-02  0.1320468E+00
        -11   -1    0    0    0    0  0.00000000000E+00  0.00000000000E+00  0.45593999997E+02  0.45594000000E+02  0.51100000000E-03 0.  1.
         11   -1    0    0    0    0 -0.00000000000E+00 -0.00000000000E+00 -0.45593999997E+02  0.45594000000E+02  0.51100000000E-03 0. -1.
    9900012    2    1    2    0    0 -0.38123535318E+02 -0.21040680932E+02 -0.11532531874E+02  0.46142317736E+02  0.99999997712E+01 0.  0.
        -12    1    1    2    0    0  0.38123535318E+02  0.21040680932E+02  0.11532531874E+02  0.45045682264E+02  0.00000000000E+00 0.  1.
         11    1    3    3    0    0 -0.25339787814E+02 -0.13048892098E+02 -0.57935855922E+01  0.29085117599E+02  0.51100000000E-03 0. -1.
        -11    1    3    3    0    0 -0.97372000498E+01 -0.51641038791E+01 -0.65514307077E+01  0.12821945182E+02  0.51100000000E-03 0.  1.
        -12    1    3    3    0    0 -0.30465474539E+01 -0.28276849542E+01  0.81248442577E+00  0.42352549547E+01  0.00000000000E+00 0.  1.
</event>
<event>
 7    1  0.4194672E-008  0.4614232E+02  0.7816164E-02  0.1320468E+00
        -11   -1    0    0    0    0  0.00000000000E+00  0.00000000000E+00  0.45593999997E+02  0.45594000000E+02  0.51100000000E-03 0. -1.
         11   -1    0    0    0    0 -0.00000000000E+00 -0.00000000000E+00 -0.45593999997E+02  0.45594000000E+02  0.51100000000E-03 0.  1.
    9900012    2    1    2    0    0 -0.25521610833E+01 -0.18984751453E+02  0.40769832381E+02  0.46142317118E+02  0.99999941396E+01 0.  0.
        -12    1    1    2    0    0  0.25521610833E+01  0.18984751453E+02 -0.40769832381E+02  0.45045682882E+02  0.00000000000E+00 0.  1.
         11    1    3    3    0    0  0.21741250691E+01 -0.17487799405E+01  0.28250063602E+01  0.39706060359E+01  0.51100000000E-03 0. -1.
        -11    1    3    3    0    0 -0.18621546901E+01 -0.23053858889E+01  0.90290110999E+01  0.95029188090E+01  0.51100000000E-03 0.  1.
         12    1    3    3    0    0 -0.28641314622E+01 -0.14930585624E+02  0.28915814920E+02  0.32668792274E+02  0.00000000000E+00 0. -1.
</event>
<event>
 7    1  0.4194672E-008  0.4614232E+02  0.7816164E-02  0.1320468E+00
        -11   -1    0    0    0    0  0.00000000000E+00  0.00000000000E+00  0.45593999997E+02  0.45594000000E+02  0.51100000000E-03 0.  1.
         11   -1    0    0    0    0 -0.00000000000E+00 -0.00000000000E+00 -0.45593999997E+02  0.45594000000E+02  0.51100000000E-03 0. -1.
    9900012    2    1    2    0    0  0.40650071931E+02  0.92960758299E+01  0.17037255254E+02  0.46142318293E+02  0.10000004851E+02 0.  0.
        -12    1    1    2    0    0 -0.40650071931E+02 -0.92960758299E+01 -0.17037255254E+02  0.45045681707E+02  0.00000000000E+00 0.  1.
         11    1    3    3    0    0  0.19984533989E+02  0.14720650412E+01  0.47537593392E+01  0.20594824650E+02  0.51100000000E-03 0. -1.
        -11    1    3    3    0    0  0.14687959925E+02  0.37476059081E+01  0.80163672237E+01  0.17147677992E+02  0.51100000000E-03 0.  1.
         12    1    3    3    0    0  0.59775780171E+01  0.40764048806E+01  0.42671286912E+01  0.83998156509E+01  0.00000000000E+00 0. -1.
</event>
<event>
 7    1  0.4194672E-008  0.4614232E+02  0.7816164E-02  0.1320468E+00
        -11   -1    0    0    0    0  0.00000000000E+00  0.00000000000E+00  0.45593999997E+02  0.45594000000E+02  0.51100000000E-03 0.  1.
         11   -1    0    0    0    0 -0.00000000000E+00 -0.00000000000E+00 -0.45593999997E+02  0.45594000000E+02  0.51100000000E-03 0. -1.
    9900012    2    1    2    0    0  0.23449169636E+01  0.44817148172E+02 -0.38778978999E+01  0.46142317655E+02  0.99999990332E+01 0.  0.
        -12    1    1    2    0    0 -0.23449169636E+01 -0.44817148172E+02  0.38778978999E+01  0.45045682345E+02  0.00000000000E+00 0.  1.
         11    1    3    3    0    0  0.11098827624E+01  0.74722196893E+01 -0.12291481672E+01  0.76535424680E+01  0.51100000000E-03 0.  1.
        -11    1    3    3    0    0  0.25032056722E+01  0.36684866446E+02 -0.17744433453E+01  0.36812961227E+02  0.51100000000E-03 0. -1.
         12    1    3    3    0    0 -0.12681714710E+01  0.66006203590E+00 -0.87430638743E+00  0.16758139605E+01  0.00000000000E+00 0. -1.
</event>
<event>
 7    1  0.4194672E-008  0.4614232E+02  0.7816164E-02  0.1320468E+00
        -11   -1    0    0    0    0  0.00000000000E+00  0.00000000000E+00  0.45593999997E+02  0.45594000000E+02  0.51100000000E-03 0.  1.
         11   -1    0    0    0    0 -0.00000000000E+00 -0.00000000000E+00 -0.45593999997E+02  0.45594000000E+02  0.51100000000E-03 0. -1.
    9900012    2    1    2    0    0  0.11903755258E+02 -0.35750102900E+02 -0.24684901924E+02  0.46142316194E+02  0.99999857072E+01 0.  0.
        -12    1    1    2    0    0 -0.11903755258E+02  0.35750102900E+02  0.24684901924E+02  0.45045683806E+02  0.00000000000E+00 0.  1.
         11    1    3    3    0    0  0.10899726044E+02 -0.24577314724E+02 -0.12822692625E+02  0.29787075609E+02  0.51100000000E-03 0. -1.
        -11    1    3    3    0    0  0.69196344913E+00 -0.43036884127E+01 -0.51346362489E+01  0.67353572317E+01  0.51100000000E-03 0.  1.
         12    1    3    3    0    0  0.31206576419E+00 -0.68690997629E+01 -0.67275730493E+01  0.96198833531E+01  0.00000000000E+00 0. -1.
</event>
<event>
 7    1  0.4194672E-008  0.4614232E+02  0.7816164E-02  0.1320468E+00
        -11   -1    0    0    0    0  0.00000000000E+00  0.00000000000E+00  0.45593999997E+02  0.45594000000E+02  0.51100000000E-03 0. -1.
         11   -1    0    0    0    0 -0.00000000000E+00 -0.00000000000E+00 -0.45593999997E+02  0.45594000000E+02  0.51100000000E-03 0.  1.
    9900012    2    1    2    0    0 -0.12755207219E+02 -0.43199798327E+02  0.44214403992E+00  0.46142318986E+02  0.10000011170E+02 0.  0.
        -12    1    1    2    0    0  0.12755207219E+02  0.43199798327E+02 -0.44214403992E+00  0.45045681014E+02  0.00000000000E+00 0.  1.
         11    1    3    3    0    0 -0.67885199468E+01 -0.11712383237E+02 -0.12955648977E+01  0.13599353397E+02  0.51100000000E-03 0. -1.
        -11    1    3    3    0    0 -0.27595600063E+01 -0.11113610051E+02 -0.18770363090E+01  0.11603911641E+02  0.51100000000E-03 0.  1.
        -12    1    3    3    0    0 -0.32071272661E+01 -0.20373805038E+02  0.36147452466E+01  0.20939053948E+02  0.00000000000E+00 0.  1.
</event>
<event>
 7    1  0.4194672E-008  0.4614232E+02  0.7816164E-02  0.1320468E+00
        -11   -1    0    0    0    0  0.00000000000E+00  0.00000000000E+00  0.45593999997E+02  0.45594000000E+02  0.51100000000E-03 0. -1.
         11   -1    0    0    0    0 -0.00000000000E+00 -0.00000000000E+00 -0.45593999997E+02  0.45594000000E+02  0.51100000000E-03 0.  1.
    9900012    2    1    2    0    0  0.34154298890E+02 -0.27502445088E+02  0.10305963618E+02  0.46142317581E+02  0.99999983606E+01 0.  0.
        -12    1    1    2    0    0 -0.34154298890E+02  0.27502445088E+02 -0.10305963618E+02  0.45045682419E+02  0.00000000000E+00 0.  1.
         11    1    3    3    0    0  0.19778514374E+02 -0.16935455643E+02  0.99873469164E+01  0.27888104765E+02  0.51100000000E-03 0. -1.
        -11    1    3    3    0    0  0.87702997137E+01 -0.44833182602E+01  0.12532118980E+01  0.99291913071E+01  0.51100000000E-03 0.  1.
        -12    1    3    3    0    0  0.56054848022E+01 -0.60836711848E+01 -0.93459519674E+00  0.83250215095E+01  0.00000000000E+00 0.  1.
</event>
<event>
 7    1  0.4194672E-008  0.4614232E+02  0.7816164E-02  0.1320468E+00
        -11   -1    0    0    0    0  0.00000000000E+00  0.00000000000E+00  0.45593999997E+02  0.45594000000E+02  0.51100000000E-03 0.  1.
         11   -1    0    0    0    0 -0.00000000000E+00 -0.00000000000E+00 -0.45593999997E+02  0.45594000000E+02  0.51100000000E-03 0. -1.
    9900012    2    1    2    0    0 -0.39625290592E+02  0.17430059659E+02  0.12455634486E+02  0.46142318024E+02  0.10000002399E+02 0.  0.
        -12    1    1    2    0    0  0.39625290592E+02 -0.17430059659E+02 -0.12455634486E+02  0.45045681976E+02  0.00000000000E+00 0.  1.
         11    1    3    3    0    0 -0.20551881443E+02  0.55206666614E+01  0.74674931759E+01  0.22552628357E+02  0.51100000000E-03 0. -1.
        -11    1    3    3    0    0 -0.10361923988E+02  0.48338927160E+01  0.47023862108E+01  0.12363188257E+02  0.51100000000E-03 0.  1.
        -12    1    3    3    0    0 -0.87114851609E+01  0.70755002819E+01  0.28575509961E+00  0.11226501411E+02  0.00000000000E+00 0.  1.
</event>
<event>
 7    1  0.4194672E-008  0.4614232E+02  0.7816164E-02  0.1320468E+00
        -11   -1    0    0    0    0  0.00000000000E+00  0.00000000000E+00  0.45593999997E+02  0.45594000000E+02  0.51100000000E-03 0. -1.
         11   -1    0    0    0    0 -0.00000000000E+00 -0.00000000000E+00 -0.45593999997E+02  0.45594000000E+02  0.51100000000E-03 0.  1.
    9900012    2    1    2    0    0 -0.25156593434E+02 -0.22991449670E+02  0.29455933746E+02  0.46142323359E+02  0.10000051049E+02 0.  0.
        -12    1    1    2    0    0  0.25156593434E+02  0.22991449670E+02 -0.29455933746E+02  0.45045676641E+02  0.00000000000E+00 0.  1.
         11    1    3    3    0    0 -0.49331706659E+01 -0.24496603982E+01  0.69417605400E+01  0.88614360315E+01  0.51100000000E-03 0. -1.
        -11    1    3    3    0    0 -0.76347870766E+01 -0.34777495308E+01  0.79334536489E+01  0.11546618664E+02  0.51100000000E-03 0.  1.
         12    1    3    3    0    0 -0.12588635692E+02 -0.17064039741E+02  0.14580719557E+02  0.25734268664E+02  0.00000000000E+00 0. -1.
</event>
<event>
 7    1  0.4194672E-008  0.4614231E+02  0.7816164E-02  0.1320468E+00
        -11   -1    0    0    0    0  0.00000000000E+00  0.00000000000E+00  0.45593999997E+02  0.45594000000E+02  0.51100000000E-03 0.  1.
         11   -1    0    0    0    0 -0.00000000000E+00 -0.00000000000E+00 -0.45593999997E+02  0.45594000000E+02  0.51100000000E-03 0. -1.
    9900012    2    1    2    0    0  0.28095891397E+02  0.23528845572E+02 -0.26194051320E+02  0.46142311950E+02  0.99999470096E+01 0.  0.
        -12    1    1    2    0    0 -0.28095891397E+02 -0.23528845572E+02  0.26194051320E+02  0.45045688050E+02  0.00000000000E+00 0.  1.
         11    1    3    3    0    0  0.47973864707E+01  0.13786859204E+01 -0.88592077900E+00  0.50695707613E+01  0.51100000000E-03 0. -1.
        -11    1    3    3    0    0  0.11746322194E+02  0.89452752390E+01 -0.12581098923E+02  0.19397888663E+02  0.51100000000E-03 0.  1.
         12    1    3    3    0    0  0.11552182732E+02  0.13204884413E+02 -0.12727031618E+02  0.21674852526E+02  0.00000000000E+00 0. -1.
</event>
<event>
 7    1  0.4194672E-008  0.4614232E+02  0.7816164E-02  0.1320468E+00
        -11   -1    0    0    0    0  0.00000000000E+00  0.00000000000E+00  0.45593999997E+02  0.45594000000E+02  0.51100000000E-03 0. -1.
         11   -1    0    0    0    0 -0.00000000000E+00 -0.00000000000E+00 -0.45593999997E+02  0.45594000000E+02  0.51100000000E-03 0.  1.
    9900012    2    1    2    0    0  0.29759317443E+02  0.24748603633E+02  0.23043505311E+02  0.46142317705E+02  0.99999994848E+01 0.  0.
        -12    1    1    2    0    0 -0.29759317443E+02 -0.24748603633E+02 -0.23043505311E+02  0.45045682295E+02  0.00000000000E+00 0.  1.
         11    1    3    3    0    0  0.10253131042E+02  0.10685117949E+02  0.11508045488E+02  0.18754560858E+02  0.51100000000E-03 0. -1.
        -11    1    3    3    0    0  0.91798216044E+01  0.34739617762E+01  0.64597855484E+01  0.11750164454E+02  0.51100000000E-03 0.  1.
        -12    1    3    3    0    0  0.10326364796E+02  0.10589523908E+02  0.50756742748E+01  0.15637592392E+02  0.00000000000E+00 0.  1.
</event>
<event>
 7    1  0.4194672E-008  0.4614232E+02  0.7816164E-02  0.1320468E+00
        -11   -1    0    0    0    0  0.00000000000E+00  0.00000000000E+00  0.45593999997E+02  0.45594000000E+02  0.51100000000E-03 0.  1.
         11   -1    0    0    0    0 -0.00000000000E+00 -0.00000000000E+00 -0.45593999997E+02  0.45594000000E+02  0.51100000000E-03 0. -1.
    9900012    2    1    2    0    0  0.21333401091E+02 -0.39540674197E+02 -0.32456952853E+01  0.46142318121E+02  0.10000003279E+02 0.  0.
        -12    1    1    2    0    0 -0.21333401091E+02  0.39540674197E+02  0.32456952853E+01  0.45045681879E+02  0.00000000000E+00 0.  1.
         11    1    3    3    0    0  0.59093179507E+01 -0.88660908950E+01 -0.21095543956E+01  0.10861759821E+02  0.51100000000E-03 0. -1.
        -11    1    3    3    0    0  0.32325953309E+01 -0.40123925048E+01 -0.28956786595E+01  0.59104924792E+01  0.51100000000E-03 0.  1.
        -12    1    3    3    0    0  0.12191487809E+02 -0.26662190798E+02  0.17595377698E+01  0.29370065820E+02  0.00000000000E+00 0.  1.
</event>
<event>
 7    1  0.4194672E-008  0.4614232E+02  0.7816164E-02  0.1320468E+00
        -11   -1    0    0    0    0  0.00000000000E+00  0.00000000000E+00  0.45593999997E+02  0.45594000000E+02  0.51100000000E-03 0.  1.
         11   -1    0    0    0    0 -0.00000000000E+00 -0.00000000000E+00 -0.45593999997E+02  0.45594000000E+02  0.51100000000E-03 0. -1.
    9900012    2    1    2    0    0  0.55556099151E+01 -0.13970490569E+02 -0.42462618758E+02  0.46142318741E+02  0.10000008936E+02 0.  0.
        -12    1    1    2    0    0 -0.55556099151E+01  0.13970490569E+02  0.42462618758E+02  0.45045681259E+02  0.00000000000E+00 0.  1.
         11    1    3    3    0    0  0.66236014522E-01 -0.15832350589E+01 -0.30255305299E+00  0.16132448892E+01  0.51100000000E-03 0. -1.
        -11    1    3    3    0    0  0.10355713452E+01 -0.52092825949E+00 -0.81876003026E+01  0.82692546967E+01  0.51100000000E-03 0.  1.
         12    1    3    3    0    0  0.44538025554E+01 -0.11866327251E+02 -0.33972465403E+02  0.36259819155E+02  0.00000000000E+00 0. -1.
</event>
<event>
 7    1  0.4194672E-008  0.4614232E+02  0.7816164E-02  0.1320468E+00
        -11   -1    0    0    0    0  0.00000000000E+00  0.00000000000E+00  0.45593999997E+02  0.45594000000E+02  0.51100000000E-03 0.  1.
         11   -1    0    0    0    0 -0.00000000000E+00 -0.00000000000E+00 -0.45593999997E+02  0.45594000000E+02  0.51100000000E-03 0. -1.
    9900012    2    1    2    0    0 -0.34147120703E+02  0.20903457444E+02 -0.20642995350E+02  0.46142316051E+02  0.99999844048E+01 0.  0.
        -12    1    1    2    0    0  0.34147120703E+02 -0.20903457444E+02  0.20642995350E+02  0.45045683949E+02  0.00000000000E+00 0.  1.
         11    1    3    3    0    0 -0.14559615666E+02  0.10584889823E+02 -0.11461752746E+02  0.21339964320E+02  0.51100000000E-03 0. -1.
        -11    1    3    3    0    0 -0.11506060598E+02  0.74996644787E+01 -0.25361625813E+01  0.13966621591E+02  0.51100000000E-03 0.  1.
         12    1    3    3    0    0 -0.80814444391E+01  0.28189031425E+01 -0.66450800229E+01  0.10835730140E+02  0.00000000000E+00 0. -1.
</event>
<event>
 7    1  0.4194672E-008  0.4614231E+02  0.7816164E-02  0.1320468E+00
        -11   -1    0    0    0    0  0.00000000000E+00  0.00000000000E+00  0.45593999997E+02  0.45594000000E+02  0.51100000000E-03 0.  1.
         11   -1    0    0    0    0 -0.00000000000E+00 -0.00000000000E+00 -0.45593999997E+02  0.45594000000E+02  0.51100000000E-03 0. -1.
    9900012    2    1    2    0    0 -0.36575393703E+02 -0.16682451913E+02 -0.20323635210E+02  0.46142314585E+02  0.99999710395E+01 0.  0.
        -12    1    1    2    0    0  0.36575393703E+02  0.16682451913E+02  0.20323635210E+02  0.45045685415E+02  0.00000000000E+00 0.  1.
         11    1    3    3    0    0 -0.16535486075E+02 -0.76071368747E+01 -0.93947430247E+01  0.20482969216E+02  0.51100000000E-03 0. -1.
        -11    1    3    3    0    0 -0.16533925407E+02 -0.76574015482E+01 -0.11890018033E+02  0.21757275034E+02  0.51100000000E-03 0.  1.
        -12    1    3    3    0    0 -0.35059822214E+01 -0.14179134904E+01  0.96112584774E+00  0.39020703349E+01  0.00000000000E+00 0.  1.
</event>
<event>
 7    1  0.4194672E-008  0.4614232E+02  0.7816164E-02  0.1320468E+00
        -11   -1    0    0    0    0  0.00000000000E+00  0.00000000000E+00  0.45593999997E+02  0.45594000000E+02  0.51100000000E-03 0. -1.
         11   -1    0    0    0    0 -0.00000000000E+00 -0.00000000000E+00 -0.45593999997E+02  0.45594000000E+02  0.51100000000E-03 0.  1.
    9900012    2    1    2    0    0 -0.16199938844E+02  0.39482436548E+01  0.41845989570E+02  0.46142317747E+02  0.99999998744E+01 0.  0.
        -12    1    1    2    0    0  0.16199938844E+02 -0.39482436548E+01 -0.41845989570E+02  0.45045682253E+02  0.00000000000E+00 0.  1.
         11    1    3    3    0    0 -0.65157479875E+01  0.13401926887E+01  0.27333008825E+02  0.28130845348E+02  0.51100000000E-03 0. -1.
        -11    1    3    3    0    0 -0.18587845523E+01  0.21079438169E+01  0.42638649834E+01  0.51067653172E+01  0.51100000000E-03 0.  1.
         12    1    3    3    0    0 -0.78254063046E+01  0.50010714912E+00  0.10249115761E+02  0.12904707082E+02  0.00000000000E+00 0. -1.
</event>
<event>
 7    1  0.4194672E-008  0.4614232E+02  0.7816164E-02  0.1320468E+00
        -11   -1    0    0    0    0  0.00000000000E+00  0.00000000000E+00  0.45593999997E+02  0.45594000000E+02  0.51100000000E-03 0.  1.
         11   -1    0    0    0    0 -0.00000000000E+00 -0.00000000000E+00 -0.45593999997E+02  0.45594000000E+02  0.51100000000E-03 0. -1.
    9900012    2    1    2    0    0  0.39287539431E+02 -0.40194229385E+01 -0.21666724801E+02  0.46142317866E+02  0.10000000957E+02 0.  0.
        -12    1    1    2    0    0 -0.39287539431E+02  0.40194229385E+01  0.21666724801E+02  0.45045682134E+02  0.00000000000E+00 0.  1.
         11    1    3    3    0    0  0.94166968939E+01 -0.78685743690E+00 -0.66380976841E+01  0.11548058977E+02  0.51100000000E-03 0. -1.
        -11    1    3    3    0    0  0.21456854878E+02 -0.58050754041E+01 -0.12177593808E+02  0.25345400232E+02  0.51100000000E-03 0.  1.
        -12    1    3    3    0    0  0.84139876585E+01  0.25725099025E+01 -0.28510333093E+01  0.92488586565E+01  0.00000000000E+00 0.  1.
</event>
<event>
 7    1  0.4194672E-008  0.4614232E+02  0.7816164E-02  0.1320468E+00
        -11   -1    0    0    0    0  0.00000000000E+00  0.00000000000E+00  0.45593999997E+02  0.45594000000E+02  0.51100000000E-03 0.  1.
         11   -1    0    0    0    0 -0.00000000000E+00 -0.00000000000E+00 -0.45593999997E+02  0.45594000000E+02  0.51100000000E-03 0. -1.
    9900012    2    1    2    0    0  0.11929667854E+02  0.32574094415E+02 -0.28735430158E+02  0.46142317094E+02  0.99999939196E+01 0.  0.
        -12    1    1    2    0    0 -0.11929667854E+02 -0.32574094415E+02  0.28735430158E+02  0.45045682906E+02  0.00000000000E+00 0.  1.
         11    1    3    3    0    0  0.65305424185E+01  0.12258652736E+02 -0.85914951354E+01  0.16332064784E+02  0.51100000000E-03 0. -1.
        -11    1    3    3    0    0  0.67178405951E+01  0.14738438899E+02 -0.14008578218E+02  0.21414743225E+02  0.51100000000E-03 0.  1.
        -12    1    3    3    0    0 -0.13187151599E+01  0.55770027803E+01 -0.61353568048E+01  0.83955090856E+01  0.00000000000E+00 0.  1.
</event>
<event>
 7    1  0.4194672E-008  0.4614232E+02  0.7816164E-02  0.1320468E+00
        -11   -1    0    0    0    0  0.00000000000E+00  0.00000000000E+00  0.45593999997E+02  0.45594000000E+02  0.51100000000E-03 0. -1.
         11   -1    0    0    0    0 -0.00000000000E+00 -0.00000000000E+00 -0.45593999997E+02  0.45594000000E+02  0.51100000000E-03 0.  1.
    9900012    2    1    2    0    0 -0.65740975798E+01 -0.36615451148E+02  0.25400856386E+02  0.46142317333E+02  0.99999960997E+01 0.  0.
        -12    1    1    2    0    0  0.65740975798E+01  0.36615451148E+02 -0.25400856386E+02  0.45045682667E+02  0.00000000000E+00 0.  1.
         11    1    3    3    0    0 -0.19326039086E+01 -0.18384158076E+02  0.11017539549E+02  0.21519721281E+02  0.51100000000E-03 0. -1.
        -11    1    3    3    0    0 -0.23042416216E+01 -0.36902395714E+01  0.67597464079E+01  0.80387542135E+01  0.51100000000E-03 0.  1.
        -12    1    3    3    0    0 -0.23372520496E+01 -0.14541053501E+02  0.76235704282E+01  0.16583841839E+02  0.00000000000E+00 0.  1.
</event>
<event>
 7    1  0.4194672E-008  0.4614232E+02  0.7816164E-02  0.1320468E+00
        -11   -1    0    0    0    0  0.00000000000E+00  0.00000000000E+00  0.45593999997E+02  0.45594000000E+02  0.51100000000E-03 0.  1.
         11   -1    0    0    0    0 -0.00000000000E+00 -0.00000000000E+00 -0.45593999997E+02  0.45594000000E+02  0.51100000000E-03 0. -1.
    9900012    2    1    2    0    0  0.15735116264E+02  0.26372754571E+02 -0.32954474942E+02  0.46142317785E+02  0.10000000216E+02 0.  0.
        -12    1    1    2    0    0 -0.15735116264E+02 -0.26372754571E+02  0.32954474942E+02  0.45045682215E+02  0.00000000000E+00 0.  1.
         11    1    3    3    0    0  0.13754019695E+02  0.23266862505E+02 -0.30752070451E+02  0.40941541079E+02  0.51100000000E-03 0. -1.
        -11    1    3    3    0    0  0.23474069970E+01  0.13293899950E+01 -0.20350355740E+01  0.33791962679E+01  0.51100000000E-03 0.  1.
        -12    1    3    3    0    0 -0.36631042754E+00  0.17765020713E+01 -0.16736891651E+00  0.18215804382E+01  0.00000000000E+00 0.  1.
</event>
<event>
 7    1  0.4194672E-008  0.4614232E+02  0.7816164E-02  0.1320468E+00
        -11   -1    0    0    0    0  0.00000000000E+00  0.00000000000E+00  0.45593999997E+02  0.45594000000E+02  0.51100000000E-03 0.  1.
         11   -1    0    0    0    0 -0.00000000000E+00 -0.00000000000E+00 -0.45593999997E+02  0.45594000000E+02  0.51100000000E-03 0. -1.
    9900012    2    1    2    0    0 -0.18691439813E+02  0.71872297593E+01 -0.40349563282E+02  0.46142318177E+02  0.10000003790E+02 0.  0.
        -12    1    1    2    0    0  0.18691439813E+02 -0.71872297593E+01  0.40349563282E+02  0.45045681823E+02  0.00000000000E+00 0.  1.
         11    1    3    3    0    0 -0.19276790233E+01  0.16634368521E+01 -0.99001644474E+01  0.10222339503E+02  0.51100000000E-03 0. -1.
        -11    1    3    3    0    0 -0.15634737878E+01  0.31254205668E+01 -0.39281808798E+01  0.52576904901E+01  0.51100000000E-03 0.  1.
         12    1    3    3    0    0 -0.15200287002E+02  0.23983723404E+01 -0.26521217955E+02  0.30662288183E+02  0.00000000000E+00 0. -1.
</event>
<event>
 7    1  0.4194672E-008  0.4614232E+02  0.7816164E-02  0.1320468E+00
        -11   -1    0    0    0    0  0.00000000000E+00  0.00000000000E+00  0.45593999997E+02  0.45594000000E+02  0.51100000000E-03 0.  1.
         11   -1    0    0    0    0 -0.00000000000E+00 -0.00000000000E+00 -0.45593999997E+02  0.45594000000E+02  0.51100000000E-03 0. -1.
    9900012    2    1    2    0    0 -0.44208838379E+02 -0.86312510309E+01 -0.44004648463E+00  0.46142317342E+02  0.99999961787E+01 0.  0.
        -12    1    1    2    0    0  0.44208838379E+02  0.86312510309E+01  0.44004648463E+00  0.45045682658E+02  0.00000000000E+00 0.  1.
         11    1    3    3    0    0 -0.92635082264E+01 -0.18086442740E+00 -0.20565649042E+01  0.94907721534E+01  0.51100000000E-03 0.  1.
        -11    1    3    3    0    0 -0.14101379432E+02 -0.10912528709E+01  0.31619489141E+01  0.14492675940E+02  0.51100000000E-03 0. -1.
         12    1    3    3    0    0 -0.20843950721E+02 -0.73591337326E+01 -0.15454304946E+01  0.22158869249E+02  0.00000000000E+00 0. -1.
</event>
<event>
 7    1  0.4194672E-008  0.4614231E+02  0.7816164E-02  0.1320468E+00
        -11   -1    0    0    0    0  0.00000000000E+00  0.00000000000E+00  0.45593999997E+02  0.45594000000E+02  0.51100000000E-03 0. -1.
         11   -1    0    0    0    0 -0.00000000000E+00 -0.00000000000E+00 -0.45593999997E+02  0.45594000000E+02  0.51100000000E-03 0.  1.
    9900012    2    1    2    0    0  0.36970402319E+02  0.18892296834E+02  0.17475258765E+02  0.46142309904E+02  0.99999283539E+01 0.  0.
        -12    1    1    2    0    0 -0.36970402319E+02 -0.18892296834E+02 -0.17475258765E+02  0.45045690096E+02  0.00000000000E+00 0.  1.
         11    1    3    3    0    0  0.68726709382E+01  0.32112968796E+01  0.22071422404E+01  0.79004753404E+01  0.51100000000E-03 0. -1.
        -11    1    3    3    0    0  0.87543309312E+01  0.73614312891E+00  0.57627046458E+01  0.10506616099E+02  0.51100000000E-03 0.  1.
         12    1    3    3    0    0  0.21343400449E+02  0.14944856826E+02  0.95054118792E+01  0.27735218465E+02  0.00000000000E+00 0. -1.
</event>
<event>
 7    1  0.4194672E-008  0.4614232E+02  0.7816164E-02  0.1320468E+00
        -11   -1    0    0    0    0  0.00000000000E+00  0.00000000000E+00  0.45593999997E+02  0.45594000000E+02  0.51100000000E-03 0.  1.
         11   -1    0    0    0    0 -0.00000000000E+00 -0.00000000000E+00 -0.45593999997E+02  0.45594000000E+02  0.51100000000E-03 0. -1.
    9900012    2    1    2    0    0  0.38677281352E+02 -0.22668131549E+02 -0.43974099884E+01  0.46142317684E+02  0.99999992988E+01 0.  0.
        -12    1    1    2    0    0 -0.38677281352E+02  0.22668131549E+02  0.43974099884E+01  0.45045682316E+02  0.00000000000E+00 0.  1.
         11    1    3    3    0    0  0.84730343023E+01 -0.27602728235E+01 -0.45589886771E-01  0.89114249728E+01  0.51100000000E-03 0. -1.
        -11    1    3    3    0    0  0.27239877318E+02 -0.18181172711E+02 -0.62036044343E+01  0.33332426640E+02  0.51100000000E-03 0.  1.
        -12    1    3    3    0    0  0.29643697312E+01 -0.17266860143E+01  0.18517843326E+01  0.38984660714E+01  0.00000000000E+00 0.  1.
</event>
<event>
 7    1  0.5540508E-008  0.4614232E+02  0.7816164E-02  0.1320468E+00
        -11   -1    0    0    0    0  0.00000000000E+00  0.00000000000E+00  0.45593999997E+02  0.45594000000E+02  0.51100000000E-03 0.  1.
         11   -1    0    0    0    0 -0.00000000000E+00 -0.00000000000E+00 -0.45593999997E+02  0.45594000000E+02  0.51100000000E-03 0. -1.
    9900012    2    1    2    0    0  0.41473174181E+02  0.86511994389E+01  0.15305104362E+02  0.46142315991E+02  0.99999838544E+01 0.  0.
        -12    1    1    2    0    0 -0.41473174181E+02 -0.86511994389E+01 -0.15305104362E+02  0.45045684009E+02  0.00000000000E+00 0.  1.
         11    1    3    3    0    0  0.14380260680E+02  0.16382034606E+01  0.28834149314E+01  0.14757699337E+02  0.51100000000E-03 0. -1.
        -11    1    3    3    0    0  0.17004455919E+02  0.24738950223E+01  0.44537848129E+01  0.17751278182E+02  0.51100000000E-03 0.  1.
        -12    1    3    3    0    0  0.10088457582E+02  0.45391009560E+01  0.79679046181E+01  0.13633338471E+02  0.00000000000E+00 0.  1.
</event>
<event>
 7    1  0.4194672E-008  0.4614232E+02  0.7816164E-02  0.1320468E+00
        -11   -1    0    0    0    0  0.00000000000E+00  0.00000000000E+00  0.45593999997E+02  0.45594000000E+02  0.51100000000E-03 0.  1.
         11   -1    0    0    0    0 -0.00000000000E+00 -0.00000000000E+00 -0.45593999997E+02  0.45594000000E+02  0.51100000000E-03 0. -1.
    9900012    2    1    2    0    0 -0.31211925840E+02 -0.10940289394E+01 -0.32461240834E+02  0.46142319070E+02  0.10000011938E+02 0.  0.
        -12    1    1    2    0    0  0.31211925840E+02  0.10940289394E+01  0.32461240834E+02  0.45045680930E+02  0.00000000000E+00 0.  1.
         11    1    3    3    0    0 -0.26582641739E+02  0.27198681270E+01 -0.27214738649E+02  0.38140221872E+02  0.51100000000E-03 0. -1.
        -11    1    3    3    0    0 -0.96104201557E+00 -0.45984404342E+00 -0.10689257009E+01  0.15091920736E+01  0.51100000000E-03 0.  1.
         12    1    3    3    0    0 -0.36682420856E+01 -0.33540530230E+01 -0.41775764835E+01  0.64929051245E+01  0.00000000000E+00 0. -1.
</event>
<event>
 7    1  0.4194672E-008  0.4614232E+02  0.7816164E-02  0.1320468E+00
        -11   -1    0    0    0    0  0.00000000000E+00  0.00000000000E+00  0.45593999997E+02  0.45594000000E+02  0.51100000000E-03 0.  1.
         11   -1    0    0    0    0 -0.00000000000E+00 -0.00000000000E+00 -0.45593999997E+02  0.45594000000E+02  0.51100000000E-03 0. -1.
    9900012    2    1    2    0    0 -0.36649732385E+02 -0.18499196623E+02  0.18538887992E+02  0.46142317327E+02  0.99999960371E+01 0.  0.
        -12    1    1    2    0    0  0.36649732385E+02  0.18499196623E+02 -0.18538887992E+02  0.45045682673E+02  0.00000000000E+00 0.  1.
         11    1    3    3    0    0 -0.23410124103E+02 -0.14275353335E+02  0.13406934433E+02  0.30521558192E+02  0.51100000000E-03 0. -1.
        -11    1    3    3    0    0 -0.11516648124E+02 -0.46035296415E+01  0.28316865850E+01  0.12721796978E+02  0.51100000000E-03 0.  1.
        -12    1    3    3    0    0 -0.17229601584E+01  0.37968635351E+00  0.23002669741E+01  0.28989621568E+01  0.00000000000E+00 0.  1.
</event>
<event>
 7    1  0.4194672E-008  0.4614232E+02  0.7816164E-02  0.1320468E+00
        -11   -1    0    0    0    0  0.00000000000E+00  0.00000000000E+00  0.45593999997E+02  0.45594000000E+02  0.51100000000E-03 0.  1.
         11   -1    0    0    0    0 -0.00000000000E+00 -0.00000000000E+00 -0.45593999997E+02  0.45594000000E+02  0.51100000000E-03 0. -1.
    9900012    2    1    2    0    0  0.27156062920E+02 -0.25424091424E+02 -0.25402309327E+02  0.46142317663E+02  0.99999991042E+01 0.  0.
        -12    1    1    2    0    0 -0.27156062920E+02  0.25424091424E+02  0.25402309327E+02  0.45045682337E+02  0.00000000000E+00 0.  1.
         11    1    3    3    0    0  0.16161167819E+02 -0.15909078715E+02 -0.12293456625E+02  0.25795565643E+02  0.51100000000E-03 0.  1.
        -11    1    3    3    0    0  0.77843316624E+00 -0.16895424600E+01  0.15394437124E+00  0.18666041490E+01  0.51100000000E-03 0. -1.
         12    1    3    3    0    0  0.10216461935E+02 -0.78254702492E+01 -0.13262797074E+02  0.18480147871E+02  0.00000000000E+00 0. -1.
</event>
<event>
 7    1  0.4194672E-008  0.4614232E+02  0.7816164E-02  0.1320468E+00
        -11   -1    0    0    0    0  0.00000000000E+00  0.00000000000E+00  0.45593999997E+02  0.45594000000E+02  0.51100000000E-03 0. -1.
         11   -1    0    0    0    0 -0.00000000000E+00 -0.00000000000E+00 -0.45593999997E+02  0.45594000000E+02  0.51100000000E-03 0.  1.
    9900012    2    1    2    0    0  0.98240904874E-01 -0.44971000560E+02  0.25909391397E+01  0.46142317540E+02  0.99999979878E+01 0.  0.
        -12    1    1    2    0    0 -0.98240904874E-01  0.44971000560E+02 -0.25909391397E+01  0.45045682460E+02  0.00000000000E+00 0.  1.
         11    1    3    3    0    0 -0.31758450555E+01 -0.15666698687E+02  0.57303381387E+00  0.15995618386E+02  0.51100000000E-03 0. -1.
        -11    1    3    3    0    0  0.25333761122E+01 -0.18611396117E+02  0.41062290672E+01  0.19226626780E+02  0.51100000000E-03 0.  1.
        -12    1    3    3    0    0  0.74070984811E+00 -0.10692905757E+02 -0.20883237414E+01  0.10920072374E+02  0.00000000000E+00 0.  1.
</event>
<event>
 7    1  0.4194672E-008  0.4614232E+02  0.7816164E-02  0.1320468E+00
        -11   -1    0    0    0    0  0.00000000000E+00  0.00000000000E+00  0.45593999997E+02  0.45594000000E+02  0.51100000000E-03 0.  1.
         11   -1    0    0    0    0 -0.00000000000E+00 -0.00000000000E+00 -0.45593999997E+02  0.45594000000E+02  0.51100000000E-03 0. -1.
    9900012    2    1    2    0    0  0.33707279086E+02 -0.53908175982E+01 -0.29391691497E+02  0.46142321996E+02  0.10000038614E+02 0.  0.
        -12    1    1    2    0    0 -0.33707279086E+02  0.53908175982E+01  0.29391691497E+02  0.45045678004E+02  0.00000000000E+00 0.  1.
         11    1    3    3    0    0  0.49011330296E+01 -0.17335752049E+01 -0.57397071470E+01  0.77440704000E+01  0.51100000000E-03 0. -1.
        -11    1    3    3    0    0  0.77465679906E+01 -0.48446423591E+01 -0.65237137280E+01  0.11226696588E+02  0.51100000000E-03 0.  1.
         12    1    3    3    0    0  0.21059578066E+02  0.11873999657E+01 -0.17128270622E+02  0.27171555007E+02  0.00000000000E+00 0. -1.
</event>
<event>
 7    1  0.4194672E-008  0.4614232E+02  0.7816164E-02  0.1320468E+00
        -11   -1    0    0    0    0  0.00000000000E+00  0.00000000000E+00  0.45593999997E+02  0.45594000000E+02  0.51100000000E-03 0.  1.
         11   -1    0    0    0    0 -0.00000000000E+00 -0.00000000000E+00 -0.45593999997E+02  0.45594000000E+02  0.51100000000E-03 0. -1.
    9900012    2    1    2    0    0 -0.74518853179E+01  0.75728051239E+01 -0.43774826526E+02  0.46142318636E+02  0.10000007974E+02 0.  0.
        -12    1    1    2    0    0  0.74518853179E+01 -0.75728051239E+01  0.43774826526E+02  0.45045681364E+02  0.00000000000E+00 0.  1.
         11    1    3    3    0    0 -0.14955217574E+01  0.30022806061E+01 -0.25155690680E+01  0.41926557409E+01  0.51100000000E-03 0.  1.
        -11    1    3    3    0    0 -0.79918516723E+00  0.41782453783E+00 -0.68531301602E+01  0.69122114790E+01  0.51100000000E-03 0. -1.
        -12    1    3    3    0    0 -0.51571783932E+01  0.41526999800E+01 -0.34406127297E+02  0.35037451416E+02  0.00000000000E+00 0.  1.
</event>
<event>
 7    1  0.4194672E-008  0.4614232E+02  0.7816164E-02  0.1320468E+00
        -11   -1    0    0    0    0  0.00000000000E+00  0.00000000000E+00  0.45593999997E+02  0.45594000000E+02  0.51100000000E-03 0.  1.
         11   -1    0    0    0    0 -0.00000000000E+00 -0.00000000000E+00 -0.45593999997E+02  0.45594000000E+02  0.51100000000E-03 0. -1.
    9900012    2    1    2    0    0  0.45405064628E+01 -0.67244674652E+01 -0.44308896655E+02  0.46142323355E+02  0.10000051010E+02 0.  0.
        -12    1    1    2    0    0 -0.45405064628E+01  0.67244674652E+01  0.44308896655E+02  0.45045676645E+02  0.00000000000E+00 0.  1.
         11    1    3    3    0    0  0.70062426370E+00 -0.88391101218E+00 -0.23353456125E+02  0.23380677627E+02  0.51100000000E-03 0. -1.
        -11    1    3    3    0    0 -0.62271022544E+00 -0.24233009026E+01 -0.27950452497E+01  0.37513242326E+01  0.51100000000E-03 0.  1.
         12    1    3    3    0    0  0.44625924245E+01 -0.34172555504E+01 -0.18160395280E+02  0.19010321495E+02  0.00000000000E+00 0. -1.
</event>
<event>
 7    1  0.4194672E-008  0.4614232E+02  0.7816164E-02  0.1320468E+00
        -11   -1    0    0    0    0  0.00000000000E+00  0.00000000000E+00  0.45593999997E+02  0.45594000000E+02  0.51100000000E-03 0.  1.
         11   -1    0    0    0    0 -0.00000000000E+00 -0.00000000000E+00 -0.45593999997E+02  0.45594000000E+02  0.51100000000E-03 0. -1.
    9900012    2    1    2    0    0 -0.35879335804E+02  0.26917517342E+02 -0.41513935461E+01  0.46142317122E+02  0.99999941731E+01 0.  0.
        -12    1    1    2    0    0  0.35879335804E+02 -0.26917517342E+02  0.41513935461E+01  0.45045682878E+02  0.00000000000E+00 0.  1.
         11    1    3    3    0    0 -0.42959529178E+01  0.22926988735E+01  0.84852231592E+00  0.49428402744E+01  0.51100000000E-03 0. -1.
        -11    1    3    3    0    0 -0.35412975415E+01  0.65088559469E+01  0.19756019657E+00  0.74124911000E+01  0.51100000000E-03 0.  1.
         12    1    3    3    0    0 -0.28042085344E+02  0.18115962522E+02 -0.51974760586E+01  0.33786985748E+02  0.00000000000E+00 0. -1.
</event>
<event>
 7    1  0.4194672E-008  0.4614232E+02  0.7816164E-02  0.1320468E+00
        -11   -1    0    0    0    0  0.00000000000E+00  0.00000000000E+00  0.45593999997E+02  0.45594000000E+02  0.51100000000E-03 0. -1.
         11   -1    0    0    0    0 -0.00000000000E+00 -0.00000000000E+00 -0.45593999997E+02  0.45594000000E+02  0.51100000000E-03 0.  1.
    9900012    2    1    2    0    0  0.30450386861E+02 -0.32646419169E+02  0.60081790772E+01  0.46142323622E+02  0.10000053440E+02 0.  0.
        -12    1    1    2    0    0 -0.30450386861E+02  0.32646419169E+02 -0.60081790772E+01  0.45045676378E+02  0.00000000000E+00 0.  1.
         11    1    3    3    0    0  0.12665184305E+02 -0.16697505459E+02  0.24160400114E+01  0.21096227900E+02  0.51100000000E-03 0. -1.
        -11    1    3    3    0    0  0.58741389259E+01 -0.80430949181E+01 -0.10508230941E+01  0.10015044354E+02  0.51100000000E-03 0.  1.
        -12    1    3    3    0    0  0.11911063630E+02 -0.79058187927E+01  0.46429621598E+01  0.15031051367E+02  0.00000000000E+00 0.  1.
</event>
<event>
 7    1  0.4194672E-008  0.4614231E+02  0.7816164E-02  0.1320468E+00
        -11   -1    0    0    0    0  0.00000000000E+00  0.00000000000E+00  0.45593999997E+02  0.45594000000E+02  0.51100000000E-03 0. -1.
         11   -1    0    0    0    0 -0.00000000000E+00 -0.00000000000E+00 -0.45593999997E+02  0.45594000000E+02  0.51100000000E-03 0.  1.
    9900012    2    1    2    0    0  0.42961833640E+02  0.41811605600E+01  0.12880713089E+02  0.46142311827E+02  0.99999458880E+01 0.  0.
        -12    1    1    2    0    0 -0.42961833640E+02 -0.41811605600E+01 -0.12880713089E+02  0.45045688173E+02  0.00000000000E+00 0.  1.
         11    1    3    3    0    0  0.13919100299E+02  0.25468893428E+01  0.71480231060E+01  0.15853145841E+02  0.51100000000E-03 0. -1.
        -11    1    3    3    0    0  0.12323182365E+02 -0.10487832155E+01 -0.13330667258E+00  0.12368449409E+02  0.51100000000E-03 0.  1.
         12    1    3    3    0    0  0.16719550975E+02  0.26830544327E+01  0.58659966556E+01  0.17920716578E+02  0.00000000000E+00 0. -1.
</event>
<event>
 7    1  0.4194672E-008  0.4614232E+02  0.7816164E-02  0.1320468E+00
        -11   -1    0    0    0    0  0.00000000000E+00  0.00000000000E+00  0.45593999997E+02  0.45594000000E+02  0.51100000000E-03 0.  1.
         11   -1    0    0    0    0 -0.00000000000E+00 -0.00000000000E+00 -0.45593999997E+02  0.45594000000E+02  0.51100000000E-03 0. -1.
    9900012    2    1    2    0    0 -0.31202344413E+02  0.59206758022E+01 -0.31944839161E+02  0.46142318211E+02  0.10000004103E+02 0.  0.
        -12    1    1    2    0    0  0.31202344413E+02 -0.59206758022E+01  0.31944839161E+02  0.45045681789E+02  0.00000000000E+00 0.  1.
         11    1    3    3    0    0 -0.77029282232E+01 -0.19268508658E+00 -0.11463154108E+02  0.13812173367E+02  0.51100000000E-03 0. -1.
        -11    1    3    3    0    0 -0.16721458401E+01  0.29724196131E+00 -0.40660630870E+01  0.44065058474E+01  0.51100000000E-03 0.  1.
         12    1    3    3    0    0 -0.21827270349E+02  0.58161189274E+01 -0.16415621966E+02  0.27923638996E+02  0.00000000000E+00 0. -1.
</event>
<event>
 7    1  0.4194672E-008  0.4614232E+02  0.7816164E-02  0.1320468E+00
        -11   -1    0    0    0    0  0.00000000000E+00  0.00000000000E+00  0.45593999997E+02  0.45594000000E+02  0.51100000000E-03 0.  1.
         11   -1    0    0    0    0 -0.00000000000E+00 -0.00000000000E+00 -0.45593999997E+02  0.45594000000E+02  0.51100000000E-03 0. -1.
    9900012    2    1    2    0    0  0.75052476195E+01  0.88779212344E+01 -0.43519736917E+02  0.46142315094E+02  0.99999756819E+01 0.  0.
        -12    1    1    2    0    0 -0.75052476195E+01 -0.88779212344E+01  0.43519736917E+02  0.45045684906E+02  0.00000000000E+00 0.  1.
         11    1    3    3    0    0  0.36199614215E+01  0.66121916876E+01 -0.22056461224E+02  0.23309068655E+02  0.51100000000E-03 0. -1.
        -11    1    3    3    0    0 -0.12149323286E+00  0.14855762141E+01 -0.65455989173E+00  0.16279269659E+01  0.51100000000E-03 0.  1.
         12    1    3    3    0    0  0.40067794309E+01  0.78015333272E+00 -0.20808715802E+02  0.21205319473E+02  0.00000000000E+00 0. -1.
</event>
<event>
 7    1  0.4194672E-008  0.4614233E+02  0.7816164E-02  0.1320468E+00
        -11   -1    0    0    0    0  0.00000000000E+00  0.00000000000E+00  0.45593999997E+02  0.45594000000E+02  0.51100000000E-03 0.  1.
         11   -1    0    0    0    0 -0.00000000000E+00 -0.00000000000E+00 -0.45593999997E+02  0.45594000000E+02  0.51100000000E-03 0. -1.
    9900012    2    1    2    0    0 -0.75215808145E+01  0.41527460107E+02 -0.15748286435E+02  0.46142327106E+02  0.10000085212E+02 0.  0.
        -12    1    1    2    0    0  0.75215808145E+01 -0.41527460107E+02  0.15748286435E+02  0.45045672894E+02  0.00000000000E+00 0.  1.
         11    1    3    3    0    0 -0.25998800608E+01  0.19686526274E+02 -0.82406608615E+01  0.21499469407E+02  0.51100000000E-03 0. -1.
        -11    1    3    3    0    0  0.70343135198E+00  0.43271819862E+01  0.80433879851E+00  0.44571606178E+01  0.51100000000E-03 0.  1.
         12    1    3    3    0    0 -0.56251321057E+01  0.17513751846E+02 -0.83119643720E+01  0.20185697081E+02  0.00000000000E+00 0. -1.
</event>
<event>
 7    1  0.4194672E-008  0.4614231E+02  0.7816164E-02  0.1320468E+00
        -11   -1    0    0    0    0  0.00000000000E+00  0.00000000000E+00  0.45593999997E+02  0.45594000000E+02  0.51100000000E-03 0.  1.
         11   -1    0    0    0    0 -0.00000000000E+00 -0.00000000000E+00 -0.45593999997E+02  0.45594000000E+02  0.51100000000E-03 0. -1.
    9900012    2    1    2    0    0 -0.31457435426E+02  0.31948701263E+02 -0.43386628522E+01  0.46142314842E+02  0.99999733851E+01 0.  0.
        -12    1    1    2    0    0  0.31457435426E+02 -0.31948701263E+02  0.43386628522E+01  0.45045685158E+02  0.00000000000E+00 0.  1.
         11    1    3    3    0    0 -0.98116627719E+01  0.60954360634E+01 -0.80317046441E+00  0.11578780169E+02  0.51100000000E-03 0. -1.
        -11    1    3    3    0    0 -0.26448420940E+01  0.57359871621E+00  0.22878864048E+00  0.27159804293E+01  0.51100000000E-03 0.  1.
         12    1    3    3    0    0 -0.19000930561E+02  0.25279666483E+02 -0.37642810283E+01  0.31847554244E+02  0.00000000000E+00 0. -1.
</event>
<event>
 7    1  0.4194672E-008  0.4614232E+02  0.7816164E-02  0.1320468E+00
        -11   -1    0    0    0    0  0.00000000000E+00  0.00000000000E+00  0.45593999997E+02  0.45594000000E+02  0.51100000000E-03 0.  1.
         11   -1    0    0    0    0 -0.00000000000E+00 -0.00000000000E+00 -0.45593999997E+02  0.45594000000E+02  0.51100000000E-03 0. -1.
    9900012    2    1    2    0    0  0.98795472482E+01  0.43589797519E+02 -0.56069141025E+01  0.46142318883E+02  0.10000010228E+02 0.  0.
        -12    1    1    2    0    0 -0.98795472482E+01 -0.43589797519E+02  0.56069141025E+01  0.45045681117E+02  0.00000000000E+00 0.  1.
         11    1    3    3    0    0  0.61965051520E+01  0.25754949153E+02 -0.16550612374E+01  0.26541539329E+02  0.51100000000E-03 0. -1.
        -11    1    3    3    0    0 -0.11198248432E+01  0.81218649097E+01 -0.44072452051E+00  0.82105380856E+01  0.51100000000E-03 0.  1.
        -12    1    3    3    0    0  0.48028669394E+01  0.97129834560E+01 -0.35111283446E+01  0.11390241468E+02  0.00000000000E+00 0.  1.
</event>
<event>
 7    1  0.4194672E-008  0.4614232E+02  0.7816164E-02  0.1320468E+00
        -11   -1    0    0    0    0  0.00000000000E+00  0.00000000000E+00  0.45593999997E+02  0.45594000000E+02  0.51100000000E-03 0.  1.
         11   -1    0    0    0    0 -0.00000000000E+00 -0.00000000000E+00 -0.45593999997E+02  0.45594000000E+02  0.51100000000E-03 0. -1.
    9900012    2    1    2    0    0  0.11310191373E+02 -0.38987868380E+02 -0.19522786822E+02  0.46142317466E+02  0.99999973046E+01 0.  0.
        -12    1    1    2    0    0 -0.11310191373E+02  0.38987868380E+02  0.19522786822E+02  0.45045682534E+02  0.00000000000E+00 0.  1.
         11    1    3    3    0    0 -0.13384156192E+01 -0.57850470941E+01 -0.46861217489E+01  0.75642490412E+01  0.51100000000E-03 0. -1.
        -11    1    3    3    0    0  0.59116419957E+00 -0.17276356885E+01 -0.13656226478E+01  0.22801591305E+01  0.51100000000E-03 0.  1.
         12    1    3    3    0    0  0.12057442793E+02 -0.31475185597E+02 -0.13471042426E+02  0.36297909294E+02  0.00000000000E+00 0. -1.
</event>
<event>
 7    1  0.4194672E-008  0.4614232E+02  0.7816164E-02  0.1320468E+00
        -11   -1    0    0    0    0  0.00000000000E+00  0.00000000000E+00  0.45593999997E+02  0.45594000000E+02  0.51100000000E-03 0.  1.
         11   -1    0    0    0    0 -0.00000000000E+00 -0.00000000000E+00 -0.45593999997E+02  0.45594000000E+02  0.51100000000E-03 0. -1.
    9900012    2    1    2    0    0 -0.22746324505E+02  0.34839195357E+02 -0.17261190335E+02  0.46142317594E+02  0.99999984797E+01 0.  0.
        -12    1    1    2    0    0  0.22746324505E+02 -0.34839195357E+02  0.17261190335E+02  0.45045682406E+02  0.00000000000E+00 0.  1.
         11    1    3    3    0    0 -0.45613175477E+01  0.32510273456E+01 -0.17047222510E+01  0.58549871722E+01  0.51100000000E-03 0. -1.
        -11    1    3    3    0    0 -0.12597373334E+02  0.26380478918E+02 -0.10216941164E+02  0.30967876418E+02  0.51100000000E-03 0.  1.
        -12    1    3    3    0    0 -0.55876336237E+01  0.52076890936E+01 -0.53395269193E+01  0.93194540039E+01  0.00000000000E+00 0.  1.
</event>
<event>
 7    1  0.4194672E-008  0.4614232E+02  0.7816164E-02  0.1320468E+00
        -11   -1    0    0    0    0  0.00000000000E+00  0.00000000000E+00  0.45593999997E+02  0.45594000000E+02  0.51100000000E-03 0. -1.
         11   -1    0    0    0    0 -0.00000000000E+00 -0.00000000000E+00 -0.45593999997E+02  0.45594000000E+02  0.51100000000E-03 0.  1.
    9900012    2    1    2    0    0  0.30759258975E+02 -0.27961813645E+02  0.17352765980E+02  0.46142317386E+02  0.99999965803E+01 0.  0.
        -12    1    1    2    0    0 -0.30759258975E+02  0.27961813645E+02 -0.17352765980E+02  0.45045682614E+02  0.00000000000E+00 0.  1.
         11    1    3    3    0    0  0.57288534022E+01 -0.34507402122E+01  0.11245286197E-01  0.66878618432E+01  0.51100000000E-03 0. -1.
        -11    1    3    3    0    0  0.15522304017E+02 -0.11494561366E+02  0.97741449623E+01  0.21647188570E+02  0.51100000000E-03 0.  1.
        -12    1    3    3    0    0  0.95081015560E+01 -0.13016512067E+02  0.75673757317E+01  0.17807266973E+02  0.00000000000E+00 0.  1.
</event>
<event>
 7    1  0.4194672E-008  0.4614232E+02  0.7816164E-02  0.1320468E+00
        -11   -1    0    0    0    0  0.00000000000E+00  0.00000000000E+00  0.45593999997E+02  0.45594000000E+02  0.51100000000E-03 0.  1.
         11   -1    0    0    0    0 -0.00000000000E+00 -0.00000000000E+00 -0.45593999997E+02  0.45594000000E+02  0.51100000000E-03 0. -1.
    9900012    2    1    2    0    0 -0.17877709321E+02  0.20908503531E+02 -0.35669807566E+02  0.46142321159E+02  0.10000030985E+02 0.  0.
        -12    1    1    2    0    0  0.17877709321E+02 -0.20908503531E+02  0.35669807566E+02  0.45045678841E+02  0.00000000000E+00 0.  1.
         11    1    3    3    0    0 -0.93258912623E+01  0.17138684382E+02 -0.26433901643E+02  0.32855104726E+02  0.51100000000E-03 0.  1.
        -11    1    3    3    0    0 -0.32567560217E+01  0.21069023150E+01 -0.48688929693E+01  0.62250796106E+01  0.51100000000E-03 0. -1.
        -12    1    3    3    0    0 -0.52950620371E+01  0.16629168338E+01 -0.43670129531E+01  0.70621368229E+01  0.00000000000E+00 0.  1.
</event>
<event>
 7    1  0.4194672E-008  0.4614232E+02  0.7816164E-02  0.1320468E+00
        -11   -1    0    0    0    0  0.00000000000E+00  0.00000000000E+00  0.45593999997E+02  0.45594000000E+02  0.51100000000E-03 0.  1.
         11   -1    0    0    0    0 -0.00000000000E+00 -0.00000000000E+00 -0.45593999997E+02  0.45594000000E+02  0.51100000000E-03 0. -1.
    9900012    2    1    2    0    0  0.24897104374E+02 -0.19073305475E+02 -0.32333522660E+02  0.46142317903E+02  0.10000001293E+02 0.  0.
        -12    1    1    2    0    0 -0.24897104374E+02  0.19073305475E+02  0.32333522660E+02  0.45045682097E+02  0.00000000000E+00 0.  1.
         11    1    3    3    0    0  0.10893704870E+02 -0.85779151337E+01 -0.14320857201E+02  0.19933398733E+02  0.51100000000E-03 0. -1.
        -11    1    3    3    0    0  0.14655816165E+02 -0.85102510679E+01 -0.16121509474E+02  0.23390604710E+02  0.51100000000E-03 0.  1.
         12    1    3    3    0    0 -0.65241666049E+00 -0.19851392734E+01 -0.18911559852E+01  0.28183144598E+01  0.00000000000E+00 0. -1.
</event>
<event>
 7    1  0.4194672E-008  0.4614232E+02  0.7816164E-02  0.1320468E+00
        -11   -1    0    0    0    0  0.00000000000E+00  0.00000000000E+00  0.45593999997E+02  0.45594000000E+02  0.51100000000E-03 0.  1.
         11   -1    0    0    0    0 -0.00000000000E+00 -0.00000000000E+00 -0.45593999997E+02  0.45594000000E+02  0.51100000000E-03 0. -1.
    9900012    2    1    2    0    0  0.36752264677E+02 -0.62426984843E+01 -0.25286621691E+02  0.46142317856E+02  0.10000000868E+02 0.  0.
        -12    1    1    2    0    0 -0.36752264677E+02  0.62426984843E+01  0.25286621691E+02  0.45045682144E+02  0.00000000000E+00 0.  1.
         11    1    3    3    0    0  0.20685461780E+01 -0.16744573082E+01 -0.16875659116E+01  0.31512806182E+01  0.51100000000E-03 0. -1.
        -11    1    3    3    0    0  0.23737502927E+02 -0.47874173590E+01 -0.11946498351E+02  0.27001985729E+02  0.51100000000E-03 0.  1.
        -12    1    3    3    0    0  0.10946215571E+02  0.21917618283E+00 -0.11652557428E+02  0.15989051509E+02  0.00000000000E+00 0.  1.
</event>
<event>
 7    1  0.4194672E-008  0.4614232E+02  0.7816164E-02  0.1320468E+00
        -11   -1    0    0    0    0  0.00000000000E+00  0.00000000000E+00  0.45593999997E+02  0.45594000000E+02  0.51100000000E-03 0.  1.
         11   -1    0    0    0    0 -0.00000000000E+00 -0.00000000000E+00 -0.45593999997E+02  0.45594000000E+02  0.51100000000E-03 0. -1.
    9900012    2    1    2    0    0 -0.41893978489E+02  0.15011903592E+01 -0.16484976468E+02  0.46142318128E+02  0.10000003347E+02 0.  0.
        -12    1    1    2    0    0  0.41893978489E+02 -0.15011903592E+01  0.16484976468E+02  0.45045681872E+02  0.00000000000E+00 0.  1.
         11    1    3    3    0    0 -0.11171797307E+01 -0.57639764883E+00 -0.11757545485E+01  0.17212564654E+01  0.51100000000E-03 0. -1.
        -11    1    3    3    0    0 -0.83412253887E+01 -0.25817244717E+01 -0.14902696289E+01  0.88578917391E+01  0.51100000000E-03 0.  1.
         12    1    3    3    0    0 -0.32435573370E+02  0.46593124797E+01 -0.13818952290E+02  0.35563169924E+02  0.00000000000E+00 0. -1.
</event>
<event>
 7    1  0.4194672E-008  0.4614232E+02  0.7816164E-02  0.1320468E+00
        -11   -1    0    0    0    0  0.00000000000E+00  0.00000000000E+00  0.45593999997E+02  0.45594000000E+02  0.51100000000E-03 0. -1.
         11   -1    0    0    0    0 -0.00000000000E+00 -0.00000000000E+00 -0.45593999997E+02  0.45594000000E+02  0.51100000000E-03 0.  1.
    9900012    2    1    2    0    0 -0.15087190606E+02  0.40420551921E+02  0.12948698703E+02  0.46142321671E+02  0.10000035656E+02 0.  0.
        -12    1    1    2    0    0  0.15087190606E+02 -0.40420551921E+02 -0.12948698703E+02  0.45045678329E+02  0.00000000000E+00 0.  1.
         11    1    3    3    0    0 -0.93061190750E+01  0.17925957481E+02  0.82696428152E+01  0.21825003927E+02  0.51100000000E-03 0. -1.
        -11    1    3    3    0    0 -0.54360166718E+00  0.18931493402E+01  0.21415858095E+01  0.29096232123E+01  0.51100000000E-03 0.  1.
         12    1    3    3    0    0 -0.52374698634E+01  0.20601445100E+02  0.25374700780E+01  0.21407694532E+02  0.00000000000E+00 0. -1.
</event>
<event>
 7    1  0.4194672E-008  0.4614232E+02  0.7816164E-02  0.1320468E+00
        -11   -1    0    0    0    0  0.00000000000E+00  0.00000000000E+00  0.45593999997E+02  0.45594000000E+02  0.51100000000E-03 0. -1.
         11   -1    0    0    0    0 -0.00000000000E+00 -0.00000000000E+00 -0.45593999997E+02  0.45594000000E+02  0.51100000000E-03 0.  1.
    9900012    2    1    2    0    0 -0.12691887941E+01 -0.29667521690E+02  0.33872417745E+02  0.46142319105E+02  0.10000012252E+02 0.  0.
        -12    1    1    2    0    0  0.12691887941E+01  0.29667521690E+02 -0.33872417745E+02  0.45045680895E+02  0.00000000000E+00 0.  1.
         11    1    3    3    0    0  0.12526487688E+01 -0.74658887111E+01  0.82544659698E+01  0.11200215707E+02  0.51100000000E-03 0. -1.
        -11    1    3    3    0    0  0.10969333638E+01 -0.25186471345E+00  0.16475423880E+00  0.11374721354E+01  0.51100000000E-03 0.  1.
         12    1    3    3    0    0 -0.36187709267E+01 -0.21949768266E+02  0.25453197536E+02  0.33804631262E+02  0.00000000000E+00 0. -1.
</event>
<event>
 7    1  0.4194672E-008  0.4614232E+02  0.7816164E-02  0.1320468E+00
        -11   -1    0    0    0    0  0.00000000000E+00  0.00000000000E+00  0.45593999997E+02  0.45594000000E+02  0.51100000000E-03 0. -1.
         11   -1    0    0    0    0 -0.00000000000E+00 -0.00000000000E+00 -0.45593999997E+02  0.45594000000E+02  0.51100000000E-03 0.  1.
    9900012    2    1    2    0    0  0.17342501174E+02  0.16268844783E+02  0.38258017288E+02  0.46142317140E+02  0.99999943335E+01 0.  0.
        -12    1    1    2    0    0 -0.17342501174E+02 -0.16268844783E+02 -0.38258017288E+02  0.45045682860E+02  0.00000000000E+00 0.  1.
         11    1    3    3    0    0  0.17377991353E+02  0.13576060459E+02  0.32963595518E+02  0.39659836495E+02  0.51100000000E-03 0. -1.
        -11    1    3    3    0    0  0.35582290022E+00  0.28531960998E+01  0.30230424713E+01  0.41720647124E+01  0.51100000000E-03 0.  1.
        -12    1    3    3    0    0 -0.39131307858E+00 -0.16041177633E+00  0.22713792985E+01  0.23104159325E+01  0.00000000000E+00 0.  1.
</event>
<event>
 7    1  0.4194672E-008  0.4614232E+02  0.7816164E-02  0.1320468E+00
        -11   -1    0    0    0    0  0.00000000000E+00  0.00000000000E+00  0.45593999997E+02  0.45594000000E+02  0.51100000000E-03 0. -1.
         11   -1    0    0    0    0 -0.00000000000E+00 -0.00000000000E+00 -0.45593999997E+02  0.45594000000E+02  0.51100000000E-03 0.  1.
    9900012    2    1    2    0    0  0.10571674835E+02  0.64224855957E+00  0.43782881548E+02  0.46142317535E+02  0.99999979420E+01 0.  0.
        -12    1    1    2    0    0 -0.10571674835E+02 -0.64224855957E+00 -0.43782881548E+02  0.45045682465E+02  0.00000000000E+00 0.  1.
         11    1    3    3    0    0  0.91319590853E+01  0.41261741701E+01  0.33643704304E+02  0.35104370519E+02  0.51100000000E-03 0. -1.
        -11    1    3    3    0    0  0.17205645529E+01 -0.19251772373E+01  0.45813117589E+01  0.52588085598E+01  0.51100000000E-03 0.  1.
         12    1    3    3    0    0 -0.28084880289E+00 -0.15587483733E+01  0.55578654855E+01  0.57791384563E+01  0.00000000000E+00 0. -1.
</event>
<event>
 7    1  0.4194672E-008  0.4614232E+02  0.7816164E-02  0.1320468E+00
        -11   -1    0    0    0    0  0.00000000000E+00  0.00000000000E+00  0.45593999997E+02  0.45594000000E+02  0.51100000000E-03 0.  1.
         11   -1    0    0    0    0 -0.00000000000E+00 -0.00000000000E+00 -0.45593999997E+02  0.45594000000E+02  0.51100000000E-03 0. -1.
    9900012    2    1    2    0    0 -0.32536219278E+02  0.29660784792E+02 -0.95260565329E+01  0.46142317938E+02  0.10000001609E+02 0.  0.
        -12    1    1    2    0    0  0.32536219278E+02 -0.29660784792E+02  0.95260565329E+01  0.45045682062E+02  0.00000000000E+00 0.  1.
         11    1    3    3    0    0 -0.18992123885E+02  0.16039416596E+02 -0.38789218277E+01  0.25159683806E+02  0.51100000000E-03 0. -1.
        -11    1    3    3    0    0 -0.10410432064E+02  0.12442332891E+02 -0.65803999547E+01  0.17506867434E+02  0.51100000000E-03 0.  1.
        -12    1    3    3    0    0 -0.31336633290E+01  0.11790353054E+01  0.93326524950E+00  0.34757666978E+01  0.00000000000E+00 0.  1.
</event>
<event>
 7    1  0.4194672E-008  0.4614232E+02  0.7816164E-02  0.1320468E+00
        -11   -1    0    0    0    0  0.00000000000E+00  0.00000000000E+00  0.45593999997E+02  0.45594000000E+02  0.51100000000E-03 0.  1.
         11   -1    0    0    0    0 -0.00000000000E+00 -0.00000000000E+00 -0.45593999997E+02  0.45594000000E+02  0.51100000000E-03 0. -1.
    9900012    2    1    2    0    0 -0.18677136049E+02 -0.37075532374E+02 -0.17483792246E+02  0.46142317597E+02  0.99999985057E+01 0.  0.
        -12    1    1    2    0    0  0.18677136049E+02  0.37075532374E+02  0.17483792246E+02  0.45045682403E+02  0.00000000000E+00 0.  1.
         11    1    3    3    0    0 -0.62173825021E+01 -0.14666897030E+02 -0.97509438789E+01  0.18677650292E+02  0.51100000000E-03 0. -1.
        -11    1    3    3    0    0 -0.25800839878E+01 -0.35382430450E+01 -0.38136404680E+01  0.58068796362E+01  0.51100000000E-03 0.  1.
        -12    1    3    3    0    0 -0.98796695592E+01 -0.18870392300E+02 -0.39192078992E+01  0.21657787669E+02  0.00000000000E+00 0.  1.
</event>
<event>
 7    1  0.4194672E-008  0.4614231E+02  0.7816164E-02  0.1320468E+00
        -11   -1    0    0    0    0  0.00000000000E+00  0.00000000000E+00  0.45593999997E+02  0.45594000000E+02  0.51100000000E-03 0. -1.
         11   -1    0    0    0    0 -0.00000000000E+00 -0.00000000000E+00 -0.45593999997E+02  0.45594000000E+02  0.51100000000E-03 0.  1.
    9900012    2    1    2    0    0 -0.11334888280E+02  0.32495152813E+02  0.29063707431E+02  0.46142314987E+02  0.99999747050E+01 0.  0.
        -12    1    1    2    0    0  0.11334888280E+02 -0.32495152813E+02 -0.29063707431E+02  0.45045685013E+02  0.00000000000E+00 0.  1.
         11    1    3    3    0    0 -0.24773115609E+01  0.73563246624E+01  0.98027115882E+01  0.12503829008E+02  0.51100000000E-03 0. -1.
        -11    1    3    3    0    0 -0.61243773013E+01  0.21491818590E+02  0.18513798708E+02  0.29020113826E+02  0.51100000000E-03 0.  1.
        -12    1    3    3    0    0 -0.27331994174E+01  0.36470095603E+01  0.74719713517E+00  0.46183721534E+01  0.00000000000E+00 0.  1.
</event>
<event>
 7    1  0.4194672E-008  0.4614232E+02  0.7816164E-02  0.1320468E+00
        -11   -1    0    0    0    0  0.00000000000E+00  0.00000000000E+00  0.45593999997E+02  0.45594000000E+02  0.51100000000E-03 0.  1.
         11   -1    0    0    0    0 -0.00000000000E+00 -0.00000000000E+00 -0.45593999997E+02  0.45594000000E+02  0.51100000000E-03 0. -1.
    9900012    2    1    2    0    0  0.12890554464E+02  0.32870184914E+02 -0.27973166508E+02  0.46142317686E+02  0.99999993144E+01 0.  0.
        -12    1    1    2    0    0 -0.12890554464E+02 -0.32870184914E+02  0.27973166508E+02  0.45045682314E+02  0.00000000000E+00 0.  1.
         11    1    3    3    0    0  0.60849865012E+01  0.95537010761E+01 -0.12359883184E+02  0.16765052268E+02  0.51100000000E-03 0. -1.
        -11    1    3    3    0    0  0.93802904878E+00  0.30852139698E+01 -0.45698613603E+01  0.55930382486E+01  0.51100000000E-03 0.  1.
        -12    1    3    3    0    0  0.58675389138E+01  0.20231269868E+02 -0.11043421964E+02  0.23784227169E+02  0.00000000000E+00 0.  1.
</event>
<event>
 7    1  0.4194672E-008  0.4614232E+02  0.7816164E-02  0.1320468E+00
        -11   -1    0    0    0    0  0.00000000000E+00  0.00000000000E+00  0.45593999997E+02  0.45594000000E+02  0.51100000000E-03 0.  1.
         11   -1    0    0    0    0 -0.00000000000E+00 -0.00000000000E+00 -0.45593999997E+02  0.45594000000E+02  0.51100000000E-03 0. -1.
    9900012    2    1    2    0    0  0.10117199634E+01 -0.27091934592E-01 -0.45034312557E+02  0.46142316314E+02  0.99999868056E+01 0.  0.
        -12    1    1    2    0    0 -0.10117199634E+01  0.27091934592E-01  0.45034312557E+02  0.45045683686E+02  0.00000000000E+00 0.  1.
         11    1    3    3    0    0  0.13695447462E+01  0.24654416697E+01 -0.20139066705E+02  0.20335586135E+02  0.51100000000E-03 0. -1.
        -11    1    3    3    0    0 -0.14350373687E+01 -0.18804828245E+00 -0.96014139699E+00  0.17368264649E+01  0.51100000000E-03 0.  1.
         12    1    3    3    0    0  0.10772125859E+01 -0.23044853219E+01 -0.23935104455E+02  0.24069903714E+02  0.00000000000E+00 0. -1.
</event>
<event>
 7    1  0.4194672E-008  0.4614232E+02  0.7816164E-02  0.1320468E+00
        -11   -1    0    0    0    0  0.00000000000E+00  0.00000000000E+00  0.45593999997E+02  0.45594000000E+02  0.51100000000E-03 0. -1.
         11   -1    0    0    0    0 -0.00000000000E+00 -0.00000000000E+00 -0.45593999997E+02  0.45594000000E+02  0.51100000000E-03 0.  1.
    9900012    2    1    2    0    0  0.20367812654E+02 -0.39490432976E+02 -0.74007552892E+01  0.46142320209E+02  0.10000022323E+02 0.  0.
        -12    1    1    2    0    0 -0.20367812654E+02  0.39490432976E+02  0.74007552892E+01  0.45045679791E+02  0.00000000000E+00 0.  1.
         11    1    3    3    0    0  0.11241538376E+02 -0.24754641618E+02 -0.59393351098E+01  0.27828765127E+02  0.51100000000E-03 0. -1.
        -11    1    3    3    0    0  0.68587057631E+01 -0.12244270961E+02 -0.33813341338E+01  0.14435977171E+02  0.51100000000E-03 0.  1.
         12    1    3    3    0    0  0.22675685145E+01 -0.24915203975E+01  0.19199139545E+01  0.38775779105E+01  0.00000000000E+00 0. -1.
</event>
<event>
 7    1  0.4194672E-008  0.4614232E+02  0.7816164E-02  0.1320468E+00
        -11   -1    0    0    0    0  0.00000000000E+00  0.00000000000E+00  0.45593999997E+02  0.45594000000E+02  0.51100000000E-03 0.  1.
         11   -1    0    0    0    0 -0.00000000000E+00 -0.00000000000E+00 -0.45593999997E+02  0.45594000000E+02  0.51100000000E-03 0. -1.
    9900012    2    1    2    0    0  0.36903798812E+01 -0.98367291864E+01 -0.43803348902E+02  0.46142317412E+02  0.99999968160E+01 0.  0.
        -12    1    1    2    0    0 -0.36903798812E+01  0.98367291864E+01  0.43803348902E+02  0.45045682588E+02  0.00000000000E+00 0.  1.
         11    1    3    3    0    0  0.31427782522E+01 -0.98305737341E+01 -0.33537908680E+02  0.35090006469E+02  0.51100000000E-03 0. -1.
        -11    1    3    3    0    0  0.55947077577E+00  0.56189762561E+00 -0.22112493555E-01  0.79323748910E+00  0.51100000000E-03 0.  1.
        -12    1    3    3    0    0 -0.11869146774E-01 -0.56805307790E+00 -0.10243327729E+02  0.10259073454E+02  0.00000000000E+00 0.  1.
</event>
<event>
 7    1  0.4194672E-008  0.4614232E+02  0.7816164E-02  0.1320468E+00
        -11   -1    0    0    0    0  0.00000000000E+00  0.00000000000E+00  0.45593999997E+02  0.45594000000E+02  0.51100000000E-03 0.  1.
         11   -1    0    0    0    0 -0.00000000000E+00 -0.00000000000E+00 -0.45593999997E+02  0.45594000000E+02  0.51100000000E-03 0. -1.
    9900012    2    1    2    0    0 -0.43300238231E+02 -0.12257874723E+02  0.19867971761E+01  0.46142317781E+02  0.10000000178E+02 0.  0.
        -12    1    1    2    0    0  0.43300238231E+02  0.12257874723E+02 -0.19867971761E+01  0.45045682219E+02  0.00000000000E+00 0.  1.
         11    1    3    3    0    0 -0.18784661070E+02 -0.63881317589E+01  0.33699887671E+01  0.20125320952E+02  0.51100000000E-03 0. -1.
        -11    1    3    3    0    0 -0.10862493236E+02 -0.34824596060E+01  0.23848685765E+01  0.11653706818E+02  0.51100000000E-03 0.  1.
         12    1    3    3    0    0 -0.13653083925E+02 -0.23872833579E+01 -0.37680601675E+01  0.14363290011E+02  0.00000000000E+00 0. -1.
</event>
<event>
 7    1  0.4194672E-008  0.4614232E+02  0.7816164E-02  0.1320468E+00
        -11   -1    0    0    0    0  0.00000000000E+00  0.00000000000E+00  0.45593999997E+02  0.45594000000E+02  0.51100000000E-03 0.  1.
         11   -1    0    0    0    0 -0.00000000000E+00 -0.00000000000E+00 -0.45593999997E+02  0.45594000000E+02  0.51100000000E-03 0. -1.
    9900012    2    1    2    0    0  0.44123754579E+02 -0.61767947235E+01  0.66373895245E+01  0.46142318177E+02  0.10000003791E+02 0.  0.
        -12    1    1    2    0    0 -0.44123754579E+02  0.61767947235E+01 -0.66373895245E+01  0.45045681823E+02  0.00000000000E+00 0.  1.
         11    1    3    3    0    0  0.98843963876E+01  0.11292390230E+01  0.34614162719E+00  0.99547117993E+01  0.51100000000E-03 0.  1.
        -11    1    3    3    0    0  0.20347216341E+02 -0.64333624141E+01  0.63610003130E+01  0.22267907177E+02  0.51100000000E-03 0. -1.
         12    1    3    3    0    0  0.13892141850E+02 -0.87267133235E+00 -0.69752415716E-01  0.13919699201E+02  0.00000000000E+00 0. -1.
</event>
<event>
 7    1  0.4194672E-008  0.4614232E+02  0.7816164E-02  0.1320468E+00
        -11   -1    0    0    0    0  0.00000000000E+00  0.00000000000E+00  0.45593999997E+02  0.45594000000E+02  0.51100000000E-03 0.  1.
         11   -1    0    0    0    0 -0.00000000000E+00 -0.00000000000E+00 -0.45593999997E+02  0.45594000000E+02  0.51100000000E-03 0. -1.
    9900012    2    1    2    0    0  0.26210736771E+02 -0.19918943047E+02 -0.30746477154E+02  0.46142324608E+02  0.10000062433E+02 0.  0.
        -12    1    1    2    0    0 -0.26210736771E+02  0.19918943047E+02  0.30746477154E+02  0.45045675392E+02  0.00000000000E+00 0.  1.
         11    1    3    3    0    0  0.51340033097E+00  0.67011928679E+00 -0.27903712136E+00  0.88910164469E+00  0.51100000000E-03 0.  1.
        -11    1    3    3    0    0  0.45702172825E+01 -0.52908873367E+01 -0.94500602368E+01  0.11755169653E+02  0.51100000000E-03 0. -1.
        -12    1    3    3    0    0  0.21127119157E+02 -0.15298174997E+02 -0.21017379796E+02  0.33498053311E+02  0.00000000000E+00 0.  1.
</event>
<event>
 7    1  0.4194672E-008  0.4614232E+02  0.7816164E-02  0.1320468E+00
        -11   -1    0    0    0    0  0.00000000000E+00  0.00000000000E+00  0.45593999997E+02  0.45594000000E+02  0.51100000000E-03 0.  1.
         11   -1    0    0    0    0 -0.00000000000E+00 -0.00000000000E+00 -0.45593999997E+02  0.45594000000E+02  0.51100000000E-03 0. -1.
    9900012    2    1    2    0    0 -0.35019960883E+01 -0.35293751487E+02 -0.27770499519E+02  0.46142317475E+02  0.99999973929E+01 0.  0.
        -12    1    1    2    0    0  0.35019960883E+01  0.35293751487E+02  0.27770499519E+02  0.45045682525E+02  0.00000000000E+00 0.  1.
         11    1    3    3    0    0 -0.16093383437E+01 -0.16455550279E+02 -0.10203267064E+02  0.19428889930E+02  0.51100000000E-03 0. -1.
        -11    1    3    3    0    0  0.15347641961E+01 -0.20827457188E+01 -0.44984683041E+01  0.51893687681E+01  0.51100000000E-03 0.  1.
         12    1    3    3    0    0 -0.34274219407E+01 -0.16755455489E+02 -0.13068764150E+02  0.21524058777E+02  0.00000000000E+00 0. -1.
</event>
<event>
 7    1  0.4194672E-008  0.4614232E+02  0.7816164E-02  0.1320468E+00
        -11   -1    0    0    0    0  0.00000000000E+00  0.00000000000E+00  0.45593999997E+02  0.45594000000E+02  0.51100000000E-03 0. -1.
         11   -1    0    0    0    0 -0.00000000000E+00 -0.00000000000E+00 -0.45593999997E+02  0.45594000000E+02  0.51100000000E-03 0.  1.
    9900012    2    1    2    0    0  0.38623464079E+02 -0.19341723714E+02 -0.12776504431E+02  0.46142319639E+02  0.10000017128E+02 0.  0.
        -12    1    1    2    0    0 -0.38623464079E+02  0.19341723714E+02  0.12776504431E+02  0.45045680361E+02  0.00000000000E+00 0.  1.
         11    1    3    3    0    0  0.10213620218E+02 -0.87283808372E+01 -0.16274480054E+01  0.13533338733E+02  0.51100000000E-03 0. -1.
        -11    1    3    3    0    0  0.15071551489E+02 -0.53004169112E+01 -0.35562734666E+01  0.16367442224E+02  0.51100000000E-03 0.  1.
        -12    1    3    3    0    0  0.13338292372E+02 -0.53129259656E+01 -0.75927829590E+01  0.16241538683E+02  0.00000000000E+00 0.  1.
</event>
<event>
 7    1  0.4194672E-008  0.4614231E+02  0.7816164E-02  0.1320468E+00
        -11   -1    0    0    0    0  0.00000000000E+00  0.00000000000E+00  0.45593999997E+02  0.45594000000E+02  0.51100000000E-03 0.  1.
         11   -1    0    0    0    0 -0.00000000000E+00 -0.00000000000E+00 -0.45593999997E+02  0.45594000000E+02  0.51100000000E-03 0. -1.
    9900012    2    1    2    0    0 -0.27099798364E+02  0.30783189514E+01 -0.35850226578E+02  0.46142313585E+02  0.99999619157E+01 0.  0.
        -12    1    1    2    0    0  0.27099798364E+02 -0.30783189514E+01  0.35850226578E+02  0.45045686415E+02  0.00000000000E+00 0.  1.
         11    1    3    3    0    0 -0.11322147270E+02  0.16215849868E-01 -0.13905711495E+02  0.17932096760E+02  0.51100000000E-03 0. -1.
        -11    1    3    3    0    0  0.90477105975E-01  0.10069860998E+01 -0.41867433563E+01  0.43070903525E+01  0.51100000000E-03 0.  1.
        -12    1    3    3    0    0 -0.15868128199E+02  0.20551170017E+01 -0.17757771727E+02  0.23903126472E+02  0.00000000000E+00 0.  1.
</event>
<event>
 7    1  0.4194672E-008  0.4614232E+02  0.7816164E-02  0.1320468E+00
        -11   -1    0    0    0    0  0.00000000000E+00  0.00000000000E+00  0.45593999997E+02  0.45594000000E+02  0.51100000000E-03 0.  1.
         11   -1    0    0    0    0 -0.00000000000E+00 -0.00000000000E+00 -0.45593999997E+02  0.45594000000E+02  0.51100000000E-03 0. -1.
    9900012    2    1    2    0    0 -0.30997593923E+02  0.22970801053E+02 -0.23250913455E+02  0.46142317559E+02  0.99999981562E+01 0.  0.
        -12    1    1    2    0    0  0.30997593923E+02 -0.22970801053E+02  0.23250913455E+02  0.45045682441E+02  0.00000000000E+00 0.  1.
         11    1    3    3    0    0 -0.29132492123E+00 -0.21555492426E+00  0.44618705487E-01  0.36513726885E+00  0.51100000000E-03 0. -1.
        -11    1    3    3    0    0 -0.91719512589E+01  0.12104410755E+02 -0.91412745833E+01  0.17725810303E+02  0.51100000000E-03 0.  1.
         12    1    3    3    0    0 -0.21534317743E+02  0.11081945222E+02 -0.14154257578E+02  0.28051369987E+02  0.00000000000E+00 0. -1.
</event>
<event>
 7    1  0.4194672E-008  0.4614232E+02  0.7816164E-02  0.1320468E+00
        -11   -1    0    0    0    0  0.00000000000E+00  0.00000000000E+00  0.45593999997E+02  0.45594000000E+02  0.51100000000E-03 0.  1.
         11   -1    0    0    0    0 -0.00000000000E+00 -0.00000000000E+00 -0.45593999997E+02  0.45594000000E+02  0.51100000000E-03 0. -1.
    9900012    2    1    2    0    0 -0.80024397142E+01  0.40269782799E+02 -0.18531570827E+02  0.46142316907E+02  0.99999922086E+01 0.  0.
        -12    1    1    2    0    0  0.80024397142E+01 -0.40269782799E+02  0.18531570827E+02  0.45045683093E+02  0.00000000000E+00 0.  1.
         11    1    3    3    0    0 -0.30160066495E+01  0.14017107869E+02 -0.33250180212E+01  0.14718401891E+02  0.51100000000E-03 0. -1.
        -11    1    3    3    0    0 -0.15722122680E+01  0.56134354708E+01 -0.49746281651E+00  0.58506391715E+01  0.51100000000E-03 0.  1.
        -12    1    3    3    0    0 -0.34142207967E+01  0.20639239458E+02 -0.14709089989E+02  0.25573275844E+02  0.00000000000E+00 0.  1.
</event>
<event>
 7    1  0.4194672E-008  0.4614232E+02  0.7816164E-02  0.1320468E+00
        -11   -1    0    0    0    0  0.00000000000E+00  0.00000000000E+00  0.45593999997E+02  0.45594000000E+02  0.51100000000E-03 0.  1.
         11   -1    0    0    0    0 -0.00000000000E+00 -0.00000000000E+00 -0.45593999997E+02  0.45594000000E+02  0.51100000000E-03 0. -1.
    9900012    2    1    2    0    0 -0.37901628359E+02  0.99258967381E+01 -0.22227386540E+02  0.46142316847E+02  0.99999916635E+01 0.  0.
        -12    1    1    2    0    0  0.37901628359E+02 -0.99258967381E+01  0.22227386540E+02  0.45045683153E+02  0.00000000000E+00 0.  1.
         11    1    3    3    0    0 -0.25332201259E+02  0.73021190601E+01 -0.10367601462E+02  0.28328934391E+02  0.51100000000E-03 0. -1.
        -11    1    3    3    0    0 -0.49298855133E+01  0.11977541725E+01 -0.25247277063E+01  0.56668012568E+01  0.51100000000E-03 0.  1.
        -12    1    3    3    0    0 -0.76395415873E+01  0.14260235054E+01 -0.93350573718E+01  0.12146581200E+02  0.00000000000E+00 0.  1.
</event>
<event>
 7    1  0.4194672E-008  0.4614232E+02  0.7816164E-02  0.1320468E+00
        -11   -1    0    0    0    0  0.00000000000E+00  0.00000000000E+00  0.45593999997E+02  0.45594000000E+02  0.51100000000E-03 0.  1.
         11   -1    0    0    0    0 -0.00000000000E+00 -0.00000000000E+00 -0.45593999997E+02  0.45594000000E+02  0.51100000000E-03 0. -1.
    9900012    2    1    2    0    0  0.25655774066E+02  0.35598261387E+01 -0.36854067150E+02  0.46142319068E+02  0.10000011922E+02 0.  0.
        -12    1    1    2    0    0 -0.25655774066E+02 -0.35598261387E+01  0.36854067150E+02  0.45045680932E+02  0.00000000000E+00 0.  1.
         11    1    3    3    0    0  0.11687696779E+02  0.27844673034E+01 -0.22554529001E+02  0.25555083504E+02  0.51100000000E-03 0. -1.
        -11    1    3    3    0    0  0.57351447655E+00  0.41827875592E+00 -0.29285714708E+01  0.30133713833E+01  0.51100000000E-03 0.  1.
         12    1    3    3    0    0  0.13394562810E+02  0.35708007934E+00 -0.11370966678E+02  0.17573864181E+02  0.00000000000E+00 0. -1.
</event>
<event>
 7    1  0.4194672E-008  0.4614232E+02  0.7816164E-02  0.1320468E+00
        -11   -1    0    0    0    0  0.00000000000E+00  0.00000000000E+00  0.45593999997E+02  0.45594000000E+02  0.51100000000E-03 0.  1.
         11   -1    0    0    0    0 -0.00000000000E+00 -0.00000000000E+00 -0.45593999997E+02  0.45594000000E+02  0.51100000000E-03 0. -1.
    9900012    2    1    2    0    0  0.31392180103E+01  0.28097668700E+02 -0.35068209699E+02  0.46142323098E+02  0.10000048662E+02 0.  0.
        -12    1    1    2    0    0 -0.31392180103E+01 -0.28097668700E+02  0.35068209699E+02  0.45045676902E+02  0.00000000000E+00 0.  1.
         11    1    3    3    0    0  0.16315445822E+01  0.64620517200E+01 -0.56413856390E+01  0.87318544620E+01  0.51100000000E-03 0.  1.
        -11    1    3    3    0    0  0.28102946011E+01  0.47520107492E+01 -0.38299515708E+01  0.67192180498E+01  0.51100000000E-03 0. -1.
        -12    1    3    3    0    0 -0.13026211729E+01  0.16883606231E+02 -0.25596872490E+02  0.30691250586E+02  0.00000000000E+00 0.  1.
</event>
<event>
 7    1  0.4194672E-008  0.4614232E+02  0.7816164E-02  0.1320468E+00
        -11   -1    0    0    0    0  0.00000000000E+00  0.00000000000E+00  0.45593999997E+02  0.45594000000E+02  0.51100000000E-03 0.  1.
         11   -1    0    0    0    0 -0.00000000000E+00 -0.00000000000E+00 -0.45593999997E+02  0.45594000000E+02  0.51100000000E-03 0. -1.
    9900012    2    1    2    0    0  0.16735404060E+02  0.10424541607E+01 -0.41808529903E+02  0.46142316162E+02  0.99999854200E+01 0.  0.
        -12    1    1    2    0    0 -0.16735404060E+02 -0.10424541607E+01  0.41808529903E+02  0.45045683838E+02  0.00000000000E+00 0.  1.
         11    1    3    3    0    0  0.60402524981E+01  0.26745714457E+01 -0.20061281200E+02  0.21120913482E+02  0.51100000000E-03 0. -1.
        -11    1    3    3    0    0  0.36430591798E+01 -0.58981850193E+00 -0.23990618802E+01  0.44017342285E+01  0.51100000000E-03 0.  1.
        -12    1    3    3    0    0  0.70520923825E+01 -0.10422987831E+01 -0.19348186823E+02  0.20619668452E+02  0.00000000000E+00 0.  1.
</event>
<event>
 7    1  0.4194672E-008  0.4614232E+02  0.7816164E-02  0.1320468E+00
        -11   -1    0    0    0    0  0.00000000000E+00  0.00000000000E+00  0.45593999997E+02  0.45594000000E+02  0.51100000000E-03 0.  1.
         11   -1    0    0    0    0 -0.00000000000E+00 -0.00000000000E+00 -0.45593999997E+02  0.45594000000E+02  0.51100000000E-03 0. -1.
    9900012    2    1    2    0    0  0.20797377913E+02 -0.35363890723E+02 -0.18600477389E+02  0.46142318140E+02  0.10000003457E+02 0.  0.
        -12    1    1    2    0    0 -0.20797377913E+02  0.35363890723E+02  0.18600477389E+02  0.45045681860E+02  0.00000000000E+00 0.  1.
         11    1    3    3    0    0  0.11475715572E+02 -0.18197687061E+02 -0.12661915004E+02  0.24963412308E+02  0.51100000000E-03 0.  1.
        -11    1    3    3    0    0  0.51350650481E+01 -0.11820567233E+02 -0.63683902931E+01  0.14375364272E+02  0.51100000000E-03 0. -1.
        -12    1    3    3    0    0  0.41865972929E+01 -0.53456364293E+01  0.42982790854E+00  0.68035415599E+01  0.00000000000E+00 0.  1.
</event>
<event>
 7    1  0.4194672E-008  0.4614232E+02  0.7816164E-02  0.1320468E+00
        -11   -1    0    0    0    0  0.00000000000E+00  0.00000000000E+00  0.45593999997E+02  0.45594000000E+02  0.51100000000E-03 0.  1.
         11   -1    0    0    0    0 -0.00000000000E+00 -0.00000000000E+00 -0.45593999997E+02  0.45594000000E+02  0.51100000000E-03 0. -1.
    9900012    2    1    2    0    0  0.30578353618E+02 -0.28693961488E+02 -0.16454007864E+02  0.46142317514E+02  0.99999977434E+01 0.  0.
        -12    1    1    2    0    0 -0.30578353618E+02  0.28693961488E+02  0.16454007864E+02  0.45045682486E+02  0.00000000000E+00 0.  1.
         11    1    3    3    0    0  0.26769845856E+01 -0.56965357952E+01 -0.30852252891E+01  0.70096634643E+01  0.51100000000E-03 0. -1.
        -11    1    3    3    0    0  0.19601661202E+02 -0.19188052999E+02 -0.81533936885E+01  0.28616155029E+02  0.51100000000E-03 0.  1.
        -12    1    3    3    0    0  0.82997078308E+01 -0.38093726934E+01 -0.52153888868E+01  0.10516499020E+02  0.00000000000E+00 0.  1.
</event>
<event>
 7    1  0.4194672E-008  0.4614232E+02  0.7816164E-02  0.1320468E+00
        -11   -1    0    0    0    0  0.00000000000E+00  0.00000000000E+00  0.45593999997E+02  0.45594000000E+02  0.51100000000E-03 0.  1.
         11   -1    0    0    0    0 -0.00000000000E+00 -0.00000000000E+00 -0.45593999997E+02  0.45594000000E+02  0.51100000000E-03 0. -1.
    9900012    2    1    2    0    0 -0.70370737673E+01 -0.16485149783E+02 -0.41325935422E+02  0.46142317531E+02  0.99999979011E+01 0.  0.
        -12    1    1    2    0    0  0.70370737673E+01  0.16485149783E+02  0.41325935422E+02  0.45045682469E+02  0.00000000000E+00 0.  1.
         11    1    3    3    0    0 -0.50529576023E+01 -0.99534608356E+01 -0.32067210045E+02  0.33954524345E+02  0.51100000000E-03 0. -1.
        -11    1    3    3    0    0 -0.23858359067E+01 -0.26958340942E+01 -0.65522876497E+01  0.74761091580E+01  0.51100000000E-03 0.  1.
        -12    1    3    3    0    0  0.40171974174E+00 -0.38358548535E+01 -0.27064377270E+01  0.47116840279E+01  0.00000000000E+00 0.  1.
</event>
<event>
 7    1  0.4194672E-008  0.4614232E+02  0.7816164E-02  0.1320468E+00
        -11   -1    0    0    0    0  0.00000000000E+00  0.00000000000E+00  0.45593999997E+02  0.45594000000E+02  0.51100000000E-03 0.  1.
         11   -1    0    0    0    0 -0.00000000000E+00 -0.00000000000E+00 -0.45593999997E+02  0.45594000000E+02  0.51100000000E-03 0. -1.
    9900012    2    1    2    0    0  0.38492042864E+02 -0.10918396403E+02 -0.20694559961E+02  0.46142317012E+02  0.99999931667E+01 0.  0.
        -12    1    1    2    0    0 -0.38492042864E+02  0.10918396403E+02  0.20694559961E+02  0.45045682988E+02  0.00000000000E+00 0.  1.
         11    1    3    3    0    0  0.11703907821E+02  0.21753738861E+00 -0.59357055713E+01  0.13124838349E+02  0.51100000000E-03 0. -1.
        -11    1    3    3    0    0  0.16537098637E+02 -0.49416893279E+01 -0.10989001101E+02  0.20461037857E+02  0.51100000000E-03 0.  1.
        -12    1    3    3    0    0  0.10251036406E+02 -0.61942444633E+01 -0.37698532894E+01  0.12556440805E+02  0.00000000000E+00 0.  1.
</event>
<event>
 7    1  0.4194672E-008  0.4614232E+02  0.7816164E-02  0.1320468E+00
        -11   -1    0    0    0    0  0.00000000000E+00  0.00000000000E+00  0.45593999997E+02  0.45594000000E+02  0.51100000000E-03 0.  1.
         11   -1    0    0    0    0 -0.00000000000E+00 -0.00000000000E+00 -0.45593999997E+02  0.45594000000E+02  0.51100000000E-03 0. -1.
    9900012    2    1    2    0    0  0.85631915944E+01  0.20749985570E+02 -0.39054107866E+02  0.46142317713E+02  0.99999995646E+01 0.  0.
        -12    1    1    2    0    0 -0.85631915944E+01 -0.20749985570E+02  0.39054107866E+02  0.45045682287E+02  0.00000000000E+00 0.  1.
         11    1    3    3    0    0 -0.46948973302E+00  0.23363317796E+01 -0.18247373941E+01  0.30014219318E+01  0.51100000000E-03 0. -1.
        -11    1    3    3    0    0  0.82626663911E+01  0.12277003366E+02 -0.20332646476E+02  0.25147822580E+02  0.51100000000E-03 0.  1.
         12    1    3    3    0    0  0.77001493638E+00  0.61366504247E+01 -0.16896723997E+02  0.17993073202E+02  0.00000000000E+00 0. -1.
</event>
<event>
 7    1  0.4194672E-008  0.4614232E+02  0.7816164E-02  0.1320468E+00
        -11   -1    0    0    0    0  0.00000000000E+00  0.00000000000E+00  0.45593999997E+02  0.45594000000E+02  0.51100000000E-03 0.  1.
         11   -1    0    0    0    0 -0.00000000000E+00 -0.00000000000E+00 -0.45593999997E+02  0.45594000000E+02  0.51100000000E-03 0. -1.
    9900012    2    1    2    0    0  0.31687390711E+02 -0.11041681030E+02 -0.30051689732E+02  0.46142317568E+02  0.99999982418E+01 0.  0.
        -12    1    1    2    0    0 -0.31687390711E+02  0.11041681030E+02  0.30051689732E+02  0.45045682432E+02  0.00000000000E+00 0.  1.
         11    1    3    3    0    0  0.24206439994E+02 -0.51544214659E+01 -0.21615062655E+02  0.32859256408E+02  0.51100000000E-03 0. -1.
        -11    1    3    3    0    0  0.42082040227E+01 -0.44075110877E+01 -0.30649623283E+01  0.68212263868E+01  0.51100000000E-03 0.  1.
         12    1    3    3    0    0  0.32727466940E+01 -0.14797484767E+01 -0.53716647482E+01  0.64618347739E+01  0.00000000000E+00 0. -1.
</event>
<event>
 7    1  0.4194672E-008  0.4614232E+02  0.7816164E-02  0.1320468E+00
        -11   -1    0    0    0    0  0.00000000000E+00  0.00000000000E+00  0.45593999997E+02  0.45594000000E+02  0.51100000000E-03 0.  1.
         11   -1    0    0    0    0 -0.00000000000E+00 -0.00000000000E+00 -0.45593999997E+02  0.45594000000E+02  0.51100000000E-03 0. -1.
    9900012    2    1    2    0    0  0.15264633176E+02  0.41318210800E+02 -0.94292039612E+01  0.46142318109E+02  0.10000003173E+02 0.  0.
        -12    1    1    2    0    0 -0.15264633176E+02 -0.41318210800E+02  0.94292039612E+01  0.45045681891E+02  0.00000000000E+00 0.  1.
         11    1    3    3    0    0  0.10065857040E+02  0.33820054524E+02 -0.82788477821E+01  0.36244404904E+02  0.51100000000E-03 0. -1.
        -11    1    3    3    0    0  0.48991885095E+01  0.71148198684E+01  0.11343030609E-01  0.86384511770E+01  0.51100000000E-03 0.  1.
        -12    1    3    3    0    0  0.29958762633E+00  0.38333640681E+00 -0.11616992097E+01  0.12594620282E+01  0.00000000000E+00 0.  1.
</event>
<event>
 7    1  0.4194672E-008  0.4614232E+02  0.7816164E-02  0.1320468E+00
        -11   -1    0    0    0    0  0.00000000000E+00  0.00000000000E+00  0.45593999997E+02  0.45594000000E+02  0.51100000000E-03 0.  1.
         11   -1    0    0    0    0 -0.00000000000E+00 -0.00000000000E+00 -0.45593999997E+02  0.45594000000E+02  0.51100000000E-03 0. -1.
    9900012    2    1    2    0    0 -0.65238506085E+01  0.23370402216E+02 -0.37952301275E+02  0.46142317648E+02  0.99999989692E+01 0.  0.
        -12    1    1    2    0    0  0.65238506085E+01 -0.23370402216E+02  0.37952301275E+02  0.45045682352E+02  0.00000000000E+00 0.  1.
         11    1    3    3    0    0 -0.73051039770E+00  0.29203556978E+01 -0.80522532767E+01  0.85965636120E+01  0.51100000000E-03 0. -1.
        -11    1    3    3    0    0 -0.21474496654E+01  0.34673467957E+01 -0.11685712333E+02  0.12376991026E+02  0.51100000000E-03 0.  1.
        -12    1    3    3    0    0 -0.36458905454E+01  0.16982699723E+02 -0.18214335665E+02  0.25168763010E+02  0.00000000000E+00 0.  1.
</event>
<event>
 7    1  0.4194672E-008  0.4614232E+02  0.7816164E-02  0.1320468E+00
        -11   -1    0    0    0    0  0.00000000000E+00  0.00000000000E+00  0.45593999997E+02  0.45594000000E+02  0.51100000000E-03 0.  1.
         11   -1    0    0    0    0 -0.00000000000E+00 -0.00000000000E+00 -0.45593999997E+02  0.45594000000E+02  0.51100000000E-03 0. -1.
    9900012    2    1    2    0    0 -0.27475368176E+02 -0.35275204462E+02  0.54660597578E+01  0.46142315240E+02  0.99999770077E+01 0.  0.
        -12    1    1    2    0    0  0.27475368176E+02  0.35275204462E+02 -0.54660597578E+01  0.45045684760E+02  0.00000000000E+00 0.  1.
         11    1    3    3    0    0 -0.25473468896E+01 -0.44276037348E+01 -0.76649833189E+00  0.51652851772E+01  0.51100000000E-03 0. -1.
        -11    1    3    3    0    0 -0.24705580382E+02 -0.27030886837E+02  0.62735123158E+01  0.37153620311E+02  0.51100000000E-03 0.  1.
        -12    1    3    3    0    0 -0.22244090465E+00 -0.38167138906E+01 -0.40954226097E-01  0.38234097514E+01  0.00000000000E+00 0.  1.
</event>
<event>
 7    1  0.4194672E-008  0.4614232E+02  0.7816164E-02  0.1320468E+00
        -11   -1    0    0    0    0  0.00000000000E+00  0.00000000000E+00  0.45593999997E+02  0.45594000000E+02  0.51100000000E-03 0.  1.
         11   -1    0    0    0    0 -0.00000000000E+00 -0.00000000000E+00 -0.45593999997E+02  0.45594000000E+02  0.51100000000E-03 0. -1.
    9900012    2    1    2    0    0 -0.31294960511E+02  0.87066988092E+00 -0.32387973553E+02  0.46142318184E+02  0.10000003858E+02 0.  0.
        -12    1    1    2    0    0  0.31294960511E+02 -0.87066988092E+00  0.32387973553E+02  0.45045681816E+02  0.00000000000E+00 0.  1.
         11    1    3    3    0    0 -0.11949501093E+02 -0.44747133873E+00 -0.94472371158E+01  0.15239458532E+02  0.51100000000E-03 0. -1.
        -11    1    3    3    0    0 -0.10171410681E+02 -0.20810892232E+01 -0.82901939672E+01  0.13285926534E+02  0.51100000000E-03 0.  1.
        -12    1    3    3    0    0 -0.91740487367E+01  0.33992304428E+01 -0.14650542470E+02  0.17616933118E+02  0.00000000000E+00 0.  1.
</event>
<event>
 7    1  0.4194672E-008  0.4614232E+02  0.7816164E-02  0.1320468E+00
        -11   -1    0    0    0    0  0.00000000000E+00  0.00000000000E+00  0.45593999997E+02  0.45594000000E+02  0.51100000000E-03 0. -1.
         11   -1    0    0    0    0 -0.00000000000E+00 -0.00000000000E+00 -0.45593999997E+02  0.45594000000E+02  0.51100000000E-03 0.  1.
    9900012    2    1    2    0    0 -0.23984549223E+02  0.37988072366E+02 -0.32804380141E+01  0.46142317443E+02  0.99999970979E+01 0.  0.
        -12    1    1    2    0    0  0.23984549223E+02 -0.37988072366E+02  0.32804380141E+01  0.45045682557E+02  0.00000000000E+00 0.  1.
         11    1    3    3    0    0 -0.24550719402E+01  0.69903444809E+01  0.24127668687E+01  0.77919021052E+01  0.51100000000E-03 0. -1.
        -11    1    3    3    0    0 -0.12713885134E+02  0.16081731590E+02 -0.44624573848E+01  0.20980431175E+02  0.51100000000E-03 0.  1.
         12    1    3    3    0    0 -0.88155921486E+01  0.14915996295E+02 -0.12307474980E+01  0.17369984162E+02  0.00000000000E+00 0. -1.
</event>
<event>
 7    1  0.4194672E-008  0.4614232E+02  0.7816164E-02  0.1320468E+00
        -11   -1    0    0    0    0  0.00000000000E+00  0.00000000000E+00  0.45593999997E+02  0.45594000000E+02  0.51100000000E-03 0.  1.
         11   -1    0    0    0    0 -0.00000000000E+00 -0.00000000000E+00 -0.45593999997E+02  0.45594000000E+02  0.51100000000E-03 0. -1.
    9900012    2    1    2    0    0 -0.15267553293E+00 -0.39777426174E+02  0.21138744626E+02  0.46142317996E+02  0.10000002139E+02 0.  0.
        -12    1    1    2    0    0  0.15267553293E+00  0.39777426174E+02 -0.21138744626E+02  0.45045682004E+02  0.00000000000E+00 0.  1.
         11    1    3    3    0    0 -0.56652073005E+00 -0.56240472816E+00  0.66029493053E+00  0.10359703047E+01  0.51100000000E-03 0. -1.
        -11    1    3    3    0    0 -0.21439375429E+01 -0.29091742911E+01  0.69098460852E+00  0.36792965679E+01  0.51100000000E-03 0.  1.
         12    1    3    3    0    0  0.25577827400E+01 -0.36305847155E+02  0.19787465087E+02  0.41427051123E+02  0.00000000000E+00 0. -1.
</event>
<event>
 7    1  0.4194672E-008  0.4614232E+02  0.7816164E-02  0.1320468E+00
        -11   -1    0    0    0    0  0.00000000000E+00  0.00000000000E+00  0.45593999997E+02  0.45594000000E+02  0.51100000000E-03 0.  1.
         11   -1    0    0    0    0 -0.00000000000E+00 -0.00000000000E+00 -0.45593999997E+02  0.45594000000E+02  0.51100000000E-03 0. -1.
    9900012    2    1    2    0    0 -0.63172588075E+01 -0.26072799805E+02 -0.36185837482E+02  0.46142317823E+02  0.10000000562E+02 0.  0.
        -12    1    1    2    0    0  0.63172588075E+01  0.26072799805E+02  0.36185837482E+02  0.45045682177E+02  0.00000000000E+00 0.  1.
         11    1    3    3    0    0 -0.38987369753E+01 -0.92729472051E+01 -0.80437722115E+01  0.12879828086E+02  0.51100000000E-03 0. -1.
        -11    1    3    3    0    0  0.43715767707E+00  0.14309859239E+00 -0.14251131459E+01  0.14975085247E+01  0.51100000000E-03 0.  1.
         12    1    3    3    0    0 -0.28556795092E+01 -0.16942951192E+02 -0.26716952125E+02  0.31764981212E+02  0.00000000000E+00 0. -1.
</event>
<event>
 7    1  0.4194672E-008  0.4614232E+02  0.7816164E-02  0.1320468E+00
        -11   -1    0    0    0    0  0.00000000000E+00  0.00000000000E+00  0.45593999997E+02  0.45594000000E+02  0.51100000000E-03 0. -1.
         11   -1    0    0    0    0 -0.00000000000E+00 -0.00000000000E+00 -0.45593999997E+02  0.45594000000E+02  0.51100000000E-03 0.  1.
    9900012    2    1    2    0    0  0.41819350321E+02 -0.11101350058E+02  0.12530582079E+02  0.46142317393E+02  0.99999966398E+01 0.  0.
        -12    1    1    2    0    0 -0.41819350321E+02  0.11101350058E+02 -0.12530582079E+02  0.45045682607E+02  0.00000000000E+00 0.  1.
         11    1    3    3    0    0  0.21631133893E+02 -0.87689305243E+01  0.80553321929E+01  0.24691870586E+02  0.51100000000E-03 0. -1.
        -11    1    3    3    0    0  0.17967171849E+02 -0.70839619267E+00  0.49689149839E+01  0.18655058450E+02  0.51100000000E-03 0.  1.
        -12    1    3    3    0    0  0.22210445791E+01 -0.16240233410E+01 -0.49366509831E+00  0.27953883565E+01  0.00000000000E+00 0.  1.
</event>
<event>
 7    1  0.4194672E-008  0.4614232E+02  0.7816164E-02  0.1320468E+00
        -11   -1    0    0    0    0  0.00000000000E+00  0.00000000000E+00  0.45593999997E+02  0.45594000000E+02  0.51100000000E-03 0. -1.
         11   -1    0    0    0    0 -0.00000000000E+00 -0.00000000000E+00 -0.45593999997E+02  0.45594000000E+02  0.51100000000E-03 0.  1.
    9900012    2    1    2    0    0 -0.10456215660E+02 -0.39769184505E+02  0.18390025842E+02  0.46142317271E+02  0.99999955284E+01 0.  0.
        -12    1    1    2    0    0  0.10456215660E+02  0.39769184505E+02 -0.18390025842E+02  0.45045682729E+02  0.00000000000E+00 0.  1.
         11    1    3    3    0    0 -0.11381767923E+01 -0.43291476291E+01 -0.52845111025E+00  0.45073524871E+01  0.51100000000E-03 0. -1.
        -11    1    3    3    0    0 -0.50518429820E+01 -0.12155442947E+02  0.44696701542E+01  0.13901577691E+02  0.51100000000E-03 0.  1.
         12    1    3    3    0    0 -0.42661958854E+01 -0.23284593929E+02  0.14448806798E+02  0.27733387093E+02  0.00000000000E+00 0. -1.
</event>
<event>
 7    1  0.4194672E-008  0.4614232E+02  0.7816164E-02  0.1320468E+00
        -11   -1    0    0    0    0  0.00000000000E+00  0.00000000000E+00  0.45593999997E+02  0.45594000000E+02  0.51100000000E-03 0. -1.
         11   -1    0    0    0    0 -0.00000000000E+00 -0.00000000000E+00 -0.45593999997E+02  0.45594000000E+02  0.51100000000E-03 0.  1.
    9900012    2    1    2    0    0  0.20967851032E+02  0.20040518190E+02  0.34465059778E+02  0.46142317724E+02  0.99999996583E+01 0.  0.
        -12    1    1    2    0    0 -0.20967851032E+02 -0.20040518190E+02 -0.34465059778E+02  0.45045682276E+02  0.00000000000E+00 0.  1.
         11    1    3    3    0    0  0.17090024993E+02  0.13192941390E+02  0.20783468887E+02  0.29967903431E+02  0.51100000000E-03 0.  1.
        -11    1    3    3    0    0  0.32591489363E+01  0.26987675336E+01  0.51342967999E+01  0.66533000744E+01  0.51100000000E-03 0. -1.
        -12    1    3    3    0    0  0.61867710314E+00  0.41488092660E+01  0.85472940910E+01  0.95211142185E+01  0.00000000000E+00 0.  1.
</event>
<event>
 7    1  0.4194672E-008  0.4614232E+02  0.7816164E-02  0.1320468E+00
        -11   -1    0    0    0    0  0.00000000000E+00  0.00000000000E+00  0.45593999997E+02  0.45594000000E+02  0.51100000000E-03 0.  1.
         11   -1    0    0    0    0 -0.00000000000E+00 -0.00000000000E+00 -0.45593999997E+02  0.45594000000E+02  0.51100000000E-03 0. -1.
    9900012    2    1    2    0    0  0.21529679538E+02  0.20875980266E+02 -0.33612197628E+02  0.46142317826E+02  0.10000000591E+02 0.  0.
        -12    1    1    2    0    0 -0.21529679538E+02 -0.20875980266E+02  0.33612197628E+02  0.45045682174E+02  0.00000000000E+00 0.  1.
         11    1    3    3    0    0  0.11112735527E+02  0.14265639301E+02 -0.24500059067E+02  0.30450849744E+02  0.51100000000E-03 0. -1.
        -11    1    3    3    0    0  0.12314032934E+01  0.19779983130E+01 -0.79321839090E+00  0.24613059692E+01  0.51100000000E-03 0.  1.
         12    1    3    3    0    0  0.91855407184E+01  0.46323426522E+01 -0.83189201703E+01  0.13230162113E+02  0.00000000000E+00 0. -1.
</event>
<event>
 7    1  0.4194672E-008  0.4614232E+02  0.7816164E-02  0.1320468E+00
        -11   -1    0    0    0    0  0.00000000000E+00  0.00000000000E+00  0.45593999997E+02  0.45594000000E+02  0.51100000000E-03 0.  1.
         11   -1    0    0    0    0 -0.00000000000E+00 -0.00000000000E+00 -0.45593999997E+02  0.45594000000E+02  0.51100000000E-03 0. -1.
    9900012    2    1    2    0    0  0.30827547419E+02 -0.23167415028E+02 -0.23281896525E+02  0.46142317579E+02  0.99999983431E+01 0.  0.
        -12    1    1    2    0    0 -0.30827547419E+02  0.23167415028E+02  0.23281896525E+02  0.45045682421E+02  0.00000000000E+00 0.  1.
         11    1    3    3    0    0  0.11828393453E+02 -0.13179758836E+02 -0.91779467471E+01  0.19946218725E+02  0.51100000000E-03 0. -1.
        -11    1    3    3    0    0  0.10629281942E+02 -0.59483659933E+01 -0.49393949408E+01  0.13143907914E+02  0.51100000000E-03 0.  1.
        -12    1    3    3    0    0  0.83698720232E+01 -0.40392901982E+01 -0.91645548374E+01  0.13052190941E+02  0.00000000000E+00 0.  1.
</event>
<event>
 7    1  0.4194672E-008  0.4614232E+02  0.7816164E-02  0.1320468E+00
        -11   -1    0    0    0    0  0.00000000000E+00  0.00000000000E+00  0.45593999997E+02  0.45594000000E+02  0.51100000000E-03 0. -1.
         11   -1    0    0    0    0 -0.00000000000E+00 -0.00000000000E+00 -0.45593999997E+02  0.45594000000E+02  0.51100000000E-03 0.  1.
    9900012    2    1    2    0    0  0.39604956575E+02  0.14878838693E+02  0.15465477599E+02  0.46142318481E+02  0.10000006566E+02 0.  0.
        -12    1    1    2    0    0 -0.39604956575E+02 -0.14878838693E+02 -0.15465477599E+02  0.45045681519E+02  0.00000000000E+00 0.  1.
         11    1    3    3    0    0  0.33162601424E+01  0.24054334564E+01  0.23229897261E+01  0.47095618665E+01  0.51100000000E-03 0. -1.
        -11    1    3    3    0    0  0.29803273961E+02  0.13184889755E+02  0.12389507989E+02  0.34865116738E+02  0.51100000000E-03 0.  1.
        -12    1    3    3    0    0  0.64854224712E+01 -0.71148451837E+00  0.75297988344E+00  0.65676398770E+01  0.00000000000E+00 0.  1.
</event>
<event>
 7    1  0.4194672E-008  0.4614232E+02  0.7816164E-02  0.1320468E+00
        -11   -1    0    0    0    0  0.00000000000E+00  0.00000000000E+00  0.45593999997E+02  0.45594000000E+02  0.51100000000E-03 0. -1.
         11   -1    0    0    0    0 -0.00000000000E+00 -0.00000000000E+00 -0.45593999997E+02  0.45594000000E+02  0.51100000000E-03 0.  1.
    9900012    2    1    2    0    0 -0.27974799528E+02  0.22375670469E+02  0.27310317618E+02  0.46142317787E+02  0.10000000239E+02 0.  0.
        -12    1    1    2    0    0  0.27974799528E+02 -0.22375670469E+02 -0.27310317618E+02  0.45045682213E+02  0.00000000000E+00 0.  1.
         11    1    3    3    0    0 -0.39464910659E+01  0.51158720289E+01  0.50524970310E+01  0.82021134385E+01  0.51100000000E-03 0. -1.
        -11    1    3    3    0    0 -0.34114961123E+01  0.13511097682E+00  0.50307549283E+01  0.60798894817E+01  0.51100000000E-03 0.  1.
         12    1    3    3    0    0 -0.20616812350E+02  0.17124687464E+02  0.17227065659E+02  0.31860314867E+02  0.00000000000E+00 0. -1.
</event>
<event>
 7    1  0.4194672E-008  0.4614231E+02  0.7816164E-02  0.1320468E+00
        -11   -1    0    0    0    0  0.00000000000E+00  0.00000000000E+00  0.45593999997E+02  0.45594000000E+02  0.51100000000E-03 0.  1.
         11   -1    0    0    0    0 -0.00000000000E+00 -0.00000000000E+00 -0.45593999997E+02  0.45594000000E+02  0.51100000000E-03 0. -1.
    9900012    2    1    2    0    0  0.26916485052E+02  0.25634800501E+02 -0.25445508175E+02  0.46142311520E+02  0.99999430911E+01 0.  0.
        -12    1    1    2    0    0 -0.26916485052E+02 -0.25634800501E+02  0.25445508175E+02  0.45045688480E+02  0.00000000000E+00 0.  1.
         11    1    3    3    0    0  0.34502546471E+01  0.16559464745E+01 -0.95562418147E+00  0.39445701532E+01  0.51100000000E-03 0. -1.
        -11    1    3    3    0    0  0.59439089639E+01  0.20566391475E+01 -0.48821207526E+01  0.79620927939E+01  0.51100000000E-03 0.  1.
         12    1    3    3    0    0  0.17522321441E+02  0.21922214879E+02 -0.19607763241E+02  0.34235648573E+02  0.00000000000E+00 0. -1.
</event>
<event>
 7    1  0.4194672E-008  0.4614232E+02  0.7816164E-02  0.1320468E+00
        -11   -1    0    0    0    0  0.00000000000E+00  0.00000000000E+00  0.45593999997E+02  0.45594000000E+02  0.51100000000E-03 0. -1.
         11   -1    0    0    0    0 -0.00000000000E+00 -0.00000000000E+00 -0.45593999997E+02  0.45594000000E+02  0.51100000000E-03 0.  1.
    9900012    2    1    2    0    0 -0.36559070911E+02  0.92639365367E+01  0.24631835759E+02  0.46142317422E+02  0.99999969110E+01 0.  0.
        -12    1    1    2    0    0  0.36559070911E+02 -0.92639365367E+01 -0.24631835759E+02  0.45045682578E+02  0.00000000000E+00 0.  1.
         11    1    3    3    0    0 -0.67328379573E+01  0.26831220090E+01  0.40168966703E+01  0.82864775264E+01  0.51100000000E-03 0. -1.
        -11    1    3    3    0    0 -0.24383298925E+02  0.62799245522E+01  0.12581318268E+02  0.28147331818E+02  0.51100000000E-03 0.  1.
        -12    1    3    3    0    0 -0.54429340291E+01  0.30088997539E+00  0.80336208200E+01  0.97085080781E+01  0.00000000000E+00 0.  1.
</event>
<event>
 7    1  0.4194672E-008  0.4614232E+02  0.7816164E-02  0.1320468E+00
        -11   -1    0    0    0    0  0.00000000000E+00  0.00000000000E+00  0.45593999997E+02  0.45594000000E+02  0.51100000000E-03 0.  1.
         11   -1    0    0    0    0 -0.00000000000E+00 -0.00000000000E+00 -0.45593999997E+02  0.45594000000E+02  0.51100000000E-03 0. -1.
    9900012    2    1    2    0    0  0.72346366754E+01 -0.28001141244E+02 -0.34535627300E+02  0.46142318389E+02  0.10000005726E+02 0.  0.
        -12    1    1    2    0    0 -0.72346366754E+01  0.28001141244E+02  0.34535627300E+02  0.45045681611E+02  0.00000000000E+00 0.  1.
         11    1    3    3    0    0  0.35703327040E+00 -0.23897639713E+01 -0.13775186379E+01  0.27813670117E+01  0.51100000000E-03 0. -1.
        -11    1    3    3    0    0 -0.55619946160E-01  0.63972202836E+00 -0.16369277589E+01  0.17583715765E+01  0.51100000000E-03 0.  1.
         12    1    3    3    0    0  0.69332233511E+01 -0.26251099301E+02 -0.31521180904E+02  0.41602579801E+02  0.00000000000E+00 0. -1.
</event>
<event>
 7    1  0.4194672E-008  0.4614232E+02  0.7816164E-02  0.1320468E+00
        -11   -1    0    0    0    0  0.00000000000E+00  0.00000000000E+00  0.45593999997E+02  0.45594000000E+02  0.51100000000E-03 0. -1.
         11   -1    0    0    0    0 -0.00000000000E+00 -0.00000000000E+00 -0.45593999997E+02  0.45594000000E+02  0.51100000000E-03 0.  1.
    9900012    2    1    2    0    0  0.32777604970E+02  0.10782127630E+02  0.28956652157E+02  0.46142319098E+02  0.10000012192E+02 0.  0.
        -12    1    1    2    0    0 -0.32777604970E+02 -0.10782127630E+02 -0.28956652157E+02  0.45045680902E+02  0.00000000000E+00 0.  1.
         11    1    3    3    0    0  0.22426818353E+01  0.13291099916E+01  0.72086756490E+00  0.27047745731E+01  0.51100000000E-03 0. -1.
        -11    1    3    3    0    0  0.67835199798E+01  0.96528275981E+00  0.10745668868E+02  0.12744305152E+02  0.51100000000E-03 0.  1.
         12    1    3    3    0    0  0.23751403154E+02  0.84877348790E+01  0.17490115724E+02  0.30693239373E+02  0.00000000000E+00 0. -1.
</event>
<event>
 7    1  0.4194672E-008  0.4614232E+02  0.7816164E-02  0.1320468E+00
        -11   -1    0    0    0    0  0.00000000000E+00  0.00000000000E+00  0.45593999997E+02  0.45594000000E+02  0.51100000000E-03 0.  1.
         11   -1    0    0    0    0 -0.00000000000E+00 -0.00000000000E+00 -0.45593999997E+02  0.45594000000E+02  0.51100000000E-03 0. -1.
    9900012    2    1    2    0    0  0.15259585913E+02  0.38538513168E+02 -0.17636368984E+02  0.46142317961E+02  0.10000001821E+02 0.  0.
        -12    1    1    2    0    0 -0.15259585913E+02 -0.38538513168E+02  0.17636368984E+02  0.45045682039E+02  0.00000000000E+00 0.  1.
         11    1    3    3    0    0  0.26203866008E+01  0.97157112273E+01 -0.65051310235E+01  0.11982412131E+02  0.51100000000E-03 0. -1.
        -11    1    3    3    0    0  0.61778491236E+01  0.10782178293E+02 -0.79037629065E+01  0.14727208048E+02  0.51100000000E-03 0.  1.
        -12    1    3    3    0    0  0.64613501887E+01  0.18040623647E+02 -0.32274750543E+01  0.19432697782E+02  0.00000000000E+00 0.  1.
</event>
<event>
 7    1  0.4194672E-008  0.4614232E+02  0.7816164E-02  0.1320468E+00
        -11   -1    0    0    0    0  0.00000000000E+00  0.00000000000E+00  0.45593999997E+02  0.45594000000E+02  0.51100000000E-03 0.  1.
         11   -1    0    0    0    0 -0.00000000000E+00 -0.00000000000E+00 -0.45593999997E+02  0.45594000000E+02  0.51100000000E-03 0. -1.
    9900012    2    1    2    0    0 -0.11463792352E+02 -0.51592732090E+01 -0.43255946340E+02  0.46142317311E+02  0.99999958996E+01 0.  0.
        -12    1    1    2    0    0  0.11463792352E+02  0.51592732090E+01  0.43255946340E+02  0.45045682689E+02  0.00000000000E+00 0.  1.
         11    1    3    3    0    0 -0.33449201493E+01  0.37938650774E+00 -0.22021652062E+02  0.22277468095E+02  0.51100000000E-03 0.  1.
        -11    1    3    3    0    0 -0.28921264708E+01 -0.32095706778E+01 -0.47759819853E+01  0.64401664298E+01  0.51100000000E-03 0. -1.
         12    1    3    3    0    0 -0.52267457321E+01 -0.23290890390E+01 -0.16458312293E+02  0.17424682787E+02  0.00000000000E+00 0. -1.
</event>
<event>
 7    1  0.4194672E-008  0.4614232E+02  0.7816164E-02  0.1320468E+00
        -11   -1    0    0    0    0  0.00000000000E+00  0.00000000000E+00  0.45593999997E+02  0.45594000000E+02  0.51100000000E-03 0.  1.
         11   -1    0    0    0    0 -0.00000000000E+00 -0.00000000000E+00 -0.45593999997E+02  0.45594000000E+02  0.51100000000E-03 0. -1.
    9900012    2    1    2    0    0  0.32558282231E+02  0.24675240594E+02 -0.18979045503E+02  0.46142318649E+02  0.10000008096E+02 0.  0.
        -12    1    1    2    0    0 -0.32558282231E+02 -0.24675240594E+02  0.18979045503E+02  0.45045681351E+02  0.00000000000E+00 0.  1.
         11    1    3    3    0    0  0.28236303168E+02  0.20019790518E+02 -0.11965279428E+02  0.36623062966E+02  0.51100000000E-03 0. -1.
        -11    1    3    3    0    0  0.14202066408E+01  0.99211140326E+00 -0.23223849203E+01  0.28973684471E+01  0.51100000000E-03 0.  1.
         12    1    3    3    0    0  0.29017724216E+01  0.36633386732E+01 -0.46913811549E+01  0.66218872357E+01  0.00000000000E+00 0. -1.
</event>
<event>
 7    1  0.4194672E-008  0.4614232E+02  0.7816164E-02  0.1320468E+00
        -11   -1    0    0    0    0  0.00000000000E+00  0.00000000000E+00  0.45593999997E+02  0.45594000000E+02  0.51100000000E-03 0. -1.
         11   -1    0    0    0    0 -0.00000000000E+00 -0.00000000000E+00 -0.45593999997E+02  0.45594000000E+02  0.51100000000E-03 0.  1.
    9900012    2    1    2    0    0  0.14013713542E+02  0.40707257896E+02  0.13253243953E+02  0.46142317766E+02  0.10000000041E+02 0.  0.
        -12    1    1    2    0    0 -0.14013713542E+02 -0.40707257896E+02 -0.13253243953E+02  0.45045682234E+02  0.00000000000E+00 0.  1.
         11    1    3    3    0    0  0.35718301607E+01  0.13048103955E+02  0.41479608896E+01  0.14149790363E+02  0.51100000000E-03 0. -1.
        -11    1    3    3    0    0  0.33957193275E+01  0.17809630328E+01  0.14703762086E+01  0.41066708574E+01  0.51100000000E-03 0.  1.
        -12    1    3    3    0    0  0.70461640542E+01  0.25878190909E+02  0.76349068552E+01  0.27885856545E+02  0.00000000000E+00 0.  1.
</event>
<event>
 7    1  0.4194672E-008  0.4614232E+02  0.7816164E-02  0.1320468E+00
        -11   -1    0    0    0    0  0.00000000000E+00  0.00000000000E+00  0.45593999997E+02  0.45594000000E+02  0.51100000000E-03 0.  1.
         11   -1    0    0    0    0 -0.00000000000E+00 -0.00000000000E+00 -0.45593999997E+02  0.45594000000E+02  0.51100000000E-03 0. -1.
    9900012    2    1    2    0    0  0.15465046662E+02 -0.53449754856E+01 -0.41968762747E+02  0.46142317879E+02  0.10000001079E+02 0.  0.
        -12    1    1    2    0    0 -0.15465046662E+02  0.53449754856E+01  0.41968762747E+02  0.45045682121E+02  0.00000000000E+00 0.  1.
         11    1    3    3    0    0  0.13809676875E+02 -0.15437527858E+01 -0.27264774523E+02  0.30601605809E+02  0.51100000000E-03 0. -1.
        -11    1    3    3    0    0  0.16429815907E+01 -0.82571310481E+00 -0.35667976660E+01  0.40128838122E+01  0.51100000000E-03 0.  1.
        -12    1    3    3    0    0  0.12388195881E-01 -0.29755095950E+01 -0.11137190558E+02  0.11527828258E+02  0.00000000000E+00 0.  1.
</event>
<event>
 7    1  0.4194672E-008  0.4614232E+02  0.7816164E-02  0.1320468E+00
        -11   -1    0    0    0    0  0.00000000000E+00  0.00000000000E+00  0.45593999997E+02  0.45594000000E+02  0.51100000000E-03 0.  1.
         11   -1    0    0    0    0 -0.00000000000E+00 -0.00000000000E+00 -0.45593999997E+02  0.45594000000E+02  0.51100000000E-03 0. -1.
    9900012    2    1    2    0    0 -0.14088996299E+02  0.31012148501E+02 -0.29476436331E+02  0.46142317963E+02  0.10000001844E+02 0.  0.
        -12    1    1    2    0    0  0.14088996299E+02 -0.31012148501E+02  0.29476436331E+02  0.45045682037E+02  0.00000000000E+00 0.  1.
         11    1    3    3    0    0 -0.41911247779E+01  0.10855029172E+02 -0.80299761616E+01  0.14137811098E+02  0.51100000000E-03 0. -1.
        -11    1    3    3    0    0 -0.85294129592E+01  0.16360467581E+02 -0.12779408976E+02  0.22443909618E+02  0.51100000000E-03 0.  1.
        -12    1    3    3    0    0 -0.13684585616E+01  0.37966517477E+01 -0.86670511934E+01  0.95605972469E+01  0.00000000000E+00 0.  1.
</event>
<event>
 7    1  0.4194672E-008  0.4614232E+02  0.7816164E-02  0.1320468E+00
        -11   -1    0    0    0    0  0.00000000000E+00  0.00000000000E+00  0.45593999997E+02  0.45594000000E+02  0.51100000000E-03 0.  1.
         11   -1    0    0    0    0 -0.00000000000E+00 -0.00000000000E+00 -0.45593999997E+02  0.45594000000E+02  0.51100000000E-03 0. -1.
    9900012    2    1    2    0    0  0.46272994884E+01 -0.44203023494E+02 -0.73344460919E+01  0.46142320006E+02  0.10000020475E+02 0.  0.
        -12    1    1    2    0    0 -0.46272994884E+01  0.44203023494E+02  0.73344460919E+01  0.45045679994E+02  0.00000000000E+00 0.  1.
         11    1    3    3    0    0  0.43005037099E+01 -0.32056437011E+02 -0.99474989909E+00  0.32358909339E+02  0.51100000000E-03 0. -1.
        -11    1    3    3    0    0  0.84226095159E+00 -0.68365507527E+01 -0.39173750019E+01  0.79242448771E+01  0.51100000000E-03 0.  1.
         12    1    3    3    0    0 -0.51546517302E+00 -0.53100357308E+01 -0.24223211909E+01  0.58591657904E+01  0.00000000000E+00 0. -1.
</event>
<event>
 7    1  0.4194672E-008  0.4614232E+02  0.7816164E-02  0.1320468E+00
        -11   -1    0    0    0    0  0.00000000000E+00  0.00000000000E+00  0.45593999997E+02  0.45594000000E+02  0.51100000000E-03 0.  1.
         11   -1    0    0    0    0 -0.00000000000E+00 -0.00000000000E+00 -0.45593999997E+02  0.45594000000E+02  0.51100000000E-03 0. -1.
    9900012    2    1    2    0    0  0.55863635892E+01  0.30679868448E+02 -0.32506178806E+02  0.46142318224E+02  0.10000004220E+02 0.  0.
        -12    1    1    2    0    0 -0.55863635892E+01 -0.30679868448E+02  0.32506178806E+02  0.45045681776E+02  0.00000000000E+00 0.  1.
         11    1    3    3    0    0  0.62989449076E+00  0.10577771147E+01 -0.25936742229E+01  0.28710286884E+01  0.51100000000E-03 0.  1.
        -11    1    3    3    0    0 -0.16458374773E+01  0.32242607726E+01 -0.14653732940E+01  0.39053754856E+01  0.51100000000E-03 0. -1.
         12    1    3    3    0    0  0.66023065758E+01  0.26397830560E+02 -0.28447131289E+02  0.39365914050E+02  0.00000000000E+00 0. -1.
</event>
<event>
 7    1  0.4194672E-008  0.4614232E+02  0.7816164E-02  0.1320468E+00
        -11   -1    0    0    0    0  0.00000000000E+00  0.00000000000E+00  0.45593999997E+02  0.45594000000E+02  0.51100000000E-03 0.  1.
         11   -1    0    0    0    0 -0.00000000000E+00 -0.00000000000E+00 -0.45593999997E+02  0.45594000000E+02  0.51100000000E-03 0. -1.
    9900012    2    1    2    0    0 -0.23723553652E+02 -0.34884413097E+02 -0.15791904615E+02  0.46142317339E+02  0.99999961527E+01 0.  0.
        -12    1    1    2    0    0  0.23723553652E+02  0.34884413097E+02  0.15791904615E+02  0.45045682661E+02  0.00000000000E+00 0.  1.
         11    1    3    3    0    0 -0.12730695156E+02 -0.14154243420E+02 -0.56086232181E+01  0.19846154807E+02  0.51100000000E-03 0. -1.
        -11    1    3    3    0    0 -0.18110049902E+01 -0.41116693700E+00 -0.20620503909E+00  0.18685069183E+01  0.51100000000E-03 0.  1.
        -12    1    3    3    0    0 -0.91818535055E+01 -0.20319002740E+02 -0.99770763574E+01  0.24427655614E+02  0.00000000000E+00 0.  1.
</event>
<event>
 7    1  0.4194672E-008  0.4614232E+02  0.7816164E-02  0.1320468E+00
        -11   -1    0    0    0    0  0.00000000000E+00  0.00000000000E+00  0.45593999997E+02  0.45594000000E+02  0.51100000000E-03 0.  1.
         11   -1    0    0    0    0 -0.00000000000E+00 -0.00000000000E+00 -0.45593999997E+02  0.45594000000E+02  0.51100000000E-03 0. -1.
    9900012    2    1    2    0    0 -0.44246142409E+02 -0.75691709107E+01 -0.37550122710E+01  0.46142316705E+02  0.99999903662E+01 0.  0.
        -12    1    1    2    0    0  0.44246142409E+02  0.75691709107E+01  0.37550122710E+01  0.45045683295E+02  0.00000000000E+00 0.  1.
         11    1    3    3    0    0 -0.29338961025E+02 -0.49310314686E+01 -0.10663439508E+01  0.29769561553E+02  0.51100000000E-03 0. -1.
        -11    1    3    3    0    0 -0.33540399592E+01 -0.10439904694E+01  0.17117106553E+01  0.39076148449E+01  0.51100000000E-03 0.  1.
         12    1    3    3    0    0 -0.11553141426E+02 -0.15941489726E+01 -0.44003789755E+01  0.12465140307E+02  0.00000000000E+00 0. -1.
</event>
<event>
 7    1  0.4194672E-008  0.4614232E+02  0.7816164E-02  0.1320468E+00
        -11   -1    0    0    0    0  0.00000000000E+00  0.00000000000E+00  0.45593999997E+02  0.45594000000E+02  0.51100000000E-03 0.  1.
         11   -1    0    0    0    0 -0.00000000000E+00 -0.00000000000E+00 -0.45593999997E+02  0.45594000000E+02  0.51100000000E-03 0. -1.
    9900012    2    1    2    0    0 -0.45038436678E+02 -0.33110060245E+00  0.73667778404E+00  0.46142322070E+02  0.10000039296E+02 0.  0.
        -12    1    1    2    0    0  0.45038436678E+02  0.33110060245E+00 -0.73667778404E+00  0.45045677930E+02  0.00000000000E+00 0.  1.
         11    1    3    3    0    0 -0.11986641948E+02  0.17345140612E+01 -0.94396038094E+00  0.12148217387E+02  0.51100000000E-03 0. -1.
        -11    1    3    3    0    0 -0.31532121154E+02 -0.35924383926E+01  0.10662947496E+01  0.31754011759E+02  0.51100000000E-03 0.  1.
        -12    1    3    3    0    0 -0.15196735755E+01  0.15268237289E+01  0.61434341539E+00  0.22400929238E+01  0.00000000000E+00 0.  1.
</event>
<event>
 7    1  0.4194672E-008  0.4614232E+02  0.7816164E-02  0.1320468E+00
        -11   -1    0    0    0    0  0.00000000000E+00  0.00000000000E+00  0.45593999997E+02  0.45594000000E+02  0.51100000000E-03 0.  1.
         11   -1    0    0    0    0 -0.00000000000E+00 -0.00000000000E+00 -0.45593999997E+02  0.45594000000E+02  0.51100000000E-03 0. -1.
    9900012    2    1    2    0    0 -0.36290344770E+02  0.26957151726E+01 -0.26549150827E+02  0.46142318593E+02  0.10000007583E+02 0.  0.
        -12    1    1    2    0    0  0.36290344770E+02 -0.26957151726E+01  0.26549150827E+02  0.45045681407E+02  0.00000000000E+00 0.  1.
         11    1    3    3    0    0 -0.87212318888E+00  0.91525113561E+00 -0.79200605497E+00  0.14918302015E+01  0.51100000000E-03 0. -1.
        -11    1    3    3    0    0 -0.17281471134E+01  0.18967729463E+01 -0.68838628079E+00  0.26567114988E+01  0.51100000000E-03 0.  1.
         12    1    3    3    0    0 -0.33690074468E+02 -0.11630890937E+00 -0.25068758491E+02  0.41993776892E+02  0.00000000000E+00 0. -1.
</event>
<event>
 7    1  0.4194672E-008  0.4614232E+02  0.7816164E-02  0.1320468E+00
        -11   -1    0    0    0    0  0.00000000000E+00  0.00000000000E+00  0.45593999997E+02  0.45594000000E+02  0.51100000000E-03 0. -1.
         11   -1    0    0    0    0 -0.00000000000E+00 -0.00000000000E+00 -0.45593999997E+02  0.45594000000E+02  0.51100000000E-03 0.  1.
    9900012    2    1    2    0    0  0.85198316067E+01  0.40484394479E+02 -0.17819645623E+02  0.46142317665E+02  0.99999991197E+01 0.  0.
        -12    1    1    2    0    0 -0.85198316067E+01 -0.40484394479E+02  0.17819645623E+02  0.45045682335E+02  0.00000000000E+00 0.  1.
         11    1    3    3    0    0  0.45982160697E+01  0.78029450209E+01 -0.15594319582E+01  0.91902867374E+01  0.51100000000E-03 0. -1.
        -11    1    3    3    0    0  0.18950194510E+01  0.87799021743E+01 -0.63405006502E+01  0.10994531808E+02  0.51100000000E-03 0.  1.
         12    1    3    3    0    0  0.20265960860E+01  0.23901547284E+02 -0.99197130142E+01  0.25957499120E+02  0.00000000000E+00 0. -1.
</event>
<event>
 7    1  0.4194672E-008  0.4614232E+02  0.7816164E-02  0.1320468E+00
        -11   -1    0    0    0    0  0.00000000000E+00  0.00000000000E+00  0.45593999997E+02  0.45594000000E+02  0.51100000000E-03 0. -1.
         11   -1    0    0    0    0 -0.00000000000E+00 -0.00000000000E+00 -0.45593999997E+02  0.45594000000E+02  0.51100000000E-03 0.  1.
    9900012    2    1    2    0    0 -0.41399022228E+02  0.16579489663E+02  0.63525516058E+01  0.46142318400E+02  0.10000005822E+02 0.  0.
        -12    1    1    2    0    0  0.41399022228E+02 -0.16579489663E+02 -0.63525516058E+01  0.45045681600E+02  0.00000000000E+00 0.  1.
         11    1    3    3    0    0 -0.20066183559E+01  0.21782060854E+01  0.25692704623E+00  0.29727278290E+01  0.51100000000E-03 0.  1.
        -11    1    3    3    0    0 -0.13118874683E+02  0.56779239273E+01 -0.17344454597E+01  0.14399722025E+02  0.51100000000E-03 0. -1.
         12    1    3    3    0    0 -0.26273529189E+02  0.87233596505E+01  0.78300700193E+01  0.28769868546E+02  0.00000000000E+00 0. -1.
</event>
<event>
 7    1  0.4194672E-008  0.4614232E+02  0.7816164E-02  0.1320468E+00
        -11   -1    0    0    0    0  0.00000000000E+00  0.00000000000E+00  0.45593999997E+02  0.45594000000E+02  0.51100000000E-03 0. -1.
         11   -1    0    0    0    0 -0.00000000000E+00 -0.00000000000E+00 -0.45593999997E+02  0.45594000000E+02  0.51100000000E-03 0.  1.
    9900012    2    1    2    0    0  0.41373666178E+02  0.16507355914E+02 -0.66962968253E+01  0.46142318259E+02  0.10000004543E+02 0.  0.
        -12    1    1    2    0    0 -0.41373666178E+02 -0.16507355914E+02  0.66962968253E+01  0.45045681741E+02  0.00000000000E+00 0.  1.
         11    1    3    3    0    0  0.94479771039E+01  0.63973266302E+01 -0.32154110952E+01  0.11854489788E+02  0.51100000000E-03 0. -1.
        -11    1    3    3    0    0  0.84487900210E+01  0.53822375016E+01  0.40851113094E+00  0.10025837369E+02  0.51100000000E-03 0.  1.
         12    1    3    3    0    0  0.23476899053E+02  0.47277917826E+01 -0.38893968610E+01  0.24261991102E+02  0.00000000000E+00 0. -1.
</event>
<event>
 7    1  0.4890413E-008  0.4614232E+02  0.7816164E-02  0.1320468E+00
        -11   -1    0    0    0    0  0.00000000000E+00  0.00000000000E+00  0.45593999997E+02  0.45594000000E+02  0.51100000000E-03 0.  1.
         11   -1    0    0    0    0 -0.00000000000E+00 -0.00000000000E+00 -0.45593999997E+02  0.45594000000E+02  0.51100000000E-03 0. -1.
    9900012    2    1    2    0    0 -0.39246374033E+02 -0.20669991610E+02 -0.78477440840E+01  0.46142317464E+02  0.99999972932E+01 0.  0.
        -12    1    1    2    0    0  0.39246374033E+02  0.20669991610E+02  0.78477440840E+01  0.45045682536E+02  0.00000000000E+00 0.  1.
         11    1    3    3    0    0 -0.16616209749E+02 -0.76996862425E+01 -0.23813406862E+01  0.18467657632E+02  0.51100000000E-03 0. -1.
        -11    1    3    3    0    0 -0.21177627765E+02 -0.92128999114E+01 -0.48645840049E+01  0.23601559702E+02  0.51100000000E-03 0.  1.
        -12    1    3    3    0    0 -0.14525365184E+01 -0.37574054558E+01 -0.60181939295E+00  0.40731001312E+01  0.00000000000E+00 0.  1.
</event>
<event>
 7    1  0.4194672E-008  0.4614231E+02  0.7816164E-02  0.1320468E+00
        -11   -1    0    0    0    0  0.00000000000E+00  0.00000000000E+00  0.45593999997E+02  0.45594000000E+02  0.51100000000E-03 0. -1.
         11   -1    0    0    0    0 -0.00000000000E+00 -0.00000000000E+00 -0.45593999997E+02  0.45594000000E+02  0.51100000000E-03 0.  1.
    9900012    2    1    2    0    0 -0.37256296900E+00  0.34634471908E+01  0.44910796752E+02  0.46142312809E+02  0.99999548418E+01 0.  0.
        -12    1    1    2    0    0  0.37256296900E+00 -0.34634471908E+01 -0.44910796752E+02  0.45045687191E+02  0.00000000000E+00 0.  1.
         11    1    3    3    0    0 -0.94683292881E+00  0.15609940255E+01  0.19062695411E+02  0.19149923017E+02  0.51100000000E-03 0. -1.
        -11    1    3    3    0    0 -0.12349499047E+01 -0.22523322646E+01  0.15269249094E+02  0.15483800246E+02  0.51100000000E-03 0.  1.
        -12    1    3    3    0    0  0.18092198645E+01  0.41547854299E+01  0.10578852247E+02  0.11508589546E+02  0.00000000000E+00 0.  1.
</event>
<event>
 7    1  0.4194672E-008  0.4614232E+02  0.7816164E-02  0.1320468E+00
        -11   -1    0    0    0    0  0.00000000000E+00  0.00000000000E+00  0.45593999997E+02  0.45594000000E+02  0.51100000000E-03 0.  1.
         11   -1    0    0    0    0 -0.00000000000E+00 -0.00000000000E+00 -0.45593999997E+02  0.45594000000E+02  0.51100000000E-03 0. -1.
    9900012    2    1    2    0    0 -0.32920792291E+02 -0.17605071469E+02 -0.25207069867E+02  0.46142317879E+02  0.10000001071E+02 0.  0.
        -12    1    1    2    0    0  0.32920792291E+02  0.17605071469E+02  0.25207069867E+02  0.45045682121E+02  0.00000000000E+00 0.  1.
         11    1    3    3    0    0 -0.13247063543E+02 -0.31773642385E+01 -0.12784759292E+02  0.18682355484E+02  0.51100000000E-03 0. -1.
        -11    1    3    3    0    0 -0.11716314682E+02 -0.77966983772E+01 -0.62179037563E+01  0.15385800684E+02  0.51100000000E-03 0.  1.
         12    1    3    3    0    0 -0.79574140661E+01 -0.66310088532E+01 -0.62044068182E+01  0.12074161710E+02  0.00000000000E+00 0. -1.
</event>
<event>
 7    1  0.4194672E-008  0.4614232E+02  0.7816164E-02  0.1320468E+00
        -11   -1    0    0    0    0  0.00000000000E+00  0.00000000000E+00  0.45593999997E+02  0.45594000000E+02  0.51100000000E-03 0.  1.
         11   -1    0    0    0    0 -0.00000000000E+00 -0.00000000000E+00 -0.45593999997E+02  0.45594000000E+02  0.51100000000E-03 0. -1.
    9900012    2    1    2    0    0 -0.39906702922E+01 -0.15290369870E+02 -0.42182850285E+02  0.46142315209E+02  0.99999767233E+01 0.  0.
        -12    1    1    2    0    0  0.39906702922E+01  0.15290369870E+02  0.42182850285E+02  0.45045684791E+02  0.00000000000E+00 0.  1.
         11    1    3    3    0    0 -0.14446162019E+01 -0.90113706008E+01 -0.17257843733E+02  0.19522420103E+02  0.51100000000E-03 0.  1.
        -11    1    3    3    0    0 -0.40690001154E+01 -0.66142507059E+01 -0.20039443133E+02  0.21491494961E+02  0.51100000000E-03 0. -1.
        -12    1    3    3    0    0  0.15229460251E+01  0.33525143654E+00 -0.48855634194E+01  0.51284001449E+01  0.00000000000E+00 0.  1.
</event>
<event>
 7    1  0.4194672E-008  0.4614232E+02  0.7816164E-02  0.1320468E+00
        -11   -1    0    0    0    0  0.00000000000E+00  0.00000000000E+00  0.45593999997E+02  0.45594000000E+02  0.51100000000E-03 0.  1.
         11   -1    0    0    0    0 -0.00000000000E+00 -0.00000000000E+00 -0.45593999997E+02  0.45594000000E+02  0.51100000000E-03 0. -1.
    9900012    2    1    2    0    0 -0.11208077192E+02  0.12958437548E+02 -0.41660189463E+02  0.46142317808E+02  0.10000000426E+02 0.  0.
        -12    1    1    2    0    0  0.11208077192E+02 -0.12958437548E+02  0.41660189463E+02  0.45045682192E+02  0.00000000000E+00 0.  1.
         11    1    3    3    0    0 -0.92202728411E+01  0.11844533173E+02 -0.32113673133E+02  0.35448475280E+02  0.51100000000E-03 0. -1.
        -11    1    3    3    0    0  0.46250024146E+00  0.15574972673E+01 -0.67788829900E+01  0.69708650155E+01  0.51100000000E-03 0.  1.
         12    1    3    3    0    0 -0.24503045922E+01 -0.44359289157E+00 -0.27676333407E+01  0.37229775122E+01  0.00000000000E+00 0. -1.
</event>
<event>
 7    1  0.4194672E-008  0.4614232E+02  0.7816164E-02  0.1320468E+00
        -11   -1    0    0    0    0  0.00000000000E+00  0.00000000000E+00  0.45593999997E+02  0.45594000000E+02  0.51100000000E-03 0.  1.
         11   -1    0    0    0    0 -0.00000000000E+00 -0.00000000000E+00 -0.45593999997E+02  0.45594000000E+02  0.51100000000E-03 0. -1.
    9900012    2    1    2    0    0 -0.33902497236E-01  0.84921294347E+01 -0.44237948366E+02  0.46142317772E+02  0.10000000100E+02 0.  0.
        -12    1    1    2    0    0  0.33902497236E-01 -0.84921294347E+01  0.44237948366E+02  0.45045682228E+02  0.00000000000E+00 0.  1.
         11    1    3    3    0    0 -0.70264655769E+00  0.29380842265E+01 -0.21575710742E+02  0.21786173262E+02  0.51100000000E-03 0. -1.
        -11    1    3    3    0    0 -0.19778135348E+01 -0.44992099694E+00 -0.86371575417E+01  0.88721286028E+01  0.51100000000E-03 0.  1.
        -12    1    3    3    0    0  0.26465575953E+01  0.60039662052E+01 -0.14025080082E+02  0.15484015907E+02  0.00000000000E+00 0.  1.
</event>
<event>
 7    1  0.4194672E-008  0.4614232E+02  0.7816164E-02  0.1320468E+00
        -11   -1    0    0    0    0  0.00000000000E+00  0.00000000000E+00  0.45593999997E+02  0.45594000000E+02  0.51100000000E-03 0.  1.
         11   -1    0    0    0    0 -0.00000000000E+00 -0.00000000000E+00 -0.45593999997E+02  0.45594000000E+02  0.51100000000E-03 0. -1.
    9900012    2    1    2    0    0  0.20403158720E+02 -0.24858195817E+02 -0.31541951324E+02  0.46142317873E+02  0.10000001017E+02 0.  0.
        -12    1    1    2    0    0 -0.20403158720E+02  0.24858195817E+02  0.31541951324E+02  0.45045682127E+02  0.00000000000E+00 0.  1.
         11    1    3    3    0    0  0.54961352709E+01 -0.85201870380E+01 -0.10214652065E+02  0.14392366280E+02  0.51100000000E-03 0. -1.
        -11    1    3    3    0    0  0.93280943888E+01 -0.11651600937E+02 -0.18872921677E+02  0.24061594341E+02  0.51100000000E-03 0.  1.
         12    1    3    3    0    0  0.55789290601E+01 -0.46864078418E+01 -0.24543775816E+01  0.76883572517E+01  0.00000000000E+00 0. -1.
</event>
<event>
 7    1  0.4194672E-008  0.4614232E+02  0.7816164E-02  0.1320468E+00
        -11   -1    0    0    0    0  0.00000000000E+00  0.00000000000E+00  0.45593999997E+02  0.45594000000E+02  0.51100000000E-03 0. -1.
         11   -1    0    0    0    0 -0.00000000000E+00 -0.00000000000E+00 -0.45593999997E+02  0.45594000000E+02  0.51100000000E-03 0.  1.
    9900012    2    1    2    0    0  0.50111318642E+01 -0.44741158593E+02  0.14933836787E+01  0.46142324185E+02  0.10000058577E+02 0.  0.
        -12    1    1    2    0    0 -0.50111318642E+01  0.44741158593E+02 -0.14933836787E+01  0.45045675815E+02  0.00000000000E+00 0.  1.
         11    1    3    3    0    0  0.38403804382E+01 -0.17088033832E+02  0.13003104550E+00  0.17514746087E+02  0.51100000000E-03 0. -1.
        -11    1    3    3    0    0  0.95934718551E+00 -0.62082745731E+00 -0.96323348281E+00  0.14945209124E+01  0.51100000000E-03 0.  1.
         12    1    3    3    0    0  0.21140424043E+00 -0.27032297304E+02  0.23265861160E+01  0.27133057185E+02  0.00000000000E+00 0. -1.
</event>
<event>
 7    1  0.4194672E-008  0.4614232E+02  0.7816164E-02  0.1320468E+00
        -11   -1    0    0    0    0  0.00000000000E+00  0.00000000000E+00  0.45593999997E+02  0.45594000000E+02  0.51100000000E-03 0.  1.
         11   -1    0    0    0    0 -0.00000000000E+00 -0.00000000000E+00 -0.45593999997E+02  0.45594000000E+02  0.51100000000E-03 0. -1.
    9900012    2    1    2    0    0  0.21199531225E+02  0.32781472371E+02 -0.22473724024E+02  0.46142319558E+02  0.10000016384E+02 0.  0.
        -12    1    1    2    0    0 -0.21199531225E+02 -0.32781472371E+02  0.22473724024E+02  0.45045680442E+02  0.00000000000E+00 0.  1.
         11    1    3    3    0    0  0.26414555573E+00  0.10117351305E+01  0.46449051406E+00  0.11441733032E+01  0.51100000000E-03 0. -1.
        -11    1    3    3    0    0  0.14941675310E+02  0.16520150370E+02 -0.14370830597E+02  0.26508296845E+02  0.51100000000E-03 0.  1.
         12    1    3    3    0    0  0.59937103599E+01  0.15249586871E+02 -0.85673839411E+01  0.18489849410E+02  0.00000000000E+00 0. -1.
</event>
<event>
 7    1  0.4194672E-008  0.4614232E+02  0.7816164E-02  0.1320468E+00
        -11   -1    0    0    0    0  0.00000000000E+00  0.00000000000E+00  0.45593999997E+02  0.45594000000E+02  0.51100000000E-03 0.  1.
         11   -1    0    0    0    0 -0.00000000000E+00 -0.00000000000E+00 -0.45593999997E+02  0.45594000000E+02  0.51100000000E-03 0. -1.
    9900012    2    1    2    0    0  0.43166168574E+02  0.12249653896E+02  0.39675271953E+01  0.46142318720E+02  0.10000008742E+02 0.  0.
        -12    1    1    2    0    0 -0.43166168574E+02 -0.12249653896E+02 -0.39675271953E+01  0.45045681280E+02  0.00000000000E+00 0.  1.
         11    1    3    3    0    0  0.18199007456E+01  0.13937538862E+00 -0.14695352286E+01  0.23432879191E+01  0.51100000000E-03 0.  1.
        -11    1    3    3    0    0  0.65760699194E+01 -0.18251598738E+00  0.65848692215E+00  0.66114758533E+01  0.51100000000E-03 0. -1.
         12    1    3    3    0    0  0.34770197909E+02  0.12292794495E+02  0.47785755017E+01  0.37187554947E+02  0.00000000000E+00 0. -1.
</event>
<event>
 7    1  0.4194672E-008  0.4614232E+02  0.7816164E-02  0.1320468E+00
        -11   -1    0    0    0    0  0.00000000000E+00  0.00000000000E+00  0.45593999997E+02  0.45594000000E+02  0.51100000000E-03 0.  1.
         11   -1    0    0    0    0 -0.00000000000E+00 -0.00000000000E+00 -0.45593999997E+02  0.45594000000E+02  0.51100000000E-03 0. -1.
    9900012    2    1    2    0    0  0.41171000535E+01 -0.42883395602E+02 -0.13159690100E+02  0.46142316803E+02  0.99999912593E+01 0.  0.
        -12    1    1    2    0    0 -0.41171000535E+01  0.42883395602E+02  0.13159690100E+02  0.45045683197E+02  0.00000000000E+00 0.  1.
         11    1    3    3    0    0  0.17383942604E+00 -0.38863924293E+01 -0.26410086422E+01  0.47020413833E+01  0.51100000000E-03 0. -1.
        -11    1    3    3    0    0  0.25085758923E+01 -0.13702353613E+02  0.19835680193E+00  0.13931503624E+02  0.51100000000E-03 0.  1.
         12    1    3    3    0    0  0.14346847352E+01 -0.25294649560E+02 -0.10717038259E+02  0.27508771795E+02  0.00000000000E+00 0. -1.
</event>
<event>
 7    1  0.4194672E-008  0.4614232E+02  0.7816164E-02  0.1320468E+00
        -11   -1    0    0    0    0  0.00000000000E+00  0.00000000000E+00  0.45593999997E+02  0.45594000000E+02  0.51100000000E-03 0.  1.
         11   -1    0    0    0    0 -0.00000000000E+00 -0.00000000000E+00 -0.45593999997E+02  0.45594000000E+02  0.51100000000E-03 0. -1.
    9900012    2    1    2    0    0 -0.64863416210E+01 -0.35624188366E+02 -0.26794741108E+02  0.46142316795E+02  0.99999911884E+01 0.  0.
        -12    1    1    2    0    0  0.64863416210E+01  0.35624188366E+02  0.26794741108E+02  0.45045683205E+02  0.00000000000E+00 0.  1.
         11    1    3    3    0    0  0.18198504652E+01 -0.12517587200E+02 -0.96134794617E+01  0.15887757320E+02  0.51100000000E-03 0. -1.
        -11    1    3    3    0    0 -0.38096967306E+01 -0.86400699911E+01 -0.43277462601E+01  0.10387203020E+02  0.51100000000E-03 0.  1.
        -12    1    3    3    0    0 -0.44964953557E+01 -0.14466531175E+02 -0.12853515386E+02  0.19867356455E+02  0.00000000000E+00 0.  1.
</event>
<event>
 7    1  0.4194672E-008  0.4614232E+02  0.7816164E-02  0.1320468E+00
        -11   -1    0    0    0    0  0.00000000000E+00  0.00000000000E+00  0.45593999997E+02  0.45594000000E+02  0.51100000000E-03 0.  1.
         11   -1    0    0    0    0 -0.00000000000E+00 -0.00000000000E+00 -0.45593999997E+02  0.45594000000E+02  0.51100000000E-03 0. -1.
    9900012    2    1    2    0    0 -0.21376911182E+02 -0.29073486664E+01 -0.39543499951E+02  0.46142318783E+02  0.10000009317E+02 0.  0.
        -12    1    1    2    0    0  0.21376911182E+02  0.29073486664E+01  0.39543499951E+02  0.45045681217E+02  0.00000000000E+00 0.  1.
         11    1    3    3    0    0 -0.12505750112E+02 -0.26797146217E+01 -0.15363256956E+02  0.19990105574E+02  0.51100000000E-03 0. -1.
        -11    1    3    3    0    0 -0.39977883729E+01 -0.22578754698E+01 -0.94946839116E+01  0.10546531959E+02  0.51100000000E-03 0.  1.
        -12    1    3    3    0    0 -0.48733726971E+01  0.20302414251E+01 -0.14685559083E+02  0.15605681250E+02  0.00000000000E+00 0.  1.
</event>
<event>
 7    1  0.4194672E-008  0.4614232E+02  0.7816164E-02  0.1320468E+00
        -11   -1    0    0    0    0  0.00000000000E+00  0.00000000000E+00  0.45593999997E+02  0.45594000000E+02  0.51100000000E-03 0. -1.
         11   -1    0    0    0    0 -0.00000000000E+00 -0.00000000000E+00 -0.45593999997E+02  0.45594000000E+02  0.51100000000E-03 0.  1.
    9900012    2    1    2    0    0  0.38100172649E+01 -0.19637397545E+02  0.40360492185E+02  0.46142323811E+02  0.10000055171E+02 0.  0.
        -12    1    1    2    0    0 -0.38100172649E+01  0.19637397545E+02 -0.40360492185E+02  0.45045676189E+02  0.00000000000E+00 0.  1.
         11    1    3    3    0    0 -0.15062387706E+01 -0.97265259028E+01  0.12893965197E+02  0.16221233003E+02  0.51100000000E-03 0. -1.
        -11    1    3    3    0    0 -0.21378656821E+00 -0.29193587245E+01  0.76947597109E+01  0.82327205302E+01  0.51100000000E-03 0.  1.
        -12    1    3    3    0    0  0.55300426037E+01 -0.69915129179E+01  0.19771767277E+02  0.21688370279E+02  0.00000000000E+00 0.  1.
</event>
<event>
 7    1  0.4194672E-008  0.4614232E+02  0.7816164E-02  0.1320468E+00
        -11   -1    0    0    0    0  0.00000000000E+00  0.00000000000E+00  0.45593999997E+02  0.45594000000E+02  0.51100000000E-03 0. -1.
         11   -1    0    0    0    0 -0.00000000000E+00 -0.00000000000E+00 -0.45593999997E+02  0.45594000000E+02  0.51100000000E-03 0.  1.
    9900012    2    1    2    0    0 -0.57939338953E+01 -0.42662790523E+02  0.13245004355E+02  0.46142317570E+02  0.99999982572E+01 0.  0.
        -12    1    1    2    0    0  0.57939338953E+01  0.42662790523E+02 -0.13245004355E+02  0.45045682430E+02  0.00000000000E+00 0.  1.
         11    1    3    3    0    0 -0.31486928596E+01 -0.13993141526E+02  0.34917995988E+01  0.14761942325E+02  0.51100000000E-03 0. -1.
        -11    1    3    3    0    0 -0.15791542925E+01 -0.21829976137E+02  0.37260644957E+01  0.22201917559E+02  0.51100000000E-03 0.  1.
        -12    1    3    3    0    0 -0.10660867432E+01 -0.68396728606E+01  0.60271402605E+01  0.91784576866E+01  0.00000000000E+00 0.  1.
</event>
<event>
 7    1  0.4194672E-008  0.4614232E+02  0.7816164E-02  0.1320468E+00
        -11   -1    0    0    0    0  0.00000000000E+00  0.00000000000E+00  0.45593999997E+02  0.45594000000E+02  0.51100000000E-03 0.  1.
         11   -1    0    0    0    0 -0.00000000000E+00 -0.00000000000E+00 -0.45593999997E+02  0.45594000000E+02  0.51100000000E-03 0. -1.
    9900012    2    1    2    0    0 -0.36965843146E+01 -0.40431588211E+02 -0.19512441129E+02  0.46142318524E+02  0.10000006956E+02 0.  0.
        -12    1    1    2    0    0  0.36965843146E+01  0.40431588211E+02  0.19512441129E+02  0.45045681476E+02  0.00000000000E+00 0.  1.
         11    1    3    3    0    0 -0.22394555836E+01 -0.71962789864E+01 -0.29082088261E+00  0.75422920659E+01  0.51100000000E-03 0. -1.
        -11    1    3    3    0    0  0.63856645693E+00 -0.22440620176E+02 -0.12157597278E+02  0.25530303031E+02  0.51100000000E-03 0.  1.
         12    1    3    3    0    0 -0.20956951879E+01 -0.10794689048E+02 -0.70640229681E+01  0.13069723427E+02  0.00000000000E+00 0. -1.
</event>
<event>
 7    1  0.4194672E-008  0.4614232E+02  0.7816164E-02  0.1320468E+00
        -11   -1    0    0    0    0  0.00000000000E+00  0.00000000000E+00  0.45593999997E+02  0.45594000000E+02  0.51100000000E-03 0.  1.
         11   -1    0    0    0    0 -0.00000000000E+00 -0.00000000000E+00 -0.45593999997E+02  0.45594000000E+02  0.51100000000E-03 0. -1.
    9900012    2    1    2    0    0  0.16616763232E+02 -0.38476127006E+02  0.16510129955E+02  0.46142316956E+02  0.99999926623E+01 0.  0.
        -12    1    1    2    0    0 -0.16616763232E+02  0.38476127006E+02 -0.16510129955E+02  0.45045683044E+02  0.00000000000E+00 0.  1.
         11    1    3    3    0    0  0.50635278200E+01 -0.14830144365E+02  0.56954477729E+01  0.16673650514E+02  0.51100000000E-03 0. -1.
        -11    1    3    3    0    0  0.77901140836E-01 -0.55087632912E+01  0.44506898723E+01  0.70824559431E+01  0.51100000000E-03 0.  1.
        -12    1    3    3    0    0  0.11475334271E+02 -0.18137219351E+02  0.63639923099E+01  0.22386210499E+02  0.00000000000E+00 0.  1.
</event>
<event>
 7    1  0.4194672E-008  0.4614232E+02  0.7816164E-02  0.1320468E+00
        -11   -1    0    0    0    0  0.00000000000E+00  0.00000000000E+00  0.45593999997E+02  0.45594000000E+02  0.51100000000E-03 0.  1.
         11   -1    0    0    0    0 -0.00000000000E+00 -0.00000000000E+00 -0.45593999997E+02  0.45594000000E+02  0.51100000000E-03 0. -1.
    9900012    2    1    2    0    0  0.13335181897E+01 -0.34854416065E+02 -0.28504470619E+02  0.46142318351E+02  0.10000005376E+02 0.  0.
        -12    1    1    2    0    0 -0.13335181897E+01  0.34854416065E+02  0.28504470619E+02  0.45045681649E+02  0.00000000000E+00 0.  1.
         11    1    3    3    0    0  0.10774071035E+01 -0.24851710957E+00 -0.17522734530E+01  0.20719626772E+01  0.51100000000E-03 0. -1.
        -11    1    3    3    0    0 -0.10429830491E+01 -0.28762869688E+01 -0.11125113500E+01  0.32555371496E+01  0.51100000000E-03 0.  1.
         12    1    3    3    0    0  0.12990941353E+01 -0.31729611986E+02 -0.25639685816E+02  0.40814818524E+02  0.00000000000E+00 0. -1.
</event>
<event>
 7    1  0.4194672E-008  0.4614232E+02  0.7816164E-02  0.1320468E+00
        -11   -1    0    0    0    0  0.00000000000E+00  0.00000000000E+00  0.45593999997E+02  0.45594000000E+02  0.51100000000E-03 0. -1.
         11   -1    0    0    0    0 -0.00000000000E+00 -0.00000000000E+00 -0.45593999997E+02  0.45594000000E+02  0.51100000000E-03 0.  1.
    9900012    2    1    2    0    0 -0.75680948889E+01 -0.34194515093E+02  0.28329712123E+02  0.46142317502E+02  0.99999976388E+01 0.  0.
        -12    1    1    2    0    0  0.75680948889E+01  0.34194515093E+02 -0.28329712123E+02  0.45045682498E+02  0.00000000000E+00 0.  1.
         11    1    3    3    0    0 -0.19305096646E+01 -0.16257174075E+02  0.11486298567E+02  0.19998940760E+02  0.51100000000E-03 0. -1.
        -11    1    3    3    0    0 -0.42239189975E+01 -0.81381339565E+01  0.42010842608E+01  0.10085624682E+02  0.51100000000E-03 0.  1.
        -12    1    3    3    0    0 -0.14136662268E+01 -0.97992070617E+01  0.12642329295E+02  0.16057752061E+02  0.00000000000E+00 0.  1.
</event>
<event>
 7    1  0.4194672E-008  0.4614232E+02  0.7816164E-02  0.1320468E+00
        -11   -1    0    0    0    0  0.00000000000E+00  0.00000000000E+00  0.45593999997E+02  0.45594000000E+02  0.51100000000E-03 0.  1.
         11   -1    0    0    0    0 -0.00000000000E+00 -0.00000000000E+00 -0.45593999997E+02  0.45594000000E+02  0.51100000000E-03 0. -1.
    9900012    2    1    2    0    0 -0.40760120818E+02 -0.15717138646E+02 -0.10986248228E+02  0.46142317116E+02  0.99999941166E+01 0.  0.
        -12    1    1    2    0    0  0.40760120818E+02  0.15717138646E+02  0.10986248228E+02  0.45045682884E+02  0.00000000000E+00 0.  1.
         11    1    3    3    0    0 -0.90494044081E+01 -0.54496072219E+00 -0.13599855255E+01  0.91672385821E+01  0.51100000000E-03 0. -1.
        -11    1    3    3    0    0 -0.81801452889E+01 -0.43046749650E+01  0.22702709195E+00  0.92464341810E+01  0.51100000000E-03 0.  1.
        -12    1    3    3    0    0 -0.23530571121E+02 -0.10867502959E+02 -0.98532897948E+01  0.27728644353E+02  0.00000000000E+00 0.  1.
</event>
<event>
 7    1  0.4194672E-008  0.4614232E+02  0.7816164E-02  0.1320468E+00
        -11   -1    0    0    0    0  0.00000000000E+00  0.00000000000E+00  0.45593999997E+02  0.45594000000E+02  0.51100000000E-03 0.  1.
         11   -1    0    0    0    0 -0.00000000000E+00 -0.00000000000E+00 -0.45593999997E+02  0.45594000000E+02  0.51100000000E-03 0. -1.
    9900012    2    1    2    0    0  0.16800985742E+02  0.61122608527E-01 -0.41795176761E+02  0.46142315874E+02  0.99999827948E+01 0.  0.
        -12    1    1    2    0    0 -0.16800985742E+02 -0.61122608527E-01  0.41795176761E+02  0.45045684126E+02  0.00000000000E+00 0.  1.
         11    1    3    3    0    0  0.99138879011E+01 -0.25366843716E+01 -0.24316368768E+02  0.26381920538E+02  0.51100000000E-03 0. -1.
        -11    1    3    3    0    0  0.43174161927E+01 -0.43015734509E+00 -0.47820019930E+01  0.64569854611E+01  0.51100000000E-03 0.  1.
        -12    1    3    3    0    0  0.25696816482E+01  0.30279643252E+01 -0.12696805999E+02  0.13303409875E+02  0.00000000000E+00 0.  1.
</event>
<event>
 7    1  0.4194672E-008  0.4614232E+02  0.7816164E-02  0.1320468E+00
        -11   -1    0    0    0    0  0.00000000000E+00  0.00000000000E+00  0.45593999997E+02  0.45594000000E+02  0.51100000000E-03 0.  1.
         11   -1    0    0    0    0 -0.00000000000E+00 -0.00000000000E+00 -0.45593999997E+02  0.45594000000E+02  0.51100000000E-03 0. -1.
    9900012    2    1    2    0    0 -0.35837002373E+01  0.18808982936E+01 -0.44863490229E+02  0.46142318284E+02  0.10000004767E+02 0.  0.
        -12    1    1    2    0    0  0.35837002373E+01 -0.18808982936E+01  0.44863490229E+02  0.45045681716E+02  0.00000000000E+00 0.  1.
         11    1    3    3    0    0 -0.12170270413E+01 -0.88138436556E+00 -0.71788830309E+01  0.73344635149E+01  0.51100000000E-03 0. -1.
        -11    1    3    3    0    0 -0.39731815558E+01  0.73673707935E+00 -0.75572019022E+01  0.85697289369E+01  0.51100000000E-03 0.  1.
        -12    1    3    3    0    0  0.16065083598E+01  0.20255455799E+01 -0.30127405295E+02  0.30238125832E+02  0.00000000000E+00 0.  1.
</event>
<event>
 7    1  0.4194672E-008  0.4614232E+02  0.7816164E-02  0.1320468E+00
        -11   -1    0    0    0    0  0.00000000000E+00  0.00000000000E+00  0.45593999997E+02  0.45594000000E+02  0.51100000000E-03 0. -1.
         11   -1    0    0    0    0 -0.00000000000E+00 -0.00000000000E+00 -0.45593999997E+02  0.45594000000E+02  0.51100000000E-03 0.  1.
    9900012    2    1    2    0    0 -0.62741297417E+01  0.41532763358E+02 -0.16272011837E+02  0.46142317572E+02  0.99999982795E+01 0.  0.
        -12    1    1    2    0    0  0.62741297417E+01 -0.41532763358E+02  0.16272011837E+02  0.45045682428E+02  0.00000000000E+00 0.  1.
         11    1    3    3    0    0 -0.41894914743E-01  0.73173161777E+01 -0.45982803677E+01  0.86422829061E+01  0.51100000000E-03 0. -1.
        -11    1    3    3    0    0 -0.16197489194E+01  0.89912613901E+01  0.42666191092E+00  0.91459503932E+01  0.51100000000E-03 0.  1.
        -12    1    3    3    0    0 -0.46124859075E+01  0.25224185790E+02 -0.12100393381E+02  0.28354084273E+02  0.00000000000E+00 0.  1.
</event>
<event>
 7    1  0.6670124E-008  0.4614232E+02  0.7816164E-02  0.1320468E+00
        -11   -1    0    0    0    0  0.00000000000E+00  0.00000000000E+00  0.45593999997E+02  0.45594000000E+02  0.51100000000E-03 0. -1.
         11   -1    0    0    0    0 -0.00000000000E+00 -0.00000000000E+00 -0.45593999997E+02  0.45594000000E+02  0.51100000000E-03 0.  1.
    9900012    2    1    2    0    0 -0.16603373808E+02 -0.19557296863E+02  0.37026389977E+02  0.46142318330E+02  0.10000005188E+02 0.  0.
        -12    1    1    2    0    0  0.16603373808E+02  0.19557296863E+02 -0.37026389977E+02  0.45045681670E+02  0.00000000000E+00 0.  1.
         11    1    3    3    0    0 -0.79655554150E+01 -0.10106094735E+02  0.18269216740E+02  0.22346084767E+02  0.51100000000E-03 0. -1.
        -11    1    3    3    0    0 -0.65094434378E+01 -0.72774568551E+01  0.80171242413E+01  0.12633626301E+02  0.51100000000E-03 0.  1.
        -12    1    3    3    0    0 -0.21283749547E+01 -0.21737452726E+01  0.10740048995E+02  0.11162607262E+02  0.00000000000E+00 0.  1.
</event>
<event>
 7    1  0.4194672E-008  0.4614232E+02  0.7816164E-02  0.1320468E+00
        -11   -1    0    0    0    0  0.00000000000E+00  0.00000000000E+00  0.45593999997E+02  0.45594000000E+02  0.51100000000E-03 0.  1.
         11   -1    0    0    0    0 -0.00000000000E+00 -0.00000000000E+00 -0.45593999997E+02  0.45594000000E+02  0.51100000000E-03 0. -1.
    9900012    2    1    2    0    0  0.31067626419E+02 -0.21690973934E+02 -0.24360165847E+02  0.46142318280E+02  0.10000004734E+02 0.  0.
        -12    1    1    2    0    0 -0.31067626419E+02  0.21690973934E+02  0.24360165847E+02  0.45045681720E+02  0.00000000000E+00 0.  1.
         11    1    3    3    0    0  0.94065407010E+01 -0.53863534266E+01 -0.36179645679E+01  0.11427400364E+02  0.51100000000E-03 0. -1.
        -11    1    3    3    0    0  0.30064477735E+01 -0.19949919992E+01 -0.40917439087E+00  0.36312732251E+01  0.51100000000E-03 0.  1.
         12    1    3    3    0    0  0.18654637945E+02 -0.14309628508E+02 -0.20333026888E+02  0.31083644692E+02  0.00000000000E+00 0. -1.
</event>
<event>
 7    1  0.4194672E-008  0.4614232E+02  0.7816164E-02  0.1320468E+00
        -11   -1    0    0    0    0  0.00000000000E+00  0.00000000000E+00  0.45593999997E+02  0.45594000000E+02  0.51100000000E-03 0.  1.
         11   -1    0    0    0    0 -0.00000000000E+00 -0.00000000000E+00 -0.45593999997E+02  0.45594000000E+02  0.51100000000E-03 0. -1.
    9900012    2    1    2    0    0 -0.99525168940E+01  0.24791372342E+02 -0.36269115395E+02  0.46142318002E+02  0.10000002198E+02 0.  0.
        -12    1    1    2    0    0  0.99525168940E+01 -0.24791372342E+02  0.36269115395E+02  0.45045681998E+02  0.00000000000E+00 0.  1.
         11    1    3    3    0    0 -0.61056019947E+01  0.14627853607E+02 -0.16787787408E+02  0.23088574732E+02  0.51100000000E-03 0. -1.
        -11    1    3    3    0    0 -0.50045137427E+01  0.82801093424E+01 -0.17860099161E+02  0.20312274881E+02  0.51100000000E-03 0.  1.
        -12    1    3    3    0    0  0.11575988435E+01  0.18834093924E+01 -0.16212288265E+01  0.27414683893E+01  0.00000000000E+00 0.  1.
</event>
<event>
 7    1  0.4194672E-008  0.4614232E+02  0.7816164E-02  0.1320468E+00
        -11   -1    0    0    0    0  0.00000000000E+00  0.00000000000E+00  0.45593999997E+02  0.45594000000E+02  0.51100000000E-03 0. -1.
         11   -1    0    0    0    0 -0.00000000000E+00 -0.00000000000E+00 -0.45593999997E+02  0.45594000000E+02  0.51100000000E-03 0.  1.
    9900012    2    1    2    0    0  0.31475645236E+02  0.32090756575E+02  0.29292536750E+01  0.46142318435E+02  0.10000006146E+02 0.  0.
        -12    1    1    2    0    0 -0.31475645236E+02 -0.32090756575E+02 -0.29292536750E+01  0.45045681565E+02  0.00000000000E+00 0.  1.
         11    1    3    3    0    0  0.18699098434E+02  0.15545318134E+02  0.15954446805E+01  0.24369215049E+02  0.51100000000E-03 0. -1.
        -11    1    3    3    0    0  0.76748336819E+01  0.13104411165E+02 -0.93316660604E+00  0.15215106447E+02  0.51100000000E-03 0.  1.
         12    1    3    3    0    0  0.51017131202E+01  0.34410272758E+01  0.22669756005E+01  0.65579969386E+01  0.00000000000E+00 0. -1.
</event>
<event>
 7    1  0.4194672E-008  0.4614232E+02  0.7816164E-02  0.1320468E+00
        -11   -1    0    0    0    0  0.00000000000E+00  0.00000000000E+00  0.45593999997E+02  0.45594000000E+02  0.51100000000E-03 0.  1.
         11   -1    0    0    0    0 -0.00000000000E+00 -0.00000000000E+00 -0.45593999997E+02  0.45594000000E+02  0.51100000000E-03 0. -1.
    9900012    2    1    2    0    0 -0.16258094028E+02 -0.35932344577E+01 -0.41855421615E+02  0.46142320142E+02  0.10000021713E+02 0.  0.
        -12    1    1    2    0    0  0.16258094028E+02  0.35932344577E+01  0.41855421615E+02  0.45045679858E+02  0.00000000000E+00 0.  1.
         11    1    3    3    0    0 -0.40565513106E+01 -0.17190756475E+01 -0.53046804807E+01  0.68956845114E+01  0.51100000000E-03 0. -1.
        -11    1    3    3    0    0 -0.12289131953E+02 -0.20021391755E+01 -0.27419989548E+02  0.30114567114E+02  0.51100000000E-03 0.  1.
        -12    1    3    3    0    0  0.87589236179E-01  0.12798036528E+00 -0.91307515867E+01  0.91320685163E+01  0.00000000000E+00 0.  1.
</event>
<event>
 7    1  0.4194672E-008  0.4614232E+02  0.7816164E-02  0.1320468E+00
        -11   -1    0    0    0    0  0.00000000000E+00  0.00000000000E+00  0.45593999997E+02  0.45594000000E+02  0.51100000000E-03 0.  1.
         11   -1    0    0    0    0 -0.00000000000E+00 -0.00000000000E+00 -0.45593999997E+02  0.45594000000E+02  0.51100000000E-03 0. -1.
    9900012    2    1    2    0    0  0.12650346354E+02  0.17496264332E+02 -0.39534325653E+02  0.46142318373E+02  0.10000005576E+02 0.  0.
        -12    1    1    2    0    0 -0.12650346354E+02 -0.17496264332E+02  0.39534325653E+02  0.45045681627E+02  0.00000000000E+00 0.  1.
         11    1    3    3    0    0  0.77507904321E+01  0.81753344318E+01 -0.21126289330E+02  0.23942241886E+02  0.51100000000E-03 0.  1.
        -11    1    3    3    0    0  0.88740573663E+00  0.20182372956E+00 -0.69800565982E+01  0.70391343313E+01  0.51100000000E-03 0. -1.
         12    1    3    3    0    0  0.40121501850E+01  0.91191061707E+01 -0.11427979725E+02  0.15160942156E+02  0.00000000000E+00 0. -1.
</event>
<event>
 7    1  0.4194672E-008  0.4614232E+02  0.7816164E-02  0.1320468E+00
        -11   -1    0    0    0    0  0.00000000000E+00  0.00000000000E+00  0.45593999997E+02  0.45594000000E+02  0.51100000000E-03 0. -1.
         11   -1    0    0    0    0 -0.00000000000E+00 -0.00000000000E+00 -0.45593999997E+02  0.45594000000E+02  0.51100000000E-03 0.  1.
    9900012    2    1    2    0    0  0.12432938639E+02 -0.73504430598E+01  0.42667393926E+02  0.46142317845E+02  0.10000000761E+02 0.  0.
        -12    1    1    2    0    0 -0.12432938639E+02  0.73504430598E+01 -0.42667393926E+02  0.45045682155E+02  0.00000000000E+00 0.  1.
         11    1    3    3    0    0  0.31859524606E+01  0.88467768946E+00  0.93052807079E+01  0.98752821230E+01  0.51100000000E-03 0. -1.
        -11    1    3    3    0    0  0.23718507573E+01 -0.64544231290E+01  0.19762751612E+02  0.20924903954E+02  0.51100000000E-03 0.  1.
        -12    1    3    3    0    0  0.68751354211E+01 -0.17806976202E+01  0.13599361607E+02  0.15342131768E+02  0.00000000000E+00 0.  1.
</event>
<event>
 7    1  0.4194672E-008  0.4614232E+02  0.7816164E-02  0.1320468E+00
        -11   -1    0    0    0    0  0.00000000000E+00  0.00000000000E+00  0.45593999997E+02  0.45594000000E+02  0.51100000000E-03 0.  1.
         11   -1    0    0    0    0 -0.00000000000E+00 -0.00000000000E+00 -0.45593999997E+02  0.45594000000E+02  0.51100000000E-03 0. -1.
    9900012    2    1    2    0    0 -0.28205964908E+02 -0.12836931303E+02 -0.32691744365E+02  0.46142318616E+02  0.10000007797E+02 0.  0.
        -12    1    1    2    0    0  0.28205964908E+02  0.12836931303E+02  0.32691744365E+02  0.45045681384E+02  0.00000000000E+00 0.  1.
         11    1    3    3    0    0 -0.22929688617E+01  0.39183904955E+00 -0.33577596820E+01  0.40848248903E+01  0.51100000000E-03 0. -1.
        -11    1    3    3    0    0 -0.13128826558E+01  0.71044024298E+00 -0.28502920951E+00  0.15197460703E+01  0.51100000000E-03 0.  1.
         12    1    3    3    0    0 -0.24600113391E+02 -0.13939210596E+02 -0.29048955474E+02  0.40537747656E+02  0.00000000000E+00 0. -1.
</event>
<event>
 7    1  0.4194672E-008  0.4614232E+02  0.7816164E-02  0.1320468E+00
        -11   -1    0    0    0    0  0.00000000000E+00  0.00000000000E+00  0.45593999997E+02  0.45594000000E+02  0.51100000000E-03 0.  1.
         11   -1    0    0    0    0 -0.00000000000E+00 -0.00000000000E+00 -0.45593999997E+02  0.45594000000E+02  0.51100000000E-03 0. -1.
    9900012    2    1    2    0    0 -0.33630012315E+02  0.10290102028E+02 -0.28146928827E+02  0.46142317294E+02  0.99999957448E+01 0.  0.
        -12    1    1    2    0    0  0.33630012315E+02 -0.10290102028E+02  0.28146928827E+02  0.45045682706E+02  0.00000000000E+00 0.  1.
         11    1    3    3    0    0 -0.39018707595E+01  0.37396424330E+00 -0.58509935624E+01  0.70426252638E+01  0.51100000000E-03 0. -1.
        -11    1    3    3    0    0 -0.95182070411E+01  0.41972123039E+01 -0.11418981140E+02  0.15446876284E+02  0.51100000000E-03 0.  1.
         12    1    3    3    0    0 -0.20209934514E+02  0.57189254808E+01 -0.10876954125E+02  0.23652815747E+02  0.00000000000E+00 0. -1.
</event>
<event>
 7    1  0.4194672E-008  0.4614232E+02  0.7816164E-02  0.1320468E+00
        -11   -1    0    0    0    0  0.00000000000E+00  0.00000000000E+00  0.45593999997E+02  0.45594000000E+02  0.51100000000E-03 0.  1.
         11   -1    0    0    0    0 -0.00000000000E+00 -0.00000000000E+00 -0.45593999997E+02  0.45594000000E+02  0.51100000000E-03 0. -1.
    9900012    2    1    2    0    0 -0.34046690831E+02  0.22211608781E+02 -0.19405688904E+02  0.46142317820E+02  0.10000000539E+02 0.  0.
        -12    1    1    2    0    0  0.34046690831E+02 -0.22211608781E+02  0.19405688904E+02  0.45045682180E+02  0.00000000000E+00 0.  1.
         11    1    3    3    0    0 -0.11518308120E+02  0.61245966851E+01 -0.93851935300E+01  0.16070593155E+02  0.51100000000E-03 0. -1.
        -11    1    3    3    0    0 -0.85852952032E+01  0.42177443617E+01 -0.87883599250E+00  0.96056761443E+01  0.51100000000E-03 0.  1.
        -12    1    3    3    0    0 -0.13943087508E+02  0.11869267734E+02 -0.91416593819E+01  0.20466048521E+02  0.00000000000E+00 0.  1.
</event>
<event>
 7    1  0.4194672E-008  0.4614232E+02  0.7816164E-02  0.1320468E+00
        -11   -1    0    0    0    0  0.00000000000E+00  0.00000000000E+00  0.45593999997E+02  0.45594000000E+02  0.51100000000E-03 0. -1.
         11   -1    0    0    0    0 -0.00000000000E+00 -0.00000000000E+00 -0.45593999997E+02  0.45594000000E+02  0.51100000000E-03 0.  1.
    9900012    2    1    2    0    0 -0.96655494193E+01 -0.23141233198E+02  0.37418898564E+02  0.46142317751E+02  0.99999999088E+01 0.  0.
        -12    1    1    2    0    0  0.96655494193E+01  0.23141233198E+02 -0.37418898564E+02  0.45045682249E+02  0.00000000000E+00 0.  1.
         11    1    3    3    0    0 -0.65814357246E+01 -0.10493399538E+02  0.19623189965E+02  0.23205523367E+02  0.51100000000E-03 0. -1.
        -11    1    3    3    0    0 -0.13384062368E+01 -0.11226711590E+02  0.10985676156E+02  0.15764373291E+02  0.51100000000E-03 0.  1.
        -12    1    3    3    0    0 -0.17457074579E+01 -0.14211220694E+01  0.68100324427E+01  0.71724210930E+01  0.00000000000E+00 0.  1.
</event>
<event>
 7    1  0.4194672E-008  0.4614232E+02  0.7816164E-02  0.1320468E+00
        -11   -1    0    0    0    0  0.00000000000E+00  0.00000000000E+00  0.45593999997E+02  0.45594000000E+02  0.51100000000E-03 0.  1.
         11   -1    0    0    0    0 -0.00000000000E+00 -0.00000000000E+00 -0.45593999997E+02  0.45594000000E+02  0.51100000000E-03 0. -1.
    9900012    2    1    2    0    0 -0.22923463184E+02 -0.48687980615E+01 -0.38469768506E+02  0.46142318211E+02  0.10000004102E+02 0.  0.
        -12    1    1    2    0    0  0.22923463184E+02  0.48687980615E+01  0.38469768506E+02  0.45045681789E+02  0.00000000000E+00 0.  1.
         11    1    3    3    0    0 -0.10333747558E+02 -0.48212415367E+00 -0.10567042121E+02  0.14787872116E+02  0.51100000000E-03 0.  1.
        -11    1    3    3    0    0 -0.36047677612E+00  0.96532414168E-02 -0.50675686674E+01  0.50803827761E+01  0.51100000000E-03 0. -1.
         12    1    3    3    0    0 -0.12229238850E+02 -0.43963271493E+01 -0.22835157718E+02  0.26274063319E+02  0.00000000000E+00 0. -1.
</event>
<event>
 7    1  0.4194672E-008  0.4614232E+02  0.7816164E-02  0.1320468E+00
        -11   -1    0    0    0    0  0.00000000000E+00  0.00000000000E+00  0.45593999997E+02  0.45594000000E+02  0.51100000000E-03 0.  1.
         11   -1    0    0    0    0 -0.00000000000E+00 -0.00000000000E+00 -0.45593999997E+02  0.45594000000E+02  0.51100000000E-03 0. -1.
    9900012    2    1    2    0    0  0.76062770168E+01  0.28321333894E+02 -0.34192982535E+02  0.46142318096E+02  0.10000003051E+02 0.  0.
        -12    1    1    2    0    0 -0.76062770168E+01 -0.28321333894E+02  0.34192982535E+02  0.45045681904E+02  0.00000000000E+00 0.  1.
         11    1    3    3    0    0  0.46039462565E+01  0.68855515129E+01 -0.82454586670E+01  0.11687374798E+02  0.51100000000E-03 0. -1.
        -11    1    3    3    0    0  0.16399529610E+01  0.67234631043E+00 -0.12973734932E+01  0.21965139465E+01  0.51100000000E-03 0.  1.
        -12    1    3    3    0    0  0.13623777993E+01  0.20763436071E+02 -0.24650150375E+02  0.32258429352E+02  0.00000000000E+00 0.  1.
</event>
<event>
 7    1  0.4194672E-008  0.4614232E+02  0.7816164E-02  0.1320468E+00
        -11   -1    0    0    0    0  0.00000000000E+00  0.00000000000E+00  0.45593999997E+02  0.45594000000E+02  0.51100000000E-03 0.  1.
         11   -1    0    0    0    0 -0.00000000000E+00 -0.00000000000E+00 -0.45593999997E+02  0.45594000000E+02  0.51100000000E-03 0. -1.
    9900012    2    1    2    0    0  0.37982879217E+02  0.22350526539E+02  0.93203152116E+01  0.46142318456E+02  0.10000006335E+02 0.  0.
        -12    1    1    2    0    0 -0.37982879217E+02 -0.22350526539E+02 -0.93203152116E+01  0.45045681544E+02  0.00000000000E+00 0.  1.
         11    1    3    3    0    0  0.47265744151E+01  0.56580722406E+01  0.18372949542E+01  0.75980221236E+01  0.51100000000E-03 0.  1.
        -11    1    3    3    0    0  0.39774869351E+01  0.42887912495E+01  0.24885326084E+01  0.63566443588E+01  0.51100000000E-03 0. -1.
         12    1    3    3    0    0  0.29278817867E+02  0.12403663048E+02  0.49944876490E+01  0.32187651973E+02  0.00000000000E+00 0. -1.
</event>
<event>
 7    1  0.4194672E-008  0.4614232E+02  0.7816164E-02  0.1320468E+00
        -11   -1    0    0    0    0  0.00000000000E+00  0.00000000000E+00  0.45593999997E+02  0.45594000000E+02  0.51100000000E-03 0. -1.
         11   -1    0    0    0    0 -0.00000000000E+00 -0.00000000000E+00 -0.45593999997E+02  0.45594000000E+02  0.51100000000E-03 0.  1.
    9900012    2    1    2    0    0  0.18999270190E+02 -0.40573919743E+02  0.46795676834E+01  0.46142316691E+02  0.99999902428E+01 0.  0.
        -12    1    1    2    0    0 -0.18999270190E+02  0.40573919743E+02 -0.46795676834E+01  0.45045683309E+02  0.00000000000E+00 0.  1.
         11    1    3    3    0    0  0.69553259560E+00 -0.48873953583E+01  0.18291375893E+01  0.52646123848E+01  0.51100000000E-03 0. -1.
        -11    1    3    3    0    0  0.11397755805E+02 -0.16170134283E+02 -0.10501183466E+01  0.19811229869E+02  0.51100000000E-03 0.  1.
        -12    1    3    3    0    0  0.69059817894E+01 -0.19516390102E+02  0.39005484408E+01  0.21066474437E+02  0.00000000000E+00 0.  1.
</event>
<event>
 7    1  0.4194672E-008  0.4614232E+02  0.7816164E-02  0.1320468E+00
        -11   -1    0    0    0    0  0.00000000000E+00  0.00000000000E+00  0.45593999997E+02  0.45594000000E+02  0.51100000000E-03 0.  1.
         11   -1    0    0    0    0 -0.00000000000E+00 -0.00000000000E+00 -0.45593999997E+02  0.45594000000E+02  0.51100000000E-03 0. -1.
    9900012    2    1    2    0    0  0.19993056048E+02 -0.39288401892E+02 -0.92635153339E+01  0.46142317303E+02  0.99999958204E+01 0.  0.
        -12    1    1    2    0    0 -0.19993056048E+02  0.39288401892E+02  0.92635153339E+01  0.45045682697E+02  0.00000000000E+00 0.  1.
         11    1    3    3    0    0  0.96115718577E+01 -0.15640569277E+02 -0.31206010126E+01  0.18621167306E+02  0.51100000000E-03 0. -1.
        -11    1    3    3    0    0  0.41209990031E+01 -0.52466815620E+01  0.11327471153E+01  0.67670833071E+01  0.51100000000E-03 0.  1.
        -12    1    3    3    0    0  0.62604851869E+01 -0.18401151052E+02 -0.72756614366E+01  0.20754066690E+02  0.00000000000E+00 0.  1.
</event>
<event>
 7    1  0.4194672E-008  0.4614232E+02  0.7816164E-02  0.1320468E+00
        -11   -1    0    0    0    0  0.00000000000E+00  0.00000000000E+00  0.45593999997E+02  0.45594000000E+02  0.51100000000E-03 0. -1.
         11   -1    0    0    0    0 -0.00000000000E+00 -0.00000000000E+00 -0.45593999997E+02  0.45594000000E+02  0.51100000000E-03 0.  1.
    9900012    2    1    2    0    0  0.37496283353E+02 -0.25000069397E+01  0.24837316673E+02  0.46142316528E+02  0.99999887525E+01 0.  0.
        -12    1    1    2    0    0 -0.37496283353E+02  0.25000069397E+01 -0.24837316673E+02  0.45045683472E+02  0.00000000000E+00 0.  1.
         11    1    3    3    0    0  0.89765778453E+01 -0.30388387177E+01  0.57702478223E+01  0.11095460818E+02  0.51100000000E-03 0. -1.
        -11    1    3    3    0    0  0.14625918928E+02  0.38482943235E+01  0.97726467536E+01  0.18006429366E+02  0.51100000000E-03 0.  1.
        -12    1    3    3    0    0  0.13893786579E+02 -0.33094625455E+01  0.92944220972E+01  0.17040426344E+02  0.00000000000E+00 0.  1.
</event>
<event>
 7    1  0.4194672E-008  0.4614232E+02  0.7816164E-02  0.1320468E+00
        -11   -1    0    0    0    0  0.00000000000E+00  0.00000000000E+00  0.45593999997E+02  0.45594000000E+02  0.51100000000E-03 0. -1.
         11   -1    0    0    0    0 -0.00000000000E+00 -0.00000000000E+00 -0.45593999997E+02  0.45594000000E+02  0.51100000000E-03 0.  1.
    9900012    2    1    2    0    0  0.30534207737E+02 -0.30654525973E+02 -0.12532985406E+02  0.46142317322E+02  0.99999959991E+01 0.  0.
        -12    1    1    2    0    0 -0.30534207737E+02  0.30654525973E+02  0.12532985406E+02  0.45045682678E+02  0.00000000000E+00 0.  1.
         11    1    3    3    0    0  0.15105138855E+02 -0.18239728300E+02 -0.45315047981E+01  0.24111977195E+02  0.51100000000E-03 0. -1.
        -11    1    3    3    0    0  0.62988199892E+01 -0.22630574703E+01 -0.40226745482E+01  0.78088714391E+01  0.51100000000E-03 0.  1.
         12    1    3    3    0    0  0.91302488927E+01 -0.10151740203E+02 -0.39788060595E+01  0.14221468688E+02  0.00000000000E+00 0. -1.
</event>
<event>
 7    1  0.4194672E-008  0.4614232E+02  0.7816164E-02  0.1320468E+00
        -11   -1    0    0    0    0  0.00000000000E+00  0.00000000000E+00  0.45593999997E+02  0.45594000000E+02  0.51100000000E-03 0.  1.
         11   -1    0    0    0    0 -0.00000000000E+00 -0.00000000000E+00 -0.45593999997E+02  0.45594000000E+02  0.51100000000E-03 0. -1.
    9900012    2    1    2    0    0  0.11728238110E+01 -0.44183125149E+02 -0.86942135500E+01  0.46142318599E+02  0.10000007637E+02 0.  0.
        -12    1    1    2    0    0 -0.11728238110E+01  0.44183125149E+02  0.86942135500E+01  0.45045681401E+02  0.00000000000E+00 0.  1.
         11    1    3    3    0    0 -0.21630729046E+01 -0.25399008065E+02 -0.90272307474E+01  0.27042177988E+02  0.51100000000E-03 0. -1.
        -11    1    3    3    0    0  0.21629329463E+01 -0.13229178499E+02 -0.11201731458E+00  0.13405297118E+02  0.51100000000E-03 0.  1.
         12    1    3    3    0    0  0.11729637693E+01 -0.55549385855E+01  0.44503451191E+00  0.56948434929E+01  0.00000000000E+00 0. -1.
</event>
<event>
 7    1  0.4194672E-008  0.4614232E+02  0.7816164E-02  0.1320468E+00
        -11   -1    0    0    0    0  0.00000000000E+00  0.00000000000E+00  0.45593999997E+02  0.45594000000E+02  0.51100000000E-03 0.  1.
         11   -1    0    0    0    0 -0.00000000000E+00 -0.00000000000E+00 -0.45593999997E+02  0.45594000000E+02  0.51100000000E-03 0. -1.
    9900012    2    1    2    0    0 -0.25715955444E+02  0.23671571906E+00 -0.36983064717E+02  0.46142317914E+02  0.10000001393E+02 0.  0.
        -12    1    1    2    0    0  0.25715955444E+02 -0.23671571906E+00  0.36983064717E+02  0.45045682086E+02  0.00000000000E+00 0.  1.
         11    1    3    3    0    0 -0.15722737184E+02 -0.39786127935E+00 -0.18380882037E+02  0.24191312136E+02  0.51100000000E-03 0. -1.
        -11    1    3    3    0    0 -0.46664072837E+01 -0.84087116445E+00 -0.35713241244E+01  0.59360574050E+01  0.51100000000E-03 0.  1.
        -12    1    3    3    0    0 -0.53268109767E+01  0.14754481629E+01 -0.15030858556E+02  0.16014948373E+02  0.00000000000E+00 0.  1.
</event>
<event>
 7    1  0.4194672E-008  0.4614232E+02  0.7816164E-02  0.1320468E+00
        -11   -1    0    0    0    0  0.00000000000E+00  0.00000000000E+00  0.45593999997E+02  0.45594000000E+02  0.51100000000E-03 0. -1.
         11   -1    0    0    0    0 -0.00000000000E+00 -0.00000000000E+00 -0.45593999997E+02  0.45594000000E+02  0.51100000000E-03 0.  1.
    9900012    2    1    2    0    0  0.41576936584E+02 -0.17272613691E+02  0.14590190380E+01  0.46142316789E+02  0.99999911367E+01 0.  0.
        -12    1    1    2    0    0 -0.41576936584E+02  0.17272613691E+02 -0.14590190380E+01  0.45045683211E+02  0.00000000000E+00 0.  1.
         11    1    3    3    0    0  0.72761732236E+01 -0.19901076623E+01 -0.16471248762E+01  0.77211557364E+01  0.51100000000E-03 0. -1.
        -11    1    3    3    0    0  0.10067468027E+02 -0.15582092354E+01  0.28180061148E+01  0.10569914248E+02  0.51100000000E-03 0.  1.
         12    1    3    3    0    0  0.24233295333E+02 -0.13724296793E+02  0.28813779945E+00  0.27851246804E+02  0.00000000000E+00 0. -1.
</event>
<event>
 7    1  0.4194672E-008  0.4614232E+02  0.7816164E-02  0.1320468E+00
        -11   -1    0    0    0    0  0.00000000000E+00  0.00000000000E+00  0.45593999997E+02  0.45594000000E+02  0.51100000000E-03 0.  1.
         11   -1    0    0    0    0 -0.00000000000E+00 -0.00000000000E+00 -0.45593999997E+02  0.45594000000E+02  0.51100000000E-03 0. -1.
    9900012    2    1    2    0    0 -0.22518654928E+02  0.27340743667E+02 -0.27829972512E+02  0.46142318142E+02  0.10000003472E+02 0.  0.
        -12    1    1    2    0    0  0.22518654928E+02 -0.27340743667E+02  0.27829972512E+02  0.45045681858E+02  0.00000000000E+00 0.  1.
         11    1    3    3    0    0 -0.17355749658E+02  0.21449675913E+02 -0.17372496244E+02  0.32605433121E+02  0.51100000000E-03 0. -1.
        -11    1    3    3    0    0 -0.33498136867E+01  0.21158756317E+01 -0.29479086159E+01  0.49384559220E+01  0.51100000000E-03 0.  1.
        -12    1    3    3    0    0 -0.18130915831E+01  0.37751921217E+01 -0.75095676522E+01  0.85984290988E+01  0.00000000000E+00 0.  1.
</event>
<event>
 7    1  0.4194672E-008  0.4614231E+02  0.7816164E-02  0.1320468E+00
        -11   -1    0    0    0    0  0.00000000000E+00  0.00000000000E+00  0.45593999997E+02  0.45594000000E+02  0.51100000000E-03 0. -1.
         11   -1    0    0    0    0 -0.00000000000E+00 -0.00000000000E+00 -0.45593999997E+02  0.45594000000E+02  0.51100000000E-03 0.  1.
    9900012    2    1    2    0    0 -0.64474679223E+01 -0.37710799463E+02  0.23778971909E+02  0.46142314926E+02  0.99999741450E+01 0.  0.
        -12    1    1    2    0    0  0.64474679223E+01  0.37710799463E+02 -0.23778971909E+02  0.45045685074E+02  0.00000000000E+00 0.  1.
         11    1    3    3    0    0 -0.51489927908E+01 -0.15393482928E+02  0.11798951595E+02  0.20067055151E+02  0.51100000000E-03 0. -1.
        -11    1    3    3    0    0 -0.12218103110E+01 -0.22328635388E+02  0.12453210384E+02  0.25595765819E+02  0.51100000000E-03 0.  1.
         12    1    3    3    0    0 -0.76664820446E-01  0.11318853034E-01 -0.47319007034E+00  0.47949395595E+00  0.00000000000E+00 0. -1.
</event>
<event>
 7    1  0.4194672E-008  0.4614232E+02  0.7816164E-02  0.1320468E+00
        -11   -1    0    0    0    0  0.00000000000E+00  0.00000000000E+00  0.45593999997E+02  0.45594000000E+02  0.51100000000E-03 0.  1.
         11   -1    0    0    0    0 -0.00000000000E+00 -0.00000000000E+00 -0.45593999997E+02  0.45594000000E+02  0.51100000000E-03 0. -1.
    9900012    2    1    2    0    0  0.98091124069E+01  0.14893964529E+02 -0.41365016507E+02  0.46142318118E+02  0.10000003251E+02 0.  0.
        -12    1    1    2    0    0 -0.98091124069E+01 -0.14893964529E+02  0.41365016507E+02  0.45045681882E+02  0.00000000000E+00 0.  1.
         11    1    3    3    0    0  0.16284458193E+01  0.42427441974E+01 -0.74105712014E+01  0.86930592948E+01  0.51100000000E-03 0. -1.
        -11    1    3    3    0    0 -0.32657297772E+00  0.61614596750E+01 -0.12708960397E+02  0.14127558524E+02  0.51100000000E-03 0.  1.
         12    1    3    3    0    0  0.85072395654E+01  0.44897606566E+01 -0.21245484909E+02  0.23321700298E+02  0.00000000000E+00 0. -1.
</event>
<event>
 7    1  0.4194672E-008  0.4614232E+02  0.7816164E-02  0.1320468E+00
        -11   -1    0    0    0    0  0.00000000000E+00  0.00000000000E+00  0.45593999997E+02  0.45594000000E+02  0.51100000000E-03 0.  1.
         11   -1    0    0    0    0 -0.00000000000E+00 -0.00000000000E+00 -0.45593999997E+02  0.45594000000E+02  0.51100000000E-03 0. -1.
    9900012    2    1    2    0    0 -0.13051765310E+02  0.91560562293E+01 -0.42129935752E+02  0.46142318411E+02  0.10000005923E+02 0.  0.
        -12    1    1    2    0    0  0.13051765310E+02 -0.91560562293E+01  0.42129935752E+02  0.45045681589E+02  0.00000000000E+00 0.  1.
         11    1    3    3    0    0 -0.13910270916E+02  0.62465826381E+01 -0.36736717584E+02  0.39775643939E+02  0.51100000000E-03 0. -1.
        -11    1    3    3    0    0  0.34489931291E+00  0.54667852959E+00 -0.25675782920E+01  0.26476917301E+01  0.51100000000E-03 0.  1.
        -12    1    3    3    0    0  0.51360629298E+00  0.23627950617E+01 -0.28256398756E+01  0.37189827419E+01  0.00000000000E+00 0.  1.
</event>
<event>
 7    1  0.4194672E-008  0.4614232E+02  0.7816164E-02  0.1320468E+00
        -11   -1    0    0    0    0  0.00000000000E+00  0.00000000000E+00  0.45593999997E+02  0.45594000000E+02  0.51100000000E-03 0. -1.
         11   -1    0    0    0    0 -0.00000000000E+00 -0.00000000000E+00 -0.45593999997E+02  0.45594000000E+02  0.51100000000E-03 0.  1.
    9900012    2    1    2    0    0 -0.28561858742E+02 -0.16261461849E+02  0.30804196672E+02  0.46142318199E+02  0.10000003996E+02 0.  0.
        -12    1    1    2    0    0  0.28561858742E+02  0.16261461849E+02 -0.30804196672E+02  0.45045681801E+02  0.00000000000E+00 0.  1.
         11    1    3    3    0    0 -0.51441505642E+01 -0.21121636220E+01  0.10806747115E+01  0.56649252675E+01  0.51100000000E-03 0. -1.
        -11    1    3    3    0    0 -0.50530650667E+01 -0.42697570275E+01  0.75568134362E+01  0.10043391918E+02  0.51100000000E-03 0.  1.
         12    1    3    3    0    0 -0.18364643111E+02 -0.98795411994E+01  0.22166708525E+02  0.30434001014E+02  0.00000000000E+00 0. -1.
</event>
<event>
 7    1  0.4194672E-008  0.4614232E+02  0.7816164E-02  0.1320468E+00
        -11   -1    0    0    0    0  0.00000000000E+00  0.00000000000E+00  0.45593999997E+02  0.45594000000E+02  0.51100000000E-03 0.  1.
         11   -1    0    0    0    0 -0.00000000000E+00 -0.00000000000E+00 -0.45593999997E+02  0.45594000000E+02  0.51100000000E-03 0. -1.
    9900012    2    1    2    0    0 -0.77972301856E+00  0.19039655337E+02 -0.40816627031E+02  0.46142317793E+02  0.10000000288E+02 0.  0.
        -12    1    1    2    0    0  0.77972301856E+00 -0.19039655337E+02  0.40816627031E+02  0.45045682207E+02  0.00000000000E+00 0.  1.
         11    1    3    3    0    0 -0.25018617344E+01  0.23591053317E+01 -0.74446532500E+01  0.82004604979E+01  0.51100000000E-03 0. -1.
        -11    1    3    3    0    0 -0.14444547113E+01  0.84883267335E+01 -0.11452387410E+02  0.14328130297E+02  0.51100000000E-03 0.  1.
        -12    1    3    3    0    0  0.31665934271E+01  0.81922232719E+01 -0.21919586371E+02  0.23613726998E+02  0.00000000000E+00 0.  1.
</event>
<event>
 7    1  0.4194672E-008  0.4614232E+02  0.7816164E-02  0.1320468E+00
        -11   -1    0    0    0    0  0.00000000000E+00  0.00000000000E+00  0.45593999997E+02  0.45594000000E+02  0.51100000000E-03 0.  1.
         11   -1    0    0    0    0 -0.00000000000E+00 -0.00000000000E+00 -0.45593999997E+02  0.45594000000E+02  0.51100000000E-03 0. -1.
    9900012    2    1    2    0    0  0.41842249734E-01 -0.32839742845E+02 -0.30832825924E+02  0.46142316352E+02  0.99999871477E+01 0.  0.
        -12    1    1    2    0    0 -0.41842249734E-01  0.32839742845E+02  0.30832825924E+02  0.45045683648E+02  0.00000000000E+00 0.  1.
         11    1    3    3    0    0  0.28836376981E+01 -0.19667475333E+02 -0.15165456650E+02  0.25002320452E+02  0.51100000000E-03 0. -1.
        -11    1    3    3    0    0 -0.72176720116E+00 -0.49951584989E+00 -0.46218585128E-04  0.87776092429E+00  0.51100000000E-03 0.  1.
         12    1    3    3    0    0 -0.21200282473E+01 -0.12672751662E+02 -0.15667323056E+02  0.20262234975E+02  0.00000000000E+00 0. -1.
</event>
